<event>
 6    2  0.7993170E+000  0.8720495E+02  0.7546771E-02  0.1309765E+00
         21   -1    0    0  501  502  0.00000000000E+00  0.00000000000E+00  0.42592491800E+01  0.42592491800E+01  0.00000000000E+00 0.  1.
          2   -1    0    0  502    0 -0.00000000000E+00 -0.00000000000E+00 -0.96078993110E+03  0.96078993110E+03  0.00000000000E+00 0. -1.
         24    2    1    2    0    0 -0.21034733765E+02 -0.28520976570E+02 -0.78942516507E+03  0.79422716797E+03  0.79679338360E+02 0.  0.
        -13    1    3    3    0    0 -0.21771901215E+02 -0.49631138196E+02 -0.33881933511E+03  0.34312651807E+03  0.00000000000E+00 0.  1.
         14    1    3    3    0    0  0.73716745061E+00  0.21110161626E+02 -0.45060582996E+03  0.45110064989E+03  0.00000000000E+00 0. -1.
          1    1    1    2  501    0  0.21034733765E+02  0.28520976570E+02 -0.16710551685E+03  0.17082201231E+03  0.00000000000E+00 0. -1.
<mgrwt>
<rscale>  1 0.87204949E+02</rscale>
<asrwt>0</asrwt>
<pdfrwt beam="1">  1       21 0.65526831E-03 0.87204949E+02</pdfrwt>
<pdfrwt beam="2">  1        2 0.14781401E+00 0.87204949E+02</pdfrwt>
<totfact> 0.24127482E+06</totfact>
</mgrwt>
</event>
<event>
 6    2  0.7993170E+000  0.8396272E+02  0.7546771E-02  0.1318168E+00
         21   -1    0    0  501  502  0.00000000000E+00  0.00000000000E+00  0.51626514739E+01  0.51626514739E+01  0.00000000000E+00 0.  1.
         -1   -1    0    0    0  501 -0.00000000000E+00 -0.00000000000E+00 -0.75574388128E+03  0.75574388128E+03  0.00000000000E+00 0.  1.
         24    2    1    2    0    0  0.18734343200E+02 -0.10659565721E+02 -0.71007970228E+03  0.71502651871E+03  0.81148856520E+02 0.  0.
        -13    1    3    3    0    0  0.50106078796E+02  0.19446610659E+01 -0.41872845259E+03  0.42172018904E+03  0.00000000000E+00 0.  1.
         14    1    3    3    0    0 -0.31371735596E+02 -0.12604226787E+02 -0.29135124969E+03  0.29330632967E+03  0.00000000000E+00 0. -1.
         -2    1    1    2    0  502 -0.18734343200E+02  0.10659565721E+02 -0.40501527519E+02  0.45880014035E+02  0.00000000000E+00 0.  1.
<mgrwt>
<rscale>  1 0.83962723E+02</rscale>
<asrwt>0</asrwt>
<pdfrwt beam="1">  1       21 0.79425450E-03 0.83962723E+02</pdfrwt>
<pdfrwt beam="2">  1       -1 0.11626823E+00 0.83962723E+02</pdfrwt>
<totfact> 0.34025637E+05</totfact>
</mgrwt>
</event>
<event>
 6    2  0.7993170E+000  0.8692076E+02  0.7546771E-02  0.1310485E+00
         21   -1    0    0  501  502  0.00000000000E+00  0.00000000000E+00  0.84181557217E+02  0.84181557217E+02  0.00000000000E+00 0.  1.
         -3   -1    0    0    0  501 -0.00000000000E+00 -0.00000000000E+00 -0.14688131035E+03  0.14688131035E+03  0.00000000000E+00 0.  1.
         24    2    1    2    0    0  0.27886629752E+02 -0.15717765602E+02 -0.13008983366E+03  0.15645633147E+03  0.80811549678E+02 0.  0.
        -13    1    3    3    0    0  0.24320962480E+02 -0.34172164060E+02 -0.13108743964E+03  0.13763416307E+03  0.00000000000E+00 0.  1.
         14    1    3    3    0    0  0.35656672719E+01  0.18454398458E+02  0.99760598340E+00  0.18822168399E+02  0.00000000000E+00 0. -1.
         -4    1    1    2    0  502 -0.27886629752E+02  0.15717765602E+02  0.67390080528E+02  0.74606536095E+02  0.00000000000E+00 0.  1.
<mgrwt>
<rscale>  1 0.86920762E+02</rscale>
<asrwt>0</asrwt>
<pdfrwt beam="1">  1       21 0.12951009E-01 0.86920762E+02</pdfrwt>
<pdfrwt beam="2">  1       -3 0.22597125E-01 0.86920762E+02</pdfrwt>
<totfact> 0.42263428E+04</totfact>
</mgrwt>
</event>
<event>
 6    2  0.7993170E+000  0.7170344E+02  0.7546771E-02  0.1354394E+00
          2   -1    0    0  502    0 -0.00000000000E+00  0.00000000000E+00  0.55205528164E+03  0.55205528164E+03  0.00000000000E+00 0. -1.
         21   -1    0    0  501  502  0.00000000000E+00 -0.00000000000E+00 -0.46626581501E+01  0.46626581501E+01  0.00000000000E+00 0.  1.
         24    2    1    2    0    0 -0.25649091736E+02  0.12452015550E+02  0.42824563977E+03  0.43420699200E+03  0.65790997287E+02 0.  0.
        -13    1    3    3    0    0 -0.35935664753E+02  0.89931805402E+01  0.11596767133E+03  0.12174050308E+03  0.00000000000E+00 0.  1.
         14    1    3    3    0    0  0.10286573017E+02  0.34588350099E+01  0.31227796844E+03  0.31246648892E+03  0.00000000000E+00 0. -1.
          1    1    1    2  501    0  0.25649091736E+02 -0.12452015550E+02  0.11914698372E+03  0.12251094778E+03  0.00000000000E+00 0. -1.
<mgrwt>
<rscale>  1 0.71703444E+02</rscale>
<asrwt>0</asrwt>
<pdfrwt beam="1">  1       21 0.71733246E-03 0.71703444E+02</pdfrwt>
<pdfrwt beam="2">  1        2 0.84931530E-01 0.71703444E+02</pdfrwt>
<totfact> 0.39492558E+06</totfact>
</mgrwt>
</event>
<event>
 6    2  0.7993170E+000  0.8405304E+02  0.7546771E-02  0.1317928E+00
          2   -1    0    0  502    0 -0.00000000000E+00  0.00000000000E+00  0.10145915284E+04  0.10145915284E+04  0.00000000000E+00 0. -1.
         21   -1    0    0  501  502  0.00000000000E+00 -0.00000000000E+00 -0.27932375140E+01  0.27932375140E+01  0.00000000000E+00 0.  1.
         24    2    1    2    0    0  0.18387041013E+02 -0.12813841724E+02  0.79438552290E+03  0.79881992542E+03  0.81010100836E+02 0.  0.
        -13    1    3    3    0    0  0.40674840215E+02 -0.30218332398E+02  0.36448624738E+03  0.36799159606E+03  0.00000000000E+00 0.  1.
         14    1    3    3    0    0 -0.22287799202E+02  0.17404490674E+02  0.42989927552E+03  0.43082832936E+03  0.00000000000E+00 0. -1.
          1    1    1    2  501    0 -0.18387041013E+02  0.12813841724E+02  0.21741276799E+03  0.21856484050E+03  0.00000000000E+00 0. -1.
<mgrwt>
<rscale>  1 0.84053044E+02</rscale>
<asrwt>0</asrwt>
<pdfrwt beam="1">  1       21 0.42972966E-03 0.84053044E+02</pdfrwt>
<pdfrwt beam="2">  1        2 0.15609071E+00 0.84053044E+02</pdfrwt>
<totfact> 0.42656787E+06</totfact>
</mgrwt>
</event>
<event>
 6    2  0.7993170E+000  0.8137925E+02  0.7546771E-02  0.1325182E+00
         21   -1    0    0  501  502  0.00000000000E+00  0.00000000000E+00  0.16588734527E+04  0.16588734527E+04  0.00000000000E+00 0.  1.
         -1   -1    0    0    0  501 -0.00000000000E+00 -0.00000000000E+00 -0.17499167505E+01  0.17499167505E+01  0.00000000000E+00 0.  1.
         24    2    1    2    0    0  0.10524190752E+02  0.22886809499E+02  0.13607237876E+04  0.13631550930E+04  0.77382277957E+02 0.  0.
        -13    1    3    3    0    0  0.34833567516E+02  0.38360377606E+02  0.95926409111E+03  0.96066252789E+03  0.00000000000E+00 0.  1.
         14    1    3    3    0    0 -0.24309376764E+02 -0.15473568107E+02  0.40145969647E+03  0.40249256515E+03  0.00000000000E+00 0. -1.
         -2    1    1    2    0  502 -0.10524190752E+02 -0.22886809499E+02  0.29639974839E+03  0.29746827643E+03  0.00000000000E+00 0.  1.
<mgrwt>
<rscale>  1 0.81379245E+02</rscale>
<asrwt>0</asrwt>
<pdfrwt beam="1">  1       21 0.25521004E+00 0.81379245E+02</pdfrwt>
<pdfrwt beam="2">  1       -1 0.26921929E-03 0.81379245E+02</pdfrwt>
<totfact> 0.67032212E+04</totfact>
</mgrwt>
</event>
<event>
 6    2  0.7993170E+000  0.9161188E+02  0.7546771E-02  0.1298995E+00
         21   -1    0    0  501  502  0.00000000000E+00  0.00000000000E+00  0.31406903859E+03  0.31406903859E+03  0.00000000000E+00 0. -1.
         -3   -1    0    0    0  501 -0.00000000000E+00 -0.00000000000E+00 -0.15194462281E+02  0.15194462281E+02  0.00000000000E+00 0.  1.
         24    2    1    2    0    0  0.26497256586E+02  0.36556037673E+02  0.22119776308E+03  0.23941843529E+03  0.79713789682E+02 0.  0.
        -11    1    3    3    0    0  0.30599879041E+02  0.21693862533E+02  0.31181492569E+02  0.48777676736E+02  0.00000000000E+00 0.  1.
         12    1    3    3    0    0 -0.41026224554E+01  0.14862175140E+02  0.19001627051E+03  0.19064075855E+03  0.00000000000E+00 0. -1.
         -4    1    1    2    0  502 -0.26497256586E+02 -0.36556037673E+02  0.77676813229E+02  0.89845065587E+02  0.00000000000E+00 0.  1.
<mgrwt>
<rscale>  1 0.91611881E+02</rscale>
<asrwt>0</asrwt>
<pdfrwt beam="1">  1       21 0.48318309E-01 0.91611881E+02</pdfrwt>
<pdfrwt beam="2">  1       -3 0.23376098E-02 0.91611881E+02</pdfrwt>
<totfact> 0.13941209E+05</totfact>
</mgrwt>
</event>
<event>
 6    2  0.7993170E+000  0.8394885E+02  0.7546771E-02  0.1318205E+00
          2   -1    0    0  502    0 -0.00000000000E+00  0.00000000000E+00  0.14018562617E+04  0.14018562617E+04  0.00000000000E+00 0. -1.
         21   -1    0    0  501  502  0.00000000000E+00 -0.00000000000E+00 -0.30242899066E+01  0.30242899066E+01  0.00000000000E+00 0.  1.
         24    2    1    2    0    0  0.12471725354E+02  0.30357148006E+02  0.12316525744E+04  0.12345102159E+04  0.77267773496E+02 0.  0.
        -13    1    3    3    0    0 -0.19626348808E+02  0.42037258327E+02  0.52995781591E+03  0.53198459686E+03  0.00000000000E+00 0.  1.
         14    1    3    3    0    0  0.32098074161E+02 -0.11680110321E+02  0.70169475851E+03  0.70252561908E+03  0.00000000000E+00 0. -1.
          1    1    1    2  501    0 -0.12471725354E+02 -0.30357148006E+02  0.16717939737E+03  0.17037033566E+03  0.00000000000E+00 0. -1.
<mgrwt>
<rscale>  1 0.83948849E+02</rscale>
<asrwt>0</asrwt>
<pdfrwt beam="1">  1       21 0.46527649E-03 0.83948849E+02</pdfrwt>
<pdfrwt beam="2">  1        2 0.21566968E+00 0.83948849E+02</pdfrwt>
<totfact> 0.23294141E+06</totfact>
</mgrwt>
</event>
<event>
 6    2  0.7993170E+000  0.9588958E+02  0.7546771E-02  0.1289185E+00
         21   -1    0    0  501  502  0.00000000000E+00  0.00000000000E+00  0.87877053334E+01  0.87877053334E+01  0.00000000000E+00 0.  1.
         -1   -1    0    0    0  501 -0.00000000000E+00 -0.00000000000E+00 -0.63784572697E+03  0.63784572697E+03  0.00000000000E+00 0.  1.
         24    2    1    2    0    0  0.45975252266E+02  0.27193243426E+02 -0.42699514082E+03  0.43762959475E+03  0.79634261513E+02 0.  0.
        -13    1    3    3    0    0  0.47248353889E+02  0.22825611457E+02 -0.42932397567E+03  0.43251877598E+03  0.00000000000E+00 0.  1.
         14    1    3    3    0    0 -0.12731016233E+01  0.43676319692E+01  0.23288348526E+01  0.51108187732E+01  0.00000000000E+00 0. -1.
         -2    1    1    2    0  502 -0.45975252266E+02 -0.27193243426E+02 -0.20206288082E+03  0.20900383756E+03  0.00000000000E+00 0.  1.
<mgrwt>
<rscale>  1 0.95889582E+02</rscale>
<asrwt>0</asrwt>
<pdfrwt beam="1">  1       21 0.13519544E-02 0.95889582E+02</pdfrwt>
<pdfrwt beam="2">  1       -1 0.98130131E-01 0.95889582E+02</pdfrwt>
<totfact> 0.21854485E+05</totfact>
</mgrwt>
</event>
<event>
 6    2  0.7993170E+000  0.1371156E+03  0.7546771E-02  0.1217264E+00
          2   -1    0    0  502    0 -0.00000000000E+00  0.00000000000E+00  0.88144012163E+03  0.88144012163E+03  0.00000000000E+00 0. -1.
         21   -1    0    0  501  502  0.00000000000E+00 -0.00000000000E+00 -0.24417017340E+02  0.24417017340E+02  0.00000000000E+00 0. -1.
         24    2    1    2    0    0  0.10946935472E+03 -0.75006439836E+01  0.70594126494E+03  0.71913402453E+03  0.82224548749E+02 0.  0.
        -11    1    3    3    0    0  0.36151636999E+02 -0.39247721564E+02  0.20347680878E+03  0.21035716346E+03  0.00000000000E+00 0.  1.
         12    1    3    3    0    0  0.73317717720E+02  0.31747077581E+02  0.50246445616E+03  0.50877686108E+03  0.00000000000E+00 0. -1.
          1    1    1    2  501    0 -0.10946935472E+03  0.75006439836E+01  0.15108183935E+03  0.18672311443E+03  0.00000000000E+00 0. -1.
<mgrwt>
<rscale>  1 0.13711556E+03</rscale>
<asrwt>0</asrwt>
<pdfrwt beam="1">  1       21 0.37564649E-02 0.13711556E+03</pdfrwt>
<pdfrwt beam="2">  1        2 0.13560615E+00 0.13711556E+03</pdfrwt>
<totfact> 0.17134033E+05</totfact>
</mgrwt>
</event>
<event>
 6    2  0.7993170E+000  0.8326205E+02  0.7546771E-02  0.1320041E+00
         21   -1    0    0  501  502  0.00000000000E+00  0.00000000000E+00  0.26200682381E+02  0.26200682381E+02  0.00000000000E+00 0. -1.
          2   -1    0    0  502    0 -0.00000000000E+00 -0.00000000000E+00 -0.25904608050E+03  0.25904608050E+03  0.00000000000E+00 0. -1.
         24    2    1    2    0    0  0.15825336195E+02 -0.15715184186E+02 -0.24575549364E+03  0.25947703556E+03  0.80219455537E+02 0.  0.
        -11    1    3    3    0    0  0.34526871316E+02 -0.88126995186E+01 -0.43456313030E+02  0.56198039626E+02  0.00000000000E+00 0.  1.
         12    1    3    3    0    0 -0.18701535121E+02 -0.69024846670E+01 -0.20229918061E+03  0.20327899593E+03  0.00000000000E+00 0. -1.
          1    1    1    2  501    0 -0.15825336195E+02  0.15715184186E+02  0.12910095527E+02  0.25769727320E+02  0.00000000000E+00 0. -1.
<mgrwt>
<rscale>  1 0.83262052E+02</rscale>
<asrwt>0</asrwt>
<pdfrwt beam="1">  1       21 0.40308744E-02 0.83262052E+02</pdfrwt>
<pdfrwt beam="2">  1        2 0.39853241E-01 0.83262052E+02</pdfrwt>
<totfact> 0.57568143E+05</totfact>
</mgrwt>
</event>
<event>
 6    2  0.7993170E+000  0.9005750E+02  0.7546771E-02  0.1302713E+00
         -1   -1    0    0    0  501 -0.00000000000E+00  0.00000000000E+00  0.18364379727E+03  0.18364379727E+03  0.00000000000E+00 0.  1.
         21   -1    0    0  501  502  0.00000000000E+00 -0.00000000000E+00 -0.32917869872E+02  0.32917869872E+02  0.00000000000E+00 0.  1.
         24    2    1    2    0    0 -0.26849794184E+02 -0.30071350140E+02  0.15149389743E+03  0.17624061402E+03  0.80530463338E+02 0.  0.
        -11    1    3    3    0    0 -0.18352572394E+02 -0.52059400191E+02  0.13900469165E+03  0.14956370670E+03  0.00000000000E+00 0.  1.
         12    1    3    3    0    0 -0.84972217902E+01  0.21988050051E+02  0.12489205782E+02  0.26676907322E+02  0.00000000000E+00 0. -1.
         -2    1    1    2    0  502  0.26849794184E+02  0.30071350140E+02 -0.76797002910E+00  0.40321053123E+02  0.00000000000E+00 0.  1.
<mgrwt>
<rscale>  1 0.90057499E+02</rscale>
<asrwt>0</asrwt>
<pdfrwt beam="1">  1       21 0.50642878E-02 0.90057499E+02</pdfrwt>
<pdfrwt beam="2">  1       -1 0.28252891E-01 0.90057499E+02</pdfrwt>
<totfact> 0.25731865E+05</totfact>
</mgrwt>
</event>
<event>
 6    2  0.7993170E+000  0.8665180E+02  0.7546771E-02  0.1311169E+00
          2   -1    0    0  502    0 -0.00000000000E+00  0.00000000000E+00  0.14567782436E+04  0.14567782436E+04  0.00000000000E+00 0. -1.
         21   -1    0    0  501  502  0.00000000000E+00 -0.00000000000E+00 -0.23953170346E+01  0.23953170346E+01  0.00000000000E+00 0.  1.
         24    2    1    2    0    0  0.28023726724E+02  0.14327557858E+02  0.10778214085E+04  0.10812989981E+04  0.80733675454E+02 0.  0.
        -13    1    3    3    0    0  0.26071652026E+02 -0.17990017734E+02  0.17157932952E+03  0.17447876116E+03  0.00000000000E+00 0.  1.
         14    1    3    3    0    0  0.19520746976E+01  0.32317575591E+02  0.90624207903E+03  0.90682023692E+03  0.00000000000E+00 0. -1.
          1    1    1    2  501    0 -0.28023726724E+02 -0.14327557858E+02  0.37656151803E+03  0.37787456256E+03  0.00000000000E+00 0. -1.
<mgrwt>
<rscale>  1 0.86651800E+02</rscale>
<asrwt>0</asrwt>
<pdfrwt beam="1">  1       21 0.36851148E-03 0.86651800E+02</pdfrwt>
<pdfrwt beam="2">  1        2 0.22411902E+00 0.86651800E+02</pdfrwt>
<totfact> 0.31220871E+06</totfact>
</mgrwt>
</event>
<event>
 6    2  0.7993170E+000  0.9073766E+02  0.7546771E-02  0.1301075E+00
          2   -1    0    0  502    0 -0.00000000000E+00  0.00000000000E+00  0.30554470035E+02  0.30554470035E+02  0.00000000000E+00 0. -1.
         21   -1    0    0  501  502  0.00000000000E+00 -0.00000000000E+00 -0.15846331846E+03  0.15846331846E+03  0.00000000000E+00 0. -1.
         24    2    1    2    0    0  0.15656548205E+02 -0.37838907153E+02 -0.57065113440E+02  0.10719025534E+03  0.80971681907E+02 0.  0.
        -13    1    3    3    0    0 -0.26627588044E+02 -0.31137141684E+02 -0.48572716215E+02  0.63544148415E+02  0.00000000000E+00 0.  1.
         14    1    3    3    0    0  0.42284136249E+02 -0.67017654691E+01 -0.84923972247E+01  0.43646106921E+02  0.00000000000E+00 0. -1.
          1    1    1    2  501    0 -0.15656548205E+02  0.37838907153E+02 -0.70843734985E+02  0.81827533159E+02  0.00000000000E+00 0. -1.
<mgrwt>
<rscale>  1 0.90737664E+02</rscale>
<asrwt>0</asrwt>
<pdfrwt beam="1">  1       21 0.24378972E-01 0.90737664E+02</pdfrwt>
<pdfrwt beam="2">  1        2 0.47006878E-02 0.90737664E+02</pdfrwt>
<totfact> 0.30815481E+05</totfact>
</mgrwt>
</event>
<event>
 6    2  0.7993170E+000  0.8506696E+02  0.7546771E-02  0.1315258E+00
         21   -1    0    0  501  502  0.00000000000E+00  0.00000000000E+00  0.12230879719E+03  0.12230879719E+03  0.00000000000E+00 0. -1.
         -3   -1    0    0    0  501 -0.00000000000E+00 -0.00000000000E+00 -0.30132848877E+02  0.30132848877E+02  0.00000000000E+00 0.  1.
         24    2    1    2    0    0  0.22736775025E+02  0.12372314967E+01  0.97154626137E+02  0.12913330178E+03  0.81962775508E+02 0.  0.
        -13    1    3    3    0    0 -0.14315126395E+01 -0.11306840560E+02 -0.12049419477E+02  0.16585607665E+02  0.00000000000E+00 0.  1.
         14    1    3    3    0    0  0.24168287665E+02  0.12544072057E+02  0.10920404561E+03  0.11254769412E+03  0.00000000000E+00 0. -1.
         -4    1    1    2    0  502 -0.22736775025E+02 -0.12372314967E+01 -0.49786778254E+01  0.23308344283E+02  0.00000000000E+00 0.  1.
<mgrwt>
<rscale>  1 0.85066963E+02</rscale>
<asrwt>0</asrwt>
<pdfrwt beam="1">  1       21 0.18816738E-01 0.85066963E+02</pdfrwt>
<pdfrwt beam="2">  1       -3 0.46358230E-02 0.85066963E+02</pdfrwt>
<totfact> 0.29288850E+05</totfact>
</mgrwt>
</event>
<event>
 6    2  0.7993170E+000  0.8970091E+02  0.7546771E-02  0.1303578E+00
          2   -1    0    0  502    0 -0.00000000000E+00  0.00000000000E+00  0.10548957827E+03  0.10548957827E+03  0.00000000000E+00 0. -1.
         21   -1    0    0  501  502  0.00000000000E+00 -0.00000000000E+00 -0.84116935769E+03  0.84116935769E+03  0.00000000000E+00 0. -1.
         24    2    1    2    0    0 -0.20567680951E+02 -0.32617427628E+02  0.85886428444E+02  0.12418829211E+03  0.80989673548E+02 0.  0.
        -13    1    3    3    0    0  0.29688506770E+02 -0.25110931438E+02  0.37752174642E+02  0.54195876246E+02  0.00000000000E+00 0.  1.
         14    1    3    3    0    0 -0.50256187721E+02 -0.75064961903E+01  0.48134253802E+02  0.69992415863E+02  0.00000000000E+00 0. -1.
          1    1    1    2  501    0  0.20567680951E+02  0.32617427628E+02 -0.82156620786E+03  0.82247064385E+03  0.00000000000E+00 0. -1.
<mgrwt>
<rscale>  1 0.89700910E+02</rscale>
<asrwt>0</asrwt>
<pdfrwt beam="1">  1       21 0.12941067E+00 0.89700910E+02</pdfrwt>
<pdfrwt beam="2">  1        2 0.16229166E-01 0.89700910E+02</pdfrwt>
<totfact> 0.20097273E+03</totfact>
</mgrwt>
</event>
<event>
 6    2  0.7993170E+000  0.8284692E+02  0.7546771E-02  0.1321161E+00
         -1   -1    0    0    0  501 -0.00000000000E+00  0.00000000000E+00  0.43315360186E+02  0.43315360186E+02  0.00000000000E+00 0.  1.
         21   -1    0    0  501  502  0.00000000000E+00 -0.00000000000E+00 -0.79054866714E+02  0.79054866714E+02  0.00000000000E+00 0. -1.
         24    2    1    2    0    0  0.13697253729E+02  0.16808608972E+02 -0.27494455770E+01  0.82892534252E+02  0.79959168883E+02 0.  0.
        -13    1    3    3    0    0  0.14726897526E+02 -0.26296584303E+02  0.17933055855E+02  0.35071161216E+02  0.00000000000E+00 0.  1.
         14    1    3    3    0    0 -0.10296437966E+01  0.43105193275E+02 -0.20682501432E+02  0.47821373036E+02  0.00000000000E+00 0. -1.
         -2    1    1    2    0  502 -0.13697253729E+02 -0.16808608972E+02 -0.32990060950E+02  0.39477692648E+02  0.00000000000E+00 0.  1.
<mgrwt>
<rscale>  1 0.82846924E+02</rscale>
<asrwt>0</asrwt>
<pdfrwt beam="1">  1       21 0.12162287E-01 0.82846924E+02</pdfrwt>
<pdfrwt beam="2">  1       -1 0.66639016E-02 0.82846924E+02</pdfrwt>
<totfact> 0.53401835E+05</totfact>
</mgrwt>
</event>
<event>
 6    2  0.7993170E+000  0.8371824E+02  0.7546771E-02  0.1318819E+00
          4   -1    0    0  502    0 -0.00000000000E+00  0.00000000000E+00  0.32840154191E+03  0.32840154191E+03  0.00000000000E+00 0. -1.
         21   -1    0    0  501  502  0.00000000000E+00 -0.00000000000E+00 -0.62193008393E+02  0.62193008393E+02  0.00000000000E+00 0. -1.
         24    2    1    2    0    0  0.66911542210E+01  0.23701655035E+02  0.32035334277E+03  0.33111177662E+03  0.80013776273E+02 0.  0.
        -11    1    3    3    0    0 -0.12593943581E+02 -0.33804942936E+01  0.49292165801E+01  0.13940313221E+02  0.00000000000E+00 0.  1.
         12    1    3    3    0    0  0.19285097802E+02  0.27082149328E+02  0.31542412619E+03  0.31717146340E+03  0.00000000000E+00 0. -1.
          3    1    1    2  501    0 -0.66911542210E+01 -0.23701655035E+02 -0.54144809254E+02  0.59482773686E+02  0.00000000000E+00 0. -1.
<mgrwt>
<rscale>  1 0.83718244E+02</rscale>
<asrwt>0</asrwt>
<pdfrwt beam="1">  1       21 0.95681553E-02 0.83718244E+02</pdfrwt>
<pdfrwt beam="2">  1        4 0.50523314E-01 0.83718244E+02</pdfrwt>
<totfact> 0.12903894E+04</totfact>
</mgrwt>
</event>
<event>
 6    2  0.7993170E+000  0.1270164E+03  0.7546771E-02  0.1231951E+00
         -1   -1    0    0    0  501 -0.00000000000E+00  0.00000000000E+00  0.64467532770E+02  0.64467532770E+02  0.00000000000E+00 0.  1.
         21   -1    0    0  501  502  0.00000000000E+00 -0.00000000000E+00 -0.19747684546E+03  0.19747684546E+03  0.00000000000E+00 0.  1.
         24    2    1    2    0    0 -0.52816876442E+02  0.83032058173E+02 -0.68954144225E+02  0.14452628027E+03  0.80307076655E+02 0.  0.
        -11    1    3    3    0    0 -0.69873834665E+02  0.84780388966E+02 -0.60132460903E+02  0.12524368239E+03  0.00000000000E+00 0.  1.
         12    1    3    3    0    0  0.17056958223E+02 -0.17483307923E+01 -0.88216833216E+01  0.19282597880E+02  0.00000000000E+00 0. -1.
         -2    1    1    2    0  502  0.52816876442E+02 -0.83032058173E+02 -0.64055168462E+02  0.11741809796E+03  0.00000000000E+00 0.  1.
<mgrwt>
<rscale>  1 0.12701642E+03</rscale>
<asrwt>0</asrwt>
<pdfrwt beam="1">  1       21 0.30381052E-01 0.12701642E+03</pdfrwt>
<pdfrwt beam="2">  1       -1 0.99180822E-02 0.12701642E+03</pdfrwt>
<totfact> 0.56674034E+04</totfact>
</mgrwt>
</event>
<event>
 6    2  0.7993170E+000  0.8017036E+02  0.7546771E-02  0.1328569E+00
          2   -1    0    0  502    0 -0.00000000000E+00  0.00000000000E+00  0.12674699817E+03  0.12674699817E+03  0.00000000000E+00 0. -1.
         21   -1    0    0  501  502  0.00000000000E+00 -0.00000000000E+00 -0.22903385259E+02  0.22903385259E+02  0.00000000000E+00 0.  1.
         24    2    1    2    0    0 -0.13261721600E+02 -0.17932120090E+02  0.97960752134E+02  0.12658434255E+03  0.77005536360E+02 0.  0.
        -13    1    3    3    0    0  0.33404092255E+01 -0.44787905285E+02  0.38051740548E+02  0.58864673212E+02  0.00000000000E+00 0.  1.
         14    1    3    3    0    0 -0.16602130826E+02  0.26855785195E+02  0.59909011586E+02  0.67719669341E+02  0.00000000000E+00 0. -1.
          1    1    1    2  501    0  0.13261721600E+02  0.17932120090E+02  0.58828607763E+01  0.23066040875E+02  0.00000000000E+00 0. -1.
<mgrwt>
<rscale>  1 0.80170361E+02</rscale>
<asrwt>0</asrwt>
<pdfrwt beam="1">  1       21 0.35235978E-02 0.80170361E+02</pdfrwt>
<pdfrwt beam="2">  1        2 0.19499538E-01 0.80170361E+02</pdfrwt>
<totfact> 0.15415668E+06</totfact>
</mgrwt>
</event>
<event>
 6    2  0.7993170E+000  0.8792303E+02  0.7546771E-02  0.1307961E+00
         21   -1    0    0  501  502  0.00000000000E+00  0.00000000000E+00  0.13506446397E+03  0.13506446397E+03  0.00000000000E+00 0.  1.
          2   -1    0    0  502    0 -0.00000000000E+00 -0.00000000000E+00 -0.27517274658E+02  0.27517274658E+02  0.00000000000E+00 0. -1.
         24    2    1    2    0    0  0.16247321496E+01  0.26575336762E+02  0.55094987832E+02  0.10375893932E+03  0.83794818013E+02 0.  0.
        -11    1    3    3    0    0 -0.14143336634E+02  0.29728081572E+02  0.72766056957E+02  0.79866713030E+02  0.00000000000E+00 0.  1.
         12    1    3    3    0    0  0.15768068784E+02 -0.31527448093E+01 -0.17671069125E+02  0.23892226289E+02  0.00000000000E+00 0. -1.
          1    1    1    2  501    0 -0.16247321496E+01 -0.26575336762E+02  0.52452201482E+02  0.58822799312E+02  0.00000000000E+00 0. -1.
<mgrwt>
<rscale>  1 0.87923033E+02</rscale>
<asrwt>0</asrwt>
<pdfrwt beam="1">  1       21 0.20779148E-01 0.87923033E+02</pdfrwt>
<pdfrwt beam="2">  1        2 0.42334269E-02 0.87923033E+02</pdfrwt>
<totfact> 0.47314020E+05</totfact>
</mgrwt>
</event>
<event>
 6    2  0.7993170E+000  0.9770798E+02  0.7546771E-02  0.1285191E+00
         -1   -1    0    0    0  501 -0.00000000000E+00  0.00000000000E+00  0.81733541645E+02  0.81733541645E+02  0.00000000000E+00 0.  1.
         21   -1    0    0  501  502  0.00000000000E+00 -0.00000000000E+00 -0.12697466295E+03  0.12697466295E+03  0.00000000000E+00 0.  1.
         24    2    1    2    0    0  0.47921434108E+02  0.19931667196E+02 -0.95380334816E+02  0.13654397567E+03  0.82783535917E+02 0.  0.
        -11    1    3    3    0    0  0.71247335697E+02  0.11011168443E+02 -0.63696461942E+02  0.96201184704E+02  0.00000000000E+00 0.  1.
         12    1    3    3    0    0 -0.23325901589E+02  0.89204987533E+01 -0.31683872874E+02  0.40342790970E+02  0.00000000000E+00 0. -1.
         -2    1    1    2    0  502 -0.47921434108E+02 -0.19931667196E+02  0.50139213511E+02  0.72164228921E+02  0.00000000000E+00 0.  1.
<mgrwt>
<rscale>  1 0.97707978E+02</rscale>
<asrwt>0</asrwt>
<pdfrwt beam="1">  1       21 0.19534563E-01 0.97707978E+02</pdfrwt>
<pdfrwt beam="2">  1       -1 0.12574391E-01 0.97707978E+02</pdfrwt>
<totfact> 0.89307350E+04</totfact>
</mgrwt>
</event>
<event>
 6    2  0.7993170E+000  0.9451718E+02  0.7546771E-02  0.1292267E+00
          2   -1    0    0  502    0 -0.00000000000E+00  0.00000000000E+00  0.27603068609E+03  0.27603068609E+03  0.00000000000E+00 0. -1.
         21   -1    0    0  501  502  0.00000000000E+00 -0.00000000000E+00 -0.19325950908E+02  0.19325950908E+02  0.00000000000E+00 0.  1.
         24    2    1    2    0    0 -0.35008398015E+02 -0.36097599439E+02  0.14833448654E+03  0.17588808295E+03  0.80030451753E+02 0.  0.
        -13    1    3    3    0    0 -0.30715097242E+02 -0.60630197323E+02  0.92825218257E+02  0.11504763870E+03  0.00000000000E+00 0.  1.
         14    1    3    3    0    0 -0.42933007727E+01  0.24532597884E+02  0.55509268287E+02  0.60840444248E+02  0.00000000000E+00 0. -1.
          1    1    1    2  501    0  0.35008398015E+02  0.36097599439E+02  0.10837024864E+03  0.11946855405E+03  0.00000000000E+00 0. -1.
<mgrwt>
<rscale>  1 0.94517183E+02</rscale>
<asrwt>0</asrwt>
<pdfrwt beam="1">  1       21 0.29732234E-02 0.94517183E+02</pdfrwt>
<pdfrwt beam="2">  1        2 0.42466257E-01 0.94517183E+02</pdfrwt>
<totfact> 0.89688803E+05</totfact>
</mgrwt>
</event>
<event>
 6    2  0.7993170E+000  0.8628380E+02  0.7546771E-02  0.1312109E+00
          2   -1    0    0  502    0 -0.00000000000E+00  0.00000000000E+00  0.27051863930E+04  0.27051863930E+04  0.00000000000E+00 0. -1.
         21   -1    0    0  501  502  0.00000000000E+00 -0.00000000000E+00 -0.13302078052E+01  0.13302078052E+01  0.00000000000E+00 0. -1.
         24    2    1    2    0    0 -0.10170810572E+02 -0.32096087359E+02  0.19677290223E+04  0.19696198617E+04  0.79443628013E+02 0.  0.
        -11    1    3    3    0    0  0.14075174371E+02  0.22362683242E+02  0.53763463345E+03  0.53828356767E+03  0.00000000000E+00 0.  1.
         12    1    3    3    0    0 -0.24245984943E+02 -0.54458770600E+02  0.14300943888E+04  0.14313362940E+04  0.00000000000E+00 0. -1.
          1    1    1    2  501    0  0.10170810572E+02  0.32096087359E+02  0.73612716290E+03  0.73689673915E+03  0.00000000000E+00 0. -1.
<mgrwt>
<rscale>  1 0.86283801E+02</rscale>
<asrwt>0</asrwt>
<pdfrwt beam="1">  1       21 0.20464952E-03 0.86283801E+02</pdfrwt>
<pdfrwt beam="2">  1        2 0.41617812E+00 0.86283801E+02</pdfrwt>
<totfact> 0.17457909E+06</totfact>
</mgrwt>
</event>
<event>
 6    2  0.7993170E+000  0.8271392E+02  0.7546771E-02  0.1321521E+00
         21   -1    0    0  501  502  0.00000000000E+00  0.00000000000E+00  0.25803787299E+02  0.25803787299E+02  0.00000000000E+00 0. -1.
          2   -1    0    0  502    0 -0.00000000000E+00 -0.00000000000E+00 -0.30861441546E+03  0.30861441546E+03  0.00000000000E+00 0. -1.
         24    2    1    2    0    0  0.20198451305E+02  0.38765278471E+01 -0.29773233927E+03  0.30900831560E+03  0.80116092989E+02 0.  0.
        -13    1    3    3    0    0 -0.18942543924E+02 -0.16817965035E+02 -0.38927880984E+02  0.46443986006E+02  0.00000000000E+00 0.  1.
         14    1    3    3    0    0  0.39140995229E+02  0.20694492882E+02 -0.25880445829E+03  0.26256432959E+03  0.00000000000E+00 0. -1.
          1    1    1    2  501    0 -0.20198451305E+02 -0.38765278471E+01  0.14921711110E+02  0.25409887164E+02  0.00000000000E+00 0. -1.
<mgrwt>
<rscale>  1 0.82713924E+02</rscale>
<asrwt>0</asrwt>
<pdfrwt beam="1">  1       21 0.39698138E-02 0.82713924E+02</pdfrwt>
<pdfrwt beam="2">  1        2 0.47479136E-01 0.82713924E+02</pdfrwt>
<totfact> 0.49154130E+05</totfact>
</mgrwt>
</event>
<event>
 6    2  0.7993170E+000  0.8992772E+02  0.7546771E-02  0.1303027E+00
         -1   -1    0    0    0  501 -0.00000000000E+00  0.00000000000E+00  0.63519348409E+02  0.63519348409E+02  0.00000000000E+00 0.  1.
         21   -1    0    0  501  502  0.00000000000E+00 -0.00000000000E+00 -0.68650619087E+02  0.68650619087E+02  0.00000000000E+00 0. -1.
         24    2    1    2    0    0  0.41858934079E+02  0.44235159819E+01 -0.17898303769E+01  0.89945530506E+02  0.79468591968E+02 0.  0.
        -11    1    3    3    0    0  0.34043462834E+02 -0.60076767907E+01  0.36036349887E+02  0.49936640409E+02  0.00000000000E+00 0.  1.
         12    1    3    3    0    0  0.78154712453E+01  0.10431192773E+02 -0.37826180264E+02  0.40008890097E+02  0.00000000000E+00 0. -1.
         -2    1    1    2    0  502 -0.41858934079E+02 -0.44235159819E+01 -0.33414403014E+01  0.42224436990E+02  0.00000000000E+00 0.  1.
<mgrwt>
<rscale>  1 0.89927721E+02</rscale>
<asrwt>0</asrwt>
<pdfrwt beam="1">  1       21 0.10561634E-01 0.89927721E+02</pdfrwt>
<pdfrwt beam="2">  1       -1 0.97722075E-02 0.89927721E+02</pdfrwt>
<totfact> 0.38949336E+05</totfact>
</mgrwt>
</event>
<event>
 6    2  0.7993170E+000  0.7677306E+02  0.7546771E-02  0.1338467E+00
         -1   -1    0    0    0  501 -0.00000000000E+00  0.00000000000E+00  0.54080190923E+02  0.54080190923E+02  0.00000000000E+00 0.  1.
         21   -1    0    0  501  502  0.00000000000E+00 -0.00000000000E+00 -0.86364176536E+02  0.86364176536E+02  0.00000000000E+00 0.  1.
         24    2    1    2    0    0  0.42010331132E+02  0.15531971849E+02  0.11711621005E+02  0.77661221050E+02  0.62353773880E+02 0.  0.
        -13    1    3    3    0    0  0.44427853230E+02  0.33328451778E+01  0.31307070910E+02  0.54452499378E+02  0.00000000000E+00 0.  1.
         14    1    3    3    0    0 -0.24175220980E+01  0.12199126671E+02 -0.19595449906E+02  0.23208721672E+02  0.00000000000E+00 0. -1.
         -2    1    1    2    0  502 -0.42010331132E+02 -0.15531971849E+02 -0.43995606618E+02  0.62783146409E+02  0.00000000000E+00 0.  1.
<mgrwt>
<rscale>  1 0.76773063E+02</rscale>
<asrwt>0</asrwt>
<pdfrwt beam="1">  1       21 0.13286796E-01 0.76773063E+02</pdfrwt>
<pdfrwt beam="2">  1       -1 0.83200293E-02 0.76773063E+02</pdfrwt>
<totfact> 0.32637686E+05</totfact>
</mgrwt>
</event>
<event>
 6    2  0.7993170E+000  0.9672952E+02  0.7546771E-02  0.1287328E+00
         21   -1    0    0  501  502  0.00000000000E+00  0.00000000000E+00  0.36006405344E+02  0.36006405344E+02  0.00000000000E+00 0.  1.
         -3   -1    0    0    0  501 -0.00000000000E+00 -0.00000000000E+00 -0.29445859698E+03  0.29445859698E+03  0.00000000000E+00 0.  1.
         24    2    1    2    0    0  0.48142657582E+02  0.23368637807E+02 -0.38522375784E+02  0.10411807256E+03  0.80577856052E+02 0.  0.
        -11    1    3    3    0    0  0.66360115862E+02  0.25343675142E+02 -0.45669668032E+02  0.84449306836E+02  0.00000000000E+00 0.  1.
         12    1    3    3    0    0 -0.18217458281E+02 -0.19750373353E+01  0.71472922483E+01  0.19668765725E+02  0.00000000000E+00 0. -1.
         -4    1    1    2    0  502 -0.48142657582E+02 -0.23368637807E+02 -0.21992981585E+03  0.22634692976E+03  0.00000000000E+00 0.  1.
<mgrwt>
<rscale>  1 0.96729518E+02</rscale>
<asrwt>0</asrwt>
<pdfrwt beam="1">  1       21 0.55394467E-02 0.96729518E+02</pdfrwt>
<pdfrwt beam="2">  1       -3 0.45301325E-01 0.96729518E+02</pdfrwt>
<totfact> 0.50709434E+04</totfact>
</mgrwt>
</event>
<event>
 6    2  0.7993170E+000  0.8892641E+02  0.7546771E-02  0.1305473E+00
          2   -1    0    0  502    0 -0.00000000000E+00  0.00000000000E+00  0.70793810569E+03  0.70793810569E+03  0.00000000000E+00 0. -1.
         21   -1    0    0  501  502  0.00000000000E+00 -0.00000000000E+00 -0.33682306304E+02  0.33682306304E+02  0.00000000000E+00 0. -1.
         24    2    1    2    0    0  0.32927956455E+02 -0.80473923178E+01  0.69579779041E+03  0.70145739148E+03  0.82212505650E+02 0.  0.
        -13    1    3    3    0    0 -0.81307193317E+01  0.23916753902E+02  0.42223305846E+03  0.42298803218E+03  0.00000000000E+00 0.  1.
         14    1    3    3    0    0  0.41058675787E+02 -0.31964146220E+02  0.27356473195E+03  0.27846935930E+03  0.00000000000E+00 0. -1.
          1    1    1    2  501    0 -0.32927956455E+02  0.80473923178E+01 -0.21541991024E+02  0.40163020513E+02  0.00000000000E+00 0. -1.
<mgrwt>
<rscale>  1 0.88926413E+02</rscale>
<asrwt>0</asrwt>
<pdfrwt beam="1">  1       21 0.51818938E-02 0.88926413E+02</pdfrwt>
<pdfrwt beam="2">  1        2 0.10891354E+00 0.88926413E+02</pdfrwt>
<totfact> 0.12962953E+05</totfact>
</mgrwt>
</event>
<event>
 6    2  0.7993170E+000  0.1032742E+03  0.7546771E-02  0.1273558E+00
          2   -1    0    0  502    0 -0.00000000000E+00  0.00000000000E+00  0.15732938793E+04  0.15732938793E+04  0.00000000000E+00 0. -1.
         21   -1    0    0  501  502  0.00000000000E+00 -0.00000000000E+00 -0.40410937381E+01  0.40410937381E+01  0.00000000000E+00 0. -1.
         24    2    1    2    0    0 -0.52488747375E+02  0.84742293002E+01  0.11717164334E+04  0.11762588800E+04  0.88536270412E+02 0.  0.
        -11    1    3    3    0    0 -0.52831599397E+02 -0.27409659840E+02  0.92892041366E+03  0.93082522649E+03  0.00000000000E+00 0.  1.
         12    1    3    3    0    0  0.34285202179E+00  0.35883889140E+02  0.24279601977E+03  0.24543365348E+03  0.00000000000E+00 0. -1.
          1    1    1    2  501    0  0.52488747375E+02 -0.84742293002E+01  0.39753635212E+03  0.40107609306E+03  0.00000000000E+00 0. -1.
<mgrwt>
<rscale>  1 0.10327416E+03</rscale>
<asrwt>0</asrwt>
<pdfrwt beam="1">  1       21 0.62170799E-03 0.10327416E+03</pdfrwt>
<pdfrwt beam="2">  1        2 0.24204472E+00 0.10327416E+03</pdfrwt>
<totfact> 0.12376981E+06</totfact>
</mgrwt>
</event>
<event>
 6    2  0.7993170E+000  0.8687652E+02  0.7546771E-02  0.1310597E+00
          2   -1    0    0  502    0 -0.00000000000E+00  0.00000000000E+00  0.22412930817E+03  0.22412930817E+03  0.00000000000E+00 0. -1.
         21   -1    0    0  501  502  0.00000000000E+00 -0.00000000000E+00 -0.30124379901E+02  0.30124379901E+02  0.00000000000E+00 0. -1.
         24    2    1    2    0    0  0.25774115424E+02  0.20354637472E+02  0.20248398797E+03  0.22033450846E+03  0.80429558892E+02 0.  0.
        -11    1    3    3    0    0  0.44865766148E+02  0.19955049501E+02  0.64647422234E+02  0.81181464474E+02  0.00000000000E+00 0.  1.
         12    1    3    3    0    0 -0.19091650724E+02  0.39958797030E+00  0.13783656573E+03  0.13915304399E+03  0.00000000000E+00 0. -1.
          1    1    1    2  501    0 -0.25774115424E+02 -0.20354637472E+02 -0.84790596926E+01  0.33919179615E+02  0.00000000000E+00 0. -1.
<mgrwt>
<rscale>  1 0.86876523E+02</rscale>
<asrwt>0</asrwt>
<pdfrwt beam="1">  1       21 0.46345201E-02 0.86876523E+02</pdfrwt>
<pdfrwt beam="2">  1        2 0.34481431E-01 0.86876523E+02</pdfrwt>
<totfact> 0.53456847E+05</totfact>
</mgrwt>
</event>
<event>
 6    2  0.7993170E+000  0.9355060E+02  0.7546771E-02  0.1294474E+00
         -3   -1    0    0    0  501 -0.00000000000E+00  0.00000000000E+00  0.60797474710E+03  0.60797474710E+03  0.00000000000E+00 0.  1.
         21   -1    0    0  501  502  0.00000000000E+00 -0.00000000000E+00 -0.93655494926E+01  0.93655494926E+01  0.00000000000E+00 0. -1.
         24    2    1    2    0    0 -0.47917835096E+02  0.11472771474E+02  0.47775255722E+03  0.48682565783E+03  0.79523404011E+02 0.  0.
        -13    1    3    3    0    0 -0.14506716801E+02 -0.83775961172E+01  0.39549461138E+03  0.39584923466E+03  0.00000000000E+00 0.  1.
         14    1    3    3    0    0 -0.33411118295E+02  0.19850367591E+02  0.82257945842E+02  0.90976423173E+02  0.00000000000E+00 0. -1.
         -4    1    1    2    0  502  0.47917835096E+02 -0.11472771474E+02  0.12085664038E+03  0.13051463876E+03  0.00000000000E+00 0.  1.
<mgrwt>
<rscale>  1 0.93550602E+02</rscale>
<asrwt>0</asrwt>
<pdfrwt beam="1">  1       21 0.14408542E-02 0.93550602E+02</pdfrwt>
<pdfrwt beam="2">  1       -3 0.93534545E-01 0.93550602E+02</pdfrwt>
<totfact> 0.10006043E+05</totfact>
</mgrwt>
</event>
<event>
 6    2  0.7993170E+000  0.7813603E+02  0.7546771E-02  0.1334426E+00
         21   -1    0    0  501  502  0.00000000000E+00  0.00000000000E+00  0.18936151408E+01  0.18936151408E+01  0.00000000000E+00 0. -1.
          2   -1    0    0  502    0 -0.00000000000E+00 -0.00000000000E+00 -0.42456251452E+04  0.42456251452E+04  0.00000000000E+00 0. -1.
         24    2    1    2    0    0 -0.21777354251E+02 -0.12610823154E+02 -0.41414462514E+04  0.41421832760E+04  0.73972651687E+02 0.  0.
        -13    1    3    3    0    0 -0.33209740637E+02  0.12654338240E+02 -0.10290767005E+04  0.10296901838E+04  0.00000000000E+00 0.  1.
         14    1    3    3    0    0  0.11432386386E+02 -0.25265161395E+02 -0.31123695509E+04  0.31124930922E+04  0.00000000000E+00 0. -1.
          1    1    1    2  501    0  0.21777354251E+02  0.12610823154E+02 -0.10228527867E+03  0.10533548429E+03  0.00000000000E+00 0. -1.
<mgrwt>
<rscale>  1 0.78136030E+02</rscale>
<asrwt>0</asrwt>
<pdfrwt beam="1">  1       21 0.29132709E-03 0.78136030E+02</pdfrwt>
<pdfrwt beam="2">  1        2 0.65316933E+00 0.78136030E+02</pdfrwt>
<totfact> 0.10453893E+05</totfact>
</mgrwt>
</event>
<event>
 6    2  0.7993170E+000  0.8881522E+02  0.7546771E-02  0.1305746E+00
          2   -1    0    0  502    0 -0.00000000000E+00  0.00000000000E+00  0.12514879926E+03  0.12514879926E+03  0.00000000000E+00 0. -1.
         21   -1    0    0  501  502  0.00000000000E+00 -0.00000000000E+00 -0.51032129186E+02  0.51032129186E+02  0.00000000000E+00 0. -1.
         24    2    1    2    0    0  0.45270277463E+01 -0.25758863940E+02  0.10380552880E+03  0.13661526929E+03  0.84877152070E+02 0.  0.
        -11    1    3    3    0    0  0.23681824488E+02 -0.13404423914E+02 -0.30252910661E+01  0.27379915587E+02  0.00000000000E+00 0.  1.
         12    1    3    3    0    0 -0.19154796741E+02 -0.12354440027E+02  0.10683081986E+03  0.10923535371E+03  0.00000000000E+00 0. -1.
          1    1    1    2  501    0 -0.45270277463E+01  0.25758863940E+02 -0.29688858724E+02  0.39565659151E+02  0.00000000000E+00 0. -1.
<mgrwt>
<rscale>  1 0.88815224E+02</rscale>
<asrwt>0</asrwt>
<pdfrwt beam="1">  1       21 0.78510969E-02 0.88815224E+02</pdfrwt>
<pdfrwt beam="2">  1        2 0.19253661E-01 0.88815224E+02</pdfrwt>
<totfact> 0.41596302E+05</totfact>
</mgrwt>
</event>
<event>
 6    2  0.7993170E+000  0.9395657E+02  0.7546771E-02  0.1293544E+00
          2   -1    0    0  502    0 -0.00000000000E+00  0.00000000000E+00  0.25571466915E+02  0.25571466915E+02  0.00000000000E+00 0. -1.
         21   -1    0    0  501  502  0.00000000000E+00 -0.00000000000E+00 -0.22235400429E+03  0.22235400429E+03  0.00000000000E+00 0. -1.
         24    2    1    2    0    0  0.44230526268E+02  0.18745656687E+02 -0.86821452714E+02  0.12792889109E+03  0.80747120236E+02 0.  0.
        -11    1    3    3    0    0  0.30964397726E+02  0.11711827286E+02 -0.10160192489E+03  0.10685930922E+03  0.00000000000E+00 0.  1.
         12    1    3    3    0    0  0.13266128542E+02  0.70338294016E+01  0.14780472178E+02  0.21069581875E+02  0.00000000000E+00 0. -1.
          1    1    1    2  501    0 -0.44230526268E+02 -0.18745656687E+02 -0.10996108466E+03  0.11999658011E+03  0.00000000000E+00 0. -1.
<mgrwt>
<rscale>  1 0.93956567E+02</rscale>
<asrwt>0</asrwt>
<pdfrwt beam="1">  1       21 0.34208308E-01 0.93956567E+02</pdfrwt>
<pdfrwt beam="2">  1        2 0.39340719E-02 0.93956567E+02</pdfrwt>
<totfact> 0.20450837E+05</totfact>
</mgrwt>
</event>
<event>
 6    2  0.7993170E+000  0.8746589E+02  0.7546771E-02  0.1309107E+00
         21   -1    0    0  501  502  0.00000000000E+00  0.00000000000E+00  0.20073294427E+02  0.20073294427E+02  0.00000000000E+00 0.  1.
          2   -1    0    0  502    0 -0.00000000000E+00 -0.00000000000E+00 -0.20793631431E+03  0.20793631431E+03  0.00000000000E+00 0. -1.
         24    2    1    2    0    0 -0.31235365235E+02  0.17190906340E+02 -0.98127998545E+02  0.13145108060E+03  0.79869313191E+02 0.  0.
        -11    1    3    3    0    0 -0.16250216844E+02  0.29185986289E+02 -0.20427614222E+01  0.33467360479E+02  0.00000000000E+00 0.  1.
         12    1    3    3    0    0 -0.14985148391E+02 -0.11995079950E+02 -0.96085237123E+02  0.97983720119E+02  0.00000000000E+00 0. -1.
          1    1    1    2  501    0  0.31235365235E+02 -0.17190906340E+02 -0.89735021341E+02  0.96558528143E+02  0.00000000000E+00 0. -1.
<mgrwt>
<rscale>  1 0.87465893E+02</rscale>
<asrwt>0</asrwt>
<pdfrwt beam="1">  1       21 0.30881990E-02 0.87465893E+02</pdfrwt>
<pdfrwt beam="2">  1        2 0.31990204E-01 0.87465893E+02</pdfrwt>
<totfact> 0.11274152E+06</totfact>
</mgrwt>
</event>
<event>
 6    2  0.7993170E+000  0.9419506E+02  0.7546771E-02  0.1292999E+00
         21   -1    0    0  501  502  0.00000000000E+00  0.00000000000E+00  0.67431458287E+01  0.67431458287E+01  0.00000000000E+00 0. -1.
          2   -1    0    0  502    0 -0.00000000000E+00 -0.00000000000E+00 -0.14208120259E+04  0.14208120259E+04  0.00000000000E+00 0. -1.
         24    2    1    2    0    0 -0.43067090311E+02 -0.11906082296E+02 -0.13206008702E+04  0.13239559539E+04  0.82922737894E+02 0.  0.
        -11    1    3    3    0    0  0.18531634756E+02 -0.21604471590E+02 -0.26739137627E+03  0.26890206914E+03  0.00000000000E+00 0.  1.
         12    1    3    3    0    0 -0.61598725068E+02  0.96983892935E+01 -0.10532094939E+04  0.10550538848E+04  0.00000000000E+00 0. -1.
          1    1    1    2  501    0  0.43067090311E+02  0.11906082296E+02 -0.93468009889E+02  0.10359921784E+03  0.00000000000E+00 0. -1.
<mgrwt>
<rscale>  1 0.94195061E+02</rscale>
<asrwt>0</asrwt>
<pdfrwt beam="1">  1       21 0.10374072E-02 0.94195061E+02</pdfrwt>
<pdfrwt beam="2">  1        2 0.21858644E+00 0.94195061E+02</pdfrwt>
<totfact> 0.66473255E+05</totfact>
</mgrwt>
</event>
<event>
 6    2  0.7993170E+000  0.1093539E+03  0.7546771E-02  0.1261771E+00
         -1   -1    0    0    0  501 -0.00000000000E+00  0.00000000000E+00  0.28914356257E+03  0.28914356257E+03  0.00000000000E+00 0.  1.
         21   -1    0    0  501  502  0.00000000000E+00 -0.00000000000E+00 -0.28785367647E+02  0.28785367647E+02  0.00000000000E+00 0. -1.
         24    2    1    2    0    0  0.23740985881E+02 -0.68729171031E+02  0.16649379689E+03  0.19919452670E+03  0.81675833035E+02 0.  0.
        -13    1    3    3    0    0  0.31049377868E+01 -0.14956850381E+02  0.13025204067E+03  0.13114473726E+03  0.00000000000E+00 0.  1.
         14    1    3    3    0    0  0.20636048094E+02 -0.53772320650E+02  0.36241756226E+02  0.68049789444E+02  0.00000000000E+00 0. -1.
         -2    1    1    2    0  502 -0.23740985881E+02  0.68729171031E+02  0.93864398034E+02  0.11873440352E+03  0.00000000000E+00 0.  1.
<mgrwt>
<rscale>  1 0.10935390E+03</rscale>
<asrwt>0</asrwt>
<pdfrwt beam="1">  1       21 0.44285183E-02 0.10935390E+03</pdfrwt>
<pdfrwt beam="2">  1       -1 0.44483623E-01 0.10935390E+03</pdfrwt>
<totfact> 0.15042921E+05</totfact>
</mgrwt>
</event>
<event>
 6    2  0.7993170E+000  0.7485505E+02  0.7546771E-02  0.1344320E+00
         21   -1    0    0  501  502  0.00000000000E+00  0.00000000000E+00  0.95760962235E+00  0.95760962235E+00  0.00000000000E+00 0. -1.
          2   -1    0    0  502    0 -0.00000000000E+00 -0.00000000000E+00 -0.39493127611E+04  0.39493127611E+04  0.00000000000E+00 0. -1.
         24    2    1    2    0    0 -0.11905940174E+02  0.24481536813E+02 -0.36245494409E+04  0.36253223207E+04  0.69729347287E+02 0.  0.
        -11    1    3    3    0    0 -0.26732942657E+00 -0.20091960799E+02 -0.46127719410E+03  0.46171463931E+03  0.00000000000E+00 0.  1.
         12    1    3    3    0    0 -0.11638610748E+02  0.44573497612E+02 -0.31632722468E+04  0.31636076813E+04  0.00000000000E+00 0. -1.
          1    1    1    2  501    0  0.11905940174E+02 -0.24481536813E+02 -0.32380571058E+03  0.32494805010E+03  0.00000000000E+00 0. -1.
<mgrwt>
<rscale>  1 0.74855053E+02</rscale>
<asrwt>0</asrwt>
<pdfrwt beam="1">  1       21 0.14732052E-03 0.74855053E+02</pdfrwt>
<pdfrwt beam="2">  1        2 0.60760322E+00 0.74855053E+02</pdfrwt>
<totfact> 0.48714787E+05</totfact>
</mgrwt>
</event>
<event>
 6    2  0.7993170E+000  0.8594911E+02  0.7546771E-02  0.1312969E+00
          2   -1    0    0  502    0 -0.00000000000E+00  0.00000000000E+00  0.11469370994E+04  0.11469370994E+04  0.00000000000E+00 0. -1.
         21   -1    0    0  501  502  0.00000000000E+00 -0.00000000000E+00 -0.37598195914E+01  0.37598195914E+01  0.00000000000E+00 0. -1.
         24    2    1    2    0    0 -0.14229532484E+02  0.16631034033E+02  0.10872082032E+04  0.10906002599E+04  0.83115456364E+02 0.  0.
        -13    1    3    3    0    0  0.42721381894E+01 -0.12959618022E+02  0.31662153706E+02  0.34477454101E+02  0.00000000000E+00 0.  1.
         14    1    3    3    0    0 -0.18501670673E+02  0.29590652054E+02  0.10555460495E+04  0.10561228058E+04  0.00000000000E+00 0. -1.
          1    1    1    2  501    0  0.14229532484E+02 -0.16631034033E+02  0.55969076661E+02  0.60096659058E+02  0.00000000000E+00 0. -1.
<mgrwt>
<rscale>  1 0.85949113E+02</rscale>
<asrwt>0</asrwt>
<pdfrwt beam="1">  1       21 0.57843470E-03 0.85949113E+02</pdfrwt>
<pdfrwt beam="2">  1        2 0.17645158E+00 0.85949113E+02</pdfrwt>
<totfact> 0.22847291E+06</totfact>
</mgrwt>
</event>
<event>
 6    2  0.7993170E+000  0.9367179E+02  0.7546771E-02  0.1294196E+00
          2   -1    0    0  502    0 -0.00000000000E+00  0.00000000000E+00  0.16863638271E+04  0.16863638271E+04  0.00000000000E+00 0. -1.
         21   -1    0    0  501  502  0.00000000000E+00 -0.00000000000E+00 -0.26738882104E+01  0.26738882104E+01  0.00000000000E+00 0.  1.
         24    2    1    2    0    0 -0.25310977903E+02  0.37190489896E+01  0.15556165572E+04  0.15584342390E+04  0.90110639285E+02 0.  0.
        -11    1    3    3    0    0 -0.35012743405E+02  0.46635860473E+00  0.21925254226E+03  0.22203104958E+03  0.00000000000E+00 0.  1.
         12    1    3    3    0    0  0.97017655020E+01  0.32526903848E+01  0.13363640150E+04  0.13364031895E+04  0.00000000000E+00 0. -1.
          1    1    1    2  501    0  0.25310977903E+02 -0.37190489896E+01  0.12807338164E+03  0.13060347626E+03  0.00000000000E+00 0. -1.
<mgrwt>
<rscale>  1 0.93671790E+02</rscale>
<asrwt>0</asrwt>
<pdfrwt beam="1">  1       21 0.41136876E-03 0.93671790E+02</pdfrwt>
<pdfrwt beam="2">  1        2 0.25943974E+00 0.93671790E+02</pdfrwt>
<totfact> 0.20323401E+06</totfact>
</mgrwt>
</event>
<event>
 6    2  0.7993170E+000  0.1097018E+03  0.7546771E-02  0.1261123E+00
         21   -1    0    0  501  502  0.00000000000E+00  0.00000000000E+00  0.41701543429E+02  0.41701543429E+02  0.00000000000E+00 0. -1.
          2   -1    0    0  502    0 -0.00000000000E+00 -0.00000000000E+00 -0.22828803160E+03  0.22828803160E+03  0.00000000000E+00 0. -1.
         24    2    1    2    0    0 -0.36373090954E+02 -0.67924446262E+02 -0.14683519053E+03  0.18328952999E+03  0.78088068751E+02 0.  0.
        -11    1    3    3    0    0  0.11097020698E+02 -0.37683201604E+01  0.42128107943E+01  0.12453589041E+02  0.00000000000E+00 0.  1.
         12    1    3    3    0    0 -0.47470111653E+02 -0.64156126102E+02 -0.15104800132E+03  0.17083594095E+03  0.00000000000E+00 0. -1.
          1    1    1    2  501    0  0.36373090954E+02  0.67924446262E+02 -0.39751297645E+02  0.86700045041E+02  0.00000000000E+00 0. -1.
<mgrwt>
<rscale>  1 0.10970177E+03</rscale>
<asrwt>0</asrwt>
<pdfrwt beam="1">  1       21 0.64156222E-02 0.10970177E+03</pdfrwt>
<pdfrwt beam="2">  1        2 0.35121235E-01 0.10970177E+03</pdfrwt>
<totfact> 0.30970843E+05</totfact>
</mgrwt>
</event>
<event>
 6    2  0.7993170E+000  0.9216048E+02  0.7546771E-02  0.1297703E+00
         21   -1    0    0  501  502  0.00000000000E+00  0.00000000000E+00  0.64021723985E+01  0.64021723985E+01  0.00000000000E+00 0. -1.
          2   -1    0    0  502    0 -0.00000000000E+00 -0.00000000000E+00 -0.10828859071E+04  0.10828859071E+04  0.00000000000E+00 0. -1.
         24    2    1    2    0    0 -0.43689212263E+02 -0.75645355564E+01 -0.96377682426E+03  0.96817318723E+03  0.80793465305E+02 0.  0.
        -11    1    3    3    0    0  0.14152606434E+02  0.17233924075E+02 -0.12013294909E+03  0.12218522769E+03  0.00000000000E+00 0.  1.
         12    1    3    3    0    0 -0.57841818697E+02 -0.24798459631E+02 -0.84364387517E+03  0.84598795955E+03  0.00000000000E+00 0. -1.
          1    1    1    2  501    0  0.43689212263E+02  0.75645355564E+01 -0.11270691044E+03  0.12111489226E+03  0.00000000000E+00 0. -1.
<mgrwt>
<rscale>  1 0.92160477E+02</rscale>
<asrwt>0</asrwt>
<pdfrwt beam="1">  1       21 0.98494904E-03 0.92160477E+02</pdfrwt>
<pdfrwt beam="2">  1        2 0.16659793E+00 0.92160477E+02</pdfrwt>
<totfact> 0.10940462E+06</totfact>
</mgrwt>
</event>
<event>
 6    2  0.7993170E+000  0.1011113E+03  0.7546771E-02  0.1277976E+00
          2   -1    0    0  502    0 -0.00000000000E+00  0.00000000000E+00  0.41171552281E+03  0.41171552281E+03  0.00000000000E+00 0. -1.
         21   -1    0    0  501  502  0.00000000000E+00 -0.00000000000E+00 -0.16106372396E+02  0.16106372396E+02  0.00000000000E+00 0. -1.
         24    2    1    2    0    0  0.58375767713E+02  0.15491754142E+02  0.27352505871E+03  0.29161525017E+03  0.81091132017E+02 0.  0.
        -11    1    3    3    0    0  0.99113131714E+01  0.40212845866E+02  0.73955131789E+02  0.84762424573E+02  0.00000000000E+00 0.  1.
         12    1    3    3    0    0  0.48464454541E+02 -0.24721091724E+02  0.19956992692E+03  0.20685282560E+03  0.00000000000E+00 0. -1.
          1    1    1    2  501    0 -0.58375767713E+02 -0.15491754142E+02  0.12208409171E+03  0.13620664503E+03  0.00000000000E+00 0. -1.
<mgrwt>
<rscale>  1 0.10111131E+03</rscale>
<asrwt>0</asrwt>
<pdfrwt beam="1">  1       21 0.24779038E-02 0.10111131E+03</pdfrwt>
<pdfrwt beam="2">  1        2 0.63340842E-01 0.10111131E+03</pdfrwt>
<totfact> 0.79702234E+05</totfact>
</mgrwt>
</event>
<event>
 6    2  0.7993170E+000  0.8558870E+02  0.7546771E-02  0.1313900E+00
          2   -1    0    0  502    0 -0.00000000000E+00  0.00000000000E+00  0.78279913626E+01  0.78279913626E+01  0.00000000000E+00 0. -1.
         21   -1    0    0  501  502  0.00000000000E+00 -0.00000000000E+00 -0.44217645866E+03  0.44217645866E+03  0.00000000000E+00 0. -1.
         24    2    1    2    0    0 -0.25454619970E+02 -0.13439172502E+02 -0.27278907409E+03  0.28590086515E+03  0.80603205356E+02 0.  0.
        -11    1    3    3    0    0  0.11863899397E+02 -0.34611398299E+02 -0.17987520458E+03  0.18355868332E+03  0.00000000000E+00 0.  1.
         12    1    3    3    0    0 -0.37318519367E+02  0.21172225797E+02 -0.92913869508E+02  0.10234218182E+03  0.00000000000E+00 0. -1.
          1    1    1    2  501    0  0.25454619970E+02  0.13439172502E+02 -0.16155939321E+03  0.16410358488E+03  0.00000000000E+00 0. -1.
<mgrwt>
<rscale>  1 0.85588701E+02</rscale>
<asrwt>0</asrwt>
<pdfrwt beam="1">  1       21 0.68027155E-01 0.85588701E+02</pdfrwt>
<pdfrwt beam="2">  1        2 0.12043062E-02 0.85588701E+02</pdfrwt>
<totfact> 0.24541221E+05</totfact>
</mgrwt>
</event>
<event>
 6    2  0.7993170E+000  0.9532537E+02  0.7546771E-02  0.1290445E+00
          2   -1    0    0  502    0 -0.00000000000E+00  0.00000000000E+00  0.24616070345E+03  0.24616070345E+03  0.00000000000E+00 0. -1.
         21   -1    0    0  501  502  0.00000000000E+00 -0.00000000000E+00 -0.41061365081E+02  0.41061365081E+02  0.00000000000E+00 0. -1.
         24    2    1    2    0    0 -0.44836062158E+02  0.30231647219E+01  0.22009235066E+03  0.23984905498E+03  0.84068509943E+02 0.  0.
        -11    1    3    3    0    0  0.10087044655E+02  0.10693810251E+02  0.20233831144E+01  0.14839141713E+02  0.00000000000E+00 0.  1.
         12    1    3    3    0    0 -0.54923106812E+02 -0.76706455295E+01  0.21806896754E+03  0.22500991327E+03  0.00000000000E+00 0. -1.
          1    1    1    2  501    0  0.44836062158E+02 -0.30231647219E+01 -0.14993012291E+02  0.47373013545E+02  0.00000000000E+00 0. -1.
<mgrwt>
<rscale>  1 0.95325371E+02</rscale>
<asrwt>0</asrwt>
<pdfrwt beam="1">  1       21 0.63171332E-02 0.95325371E+02</pdfrwt>
<pdfrwt beam="2">  1        2 0.37870877E-01 0.95325371E+02</pdfrwt>
<totfact> 0.29069209E+05</totfact>
</mgrwt>
</event>
<event>
 6    2  0.7993170E+000  0.1061064E+03  0.7546771E-02  0.1267955E+00
          2   -1    0    0  502    0 -0.00000000000E+00  0.00000000000E+00  0.86261549157E+03  0.86261549157E+03  0.00000000000E+00 0. -1.
         21   -1    0    0  501  502  0.00000000000E+00 -0.00000000000E+00 -0.45960514122E+02  0.45960514122E+02  0.00000000000E+00 0. -1.
         24    2    1    2    0    0  0.46823469220E+02  0.50380749606E+02  0.83147484312E+03  0.83821773952E+03  0.80795463364E+02 0.  0.
        -11    1    3    3    0    0 -0.96662176738E+01 -0.14229536327E+02  0.78203899931E+02  0.80073500189E+02  0.00000000000E+00 0.  1.
         12    1    3    3    0    0  0.56489686894E+02  0.64610285932E+02  0.75327094319E+03  0.75814423933E+03  0.00000000000E+00 0. -1.
          1    1    1    2  501    0 -0.46823469220E+02 -0.50380749606E+02 -0.14819865671E+02  0.70358266175E+02  0.00000000000E+00 0. -1.
<mgrwt>
<rscale>  1 0.10610638E+03</rscale>
<asrwt>0</asrwt>
<pdfrwt beam="1">  1       21 0.70708490E-02 0.10610638E+03</pdfrwt>
<pdfrwt beam="2">  1        2 0.13271006E+00 0.10610638E+03</pdfrwt>
<totfact> 0.60616557E+04</totfact>
</mgrwt>
</event>
<event>
 6    2  0.7993170E+000  0.1670674E+03  0.7546771E-02  0.1180941E+00
         -1   -1    0    0    0  501 -0.00000000000E+00  0.00000000000E+00  0.33473127431E+03  0.33473127431E+03  0.00000000000E+00 0.  1.
         21   -1    0    0  501  502  0.00000000000E+00 -0.00000000000E+00 -0.78846173860E+02  0.78846173860E+02  0.00000000000E+00 0.  1.
         24    2    1    2    0    0  0.75577004396E+02 -0.12547535152E+03  0.18987848224E+03  0.25291375881E+03  0.80346648606E+02 0.  0.
        -11    1    3    3    0    0  0.84742526216E+02 -0.10899375617E+03  0.18897266686E+03  0.23403333834E+03  0.00000000000E+00 0.  1.
         12    1    3    3    0    0 -0.91655218205E+01 -0.16481595354E+02  0.90581538454E+00  0.18880420471E+02  0.00000000000E+00 0. -1.
         -2    1    1    2    0  502 -0.75577004396E+02  0.12547535152E+03  0.66006618209E+02  0.16066368937E+03  0.00000000000E+00 0.  1.
<mgrwt>
<rscale>  1 0.16706745E+03</rscale>
<asrwt>0</asrwt>
<pdfrwt beam="1">  1       21 0.12130181E-01 0.16706745E+03</pdfrwt>
<pdfrwt beam="2">  1       -1 0.51497118E-01 0.16706745E+03</pdfrwt>
<totfact> 0.20714513E+04</totfact>
</mgrwt>
</event>
<event>
 6    2  0.7993170E+000  0.8285545E+02  0.7546771E-02  0.1321138E+00
         -3   -1    0    0    0  501 -0.00000000000E+00  0.00000000000E+00  0.13668928972E+04  0.13668928972E+04  0.00000000000E+00 0.  1.
         21   -1    0    0  501  502  0.00000000000E+00 -0.00000000000E+00 -0.23808903470E+01  0.23808903470E+01  0.00000000000E+00 0. -1.
         24    2    1    2    0    0 -0.16444944638E+02  0.13151830009E+02  0.12564692684E+04  0.12591981764E+04  0.80134999723E+02 0.  0.
        -11    1    3    3    0    0 -0.12756941333E+02  0.27254455034E+02  0.12125440706E+04  0.12129174201E+04  0.00000000000E+00 0.  1.
         12    1    3    3    0    0 -0.36880033047E+01 -0.14102625025E+02  0.43925197881E+02  0.46280756367E+02  0.00000000000E+00 0. -1.
         -4    1    1    2    0  502  0.16444944638E+02 -0.13151830009E+02  0.10804273843E+03  0.11007561112E+03  0.00000000000E+00 0.  1.
<mgrwt>
<rscale>  1 0.82855447E+02</rscale>
<asrwt>0</asrwt>
<pdfrwt beam="1">  1       21 0.36629191E-03 0.82855447E+02</pdfrwt>
<pdfrwt beam="2">  1       -3 0.21029059E+00 0.82855447E+02</pdfrwt>
<totfact> 0.11329758E+05</totfact>
</mgrwt>
</event>
<event>
 6    2  0.7993170E+000  0.8947066E+02  0.7546771E-02  0.1304139E+00
          4   -1    0    0  502    0 -0.00000000000E+00  0.00000000000E+00  0.22823069297E+02  0.22823069297E+02  0.00000000000E+00 0. -1.
         21   -1    0    0  501  502  0.00000000000E+00 -0.00000000000E+00 -0.19598759821E+03  0.19598759821E+03  0.00000000000E+00 0.  1.
         24    2    1    2    0    0  0.39867714742E+02 -0.11579515854E+02 -0.96281142464E+02  0.13143461256E+03  0.79255782870E+02 0.  0.
        -13    1    3    3    0    0  0.56614864178E+02  0.14460869444E+02 -0.65509796464E+02  0.87783216071E+02  0.00000000000E+00 0.  1.
         14    1    3    3    0    0 -0.16747149437E+02 -0.26040385298E+02 -0.30771346000E+02  0.43651396488E+02  0.00000000000E+00 0. -1.
          3    1    1    2  501    0 -0.39867714742E+02  0.11579515854E+02 -0.76883386445E+02  0.87376054943E+02  0.00000000000E+00 0. -1.
<mgrwt>
<rscale>  1 0.89470660E+02</rscale>
<asrwt>0</asrwt>
<pdfrwt beam="1">  1       21 0.30151937E-01 0.89470660E+02</pdfrwt>
<pdfrwt beam="2">  1        4 0.35112415E-02 0.89470660E+02</pdfrwt>
<totfact> 0.16796516E+05</totfact>
</mgrwt>
</event>
<event>
 6    2  0.7993170E+000  0.8297034E+02  0.7546771E-02  0.1320827E+00
          2   -1    0    0  502    0 -0.00000000000E+00  0.00000000000E+00  0.16177883565E+04  0.16177883565E+04  0.00000000000E+00 0. -1.
         21   -1    0    0  501  502  0.00000000000E+00 -0.00000000000E+00 -0.20876092545E+01  0.20876092545E+01  0.00000000000E+00 0. -1.
         24    2    1    2    0    0 -0.19051239199E+02 -0.64311538983E+01  0.15101188645E+04  0.15123964634E+04  0.80497007569E+02 0.  0.
        -13    1    3    3    0    0 -0.12595777179E+02 -0.37167602425E+02  0.42107017537E+03  0.42289499508E+03  0.00000000000E+00 0.  1.
         14    1    3    3    0    0 -0.64554620197E+01  0.30736448527E+02  0.10890486891E+04  0.10895014683E+04  0.00000000000E+00 0. -1.
          1    1    1    2  501    0  0.19051239199E+02  0.64311538983E+01  0.10558188277E+03  0.10747950234E+03  0.00000000000E+00 0. -1.
<mgrwt>
<rscale>  1 0.82970342E+02</rscale>
<asrwt>0</asrwt>
<pdfrwt beam="1">  1       21 0.32117195E-03 0.82970342E+02</pdfrwt>
<pdfrwt beam="2">  1        2 0.24888951E+00 0.82970342E+02</pdfrwt>
<totfact> 0.31736010E+06</totfact>
</mgrwt>
</event>
<event>
 6    2  0.7993170E+000  0.9140862E+02  0.7546771E-02  0.1299476E+00
         21   -1    0    0  501  502  0.00000000000E+00  0.00000000000E+00  0.17011871142E+02  0.17011871142E+02  0.00000000000E+00 0.  1.
         -3   -1    0    0    0  501 -0.00000000000E+00 -0.00000000000E+00 -0.40767409037E+03  0.40767409037E+03  0.00000000000E+00 0.  1.
         24    2    1    2    0    0  0.35284176557E+02 -0.23293508818E+02 -0.36259227300E+03  0.37393674921E+03  0.81043045972E+02 0.  0.
        -13    1    3    3    0    0  0.18825817744E+02  0.29771789754E+02 -0.16252167886E+03  0.16629512012E+03  0.00000000000E+00 0.  1.
         14    1    3    3    0    0  0.16458358813E+02 -0.53065298573E+02 -0.20007059415E+03  0.20764162909E+03  0.00000000000E+00 0. -1.
         -4    1    1    2    0  502 -0.35284176557E+02  0.23293508818E+02 -0.28069946231E+02  0.50749212307E+02  0.00000000000E+00 0.  1.
<mgrwt>
<rscale>  1 0.91408621E+02</rscale>
<asrwt>0</asrwt>
<pdfrwt beam="1">  1       21 0.26172109E-02 0.91408621E+02</pdfrwt>
<pdfrwt beam="2">  1       -3 0.62719092E-01 0.91408621E+02</pdfrwt>
<totfact> 0.90146532E+04</totfact>
</mgrwt>
</event>
<event>
 6    2  0.7993170E+000  0.8559316E+02  0.7546771E-02  0.1313889E+00
         -1   -1    0    0    0  501 -0.00000000000E+00  0.00000000000E+00  0.17972522132E+03  0.17972522132E+03  0.00000000000E+00 0.  1.
         21   -1    0    0  501  502  0.00000000000E+00 -0.00000000000E+00 -0.53913997945E+02  0.53913997945E+02  0.00000000000E+00 0.  1.
         24    2    1    2    0    0  0.15578226535E+02 -0.15791130152E+02  0.16654783052E+03  0.18725482432E+03  0.82668908576E+02 0.  0.
        -11    1    3    3    0    0  0.47388478264E+02 -0.19385174452E+02  0.12279143886E+03  0.13303830395E+03  0.00000000000E+00 0.  1.
         12    1    3    3    0    0 -0.31810251728E+02  0.35940442994E+01  0.43756391661E+02  0.54216520366E+02  0.00000000000E+00 0. -1.
         -2    1    1    2    0  502 -0.15578226535E+02  0.15791130152E+02 -0.40736607143E+02  0.46384394951E+02  0.00000000000E+00 0.  1.
<mgrwt>
<rscale>  1 0.85593162E+02</rscale>
<asrwt>0</asrwt>
<pdfrwt beam="1">  1       21 0.82944613E-02 0.85593162E+02</pdfrwt>
<pdfrwt beam="2">  1       -1 0.27650034E-01 0.85593162E+02</pdfrwt>
<totfact> 0.11554179E+05</totfact>
</mgrwt>
</event>
<event>
 6    2  0.7993170E+000  0.8430033E+02  0.7546771E-02  0.1317272E+00
          2   -1    0    0  502    0 -0.00000000000E+00  0.00000000000E+00  0.98553742998E+03  0.98553742998E+03  0.00000000000E+00 0. -1.
         21   -1    0    0  501  502  0.00000000000E+00 -0.00000000000E+00 -0.30257027029E+01  0.30257027029E+01  0.00000000000E+00 0. -1.
         24    2    1    2    0    0 -0.10067978075E+01 -0.24177435987E+02  0.80699619201E+03  0.81138732967E+03  0.80752602309E+02 0.  0.
        -11    1    3    3    0    0 -0.37305981587E+02 -0.23105141572E+02  0.56248486555E+03  0.56419394521E+03  0.00000000000E+00 0.  1.
         12    1    3    3    0    0  0.36299183780E+02 -0.10722944151E+01  0.24451132645E+03  0.24719338446E+03  0.00000000000E+00 0. -1.
          1    1    1    2  501    0  0.10067978075E+01  0.24177435987E+02  0.17551553527E+03  0.17717580301E+03  0.00000000000E+00 0. -1.
<mgrwt>
<rscale>  1 0.84300325E+02</rscale>
<asrwt>0</asrwt>
<pdfrwt beam="1">  1       21 0.46549351E-03 0.84300325E+02</pdfrwt>
<pdfrwt beam="2">  1        2 0.15162089E+00 0.84300325E+02</pdfrwt>
<totfact> 0.39277742E+06</totfact>
</mgrwt>
</event>
<event>
 6    2  0.7993170E+000  0.9687104E+02  0.7546771E-02  0.1287017E+00
         -3   -1    0    0    0  501 -0.00000000000E+00  0.00000000000E+00  0.23086815575E+02  0.23086815575E+02  0.00000000000E+00 0.  1.
         21   -1    0    0  501  502  0.00000000000E+00 -0.00000000000E+00 -0.31861899960E+03  0.31861899960E+03  0.00000000000E+00 0.  1.
         24    2    1    2    0    0 -0.24636828158E+02  0.45397439844E+02 -0.99041236488E+02  0.13853939740E+03  0.81951798404E+02 0.  0.
        -13    1    3    3    0    0 -0.29730075702E+02  0.66666106301E+02 -0.63202173078E+02  0.96554449987E+02  0.00000000000E+00 0.  1.
         14    1    3    3    0    0  0.50932475434E+01 -0.21268666457E+02 -0.35839063411E+02  0.41984947416E+02  0.00000000000E+00 0. -1.
         -4    1    1    2    0  502  0.24636828158E+02 -0.45397439844E+02 -0.19649094754E+03  0.20316641777E+03  0.00000000000E+00 0.  1.
<mgrwt>
<rscale>  1 0.96871039E+02</rscale>
<asrwt>0</asrwt>
<pdfrwt beam="1">  1       21 0.49018305E-01 0.96871039E+02</pdfrwt>
<pdfrwt beam="2">  1       -3 0.35518179E-02 0.96871039E+02</pdfrwt>
<totfact> 0.71835411E+04</totfact>
</mgrwt>
</event>
<event>
 6    2  0.7993170E+000  0.1052405E+03  0.7546771E-02  0.1269646E+00
         -1   -1    0    0    0  501 -0.00000000000E+00  0.00000000000E+00  0.19921226906E+03  0.19921226906E+03  0.00000000000E+00 0.  1.
         21   -1    0    0  501  502  0.00000000000E+00 -0.00000000000E+00 -0.83607006143E+03  0.83607006143E+03  0.00000000000E+00 0.  1.
         24    2    1    2    0    0 -0.28245761351E+02  0.58378682550E+02  0.18394420905E+03  0.21192225181E+03  0.82883503541E+02 0.  0.
        -13    1    3    3    0    0 -0.40470731418E+02  0.49941419140E+02  0.18612191020E+03  0.19690960084E+03  0.00000000000E+00 0.  1.
         14    1    3    3    0    0  0.12224970067E+02  0.84372634098E+01 -0.21777011453E+01  0.15012650974E+02  0.00000000000E+00 0. -1.
         -2    1    1    2    0  502  0.28245761351E+02 -0.58378682550E+02 -0.82080200143E+03  0.82336007868E+03  0.00000000000E+00 0.  1.
<mgrwt>
<rscale>  1 0.10524053E+03</rscale>
<asrwt>0</asrwt>
<pdfrwt beam="1">  1       21 0.12862617E+00 0.10524053E+03</pdfrwt>
<pdfrwt beam="2">  1       -1 0.30648041E-01 0.10524053E+03</pdfrwt>
<totfact> 0.42641122E+02</totfact>
</mgrwt>
</event>
<event>
 6    2  0.7993170E+000  0.9378513E+02  0.7546771E-02  0.1293936E+00
          2   -1    0    0  502    0 -0.00000000000E+00  0.00000000000E+00  0.54402258146E+02  0.54402258146E+02  0.00000000000E+00 0. -1.
         21   -1    0    0  501  502  0.00000000000E+00 -0.00000000000E+00 -0.10120459211E+03  0.10120459211E+03  0.00000000000E+00 0. -1.
         24    2    1    2    0    0  0.28050903501E+02 -0.39487957813E+02 -0.90993472364E+01  0.94225524042E+02  0.80308774499E+02 0.  0.
        -11    1    3    3    0    0 -0.19483421250E+02 -0.28209432982E+02  0.17615228157E+02  0.38544416921E+02  0.00000000000E+00 0.  1.
         12    1    3    3    0    0  0.47534324750E+02 -0.11278524830E+02 -0.26714575393E+02  0.55681107121E+02  0.00000000000E+00 0. -1.
          1    1    1    2  501    0 -0.28050903501E+02  0.39487957813E+02 -0.37702986726E+02  0.61381326211E+02  0.00000000000E+00 0. -1.
<mgrwt>
<rscale>  1 0.93785133E+02</rscale>
<asrwt>0</asrwt>
<pdfrwt beam="1">  1       21 0.15569937E-01 0.93785133E+02</pdfrwt>
<pdfrwt beam="2">  1        2 0.83695782E-02 0.93785133E+02</pdfrwt>
<totfact> 0.33763297E+05</totfact>
</mgrwt>
</event>
<event>
 6    2  0.7993170E+000  0.8993541E+02  0.7546771E-02  0.1303008E+00
         -1   -1    0    0    0  501 -0.00000000000E+00  0.00000000000E+00  0.47138237563E+03  0.47138237563E+03  0.00000000000E+00 0.  1.
         21   -1    0    0  501  502  0.00000000000E+00 -0.00000000000E+00 -0.17689338576E+02  0.17689338576E+02  0.00000000000E+00 0.  1.
         24    2    1    2    0    0 -0.20624148292E+02 -0.35514738726E+02  0.43455259450E+03  0.44376157516E+03  0.80010787024E+02 0.  0.
        -11    1    3    3    0    0  0.77101857432E+00 -0.14673666477E+02  0.38907762841E+03  0.38935499469E+03  0.00000000000E+00 0.  1.
         12    1    3    3    0    0 -0.21395166867E+02 -0.20841072249E+02  0.45474966089E+02  0.54406580471E+02  0.00000000000E+00 0. -1.
         -2    1    1    2    0  502  0.20624148292E+02  0.35514738726E+02  0.19140442556E+02  0.45310139051E+02  0.00000000000E+00 0.  1.
<mgrwt>
<rscale>  1 0.89935411E+02</rscale>
<asrwt>0</asrwt>
<pdfrwt beam="1">  1       21 0.27214371E-02 0.89935411E+02</pdfrwt>
<pdfrwt beam="2">  1       -1 0.72520356E-01 0.89935411E+02</pdfrwt>
<totfact> 0.13260059E+05</totfact>
</mgrwt>
</event>
<event>
 6    2  0.7993170E+000  0.7719301E+02  0.7546771E-02  0.1337211E+00
          2   -1    0    0  502    0 -0.00000000000E+00  0.00000000000E+00  0.42675286567E+02  0.42675286567E+02  0.00000000000E+00 0. -1.
         21   -1    0    0  501  502  0.00000000000E+00 -0.00000000000E+00 -0.12275930387E+03  0.12275930387E+03  0.00000000000E+00 0. -1.
         24    2    1    2    0    0 -0.42511667956E+01  0.28508480877E+02  0.32451060402E+01  0.77261189129E+02  0.71609739082E+02 0.  0.
        -11    1    3    3    0    0  0.86663036666E+01  0.10849775553E+02 -0.32505360659E+02  0.35347148688E+02  0.00000000000E+00 0.  1.
         12    1    3    3    0    0 -0.12917470462E+02  0.17658705324E+02  0.35750466699E+02  0.41914040441E+02  0.00000000000E+00 0. -1.
          1    1    1    2  501    0  0.42511667956E+01 -0.28508480877E+02 -0.83329123348E+02  0.88173401312E+02  0.00000000000E+00 0. -1.
<mgrwt>
<rscale>  1 0.77193009E+02</rscale>
<asrwt>0</asrwt>
<pdfrwt beam="1">  1       21 0.18886047E-01 0.77193009E+02</pdfrwt>
<pdfrwt beam="2">  1        2 0.65654288E-02 0.77193009E+02</pdfrwt>
<totfact> 0.31727550E+05</totfact>
</mgrwt>
</event>
<event>
 6    2  0.7993170E+000  0.9516443E+02  0.7546771E-02  0.1290806E+00
          2   -1    0    0  502    0 -0.00000000000E+00  0.00000000000E+00  0.89429484481E+03  0.89429484481E+03  0.00000000000E+00 0. -1.
         21   -1    0    0  501  502  0.00000000000E+00 -0.00000000000E+00 -0.10651476491E+02  0.10651476491E+02  0.00000000000E+00 0. -1.
         24    2    1    2    0    0  0.13396467926E+02  0.54334857126E+02  0.22997844661E+03  0.24889024753E+03  0.76970951409E+02 0.  0.
        -13    1    3    3    0    0  0.29943433757E+02 -0.69517331868E+01  0.92232926847E+02  0.97220618256E+02  0.00000000000E+00 0.  1.
         14    1    3    3    0    0 -0.16546965831E+02  0.61286590313E+02  0.13774551976E+03  0.15166962927E+03  0.00000000000E+00 0. -1.
          1    1    1    2  501    0 -0.13396467926E+02 -0.54334857126E+02  0.65366492171E+03  0.65605607377E+03  0.00000000000E+00 0. -1.
<mgrwt>
<rscale>  1 0.95164434E+02</rscale>
<asrwt>0</asrwt>
<pdfrwt beam="1">  1       21 0.16386894E-02 0.95164434E+02</pdfrwt>
<pdfrwt beam="2">  1        2 0.13758376E+00 0.95164434E+02</pdfrwt>
<totfact> 0.63549475E+05</totfact>
</mgrwt>
</event>
<event>
 6    2  0.7993170E+000  0.1041410E+03  0.7546771E-02  0.1271821E+00
          2   -1    0    0  502    0 -0.00000000000E+00  0.00000000000E+00  0.90819420863E+03  0.90819420863E+03  0.00000000000E+00 0. -1.
         21   -1    0    0  501  502  0.00000000000E+00 -0.00000000000E+00 -0.82563171712E+01  0.82563171712E+01  0.00000000000E+00 0. -1.
         24    2    1    2    0    0 -0.62694375200E+02  0.18531069918E+02  0.63999722354E+03  0.64841482655E+03  0.81063900223E+02 0.  0.
        -11    1    3    3    0    0  0.15107106966E+02 -0.11606993368E+02  0.80059159117E+02  0.82294689588E+02  0.00000000000E+00 0.  1.
         12    1    3    3    0    0 -0.77801482166E+02  0.30138063286E+02  0.55993806442E+03  0.56612013696E+03  0.00000000000E+00 0. -1.
          1    1    1    2  501    0  0.62694375200E+02 -0.18531069918E+02  0.25994066792E+03  0.26803569925E+03  0.00000000000E+00 0. -1.
<mgrwt>
<rscale>  1 0.10414097E+03</rscale>
<asrwt>0</asrwt>
<pdfrwt beam="1">  1       21 0.12702034E-02 0.10414097E+03</pdfrwt>
<pdfrwt beam="2">  1        2 0.13972211E+00 0.10414097E+03</pdfrwt>
<totfact> 0.93891317E+05</totfact>
</mgrwt>
</event>
<event>
 6    2  0.7993170E+000  0.8779388E+02  0.7546771E-02  0.1308284E+00
          2   -1    0    0  502    0 -0.00000000000E+00  0.00000000000E+00  0.13725172358E+04  0.13725172358E+04  0.00000000000E+00 0. -1.
         21   -1    0    0  501  502  0.00000000000E+00 -0.00000000000E+00 -0.26161180504E+01  0.26161180504E+01  0.00000000000E+00 0. -1.
         24    2    1    2    0    0 -0.28477528131E+02 -0.13011265799E+02  0.10731275237E+04  0.10767127970E+04  0.82021353201E+02 0.  0.
        -11    1    3    3    0    0  0.17077402340E+02 -0.33685004957E+02  0.46379220336E+03  0.46532733116E+03  0.00000000000E+00 0.  1.
         12    1    3    3    0    0 -0.45554930471E+02  0.20673739158E+02  0.60933532037E+03  0.61138546584E+03  0.00000000000E+00 0. -1.
          1    1    1    2  501    0  0.28477528131E+02  0.13011265799E+02  0.29677359398E+03  0.29842055682E+03  0.00000000000E+00 0. -1.
<mgrwt>
<rscale>  1 0.87793878E+02</rscale>
<asrwt>0</asrwt>
<pdfrwt beam="1">  1       21 0.40248080E-03 0.87793878E+02</pdfrwt>
<pdfrwt beam="2">  1        2 0.21115592E+00 0.87793878E+02</pdfrwt>
<totfact> 0.30215919E+06</totfact>
</mgrwt>
</event>
<event>
 6    2  0.7993170E+000  0.8642861E+02  0.7546771E-02  0.1311738E+00
          2   -1    0    0  502    0 -0.00000000000E+00  0.00000000000E+00  0.20012426861E+04  0.20012426861E+04  0.00000000000E+00 0. -1.
         21   -1    0    0  501  502  0.00000000000E+00 -0.00000000000E+00 -0.24705848012E+01  0.24705848012E+01  0.00000000000E+00 0.  1.
         24    2    1    2    0    0  0.30324430602E+02  0.53739337293E+01  0.18372271985E+04  0.18392590041E+04  0.80755525682E+02 0.  0.
        -13    1    3    3    0    0  0.49177268873E+00 -0.20731464145E+02  0.13617291571E+03  0.13774287066E+03  0.00000000000E+00 0.  1.
         14    1    3    3    0    0  0.29832657913E+02  0.26105397874E+02  0.17010542828E+04  0.17015161334E+04  0.00000000000E+00 0. -1.
          1    1    1    2  501    0 -0.30324430602E+02 -0.53739337293E+01  0.16154490277E+03  0.16445426679E+03  0.00000000000E+00 0. -1.
<mgrwt>
<rscale>  1 0.86428613E+02</rscale>
<asrwt>0</asrwt>
<pdfrwt beam="1">  1       21 0.38009157E-03 0.86428613E+02</pdfrwt>
<pdfrwt beam="2">  1        2 0.30788219E+00 0.86428613E+02</pdfrwt>
<totfact> 0.15851803E+06</totfact>
</mgrwt>
</event>
<event>
 6    2  0.7993170E+000  0.8107599E+02  0.7546771E-02  0.1326025E+00
         21   -1    0    0  501  502  0.00000000000E+00  0.00000000000E+00  0.55158872481E+02  0.55158872481E+02  0.00000000000E+00 0. -1.
          2   -1    0    0  502    0 -0.00000000000E+00 -0.00000000000E+00 -0.17271531318E+03  0.17271531318E+03  0.00000000000E+00 0. -1.
         24    2    1    2    0    0  0.97045615137E+01 -0.18976959612E+02 -0.16056521490E+03  0.17987357974E+03  0.78224119957E+02 0.  0.
        -11    1    3    3    0    0  0.39376858970E+02 -0.35245844481E+01 -0.12474712600E+03  0.13086177884E+03  0.00000000000E+00 0.  1.
         12    1    3    3    0    0 -0.29672297456E+02 -0.15452375164E+02 -0.35818088903E+02  0.49011800897E+02  0.00000000000E+00 0. -1.
          1    1    1    2  501    0 -0.97045615137E+01  0.18976959612E+02  0.43008774202E+02  0.48000605919E+02  0.00000000000E+00 0. -1.
<mgrwt>
<rscale>  1 0.81075992E+02</rscale>
<asrwt>0</asrwt>
<pdfrwt beam="1">  1       21 0.84859806E-02 0.81075992E+02</pdfrwt>
<pdfrwt beam="2">  1        2 0.26571586E-01 0.81075992E+02</pdfrwt>
<totfact> 0.25376151E+05</totfact>
</mgrwt>
</event>
<event>
 6    2  0.7993170E+000  0.9135618E+02  0.7546771E-02  0.1299600E+00
          2   -1    0    0  502    0 -0.00000000000E+00  0.00000000000E+00  0.17380432035E+03  0.17380432035E+03  0.00000000000E+00 0. -1.
         21   -1    0    0  501  502  0.00000000000E+00 -0.00000000000E+00 -0.28643214074E+02  0.28643214074E+02  0.00000000000E+00 0.  1.
         24    2    1    2    0    0 -0.30907993289E+02  0.33008906629E+02  0.11961056634E+03  0.15050793434E+03  0.79379208568E+02 0.  0.
        -11    1    3    3    0    0 -0.22331448827E+02  0.48979528849E+02  0.35537536003E+02  0.64502746594E+02  0.00000000000E+00 0.  1.
         12    1    3    3    0    0 -0.85765444616E+01 -0.15970622220E+02  0.84073030336E+02  0.86005187744E+02  0.00000000000E+00 0. -1.
          1    1    1    2  501    0  0.30907993289E+02 -0.33008906629E+02  0.25550539937E+02  0.51939600086E+02  0.00000000000E+00 0. -1.
<mgrwt>
<rscale>  1 0.91356175E+02</rscale>
<asrwt>0</asrwt>
<pdfrwt beam="1">  1       21 0.44066484E-02 0.91356175E+02</pdfrwt>
<pdfrwt beam="2">  1        2 0.26739125E-01 0.91356175E+02</pdfrwt>
<totfact> 0.76615348E+05</totfact>
</mgrwt>
</event>
<event>
 6    2  0.7993170E+000  0.8126243E+02  0.7546771E-02  0.1325507E+00
         21   -1    0    0  501  502  0.00000000000E+00  0.00000000000E+00  0.25075149006E+03  0.25075149006E+03  0.00000000000E+00 0. -1.
          4   -1    0    0  502    0 -0.00000000000E+00 -0.00000000000E+00 -0.10517750101E+02  0.10517750101E+02  0.00000000000E+00 0. -1.
         24    2    1    2    0    0 -0.20166544657E+02  0.15138647790E+01  0.17447547728E+03  0.19247149005E+03  0.78705787587E+02 0.  0.
        -11    1    3    3    0    0 -0.15267879327E+02 -0.17440875963E+02  0.75153328004E+01  0.24367447970E+02  0.00000000000E+00 0.  1.
         12    1    3    3    0    0 -0.48986653302E+01  0.18954740742E+02  0.16696014448E+03  0.16810404208E+03  0.00000000000E+00 0. -1.
          3    1    1    2  501    0  0.20166544657E+02 -0.15138647790E+01  0.65758262676E+02  0.68797750109E+02  0.00000000000E+00 0. -1.
<mgrwt>
<rscale>  1 0.81262429E+02</rscale>
<asrwt>0</asrwt>
<pdfrwt beam="1">  1       21 0.38577148E-01 0.81262429E+02</pdfrwt>
<pdfrwt beam="2">  1        4 0.16181156E-02 0.81262429E+02</pdfrwt>
<totfact> 0.33691632E+05</totfact>
</mgrwt>
</event>
<event>
 6    2  0.7993170E+000  0.8435062E+02  0.7546771E-02  0.1317140E+00
         -3   -1    0    0    0  501 -0.00000000000E+00  0.00000000000E+00  0.35914474761E+01  0.35914474761E+01  0.00000000000E+00 0.  1.
         21   -1    0    0  501  502  0.00000000000E+00 -0.00000000000E+00 -0.10154293512E+04  0.10154293512E+04  0.00000000000E+00 0.  1.
         24    2    1    2    0    0  0.25965053755E+02  0.54008066190E+00 -0.54774261082E+03  0.55419941728E+03  0.80253041727E+02 0.  0.
        -13    1    3    3    0    0  0.21016213711E+02 -0.35266546381E+02 -0.17699302916E+03  0.18169189003E+03  0.00000000000E+00 0.  1.
         14    1    3    3    0    0  0.49488400436E+01  0.35806627043E+02 -0.37074958166E+03  0.37250752725E+03  0.00000000000E+00 0. -1.
         -4    1    1    2    0  502 -0.25965053755E+02 -0.54008066190E+00 -0.46409529291E+03  0.46482138140E+03  0.00000000000E+00 0.  1.
<mgrwt>
<rscale>  1 0.84350616E+02</rscale>
<asrwt>0</asrwt>
<pdfrwt beam="1">  1       21 0.15621978E+00 0.84350616E+02</pdfrwt>
<pdfrwt beam="2">  1       -3 0.55253080E-03 0.84350616E+02</pdfrwt>
<totfact> 0.82759998E+04</totfact>
</mgrwt>
</event>
<event>
 6    2  0.7993170E+000  0.9960936E+02  0.7546771E-02  0.1281120E+00
         21   -1    0    0  501  502  0.00000000000E+00  0.00000000000E+00  0.10390400573E+02  0.10390400573E+02  0.00000000000E+00 0. -1.
         -3   -1    0    0    0  501 -0.00000000000E+00 -0.00000000000E+00 -0.65234616043E+03  0.65234616043E+03  0.00000000000E+00 0.  1.
         24    2    1    2    0    0  0.37443685990E+02  0.47775817827E+02 -0.46833431160E+03  0.47881003849E+03  0.78977636995E+02 0.  0.
        -11    1    3    3    0    0 -0.24048580077E+02  0.15071026658E+02 -0.10003509547E+03  0.10398312543E+03  0.00000000000E+00 0.  1.
         12    1    3    3    0    0  0.61492266067E+02  0.32704791169E+02 -0.36829921613E+03  0.37482691305E+03  0.00000000000E+00 0. -1.
         -4    1    1    2    0  502 -0.37443685990E+02 -0.47775817827E+02 -0.17362144825E+03  0.18392652251E+03  0.00000000000E+00 0.  1.
<mgrwt>
<rscale>  1 0.99609365E+02</rscale>
<asrwt>0</asrwt>
<pdfrwt beam="1">  1       21 0.15985234E-02 0.99609365E+02</pdfrwt>
<pdfrwt beam="2">  1       -3 0.10036093E+00 0.99609365E+02</pdfrwt>
<totfact> 0.73095527E+04</totfact>
</mgrwt>
</event>
<event>
 6    2  0.7993170E+000  0.1439065E+03  0.7546771E-02  0.1208167E+00
         21   -1    0    0  501  502  0.00000000000E+00  0.00000000000E+00  0.14220857825E+03  0.14220857825E+03  0.00000000000E+00 0.  1.
         -3   -1    0    0    0  501 -0.00000000000E+00 -0.00000000000E+00 -0.14556224960E+03  0.14556224960E+03  0.00000000000E+00 0.  1.
         24    2    1    2    0    0  0.76897684168E+02  0.91114175683E+02 -0.59824897579E+02  0.15584643196E+03  0.80585638568E+02 0.  0.
        -13    1    3    3    0    0  0.62890409379E+02  0.43789438293E+02  0.20967107133E+01  0.76662342083E+02  0.00000000000E+00 0.  1.
         14    1    3    3    0    0  0.14007274789E+02  0.47324737390E+02 -0.61921608293E+02  0.79184089877E+02  0.00000000000E+00 0. -1.
         -4    1    1    2    0  502 -0.76897684168E+02 -0.91114175683E+02  0.56471226224E+02  0.13192439589E+03  0.00000000000E+00 0.  1.
<mgrwt>
<rscale>  1 0.14390654E+03</rscale>
<asrwt>0</asrwt>
<pdfrwt beam="1">  1       21 0.21878243E-01 0.14390654E+03</pdfrwt>
<pdfrwt beam="2">  1       -3 0.22394192E-01 0.14390654E+03</pdfrwt>
<totfact> 0.17343760E+04</totfact>
</mgrwt>
</event>
<event>
 6    2  0.7993170E+000  0.8387739E+02  0.7546771E-02  0.1318395E+00
         21   -1    0    0  501  502  0.00000000000E+00  0.00000000000E+00  0.66784745959E+02  0.66784745959E+02  0.00000000000E+00 0. -1.
          2   -1    0    0  502    0 -0.00000000000E+00 -0.00000000000E+00 -0.87237433988E+03  0.87237433988E+03  0.00000000000E+00 0. -1.
         24    2    1    2    0    0 -0.43429158798E+01 -0.19551086990E+02 -0.86880627315E+03  0.87284578059E+03  0.81451276877E+02 0.  0.
        -13    1    3    3    0    0  0.36504047009E+02  0.39406259921E+01 -0.39405598018E+03  0.39576279448E+03  0.00000000000E+00 0.  1.
         14    1    3    3    0    0 -0.40846962889E+02 -0.23491712982E+02 -0.47475029297E+03  0.47708298611E+03  0.00000000000E+00 0. -1.
          1    1    1    2  501    0  0.43429158798E+01  0.19551086990E+02  0.63216679228E+02  0.66313305252E+02  0.00000000000E+00 0. -1.
<mgrwt>
<rscale>  1 0.83877389E+02</rscale>
<asrwt>0</asrwt>
<pdfrwt beam="1">  1       21 0.10274577E-01 0.83877389E+02</pdfrwt>
<pdfrwt beam="2">  1        2 0.13421143E+00 0.83877389E+02</pdfrwt>
<totfact> 0.31456185E+04</totfact>
</mgrwt>
</event>
<event>
 6    2  0.7993170E+000  0.8560603E+02  0.7546771E-02  0.1313855E+00
          2   -1    0    0  502    0 -0.00000000000E+00  0.00000000000E+00  0.42297991391E+04  0.42297991391E+04  0.00000000000E+00 0. -1.
         21   -1    0    0  501  502  0.00000000000E+00 -0.00000000000E+00 -0.24229958226E+01  0.24229958226E+01  0.00000000000E+00 0. -1.
         24    2    1    2    0    0  0.12365556742E+01  0.21661644048E+02  0.41700316296E+04  0.41709102344E+04  0.82810844355E+02 0.  0.
        -11    1    3    3    0    0 -0.35904327985E+02  0.14887032760E+02  0.30392621325E+04  0.30395106604E+04  0.00000000000E+00 0.  1.
         12    1    3    3    0    0  0.37140883659E+02  0.67746112889E+01  0.11307694971E+04  0.11313995740E+04  0.00000000000E+00 0. -1.
          1    1    1    2  501    0 -0.12365556742E+01 -0.21661644048E+02  0.57344513690E+02  0.61311900502E+02  0.00000000000E+00 0. -1.
<mgrwt>
<rscale>  1 0.85606027E+02</rscale>
<asrwt>0</asrwt>
<pdfrwt beam="1">  1       21 0.37277197E-03 0.85606027E+02</pdfrwt>
<pdfrwt beam="2">  1        2 0.65073242E+00 0.85606027E+02</pdfrwt>
<totfact> 0.73740143E+04</totfact>
</mgrwt>
</event>
<event>
 6    2  0.7993170E+000  0.8289395E+02  0.7546771E-02  0.1321034E+00
         21   -1    0    0  501  502  0.00000000000E+00  0.00000000000E+00  0.20193138019E+02  0.20193138019E+02  0.00000000000E+00 0. -1.
          2   -1    0    0  502    0 -0.00000000000E+00 -0.00000000000E+00 -0.26084541695E+03  0.26084541695E+03  0.00000000000E+00 0. -1.
         24    2    1    2    0    0  0.13587008031E+02 -0.16799535632E+02 -0.24530902896E+03  0.25893614547E+03  0.80028598366E+02 0.  0.
        -11    1    3    3    0    0 -0.11485236374E+02  0.22549530293E+02 -0.33138459194E+02  0.41695916452E+02  0.00000000000E+00 0.  1.
         12    1    3    3    0    0  0.25072244405E+02 -0.39349065925E+02 -0.21217056977E+03  0.21724022902E+03  0.00000000000E+00 0. -1.
          1    1    1    2  501    0 -0.13587008031E+02  0.16799535632E+02  0.46567500333E+01  0.22102409497E+02  0.00000000000E+00 0. -1.
<mgrwt>
<rscale>  1 0.82893955E+02</rscale>
<asrwt>0</asrwt>
<pdfrwt beam="1">  1       21 0.31066367E-02 0.82893955E+02</pdfrwt>
<pdfrwt beam="2">  1        2 0.40130063E-01 0.82893955E+02</pdfrwt>
<totfact> 0.87425048E+05</totfact>
</mgrwt>
</event>
<event>
 6    2  0.7993170E+000  0.9682720E+02  0.7546771E-02  0.1287113E+00
         -1   -1    0    0    0  501 -0.00000000000E+00  0.00000000000E+00  0.27418060690E+02  0.27418060690E+02  0.00000000000E+00 0.  1.
         21   -1    0    0  501  502  0.00000000000E+00 -0.00000000000E+00 -0.21621428616E+03  0.21621428616E+03  0.00000000000E+00 0. -1.
         24    2    1    2    0    0  0.40848442131E+02 -0.38230598437E+02 -0.10454101969E+03  0.14249326646E+03  0.79027414905E+02 0.  0.
        -13    1    3    3    0    0  0.29799003009E+02  0.20959809870E+02 -0.43692297863E+02  0.56888584994E+02  0.00000000000E+00 0.  1.
         14    1    3    3    0    0  0.11049439123E+02 -0.59190408307E+02 -0.60848721830E+02  0.85604681466E+02  0.00000000000E+00 0. -1.
         -2    1    1    2    0  502 -0.40848442131E+02  0.38230598437E+02 -0.84255205773E+02  0.10113908039E+03  0.00000000000E+00 0.  1.
<mgrwt>
<rscale>  1 0.96827198E+02</rscale>
<asrwt>0</asrwt>
<pdfrwt beam="1">  1       21 0.33263736E-01 0.96827198E+02</pdfrwt>
<pdfrwt beam="2">  1       -1 0.42181632E-02 0.96827198E+02</pdfrwt>
<totfact> 0.16714835E+05</totfact>
</mgrwt>
</event>
<event>
 6    2  0.7993170E+000  0.8316387E+02  0.7546771E-02  0.1320305E+00
          2   -1    0    0  502    0 -0.00000000000E+00  0.00000000000E+00  0.18024883285E+04  0.18024883285E+04  0.00000000000E+00 0. -1.
         21   -1    0    0  501  502  0.00000000000E+00 -0.00000000000E+00 -0.22639354390E+01  0.22639354390E+01  0.00000000000E+00 0.  1.
         24    2    1    2    0    0  0.18054459152E+02  0.15905708595E+02  0.81458967178E+03  0.81882388984E+03  0.79606998052E+02 0.  0.
        -11    1    3    3    0    0  0.11131360383E+02 -0.48162272536E+01  0.16723374501E+02  0.20658520848E+02  0.00000000000E+00 0.  1.
         12    1    3    3    0    0  0.69230987685E+01  0.20721935848E+02  0.79786629728E+03  0.79816536899E+03  0.00000000000E+00 0. -1.
          1    1    1    2  501    0 -0.18054459152E+02 -0.15905708595E+02  0.98563472130E+03  0.98592837412E+03  0.00000000000E+00 0. -1.
<mgrwt>
<rscale>  1 0.83163870E+02</rscale>
<asrwt>0</asrwt>
<pdfrwt beam="1">  1       21 0.34829920E-03 0.83163870E+02</pdfrwt>
<pdfrwt beam="2">  1        2 0.27730475E+00 0.83163870E+02</pdfrwt>
<totfact> 0.22692031E+06</totfact>
</mgrwt>
</event>
<event>
 6    2  0.7993170E+000  0.8460795E+02  0.7546771E-02  0.1316461E+00
         -1   -1    0    0    0  501 -0.00000000000E+00  0.00000000000E+00  0.14886805008E+02  0.14886805008E+02  0.00000000000E+00 0.  1.
         21   -1    0    0  501  502  0.00000000000E+00 -0.00000000000E+00 -0.26969194232E+03  0.26969194232E+03  0.00000000000E+00 0.  1.
         24    2    1    2    0    0 -0.23685823007E+02 -0.12150515399E+02 -0.11794375795E+03  0.14515245713E+03  0.80310973949E+02 0.  0.
        -11    1    3    3    0    0 -0.26097477117E+02 -0.12546551305E+02 -0.18316566148E+01  0.29014638159E+02  0.00000000000E+00 0.  1.
         12    1    3    3    0    0  0.24116541103E+01  0.39603590628E+00 -0.11611210133E+03  0.11613781897E+03  0.00000000000E+00 0. -1.
         -2    1    1    2    0  502  0.23685823007E+02  0.12150515399E+02 -0.13686137937E+03  0.13942629020E+03  0.00000000000E+00 0.  1.
<mgrwt>
<rscale>  1 0.84607953E+02</rscale>
<asrwt>0</asrwt>
<pdfrwt beam="1">  1       21 0.41491070E-01 0.84607953E+02</pdfrwt>
<pdfrwt beam="2">  1       -1 0.22902776E-02 0.84607953E+02</pdfrwt>
<totfact> 0.25857676E+05</totfact>
</mgrwt>
</event>
<event>
 6    2  0.7993170E+000  0.9003275E+02  0.7546771E-02  0.1302772E+00
         21   -1    0    0  501  502  0.00000000000E+00  0.00000000000E+00  0.80477404914E+01  0.80477404914E+01  0.00000000000E+00 0. -1.
          2   -1    0    0  502    0 -0.00000000000E+00 -0.00000000000E+00 -0.70123544221E+03  0.70123544221E+03  0.00000000000E+00 0. -1.
         24    2    1    2    0    0  0.22016319187E+02  0.34389652297E+02 -0.28084044227E+03  0.29491905675E+03  0.80240448202E+02 0.  0.
        -13    1    3    3    0    0  0.17890763545E+02  0.12510336695E+02 -0.11527763170E+02  0.24687593405E+02  0.00000000000E+00 0.  1.
         14    1    3    3    0    0  0.41255556426E+01  0.21879315602E+02 -0.26931267910E+03  0.27023146335E+03  0.00000000000E+00 0. -1.
          1    1    1    2  501    0 -0.22016319187E+02 -0.34389652297E+02 -0.41234725946E+03  0.41436412595E+03  0.00000000000E+00 0. -1.
<mgrwt>
<rscale>  1 0.90032750E+02</rscale>
<asrwt>0</asrwt>
<pdfrwt beam="1">  1       21 0.12381136E-02 0.90032750E+02</pdfrwt>
<pdfrwt beam="2">  1        2 0.10788240E+00 0.90032750E+02</pdfrwt>
<totfact> 0.13260818E+06</totfact>
</mgrwt>
</event>
<event>
 6    2  0.7993170E+000  0.7604607E+02  0.7546771E-02  0.1340662E+00
         -1   -1    0    0    0  501 -0.00000000000E+00  0.00000000000E+00  0.54985445613E+01  0.54985445613E+01  0.00000000000E+00 0.  1.
         21   -1    0    0  501  502  0.00000000000E+00 -0.00000000000E+00 -0.88086957325E+03  0.88086957325E+03  0.00000000000E+00 0. -1.
         24    2    1    2    0    0 -0.85058715450E+01  0.20485496849E+02 -0.26768257198E+03  0.27827497869E+03  0.72739253434E+02 0.  0.
        -13    1    3    3    0    0 -0.26813551462E+02  0.25298523539E+01 -0.34897560695E+02  0.44081815269E+02  0.00000000000E+00 0.  1.
         14    1    3    3    0    0  0.18307679917E+02  0.17955644495E+02 -0.23278501128E+03  0.23419316342E+03  0.00000000000E+00 0. -1.
         -2    1    1    2    0  502  0.85058715450E+01 -0.20485496849E+02 -0.60768845671E+03  0.60809313912E+03  0.00000000000E+00 0.  1.
<mgrwt>
<rscale>  1 0.76046068E+02</rscale>
<asrwt>0</asrwt>
<pdfrwt beam="1">  1       21 0.13551836E+00 0.76046068E+02</pdfrwt>
<pdfrwt beam="2">  1       -1 0.84593018E-03 0.76046068E+02</pdfrwt>
<totfact> 0.78370050E+04</totfact>
</mgrwt>
</event>
<event>
 6    2  0.7993170E+000  0.8426023E+02  0.7546771E-02  0.1317379E+00
         21   -1    0    0  501  502  0.00000000000E+00  0.00000000000E+00  0.12262835672E+03  0.12262835672E+03  0.00000000000E+00 0. -1.
          2   -1    0    0  502    0 -0.00000000000E+00 -0.00000000000E+00 -0.29404817080E+02  0.29404817080E+02  0.00000000000E+00 0. -1.
         24    2    1    2    0    0 -0.23671619621E+02  0.21224278013E+00  0.38961218725E+02  0.92831906132E+02  0.80866529597E+02 0.  0.
        -13    1    3    3    0    0  0.12440524857E+02 -0.26642782530E+02 -0.51083072067E+01  0.29844586145E+02  0.00000000000E+00 0.  1.
         14    1    3    3    0    0 -0.36112144479E+02  0.26855025310E+02  0.44069525932E+02  0.62987319987E+02  0.00000000000E+00 0. -1.
          1    1    1    2  501    0  0.23671619621E+02 -0.21224278013E+00  0.54262320915E+02  0.59201267669E+02  0.00000000000E+00 0. -1.
<mgrwt>
<rscale>  1 0.84260229E+02</rscale>
<asrwt>0</asrwt>
<pdfrwt beam="1">  1       21 0.18865901E-01 0.84260229E+02</pdfrwt>
<pdfrwt beam="2">  1        2 0.45238181E-02 0.84260229E+02</pdfrwt>
<totfact> 0.51561595E+05</totfact>
</mgrwt>
</event>
<event>
 6    2  0.7993170E+000  0.8364255E+02  0.7546771E-02  0.1319021E+00
         -1   -1    0    0    0  501 -0.00000000000E+00  0.00000000000E+00  0.28350226958E+03  0.28350226958E+03  0.00000000000E+00 0.  1.
         21   -1    0    0  501  502  0.00000000000E+00 -0.00000000000E+00 -0.14050348840E+02  0.14050348840E+02  0.00000000000E+00 0.  1.
         24    2    1    2    0    0 -0.18663160235E+02  0.31864126207E+02  0.22326432001E+03  0.23841776786E+03  0.75049579316E+02 0.  0.
        -11    1    3    3    0    0 -0.23610321307E+01  0.49061528437E+02  0.19705543914E+03  0.20308484468E+03  0.00000000000E+00 0.  1.
         12    1    3    3    0    0 -0.16302128104E+02 -0.17197402230E+02  0.26208880870E+02  0.35332923182E+02  0.00000000000E+00 0. -1.
         -2    1    1    2    0  502  0.18663160235E+02 -0.31864126207E+02  0.46187600731E+02  0.59134850555E+02  0.00000000000E+00 0.  1.
<mgrwt>
<rscale>  1 0.83642546E+02</rscale>
<asrwt>0</asrwt>
<pdfrwt beam="1">  1       21 0.21615923E-02 0.83642546E+02</pdfrwt>
<pdfrwt beam="2">  1       -1 0.43615729E-01 0.83642546E+02</pdfrwt>
<totfact> 0.48997628E+05</totfact>
</mgrwt>
</event>
<event>
 6    2  0.7993170E+000  0.9771087E+02  0.7546771E-02  0.1285185E+00
         21   -1    0    0  501  502  0.00000000000E+00  0.00000000000E+00  0.45178271838E+01  0.45178271838E+01  0.00000000000E+00 0. -1.
          2   -1    0    0  502    0 -0.00000000000E+00 -0.00000000000E+00 -0.14080130583E+04  0.14080130583E+04  0.00000000000E+00 0. -1.
         24    2    1    2    0    0 -0.16707427821E+02  0.54042428101E+02 -0.10502224176E+04  0.10547580484E+04  0.79672404710E+02 0.  0.
        -11    1    3    3    0    0  0.10444100465E+02 -0.11053953582E+02 -0.55731064485E+02  0.57768682458E+02  0.00000000000E+00 0.  1.
         12    1    3    3    0    0 -0.27151528286E+02  0.65096381683E+02 -0.99449135314E+03  0.99698936597E+03  0.00000000000E+00 0. -1.
          1    1    1    2  501    0  0.16707427821E+02 -0.54042428101E+02 -0.35327281349E+03  0.35777283705E+03  0.00000000000E+00 0. -1.
<mgrwt>
<rscale>  1 0.97710871E+02</rscale>
<asrwt>0</asrwt>
<pdfrwt beam="1">  1       21 0.69504991E-03 0.97710871E+02</pdfrwt>
<pdfrwt beam="2">  1        2 0.21661753E+00 0.97710871E+02</pdfrwt>
<totfact> 0.12622423E+06</totfact>
</mgrwt>
</event>
<event>
 6    2  0.7993170E+000  0.9331823E+02  0.7546771E-02  0.1295009E+00
         21   -1    0    0  501  502  0.00000000000E+00  0.00000000000E+00  0.19355860601E+03  0.19355860601E+03  0.00000000000E+00 0. -1.
          2   -1    0    0  502    0 -0.00000000000E+00 -0.00000000000E+00 -0.10494637172E+03  0.10494637172E+03  0.00000000000E+00 0. -1.
         24    2    1    2    0    0  0.22937110402E+02  0.67024565087E+01 -0.83210134525E+02  0.12502886876E+03  0.90206749082E+02 0.  0.
        -13    1    3    3    0    0  0.24671572192E+02  0.44962292915E+02 -0.29830075529E+02  0.59330663781E+02  0.00000000000E+00 0.  1.
         14    1    3    3    0    0 -0.17344617896E+01 -0.38259836407E+02 -0.53380058996E+02  0.65698204983E+02  0.00000000000E+00 0. -1.
          1    1    1    2  501    0 -0.22937110402E+02 -0.67024565087E+01  0.17182236881E+03  0.17347610896E+03  0.00000000000E+00 0. -1.
<mgrwt>
<rscale>  1 0.93318227E+02</rscale>
<asrwt>0</asrwt>
<pdfrwt beam="1">  1       21 0.29778247E-01 0.93318227E+02</pdfrwt>
<pdfrwt beam="2">  1        2 0.16145596E-01 0.93318227E+02</pdfrwt>
<totfact> 0.46547706E+04</totfact>
</mgrwt>
</event>
<event>
 6    2  0.7993170E+000  0.8326899E+02  0.7546771E-02  0.1320022E+00
          2   -1    0    0  502    0 -0.00000000000E+00  0.00000000000E+00  0.75291405993E+03  0.75291405993E+03  0.00000000000E+00 0. -1.
         21   -1    0    0  501  502  0.00000000000E+00 -0.00000000000E+00 -0.50442198175E+01  0.50442198175E+01  0.00000000000E+00 0. -1.
         24    2    1    2    0    0  0.68760467719E+01  0.19083248666E+02  0.71114942300E+03  0.71600783957E+03  0.80760597331E+02 0.  0.
        -13    1    3    3    0    0 -0.32341124492E+02 -0.56733687062E+01  0.40947045282E+03  0.41078484293E+03  0.00000000000E+00 0.  1.
         14    1    3    3    0    0  0.39217171264E+02  0.24756617373E+02  0.30167897018E+03  0.30522299664E+03  0.00000000000E+00 0. -1.
          1    1    1    2  501    0 -0.68760467719E+01 -0.19083248666E+02  0.36720417110E+02  0.41950440184E+02  0.00000000000E+00 0. -1.
<mgrwt>
<rscale>  1 0.83268989E+02</rscale>
<asrwt>0</asrwt>
<pdfrwt beam="1">  1       21 0.77603441E-03 0.83268989E+02</pdfrwt>
<pdfrwt beam="2">  1        2 0.11583284E+00 0.83268989E+02</pdfrwt>
<totfact> 0.25073026E+06</totfact>
</mgrwt>
</event>
<event>
 6    2  0.7993170E+000  0.8383097E+02  0.7546771E-02  0.1318518E+00
         21   -1    0    0  501  502  0.00000000000E+00  0.00000000000E+00  0.91587623973E+01  0.91587623973E+01  0.00000000000E+00 0.  1.
          2   -1    0    0  502    0 -0.00000000000E+00 -0.00000000000E+00 -0.36153260980E+03  0.36153260980E+03  0.00000000000E+00 0. -1.
         24    2    1    2    0    0 -0.60758775314E+01 -0.23279814895E+02 -0.20684519252E+03  0.22318728594E+03  0.80304202065E+02 0.  0.
        -13    1    3    3    0    0 -0.41186131623E+02 -0.24332557487E+02 -0.10310961220E+03  0.11366601480E+03  0.00000000000E+00 0.  1.
         14    1    3    3    0    0  0.35110254092E+02  0.10527425924E+01 -0.10373558031E+03  0.10952127114E+03  0.00000000000E+00 0. -1.
          1    1    1    2  501    0  0.60758775314E+01  0.23279814895E+02 -0.14552865489E+03  0.14750408626E+03  0.00000000000E+00 0. -1.
<mgrwt>
<rscale>  1 0.83830966E+02</rscale>
<asrwt>0</asrwt>
<pdfrwt beam="1">  1       21 0.14090402E-02 0.83830966E+02</pdfrwt>
<pdfrwt beam="2">  1        2 0.55620406E-01 0.83830966E+02</pdfrwt>
<totfact> 0.22064413E+06</totfact>
</mgrwt>
</event>
<event>
 6    2  0.7993170E+000  0.1025187E+03  0.7546771E-02  0.1275087E+00
          2   -1    0    0  502    0 -0.00000000000E+00  0.00000000000E+00  0.26225783437E+03  0.26225783437E+03  0.00000000000E+00 0. -1.
         21   -1    0    0  501  502  0.00000000000E+00 -0.00000000000E+00 -0.57522302494E+02  0.57522302494E+02  0.00000000000E+00 0. -1.
         24    2    1    2    0    0  0.11332094638E+02  0.61384340260E+02  0.23048460059E+03  0.25225630301E+03  0.81324274957E+02 0.  0.
        -13    1    3    3    0    0 -0.22051719928E+02 -0.89993951887E+01  0.68297777424E+02  0.72331555123E+02  0.00000000000E+00 0.  1.
         14    1    3    3    0    0  0.33383814566E+02  0.70383735449E+02  0.16218682317E+03  0.17992474788E+03  0.00000000000E+00 0. -1.
          1    1    1    2  501    0 -0.11332094638E+02 -0.61384340260E+02 -0.25749068723E+02  0.67523833852E+02  0.00000000000E+00 0. -1.
<mgrwt>
<rscale>  1 0.10251874E+03</rscale>
<asrwt>0</asrwt>
<pdfrwt beam="1">  1       21 0.88495852E-02 0.10251874E+03</pdfrwt>
<pdfrwt beam="2">  1        2 0.40347358E-01 0.10251874E+03</pdfrwt>
<totfact> 0.15368620E+05</totfact>
</mgrwt>
</event>
<event>
 6    2  0.7993170E+000  0.9135428E+02  0.7546771E-02  0.1299605E+00
         21   -1    0    0  501  502  0.00000000000E+00  0.00000000000E+00  0.81484397588E+01  0.81484397588E+01  0.00000000000E+00 0.  1.
          2   -1    0    0  502    0 -0.00000000000E+00 -0.00000000000E+00 -0.91325249119E+03  0.91325249119E+03  0.00000000000E+00 0. -1.
         24    2    1    2    0    0 -0.26685027986E+02  0.20919072692E+02 -0.86068349611E+03  0.86551816030E+03  0.84828692090E+02 0.  0.
        -13    1    3    3    0    0 -0.33386108036E+02 -0.59544763656E+01 -0.13129715595E+03  0.13560616195E+03  0.00000000000E+00 0.  1.
         14    1    3    3    0    0  0.67010800496E+01  0.26873549058E+02 -0.72938634017E+03  0.72991199835E+03  0.00000000000E+00 0. -1.
          1    1    1    2  501    0  0.26685027986E+02 -0.20919072692E+02 -0.44420555318E+02  0.55882770651E+02  0.00000000000E+00 0. -1.
<mgrwt>
<rscale>  1 0.91354285E+02</rscale>
<asrwt>0</asrwt>
<pdfrwt beam="1">  1       21 0.12536068E-02 0.91354285E+02</pdfrwt>
<pdfrwt beam="2">  1        2 0.14050030E+00 0.91354285E+02</pdfrwt>
<totfact> 0.94229955E+05</totfact>
</mgrwt>
</event>
<event>
 6    2  0.7993170E+000  0.8676806E+02  0.7546771E-02  0.1310873E+00
         21   -1    0    0  501  502  0.00000000000E+00  0.00000000000E+00  0.72973171433E+01  0.72973171433E+01  0.00000000000E+00 0.  1.
          2   -1    0    0  502    0 -0.00000000000E+00 -0.00000000000E+00 -0.87653163279E+03  0.87653163279E+03  0.00000000000E+00 0. -1.
         24    2    1    2    0    0 -0.34206472573E+02  0.29518943088E+01 -0.81523123619E+03  0.81983575470E+03  0.79686258355E+02 0.  0.
        -13    1    3    3    0    0 -0.23723027015E+02 -0.15893131577E+02 -0.93054325357E+02  0.97336946273E+02  0.00000000000E+00 0.  1.
         14    1    3    3    0    0 -0.10483445558E+02  0.18845025885E+02 -0.72217691084E+03  0.72249880843E+03  0.00000000000E+00 0. -1.
          1    1    1    2  501    0  0.34206472573E+02 -0.29518943088E+01 -0.54003079452E+02  0.63993195233E+02  0.00000000000E+00 0. -1.
<mgrwt>
<rscale>  1 0.86768060E+02</rscale>
<asrwt>0</asrwt>
<pdfrwt beam="1">  1       21 0.11226649E-02 0.86768060E+02</pdfrwt>
<pdfrwt beam="2">  1        2 0.13485093E+00 0.86768060E+02</pdfrwt>
<totfact> 0.11757793E+06</totfact>
</mgrwt>
</event>
<event>
 6    2  0.7993170E+000  0.9020151E+02  0.7546771E-02  0.1302364E+00
          2   -1    0    0  502    0 -0.00000000000E+00  0.00000000000E+00  0.23712393009E+03  0.23712393009E+03  0.00000000000E+00 0. -1.
         21   -1    0    0  501  502  0.00000000000E+00 -0.00000000000E+00 -0.18386656267E+02  0.18386656267E+02  0.00000000000E+00 0. -1.
         24    2    1    2    0    0  0.15136126835E+02  0.38750081700E+02  0.15693993221E+03  0.18101506570E+03  0.80035245494E+02 0.  0.
        -13    1    3    3    0    0  0.15166363093E+02 -0.21443415601E+02  0.26271210183E+02  0.37148554838E+02  0.00000000000E+00 0.  1.
         14    1    3    3    0    0 -0.30236257289E-01  0.60193497301E+02  0.13066872203E+03  0.14386651086E+03  0.00000000000E+00 0. -1.
          1    1    1    2  501    0 -0.15136126835E+02 -0.38750081700E+02  0.61797341609E+02  0.74495520652E+02  0.00000000000E+00 0. -1.
<mgrwt>
<rscale>  1 0.90201506E+02</rscale>
<asrwt>0</asrwt>
<pdfrwt beam="1">  1       21 0.28287165E-02 0.90201506E+02</pdfrwt>
<pdfrwt beam="2">  1        2 0.36480603E-01 0.90201506E+02</pdfrwt>
<totfact> 0.11353257E+06</totfact>
</mgrwt>
</event>
<event>
 6    2  0.7993170E+000  0.9677117E+02  0.7546771E-02  0.1287236E+00
         21   -1    0    0  501  502  0.00000000000E+00  0.00000000000E+00  0.10278844857E+02  0.10278844857E+02  0.00000000000E+00 0.  1.
          2   -1    0    0  502    0 -0.00000000000E+00 -0.00000000000E+00 -0.56747035995E+03  0.56747035995E+03  0.00000000000E+00 0. -1.
         24    2    1    2    0    0 -0.24818718651E+02  0.49361014215E+02 -0.32687722916E+03  0.34090083807E+03  0.79449228666E+02 0.  0.
        -13    1    3    3    0    0 -0.29860736373E+02  0.26686221434E+02 -0.55012265517E+02  0.68045333040E+02  0.00000000000E+00 0.  1.
         14    1    3    3    0    0  0.50420177219E+01  0.22674792781E+02 -0.27186496364E+03  0.27285550503E+03  0.00000000000E+00 0. -1.
          1    1    1    2  501    0  0.24818718651E+02 -0.49361014215E+02 -0.23031428594E+03  0.23684836674E+03  0.00000000000E+00 0. -1.
<mgrwt>
<rscale>  1 0.96771165E+02</rscale>
<asrwt>0</asrwt>
<pdfrwt beam="1">  1       21 0.15813606E-02 0.96771165E+02</pdfrwt>
<pdfrwt beam="2">  1        2 0.87303138E-01 0.96771165E+02</pdfrwt>
<totfact> 0.11530030E+06</totfact>
</mgrwt>
</event>
<event>
 6    2  0.7993170E+000  0.8848007E+02  0.7546771E-02  0.1306575E+00
         21   -1    0    0  501  502  0.00000000000E+00  0.00000000000E+00  0.58167899291E+03  0.58167899291E+03  0.00000000000E+00 0. -1.
         -1   -1    0    0    0  501 -0.00000000000E+00 -0.00000000000E+00 -0.67715380610E+01  0.67715380610E+01  0.00000000000E+00 0.  1.
         24    2    1    2    0    0 -0.35195916104E+02  0.11412683454E+02  0.39848508474E+03  0.40819001248E+03  0.80372393701E+02 0.  0.
        -11    1    3    3    0    0 -0.34866925786E+01 -0.19543693317E+02  0.24246955953E+02  0.31337323539E+02  0.00000000000E+00 0.  1.
         12    1    3    3    0    0 -0.31709223525E+02  0.30956376771E+02  0.37423812879E+03  0.37685268894E+03  0.00000000000E+00 0. -1.
         -2    1    1    2    0  502  0.35195916104E+02 -0.11412683454E+02  0.17642237011E+03  0.18026051850E+03  0.00000000000E+00 0.  1.
<mgrwt>
<rscale>  1 0.88480074E+02</rscale>
<asrwt>0</asrwt>
<pdfrwt beam="1">  1       21 0.89489037E-01 0.88480074E+02</pdfrwt>
<pdfrwt beam="2">  1       -1 0.10417755E-02 0.88480074E+02</pdfrwt>
<totfact> 0.15678982E+05</totfact>
</mgrwt>
</event>
<event>
 6    2  0.7993170E+000  0.8917234E+02  0.7546771E-02  0.1304868E+00
         21   -1    0    0  501  502  0.00000000000E+00  0.00000000000E+00  0.59757653647E+03  0.59757653647E+03  0.00000000000E+00 0. -1.
         -3   -1    0    0    0  501 -0.00000000000E+00 -0.00000000000E+00 -0.67868550877E+01  0.67868550877E+01  0.00000000000E+00 0.  1.
         24    2    1    2    0    0  0.21875411318E+02  0.28421401552E+02  0.36450182416E+03  0.37525096498E+03  0.81641883953E+02 0.  0.
        -13    1    3    3    0    0 -0.25993036350E+02 -0.95472368138E+01  0.98158391773E+02  0.10198949723E+03  0.00000000000E+00 0.  1.
         14    1    3    3    0    0  0.47868447668E+02  0.37968638366E+02  0.26634343239E+03  0.27326146776E+03  0.00000000000E+00 0. -1.
         -4    1    1    2    0  502 -0.21875411318E+02 -0.28421401552E+02  0.22628785722E+03  0.22911242658E+03  0.00000000000E+00 0.  1.
<mgrwt>
<rscale>  1 0.89172344E+02</rscale>
<asrwt>0</asrwt>
<pdfrwt beam="1">  1       21 0.91934811E-01 0.89172344E+02</pdfrwt>
<pdfrwt beam="2">  1       -3 0.10441320E-02 0.89172344E+02</pdfrwt>
<totfact> 0.11714540E+05</totfact>
</mgrwt>
</event>
<event>
 6    2  0.7993170E+000  0.1082584E+03  0.7546771E-02  0.1263829E+00
         21   -1    0    0  501  502  0.00000000000E+00  0.00000000000E+00  0.24682030385E+02  0.24682030385E+02  0.00000000000E+00 0.  1.
          2   -1    0    0  502    0 -0.00000000000E+00 -0.00000000000E+00 -0.33463709969E+03  0.33463709969E+03  0.00000000000E+00 0. -1.
         24    2    1    2    0    0 -0.17509229501E+02  0.71171945274E+02 -0.19325482493E+03  0.22151141639E+03  0.79673466877E+02 0.  0.
        -11    1    3    3    0    0 -0.21672823115E+02  0.84219956931E+02 -0.12742547723E+03  0.15427237165E+03  0.00000000000E+00 0.  1.
         12    1    3    3    0    0  0.41635936139E+01 -0.13048011657E+02 -0.65829347699E+02  0.67239044747E+02  0.00000000000E+00 0. -1.
          1    1    1    2  501    0  0.17509229501E+02 -0.71171945274E+02 -0.11670024438E+03  0.13780771368E+03  0.00000000000E+00 0. -1.
<mgrwt>
<rscale>  1 0.10825840E+03</rscale>
<asrwt>0</asrwt>
<pdfrwt beam="1">  1       21 0.37972356E-02 0.10825840E+03</pdfrwt>
<pdfrwt beam="2">  1        2 0.51482629E-01 0.10825840E+03</pdfrwt>
<totfact> 0.49673277E+05</totfact>
</mgrwt>
</event>
<event>
 6    2  0.7993170E+000  0.9090367E+02  0.7546771E-02  0.1300678E+00
         -3   -1    0    0    0  501 -0.00000000000E+00  0.00000000000E+00  0.46134298146E+03  0.46134298146E+03  0.00000000000E+00 0.  1.
         21   -1    0    0  501  502  0.00000000000E+00 -0.00000000000E+00 -0.17197559027E+02  0.17197559027E+02  0.00000000000E+00 0.  1.
         24    2    1    2    0    0  0.34024743272E+02 -0.18544908402E+02  0.42628941543E+03  0.43587399893E+03  0.82230653997E+02 0.  0.
        -13    1    3    3    0    0  0.31134321398E+02 -0.12075999345E+02  0.42739963474E+03  0.42870225508E+03  0.00000000000E+00 0.  1.
         14    1    3    3    0    0  0.28904218737E+01 -0.64689090563E+01 -0.11102193161E+01  0.71717438546E+01  0.00000000000E+00 0. -1.
         -4    1    1    2    0  502 -0.34024743272E+02  0.18544908402E+02  0.17856007012E+02  0.42666541561E+02  0.00000000000E+00 0.  1.
<mgrwt>
<rscale>  1 0.90903670E+02</rscale>
<asrwt>0</asrwt>
<pdfrwt beam="1">  1       21 0.26457787E-02 0.90903670E+02</pdfrwt>
<pdfrwt beam="2">  1       -3 0.70975834E-01 0.90903670E+02</pdfrwt>
<totfact> 0.68436496E+04</totfact>
</mgrwt>
</event>
<event>
 6    2  0.7993170E+000  0.9714643E+02  0.7546771E-02  0.1286414E+00
          2   -1    0    0  502    0 -0.00000000000E+00  0.00000000000E+00  0.23273264383E+03  0.23273264383E+03  0.00000000000E+00 0. -1.
         21   -1    0    0  501  502  0.00000000000E+00 -0.00000000000E+00 -0.28055822643E+02  0.28055822643E+02  0.00000000000E+00 0. -1.
         24    2    1    2    0    0 -0.55396364090E+02 -0.31662489694E+01  0.16866003202E+03  0.19463718993E+03  0.79741124991E+02 0.  0.
        -11    1    3    3    0    0 -0.14776758907E+02  0.25964018120E+02  0.15765289898E+02  0.33779094220E+02  0.00000000000E+00 0.  1.
         12    1    3    3    0    0 -0.40619605183E+02 -0.29130267090E+02  0.15289474212E+03  0.16085809571E+03  0.00000000000E+00 0. -1.
          1    1    1    2  501    0  0.55396364090E+02  0.31662489694E+01  0.36016789169E+02  0.66151276548E+02  0.00000000000E+00 0. -1.
<mgrwt>
<rscale>  1 0.97146432E+02</rscale>
<asrwt>0</asrwt>
<pdfrwt beam="1">  1       21 0.43162806E-02 0.97146432E+02</pdfrwt>
<pdfrwt beam="2">  1        2 0.35805021E-01 0.97146432E+02</pdfrwt>
<totfact> 0.58371063E+05</totfact>
</mgrwt>
</event>
<event>
 6    2  0.7993170E+000  0.8634790E+02  0.7546771E-02  0.1311945E+00
         21   -1    0    0  501  502  0.00000000000E+00  0.00000000000E+00  0.28201115191E+02  0.28201115191E+02  0.00000000000E+00 0. -1.
          2   -1    0    0  502    0 -0.00000000000E+00 -0.00000000000E+00 -0.19557582016E+03  0.19557582016E+03  0.00000000000E+00 0. -1.
         24    2    1    2    0    0  0.32154727586E+02 -0.16794979018E+02 -0.16642018173E+03  0.18748769533E+03  0.78357904435E+02 0.  0.
        -13    1    3    3    0    0  0.19703032927E+02  0.30186366617E+01 -0.51432803082E+00  0.19939563866E+02  0.00000000000E+00 0.  1.
         14    1    3    3    0    0  0.12451694659E+02 -0.19813615680E+02 -0.16590585370E+03  0.16754813146E+03  0.00000000000E+00 0. -1.
          1    1    1    2  501    0 -0.32154727586E+02  0.16794979018E+02 -0.95452323742E+00  0.36289240017E+02  0.00000000000E+00 0. -1.
<mgrwt>
<rscale>  1 0.86347895E+02</rscale>
<asrwt>0</asrwt>
<pdfrwt beam="1">  1       21 0.43386330E-02 0.86347895E+02</pdfrwt>
<pdfrwt beam="2">  1        2 0.30088588E-01 0.86347895E+02</pdfrwt>
<totfact> 0.68857867E+05</totfact>
</mgrwt>
</event>
<event>
 6    2  0.7993170E+000  0.9215749E+02  0.7546771E-02  0.1297710E+00
          2   -1    0    0  502    0 -0.00000000000E+00  0.00000000000E+00  0.13842536384E+04  0.13842536384E+04  0.00000000000E+00 0. -1.
         21   -1    0    0  501  502  0.00000000000E+00 -0.00000000000E+00 -0.51940698860E+01  0.51940698860E+01  0.00000000000E+00 0. -1.
         24    2    1    2    0    0 -0.96539607283E+01  0.42464585521E+02  0.12468404158E+04  0.12502415866E+04  0.81219223792E+02 0.  0.
        -13    1    3    3    0    0  0.17761556816E+02 -0.10177565028E+02  0.11235621098E+03  0.11420583994E+03  0.00000000000E+00 0.  1.
         14    1    3    3    0    0 -0.27415517545E+02  0.52642150549E+02  0.11344842048E+04  0.11360357466E+04  0.00000000000E+00 0. -1.
          1    1    1    2  501    0  0.96539607283E+01 -0.42464585521E+02  0.13221915271E+03  0.13920612172E+03  0.00000000000E+00 0. -1.
<mgrwt>
<rscale>  1 0.92157486E+02</rscale>
<asrwt>0</asrwt>
<pdfrwt beam="1">  1       21 0.79908878E-03 0.92157486E+02</pdfrwt>
<pdfrwt beam="2">  1        2 0.21296180E+00 0.92157486E+02</pdfrwt>
<totfact> 0.10419502E+06</totfact>
</mgrwt>
</event>
<event>
 6    2  0.7993170E+000  0.8492244E+02  0.7546771E-02  0.1315635E+00
         21   -1    0    0  501  502  0.00000000000E+00  0.00000000000E+00  0.17270948299E+03  0.17270948299E+03  0.00000000000E+00 0.  1.
         -1   -1    0    0    0  501 -0.00000000000E+00 -0.00000000000E+00 -0.53094681597E+02  0.53094681597E+02  0.00000000000E+00 0.  1.
         24    2    1    2    0    0  0.28552924712E+02 -0.11357601942E+02 -0.16288243518E+02  0.86470384592E+02  0.79167896923E+02 0.  0.
        -11    1    3    3    0    0 -0.10184305453E+02  0.21909281886E+02 -0.24891959375E+02  0.34689282953E+02  0.00000000000E+00 0.  1.
         12    1    3    3    0    0  0.38737230164E+02 -0.33266883828E+02  0.86037158566E+01  0.51781101639E+02  0.00000000000E+00 0. -1.
         -2    1    1    2    0  502 -0.28552924712E+02  0.11357601942E+02  0.13590304491E+03  0.13933377999E+03  0.00000000000E+00 0.  1.
<mgrwt>
<rscale>  1 0.84922438E+02</rscale>
<asrwt>0</asrwt>
<pdfrwt beam="1">  1       21 0.26570689E-01 0.84922438E+02</pdfrwt>
<pdfrwt beam="2">  1       -1 0.81684126E-02 0.84922438E+02</pdfrwt>
<totfact> 0.96080726E+04</totfact>
</mgrwt>
</event>
<event>
 6    2  0.7993170E+000  0.8486211E+02  0.7546771E-02  0.1315794E+00
          2   -1    0    0  502    0 -0.00000000000E+00  0.00000000000E+00  0.42222097041E+03  0.42222097041E+03  0.00000000000E+00 0. -1.
         21   -1    0    0  501  502  0.00000000000E+00 -0.00000000000E+00 -0.94315055087E+01  0.94315055087E+01  0.00000000000E+00 0.  1.
         24    2    1    2    0    0  0.61025161759E+01  0.24429957344E+02  0.38461317453E+03  0.39386402717E+03  0.81040202123E+02 0.  0.
        -13    1    3    3    0    0  0.36013257147E+02  0.36880759478E+02  0.20712022004E+03  0.21343835330E+03  0.00000000000E+00 0.  1.
         14    1    3    3    0    0 -0.29910740971E+02 -0.12450802134E+02  0.17749295449E+03  0.18042567387E+03  0.00000000000E+00 0. -1.
          1    1    1    2  501    0 -0.61025161759E+01 -0.24429957344E+02  0.28176290374E+02  0.37788448748E+02  0.00000000000E+00 0. -1.
<mgrwt>
<rscale>  1 0.84862111E+02</rscale>
<asrwt>0</asrwt>
<pdfrwt beam="1">  1       21 0.14510012E-02 0.84862111E+02</pdfrwt>
<pdfrwt beam="2">  1        2 0.64957058E-01 0.84862111E+02</pdfrwt>
<totfact> 0.17928346E+06</totfact>
</mgrwt>
</event>
<event>
 6    2  0.7993170E+000  0.9336186E+02  0.7546771E-02  0.1294909E+00
          2   -1    0    0  502    0 -0.00000000000E+00  0.00000000000E+00  0.66738203389E+03  0.66738203389E+03  0.00000000000E+00 0. -1.
         21   -1    0    0  501  502  0.00000000000E+00 -0.00000000000E+00 -0.82457529248E+01  0.82457529248E+01  0.00000000000E+00 0.  1.
         24    2    1    2    0    0  0.36901502934E+02 -0.35175620539E+02  0.49603239580E+03  0.50474208655E+03  0.78213752322E+02 0.  0.
        -11    1    3    3    0    0  0.31973895277E+02 -0.17058988360E+01  0.65753012661E+02  0.73134798448E+02  0.00000000000E+00 0.  1.
         12    1    3    3    0    0  0.49276076575E+01 -0.33469721703E+02  0.43027938314E+03  0.43160728810E+03  0.00000000000E+00 0. -1.
          1    1    1    2  501    0 -0.36901502934E+02  0.35175620539E+02  0.16310388516E+03  0.17088570026E+03  0.00000000000E+00 0. -1.
<mgrwt>
<rscale>  1 0.93361857E+02</rscale>
<asrwt>0</asrwt>
<pdfrwt beam="1">  1       21 0.12685779E-02 0.93361857E+02</pdfrwt>
<pdfrwt beam="2">  1        2 0.10267412E+00 0.93361857E+02</pdfrwt>
<totfact> 0.13562826E+06</totfact>
</mgrwt>
</event>
<event>
 6    2  0.7993170E+000  0.7932057E+02  0.7546771E-02  0.1330991E+00
          2   -1    0    0  502    0 -0.00000000000E+00  0.00000000000E+00  0.53056269857E+03  0.53056269857E+03  0.00000000000E+00 0. -1.
         21   -1    0    0  501  502  0.00000000000E+00 -0.00000000000E+00 -0.56700618508E+01  0.56700618508E+01  0.00000000000E+00 0.  1.
         24    2    1    2    0    0  0.20881216566E+02  0.81360254423E+01  0.30296646071E+03  0.31317795166E+03  0.76088980626E+02 0.  0.
        -13    1    3    3    0    0  0.40982353574E+02 -0.19006599169E+02  0.15820438404E+03  0.16452790415E+03  0.00000000000E+00 0.  1.
         14    1    3    3    0    0 -0.20101137008E+02  0.27142624611E+02  0.14476207667E+03  0.14865004750E+03  0.00000000000E+00 0. -1.
          1    1    1    2  501    0 -0.20881216566E+02 -0.81360254423E+01  0.22192617601E+03  0.22305480876E+03  0.00000000000E+00 0. -1.
<mgrwt>
<rscale>  1 0.79320572E+02</rscale>
<asrwt>0</asrwt>
<pdfrwt beam="1">  1       21 0.87231763E-03 0.79320572E+02</pdfrwt>
<pdfrwt beam="2">  1        2 0.81624991E-01 0.79320572E+02</pdfrwt>
<totfact> 0.30892396E+06</totfact>
</mgrwt>
</event>
<event>
 6    2  0.7993170E+000  0.7874464E+02  0.7546771E-02  0.1332652E+00
         21   -1    0    0  501  502  0.00000000000E+00  0.00000000000E+00  0.41622660628E+03  0.41622660628E+03  0.00000000000E+00 0.  1.
          4   -1    0    0  502    0 -0.00000000000E+00 -0.00000000000E+00 -0.64690471376E+01  0.64690471376E+01  0.00000000000E+00 0. -1.
         24    2    1    2    0    0 -0.22252954193E+02 -0.64088062130E+01  0.27882909827E+03  0.28973502528E+03  0.75262554213E+02 0.  0.
        -13    1    3    3    0    0 -0.17338966014E+02 -0.15414234389E+00  0.28096465880E+03  0.28149920603E+03  0.00000000000E+00 0.  1.
         14    1    3    3    0    0 -0.49139881790E+01 -0.62546638691E+01 -0.21355605311E+01  0.82358192501E+01  0.00000000000E+00 0. -1.
          3    1    1    2  501    0  0.22252954193E+02  0.64088062130E+01  0.13092846087E+03  0.13296062814E+03  0.00000000000E+00 0. -1.
<mgrwt>
<rscale>  1 0.78744643E+02</rscale>
<asrwt>0</asrwt>
<pdfrwt beam="1">  1       21 0.64034842E-01 0.78744643E+02</pdfrwt>
<pdfrwt beam="2">  1        4 0.99523835E-03 0.78744643E+02</pdfrwt>
<totfact> 0.24760561E+05</totfact>
</mgrwt>
</event>
<event>
 6    2  0.7993170E+000  0.9046660E+02  0.7546771E-02  0.1301726E+00
         21   -1    0    0  501  502  0.00000000000E+00  0.00000000000E+00  0.48600265753E+03  0.48600265753E+03  0.00000000000E+00 0. -1.
         -3   -1    0    0    0  501 -0.00000000000E+00 -0.00000000000E+00 -0.16166973760E+02  0.16166973760E+02  0.00000000000E+00 0.  1.
         24    2    1    2    0    0  0.28889078082E+02 -0.30239624432E+02  0.12228203130E+03  0.15210884362E+03  0.80219644792E+02 0.  0.
        -11    1    3    3    0    0  0.96510140195E+01 -0.10898597337E+02 -0.95980720904E+01  0.17436871375E+02  0.00000000000E+00 0.  1.
         12    1    3    3    0    0  0.19238064063E+02 -0.19341027096E+02  0.13188010339E+03  0.13467197225E+03  0.00000000000E+00 0. -1.
         -4    1    1    2    0  502 -0.28889078082E+02  0.30239624432E+02  0.34755365246E+03  0.35006078766E+03  0.00000000000E+00 0.  1.
<mgrwt>
<rscale>  1 0.90466597E+02</rscale>
<asrwt>0</asrwt>
<pdfrwt beam="1">  1       21 0.74769628E-01 0.90466597E+02</pdfrwt>
<pdfrwt beam="2">  1       -3 0.24872271E-02 0.90466597E+02</pdfrwt>
<totfact> 0.50557060E+04</totfact>
</mgrwt>
</event>
<event>
 6    2  0.7993170E+000  0.7924490E+02  0.7546771E-02  0.1331208E+00
          2   -1    0    0  502    0 -0.00000000000E+00  0.00000000000E+00  0.59751984645E+03  0.59751984645E+03  0.00000000000E+00 0. -1.
         21   -1    0    0  501  502  0.00000000000E+00 -0.00000000000E+00 -0.87923340384E+01  0.87923340384E+01  0.00000000000E+00 0. -1.
         24    2    1    2    0    0 -0.21248671511E+02  0.20768433668E+01  0.57606421792E+03  0.58148924056E+03  0.76314706337E+02 0.  0.
        -11    1    3    3    0    0  0.63194483336E+01 -0.25978049163E+02  0.40835922258E+03  0.40923348975E+03  0.00000000000E+00 0.  1.
         12    1    3    3    0    0 -0.27568119845E+02  0.28054892530E+02  0.16770499534E+03  0.17225575081E+03  0.00000000000E+00 0. -1.
          1    1    1    2  501    0  0.21248671511E+02 -0.20768433668E+01  0.12663294499E+02  0.24822939933E+02  0.00000000000E+00 0. -1.
<mgrwt>
<rscale>  1 0.79244897E+02</rscale>
<asrwt>0</asrwt>
<pdfrwt beam="1">  1       21 0.13526672E-02 0.79244897E+02</pdfrwt>
<pdfrwt beam="2">  1        2 0.91926098E-01 0.79244897E+02</pdfrwt>
<totfact> 0.13664526E+06</totfact>
</mgrwt>
</event>
<event>
 6    2  0.7993170E+000  0.1083865E+03  0.7546771E-02  0.1263587E+00
          2   -1    0    0  502    0 -0.00000000000E+00  0.00000000000E+00  0.16921767987E+03  0.16921767987E+03  0.00000000000E+00 0. -1.
         21   -1    0    0  501  502  0.00000000000E+00 -0.00000000000E+00 -0.46589947615E+02  0.46589947615E+02  0.00000000000E+00 0. -1.
         24    2    1    2    0    0  0.67378258027E+02  0.15725394104E+02  0.73944249032E+02  0.13120739573E+03  0.83429677299E+02 0.  0.
        -11    1    3    3    0    0 -0.15546847586E+02 -0.12996890077E+02  0.18230612280E+02  0.27257638299E+02  0.00000000000E+00 0.  1.
         12    1    3    3    0    0  0.82925105612E+02  0.28722284181E+02  0.55713636753E+02  0.10394975743E+03  0.00000000000E+00 0. -1.
          1    1    1    2  501    0 -0.67378258027E+02 -0.15725394104E+02  0.48683483220E+02  0.84600231754E+02  0.00000000000E+00 0. -1.
<mgrwt>
<rscale>  1 0.10838648E+03</rscale>
<asrwt>0</asrwt>
<pdfrwt beam="1">  1       21 0.71676843E-02 0.10838648E+03</pdfrwt>
<pdfrwt beam="2">  1        2 0.26033489E-01 0.10838648E+03</pdfrwt>
<totfact> 0.35366894E+05</totfact>
</mgrwt>
</event>
<event>
 6    2  0.7993170E+000  0.9332469E+02  0.7546771E-02  0.1294995E+00
         -1   -1    0    0    0  501 -0.00000000000E+00  0.00000000000E+00  0.29529050944E+03  0.29529050944E+03  0.00000000000E+00 0.  1.
         21   -1    0    0  501  502  0.00000000000E+00 -0.00000000000E+00 -0.16958351644E+02  0.16958351644E+02  0.00000000000E+00 0. -1.
         24    2    1    2    0    0 -0.32208745741E+02  0.32561688161E+02  0.15811109325E+03  0.18359906046E+03  0.81313162266E+02 0.  0.
        -11    1    3    3    0    0  0.21343444990E+02 -0.10909771103E+02  0.33844215477E+02  0.41472842569E+02  0.00000000000E+00 0.  1.
         12    1    3    3    0    0 -0.53552190730E+02  0.43471459263E+02  0.12426687777E+03  0.14212621790E+03  0.00000000000E+00 0. -1.
         -2    1    1    2    0  502  0.32208745741E+02 -0.32561688161E+02  0.12022106455E+03  0.12864980062E+03  0.00000000000E+00 0.  1.
<mgrwt>
<rscale>  1 0.93324687E+02</rscale>
<asrwt>0</asrwt>
<pdfrwt beam="1">  1       21 0.26089774E-02 0.93324687E+02</pdfrwt>
<pdfrwt beam="2">  1       -1 0.45429305E-01 0.93324687E+02</pdfrwt>
<totfact> 0.34063381E+05</totfact>
</mgrwt>
</event>
<event>
 6    2  0.7993170E+000  0.9090138E+02  0.7546771E-02  0.1300683E+00
          4   -1    0    0  502    0 -0.00000000000E+00  0.00000000000E+00  0.37899301455E+03  0.37899301455E+03  0.00000000000E+00 0. -1.
         21   -1    0    0  501  502  0.00000000000E+00 -0.00000000000E+00 -0.12565364461E+02  0.12565364461E+02  0.00000000000E+00 0.  1.
         24    2    1    2    0    0  0.28745791510E+02  0.28567190258E+02  0.19124554965E+03  0.21174966620E+03  0.81367413538E+02 0.  0.
        -11    1    3    3    0    0  0.40459219570E+02  0.11492105819E+02  0.36691597376E+02  0.55814785338E+02  0.00000000000E+00 0.  1.
         12    1    3    3    0    0 -0.11713428060E+02  0.17075084439E+02  0.15455395228E+03  0.15593488087E+03  0.00000000000E+00 0. -1.
          3    1    1    2  501    0 -0.28745791510E+02 -0.28567190258E+02  0.17518210044E+03  0.17980871281E+03  0.00000000000E+00 0. -1.
<mgrwt>
<rscale>  1 0.90901380E+02</rscale>
<asrwt>0</asrwt>
<pdfrwt beam="1">  1       21 0.19331333E-02 0.90901380E+02</pdfrwt>
<pdfrwt beam="2">  1        4 0.58306609E-01 0.90901380E+02</pdfrwt>
<totfact> 0.13735870E+05</totfact>
</mgrwt>
</event>
<event>
 6    2  0.7993170E+000  0.8345269E+02  0.7546771E-02  0.1319529E+00
         21   -1    0    0  501  502  0.00000000000E+00  0.00000000000E+00  0.53047628127E+01  0.53047628127E+01  0.00000000000E+00 0. -1.
          2   -1    0    0  502    0 -0.00000000000E+00 -0.00000000000E+00 -0.14733339082E+04  0.14733339082E+04  0.00000000000E+00 0. -1.
         24    2    1    2    0    0 -0.22489733653E+02 -0.13301339051E+02 -0.33262845602E+03  0.34293737262E+03  0.79256785510E+02 0.  0.
        -13    1    3    3    0    0 -0.30550382471E+02  0.11996661766E+02 -0.29536107576E+03  0.29717908883E+03  0.00000000000E+00 0.  1.
         14    1    3    3    0    0  0.80606488179E+01 -0.25298000816E+02 -0.37267380255E+02  0.45758283794E+02  0.00000000000E+00 0. -1.
          1    1    1    2  501    0  0.22489733653E+02  0.13301339051E+02 -0.11354006894E+04  0.11357012984E+04  0.00000000000E+00 0. -1.
<mgrwt>
<rscale>  1 0.83452692E+02</rscale>
<asrwt>0</asrwt>
<pdfrwt beam="1">  1       21 0.81611689E-03 0.83452692E+02</pdfrwt>
<pdfrwt beam="2">  1        2 0.22666688E+00 0.83452692E+02</pdfrwt>
<totfact> 0.90140044E+05</totfact>
</mgrwt>
</event>
<event>
 6    2  0.7993170E+000  0.9023127E+02  0.7546771E-02  0.1302293E+00
         21   -1    0    0  501  502  0.00000000000E+00  0.00000000000E+00  0.22159780103E+02  0.22159780103E+02  0.00000000000E+00 0. -1.
          2   -1    0    0  502    0 -0.00000000000E+00 -0.00000000000E+00 -0.27901548134E+03  0.27901548134E+03  0.00000000000E+00 0. -1.
         24    2    1    2    0    0 -0.26770454474E+02  0.34002600111E+02 -0.23693395908E+03  0.25353378941E+03  0.79176052934E+02 0.  0.
        -11    1    3    3    0    0 -0.49539894349E+01  0.29861411600E+02 -0.21911911105E+02  0.37368138332E+02  0.00000000000E+00 0.  1.
         12    1    3    3    0    0 -0.21816465039E+02  0.41411885107E+01 -0.21502204798E+03  0.21616565108E+03  0.00000000000E+00 0. -1.
          1    1    1    2  501    0  0.26770454474E+02 -0.34002600111E+02 -0.19921742153E+02  0.47641472033E+02  0.00000000000E+00 0. -1.
<mgrwt>
<rscale>  1 0.90231266E+02</rscale>
<asrwt>0</asrwt>
<pdfrwt beam="1">  1       21 0.34091968E-02 0.90231266E+02</pdfrwt>
<pdfrwt beam="2">  1        2 0.42925461E-01 0.90231266E+02</pdfrwt>
<totfact> 0.70636024E+05</totfact>
</mgrwt>
</event>
<event>
 6    2  0.7993170E+000  0.8335910E+02  0.7546771E-02  0.1319780E+00
          2   -1    0    0  502    0 -0.00000000000E+00  0.00000000000E+00  0.19789986864E+04  0.19789986864E+04  0.00000000000E+00 0. -1.
         21   -1    0    0  501  502  0.00000000000E+00 -0.00000000000E+00 -0.14858015501E+01  0.14858015501E+01  0.00000000000E+00 0. -1.
         24    2    1    2    0    0  0.20928649202E+02  0.88877781014E+01  0.13592981566E+04  0.13618517608E+04  0.80198121692E+02 0.  0.
        -11    1    3    3    0    0 -0.29887979927E+02  0.10645659817E+02  0.43449820891E+03  0.43565504125E+03  0.00000000000E+00 0.  1.
         12    1    3    3    0    0  0.50816629129E+02 -0.17578817157E+01  0.92479994771E+03  0.92619671951E+03  0.00000000000E+00 0. -1.
          1    1    1    2  501    0 -0.20928649202E+02 -0.88877781014E+01  0.61821472820E+03  0.61863272717E+03  0.00000000000E+00 0. -1.
<mgrwt>
<rscale>  1 0.83359101E+02</rscale>
<asrwt>0</asrwt>
<pdfrwt beam="1">  1       21 0.22858644E-03 0.83359101E+02</pdfrwt>
<pdfrwt beam="2">  1        2 0.30445923E+00 0.83359101E+02</pdfrwt>
<totfact> 0.34960935E+06</totfact>
</mgrwt>
</event>
<event>
 6    2  0.7993170E+000  0.8995411E+02  0.7546771E-02  0.1302963E+00
         -1   -1    0    0    0  501 -0.00000000000E+00  0.00000000000E+00  0.10726745894E+03  0.10726745894E+03  0.00000000000E+00 0.  1.
         21   -1    0    0  501  502  0.00000000000E+00 -0.00000000000E+00 -0.18568889556E+03  0.18568889556E+03  0.00000000000E+00 0.  1.
         24    2    1    2    0    0 -0.37507804294E+02  0.17587083850E+02  0.85365225684E+02  0.12401195049E+03  0.79847361925E+02 0.  0.
        -13    1    3    3    0    0  0.35188168215E+01  0.17287484069E+02  0.80831685520E+02  0.82734518560E+02  0.00000000000E+00 0.  1.
         14    1    3    3    0    0 -0.41026621115E+02  0.29959978129E+00  0.45335401637E+01  0.41277431928E+02  0.00000000000E+00 0. -1.
         -2    1    1    2    0  502  0.37507804294E+02 -0.17587083850E+02 -0.16378666229E+03  0.16894440401E+03  0.00000000000E+00 0.  1.
<mgrwt>
<rscale>  1 0.89954111E+02</rscale>
<asrwt>0</asrwt>
<pdfrwt beam="1">  1       21 0.28567522E-01 0.89954111E+02</pdfrwt>
<pdfrwt beam="2">  1       -1 0.16502686E-01 0.89954111E+02</pdfrwt>
<totfact> 0.28784977E+04</totfact>
</mgrwt>
</event>
<event>
 6    2  0.7993170E+000  0.1493533E+03  0.7546771E-02  0.1201270E+00
         21   -1    0    0  501  502  0.00000000000E+00  0.00000000000E+00  0.87923770157E+02  0.87923770157E+02  0.00000000000E+00 0. -1.
          2   -1    0    0  502    0 -0.00000000000E+00 -0.00000000000E+00 -0.22025265664E+03  0.22025265664E+03  0.00000000000E+00 0. -1.
         24    2    1    2    0    0  0.12540905670E+03 -0.25634200123E+02 -0.58445869594E+02  0.16038182641E+03  0.76953666907E+02 0.  0.
        -11    1    3    3    0    0  0.73840397892E+02 -0.47522716587E+02 -0.56318674134E+02  0.10431972972E+03  0.00000000000E+00 0.  1.
         12    1    3    3    0    0  0.51568658811E+02  0.21888516465E+02 -0.21271954602E+01  0.56062096688E+02  0.00000000000E+00 0. -1.
          1    1    1    2  501    0 -0.12540905670E+03  0.25634200123E+02 -0.73883016888E+02  0.14779460039E+03  0.00000000000E+00 0. -1.
<mgrwt>
<rscale>  1 0.14935331E+03</rscale>
<asrwt>0</asrwt>
<pdfrwt beam="1">  1       21 0.13526734E-01 0.14935331E+03</pdfrwt>
<pdfrwt beam="2">  1        2 0.33885024E-01 0.14935331E+03</pdfrwt>
<totfact> 0.89028589E+04</totfact>
</mgrwt>
</event>
<event>
 6    2  0.7993170E+000  0.9638803E+02  0.7546771E-02  0.1288080E+00
         21   -1    0    0  501  502  0.00000000000E+00  0.00000000000E+00  0.30629911392E+03  0.30629911392E+03  0.00000000000E+00 0. -1.
          2   -1    0    0  502    0 -0.00000000000E+00 -0.00000000000E+00 -0.41283025330E+02  0.41283025330E+02  0.00000000000E+00 0. -1.
         24    2    1    2    0    0 -0.41522538394E+02  0.93446910592E+01  0.19419278808E+02  0.98324767401E+02  0.86482408901E+02 0.  0.
        -11    1    3    3    0    0  0.23655281471E+02  0.34490127974E+01 -0.10810697945E+02  0.26236219636E+02  0.00000000000E+00 0.  1.
         12    1    3    3    0    0 -0.65177819864E+02  0.58956782618E+01  0.30229976753E+02  0.72088547765E+02  0.00000000000E+00 0. -1.
          1    1    1    2  501    0  0.41522538394E+02 -0.93446910592E+01  0.24559680978E+03  0.24925737184E+03  0.00000000000E+00 0. -1.
<mgrwt>
<rscale>  1 0.96388026E+02</rscale>
<asrwt>0</asrwt>
<pdfrwt beam="1">  1       21 0.47122939E-01 0.96388026E+02</pdfrwt>
<pdfrwt beam="2">  1        2 0.63512348E-02 0.96388026E+02</pdfrwt>
<totfact> 0.58458852E+04</totfact>
</mgrwt>
</event>
<event>
 6    2  0.7993170E+000  0.9020885E+02  0.7546771E-02  0.1302347E+00
         21   -1    0    0  501  502  0.00000000000E+00  0.00000000000E+00  0.71576682741E+01  0.71576682741E+01  0.00000000000E+00 0.  1.
          2   -1    0    0  502    0 -0.00000000000E+00 -0.00000000000E+00 -0.64011193417E+03  0.64011193417E+03  0.00000000000E+00 0. -1.
         24    2    1    2    0    0  0.18171452343E+02 -0.35589582566E+02 -0.51197581975E+03  0.51986236364E+03  0.80875317955E+02 0.  0.
        -11    1    3    3    0    0 -0.12082161048E+02 -0.15113423113E+02 -0.25466361291E+02  0.31983272678E+02  0.00000000000E+00 0.  1.
         12    1    3    3    0    0  0.30253613391E+02 -0.20476159453E+02 -0.48650945846E+03  0.48787909096E+03  0.00000000000E+00 0. -1.
          1    1    1    2  501    0 -0.18171452343E+02  0.35589582566E+02 -0.12097844614E+03  0.12740723880E+03  0.00000000000E+00 0. -1.
<mgrwt>
<rscale>  1 0.90208853E+02</rscale>
<asrwt>0</asrwt>
<pdfrwt beam="1">  1       21 0.11011797E-02 0.90208853E+02</pdfrwt>
<pdfrwt beam="2">  1        2 0.98478766E-01 0.90208853E+02</pdfrwt>
<totfact> 0.17709142E+06</totfact>
</mgrwt>
</event>
<event>
 6    2  0.7993170E+000  0.9008954E+02  0.7546771E-02  0.1302635E+00
         21   -1    0    0  501  502  0.00000000000E+00  0.00000000000E+00  0.39745457245E+02  0.39745457245E+02  0.00000000000E+00 0.  1.
          2   -1    0    0  502    0 -0.00000000000E+00 -0.00000000000E+00 -0.96089948613E+02  0.96089948613E+02  0.00000000000E+00 0. -1.
         24    2    1    2    0    0 -0.15525595995E+02  0.28346883096E+02 -0.49520493467E+02  0.10280274233E+03  0.84092417289E+02 0.  0.
        -13    1    3    3    0    0 -0.50990153725E+01  0.49224401469E+02 -0.16133249835E+01  0.49514083605E+02  0.00000000000E+00 0.  1.
         14    1    3    3    0    0 -0.10426580622E+02 -0.20877518372E+02 -0.47907168483E+02  0.53288658727E+02  0.00000000000E+00 0. -1.
          1    1    1    2  501    0  0.15525595995E+02 -0.28346883096E+02 -0.68239979005E+01  0.33032663526E+02  0.00000000000E+00 0. -1.
<mgrwt>
<rscale>  1 0.90089536E+02</rscale>
<asrwt>0</asrwt>
<pdfrwt beam="1">  1       21 0.61146857E-02 0.90089536E+02</pdfrwt>
<pdfrwt beam="2">  1        2 0.14783069E-01 0.90089536E+02</pdfrwt>
<totfact> 0.85957095E+05</totfact>
</mgrwt>
</event>
<event>
 6    2  0.7993170E+000  0.8369075E+02  0.7546771E-02  0.1318892E+00
          2   -1    0    0  502    0 -0.00000000000E+00  0.00000000000E+00  0.14043233620E+02  0.14043233620E+02  0.00000000000E+00 0. -1.
         21   -1    0    0  501  502  0.00000000000E+00 -0.00000000000E+00 -0.21287542216E+03  0.21287542216E+03  0.00000000000E+00 0. -1.
         24    2    1    2    0    0  0.23232210583E+02  0.35682401036E+01 -0.17177451474E+03  0.19107753892E+03  0.80322313345E+02 0.  0.
        -13    1    3    3    0    0 -0.13482488869E+02 -0.11167175117E+02 -0.13786559335E+03  0.13897267766E+03  0.00000000000E+00 0.  1.
         14    1    3    3    0    0  0.36714699452E+02  0.14735415221E+02 -0.33908921391E+02  0.52104861265E+02  0.00000000000E+00 0. -1.
          1    1    1    2  501    0 -0.23232210583E+02 -0.35682401036E+01 -0.27057673804E+02  0.35841116859E+02  0.00000000000E+00 0. -1.
<mgrwt>
<rscale>  1 0.83690752E+02</rscale>
<asrwt>0</asrwt>
<pdfrwt beam="1">  1       21 0.32750062E-01 0.83690752E+02</pdfrwt>
<pdfrwt beam="2">  1        2 0.21604977E-02 0.83690752E+02</pdfrwt>
<totfact> 0.48807779E+05</totfact>
</mgrwt>
</event>
<event>
 6    2  0.7993170E+000  0.8637611E+02  0.7546771E-02  0.1311873E+00
         21   -1    0    0  501  502  0.00000000000E+00  0.00000000000E+00  0.53161633270E+03  0.53161633270E+03  0.00000000000E+00 0.  1.
          2   -1    0    0  502    0 -0.00000000000E+00 -0.00000000000E+00 -0.72296586796E+01  0.72296586796E+01  0.00000000000E+00 0. -1.
         24    2    1    2    0    0 -0.15028160320E+02  0.26017565711E+02  0.45661049995E+03  0.46470849007E+03  0.80981928568E+02 0.  0.
        -11    1    3    3    0    0 -0.12053745270E+02  0.34196258541E+02  0.45424522330E+03  0.45569002596E+03  0.00000000000E+00 0.  1.
         12    1    3    3    0    0 -0.29744150496E+01 -0.81786928308E+01  0.23652766536E+01  0.90184641129E+01  0.00000000000E+00 0. -1.
          1    1    1    2  501    0  0.15028160320E+02 -0.26017565711E+02  0.67776174067E+02  0.74137501302E+02  0.00000000000E+00 0. -1.
<mgrwt>
<rscale>  1 0.86376108E+02</rscale>
<asrwt>0</asrwt>
<pdfrwt beam="1">  1       21 0.81787098E-01 0.86376108E+02</pdfrwt>
<pdfrwt beam="2">  1        2 0.11122556E-02 0.86376108E+02</pdfrwt>
<totfact> 0.18323974E+05</totfact>
</mgrwt>
</event>
<event>
 6    2  0.7993170E+000  0.8533553E+02  0.7546771E-02  0.1314557E+00
         21   -1    0    0  501  502  0.00000000000E+00  0.00000000000E+00  0.18788873141E+03  0.18788873141E+03  0.00000000000E+00 0. -1.
         -1   -1    0    0    0  501 -0.00000000000E+00 -0.00000000000E+00 -0.17437079976E+02  0.17437079976E+02  0.00000000000E+00 0.  1.
         24    2    1    2    0    0  0.27062513372E+02 -0.10312273540E+02  0.13214524243E+03  0.15730390403E+03  0.80270981745E+02 0.  0.
        -13    1    3    3    0    0 -0.93153634661E+01  0.26197667595E+02  0.21176958067E+02  0.34950784496E+02  0.00000000000E+00 0.  1.
         14    1    3    3    0    0  0.36377876838E+02 -0.36509941135E+02  0.11096828436E+03  0.12235311953E+03  0.00000000000E+00 0. -1.
         -2    1    1    2    0  502 -0.27062513372E+02  0.10312273540E+02  0.38306409007E+02  0.48021907361E+02  0.00000000000E+00 0.  1.
<mgrwt>
<rscale>  1 0.85335533E+02</rscale>
<asrwt>0</asrwt>
<pdfrwt beam="1">  1       21 0.28905957E-01 0.85335533E+02</pdfrwt>
<pdfrwt beam="2">  1       -1 0.26826278E-02 0.85335533E+02</pdfrwt>
<totfact> 0.41607113E+05</totfact>
</mgrwt>
</event>
<event>
 6    2  0.7993170E+000  0.9046838E+02  0.7546771E-02  0.1301721E+00
         21   -1    0    0  501  502  0.00000000000E+00  0.00000000000E+00  0.42053555941E+03  0.42053555941E+03  0.00000000000E+00 0. -1.
         -3   -1    0    0    0  501 -0.00000000000E+00 -0.00000000000E+00 -0.88730693775E+01  0.88730693775E+01  0.00000000000E+00 0.  1.
         24    2    1    2    0    0  0.23369476925E+02  0.82919357505E+01  0.37022607813E+03  0.38111924195E+03  0.87003672354E+02 0.  0.
        -11    1    3    3    0    0 -0.22977144976E+02 -0.26687780134E+01  0.31605936034E+02  0.39166398353E+02  0.00000000000E+00 0.  1.
         12    1    3    3    0    0  0.46346621901E+02  0.10960713764E+02  0.33862014210E+03  0.34195284359E+03  0.00000000000E+00 0. -1.
         -4    1    1    2    0  502 -0.23369476925E+02 -0.82919357505E+01  0.41436411902E+02  0.48289386842E+02  0.00000000000E+00 0.  1.
<mgrwt>
<rscale>  1 0.90468379E+02</rscale>
<asrwt>0</asrwt>
<pdfrwt beam="1">  1       21 0.64697763E-01 0.90468379E+02</pdfrwt>
<pdfrwt beam="2">  1       -3 0.13650879E-02 0.90468379E+02</pdfrwt>
<totfact> 0.17040951E+05</totfact>
</mgrwt>
</event>
<event>
 6    2  0.7993170E+000  0.9272810E+02  0.7546771E-02  0.1296377E+00
         21   -1    0    0  501  502  0.00000000000E+00  0.00000000000E+00  0.10137840743E+03  0.10137840743E+03  0.00000000000E+00 0. -1.
          4   -1    0    0  502    0 -0.00000000000E+00 -0.00000000000E+00 -0.56336963190E+02  0.56336963190E+02  0.00000000000E+00 0. -1.
         24    2    1    2    0    0 -0.50376094105E+02  0.20697102206E+02  0.10731649164E+02  0.93347032634E+02  0.75049179282E+02 0.  0.
        -13    1    3    3    0    0 -0.10943346424E+02  0.43162300823E+02 -0.60986204876E+01  0.44943678255E+02  0.00000000000E+00 0.  1.
         14    1    3    3    0    0 -0.39432747681E+02 -0.22465198617E+02  0.16830269652E+02  0.48403354379E+02  0.00000000000E+00 0. -1.
          3    1    1    2  501    0  0.50376094105E+02 -0.20697102206E+02  0.34309795077E+02  0.64368337987E+02  0.00000000000E+00 0. -1.
<mgrwt>
<rscale>  1 0.92728098E+02</rscale>
<asrwt>0</asrwt>
<pdfrwt beam="1">  1       21 0.15596678E-01 0.92728098E+02</pdfrwt>
<pdfrwt beam="2">  1        4 0.86672251E-02 0.92728098E+02</pdfrwt>
<totfact> 0.13395444E+05</totfact>
</mgrwt>
</event>
<event>
 6    2  0.7993170E+000  0.8709598E+02  0.7546771E-02  0.1310041E+00
         21   -1    0    0  501  502  0.00000000000E+00  0.00000000000E+00  0.10062432607E+02  0.10062432607E+02  0.00000000000E+00 0. -1.
          2   -1    0    0  502    0 -0.00000000000E+00 -0.00000000000E+00 -0.65812241926E+03  0.65812241926E+03  0.00000000000E+00 0. -1.
         24    2    1    2    0    0 -0.16165190438E+02  0.28571810633E+02 -0.61658458455E+03  0.62270559635E+03  0.80672474113E+02 0.  0.
        -13    1    3    3    0    0 -0.16566086296E+02 -0.22388466257E+01 -0.23598558362E+02  0.28919536755E+02  0.00000000000E+00 0.  1.
         14    1    3    3    0    0  0.40089585805E+00  0.30810657259E+02 -0.59298602618E+03  0.59378605959E+03  0.00000000000E+00 0. -1.
          1    1    1    2  501    0  0.16165190438E+02 -0.28571810633E+02 -0.31475402106E+02  0.45479255518E+02  0.00000000000E+00 0. -1.
<mgrwt>
<rscale>  1 0.87095981E+02</rscale>
<asrwt>0</asrwt>
<pdfrwt beam="1">  1       21 0.15480663E-02 0.87095981E+02</pdfrwt>
<pdfrwt beam="2">  1        2 0.10124962E+00 0.87095981E+02</pdfrwt>
<totfact> 0.99970201E+05</totfact>
</mgrwt>
</event>
<event>
 6    2  0.7993170E+000  0.8414923E+02  0.7546771E-02  0.1317673E+00
          2   -1    0    0  502    0 -0.00000000000E+00  0.00000000000E+00  0.25577528838E+02  0.25577528838E+02  0.00000000000E+00 0. -1.
         21   -1    0    0  501  502  0.00000000000E+00 -0.00000000000E+00 -0.11177318951E+03  0.11177318951E+03  0.00000000000E+00 0.  1.
         24    2    1    2    0    0 -0.19396616474E+02 -0.11562883600E+02 -0.64377722442E+02  0.10595085471E+03  0.81062713126E+02 0.  0.
        -11    1    3    3    0    0 -0.23629138309E+02 -0.31262317306E+02 -0.73913527080E+02  0.83659298024E+02  0.00000000000E+00 0.  1.
         12    1    3    3    0    0  0.42325218355E+01  0.19699433706E+02  0.95358046376E+01  0.22291556687E+02  0.00000000000E+00 0. -1.
          1    1    1    2  501    0  0.19396616474E+02  0.11562883600E+02 -0.21817938225E+02  0.31399863633E+02  0.00000000000E+00 0. -1.
<mgrwt>
<rscale>  1 0.84149227E+02</rscale>
<asrwt>0</asrwt>
<pdfrwt beam="1">  1       21 0.17195875E-01 0.84149227E+02</pdfrwt>
<pdfrwt beam="2">  1        2 0.39350044E-02 0.84149227E+02</pdfrwt>
<totfact> 0.73090532E+05</totfact>
</mgrwt>
</event>
<event>
 6    2  0.7993170E+000  0.9489094E+02  0.7546771E-02  0.1291422E+00
          2   -1    0    0  502    0 -0.00000000000E+00  0.00000000000E+00  0.88876119769E+03  0.88876119769E+03  0.00000000000E+00 0. -1.
         21   -1    0    0  501  502  0.00000000000E+00 -0.00000000000E+00 -0.12711065189E+02  0.12711065189E+02  0.00000000000E+00 0. -1.
         24    2    1    2    0    0  0.28294459202E+02 -0.41014173483E+02  0.82389386441E+03  0.82934033410E+03  0.80756121171E+02 0.  0.
        -13    1    3    3    0    0 -0.12260078337E+02 -0.34262754419E+01  0.21087278246E+02  0.24631731324E+02  0.00000000000E+00 0.  1.
         14    1    3    3    0    0  0.40554537539E+02 -0.37587898041E+02  0.80280658617E+03  0.80470860278E+03  0.00000000000E+00 0. -1.
          1    1    1    2  501    0 -0.28294459202E+02  0.41014173483E+02  0.52156268089E+02  0.72131928777E+02  0.00000000000E+00 0. -1.
<mgrwt>
<rscale>  1 0.94890937E+02</rscale>
<asrwt>0</asrwt>
<pdfrwt beam="1">  1       21 0.19555492E-02 0.94890937E+02</pdfrwt>
<pdfrwt beam="2">  1        2 0.13673244E+00 0.94890937E+02</pdfrwt>
<totfact> 0.48307178E+05</totfact>
</mgrwt>
</event>
<event>
 6    2  0.7993170E+000  0.8126569E+02  0.7546771E-02  0.1325497E+00
          2   -1    0    0  502    0 -0.00000000000E+00  0.00000000000E+00  0.40553819986E+02  0.40553819986E+02  0.00000000000E+00 0. -1.
         21   -1    0    0  501  502  0.00000000000E+00 -0.00000000000E+00 -0.73342330502E+02  0.73342330502E+02  0.00000000000E+00 0.  1.
         24    2    1    2    0    0  0.79480521879E+01  0.26360965317E+02 -0.27971433521E+02  0.85944831078E+02  0.76459406680E+02 0.  0.
        -13    1    3    3    0    0 -0.29297007955E+01  0.41013550415E+02 -0.45020024556E+02  0.60971280743E+02  0.00000000000E+00 0.  1.
         14    1    3    3    0    0  0.10877752983E+02 -0.14652585098E+02  0.17048591036E+02  0.24973550335E+02  0.00000000000E+00 0. -1.
          1    1    1    2  501    0 -0.79480521879E+01 -0.26360965317E+02 -0.48170769949E+01  0.27951319410E+02  0.00000000000E+00 0. -1.
<mgrwt>
<rscale>  1 0.81265693E+02</rscale>
<asrwt>0</asrwt>
<pdfrwt beam="1">  1       21 0.11283435E-01 0.81265693E+02</pdfrwt>
<pdfrwt beam="2">  1        2 0.62390493E-02 0.81265693E+02</pdfrwt>
<totfact> 0.84869463E+05</totfact>
</mgrwt>
</event>
<event>
 6    2  0.7993170E+000  0.8675148E+02  0.7546771E-02  0.1310915E+00
          2   -1    0    0  502    0 -0.00000000000E+00  0.00000000000E+00  0.12030845083E+04  0.12030845083E+04  0.00000000000E+00 0. -1.
         21   -1    0    0  501  502  0.00000000000E+00 -0.00000000000E+00 -0.41557000202E+01  0.41557000202E+01  0.00000000000E+00 0.  1.
         24    2    1    2    0    0 -0.28313443992E+02 -0.11856805613E+02  0.48812923684E+03  0.49577814629E+03  0.81139284754E+02 0.  0.
        -11    1    3    3    0    0  0.29813440120E+01 -0.40552921495E+02  0.16828371097E+03  0.17312664506E+03  0.00000000000E+00 0.  1.
         12    1    3    3    0    0 -0.31294788004E+02  0.28696115882E+02  0.31984552588E+03  0.32265150123E+03  0.00000000000E+00 0. -1.
          1    1    1    2  501    0  0.28313443992E+02  0.11856805613E+02  0.71079957142E+03  0.71146206201E+03  0.00000000000E+00 0. -1.
<mgrwt>
<rscale>  1 0.86751475E+02</rscale>
<asrwt>0</asrwt>
<pdfrwt beam="1">  1       21 0.63933942E-03 0.86751475E+02</pdfrwt>
<pdfrwt beam="2">  1        2 0.18508965E+00 0.86751475E+02</pdfrwt>
<totfact> 0.18266616E+06</totfact>
</mgrwt>
</event>
<event>
 6    2  0.7993170E+000  0.8566019E+02  0.7546771E-02  0.1313715E+00
         21   -1    0    0  501  502  0.00000000000E+00  0.00000000000E+00  0.11266084062E+03  0.11266084062E+03  0.00000000000E+00 0. -1.
          2   -1    0    0  502    0 -0.00000000000E+00 -0.00000000000E+00 -0.12999029099E+03  0.12999029099E+03  0.00000000000E+00 0. -1.
         24    2    1    2    0    0 -0.18845761132E+02  0.19711406014E+02 -0.11377942981E+03  0.14241989509E+03  0.81203236583E+02 0.  0.
        -13    1    3    3    0    0 -0.25501737599E+02 -0.13961439369E+02 -0.65108612273E+01  0.29793484585E+02  0.00000000000E+00 0.  1.
         14    1    3    3    0    0  0.66559764669E+01  0.33672845382E+02 -0.10726856858E+03  0.11262641051E+03  0.00000000000E+00 0. -1.
          1    1    1    2  501    0  0.18845761132E+02 -0.19711406014E+02  0.96449979441E+02  0.10023123652E+03  0.00000000000E+00 0. -1.
<mgrwt>
<rscale>  1 0.85660188E+02</rscale>
<asrwt>0</asrwt>
<pdfrwt beam="1">  1       21 0.17332437E-01 0.85660188E+02</pdfrwt>
<pdfrwt beam="2">  1        2 0.19998506E-01 0.85660188E+02</pdfrwt>
<totfact> 0.99363055E+04</totfact>
</mgrwt>
</event>
<event>
 6    2  0.7993170E+000  0.7085061E+02  0.7546771E-02  0.1357224E+00
         21   -1    0    0  501  502  0.00000000000E+00  0.00000000000E+00  0.16049331467E+01  0.16049331467E+01  0.00000000000E+00 0.  1.
          2   -1    0    0  502    0 -0.00000000000E+00 -0.00000000000E+00 -0.15988386560E+04  0.15988386560E+04  0.00000000000E+00 0. -1.
         24    2    1    2    0    0  0.24671453605E+02  0.16821725577E+02 -0.10402333934E+04  0.10426434295E+04  0.64250737670E+02 0.  0.
        -11    1    3    3    0    0 -0.67391340925E+01  0.34282535478E+01 -0.14599290351E+02  0.16441050132E+02  0.00000000000E+00 0.  1.
         12    1    3    3    0    0  0.31410587697E+02  0.13393472030E+02 -0.10256341031E+04  0.10262023794E+04  0.00000000000E+00 0. -1.
          1    1    1    2  501    0 -0.24671453605E+02 -0.16821725577E+02 -0.55700032943E+03  0.55780015961E+03  0.00000000000E+00 0. -1.
<mgrwt>
<rscale>  1 0.70850606E+02</rscale>
<asrwt>0</asrwt>
<pdfrwt beam="1">  1       21 0.24691446E-03 0.70850606E+02</pdfrwt>
<pdfrwt beam="2">  1        2 0.24597352E+00 0.70850606E+02</pdfrwt>
<totfact> 0.47437820E+06</totfact>
</mgrwt>
</event>
<event>
 6    2  0.7993170E+000  0.8510360E+02  0.7546771E-02  0.1315162E+00
          2   -1    0    0  502    0 -0.00000000000E+00  0.00000000000E+00  0.60993470087E+03  0.60993470087E+03  0.00000000000E+00 0. -1.
         21   -1    0    0  501  502  0.00000000000E+00 -0.00000000000E+00 -0.60135492172E+01  0.60135492172E+01  0.00000000000E+00 0.  1.
         24    2    1    2    0    0 -0.19405399634E+02  0.20384084694E+02  0.33829907929E+03  0.34883934764E+03  0.80315272303E+02 0.  0.
        -13    1    3    3    0    0 -0.30940216073E+02  0.15019749473E+02  0.52532465408E+02  0.62789726601E+02  0.00000000000E+00 0.  1.
         14    1    3    3    0    0  0.11534816439E+02  0.53643352216E+01  0.28576661389E+03  0.28604962104E+03  0.00000000000E+00 0. -1.
          1    1    1    2  501    0  0.19405399634E+02 -0.20384084694E+02  0.26562207236E+03  0.26710890245E+03  0.00000000000E+00 0. -1.
<mgrwt>
<rscale>  1 0.85103604E+02</rscale>
<asrwt>0</asrwt>
<pdfrwt beam="1">  1       21 0.92516190E-03 0.85103604E+02</pdfrwt>
<pdfrwt beam="2">  1        2 0.93836059E-01 0.85103604E+02</pdfrwt>
<totfact> 0.24389558E+06</totfact>
</mgrwt>
</event>
<event>
 6    2  0.7993170E+000  0.1249815E+03  0.7546771E-02  0.1235098E+00
         21   -1    0    0  501  502  0.00000000000E+00  0.00000000000E+00  0.80717224497E+01  0.80717224497E+01  0.00000000000E+00 0. -1.
          2   -1    0    0  502    0 -0.00000000000E+00 -0.00000000000E+00 -0.23467155215E+04  0.23467155215E+04  0.00000000000E+00 0. -1.
         24    2    1    2    0    0  0.23271815045E+02  0.90436411393E+02 -0.56371634975E+03  0.57740496313E+03  0.83066519093E+02 0.  0.
        -11    1    3    3    0    0  0.35244023122E+01  0.66448275232E+01 -0.38259136944E+00  0.75313691071E+01  0.00000000000E+00 0.  1.
         12    1    3    3    0    0  0.19747412733E+02  0.83791583870E+02 -0.56333375838E+03  0.56987359403E+03  0.00000000000E+00 0. -1.
          1    1    1    2  501    0 -0.23271815045E+02 -0.90436411393E+02 -0.17749274493E+04  0.17773822808E+04  0.00000000000E+00 0. -1.
<mgrwt>
<rscale>  1 0.12498147E+03</rscale>
<asrwt>0</asrwt>
<pdfrwt beam="1">  1       21 0.12418035E-02 0.12498147E+03</pdfrwt>
<pdfrwt beam="2">  1        2 0.36103315E+00 0.12498147E+03</pdfrwt>
<totfact> 0.16966716E+05</totfact>
</mgrwt>
</event>
<event>
 6    2  0.7993170E+000  0.8603739E+02  0.7546771E-02  0.1312742E+00
          2   -1    0    0  502    0 -0.00000000000E+00  0.00000000000E+00  0.14447838610E+03  0.14447838610E+03  0.00000000000E+00 0. -1.
         21   -1    0    0  501  502  0.00000000000E+00 -0.00000000000E+00 -0.35702733868E+02  0.35702733868E+02  0.00000000000E+00 0. -1.
         24    2    1    2    0    0  0.21938470016E+02  0.18829675865E+02  0.12126608730E+03  0.14868724552E+03  0.81034436446E+02 0.  0.
        -13    1    3    3    0    0 -0.22069296430E+02  0.13201131223E+02  0.92027140363E+02  0.95552698935E+02  0.00000000000E+00 0.  1.
         14    1    3    3    0    0  0.44007766446E+02  0.56285446419E+01  0.29238946939E+02  0.53134546582E+02  0.00000000000E+00 0. -1.
          1    1    1    2  501    0 -0.21938470016E+02 -0.18829675865E+02 -0.12490435069E+02  0.31493874453E+02  0.00000000000E+00 0. -1.
<mgrwt>
<rscale>  1 0.86037393E+02</rscale>
<asrwt>0</asrwt>
<pdfrwt beam="1">  1       21 0.54927284E-02 0.86037393E+02</pdfrwt>
<pdfrwt beam="2">  1        2 0.22227444E-01 0.86037393E+02</pdfrwt>
<totfact> 0.64598870E+05</totfact>
</mgrwt>
</event>
<event>
 6    2  0.7993170E+000  0.8528606E+02  0.7546771E-02  0.1314686E+00
         21   -1    0    0  501  502  0.00000000000E+00  0.00000000000E+00  0.61180228392E+01  0.61180228392E+01  0.00000000000E+00 0. -1.
          2   -1    0    0  502    0 -0.00000000000E+00 -0.00000000000E+00 -0.53535889499E+03  0.53535889499E+03  0.00000000000E+00 0. -1.
         24    2    1    2    0    0 -0.27001195428E+02  0.99899364983E+01 -0.41409150366E+03  0.42278302393E+03  0.80279813975E+02 0.  0.
        -13    1    3    3    0    0  0.12511062144E+02  0.17869972531E+02 -0.32942210749E+02  0.39510148611E+02  0.00000000000E+00 0.  1.
         14    1    3    3    0    0 -0.39512257572E+02 -0.78800360331E+01 -0.38114929291E+03  0.38327287532E+03  0.00000000000E+00 0. -1.
          1    1    1    2  501    0  0.27001195428E+02 -0.99899364983E+01 -0.11514936849E+03  0.11869389390E+03  0.00000000000E+00 0. -1.
<mgrwt>
<rscale>  1 0.85286059E+02</rscale>
<asrwt>0</asrwt>
<pdfrwt beam="1">  1       21 0.94123420E-03 0.85286059E+02</pdfrwt>
<pdfrwt beam="2">  1        2 0.82362914E-01 0.85286059E+02</pdfrwt>
<totfact> 0.27428105E+06</totfact>
</mgrwt>
</event>
<event>
 6    2  0.7993170E+000  0.1105999E+03  0.7546771E-02  0.1259463E+00
         21   -1    0    0  501  502  0.00000000000E+00  0.00000000000E+00  0.44704931443E+01  0.44704931443E+01  0.00000000000E+00 0. -1.
          2   -1    0    0  502    0 -0.00000000000E+00 -0.00000000000E+00 -0.20579428722E+04  0.20579428722E+04  0.00000000000E+00 0. -1.
         24    2    1    2    0    0  0.54466858102E+02  0.52440380995E+02 -0.14522573441E+04  0.14564627482E+04  0.80719955027E+02 0.  0.
        -11    1    3    3    0    0 -0.12352747707E+02  0.30674942898E+02 -0.25357475183E+03  0.25572191393E+03  0.00000000000E+00 0.  1.
         12    1    3    3    0    0  0.66819605809E+02  0.21765438097E+02 -0.11986825923E+04  0.12007408343E+04  0.00000000000E+00 0. -1.
          1    1    1    2  501    0 -0.54466858102E+02 -0.52440380995E+02 -0.60121503492E+03  0.60595061714E+03  0.00000000000E+00 0. -1.
<mgrwt>
<rscale>  1 0.11059992E+03</rscale>
<asrwt>0</asrwt>
<pdfrwt beam="1">  1       21 0.68776932E-03 0.11059992E+03</pdfrwt>
<pdfrwt beam="2">  1        2 0.31660607E+00 0.11059992E+03</pdfrwt>
<totfact> 0.60322055E+05</totfact>
</mgrwt>
</event>
<event>
 6    2  0.7993170E+000  0.9277786E+02  0.7546771E-02  0.1296261E+00
          2   -1    0    0  502    0 -0.00000000000E+00  0.00000000000E+00  0.14553713695E+03  0.14553713695E+03  0.00000000000E+00 0. -1.
         21   -1    0    0  501  502  0.00000000000E+00 -0.00000000000E+00 -0.37226491239E+02  0.37226491239E+02  0.00000000000E+00 0. -1.
         24    2    1    2    0    0  0.29397324267E+02  0.18400531351E+02  0.11467199786E+03  0.14750389153E+03  0.86052011570E+02 0.  0.
        -13    1    3    3    0    0  0.29016988251E+02 -0.31426053444E+02  0.48454604368E+02  0.64633049802E+02  0.00000000000E+00 0.  1.
         14    1    3    3    0    0  0.38033601603E+00  0.49826584795E+02  0.66217393490E+02  0.82870841726E+02  0.00000000000E+00 0. -1.
          1    1    1    2  501    0 -0.29397324267E+02 -0.18400531351E+02 -0.63613521499E+01  0.35259736659E+02  0.00000000000E+00 0. -1.
<mgrwt>
<rscale>  1 0.92777858E+02</rscale>
<asrwt>0</asrwt>
<pdfrwt beam="1">  1       21 0.57271526E-02 0.92777858E+02</pdfrwt>
<pdfrwt beam="2">  1        2 0.22390329E-01 0.92777858E+02</pdfrwt>
<totfact> 0.60194232E+05</totfact>
</mgrwt>
</event>
<event>
 6    2  0.7993170E+000  0.8813529E+02  0.7546771E-02  0.1307431E+00
         21   -1    0    0  501  502  0.00000000000E+00  0.00000000000E+00  0.97176898538E+01  0.97176898538E+01  0.00000000000E+00 0. -1.
          2   -1    0    0  502    0 -0.00000000000E+00 -0.00000000000E+00 -0.11805436472E+04  0.11805436472E+04  0.00000000000E+00 0. -1.
         24    2    1    2    0    0 -0.27067585420E+02 -0.24562994090E+02 -0.11371538245E+04  0.11405641803E+04  0.80198715275E+02 0.  0.
        -11    1    3    3    0    0 -0.91758101375E+00  0.32503101088E+01 -0.67474476214E+00  0.34440893157E+01  0.00000000000E+00 0.  1.
         12    1    3    3    0    0 -0.26150004407E+02 -0.27813304199E+02 -0.11364790797E+04  0.11371200910E+04  0.00000000000E+00 0. -1.
          1    1    1    2  501    0  0.27067585420E+02  0.24562994090E+02 -0.33672132828E+02  0.49697156743E+02  0.00000000000E+00 0. -1.
<mgrwt>
<rscale>  1 0.88135287E+02</rscale>
<asrwt>0</asrwt>
<pdfrwt beam="1">  1       21 0.14950288E-02 0.88135287E+02</pdfrwt>
<pdfrwt beam="2">  1        2 0.18162215E+00 0.88135287E+02</pdfrwt>
<totfact> 0.49949990E+05</totfact>
</mgrwt>
</event>
<event>
 6    2  0.7993170E+000  0.8443836E+02  0.7546771E-02  0.1316908E+00
         21   -1    0    0  501  502  0.00000000000E+00  0.00000000000E+00  0.25683020636E+01  0.25683020636E+01  0.00000000000E+00 0. -1.
          2   -1    0    0  502    0 -0.00000000000E+00 -0.00000000000E+00 -0.15511399650E+04  0.15511399650E+04  0.00000000000E+00 0. -1.
         24    2    1    2    0    0 -0.12990108214E+02  0.16533625063E+02 -0.14683828910E+04  0.14708086723E+04  0.81778556067E+02 0.  0.
        -13    1    3    3    0    0  0.16087206739E+02 -0.27221617940E+02 -0.49468306588E+03  0.49569259664E+03  0.00000000000E+00 0.  1.
         14    1    3    3    0    0 -0.29077314953E+02  0.43755243003E+02 -0.97369982512E+03  0.97511607564E+03  0.00000000000E+00 0. -1.
          1    1    1    2  501    0  0.12990108214E+02 -0.16533625063E+02 -0.80188771961E+02  0.82899594798E+02  0.00000000000E+00 0. -1.
<mgrwt>
<rscale>  1 0.84438356E+02</rscale>
<asrwt>0</asrwt>
<pdfrwt beam="1">  1       21 0.39512226E-03 0.84438356E+02</pdfrwt>
<pdfrwt beam="2">  1        2 0.23863760E+00 0.84438356E+02</pdfrwt>
<totfact> 0.25081992E+06</totfact>
</mgrwt>
</event>
<event>
 6    2  0.7993170E+000  0.8675107E+02  0.7546771E-02  0.1310916E+00
          2   -1    0    0  502    0 -0.00000000000E+00  0.00000000000E+00  0.84492708220E+03  0.84492708220E+03  0.00000000000E+00 0. -1.
         21   -1    0    0  501  502  0.00000000000E+00 -0.00000000000E+00 -0.99914343274E+01  0.99914343274E+01  0.00000000000E+00 0. -1.
         24    2    1    2    0    0  0.28707572145E+02 -0.12508096049E+02  0.81068153882E+03  0.81530994459E+03  0.80902232335E+02 0.  0.
        -11    1    3    3    0    0  0.27201508945E+02 -0.34728023015E+02  0.22945688839E+03  0.23365877108E+03  0.00000000000E+00 0.  1.
         12    1    3    3    0    0  0.15060632001E+01  0.22219926966E+02  0.58122465043E+03  0.58165117351E+03  0.00000000000E+00 0. -1.
          1    1    1    2  501    0 -0.28707572145E+02  0.12508096049E+02  0.24254109058E+02  0.39608571944E+02  0.00000000000E+00 0. -1.
<mgrwt>
<rscale>  1 0.86751071E+02</rscale>
<asrwt>0</asrwt>
<pdfrwt beam="1">  1       21 0.15371444E-02 0.86751071E+02</pdfrwt>
<pdfrwt beam="2">  1        2 0.12998873E+00 0.86751071E+02</pdfrwt>
<totfact> 0.75060287E+05</totfact>
</mgrwt>
</event>
<event>
 6    2  0.7993170E+000  0.9854826E+02  0.7546771E-02  0.1283379E+00
         21   -1    0    0  501  502  0.00000000000E+00  0.00000000000E+00  0.71186171269E+02  0.71186171269E+02  0.00000000000E+00 0.  1.
          2   -1    0    0  502    0 -0.00000000000E+00 -0.00000000000E+00 -0.10381875930E+03  0.10381875930E+03  0.00000000000E+00 0. -1.
         24    2    1    2    0    0  0.19454507554E+02  0.55135208540E+02 -0.54461779633E+02  0.11259593530E+03  0.79330890076E+02 0.  0.
        -13    1    3    3    0    0 -0.10964381099E+02  0.10835334098E+02  0.17152614841E+02  0.23061533205E+02  0.00000000000E+00 0.  1.
         14    1    3    3    0    0  0.30418888653E+02  0.44299874442E+02 -0.71614394474E+02  0.89534402094E+02  0.00000000000E+00 0. -1.
          1    1    1    2  501    0 -0.19454507554E+02 -0.55135208540E+02  0.21829191601E+02  0.62408995272E+02  0.00000000000E+00 0. -1.
<mgrwt>
<rscale>  1 0.98548258E+02</rscale>
<asrwt>0</asrwt>
<pdfrwt beam="1">  1       21 0.10951719E-01 0.98548258E+02</pdfrwt>
<pdfrwt beam="2">  1        2 0.15972117E-01 0.98548258E+02</pdfrwt>
<totfact> 0.29196775E+05</totfact>
</mgrwt>
</event>
<event>
 6    2  0.7993170E+000  0.1084875E+03  0.7546771E-02  0.1263397E+00
         -1   -1    0    0    0  501 -0.00000000000E+00  0.00000000000E+00  0.99236666496E+02  0.99236666496E+02  0.00000000000E+00 0.  1.
         21   -1    0    0  501  502  0.00000000000E+00 -0.00000000000E+00 -0.10446334242E+03  0.10446334242E+03  0.00000000000E+00 0.  1.
         24    2    1    2    0    0 -0.71582267984E+02  0.68590737552E+01  0.43448938372E+02  0.11686462782E+03  0.81230923966E+02 0.  0.
        -13    1    3    3    0    0 -0.48052847840E+02 -0.26752019479E+02  0.51164519270E+02  0.75116940592E+02  0.00000000000E+00 0.  1.
         14    1    3    3    0    0 -0.23529420144E+02  0.33611093234E+02 -0.77155808978E+01  0.41747687233E+02  0.00000000000E+00 0. -1.
         -2    1    1    2    0  502  0.71582267984E+02 -0.68590737552E+01 -0.48675614301E+02  0.86835381096E+02  0.00000000000E+00 0.  1.
<mgrwt>
<rscale>  1 0.10848747E+03</rscale>
<asrwt>0</asrwt>
<pdfrwt beam="1">  1       21 0.16071283E-01 0.10848747E+03</pdfrwt>
<pdfrwt beam="2">  1       -1 0.15267179E-01 0.10848747E+03</pdfrwt>
<totfact> 0.94871689E+04</totfact>
</mgrwt>
</event>
<event>
 6    2  0.7993170E+000  0.1079092E+03  0.7546771E-02  0.1264492E+00
         21   -1    0    0  501  502  0.00000000000E+00  0.00000000000E+00  0.30459954609E+02  0.30459954609E+02  0.00000000000E+00 0. -1.
          2   -1    0    0  502    0 -0.00000000000E+00 -0.00000000000E+00 -0.27869442224E+03  0.27869442224E+03  0.00000000000E+00 0. -1.
         24    2    1    2    0    0 -0.42211057555E+02 -0.47406666713E+02 -0.96837787955E+02  0.14498945963E+03  0.87265232475E+02 0.  0.
        -11    1    3    3    0    0 -0.15139323123E+01  0.24081967943E+02 -0.32912789865E+02  0.40810352948E+02  0.00000000000E+00 0.  1.
         12    1    3    3    0    0 -0.40697125243E+02 -0.71488634657E+02 -0.63924998091E+02  0.10417910668E+03  0.00000000000E+00 0. -1.
          1    1    1    2  501    0  0.42211057555E+02  0.47406666713E+02 -0.15139667968E+03  0.16416491722E+03  0.00000000000E+00 0. -1.
<mgrwt>
<rscale>  1 0.10790916E+03</rscale>
<asrwt>0</asrwt>
<pdfrwt beam="1">  1       21 0.46861470E-02 0.10790916E+03</pdfrwt>
<pdfrwt beam="2">  1        2 0.42876064E-01 0.10790916E+03</pdfrwt>
<totfact> 0.42469417E+05</totfact>
</mgrwt>
</event>
<event>
 6    2  0.7993170E+000  0.8315786E+02  0.7546771E-02  0.1320321E+00
         21   -1    0    0  501  502  0.00000000000E+00  0.00000000000E+00  0.92027347118E+01  0.92027347118E+01  0.00000000000E+00 0. -1.
          2   -1    0    0  502    0 -0.00000000000E+00 -0.00000000000E+00 -0.31808398018E+03  0.31808398018E+03  0.00000000000E+00 0. -1.
         24    2    1    2    0    0 -0.96631927078E+01 -0.21457741085E+02 -0.26113294990E+03  0.27405409636E+03  0.79758499637E+02 0.  0.
        -13    1    3    3    0    0  0.21080768350E+02  0.20753169981E+02 -0.11931244293E+03  0.12292498483E+03  0.00000000000E+00 0.  1.
         14    1    3    3    0    0 -0.30743961058E+02 -0.42210911066E+02 -0.14182050697E+03  0.15112911153E+03  0.00000000000E+00 0. -1.
          1    1    1    2  501    0  0.96631927078E+01  0.21457741085E+02 -0.47748295575E+02  0.53232618535E+02  0.00000000000E+00 0. -1.
<mgrwt>
<rscale>  1 0.83157863E+02</rscale>
<asrwt>0</asrwt>
<pdfrwt beam="1">  1       21 0.14158053E-02 0.83157863E+02</pdfrwt>
<pdfrwt beam="2">  1        2 0.48936000E-01 0.83157863E+02</pdfrwt>
<totfact> 0.25001562E+06</totfact>
</mgrwt>
</event>
<event>
 6    2  0.7993170E+000  0.1032966E+03  0.7546771E-02  0.1273512E+00
          2   -1    0    0  502    0 -0.00000000000E+00  0.00000000000E+00  0.10545651190E+04  0.10545651190E+04  0.00000000000E+00 0. -1.
         21   -1    0    0  501  502  0.00000000000E+00 -0.00000000000E+00 -0.69279364789E+01  0.69279364789E+01  0.00000000000E+00 0.  1.
         24    2    1    2    0    0 -0.56948731543E+02  0.30548288550E+02  0.73709760014E+03  0.74430038819E+03  0.80584364287E+02 0.  0.
        -11    1    3    3    0    0 -0.69223691726E+02  0.98548406483E+01  0.65580484787E+03  0.65952182365E+03  0.00000000000E+00 0.  1.
         12    1    3    3    0    0  0.12274960184E+02  0.20693447902E+02  0.81292752265E+02  0.84778564534E+02  0.00000000000E+00 0. -1.
          1    1    1    2  501    0  0.56948731543E+02 -0.30548288550E+02  0.31053958240E+03  0.31719266731E+03  0.00000000000E+00 0. -1.
<mgrwt>
<rscale>  1 0.10329664E+03</rscale>
<asrwt>0</asrwt>
<pdfrwt beam="1">  1       21 0.10658372E-02 0.10329664E+03</pdfrwt>
<pdfrwt beam="2">  1        2 0.16224066E+00 0.10329664E+03</pdfrwt>
<totfact> 0.10118782E+06</totfact>
</mgrwt>
</event>
<event>
 6    2  0.7993170E+000  0.8346135E+02  0.7546771E-02  0.1319506E+00
         -1   -1    0    0    0  501 -0.00000000000E+00  0.00000000000E+00  0.27766066569E+02  0.27766066569E+02  0.00000000000E+00 0.  1.
         21   -1    0    0  501  502  0.00000000000E+00 -0.00000000000E+00 -0.10362549824E+03  0.10362549824E+03  0.00000000000E+00 0. -1.
         24    2    1    2    0    0  0.19401103416E+02  0.13765732495E+02 -0.60322305871E+02  0.10297853113E+03  0.79999369264E+02 0.  0.
        -11    1    3    3    0    0 -0.13393987973E+02  0.84956134983E+01  0.14263289276E+02  0.21331098976E+02  0.00000000000E+00 0.  1.
         12    1    3    3    0    0  0.32795091389E+02  0.52701189971E+01 -0.74585595148E+02  0.81647432152E+02  0.00000000000E+00 0. -1.
         -2    1    1    2    0  502 -0.19401103416E+02 -0.13765732495E+02 -0.15537125799E+02  0.28413033681E+02  0.00000000000E+00 0.  1.
<mgrwt>
<rscale>  1 0.83461352E+02</rscale>
<asrwt>0</asrwt>
<pdfrwt beam="1">  1       21 0.15942384E-01 0.83461352E+02</pdfrwt>
<pdfrwt beam="2">  1       -1 0.42717026E-02 0.83461352E+02</pdfrwt>
<totfact> 0.63447484E+05</totfact>
</mgrwt>
</event>
<event>
 6    2  0.7993170E+000  0.1138450E+03  0.7546771E-02  0.1253611E+00
         21   -1    0    0  501  502  0.00000000000E+00  0.00000000000E+00  0.74607826001E+01  0.74607826001E+01  0.00000000000E+00 0.  1.
          2   -1    0    0  502    0 -0.00000000000E+00 -0.00000000000E+00 -0.11462641012E+04  0.11462641012E+04  0.00000000000E+00 0. -1.
         24    2    1    2    0    0 -0.59537798371E+01  0.70125651017E+02 -0.75250514287E+03  0.76106811893E+03  0.89485402073E+02 0.  0.
        -13    1    3    3    0    0 -0.68461056793E+01  0.26323671406E+02 -0.47756093361E+02  0.54958614360E+02  0.00000000000E+00 0.  1.
         14    1    3    3    0    0  0.89232584216E+00  0.43801979611E+02 -0.70474904950E+03  0.70610950457E+03  0.00000000000E+00 0. -1.
          1    1    1    2  501    0  0.59537798371E+01 -0.70125651017E+02 -0.38629817578E+03  0.39265676492E+03  0.00000000000E+00 0. -1.
<mgrwt>
<rscale>  1 0.11384503E+03</rscale>
<asrwt>0</asrwt>
<pdfrwt beam="1">  1       21 0.11478130E-02 0.11384503E+03</pdfrwt>
<pdfrwt beam="2">  1        2 0.17634827E+00 0.11384503E+03</pdfrwt>
<totfact> 0.80403384E+05</totfact>
</mgrwt>
</event>
<event>
 6    2  0.7993170E+000  0.8657264E+02  0.7546771E-02  0.1311370E+00
          2   -1    0    0  502    0 -0.00000000000E+00  0.00000000000E+00  0.16785179617E+02  0.16785179617E+02  0.00000000000E+00 0. -1.
         21   -1    0    0  501  502  0.00000000000E+00 -0.00000000000E+00 -0.32643813808E+03  0.32643813808E+03  0.00000000000E+00 0. -1.
         24    2    1    2    0    0 -0.28721578384E+02 -0.25951658580E+02 -0.11066216737E+03  0.14050244411E+03  0.77436450500E+02 0.  0.
        -13    1    3    3    0    0  0.98560017384E+01 -0.42381689132E+02 -0.67637656659E+02  0.80425126311E+02  0.00000000000E+00 0.  1.
         14    1    3    3    0    0 -0.38577580122E+02  0.16430030552E+02 -0.43024510714E+02  0.60077317801E+02  0.00000000000E+00 0. -1.
          1    1    1    2  501    0  0.28721578384E+02  0.25951658580E+02 -0.19899079109E+03  0.20272087359E+03  0.00000000000E+00 0. -1.
<mgrwt>
<rscale>  1 0.86572637E+02</rscale>
<asrwt>0</asrwt>
<pdfrwt beam="1">  1       21 0.50221255E-01 0.86572637E+02</pdfrwt>
<pdfrwt beam="2">  1        2 0.25823352E-02 0.86572637E+02</pdfrwt>
<totfact> 0.16536792E+05</totfact>
</mgrwt>
</event>
<event>
 6    2  0.7993170E+000  0.8696679E+02  0.7546771E-02  0.1310368E+00
         21   -1    0    0  501  502  0.00000000000E+00  0.00000000000E+00  0.47000177076E+02  0.47000177076E+02  0.00000000000E+00 0. -1.
         -1   -1    0    0    0  501 -0.00000000000E+00 -0.00000000000E+00 -0.71243829100E+02  0.71243829100E+02  0.00000000000E+00 0.  1.
         24    2    1    2    0    0 -0.18654186543E+02 -0.13968615455E+02 -0.33462374666E+02  0.93182367353E+02  0.83786169348E+02 0.  0.
        -11    1    3    3    0    0 -0.69888388456E+01 -0.28227446669E+02 -0.56583862711E+02  0.63618913328E+02  0.00000000000E+00 0.  1.
         12    1    3    3    0    0 -0.11665347697E+02  0.14258831214E+02  0.23121488045E+02  0.29563454025E+02  0.00000000000E+00 0. -1.
         -2    1    1    2    0  502  0.18654186543E+02  0.13968615455E+02  0.92187226420E+01  0.25061638822E+02  0.00000000000E+00 0.  1.
<mgrwt>
<rscale>  1 0.86966793E+02</rscale>
<asrwt>0</asrwt>
<pdfrwt beam="1">  1       21 0.72307965E-02 0.86966793E+02</pdfrwt>
<pdfrwt beam="2">  1       -1 0.10960589E-01 0.86966793E+02</pdfrwt>
<totfact> 0.62523213E+05</totfact>
</mgrwt>
</event>
<event>
 6    2  0.7993170E+000  0.9045334E+02  0.7546771E-02  0.1301758E+00
         21   -1    0    0  501  502  0.00000000000E+00  0.00000000000E+00  0.75273174116E+03  0.75273174116E+03  0.00000000000E+00 0. -1.
         -1   -1    0    0    0  501 -0.00000000000E+00 -0.00000000000E+00 -0.57155560543E+01  0.57155560543E+01  0.00000000000E+00 0.  1.
         24    2    1    2    0    0 -0.30797725061E+02  0.24519652236E+02  0.56768596835E+03  0.57484707974E+03  0.81437664568E+02 0.  0.
        -13    1    3    3    0    0  0.16447670083E+02 -0.16649524129E+02  0.24624000002E+03  0.24734969196E+03  0.00000000000E+00 0.  1.
         14    1    3    3    0    0 -0.47245395144E+02  0.41169176365E+02  0.32144596833E+03  0.32749738778E+03  0.00000000000E+00 0. -1.
         -2    1    1    2    0  502  0.30797725061E+02 -0.24519652236E+02  0.17933021675E+03  0.18360021747E+03  0.00000000000E+00 0.  1.
<mgrwt>
<rscale>  1 0.90453338E+02</rscale>
<asrwt>0</asrwt>
<pdfrwt beam="1">  1       21 0.11580480E+00 0.90453338E+02</pdfrwt>
<pdfrwt beam="2">  1       -1 0.87931691E-03 0.90453338E+02</pdfrwt>
<totfact> 0.10961602E+05</totfact>
</mgrwt>
</event>
<event>
 6    2  0.7993170E+000  0.8887295E+02  0.7546771E-02  0.1305604E+00
          2   -1    0    0  502    0 -0.00000000000E+00  0.00000000000E+00  0.53329451113E+03  0.53329451113E+03  0.00000000000E+00 0. -1.
         21   -1    0    0  501  502  0.00000000000E+00 -0.00000000000E+00 -0.17054901463E+02  0.17054901463E+02  0.00000000000E+00 0.  1.
         24    2    1    2    0    0  0.20044087661E+02  0.22310820932E+02  0.51247235037E+03  0.52012143841E+03  0.83659205180E+02 0.  0.
        -13    1    3    3    0    0  0.16516763220E+02  0.43715181105E+02  0.15258091491E+03  0.15957680320E+03  0.00000000000E+00 0.  1.
         14    1    3    3    0    0  0.35273244408E+01 -0.21404360174E+02  0.35989143547E+03  0.36054463521E+03  0.00000000000E+00 0. -1.
          1    1    1    2  501    0 -0.20044087661E+02 -0.22310820932E+02  0.37672592916E+01  0.30227974185E+02  0.00000000000E+00 0. -1.
<mgrwt>
<rscale>  1 0.88872947E+02</rscale>
<asrwt>0</asrwt>
<pdfrwt beam="1">  1       21 0.26238314E-02 0.88872947E+02</pdfrwt>
<pdfrwt beam="2">  1        2 0.82045297E-01 0.88872947E+02</pdfrwt>
<totfact> 0.54449910E+05</totfact>
</mgrwt>
</event>
<event>
 6    2  0.7993170E+000  0.9242197E+02  0.7546771E-02  0.1297090E+00
         21   -1    0    0  501  502  0.00000000000E+00  0.00000000000E+00  0.19581786594E+01  0.19581786594E+01  0.00000000000E+00 0. -1.
          2   -1    0    0  502    0 -0.00000000000E+00 -0.00000000000E+00 -0.24216227471E+04  0.24216227471E+04  0.00000000000E+00 0. -1.
         24    2    1    2    0    0  0.20882669891E+02  0.38620240003E+02 -0.17928550168E+04  0.17952356203E+04  0.81327808047E+02 0.  0.
        -11    1    3    3    0    0  0.13562441425E+02  0.39405066757E+01 -0.48348755136E+02  0.50369331279E+02  0.00000000000E+00 0.  1.
         12    1    3    3    0    0  0.73202284661E+01  0.34679733327E+02 -0.17445062617E+04  0.17448662891E+04  0.00000000000E+00 0. -1.
          1    1    1    2  501    0 -0.20882669891E+02 -0.38620240003E+02 -0.62680955162E+03  0.62834530542E+03  0.00000000000E+00 0. -1.
<mgrwt>
<rscale>  1 0.92421974E+02</rscale>
<asrwt>0</asrwt>
<pdfrwt beam="1">  1       21 0.30125648E-03 0.92421974E+02</pdfrwt>
<pdfrwt beam="2">  1        2 0.37255954E+00 0.92421974E+02</pdfrwt>
<totfact> 0.13820069E+06</totfact>
</mgrwt>
</event>
<event>
 6    2  0.7993170E+000  0.8805622E+02  0.7546771E-02  0.1307628E+00
         21   -1    0    0  501  502  0.00000000000E+00  0.00000000000E+00  0.23427662272E+02  0.23427662272E+02  0.00000000000E+00 0.  1.
         -1   -1    0    0    0  501 -0.00000000000E+00 -0.00000000000E+00 -0.39635204803E+03  0.39635204803E+03  0.00000000000E+00 0.  1.
         24    2    1    2    0    0 -0.24617930876E+02 -0.11351465182E+02 -0.38135563043E+03  0.39138984999E+03  0.83779469596E+02 0.  0.
        -13    1    3    3    0    0 -0.14025190483E+02 -0.46292490826E+02 -0.26702822921E+03  0.27137386733E+03  0.00000000000E+00 0.  1.
         14    1    3    3    0    0 -0.10592740393E+02  0.34941025643E+02 -0.11432740122E+03  0.12001598266E+03  0.00000000000E+00 0. -1.
         -2    1    1    2    0  502  0.24617930876E+02  0.11351465182E+02  0.84312446702E+01  0.28389860322E+02  0.00000000000E+00 0.  1.
<mgrwt>
<rscale>  1 0.88056220E+02</rscale>
<asrwt>0</asrwt>
<pdfrwt beam="1">  1       21 0.36042558E-02 0.88056220E+02</pdfrwt>
<pdfrwt beam="2">  1       -1 0.60977238E-01 0.88056220E+02</pdfrwt>
<totfact> 0.11703677E+05</totfact>
</mgrwt>
</event>
<event>
 6    2  0.7993170E+000  0.8174715E+02  0.7546771E-02  0.1324165E+00
         21   -1    0    0  501  502  0.00000000000E+00  0.00000000000E+00  0.25926594694E+02  0.25926594694E+02  0.00000000000E+00 0.  1.
         -3   -1    0    0    0  501 -0.00000000000E+00 -0.00000000000E+00 -0.31414696654E+03  0.31414696654E+03  0.00000000000E+00 0.  1.
         24    2    1    2    0    0 -0.21131073941E+02 -0.26735825075E+01 -0.30320465670E+03  0.31403130477E+03  0.78923546546E+02 0.  0.
        -13    1    3    3    0    0 -0.29220990683E+02 -0.35759654710E+02 -0.20333398133E+03  0.20851217510E+03  0.00000000000E+00 0.  1.
         14    1    3    3    0    0  0.80899167416E+01  0.33086072203E+02 -0.99870675371E+02  0.10551912967E+03  0.00000000000E+00 0. -1.
         -4    1    1    2    0  502  0.21131073941E+02  0.26735825075E+01  0.14984284854E+02  0.26042256467E+02  0.00000000000E+00 0.  1.
<mgrwt>
<rscale>  1 0.81747150E+02</rscale>
<asrwt>0</asrwt>
<pdfrwt beam="1">  1       21 0.39887070E-02 0.81747150E+02</pdfrwt>
<pdfrwt beam="2">  1       -3 0.48330301E-01 0.81747150E+02</pdfrwt>
<totfact> 0.75400937E+04</totfact>
</mgrwt>
</event>
<event>
 6    2  0.7993170E+000  0.8661026E+02  0.7546771E-02  0.1311274E+00
         21   -1    0    0  501  502  0.00000000000E+00  0.00000000000E+00  0.27005717496E+03  0.27005717496E+03  0.00000000000E+00 0.  1.
         -1   -1    0    0    0  501 -0.00000000000E+00 -0.00000000000E+00 -0.12565583077E+02  0.12565583077E+02  0.00000000000E+00 0.  1.
         24    2    1    2    0    0  0.58387349917E+01 -0.26151598875E+02  0.16529549462E+03  0.18661173107E+03  0.82361038597E+02 0.  0.
        -13    1    3    3    0    0  0.17007031143E+02 -0.53984132545E+02  0.10998420353E+03  0.12369337371E+03  0.00000000000E+00 0.  1.
         14    1    3    3    0    0 -0.11168296151E+02  0.27832533669E+02  0.55311291097E+02  0.62918357354E+02  0.00000000000E+00 0. -1.
         -2    1    1    2    0  502 -0.58387349917E+01  0.26151598875E+02  0.92196097256E+02  0.96011026967E+02  0.00000000000E+00 0.  1.
<mgrwt>
<rscale>  1 0.86610263E+02</rscale>
<asrwt>0</asrwt>
<pdfrwt beam="1">  1       21 0.41547254E-01 0.86610263E+02</pdfrwt>
<pdfrwt beam="2">  1       -1 0.19331668E-02 0.86610263E+02</pdfrwt>
<totfact> 0.32912515E+05</totfact>
</mgrwt>
</event>
<event>
 6    2  0.7993170E+000  0.9467770E+02  0.7546771E-02  0.1291904E+00
          2   -1    0    0  502    0 -0.00000000000E+00  0.00000000000E+00  0.22996652842E+03  0.22996652842E+03  0.00000000000E+00 0. -1.
         21   -1    0    0  501  502  0.00000000000E+00 -0.00000000000E+00 -0.24145901258E+02  0.24145901258E+02  0.00000000000E+00 0. -1.
         24    2    1    2    0    0 -0.25392739999E+02 -0.42149744614E+02  0.16475158624E+03  0.19001829315E+03  0.80885563265E+02 0.  0.
        -11    1    3    3    0    0  0.17121272079E+02  0.15423061445E+02  0.43217689371E+02  0.48977315734E+02  0.00000000000E+00 0.  1.
         12    1    3    3    0    0 -0.42514012078E+02 -0.57572806059E+02  0.12153389687E+03  0.14104097741E+03  0.00000000000E+00 0. -1.
          1    1    1    2  501    0  0.25392739999E+02  0.42149744614E+02  0.41069040917E+02  0.64094136530E+02  0.00000000000E+00 0. -1.
<mgrwt>
<rscale>  1 0.94677698E+02</rscale>
<asrwt>0</asrwt>
<pdfrwt beam="1">  1       21 0.37147542E-02 0.94677698E+02</pdfrwt>
<pdfrwt beam="2">  1        2 0.35379464E-01 0.94677698E+02</pdfrwt>
<totfact> 0.75536363E+05</totfact>
</mgrwt>
</event>
<event>
 6    2  0.7993170E+000  0.8795743E+02  0.7546771E-02  0.1307875E+00
         21   -1    0    0  501  502  0.00000000000E+00  0.00000000000E+00  0.14051322043E+02  0.14051322043E+02  0.00000000000E+00 0.  1.
          2   -1    0    0  502    0 -0.00000000000E+00 -0.00000000000E+00 -0.28083843674E+03  0.28083843674E+03  0.00000000000E+00 0. -1.
         24    2    1    2    0    0  0.24572949992E+01  0.37267831057E+02 -0.19676931865E+03  0.21553346544E+03  0.79634040651E+02 0.  0.
        -11    1    3    3    0    0 -0.32464340226E+02  0.38729013387E+02 -0.14028176385E+03  0.14910681786E+03  0.00000000000E+00 0.  1.
         12    1    3    3    0    0  0.34921635225E+02 -0.14611823301E+01 -0.56487554806E+02  0.66426647579E+02  0.00000000000E+00 0. -1.
          1    1    1    2  501    0 -0.24572949992E+01 -0.37267831057E+02 -0.70017796046E+02  0.79356293346E+02  0.00000000000E+00 0. -1.
<mgrwt>
<rscale>  1 0.87957433E+02</rscale>
<asrwt>0</asrwt>
<pdfrwt beam="1">  1       21 0.21617419E-02 0.87957433E+02</pdfrwt>
<pdfrwt beam="2">  1        2 0.43205913E-01 0.87957433E+02</pdfrwt>
<totfact> 0.14625330E+06</totfact>
</mgrwt>
</event>
<event>
 6    2  0.7993170E+000  0.1029151E+03  0.7546771E-02  0.1274283E+00
         21   -1    0    0  501  502  0.00000000000E+00  0.00000000000E+00  0.41788480244E+02  0.41788480244E+02  0.00000000000E+00 0. -1.
          2   -1    0    0  502    0 -0.00000000000E+00 -0.00000000000E+00 -0.70018485577E+03  0.70018485577E+03  0.00000000000E+00 0. -1.
         24    2    1    2    0    0  0.59459944528E+02 -0.24090034823E+02 -0.66906830906E+03  0.67693715419E+03  0.80471695326E+02 0.  0.
        -13    1    3    3    0    0  0.59633342806E+01 -0.23285690352E+02 -0.49135959152E+02  0.54700340151E+02  0.00000000000E+00 0.  1.
         14    1    3    3    0    0  0.53496610248E+02 -0.80434447112E+00 -0.61993234991E+03  0.62223681404E+03  0.00000000000E+00 0. -1.
          1    1    1    2  501    0 -0.59459944528E+02  0.24090034823E+02  0.10671933535E+02  0.65036181825E+02  0.00000000000E+00 0. -1.
<mgrwt>
<rscale>  1 0.10291505E+03</rscale>
<asrwt>0</asrwt>
<pdfrwt beam="1">  1       21 0.64289968E-02 0.10291505E+03</pdfrwt>
<pdfrwt beam="2">  1        2 0.10772075E+00 0.10291505E+03</pdfrwt>
<totfact> 0.91807819E+04</totfact>
</mgrwt>
</event>
<event>
 6    2  0.7993170E+000  0.8635515E+02  0.7546771E-02  0.1311926E+00
         -1   -1    0    0    0  501 -0.00000000000E+00  0.00000000000E+00  0.36721812451E+02  0.36721812451E+02  0.00000000000E+00 0.  1.
         21   -1    0    0  501  502  0.00000000000E+00 -0.00000000000E+00 -0.83704782732E+02  0.83704782732E+02  0.00000000000E+00 0. -1.
         24    2    1    2    0    0 -0.15397255191E+02 -0.12890074540E+02 -0.23433536497E+02  0.89478165164E+02  0.83987986755E+02 0.  0.
        -11    1    3    3    0    0  0.26360281951E+02 -0.15287127068E+02  0.13826639407E+02  0.33462466673E+02  0.00000000000E+00 0.  1.
         12    1    3    3    0    0 -0.41757537142E+02  0.23970525281E+01 -0.37260175904E+02  0.56015698491E+02  0.00000000000E+00 0. -1.
         -2    1    1    2    0  502  0.15397255191E+02  0.12890074540E+02 -0.23549433784E+02  0.30948430019E+02  0.00000000000E+00 0.  1.
<mgrwt>
<rscale>  1 0.86355147E+02</rscale>
<asrwt>0</asrwt>
<pdfrwt beam="1">  1       21 0.12877659E-01 0.86355147E+02</pdfrwt>
<pdfrwt beam="2">  1       -1 0.56495096E-02 0.86355147E+02</pdfrwt>
<totfact> 0.61887512E+05</totfact>
</mgrwt>
</event>
<event>
 6    2  0.7993170E+000  0.1029986E+03  0.7546771E-02  0.1274114E+00
          2   -1    0    0  502    0 -0.00000000000E+00  0.00000000000E+00  0.53626805810E+03  0.53626805810E+03  0.00000000000E+00 0. -1.
         21   -1    0    0  501  502  0.00000000000E+00 -0.00000000000E+00 -0.14056524070E+02  0.14056524070E+02  0.00000000000E+00 0.  1.
         24    2    1    2    0    0 -0.11007888629E+02 -0.64377465541E+02  0.38209556986E+03  0.39573443017E+03  0.79643474500E+02 0.  0.
        -13    1    3    3    0    0 -0.25373035321E+02 -0.62348890005E+02  0.16567007643E+03  0.17882323460E+03  0.00000000000E+00 0.  1.
         14    1    3    3    0    0  0.14365146692E+02 -0.20285755360E+01  0.21642549342E+03  0.21691119557E+03  0.00000000000E+00 0. -1.
          1    1    1    2  501    0  0.11007888629E+02  0.64377465541E+02  0.14011596417E+03  0.15459015201E+03  0.00000000000E+00 0. -1.
<mgrwt>
<rscale>  1 0.10299862E+03</rscale>
<asrwt>0</asrwt>
<pdfrwt beam="1">  1       21 0.21625426E-02 0.10299862E+03</pdfrwt>
<pdfrwt beam="2">  1        2 0.82502762E-01 0.10299862E+03</pdfrwt>
<totfact> 0.74801306E+05</totfact>
</mgrwt>
</event>
<event>
 6    2  0.7993170E+000  0.1149681E+03  0.7546771E-02  0.1251637E+00
          2   -1    0    0  502    0 -0.00000000000E+00  0.00000000000E+00  0.13466562266E+03  0.13466562266E+03  0.00000000000E+00 0. -1.
         21   -1    0    0  501  502  0.00000000000E+00 -0.00000000000E+00 -0.48318268090E+02  0.48318268090E+02  0.00000000000E+00 0. -1.
         24    2    1    2    0    0  0.33825021479E+02 -0.13228834590E+02  0.90653727858E+02  0.14640959659E+03  0.10908041738E+03 0.  0.
        -11    1    3    3    0    0 -0.12977712048E+02  0.64990845329E+01 -0.19967693111E+02  0.24685377817E+02  0.00000000000E+00 0.  1.
         12    1    3    3    0    0  0.46802733527E+02 -0.19727919123E+02  0.11062142097E+03  0.12172421877E+03  0.00000000000E+00 0. -1.
          1    1    1    2  501    0 -0.33825021479E+02  0.13228834590E+02 -0.43063732852E+01  0.36574294163E+02  0.00000000000E+00 0. -1.
<mgrwt>
<rscale>  1 0.11496813E+03</rscale>
<asrwt>0</asrwt>
<pdfrwt beam="1">  1       21 0.74335798E-02 0.11496813E+03</pdfrwt>
<pdfrwt beam="2">  1        2 0.20717788E-01 0.11496813E+03</pdfrwt>
<totfact> 0.42964114E+05</totfact>
</mgrwt>
</event>
<event>
 6    2  0.7993170E+000  0.9647895E+02  0.7546771E-02  0.1287879E+00
         21   -1    0    0  501  502  0.00000000000E+00  0.00000000000E+00  0.15231294836E+02  0.15231294836E+02  0.00000000000E+00 0.  1.
          4   -1    0    0  502    0 -0.00000000000E+00 -0.00000000000E+00 -0.37053618864E+03  0.37053618864E+03  0.00000000000E+00 0. -1.
         24    2    1    2    0    0  0.52202990165E+02 -0.94429036333E+01 -0.24681859179E+03  0.26500491338E+03  0.80584528616E+02 0.  0.
        -11    1    3    3    0    0  0.52504050255E+02  0.22876638266E+02 -0.20053613948E+03  0.20855397169E+03  0.00000000000E+00 0.  1.
         12    1    3    3    0    0 -0.30106009003E+00 -0.32319541899E+02 -0.46282452309E+02  0.56450941688E+02  0.00000000000E+00 0. -1.
          3    1    1    2  501    0 -0.52202990165E+02  0.94429036333E+01 -0.10848630201E+03  0.12076257009E+03  0.00000000000E+00 0. -1.
<mgrwt>
<rscale>  1 0.96478945E+02</rscale>
<asrwt>0</asrwt>
<pdfrwt beam="1">  1       21 0.23432759E-02 0.96478945E+02</pdfrwt>
<pdfrwt beam="2">  1        4 0.57005572E-01 0.96478945E+02</pdfrwt>
<totfact> 0.10676969E+05</totfact>
</mgrwt>
</event>
<event>
 6    2  0.7993170E+000  0.7702903E+02  0.7546771E-02  0.1337700E+00
         -3   -1    0    0    0  501 -0.00000000000E+00  0.00000000000E+00  0.10373247897E+03  0.10373247897E+03  0.00000000000E+00 0.  1.
         21   -1    0    0  501  502  0.00000000000E+00 -0.00000000000E+00 -0.77318929758E+02  0.77318929758E+02  0.00000000000E+00 0.  1.
         24    2    1    2    0    0 -0.19401578740E+02 -0.21791396746E+02  0.85544172573E+02  0.11511418973E+03  0.71289445130E+02 0.  0.
        -11    1    3    3    0    0 -0.40236497241E+01  0.25574710898E+02  0.39886662002E+02  0.47552091440E+02  0.00000000000E+00 0.  1.
         12    1    3    3    0    0 -0.15377929016E+02 -0.47366107645E+02  0.45657510571E+02  0.67562098293E+02  0.00000000000E+00 0. -1.
         -4    1    1    2    0  502  0.19401578740E+02  0.21791396746E+02 -0.59130623361E+02  0.65937218995E+02  0.00000000000E+00 0.  1.
<mgrwt>
<rscale>  1 0.77029028E+02</rscale>
<asrwt>0</asrwt>
<pdfrwt beam="1">  1       21 0.11895220E-01 0.77029028E+02</pdfrwt>
<pdfrwt beam="2">  1       -3 0.15958843E-01 0.77029028E+02</pdfrwt>
<totfact> 0.88214606E+04</totfact>
</mgrwt>
</event>
<event>
 6    2  0.7993170E+000  0.8425245E+02  0.7546771E-02  0.1317399E+00
         -1   -1    0    0    0  501 -0.00000000000E+00  0.00000000000E+00  0.96986592545E+03  0.96986592545E+03  0.00000000000E+00 0.  1.
         21   -1    0    0  501  502  0.00000000000E+00 -0.00000000000E+00 -0.34877491145E+01  0.34877491145E+01  0.00000000000E+00 0.  1.
         24    2    1    2    0    0 -0.89880100791E+01 -0.21433519558E+02  0.87572336699E+03  0.87976695252E+03  0.80983301773E+02 0.  0.
        -11    1    3    3    0    0 -0.25937485331E+02 -0.46743879378E+02  0.59449779330E+03  0.59689644800E+03  0.00000000000E+00 0.  1.
         12    1    3    3    0    0  0.16949475252E+02  0.25310359820E+02  0.28122557369E+03  0.28287050452E+03  0.00000000000E+00 0. -1.
         -2    1    1    2    0  502  0.89880100791E+01  0.21433519558E+02  0.90654809347E+02  0.93586722047E+02  0.00000000000E+00 0.  1.
<mgrwt>
<rscale>  1 0.84252450E+02</rscale>
<asrwt>0</asrwt>
<pdfrwt beam="1">  1       21 0.53657756E-03 0.84252450E+02</pdfrwt>
<pdfrwt beam="2">  1       -1 0.14920993E+00 0.84252450E+02</pdfrwt>
<totfact> 0.34090895E+05</totfact>
</mgrwt>
</event>
<event>
 6    2  0.7993170E+000  0.8113030E+02  0.7546771E-02  0.1325874E+00
         21   -1    0    0  501  502  0.00000000000E+00  0.00000000000E+00  0.76320004904E+01  0.76320004904E+01  0.00000000000E+00 0.  1.
          2   -1    0    0  502    0 -0.00000000000E+00 -0.00000000000E+00 -0.38413167073E+03  0.38413167073E+03  0.00000000000E+00 0. -1.
         24    2    1    2    0    0 -0.14265088358E+02  0.16571940527E+02 -0.23560466552E+03  0.24918203035E+03  0.78128124740E+02 0.  0.
        -13    1    3    3    0    0 -0.36246756956E+02  0.30698063667E+00 -0.51035828827E+02  0.62598541924E+02  0.00000000000E+00 0.  1.
         14    1    3    3    0    0  0.21981668598E+02  0.16264959891E+02 -0.18456883670E+03  0.18658348843E+03  0.00000000000E+00 0. -1.
          1    1    1    2  501    0  0.14265088358E+02 -0.16571940527E+02 -0.14089500472E+03  0.14258164087E+03  0.00000000000E+00 0. -1.
<mgrwt>
<rscale>  1 0.81130302E+02</rscale>
<asrwt>0</asrwt>
<pdfrwt beam="1">  1       21 0.11741541E-02 0.81130302E+02</pdfrwt>
<pdfrwt beam="2">  1        2 0.59097173E-01 0.81130302E+02</pdfrwt>
<totfact> 0.27469509E+06</totfact>
</mgrwt>
</event>
<event>
 6    2  0.7993170E+000  0.8567263E+02  0.7546771E-02  0.1313683E+00
         21   -1    0    0  501  502  0.00000000000E+00  0.00000000000E+00  0.81681469966E+01  0.81681469966E+01  0.00000000000E+00 0.  1.
          2   -1    0    0  502    0 -0.00000000000E+00 -0.00000000000E+00 -0.41519043739E+03  0.41519043739E+03  0.00000000000E+00 0. -1.
         24    2    1    2    0    0 -0.13629280024E+02  0.18698835710E+02 -0.36928213556E+03  0.37908982545E+03  0.82488765207E+02 0.  0.
        -11    1    3    3    0    0 -0.25845405769E+02 -0.41852239406E+01 -0.34528711602E+02  0.43332816937E+02  0.00000000000E+00 0.  1.
         12    1    3    3    0    0  0.12216125745E+02  0.22884059651E+02 -0.33475342396E+03  0.33575700852E+03  0.00000000000E+00 0. -1.
          1    1    1    2  501    0  0.13629280024E+02 -0.18698835710E+02 -0.37740154831E+02  0.44268758934E+02  0.00000000000E+00 0. -1.
<mgrwt>
<rscale>  1 0.85672633E+02</rscale>
<asrwt>0</asrwt>
<pdfrwt beam="1">  1       21 0.12566379E-02 0.85672633E+02</pdfrwt>
<pdfrwt beam="2">  1        2 0.63875455E-01 0.85672633E+02</pdfrwt>
<totfact> 0.22915637E+06</totfact>
</mgrwt>
</event>
<event>
 6    2  0.7993170E+000  0.1957717E+03  0.7546771E-02  0.1153356E+00
          2   -1    0    0  502    0 -0.00000000000E+00  0.00000000000E+00  0.14199338418E+03  0.14199338418E+03  0.00000000000E+00 0. -1.
         21   -1    0    0  501  502  0.00000000000E+00 -0.00000000000E+00 -0.30955711805E+03  0.30955711805E+03  0.00000000000E+00 0. -1.
         24    2    1    2    0    0 -0.17549049255E+03  0.35894638068E+02 -0.18780308945E+03  0.27128689100E+03  0.79001511416E+02 0.  0.
        -13    1    3    3    0    0  0.78115909286E+01 -0.24738192734E+01 -0.50900557290E+01  0.96462117931E+01  0.00000000000E+00 0.  1.
         14    1    3    3    0    0 -0.18330208348E+03  0.38368457341E+02 -0.18271303372E+03  0.26164067921E+03  0.00000000000E+00 0. -1.
          1    1    1    2  501    0  0.17549049255E+03 -0.35894638068E+02  0.20239355578E+02  0.18026361122E+03  0.00000000000E+00 0. -1.
<mgrwt>
<rscale>  1 0.19577175E+03</rscale>
<asrwt>0</asrwt>
<pdfrwt beam="1">  1       21 0.47624171E-01 0.19577175E+03</pdfrwt>
<pdfrwt beam="2">  1        2 0.21845136E-01 0.19577175E+03</pdfrwt>
<totfact> 0.12946842E+04</totfact>
</mgrwt>
</event>
<event>
 6    2  0.7993170E+000  0.9645099E+02  0.7546771E-02  0.1287941E+00
          2   -1    0    0  502    0 -0.00000000000E+00  0.00000000000E+00  0.71080615250E+03  0.71080615250E+03  0.00000000000E+00 0. -1.
         21   -1    0    0  501  502  0.00000000000E+00 -0.00000000000E+00 -0.10392967261E+02  0.10392967261E+02  0.00000000000E+00 0.  1.
         24    2    1    2    0    0 -0.59398957995E+01 -0.47873871208E+02  0.24600010637E+03  0.26423256064E+03  0.83520080596E+02 0.  0.
        -13    1    3    3    0    0  0.12561949798E+02 -0.53597737742E+02  0.80025695017E+02  0.97132033526E+02  0.00000000000E+00 0.  1.
         14    1    3    3    0    0 -0.18501845597E+02  0.57238665347E+01  0.16597441135E+03  0.16710052712E+03  0.00000000000E+00 0. -1.
          1    1    1    2  501    0  0.59398957995E+01  0.47873871208E+02  0.45441307886E+03  0.45696655912E+03  0.00000000000E+00 0. -1.
<mgrwt>
<rscale>  1 0.96450992E+02</rscale>
<asrwt>0</asrwt>
<pdfrwt beam="1">  1       21 0.15989186E-02 0.96450992E+02</pdfrwt>
<pdfrwt beam="2">  1        2 0.10935475E+00 0.96450992E+02</pdfrwt>
<totfact> 0.87632246E+05</totfact>
</mgrwt>
</event>
<event>
 6    2  0.7993170E+000  0.1043525E+03  0.7546771E-02  0.1271401E+00
         -1   -1    0    0    0  501 -0.00000000000E+00  0.00000000000E+00  0.35366897253E+03  0.35366897253E+03  0.00000000000E+00 0.  1.
         21   -1    0    0  501  502  0.00000000000E+00 -0.00000000000E+00 -0.39127034484E+02  0.39127034484E+02  0.00000000000E+00 0.  1.
         24    2    1    2    0    0 -0.44846437401E+02 -0.48430682612E+02  0.30947658199E+03  0.32659637108E+03  0.80825125032E+02 0.  0.
        -11    1    3    3    0    0  0.47228790412E+01 -0.24534459155E+02  0.22096674115E+03  0.22237478717E+03  0.00000000000E+00 0.  1.
         12    1    3    3    0    0 -0.49569316442E+02 -0.23896223457E+02  0.88509840839E+02  0.10422158391E+03  0.00000000000E+00 0. -1.
         -2    1    1    2    0  502  0.44846437401E+02  0.48430682612E+02  0.50653560558E+01  0.66199635934E+02  0.00000000000E+00 0.  1.
<mgrwt>
<rscale>  1 0.10435245E+03</rscale>
<asrwt>0</asrwt>
<pdfrwt beam="1">  1       21 0.60195440E-02 0.10435245E+03</pdfrwt>
<pdfrwt beam="2">  1       -1 0.54410609E-01 0.10435245E+03</pdfrwt>
<totfact> 0.62328603E+04</totfact>
</mgrwt>
</event>
<event>
 6    2  0.7993170E+000  0.8386231E+02  0.7546771E-02  0.1318435E+00
          2   -1    0    0  502    0 -0.00000000000E+00  0.00000000000E+00  0.22553320708E+03  0.22553320708E+03  0.00000000000E+00 0. -1.
         21   -1    0    0  501  502  0.00000000000E+00 -0.00000000000E+00 -0.19119804016E+02  0.19119804016E+02  0.00000000000E+00 0. -1.
         24    2    1    2    0    0 -0.20588138920E+02 -0.85431154802E+00  0.20771571766E+03  0.22400604193E+03  0.81291365746E+02 0.  0.
        -11    1    3    3    0    0  0.14842683132E+02  0.30930261376E+02  0.11153130900E+03  0.11668855642E+03  0.00000000000E+00 0.  1.
         12    1    3    3    0    0 -0.35430822053E+02 -0.31784572924E+02  0.96184408662E+02  0.10731748551E+03  0.00000000000E+00 0. -1.
          1    1    1    2  501    0  0.20588138920E+02  0.85431154802E+00 -0.13023145990E+01  0.20646969166E+02  0.00000000000E+00 0. -1.
<mgrwt>
<rscale>  1 0.83862312E+02</rscale>
<asrwt>0</asrwt>
<pdfrwt beam="1">  1       21 0.29415085E-02 0.83862312E+02</pdfrwt>
<pdfrwt beam="2">  1        2 0.34697415E-01 0.83862312E+02</pdfrwt>
<totfact> 0.11143180E+06</totfact>
</mgrwt>
</event>
<event>
 6    2  0.7993170E+000  0.1086493E+03  0.7546771E-02  0.1263092E+00
         21   -1    0    0  501  502  0.00000000000E+00  0.00000000000E+00  0.31892209949E+02  0.31892209949E+02  0.00000000000E+00 0.  1.
         -3   -1    0    0    0  501 -0.00000000000E+00 -0.00000000000E+00 -0.27824185635E+03  0.27824185635E+03  0.00000000000E+00 0.  1.
         24    2    1    2    0    0  0.69024905057E+02  0.16885638854E+02 -0.10099648594E+03  0.14834066850E+03  0.82189424134E+02 0.  0.
        -13    1    3    3    0    0  0.22555050097E+02 -0.66773131471E+01  0.10126134942E+02  0.25609674043E+02  0.00000000000E+00 0.  1.
         14    1    3    3    0    0  0.46469854960E+02  0.23562952001E+02 -0.11112262089E+03  0.12273099445E+03  0.00000000000E+00 0. -1.
         -4    1    1    2    0  502 -0.69024905057E+02 -0.16885638854E+02 -0.14535316046E+03  0.16179339781E+03  0.00000000000E+00 0.  1.
<mgrwt>
<rscale>  1 0.10864927E+03</rscale>
<asrwt>0</asrwt>
<pdfrwt beam="1">  1       21 0.49064937E-02 0.10864927E+03</pdfrwt>
<pdfrwt beam="2">  1       -3 0.42806441E-01 0.10864927E+03</pdfrwt>
<totfact> 0.70317225E+04</totfact>
</mgrwt>
</event>
<event>
 6    2  0.7993170E+000  0.8513772E+02  0.7546771E-02  0.1315073E+00
         -1   -1    0    0    0  501 -0.00000000000E+00  0.00000000000E+00  0.47418069434E+03  0.47418069434E+03  0.00000000000E+00 0.  1.
         21   -1    0    0  501  502  0.00000000000E+00 -0.00000000000E+00 -0.78484283826E+01  0.78484283826E+01  0.00000000000E+00 0. -1.
         24    2    1    2    0    0  0.43816167142E+01  0.30676950964E+02  0.26539995745E+03  0.27872131056E+03  0.79297904503E+02 0.  0.
        -13    1    3    3    0    0  0.25770824770E+02  0.39014002237E+02  0.23988374323E+03  0.24439811383E+03  0.00000000000E+00 0.  1.
         14    1    3    3    0    0 -0.21389208056E+02 -0.83370512724E+01  0.25516214225E+02  0.34323196727E+02  0.00000000000E+00 0. -1.
         -2    1    1    2    0  502 -0.43816167142E+01 -0.30676950964E+02  0.20093230851E+03  0.20330781217E+03  0.00000000000E+00 0.  1.
<mgrwt>
<rscale>  1 0.85137721E+02</rscale>
<asrwt>0</asrwt>
<pdfrwt beam="1">  1       21 0.12074509E-02 0.85137721E+02</pdfrwt>
<pdfrwt beam="2">  1       -1 0.72950854E-01 0.85137721E+02</pdfrwt>
<totfact> 0.47607507E+05</totfact>
</mgrwt>
</event>
<event>
 6    2  0.7993170E+000  0.8331755E+02  0.7546771E-02  0.1319892E+00
          2   -1    0    0  502    0 -0.00000000000E+00  0.00000000000E+00  0.11031951622E+04  0.11031951622E+04  0.00000000000E+00 0. -1.
         21   -1    0    0  501  502  0.00000000000E+00 -0.00000000000E+00 -0.26683695740E+01  0.26683695740E+01  0.00000000000E+00 0. -1.
         24    2    1    2    0    0 -0.60099272134E+01 -0.22974338230E+02  0.77307962895E+03  0.77755638223E+03  0.79861601581E+02 0.  0.
        -13    1    3    3    0    0  0.36788203118E+02 -0.92220434379E+01  0.31445412123E+03  0.31673303006E+03  0.00000000000E+00 0.  1.
         14    1    3    3    0    0 -0.42798130331E+02 -0.13752294792E+02  0.45862550772E+03  0.46082335217E+03  0.00000000000E+00 0. -1.
          1    1    1    2  501    0  0.60099272134E+01  0.22974338230E+02  0.32744716371E+03  0.32830714958E+03  0.00000000000E+00 0. -1.
<mgrwt>
<rscale>  1 0.83317554E+02</rscale>
<asrwt>0</asrwt>
<pdfrwt beam="1">  1       21 0.41051928E-03 0.83317554E+02</pdfrwt>
<pdfrwt beam="2">  1        2 0.16972197E+00 0.83317554E+02</pdfrwt>
<totfact> 0.40681498E+06</totfact>
</mgrwt>
</event>
<event>
 6    2  0.7993170E+000  0.8429461E+02  0.7546771E-02  0.1317288E+00
         21   -1    0    0  501  502  0.00000000000E+00  0.00000000000E+00  0.86576042635E+01  0.86576042635E+01  0.00000000000E+00 0. -1.
          2   -1    0    0  502    0 -0.00000000000E+00 -0.00000000000E+00 -0.10851673768E+04  0.10851673768E+04  0.00000000000E+00 0. -1.
         24    2    1    2    0    0 -0.27079377706E+01  0.22489949898E+02 -0.10651564278E+04  0.10684866857E+04  0.81193910531E+02 0.  0.
        -13    1    3    3    0    0  0.30208069381E+02 -0.15348035928E+02 -0.38900351309E+03  0.39047640499E+03  0.00000000000E+00 0.  1.
         14    1    3    3    0    0 -0.32916007151E+02  0.37837985827E+02 -0.67615291473E+03  0.67801028075E+03  0.00000000000E+00 0. -1.
          1    1    1    2  501    0  0.27079377706E+01 -0.22489949898E+02 -0.11353344710E+02  0.25338295316E+02  0.00000000000E+00 0. -1.
<mgrwt>
<rscale>  1 0.84294614E+02</rscale>
<asrwt>0</asrwt>
<pdfrwt beam="1">  1       21 0.13319388E-02 0.84294614E+02</pdfrwt>
<pdfrwt beam="2">  1        2 0.16694887E+00 0.84294614E+02</pdfrwt>
<totfact> 0.67499711E+05</totfact>
</mgrwt>
</event>
<event>
 6    2  0.7993170E+000  0.9860676E+02  0.7546771E-02  0.1283253E+00
         21   -1    0    0  501  502  0.00000000000E+00  0.00000000000E+00  0.20579066320E+02  0.20579066320E+02  0.00000000000E+00 0. -1.
          2   -1    0    0  502    0 -0.00000000000E+00 -0.00000000000E+00 -0.35904929280E+03  0.35904929280E+03  0.00000000000E+00 0. -1.
         24    2    1    2    0    0  0.67314766900E+01  0.55738632330E+02 -0.28698156558E+03  0.30344968681E+03  0.81062849285E+02 0.  0.
        -13    1    3    3    0    0  0.26683437629E+02  0.16229803758E+02 -0.32222310409E+02  0.44874153605E+02  0.00000000000E+00 0.  1.
         14    1    3    3    0    0 -0.19951960939E+02  0.39508828572E+02 -0.25475925517E+03  0.25857553321E+03  0.00000000000E+00 0. -1.
          1    1    1    2  501    0 -0.67314766900E+01 -0.55738632330E+02 -0.51488660900E+02  0.76178672302E+02  0.00000000000E+00 0. -1.
<mgrwt>
<rscale>  1 0.98606762E+02</rscale>
<asrwt>0</asrwt>
<pdfrwt beam="1">  1       21 0.31660101E-02 0.98606762E+02</pdfrwt>
<pdfrwt beam="2">  1        2 0.55238354E-01 0.98606762E+02</pdfrwt>
<totfact> 0.61696807E+05</totfact>
</mgrwt>
</event>
<event>
 6    2  0.7993170E+000  0.8768537E+02  0.7546771E-02  0.1308556E+00
         -3   -1    0    0    0  501 -0.00000000000E+00  0.00000000000E+00  0.33563044688E+03  0.33563044688E+03  0.00000000000E+00 0.  1.
         21   -1    0    0  501  502  0.00000000000E+00 -0.00000000000E+00 -0.77019792806E+02  0.77019792806E+02  0.00000000000E+00 0.  1.
         24    2    1    2    0    0  0.41492684354E+02  0.65027148812E+01  0.32360080563E+03  0.33527034594E+03  0.76972691939E+02 0.  0.
        -13    1    3    3    0    0  0.56681779220E+02  0.26319519923E+02  0.24166193797E+03  0.24961176552E+03  0.00000000000E+00 0.  1.
         14    1    3    3    0    0 -0.15189094866E+02 -0.19816805042E+02  0.81938867668E+02  0.85658580420E+02  0.00000000000E+00 0. -1.
         -4    1    1    2    0  502 -0.41492684354E+02 -0.65027148812E+01 -0.64990151562E+02  0.77379893744E+02  0.00000000000E+00 0.  1.
<mgrwt>
<rscale>  1 0.87685366E+02</rscale>
<asrwt>0</asrwt>
<pdfrwt beam="1">  1       21 0.11849199E-01 0.87685366E+02</pdfrwt>
<pdfrwt beam="2">  1       -3 0.51635452E-01 0.87685366E+02</pdfrwt>
<totfact> 0.10564736E+04</totfact>
</mgrwt>
</event>
<event>
 6    2  0.7993170E+000  0.1471979E+03  0.7546771E-02  0.1203959E+00
          2   -1    0    0  502    0 -0.00000000000E+00  0.00000000000E+00  0.16979752921E+04  0.16979752921E+04  0.00000000000E+00 0. -1.
         21   -1    0    0  501  502  0.00000000000E+00 -0.00000000000E+00 -0.12357544188E+02  0.12357544188E+02  0.00000000000E+00 0. -1.
         24    2    1    2    0    0 -0.51798281464E+02  0.12001818115E+03  0.11299050966E+04  0.11394528343E+04  0.67674283495E+02 0.  0.
        -13    1    3    3    0    0 -0.20524840426E+02  0.27563095708E+02  0.11945635312E+03  0.12430130177E+03  0.00000000000E+00 0.  1.
         14    1    3    3    0    0 -0.31273441038E+02  0.92455085441E+02  0.10104487434E+04  0.10151515326E+04  0.00000000000E+00 0. -1.
          1    1    1    2  501    0  0.51798281464E+02 -0.12001818115E+03  0.55571265129E+03  0.57088000191E+03  0.00000000000E+00 0. -1.
<mgrwt>
<rscale>  1 0.14719794E+03</rscale>
<asrwt>0</asrwt>
<pdfrwt beam="1">  1       21 0.19011620E-02 0.14719794E+03</pdfrwt>
<pdfrwt beam="2">  1        2 0.26122678E+00 0.14719794E+03</pdfrwt>
<totfact> 0.18493758E+05</totfact>
</mgrwt>
</event>
<event>
 6    2  0.7993170E+000  0.9175406E+02  0.7546771E-02  0.1298659E+00
          2   -1    0    0  502    0 -0.00000000000E+00  0.00000000000E+00  0.28145548628E+04  0.28145548628E+04  0.00000000000E+00 0. -1.
         21   -1    0    0  501  502  0.00000000000E+00 -0.00000000000E+00 -0.23029492029E+02  0.23029492029E+02  0.00000000000E+00 0. -1.
         24    2    1    2    0    0  0.35627437212E+01  0.40179968901E+02  0.27955419141E+04  0.27970472648E+04  0.82411680674E+02 0.  0.
        -13    1    3    3    0    0 -0.23104552422E+02  0.12846973539E+02  0.28706102147E+03  0.28827572759E+03  0.00000000000E+00 0.  1.
         14    1    3    3    0    0  0.26667296143E+02  0.27332995363E+02  0.25084808926E+04  0.25087715372E+04  0.00000000000E+00 0. -1.
          1    1    1    2  501    0 -0.35627437212E+01 -0.40179968901E+02 -0.40165433535E+01  0.40537089982E+02  0.00000000000E+00 0. -1.
<mgrwt>
<rscale>  1 0.91754063E+02</rscale>
<asrwt>0</asrwt>
<pdfrwt beam="1">  1       21 0.35430010E-02 0.91754063E+02</pdfrwt>
<pdfrwt beam="2">  1        2 0.43300817E+00 0.91754063E+02</pdfrwt>
<totfact> 0.17842023E+04</totfact>
</mgrwt>
</event>
<event>
 6    2  0.7993170E+000  0.9499387E+02  0.7546771E-02  0.1291190E+00
          2   -1    0    0  502    0 -0.00000000000E+00  0.00000000000E+00  0.14974614329E+04  0.14974614329E+04  0.00000000000E+00 0. -1.
         21   -1    0    0  501  502  0.00000000000E+00 -0.00000000000E+00 -0.52757572570E+01  0.52757572570E+01  0.00000000000E+00 0.  1.
         24    2    1    2    0    0  0.29270871670E+02 -0.35558291552E+02  0.13486965638E+04  0.13520378164E+04  0.83082247247E+02 0.  0.
        -11    1    3    3    0    0  0.50359369109E+02 -0.27529818974E+02  0.54287548487E+03  0.54590086010E+03  0.00000000000E+00 0.  1.
         12    1    3    3    0    0 -0.21088497439E+02 -0.80284725775E+01  0.80582107889E+03  0.80613695628E+03  0.00000000000E+00 0. -1.
          1    1    1    2  501    0 -0.29270871670E+02  0.35558291552E+02  0.14348911187E+03  0.15069937376E+03  0.00000000000E+00 0. -1.
<mgrwt>
<rscale>  1 0.94993873E+02</rscale>
<asrwt>0</asrwt>
<pdfrwt beam="1">  1       21 0.81165616E-03 0.94993873E+02</pdfrwt>
<pdfrwt beam="2">  1        2 0.23037834E+00 0.94993873E+02</pdfrwt>
<totfact> 0.89064481E+05</totfact>
</mgrwt>
</event>
<event>
 6    2  0.7993170E+000  0.9324824E+02  0.7546771E-02  0.1295171E+00
          4   -1    0    0  502    0 -0.00000000000E+00  0.00000000000E+00  0.13143562052E+03  0.13143562052E+03  0.00000000000E+00 0. -1.
         21   -1    0    0  501  502  0.00000000000E+00 -0.00000000000E+00 -0.43567817006E+02  0.43567817006E+02  0.00000000000E+00 0.  1.
         24    2    1    2    0    0  0.39267281254E+02  0.96784134698E+01  0.19038461697E+02  0.95171931470E+02  0.84021678462E+02 0.  0.
        -13    1    3    3    0    0  0.92778942236E+01  0.33383627370E+02 -0.20431996143E+02  0.40224524410E+02  0.00000000000E+00 0.  1.
         14    1    3    3    0    0  0.29989387030E+02 -0.23705213900E+02  0.39470457840E+02  0.54947407060E+02  0.00000000000E+00 0. -1.
          3    1    1    2  501    0 -0.39267281254E+02 -0.96784134698E+01  0.68829341821E+02  0.79831506060E+02  0.00000000000E+00 0. -1.
<mgrwt>
<rscale>  1 0.93248236E+02</rscale>
<asrwt>0</asrwt>
<pdfrwt beam="1">  1       21 0.67027411E-02 0.93248236E+02</pdfrwt>
<pdfrwt beam="2">  1        4 0.20220865E-01 0.93248236E+02</pdfrwt>
<totfact> 0.13627123E+05</totfact>
</mgrwt>
</event>
<event>
 6    2  0.7993170E+000  0.7439545E+02  0.7546771E-02  0.1345753E+00
         21   -1    0    0  501  502  0.00000000000E+00  0.00000000000E+00  0.12412724493E+02  0.12412724493E+02  0.00000000000E+00 0. -1.
          4   -1    0    0  502    0 -0.00000000000E+00 -0.00000000000E+00 -0.63658730017E+03  0.63658730017E+03  0.00000000000E+00 0. -1.
         24    2    1    2    0    0 -0.33499084391E+01 -0.24112608448E+02 -0.61982079570E+03  0.62426957435E+03  0.70299665018E+02 0.  0.
        -13    1    3    3    0    0 -0.28575984015E+02  0.10385677856E+02 -0.20313886338E+03  0.20540167230E+03  0.00000000000E+00 0.  1.
         14    1    3    3    0    0  0.25226075576E+02 -0.34498286304E+02 -0.41668193232E+03  0.41886790205E+03  0.00000000000E+00 0. -1.
          3    1    1    2  501    0  0.33499084391E+01  0.24112608448E+02 -0.43537799783E+01  0.24730450316E+02  0.00000000000E+00 0. -1.
<mgrwt>
<rscale>  1 0.74395448E+02</rscale>
<asrwt>0</asrwt>
<pdfrwt beam="1">  1       21 0.19096495E-02 0.74395448E+02</pdfrwt>
<pdfrwt beam="2">  1        4 0.97936530E-01 0.74395448E+02</pdfrwt>
<totfact> 0.44025640E+04</totfact>
</mgrwt>
</event>
<event>
 6    2  0.7993170E+000  0.8512891E+02  0.7546771E-02  0.1315096E+00
          2   -1    0    0  502    0 -0.00000000000E+00  0.00000000000E+00  0.19559984210E+03  0.19559984210E+03  0.00000000000E+00 0. -1.
         21   -1    0    0  501  502  0.00000000000E+00 -0.00000000000E+00 -0.59562700763E+02  0.59562700763E+02  0.00000000000E+00 0. -1.
         24    2    1    2    0    0  0.26272414526E+02 -0.59230328197E+01  0.18254535064E+03  0.20141930500E+03  0.80756481491E+02 0.  0.
        -13    1    3    3    0    0  0.23397345071E+02 -0.41382979881E+02  0.82238848259E+02  0.94990604499E+02  0.00000000000E+00 0.  1.
         14    1    3    3    0    0  0.28750694544E+01  0.35459947061E+02  0.10030650238E+03  0.10642870050E+03  0.00000000000E+00 0. -1.
          1    1    1    2  501    0 -0.26272414526E+02  0.59230328197E+01 -0.46508209307E+02  0.53743237861E+02  0.00000000000E+00 0. -1.
<mgrwt>
<rscale>  1 0.85128910E+02</rscale>
<asrwt>0</asrwt>
<pdfrwt beam="1">  1       21 0.91634925E-02 0.85128910E+02</pdfrwt>
<pdfrwt beam="2">  1        2 0.30092283E-01 0.85128910E+02</pdfrwt>
<totfact> 0.19533953E+05</totfact>
</mgrwt>
</event>
<event>
 6    2  0.7993170E+000  0.9061882E+02  0.7546771E-02  0.1301360E+00
          2   -1    0    0  502    0 -0.00000000000E+00  0.00000000000E+00  0.12154664246E+04  0.12154664246E+04  0.00000000000E+00 0. -1.
         21   -1    0    0  501  502  0.00000000000E+00 -0.00000000000E+00 -0.41603162366E+01  0.41603162366E+01  0.00000000000E+00 0.  1.
         24    2    1    2    0    0 -0.16562609922E+02 -0.39627462838E+02  0.99364894917E+03  0.99777252112E+03  0.79794196886E+02 0.  0.
        -13    1    3    3    0    0 -0.38890265511E+02 -0.51091007632E+02  0.78443730756E+03  0.78706075579E+03  0.00000000000E+00 0.  1.
         14    1    3    3    0    0  0.22327655589E+02  0.11463544794E+02  0.20921164161E+03  0.21071176533E+03  0.00000000000E+00 0. -1.
          1    1    1    2  501    0  0.16562609922E+02  0.39627462838E+02  0.21765715924E+03  0.22185421976E+03  0.00000000000E+00 0. -1.
<mgrwt>
<rscale>  1 0.90618815E+02</rscale>
<asrwt>0</asrwt>
<pdfrwt beam="1">  1       21 0.64004962E-03 0.90618815E+02</pdfrwt>
<pdfrwt beam="2">  1        2 0.18699455E+00 0.90618815E+02</pdfrwt>
<totfact> 0.18024965E+06</totfact>
</mgrwt>
</event>
<event>
 6    2  0.7993170E+000  0.8273696E+02  0.7546771E-02  0.1321459E+00
          2   -1    0    0  502    0 -0.00000000000E+00  0.00000000000E+00  0.21765817383E+04  0.21765817383E+04  0.00000000000E+00 0. -1.
         21   -1    0    0  501  502  0.00000000000E+00 -0.00000000000E+00 -0.13310394550E+01  0.13310394550E+01  0.00000000000E+00 0. -1.
         24    2    1    2    0    0  0.64864747735E+01 -0.20347105802E+02  0.14592331500E+04  0.14615768165E+04  0.79933256731E+02 0.  0.
        -11    1    3    3    0    0  0.36161291672E+02  0.97864570937E+01  0.49444050958E+03  0.49585767239E+03  0.00000000000E+00 0.  1.
         12    1    3    3    0    0 -0.29674816899E+02 -0.30133562895E+02  0.96479264043E+03  0.96571914416E+03  0.00000000000E+00 0. -1.
          1    1    1    2  501    0 -0.64864747735E+01  0.20347105802E+02  0.71601754880E+03  0.71633596116E+03  0.00000000000E+00 0. -1.
<mgrwt>
<rscale>  1 0.82736960E+02</rscale>
<asrwt>0</asrwt>
<pdfrwt beam="1">  1       21 0.20477704E-03 0.82736960E+02</pdfrwt>
<pdfrwt beam="2">  1        2 0.33485588E+00 0.82736960E+02</pdfrwt>
<totfact> 0.32780084E+06</totfact>
</mgrwt>
</event>
<event>
 6    2  0.7993170E+000  0.9345269E+02  0.7546771E-02  0.1294700E+00
         21   -1    0    0  501  502  0.00000000000E+00  0.00000000000E+00  0.56891282077E+02  0.56891282077E+02  0.00000000000E+00 0. -1.
          2   -1    0    0  502    0 -0.00000000000E+00 -0.00000000000E+00 -0.97426480048E+03  0.97426480048E+03  0.00000000000E+00 0. -1.
         24    2    1    2    0    0  0.37956811057E+02  0.30940642888E+01 -0.96537211240E+03  0.96988490039E+03  0.85341149966E+02 0.  0.
        -13    1    3    3    0    0  0.70081917800E+00  0.26917547237E+02 -0.10568908191E+03  0.10906524438E+03  0.00000000000E+00 0.  1.
         14    1    3    3    0    0  0.37255991879E+02 -0.23823482948E+02 -0.85968303049E+03  0.86081965601E+03  0.00000000000E+00 0. -1.
          1    1    1    2  501    0 -0.37956811057E+02 -0.30940642888E+01  0.47998593989E+02  0.61271182169E+02  0.00000000000E+00 0. -1.
<mgrwt>
<rscale>  1 0.93452687E+02</rscale>
<asrwt>0</asrwt>
<pdfrwt beam="1">  1       21 0.87525051E-02 0.93452687E+02</pdfrwt>
<pdfrwt beam="2">  1        2 0.14988689E+00 0.93452687E+02</pdfrwt>
<totfact> 0.35923958E+04</totfact>
</mgrwt>
</event>
<event>
 6    2  0.7993170E+000  0.9391942E+02  0.7546771E-02  0.1293629E+00
          2   -1    0    0  502    0 -0.00000000000E+00  0.00000000000E+00  0.18627701360E+04  0.18627701360E+04  0.00000000000E+00 0. -1.
         21   -1    0    0  501  502  0.00000000000E+00 -0.00000000000E+00 -0.18994711640E+02  0.18994711640E+02  0.00000000000E+00 0. -1.
         24    2    1    2    0    0 -0.31891030497E+02  0.38897174816E+02  0.18260048642E+04  0.18284186121E+04  0.79314748223E+02 0.  0.
        -13    1    3    3    0    0 -0.27281168475E+02  0.29194657606E+02  0.33492892885E+03  0.33730398392E+03  0.00000000000E+00 0.  1.
         14    1    3    3    0    0 -0.46098620221E+01  0.97025172102E+01  0.14910759353E+04  0.14911146282E+04  0.00000000000E+00 0. -1.
          1    1    1    2  501    0  0.31891030497E+02 -0.38897174816E+02  0.17770560253E+02  0.53346235542E+02  0.00000000000E+00 0. -1.
<mgrwt>
<rscale>  1 0.93919419E+02</rscale>
<asrwt>0</asrwt>
<pdfrwt beam="1">  1       21 0.29222648E-02 0.93919419E+02</pdfrwt>
<pdfrwt beam="2">  1        2 0.28657988E+00 0.93919419E+02</pdfrwt>
<totfact> 0.76150617E+04</totfact>
</mgrwt>
</event>
<event>
 6    2  0.7993170E+000  0.8788096E+02  0.7546771E-02  0.1308066E+00
         21   -1    0    0  501  502  0.00000000000E+00  0.00000000000E+00  0.76890877465E+02  0.76890877465E+02  0.00000000000E+00 0. -1.
          2   -1    0    0  502    0 -0.00000000000E+00 -0.00000000000E+00 -0.50085293621E+02  0.50085293621E+02  0.00000000000E+00 0. -1.
         24    2    1    2    0    0  0.10864711697E+02  0.33965783981E+02  0.24540984091E+02  0.91243205162E+02  0.80320272325E+02 0.  0.
        -13    1    3    3    0    0 -0.83287346387E+01 -0.24184279086E+02  0.13829981019E+02  0.29077750095E+02  0.00000000000E+00 0.  1.
         14    1    3    3    0    0  0.19193446335E+02  0.58150063067E+02  0.10711003072E+02  0.62165455067E+02  0.00000000000E+00 0. -1.
          1    1    1    2  501    0 -0.10864711697E+02 -0.33965783981E+02  0.22645997525E+01  0.35732965924E+02  0.00000000000E+00 0. -1.
<mgrwt>
<rscale>  1 0.87880957E+02</rscale>
<asrwt>0</asrwt>
<pdfrwt beam="1">  1       21 0.11829366E-01 0.87880957E+02</pdfrwt>
<pdfrwt beam="2">  1        2 0.77054298E-02 0.87880957E+02</pdfrwt>
<totfact> 0.60497771E+05</totfact>
</mgrwt>
</event>
<event>
 6    2  0.7993170E+000  0.1151038E+03  0.7546771E-02  0.1251400E+00
         21   -1    0    0  501  502  0.00000000000E+00  0.00000000000E+00  0.70300571759E+02  0.70300571759E+02  0.00000000000E+00 0.  1.
          2   -1    0    0  502    0 -0.00000000000E+00 -0.00000000000E+00 -0.14389804147E+03  0.14389804147E+03  0.00000000000E+00 0. -1.
         24    2    1    2    0    0  0.34059752894E+02  0.75281999771E+02 -0.23215654946E+02  0.11742168666E+03  0.80133885515E+02 0.  0.
        -13    1    3    3    0    0  0.16610656277E+02  0.20852852548E+02  0.29432475167E+02  0.39711786107E+02  0.00000000000E+00 0.  1.
         14    1    3    3    0    0  0.17449096617E+02  0.54429147223E+02 -0.52648130113E+02  0.77709900557E+02  0.00000000000E+00 0. -1.
          1    1    1    2  501    0 -0.34059752894E+02 -0.75281999771E+02 -0.50381814769E+02  0.96776926569E+02  0.00000000000E+00 0. -1.
<mgrwt>
<rscale>  1 0.11510380E+03</rscale>
<asrwt>0</asrwt>
<pdfrwt beam="1">  1       21 0.10815473E-01 0.11510380E+03</pdfrwt>
<pdfrwt beam="2">  1        2 0.22138160E-01 0.11510380E+03</pdfrwt>
<totfact> 0.20843379E+05</totfact>
</mgrwt>
</event>
<event>
 6    2  0.7993170E+000  0.8803830E+02  0.7546771E-02  0.1307673E+00
         21   -1    0    0  501  502  0.00000000000E+00  0.00000000000E+00  0.14593569470E+03  0.14593569470E+03  0.00000000000E+00 0. -1.
          4   -1    0    0  502    0 -0.00000000000E+00 -0.00000000000E+00 -0.98389421479E+02  0.98389421479E+02  0.00000000000E+00 0. -1.
         24    2    1    2    0    0  0.56594656870E+01  0.37379273729E+02 -0.75265690559E+02  0.11582601850E+03  0.79507878418E+02 0.  0.
        -13    1    3    3    0    0  0.20399548852E+02  0.55770554758E+02 -0.34339062973E+02  0.68597868897E+02  0.00000000000E+00 0.  1.
         14    1    3    3    0    0 -0.14740083165E+02 -0.18391281029E+02 -0.40926627586E+02  0.47228149605E+02  0.00000000000E+00 0. -1.
          3    1    1    2  501    0 -0.56594656870E+01 -0.37379273729E+02  0.12281196378E+03  0.12849909768E+03  0.00000000000E+00 0. -1.
<mgrwt>
<rscale>  1 0.88038301E+02</rscale>
<asrwt>0</asrwt>
<pdfrwt beam="1">  1       21 0.22451645E-01 0.88038301E+02</pdfrwt>
<pdfrwt beam="2">  1        4 0.15136834E-01 0.88038301E+02</pdfrwt>
<totfact> 0.26702255E+04</totfact>
</mgrwt>
</event>
<event>
 6    2  0.7993170E+000  0.9749663E+02  0.7546771E-02  0.1285650E+00
         -3   -1    0    0    0  501 -0.00000000000E+00  0.00000000000E+00  0.19828359493E+02  0.19828359493E+02  0.00000000000E+00 0.  1.
         21   -1    0    0  501  502  0.00000000000E+00 -0.00000000000E+00 -0.60514773119E+03  0.60514773119E+03  0.00000000000E+00 0.  1.
         24    2    1    2    0    0  0.33727536660E+02 -0.42235919682E+02 -0.11162655338E+03  0.14820957994E+03  0.81142914206E+02 0.  0.
        -11    1    3    3    0    0  0.45077556260E+02 -0.26691455332E+02 -0.22476298446E+02  0.57005296753E+02  0.00000000000E+00 0.  1.
         12    1    3    3    0    0 -0.11350019600E+02 -0.15544464350E+02 -0.89150254930E+02  0.91204283183E+02  0.00000000000E+00 0. -1.
         -4    1    1    2    0  502 -0.33727536660E+02  0.42235919682E+02 -0.47369281832E+03  0.47676651074E+03  0.00000000000E+00 0.  1.
<mgrwt>
<rscale>  1 0.97496626E+02</rscale>
<asrwt>0</asrwt>
<pdfrwt beam="1">  1       21 0.93099645E-01 0.97496626E+02</pdfrwt>
<pdfrwt beam="2">  1       -3 0.30505170E-02 0.97496626E+02</pdfrwt>
<totfact> 0.22839193E+04</totfact>
</mgrwt>
</event>
<event>
 6    2  0.7993170E+000  0.9660260E+02  0.7546771E-02  0.1287607E+00
          2   -1    0    0  502    0 -0.00000000000E+00  0.00000000000E+00  0.27657081338E+04  0.27657081338E+04  0.00000000000E+00 0. -1.
         21   -1    0    0  501  502  0.00000000000E+00 -0.00000000000E+00 -0.20610499171E+01  0.20610499171E+01  0.00000000000E+00 0.  1.
         24    2    1    2    0    0  0.53109679398E+02  0.54117946034E+01  0.16213376790E+04  0.16242130189E+04  0.80511712879E+02 0.  0.
        -13    1    3    3    0    0  0.30114684482E+02 -0.36471905140E+02  0.66300901820E+03  0.66469395386E+03  0.00000000000E+00 0.  1.
         14    1    3    3    0    0  0.22994994916E+02  0.41883699743E+02  0.95832866076E+03  0.95951906502E+03  0.00000000000E+00 0. -1.
          1    1    1    2  501    0 -0.53109679398E+02 -0.54117946034E+01  0.11423094050E+04  0.11435561649E+04  0.00000000000E+00 0. -1.
<mgrwt>
<rscale>  1 0.96602596E+02</rscale>
<asrwt>0</asrwt>
<pdfrwt beam="1">  1       21 0.31708682E-03 0.96602596E+02</pdfrwt>
<pdfrwt beam="2">  1        2 0.42549059E+00 0.96602596E+02</pdfrwt>
<totfact> 0.83962245E+05</totfact>
</mgrwt>
</event>
<event>
 6    2  0.7993170E+000  0.8112497E+02  0.7546771E-02  0.1325889E+00
         21   -1    0    0  501  502  0.00000000000E+00  0.00000000000E+00  0.51412289570E+02  0.51412289570E+02  0.00000000000E+00 0. -1.
         -1   -1    0    0    0  501 -0.00000000000E+00 -0.00000000000E+00 -0.55145610535E+02  0.55145610535E+02  0.00000000000E+00 0.  1.
         24    2    1    2    0    0  0.20394286574E+02  0.11162332628E+02 -0.11737007483E+02  0.81969618497E+02  0.77722174554E+02 0.  0.
        -13    1    3    3    0    0  0.28091204417E+01  0.24230264447E+02 -0.39609016932E+02  0.46517427865E+02  0.00000000000E+00 0.  1.
         14    1    3    3    0    0  0.17585166132E+02 -0.13067931819E+02  0.27872009449E+02  0.35452190633E+02  0.00000000000E+00 0. -1.
         -2    1    1    2    0  502 -0.20394286574E+02 -0.11162332628E+02  0.80036865173E+01  0.24588281608E+02  0.00000000000E+00 0.  1.
<mgrwt>
<rscale>  1 0.81124972E+02</rscale>
<asrwt>0</asrwt>
<pdfrwt beam="1">  1       21 0.79095830E-02 0.81124972E+02</pdfrwt>
<pdfrwt beam="2">  1       -1 0.84839401E-02 0.81124972E+02</pdfrwt>
<totfact> 0.78237926E+05</totfact>
</mgrwt>
</event>
<event>
 6    2  0.7993170E+000  0.8627234E+02  0.7546771E-02  0.1312138E+00
         21   -1    0    0  501  502  0.00000000000E+00  0.00000000000E+00  0.11385474196E+01  0.11385474196E+01  0.00000000000E+00 0.  1.
          2   -1    0    0  502    0 -0.00000000000E+00 -0.00000000000E+00 -0.29386159057E+04  0.29386159057E+04  0.00000000000E+00 0. -1.
         24    2    1    2    0    0  0.25264977552E+02  0.11503810779E+02 -0.24145151489E+04  0.24160559433E+04  0.81683903597E+02 0.  0.
        -13    1    3    3    0    0  0.34994998309E+02  0.41221157081E+02 -0.13522875911E+04  0.13533682288E+04  0.00000000000E+00 0.  1.
         14    1    3    3    0    0 -0.97300207570E+01 -0.29717346302E+02 -0.10622275578E+04  0.10626877145E+04  0.00000000000E+00 0. -1.
          1    1    1    2  501    0 -0.25264977552E+02 -0.11503810779E+02 -0.52296220937E+03  0.52369850981E+03  0.00000000000E+00 0. -1.
<mgrwt>
<rscale>  1 0.86272341E+02</rscale>
<asrwt>0</asrwt>
<pdfrwt beam="1">  1       21 0.17516109E-03 0.86272341E+02</pdfrwt>
<pdfrwt beam="2">  1        2 0.45209488E+00 0.86272341E+02</pdfrwt>
<totfact> 0.16390635E+06</totfact>
</mgrwt>
</event>
<event>
 6    2  0.7993170E+000  0.8375786E+02  0.7546771E-02  0.1318713E+00
          2   -1    0    0  502    0 -0.00000000000E+00  0.00000000000E+00  0.17792181772E+02  0.17792181772E+02  0.00000000000E+00 0. -1.
         21   -1    0    0  501  502  0.00000000000E+00 -0.00000000000E+00 -0.20524181526E+03  0.20524181526E+03  0.00000000000E+00 0.  1.
         24    2    1    2    0    0  0.10371466116E+02  0.20007150811E+02 -0.89720150277E+02  0.12273990308E+03  0.80669232359E+02 0.  0.
        -11    1    3    3    0    0  0.30559025266E+02 -0.58851004990E+01 -0.83782018607E+02  0.89375136783E+02  0.00000000000E+00 0.  1.
         12    1    3    3    0    0 -0.20187559150E+02  0.25892251310E+02 -0.59381316693E+01  0.33364766297E+02  0.00000000000E+00 0. -1.
          1    1    1    2  501    0 -0.10371466116E+02 -0.20007150811E+02 -0.97729483208E+02  0.10029409395E+03  0.00000000000E+00 0. -1.
<mgrwt>
<rscale>  1 0.83757856E+02</rscale>
<asrwt>0</asrwt>
<pdfrwt beam="1">  1       21 0.31575664E-01 0.83757856E+02</pdfrwt>
<pdfrwt beam="2">  1        2 0.27372587E-02 0.83757856E+02</pdfrwt>
<totfact> 0.38169035E+05</totfact>
</mgrwt>
</event>
<event>
 6    2  0.7993170E+000  0.9174275E+02  0.7546771E-02  0.1298685E+00
         21   -1    0    0  501  502  0.00000000000E+00  0.00000000000E+00  0.15733919766E+02  0.15733919766E+02  0.00000000000E+00 0.  1.
          2   -1    0    0  502    0 -0.00000000000E+00 -0.00000000000E+00 -0.35820114163E+03  0.35820114163E+03  0.00000000000E+00 0. -1.
         24    2    1    2    0    0  0.17982424138E+02 -0.38319261812E+02 -0.30103235366E+03  0.31470177931E+03  0.81394094044E+02 0.  0.
        -13    1    3    3    0    0  0.24008544121E+02  0.14361210547E+01 -0.21401242078E+02  0.32194499483E+02  0.00000000000E+00 0.  1.
         14    1    3    3    0    0 -0.60261199823E+01 -0.39755382867E+02 -0.27963111159E+03  0.28250727983E+03  0.00000000000E+00 0. -1.
          1    1    1    2  501    0 -0.17982424138E+02  0.38319261812E+02 -0.41434868200E+02  0.59233282084E+02  0.00000000000E+00 0. -1.
<mgrwt>
<rscale>  1 0.91742749E+02</rscale>
<asrwt>0</asrwt>
<pdfrwt beam="1">  1       21 0.24206033E-02 0.91742749E+02</pdfrwt>
<pdfrwt beam="2">  1        2 0.55107862E-01 0.91742749E+02</pdfrwt>
<totfact> 0.94988602E+05</totfact>
</mgrwt>
</event>
<event>
 6    2  0.7993170E+000  0.8747532E+02  0.7546771E-02  0.1309083E+00
         21   -1    0    0  501  502  0.00000000000E+00  0.00000000000E+00  0.28084028203E+01  0.28084028203E+01  0.00000000000E+00 0. -1.
          2   -1    0    0  502    0 -0.00000000000E+00 -0.00000000000E+00 -0.20946316570E+04  0.20946316570E+04  0.00000000000E+00 0. -1.
         24    2    1    2    0    0  0.35375886785E+02 -0.17066099620E+02 -0.18782047796E+04  0.18802407094E+04  0.78161539257E+02 0.  0.
        -11    1    3    3    0    0  0.30675677315E+02  0.16244978597E+02 -0.36145595560E+03  0.36311885705E+03  0.00000000000E+00 0.  1.
         12    1    3    3    0    0  0.47002094698E+01 -0.33311078217E+02 -0.15167488240E+04  0.15171218524E+04  0.00000000000E+00 0. -1.
          1    1    1    2  501    0 -0.35375886785E+02  0.17066099620E+02 -0.21361847461E+03  0.21719935041E+03  0.00000000000E+00 0. -1.
<mgrwt>
<rscale>  1 0.87475318E+02</rscale>
<asrwt>0</asrwt>
<pdfrwt beam="1">  1       21 0.43206129E-03 0.87475318E+02</pdfrwt>
<pdfrwt beam="2">  1        2 0.32225153E+00 0.87475318E+02</pdfrwt>
<totfact> 0.11712908E+06</totfact>
</mgrwt>
</event>
<event>
 6    2  0.7993170E+000  0.8624672E+02  0.7546771E-02  0.1312204E+00
          2   -1    0    0  502    0 -0.00000000000E+00  0.00000000000E+00  0.27206067291E+03  0.27206067291E+03  0.00000000000E+00 0. -1.
         21   -1    0    0  501  502  0.00000000000E+00 -0.00000000000E+00 -0.15873894645E+02  0.15873894645E+02  0.00000000000E+00 0.  1.
         24    2    1    2    0    0  0.25977341632E+02  0.10433344002E+02  0.11362591854E+03  0.14265113536E+03  0.81577080787E+02 0.  0.
        -13    1    3    3    0    0  0.21387808652E+02  0.40334203488E+02  0.32421450940E+02  0.55994971301E+02  0.00000000000E+00 0.  1.
         14    1    3    3    0    0  0.45895329796E+01 -0.29900859486E+02  0.81204467597E+02  0.86656164055E+02  0.00000000000E+00 0. -1.
          1    1    1    2  501    0 -0.25977341632E+02 -0.10433344002E+02  0.14256085973E+03  0.14528343220E+03  0.00000000000E+00 0. -1.
<mgrwt>
<rscale>  1 0.86246722E+02</rscale>
<asrwt>0</asrwt>
<pdfrwt beam="1">  1       21 0.24421378E-02 0.86246722E+02</pdfrwt>
<pdfrwt beam="2">  1        2 0.41855485E-01 0.86246722E+02</pdfrwt>
<totfact> 0.12400141E+06</totfact>
</mgrwt>
</event>
<event>
 6    2  0.7993170E+000  0.9461116E+02  0.7546771E-02  0.1292054E+00
         -1   -1    0    0    0  501 -0.00000000000E+00  0.00000000000E+00  0.42143995862E+03  0.42143995862E+03  0.00000000000E+00 0.  1.
         21   -1    0    0  501  502  0.00000000000E+00 -0.00000000000E+00 -0.25989601987E+02  0.25989601987E+02  0.00000000000E+00 0.  1.
         24    2    1    2    0    0  0.36550398375E+02 -0.33768707748E+02  0.38516612470E+03  0.39661595347E+03  0.80467469703E+02 0.  0.
        -11    1    3    3    0    0  0.60862452834E+02 -0.32356630991E+02  0.31126150727E+03  0.31880231436E+03  0.00000000000E+00 0.  1.
         12    1    3    3    0    0 -0.24312054459E+02 -0.14120767575E+01  0.73904617434E+02  0.77813639105E+02  0.00000000000E+00 0. -1.
         -2    1    1    2    0  502 -0.36550398375E+02  0.33768707748E+02  0.10284231930E+02  0.50813607142E+02  0.00000000000E+00 0.  1.
<mgrwt>
<rscale>  1 0.94611156E+02</rscale>
<asrwt>0</asrwt>
<pdfrwt beam="1">  1       21 0.39984006E-02 0.94611156E+02</pdfrwt>
<pdfrwt beam="2">  1       -1 0.64836912E-01 0.94611156E+02</pdfrwt>
<totfact> 0.88217121E+04</totfact>
</mgrwt>
</event>
<event>
 6    2  0.7993170E+000  0.8177973E+02  0.7546771E-02  0.1324075E+00
          2   -1    0    0  502    0 -0.00000000000E+00  0.00000000000E+00  0.79153649867E+02  0.79153649867E+02  0.00000000000E+00 0. -1.
         21   -1    0    0  501  502  0.00000000000E+00 -0.00000000000E+00 -0.48507871368E+02  0.48507871368E+02  0.00000000000E+00 0.  1.
         24    2    1    2    0    0 -0.12343838704E+01 -0.23589560235E+02  0.51085340873E+02  0.96424255580E+02  0.78293894758E+02 0.  0.
        -13    1    3    3    0    0  0.12416281676E+02 -0.23712135627E+02 -0.13802889823E+02  0.30115597190E+02  0.00000000000E+00 0.  1.
         14    1    3    3    0    0 -0.13650665546E+02  0.12257539263E+00  0.64888230696E+02  0.66308658390E+02  0.00000000000E+00 0. -1.
          1    1    1    2  501    0  0.12343838704E+01  0.23589560235E+02 -0.20439562374E+02  0.31237265656E+02  0.00000000000E+00 0. -1.
<mgrwt>
<rscale>  1 0.81779735E+02</rscale>
<asrwt>0</asrwt>
<pdfrwt beam="1">  1       21 0.74627494E-02 0.81779735E+02</pdfrwt>
<pdfrwt beam="2">  1        2 0.12177485E-01 0.81779735E+02</pdfrwt>
<totfact> 0.76210513E+05</totfact>
</mgrwt>
</event>
<event>
 6    2  0.7993170E+000  0.9297335E+02  0.7546771E-02  0.1295807E+00
         -1   -1    0    0    0  501 -0.00000000000E+00  0.00000000000E+00  0.75730311758E+03  0.75730311758E+03  0.00000000000E+00 0.  1.
         21   -1    0    0  501  502  0.00000000000E+00 -0.00000000000E+00 -0.58942724274E+01  0.58942724274E+01  0.00000000000E+00 0. -1.
         24    2    1    2    0    0 -0.25942155479E+02  0.25251769761E+02  0.61838590060E+03  0.62533604269E+03  0.85635255112E+02 0.  0.
        -13    1    3    3    0    0  0.14926773471E+02 -0.15220279341E+02  0.35977931411E+03  0.36041034993E+03  0.00000000000E+00 0.  1.
         14    1    3    3    0    0 -0.40868928950E+02  0.40472049101E+02  0.25860658649E+03  0.26492569277E+03  0.00000000000E+00 0. -1.
         -2    1    1    2    0  502  0.25942155479E+02 -0.25251769761E+02  0.13302294454E+03  0.13786134731E+03  0.00000000000E+00 0.  1.
<mgrwt>
<rscale>  1 0.92973352E+02</rscale>
<asrwt>0</asrwt>
<pdfrwt beam="1">  1       21 0.90681174E-03 0.92973352E+02</pdfrwt>
<pdfrwt beam="2">  1       -1 0.11650809E+00 0.92973352E+02</pdfrwt>
<totfact> 0.27817088E+05</totfact>
</mgrwt>
</event>
<event>
 6    2  0.7993170E+000  0.8689601E+02  0.7546771E-02  0.1310547E+00
         21   -1    0    0  501  502  0.00000000000E+00  0.00000000000E+00  0.17711459264E+02  0.17711459264E+02  0.00000000000E+00 0.  1.
          2   -1    0    0  502    0 -0.00000000000E+00 -0.00000000000E+00 -0.27026329032E+03  0.27026329032E+03  0.00000000000E+00 0. -1.
         24    2    1    2    0    0  0.23154573644E+02  0.19439751212E+02 -0.23998720355E+03  0.25523474237E+03  0.81467034059E+02 0.  0.
        -11    1    3    3    0    0 -0.86687757823E+01  0.20274844013E+02 -0.12134029603E+02  0.25168465343E+02  0.00000000000E+00 0.  1.
         12    1    3    3    0    0  0.31823349426E+02 -0.83509280047E+00 -0.22785317395E+03  0.23006627703E+03  0.00000000000E+00 0. -1.
          1    1    1    2  501    0 -0.23154573644E+02 -0.19439751212E+02 -0.12564627503E+02  0.32740007210E+02  0.00000000000E+00 0. -1.
<mgrwt>
<rscale>  1 0.86896006E+02</rscale>
<asrwt>0</asrwt>
<pdfrwt beam="1">  1       21 0.27248401E-02 0.86896006E+02</pdfrwt>
<pdfrwt beam="2">  1        2 0.41578965E-01 0.86896006E+02</pdfrwt>
<totfact> 0.10472007E+06</totfact>
</mgrwt>
</event>
<event>
 6    2  0.7993170E+000  0.1504309E+03  0.7546771E-02  0.1199945E+00
         21   -1    0    0  501  502  0.00000000000E+00  0.00000000000E+00  0.28145666536E+02  0.28145666536E+02  0.00000000000E+00 0. -1.
          2   -1    0    0  502    0 -0.00000000000E+00 -0.00000000000E+00 -0.10422834931E+04  0.10422834931E+04  0.00000000000E+00 0. -1.
         24    2    1    2    0    0 -0.12656083197E+03  0.11035268981E+02 -0.84823994524E+03  0.86147574766E+03  0.80560770580E+02 0.  0.
        -13    1    3    3    0    0 -0.52356494768E+02 -0.16588708529E+02 -0.17052797747E+03  0.17915406469E+03  0.00000000000E+00 0.  1.
         14    1    3    3    0    0 -0.74204337198E+02  0.27623977510E+02 -0.67771196776E+03  0.68232168296E+03  0.00000000000E+00 0. -1.
          1    1    1    2  501    0  0.12656083197E+03 -0.11035268981E+02 -0.16589788134E+03  0.20895341199E+03  0.00000000000E+00 0. -1.
<mgrwt>
<rscale>  1 0.15043091E+03</rscale>
<asrwt>0</asrwt>
<pdfrwt beam="1">  1       21 0.43301024E-02 0.15043091E+03</pdfrwt>
<pdfrwt beam="2">  1        2 0.16035131E+00 0.15043091E+03</pdfrwt>
<totfact> 0.10798750E+05</totfact>
</mgrwt>
</event>
<event>
 6    2  0.7993170E+000  0.8591991E+02  0.7546771E-02  0.1313044E+00
          2   -1    0    0  502    0 -0.00000000000E+00  0.00000000000E+00  0.20410388319E+03  0.20410388319E+03  0.00000000000E+00 0. -1.
         21   -1    0    0  501  502  0.00000000000E+00 -0.00000000000E+00 -0.15880601486E+02  0.15880601486E+02  0.00000000000E+00 0.  1.
         24    2    1    2    0    0 -0.27372543150E+02 -0.52812301153E-01  0.13281338086E+03  0.15818225155E+03  0.81443057795E+02 0.  0.
        -11    1    3    3    0    0 -0.19669982011E+02 -0.38951275822E+02  0.49992199373E+02  0.66357592472E+02  0.00000000000E+00 0.  1.
         12    1    3    3    0    0 -0.77025611391E+01  0.38898463521E+02  0.82821181488E+02  0.91824659082E+02  0.00000000000E+00 0. -1.
          1    1    1    2  501    0  0.27372543150E+02  0.52812301153E-01  0.55409900846E+02  0.61802233126E+02  0.00000000000E+00 0. -1.
<mgrwt>
<rscale>  1 0.85919908E+02</rscale>
<asrwt>0</asrwt>
<pdfrwt beam="1">  1       21 0.24431696E-02 0.85919908E+02</pdfrwt>
<pdfrwt beam="2">  1        2 0.31400595E-01 0.85919908E+02</pdfrwt>
<totfact> 0.16764119E+06</totfact>
</mgrwt>
</event>
<event>
 6    2  0.7993170E+000  0.8551604E+02  0.7546771E-02  0.1314089E+00
         21   -1    0    0  501  502  0.00000000000E+00  0.00000000000E+00  0.68640004264E+01  0.68640004264E+01  0.00000000000E+00 0. -1.
          2   -1    0    0  502    0 -0.00000000000E+00 -0.00000000000E+00 -0.13963500406E+04  0.13963500406E+04  0.00000000000E+00 0. -1.
         24    2    1    2    0    0 -0.25971919205E+02  0.26240706453E+02 -0.13329504848E+04  0.13356908281E+04  0.77135452796E+02 0.  0.
        -11    1    3    3    0    0  0.94797124949E+01  0.41153064916E+02 -0.47326184452E+03  0.47514230834E+03  0.00000000000E+00 0.  1.
         12    1    3    3    0    0 -0.35451631700E+02 -0.14912358463E+02 -0.85968864024E+03  0.86054851972E+03  0.00000000000E+00 0. -1.
          1    1    1    2  501    0  0.25971919205E+02 -0.26240706453E+02 -0.56535555364E+02  0.67523212917E+02  0.00000000000E+00 0. -1.
<mgrwt>
<rscale>  1 0.85516041E+02</rscale>
<asrwt>0</asrwt>
<pdfrwt beam="1">  1       21 0.10560006E-02 0.85516041E+02</pdfrwt>
<pdfrwt beam="2">  1        2 0.21482297E+00 0.85516041E+02</pdfrwt>
<totfact> 0.66204601E+05</totfact>
</mgrwt>
</event>
<event>
 6    2  0.7993170E+000  0.9322106E+02  0.7546771E-02  0.1295234E+00
          2   -1    0    0  502    0 -0.00000000000E+00  0.00000000000E+00  0.53262654911E+03  0.53262654911E+03  0.00000000000E+00 0. -1.
         21   -1    0    0  501  502  0.00000000000E+00 -0.00000000000E+00 -0.87713677359E+01  0.87713677359E+01  0.00000000000E+00 0.  1.
         24    2    1    2    0    0 -0.13679524299E+02 -0.41194300589E+02  0.36565993116E+03  0.37735573637E+03  0.82498889247E+02 0.  0.
        -11    1    3    3    0    0 -0.20901720134E+02  0.17034005239E+02  0.55602691005E+02  0.61795618664E+02  0.00000000000E+00 0.  1.
         12    1    3    3    0    0  0.72221958345E+01 -0.58228305828E+02  0.31005724015E+03  0.31556011770E+03  0.00000000000E+00 0. -1.
          1    1    1    2  501    0  0.13679524299E+02  0.41194300589E+02  0.15819525022E+03  0.16404218048E+03  0.00000000000E+00 0. -1.
<mgrwt>
<rscale>  1 0.93221063E+02</rscale>
<asrwt>0</asrwt>
<pdfrwt beam="1">  1       21 0.13494416E-02 0.93221063E+02</pdfrwt>
<pdfrwt beam="2">  1        2 0.81942521E-01 0.93221063E+02</pdfrwt>
<totfact> 0.15835759E+06</totfact>
</mgrwt>
</event>
<event>
 6    2  0.7993170E+000  0.8544119E+02  0.7546771E-02  0.1314283E+00
         -1   -1    0    0    0  501 -0.00000000000E+00  0.00000000000E+00  0.29214825553E+02  0.29214825553E+02  0.00000000000E+00 0.  1.
         21   -1    0    0  501  502  0.00000000000E+00 -0.00000000000E+00 -0.10015833927E+03  0.10015833927E+03  0.00000000000E+00 0. -1.
         24    2    1    2    0    0 -0.42955427386E+01  0.21521607103E+02 -0.62492729141E+02  0.10585621307E+03  0.82574604999E+02 0.  0.
        -11    1    3    3    0    0 -0.53306607096E+00  0.31654488660E+02  0.95023415468E+01  0.33054278189E+02  0.00000000000E+00 0.  1.
         12    1    3    3    0    0 -0.37624766677E+01 -0.10132881557E+02 -0.71995070688E+02  0.72801934883E+02  0.00000000000E+00 0. -1.
         -2    1    1    2    0  502  0.42955427386E+01 -0.21521607103E+02 -0.84507845739E+01  0.23516951750E+02  0.00000000000E+00 0.  1.
<mgrwt>
<rscale>  1 0.85441188E+02</rscale>
<asrwt>0</asrwt>
<pdfrwt beam="1">  1       21 0.15408975E-01 0.85441188E+02</pdfrwt>
<pdfrwt beam="2">  1       -1 0.44945885E-02 0.85441188E+02</pdfrwt>
<totfact> 0.62797557E+05</totfact>
</mgrwt>
</event>
<event>
 6    2  0.7993170E+000  0.8845342E+02  0.7546771E-02  0.1306641E+00
         21   -1    0    0  501  502  0.00000000000E+00  0.00000000000E+00  0.22412703377E+03  0.22412703377E+03  0.00000000000E+00 0. -1.
          4   -1    0    0  502    0 -0.00000000000E+00 -0.00000000000E+00 -0.23948081635E+02  0.23948081635E+02  0.00000000000E+00 0. -1.
         24    2    1    2    0    0  0.33493874264E+02  0.16567778790E+02  0.70476281771E+02  0.11309691862E+03  0.80172787167E+02 0.  0.
        -11    1    3    3    0    0  0.32811441687E+02  0.22941453174E+02  0.86784408166E+02  0.95574235441E+02  0.00000000000E+00 0.  1.
         12    1    3    3    0    0  0.68243257680E+00 -0.63736743848E+01 -0.16308126394E+02  0.17522683181E+02  0.00000000000E+00 0. -1.
          3    1    1    2  501    0 -0.33493874264E+02 -0.16567778790E+02  0.12970267037E+03  0.13497819679E+03  0.00000000000E+00 0. -1.
<mgrwt>
<rscale>  1 0.88453415E+02</rscale>
<asrwt>0</asrwt>
<pdfrwt beam="1">  1       21 0.34481081E-01 0.88453415E+02</pdfrwt>
<pdfrwt beam="2">  1        4 0.36843204E-02 0.88453415E+02</pdfrwt>
<totfact> 0.12009737E+05</totfact>
</mgrwt>
</event>
<event>
 6    2  0.7993170E+000  0.8537184E+02  0.7546771E-02  0.1314463E+00
          2   -1    0    0  502    0 -0.00000000000E+00  0.00000000000E+00  0.29164633207E+04  0.29164633207E+04  0.00000000000E+00 0. -1.
         21   -1    0    0  501  502  0.00000000000E+00 -0.00000000000E+00 -0.10979800631E+02  0.10979800631E+02  0.00000000000E+00 0. -1.
         24    2    1    2    0    0  0.25960829763E+01  0.26578711865E+02  0.28986107928E+04  0.28998677346E+04  0.81087500723E+02 0.  0.
        -13    1    3    3    0    0 -0.20274875851E+02  0.80290299310E+01  0.21653530384E+03  0.21763059004E+03  0.00000000000E+00 0.  1.
         14    1    3    3    0    0  0.22870958827E+02  0.18549681934E+02  0.26820754890E+04  0.26822371446E+04  0.00000000000E+00 0. -1.
          1    1    1    2  501    0 -0.25960829763E+01 -0.26578711865E+02  0.68727272918E+01  0.27575386700E+02  0.00000000000E+00 0. -1.
<mgrwt>
<rscale>  1 0.85371836E+02</rscale>
<asrwt>0</asrwt>
<pdfrwt beam="1">  1       21 0.16892024E-02 0.85371836E+02</pdfrwt>
<pdfrwt beam="2">  1        2 0.44868605E+00 0.85371836E+02</pdfrwt>
<totfact> 0.51909673E+04</totfact>
</mgrwt>
</event>
<event>
 6    2  0.7993170E+000  0.8728651E+02  0.7546771E-02  0.1309559E+00
          2   -1    0    0  502    0 -0.00000000000E+00  0.00000000000E+00  0.31855261444E+04  0.31855261444E+04  0.00000000000E+00 0. -1.
         21   -1    0    0  501  502  0.00000000000E+00 -0.00000000000E+00 -0.15388082296E+01  0.15388082296E+01  0.00000000000E+00 0. -1.
         24    2    1    2    0    0  0.16687290339E+02  0.26000934957E+02  0.29154265023E+04  0.29167328684E+04  0.81635905008E+02 0.  0.
        -11    1    3    3    0    0 -0.17142677723E+02 -0.18981625917E+02  0.50297619194E+03  0.50362607476E+03  0.00000000000E+00 0.  1.
         12    1    3    3    0    0  0.33829968062E+02  0.44982560873E+02  0.24124503103E+04  0.24131067936E+04  0.00000000000E+00 0. -1.
          1    1    1    2  501    0 -0.16687290339E+02 -0.26000934957E+02  0.26856083393E+03  0.27033208429E+03  0.00000000000E+00 0. -1.
<mgrwt>
<rscale>  1 0.87286512E+02</rscale>
<asrwt>0</asrwt>
<pdfrwt beam="1">  1       21 0.23674228E-03 0.87286512E+02</pdfrwt>
<pdfrwt beam="2">  1        2 0.49007567E+00 0.87286512E+02</pdfrwt>
<totfact> 0.75277455E+05</totfact>
</mgrwt>
</event>
<event>
 6    2  0.7993170E+000  0.8277812E+02  0.7546771E-02  0.1321347E+00
         21   -1    0    0  501  502  0.00000000000E+00  0.00000000000E+00  0.33843797775E+01  0.33843797775E+01  0.00000000000E+00 0.  1.
          2   -1    0    0  502    0 -0.00000000000E+00 -0.00000000000E+00 -0.82238099799E+03  0.82238099799E+03  0.00000000000E+00 0. -1.
         24    2    1    2    0    0  0.17144212073E+02 -0.11844998869E+02 -0.70866081193E+03  0.71347905556E+03  0.80112348352E+02 0.  0.
        -11    1    3    3    0    0  0.46225566443E+02  0.71717438182E+01 -0.34388772302E+03  0.34705475496E+03  0.00000000000E+00 0.  1.
         12    1    3    3    0    0 -0.29081354370E+02 -0.19016742688E+02 -0.36477308891E+03  0.36642430060E+03  0.00000000000E+00 0. -1.
          1    1    1    2  501    0 -0.17144212073E+02  0.11844998869E+02 -0.11033580628E+03  0.11228632220E+03  0.00000000000E+00 0. -1.
<mgrwt>
<rscale>  1 0.82778115E+02</rscale>
<asrwt>0</asrwt>
<pdfrwt beam="1">  1       21 0.52067346E-03 0.82778115E+02</pdfrwt>
<pdfrwt beam="2">  1        2 0.12652024E+00 0.82778115E+02</pdfrwt>
<totfact> 0.41625549E+06</totfact>
</mgrwt>
</event>
<event>
 6    2  0.7993170E+000  0.9378648E+02  0.7546771E-02  0.1293933E+00
         21   -1    0    0  501  502  0.00000000000E+00  0.00000000000E+00  0.10748590684E+02  0.10748590684E+02  0.00000000000E+00 0. -1.
          2   -1    0    0  502    0 -0.00000000000E+00 -0.00000000000E+00 -0.67212864432E+03  0.67212864432E+03  0.00000000000E+00 0. -1.
         24    2    1    2    0    0 -0.29504412977E+02  0.19016255825E+02 -0.62618654691E+03  0.63317098503E+03  0.86969974023E+02 0.  0.
        -13    1    3    3    0    0 -0.10387307914E+02 -0.34876467692E+02 -0.26463668952E+03  0.26712701399E+03  0.00000000000E+00 0.  1.
         14    1    3    3    0    0 -0.19117105064E+02  0.53892723517E+02 -0.36154985739E+03  0.36604397104E+03  0.00000000000E+00 0. -1.
          1    1    1    2  501    0  0.29504412977E+02 -0.19016255825E+02 -0.35193506721E+02  0.49706249970E+02  0.00000000000E+00 0. -1.
<mgrwt>
<rscale>  1 0.93786485E+02</rscale>
<asrwt>0</asrwt>
<pdfrwt beam="1">  1       21 0.16536290E-02 0.93786485E+02</pdfrwt>
<pdfrwt beam="2">  1        2 0.10340443E+00 0.93786485E+02</pdfrwt>
<totfact> 0.88457148E+05</totfact>
</mgrwt>
</event>
<event>
 6    2  0.7993170E+000  0.1005010E+03  0.7546771E-02  0.1279246E+00
          2   -1    0    0  502    0 -0.00000000000E+00  0.00000000000E+00  0.11380153913E+04  0.11380153913E+04  0.00000000000E+00 0. -1.
         21   -1    0    0  501  502  0.00000000000E+00 -0.00000000000E+00 -0.60106086055E+01  0.60106086055E+01  0.00000000000E+00 0. -1.
         24    2    1    2    0    0  0.39515005784E+02 -0.45673860184E+02  0.82826239817E+03  0.83433748972E+03  0.80330002730E+02 0.  0.
        -11    1    3    3    0    0 -0.60606882272E+01  0.15859073022E+02  0.62794342281E+02  0.65048993546E+02  0.00000000000E+00 0.  1.
         12    1    3    3    0    0  0.45575694012E+02 -0.61532933206E+02  0.76546805589E+03  0.76928849617E+03  0.00000000000E+00 0. -1.
          1    1    1    2  501    0 -0.39515005784E+02  0.45673860184E+02  0.30374238453E+03  0.30968851019E+03  0.00000000000E+00 0. -1.
<mgrwt>
<rscale>  1 0.10050098E+03</rscale>
<asrwt>0</asrwt>
<pdfrwt beam="1">  1       21 0.92470992E-03 0.10050098E+03</pdfrwt>
<pdfrwt beam="2">  1        2 0.17507912E+00 0.10050098E+03</pdfrwt>
<totfact> 0.11316811E+06</totfact>
</mgrwt>
</event>
<event>
 6    2  0.7993170E+000  0.8359806E+02  0.7546771E-02  0.1319140E+00
         -3   -1    0    0    0  501 -0.00000000000E+00  0.00000000000E+00  0.40756669994E+02  0.40756669994E+02  0.00000000000E+00 0.  1.
         21   -1    0    0  501  502  0.00000000000E+00 -0.00000000000E+00 -0.15986950143E+03  0.15986950143E+03  0.00000000000E+00 0.  1.
         24    2    1    2    0    0  0.25886268771E+02  0.40988013538E+01 -0.52245839087E+01  0.83761155237E+02  0.79383472878E+02 0.  0.
        -11    1    3    3    0    0  0.10084597035E+02 -0.10339175476E+02  0.35184360416E+02  0.38033365152E+02  0.00000000000E+00 0.  1.
         12    1    3    3    0    0  0.15801671736E+02  0.14437976830E+02 -0.40408944325E+02  0.45727790085E+02  0.00000000000E+00 0. -1.
         -4    1    1    2    0  502 -0.25886268771E+02 -0.40988013538E+01 -0.11388824753E+03  0.11686501619E+03  0.00000000000E+00 0.  1.
<mgrwt>
<rscale>  1 0.83598055E+02</rscale>
<asrwt>0</asrwt>
<pdfrwt beam="1">  1       21 0.24595308E-01 0.83598055E+02</pdfrwt>
<pdfrwt beam="2">  1       -3 0.62702570E-02 0.83598055E+02</pdfrwt>
<totfact> 0.11105798E+05</totfact>
</mgrwt>
</event>
<event>
 6    2  0.7993170E+000  0.9827575E+02  0.7546771E-02  0.1283964E+00
         21   -1    0    0  501  502  0.00000000000E+00  0.00000000000E+00  0.58313604173E+01  0.58313604173E+01  0.00000000000E+00 0. -1.
          2   -1    0    0  502    0 -0.00000000000E+00 -0.00000000000E+00 -0.19050710736E+04  0.19050710736E+04  0.00000000000E+00 0. -1.
         24    2    1    2    0    0 -0.57188002346E+02  0.54974655268E-02 -0.17190167134E+04  0.17218236216E+04  0.79922809154E+02 0.  0.
        -13    1    3    3    0    0 -0.51050677017E+02  0.85411839909E+01 -0.48358468758E+03  0.48634686543E+03  0.00000000000E+00 0.  1.
         14    1    3    3    0    0 -0.61373253292E+01 -0.85356865254E+01 -0.12354320258E+04  0.12354767562E+04  0.00000000000E+00 0. -1.
          1    1    1    2  501    0  0.57188002346E+02 -0.54974655268E-02 -0.18022299982E+03  0.18907881243E+03  0.00000000000E+00 0. -1.
<mgrwt>
<rscale>  1 0.98275750E+02</rscale>
<asrwt>0</asrwt>
<pdfrwt beam="1">  1       21 0.89713200E-03 0.98275750E+02</pdfrwt>
<pdfrwt beam="2">  1        2 0.29308798E+00 0.98275750E+02</pdfrwt>
<totfact> 0.47490025E+05</totfact>
</mgrwt>
</event>
<event>
 6    2  0.7993170E+000  0.1073166E+03  0.7546771E-02  0.1265621E+00
          2   -1    0    0  502    0 -0.00000000000E+00  0.00000000000E+00  0.50066376412E+03  0.50066376412E+03  0.00000000000E+00 0. -1.
         21   -1    0    0  501  502  0.00000000000E+00 -0.00000000000E+00 -0.17085896510E+02  0.17085896510E+02  0.00000000000E+00 0. -1.
         24    2    1    2    0    0  0.44479573378E+02  0.58502152689E+02  0.23126242375E+03  0.25494932287E+03  0.78204311104E+02 0.  0.
        -11    1    3    3    0    0 -0.17098104090E+02  0.34532798410E+02  0.11418533179E+03  0.12051202980E+03  0.00000000000E+00 0.  1.
         12    1    3    3    0    0  0.61577677468E+02  0.23969354279E+02  0.11707709196E+03  0.13443729307E+03  0.00000000000E+00 0. -1.
          1    1    1    2  501    0 -0.44479573378E+02 -0.58502152689E+02  0.25231544386E+03  0.26280033777E+03  0.00000000000E+00 0. -1.
<mgrwt>
<rscale>  1 0.10731658E+03</rscale>
<asrwt>0</asrwt>
<pdfrwt beam="1">  1       21 0.26285998E-02 0.10731658E+03</pdfrwt>
<pdfrwt beam="2">  1        2 0.77025183E-01 0.10731658E+03</pdfrwt>
<totfact> 0.59011130E+05</totfact>
</mgrwt>
</event>
<event>
 6    2  0.7993170E+000  0.8315813E+02  0.7546771E-02  0.1320321E+00
          2   -1    0    0  502    0 -0.00000000000E+00  0.00000000000E+00  0.86861741455E+03  0.86861741455E+03  0.00000000000E+00 0. -1.
         21   -1    0    0  501  502  0.00000000000E+00 -0.00000000000E+00 -0.57050699706E+01  0.57050699706E+01  0.00000000000E+00 0.  1.
         24    2    1    2    0    0  0.29133265460E+02  0.68178182478E+00  0.80698564657E+03  0.81125896469E+03  0.77884928212E+02 0.  0.
        -11    1    3    3    0    0  0.45668540414E+02  0.21400621863E+02  0.36353802228E+03  0.36701974858E+03  0.00000000000E+00 0.  1.
         12    1    3    3    0    0 -0.16535274955E+02 -0.20718840039E+02  0.44344762428E+03  0.44423921611E+03  0.00000000000E+00 0. -1.
          1    1    1    2  501    0 -0.29133265460E+02 -0.68178182478E+00  0.55926698011E+02  0.63063519829E+02  0.00000000000E+00 0. -1.
<mgrwt>
<rscale>  1 0.83158127E+02</rscale>
<asrwt>0</asrwt>
<pdfrwt beam="1">  1       21 0.87770376E-03 0.83158127E+02</pdfrwt>
<pdfrwt beam="2">  1        2 0.13363334E+00 0.83158127E+02</pdfrwt>
<totfact> 0.17391840E+06</totfact>
</mgrwt>
</event>
<event>
 6    2  0.7993170E+000  0.9346603E+02  0.7546771E-02  0.1294669E+00
          2   -1    0    0  502    0 -0.00000000000E+00  0.00000000000E+00  0.68589395055E+03  0.68589395055E+03  0.00000000000E+00 0. -1.
         21   -1    0    0  501  502  0.00000000000E+00 -0.00000000000E+00 -0.10599026979E+02  0.10599026979E+02  0.00000000000E+00 0. -1.
         24    2    1    2    0    0 -0.44005947943E+02  0.10297083614E+02  0.22095040727E+03  0.23990619183E+03  0.81812865850E+02 0.  0.
        -11    1    3    3    0    0 -0.67010661130E+02  0.14924258641E+01  0.18053456721E+03  0.19257566304E+03  0.00000000000E+00 0.  1.
         12    1    3    3    0    0  0.23004713187E+02  0.88046577498E+01  0.40415840068E+02  0.47330528787E+02  0.00000000000E+00 0. -1.
          1    1    1    2  501    0  0.44005947943E+02 -0.10297083614E+02  0.45434451630E+03  0.45658678570E+03  0.00000000000E+00 0. -1.
<mgrwt>
<rscale>  1 0.93466028E+02</rscale>
<asrwt>0</asrwt>
<pdfrwt beam="1">  1       21 0.16306201E-02 0.93466028E+02</pdfrwt>
<pdfrwt beam="2">  1        2 0.10552211E+00 0.93466028E+02</pdfrwt>
<totfact> 0.88326896E+05</totfact>
</mgrwt>
</event>
<event>
 6    2  0.7993170E+000  0.8426015E+02  0.7546771E-02  0.1317379E+00
          2   -1    0    0  502    0 -0.00000000000E+00  0.00000000000E+00  0.53305585525E+02  0.53305585525E+02  0.00000000000E+00 0. -1.
         21   -1    0    0  501  502  0.00000000000E+00 -0.00000000000E+00 -0.48050033789E+03  0.48050033789E+03  0.00000000000E+00 0. -1.
         24    2    1    2    0    0 -0.40218678779E+01  0.22558134496E+02  0.19530002991E+02  0.86493893729E+02  0.81084695118E+02 0.  0.
        -11    1    3    3    0    0  0.47274236405E+01 -0.23739912031E+02 -0.14641350097E+02  0.28289593319E+02  0.00000000000E+00 0.  1.
         12    1    3    3    0    0 -0.87492915184E+01  0.46298046527E+02  0.34171353088E+02  0.58204300410E+02  0.00000000000E+00 0. -1.
          1    1    1    2  501    0  0.40218678779E+01 -0.22558134496E+02 -0.44672475536E+03  0.44731202968E+03  0.00000000000E+00 0. -1.
<mgrwt>
<rscale>  1 0.84260149E+02</rscale>
<asrwt>0</asrwt>
<pdfrwt beam="1">  1       21 0.73923131E-01 0.84260149E+02</pdfrwt>
<pdfrwt beam="2">  1        2 0.82008591E-02 0.84260149E+02</pdfrwt>
<totfact> 0.16480738E+04</totfact>
</mgrwt>
</event>
<event>
 6    2  0.7993170E+000  0.9370546E+02  0.7546771E-02  0.1294119E+00
         21   -1    0    0  501  502  0.00000000000E+00  0.00000000000E+00  0.16928641671E+02  0.16928641671E+02  0.00000000000E+00 0. -1.
          2   -1    0    0  502    0 -0.00000000000E+00 -0.00000000000E+00 -0.30787075598E+03  0.30787075598E+03  0.00000000000E+00 0. -1.
         24    2    1    2    0    0 -0.46450544908E+02  0.13641477003E+02 -0.21761405034E+03  0.23693161071E+03  0.80230731205E+02 0.  0.
        -13    1    3    3    0    0 -0.30454340124E+02  0.32399179585E+02 -0.47593206912E+02  0.65132841288E+02  0.00000000000E+00 0.  1.
         14    1    3    3    0    0 -0.15996204784E+02 -0.18757702582E+02 -0.17002084343E+03  0.17179876942E+03  0.00000000000E+00 0. -1.
          1    1    1    2  501    0  0.46450544908E+02 -0.13641477003E+02 -0.73328063968E+02  0.87867786944E+02  0.00000000000E+00 0. -1.
<mgrwt>
<rscale>  1 0.93705460E+02</rscale>
<asrwt>0</asrwt>
<pdfrwt beam="1">  1       21 0.26044064E-02 0.93705460E+02</pdfrwt>
<pdfrwt beam="2">  1        2 0.47364732E-01 0.93705460E+02</pdfrwt>
<totfact> 0.99098115E+05</totfact>
</mgrwt>
</event>
<event>
 6    2  0.7993170E+000  0.8280362E+02  0.7546771E-02  0.1321278E+00
         -1   -1    0    0    0  501 -0.00000000000E+00  0.00000000000E+00  0.59420349533E+02  0.59420349533E+02  0.00000000000E+00 0.  1.
         21   -1    0    0  501  502  0.00000000000E+00 -0.00000000000E+00 -0.48580388363E+02  0.48580388363E+02  0.00000000000E+00 0. -1.
         24    2    1    2    0    0  0.26709410122E+01  0.24489042563E+02  0.91723228282E+01  0.83310088874E+02  0.79054362755E+02 0.  0.
        -11    1    3    3    0    0 -0.97507785746E+01 -0.21608252131E+02  0.23585217958E+02  0.33440346127E+02  0.00000000000E+00 0.  1.
         12    1    3    3    0    0  0.12421719587E+02  0.46097294694E+02 -0.14412895130E+02  0.49869742746E+02  0.00000000000E+00 0. -1.
         -2    1    1    2    0  502 -0.26709410122E+01 -0.24489042563E+02  0.16676383423E+01  0.24690649023E+02  0.00000000000E+00 0.  1.
<mgrwt>
<rscale>  1 0.82803619E+02</rscale>
<asrwt>0</asrwt>
<pdfrwt beam="1">  1       21 0.74739059E-02 0.82803619E+02</pdfrwt>
<pdfrwt beam="2">  1       -1 0.91415922E-02 0.82803619E+02</pdfrwt>
<totfact> 0.77244392E+05</totfact>
</mgrwt>
</event>
<event>
 6    2  0.7993170E+000  0.8460877E+02  0.7546771E-02  0.1316459E+00
         21   -1    0    0  501  502  0.00000000000E+00  0.00000000000E+00  0.57814655926E+02  0.57814655926E+02  0.00000000000E+00 0. -1.
         -3   -1    0    0    0  501 -0.00000000000E+00 -0.00000000000E+00 -0.57429074382E+02  0.57429074382E+02  0.00000000000E+00 0.  1.
         24    2    1    2    0    0 -0.19847749341E+02 -0.22338052886E+02 -0.55018635181E+01  0.84787470360E+02  0.79156319187E+02 0.  0.
        -13    1    3    3    0    0 -0.63375204734E+01  0.13197474949E+02 -0.34168997000E+02  0.37173348877E+02  0.00000000000E+00 0.  1.
         14    1    3    3    0    0 -0.13510228868E+02 -0.35535527834E+02  0.28667133481E+02  0.47614121483E+02  0.00000000000E+00 0. -1.
         -4    1    1    2    0  502  0.19847749341E+02  0.22338052886E+02  0.58874450621E+01  0.30456259948E+02  0.00000000000E+00 0.  1.
<mgrwt>
<rscale>  1 0.84608774E+02</rscale>
<asrwt>0</asrwt>
<pdfrwt beam="1">  1       21 0.88945624E-02 0.84608774E+02</pdfrwt>
<pdfrwt beam="2">  1       -3 0.88352422E-02 0.84608774E+02</pdfrwt>
<totfact> 0.39407444E+05</totfact>
</mgrwt>
</event>
<event>
 6    2  0.7993170E+000  0.8056234E+02  0.7546771E-02  0.1327463E+00
         21   -1    0    0  501  502  0.00000000000E+00  0.00000000000E+00  0.21366634574E+01  0.21366634574E+01  0.00000000000E+00 0.  1.
          2   -1    0    0  502    0 -0.00000000000E+00 -0.00000000000E+00 -0.13633290919E+04  0.13633290919E+04  0.00000000000E+00 0. -1.
         24    2    1    2    0    0 -0.20443161902E+02 -0.16561693521E+02 -0.11022319537E+04  0.11051721903E+04  0.76145109947E+02 0.  0.
        -13    1    3    3    0    0 -0.17970323128E+02 -0.39049524126E+01 -0.57679197545E+02  0.60539829832E+02  0.00000000000E+00 0.  1.
         14    1    3    3    0    0 -0.24728387747E+01 -0.12656741108E+02 -0.10445527562E+04  0.10446323605E+04  0.00000000000E+00 0. -1.
          1    1    1    2  501    0  0.20443161902E+02  0.16561693521E+02 -0.25896047469E+03  0.26029356507E+03  0.00000000000E+00 0. -1.
<mgrwt>
<rscale>  1 0.80562338E+02</rscale>
<asrwt>0</asrwt>
<pdfrwt beam="1">  1       21 0.32871702E-03 0.80562338E+02</pdfrwt>
<pdfrwt beam="2">  1        2 0.20974321E+00 0.80562338E+02</pdfrwt>
<totfact> 0.41182356E+06</totfact>
</mgrwt>
</event>
<event>
 6    2  0.7993170E+000  0.8512980E+02  0.7546771E-02  0.1315093E+00
         21   -1    0    0  501  502  0.00000000000E+00  0.00000000000E+00  0.76625512988E+02  0.76625512988E+02  0.00000000000E+00 0.  1.
         -3   -1    0    0    0  501 -0.00000000000E+00 -0.00000000000E+00 -0.89090507367E+02  0.89090507367E+02  0.00000000000E+00 0.  1.
         24    2    1    2    0    0  0.37227687291E+01 -0.29508813187E+02 -0.63802273010E+02  0.10638520846E+03  0.79764989033E+02 0.  0.
        -13    1    3    3    0    0  0.24093080136E+02  0.19322208471E+02 -0.14709019817E+02  0.34207886732E+02  0.00000000000E+00 0.  1.
         14    1    3    3    0    0 -0.20370311407E+02 -0.48831021658E+02 -0.49093253193E+02  0.72177321730E+02  0.00000000000E+00 0. -1.
         -4    1    1    2    0  502 -0.37227687291E+01  0.29508813187E+02  0.51337278631E+02  0.59330811894E+02  0.00000000000E+00 0.  1.
<mgrwt>
<rscale>  1 0.85129798E+02</rscale>
<asrwt>0</asrwt>
<pdfrwt beam="1">  1       21 0.11788541E-01 0.85129798E+02</pdfrwt>
<pdfrwt beam="2">  1       -3 0.13706232E-01 0.85129798E+02</pdfrwt>
<totfact> 0.11747002E+05</totfact>
</mgrwt>
</event>
<event>
 6    2  0.7993170E+000  0.7706829E+02  0.7546771E-02  0.1337583E+00
         -1   -1    0    0    0  501 -0.00000000000E+00  0.00000000000E+00  0.38808214246E+03  0.38808214246E+03  0.00000000000E+00 0.  1.
         21   -1    0    0  501  502  0.00000000000E+00 -0.00000000000E+00 -0.68280681568E+01  0.68280681568E+01  0.00000000000E+00 0. -1.
         24    2    1    2    0    0 -0.21209840526E+02  0.14836884796E+02  0.28466227525E+03  0.29491037997E+03  0.72591533779E+02 0.  0.
        -11    1    3    3    0    0 -0.15674030912E+02  0.36784103810E+02  0.25211711787E+03  0.25526806823E+03  0.00000000000E+00 0.  1.
         12    1    3    3    0    0 -0.55358096142E+01 -0.21947219014E+02  0.32545157384E+02  0.39642311734E+02  0.00000000000E+00 0. -1.
         -2    1    1    2    0  502  0.21209840526E+02 -0.14836884796E+02  0.96591799055E+02  0.99999830651E+02  0.00000000000E+00 0.  1.
<mgrwt>
<rscale>  1 0.77068290E+02</rscale>
<asrwt>0</asrwt>
<pdfrwt beam="1">  1       21 0.10504723E-02 0.77068290E+02</pdfrwt>
<pdfrwt beam="2">  1       -1 0.59704928E-01 0.77068290E+02</pdfrwt>
<totfact> 0.85962968E+05</totfact>
</mgrwt>
</event>
<event>
 6    2  0.7993170E+000  0.8407944E+02  0.7546771E-02  0.1317858E+00
          2   -1    0    0  502    0 -0.00000000000E+00  0.00000000000E+00  0.90185994193E+02  0.90185994193E+02  0.00000000000E+00 0. -1.
         21   -1    0    0  501  502  0.00000000000E+00 -0.00000000000E+00 -0.60510380109E+02  0.60510380109E+02  0.00000000000E+00 0. -1.
         24    2    1    2    0    0 -0.15867306179E+02  0.27772729283E+02  0.62576335757E+02  0.10481006497E+03  0.77757675028E+02 0.  0.
        -13    1    3    3    0    0 -0.18515504774E+02 -0.24713690891E+02  0.17020493509E+02  0.35260284086E+02  0.00000000000E+00 0.  1.
         14    1    3    3    0    0  0.26481985949E+01  0.52486420175E+02  0.45555842248E+02  0.69549780888E+02  0.00000000000E+00 0. -1.
          1    1    1    2  501    0  0.15867306179E+02 -0.27772729283E+02 -0.32900721672E+02  0.45886309328E+02  0.00000000000E+00 0. -1.
<mgrwt>
<rscale>  1 0.84079438E+02</rscale>
<asrwt>0</asrwt>
<pdfrwt beam="1">  1       21 0.93092892E-02 0.84079438E+02</pdfrwt>
<pdfrwt beam="2">  1        2 0.13874768E-01 0.84079438E+02</pdfrwt>
<totfact> 0.44950640E+05</totfact>
</mgrwt>
</event>
<event>
 6    2  0.7993170E+000  0.8392298E+02  0.7546771E-02  0.1318273E+00
         21   -1    0    0  501  502  0.00000000000E+00  0.00000000000E+00  0.71938183104E+01  0.71938183104E+01  0.00000000000E+00 0.  1.
         -1   -1    0    0    0  501 -0.00000000000E+00 -0.00000000000E+00 -0.12220275463E+04  0.12220275463E+04  0.00000000000E+00 0.  1.
         24    2    1    2    0    0 -0.17132329451E+02 -0.15585121301E+02 -0.11971335836E+04  0.12000716163E+04  0.80663835589E+02 0.  0.
        -11    1    3    3    0    0 -0.39945116078E+01 -0.45787269592E+02 -0.48385194972E+03  0.48602997791E+03  0.00000000000E+00 0.  1.
         12    1    3    3    0    0 -0.13137817843E+02  0.30202148291E+02 -0.71328163391E+03  0.71404163835E+03  0.00000000000E+00 0. -1.
         -2    1    1    2    0  502  0.17132329451E+02  0.15585121301E+02 -0.17700144345E+02  0.29149748339E+02  0.00000000000E+00 0.  1.
<mgrwt>
<rscale>  1 0.83922983E+02</rscale>
<asrwt>0</asrwt>
<pdfrwt beam="1">  1       21 0.11067426E-02 0.83922983E+02</pdfrwt>
<pdfrwt beam="2">  1       -1 0.18800401E+00 0.83922983E+02</pdfrwt>
<totfact> 0.59419614E+04</totfact>
</mgrwt>
</event>
<event>
 6    2  0.7993170E+000  0.1005400E+03  0.7546771E-02  0.1279165E+00
         21   -1    0    0  501  502  0.00000000000E+00  0.00000000000E+00  0.75549498717E+02  0.75549498717E+02  0.00000000000E+00 0.  1.
          2   -1    0    0  502    0 -0.00000000000E+00 -0.00000000000E+00 -0.84936852178E+02  0.84936852178E+02  0.00000000000E+00 0. -1.
         24    2    1    2    0    0  0.10737463930E+02  0.58696890630E+02 -0.56653357890E+01  0.10069946674E+03  0.80917664766E+02 0.  0.
        -13    1    3    3    0    0 -0.90321746858E+01  0.37912627671E+02  0.34019724638E+02  0.51732863645E+02  0.00000000000E+00 0.  1.
         14    1    3    3    0    0  0.19769638615E+02  0.20784262958E+02 -0.39685060427E+02  0.48966603096E+02  0.00000000000E+00 0. -1.
          1    1    1    2  501    0 -0.10737463930E+02 -0.58696890630E+02 -0.37220176726E+01  0.59786884153E+02  0.00000000000E+00 0. -1.
<mgrwt>
<rscale>  1 0.10053997E+03</rscale>
<asrwt>0</asrwt>
<pdfrwt beam="1">  1       21 0.11623000E-01 0.10053997E+03</pdfrwt>
<pdfrwt beam="2">  1        2 0.13067208E-01 0.10053997E+03</pdfrwt>
<totfact> 0.33288340E+05</totfact>
</mgrwt>
</event>
<event>
 6    2  0.7993170E+000  0.9781309E+02  0.7546771E-02  0.1284963E+00
          2   -1    0    0  502    0 -0.00000000000E+00  0.00000000000E+00  0.19895039463E+04  0.19895039463E+04  0.00000000000E+00 0. -1.
         21   -1    0    0  501  502  0.00000000000E+00 -0.00000000000E+00 -0.46892190310E+01  0.46892190310E+01  0.00000000000E+00 0. -1.
         24    2    1    2    0    0  0.97403491521E+01 -0.45628629972E+02  0.18272418161E+04  0.18298579330E+04  0.85968330861E+02 0.  0.
        -11    1    3    3    0    0  0.35881017941E+02 -0.91753537687E+01  0.35373778712E+03  0.35567127605E+03  0.00000000000E+00 0.  1.
         12    1    3    3    0    0 -0.26140668789E+02 -0.36453276203E+02  0.14735040290E+04  0.14741866569E+04  0.00000000000E+00 0. -1.
          1    1    1    2  501    0 -0.97403491521E+01  0.45628629972E+02  0.15757291111E+03  0.16433523235E+03  0.00000000000E+00 0. -1.
<mgrwt>
<rscale>  1 0.97813088E+02</rscale>
<asrwt>0</asrwt>
<pdfrwt beam="1">  1       21 0.72141990E-03 0.97813088E+02</pdfrwt>
<pdfrwt beam="2">  1        2 0.30607686E+00 0.97813088E+02</pdfrwt>
<totfact> 0.60435812E+05</totfact>
</mgrwt>
</event>
<event>
 6    2  0.7993170E+000  0.8823176E+02  0.7546771E-02  0.1307191E+00
         21   -1    0    0  501  502  0.00000000000E+00  0.00000000000E+00  0.16834221837E+02  0.16834221837E+02  0.00000000000E+00 0.  1.
         -3   -1    0    0    0  501 -0.00000000000E+00 -0.00000000000E+00 -0.45183408907E+03  0.45183408907E+03  0.00000000000E+00 0.  1.
         24    2    1    2    0    0  0.40998360628E+02  0.51916802046E+01 -0.41206429396E+03  0.42140458656E+03  0.77955269887E+02 0.  0.
        -13    1    3    3    0    0  0.58046775976E+02  0.15863530947E+02 -0.36900607392E+03  0.37388041190E+03  0.00000000000E+00 0.  1.
         14    1    3    3    0    0 -0.17048415348E+02 -0.10671850743E+02 -0.43058220039E+02  0.47524174660E+02  0.00000000000E+00 0. -1.
         -4    1    1    2    0  502 -0.40998360628E+02 -0.51916802046E+01 -0.22935573277E+02  0.47263724346E+02  0.00000000000E+00 0.  1.
<mgrwt>
<rscale>  1 0.88231759E+02</rscale>
<asrwt>0</asrwt>
<pdfrwt beam="1">  1       21 0.25898807E-02 0.88231759E+02</pdfrwt>
<pdfrwt beam="2">  1       -3 0.69512926E-01 0.88231759E+02</pdfrwt>
<totfact> 0.73703431E+04</totfact>
</mgrwt>
</event>
<event>
 6    2  0.7993170E+000  0.9529922E+02  0.7546771E-02  0.1290504E+00
          2   -1    0    0  502    0 -0.00000000000E+00  0.00000000000E+00  0.68120301565E+03  0.68120301565E+03  0.00000000000E+00 0. -1.
         21   -1    0    0  501  502  0.00000000000E+00 -0.00000000000E+00 -0.62488965225E+01  0.62488965225E+01  0.00000000000E+00 0.  1.
         24    2    1    2    0    0 -0.34654337008E+02 -0.18425994398E+01  0.46738184831E+03  0.47699867304E+03  0.88755978461E+02 0.  0.
        -13    1    3    3    0    0  0.35881674887E+01  0.26010488335E+02  0.45975768569E+02  0.52945176786E+02  0.00000000000E+00 0.  1.
         14    1    3    3    0    0 -0.38242504496E+02 -0.27853087775E+02  0.42140607974E+03  0.42405349626E+03  0.00000000000E+00 0. -1.
          1    1    1    2  501    0  0.34654337008E+02  0.18425994398E+01  0.20757227082E+03  0.21045323913E+03  0.00000000000E+00 0. -1.
<mgrwt>
<rscale>  1 0.95299223E+02</rscale>
<asrwt>0</asrwt>
<pdfrwt beam="1">  1       21 0.96136924E-03 0.95299223E+02</pdfrwt>
<pdfrwt beam="2">  1        2 0.10480041E+00 0.95299223E+02</pdfrwt>
<totfact> 0.20508760E+06</totfact>
</mgrwt>
</event>
<event>
 6    2  0.7993170E+000  0.1044519E+03  0.7546771E-02  0.1271203E+00
         21   -1    0    0  501  502  0.00000000000E+00  0.00000000000E+00  0.40002220550E+01  0.40002220550E+01  0.00000000000E+00 0.  1.
          2   -1    0    0  502    0 -0.00000000000E+00 -0.00000000000E+00 -0.12025764650E+04  0.12025764650E+04  0.00000000000E+00 0. -1.
         24    2    1    2    0    0 -0.32883206209E+02  0.48760080205E+01 -0.84193419286E+03  0.84838870206E+03  0.99020825963E+02 0.  0.
        -13    1    3    3    0    0 -0.17321236571E+02  0.24935419368E+02 -0.73349613576E+02  0.79384924180E+02  0.00000000000E+00 0.  1.
         14    1    3    3    0    0 -0.15561969638E+02 -0.20059411347E+02 -0.76858457928E+03  0.76900377788E+03  0.00000000000E+00 0. -1.
          1    1    1    2  501    0  0.32883206209E+02 -0.48760080205E+01 -0.35664205012E+03  0.35818798503E+03  0.00000000000E+00 0. -1.
<mgrwt>
<rscale>  1 0.10445193E+03</rscale>
<asrwt>0</asrwt>
<pdfrwt beam="1">  1       21 0.61541888E-03 0.10445193E+03</pdfrwt>
<pdfrwt beam="2">  1        2 0.18501173E+00 0.10445193E+03</pdfrwt>
<totfact> 0.19693059E+06</totfact>
</mgrwt>
</event>
<event>
 6    2  0.7993170E+000  0.8076617E+02  0.7546771E-02  0.1326891E+00
         21   -1    0    0  501  502  0.00000000000E+00  0.00000000000E+00  0.16513796682E+02  0.16513796682E+02  0.00000000000E+00 0.  1.
         -1   -1    0    0    0  501 -0.00000000000E+00 -0.00000000000E+00 -0.20049000109E+03  0.20049000109E+03  0.00000000000E+00 0.  1.
         24    2    1    2    0    0  0.14879205068E+02 -0.15734640124E+02 -0.17648681986E+03  0.19408959859E+03  0.77808772345E+02 0.  0.
        -13    1    3    3    0    0  0.26137988047E+02 -0.17268985883E+01 -0.17398363916E+03  0.17594454608E+03  0.00000000000E+00 0.  1.
         14    1    3    3    0    0 -0.11258782978E+02 -0.14007741536E+02 -0.25031806943E+01  0.18145052512E+02  0.00000000000E+00 0. -1.
         -2    1    1    2    0  502 -0.14879205068E+02  0.15734640124E+02 -0.74893845537E+01  0.22914199185E+02  0.00000000000E+00 0.  1.
<mgrwt>
<rscale>  1 0.80766173E+02</rscale>
<asrwt>0</asrwt>
<pdfrwt beam="1">  1       21 0.25405840E-02 0.80766173E+02</pdfrwt>
<pdfrwt beam="2">  1       -1 0.30844617E-01 0.80766173E+02</pdfrwt>
<totfact> 0.68013657E+05</totfact>
</mgrwt>
</event>
<event>
 6    2  0.7993170E+000  0.7303923E+02  0.7546771E-02  0.1350053E+00
          2   -1    0    0  502    0 -0.00000000000E+00  0.00000000000E+00  0.30653073957E+04  0.30653073957E+04  0.00000000000E+00 0. -1.
         21   -1    0    0  501  502  0.00000000000E+00 -0.00000000000E+00 -0.85792409381E+00  0.85792409381E+00  0.00000000000E+00 0.  1.
         24    2    1    2    0    0  0.16805450234E+02 -0.14977787586E+02  0.27203136932E+04  0.27212940522E+04  0.69483605882E+02 0.  0.
        -13    1    3    3    0    0 -0.46304575232E+01  0.13534912074E+02  0.13905142647E+03  0.13978531463E+03  0.00000000000E+00 0.  1.
         14    1    3    3    0    0  0.21435907757E+02 -0.28512699660E+02  0.25812622668E+04  0.25815087375E+04  0.00000000000E+00 0. -1.
          1    1    1    2  501    0 -0.16805450234E+02  0.14977787586E+02  0.34413577841E+03  0.34487126766E+03  0.00000000000E+00 0. -1.
<mgrwt>
<rscale>  1 0.73039228E+02</rscale>
<asrwt>0</asrwt>
<pdfrwt beam="1">  1       21 0.13199078E-03 0.73039228E+02</pdfrwt>
<pdfrwt beam="2">  1        2 0.47157699E+00 0.73039228E+02</pdfrwt>
<totfact> 0.21007551E+06</totfact>
</mgrwt>
</event>
<event>
 6    2  0.7993170E+000  0.9078887E+02  0.7546771E-02  0.1300952E+00
         21   -1    0    0  501  502  0.00000000000E+00  0.00000000000E+00  0.38834006919E+01  0.38834006919E+01  0.00000000000E+00 0. -1.
          2   -1    0    0  502    0 -0.00000000000E+00 -0.00000000000E+00 -0.14328212144E+04  0.14328212144E+04  0.00000000000E+00 0. -1.
         24    2    1    2    0    0 -0.38228411685E+02  0.29203249380E+02 -0.11560046656E+04  0.11595643174E+04  0.76995962285E+02 0.  0.
        -13    1    3    3    0    0  0.23728559157E+02  0.48607591097E+01 -0.30751481985E+03  0.30846723639E+03  0.00000000000E+00 0.  1.
         14    1    3    3    0    0 -0.61956970842E+02  0.24342490270E+02 -0.84848984571E+03  0.85109708103E+03  0.00000000000E+00 0. -1.
          1    1    1    2  501    0  0.38228411685E+02 -0.29203249380E+02 -0.27293314813E+03  0.27714029765E+03  0.00000000000E+00 0. -1.
<mgrwt>
<rscale>  1 0.90788873E+02</rscale>
<asrwt>0</asrwt>
<pdfrwt beam="1">  1       21 0.59744587E-03 0.90788873E+02</pdfrwt>
<pdfrwt beam="2">  1        2 0.22043418E+00 0.90788873E+02</pdfrwt>
<totfact> 0.15401123E+06</totfact>
</mgrwt>
</event>
<event>
 6    2  0.7993170E+000  0.1022313E+03  0.7546771E-02  0.1275673E+00
          2   -1    0    0  502    0 -0.00000000000E+00  0.00000000000E+00  0.94613645051E+02  0.94613645051E+02  0.00000000000E+00 0. -1.
         21   -1    0    0  501  502  0.00000000000E+00 -0.00000000000E+00 -0.75511104530E+02  0.75511104530E+02  0.00000000000E+00 0.  1.
         24    2    1    2    0    0 -0.60896798754E+02  0.57334292619E+01  0.32951072742E+02  0.10741052349E+03  0.81914315307E+02 0.  0.
        -11    1    3    3    0    0 -0.34560558695E+02 -0.16195057461E+02 -0.20949017471E+02  0.43538183661E+02  0.00000000000E+00 0.  1.
         12    1    3    3    0    0 -0.26336240058E+02  0.21928486723E+02  0.53900090213E+02  0.63872339830E+02  0.00000000000E+00 0. -1.
          1    1    1    2  501    0  0.60896798754E+02 -0.57334292619E+01 -0.13848532220E+02  0.62714226091E+02  0.00000000000E+00 0. -1.
<mgrwt>
<rscale>  1 0.10223134E+03</rscale>
<asrwt>0</asrwt>
<pdfrwt beam="1">  1       21 0.11617093E-01 0.10223134E+03</pdfrwt>
<pdfrwt beam="2">  1        2 0.14555945E-01 0.10223134E+03</pdfrwt>
<totfact> 0.29397646E+05</totfact>
</mgrwt>
</event>
<event>
 6    2  0.7993170E+000  0.8323760E+02  0.7546771E-02  0.1320107E+00
         21   -1    0    0  501  502  0.00000000000E+00  0.00000000000E+00  0.10858286277E+03  0.10858286277E+03  0.00000000000E+00 0.  1.
          2   -1    0    0  502    0 -0.00000000000E+00 -0.00000000000E+00 -0.32984379685E+02  0.32984379685E+02  0.00000000000E+00 0. -1.
         24    2    1    2    0    0  0.10344196882E+02 -0.17368689240E+02  0.24737131242E+02  0.86835616439E+02  0.80745432349E+02 0.  0.
        -11    1    3    3    0    0  0.13617819246E+02  0.46289548967E+01  0.50670323380E+02  0.52672135858E+02  0.00000000000E+00 0.  1.
         12    1    3    3    0    0 -0.32736223645E+01 -0.21997644137E+02 -0.25933192138E+02  0.34163480581E+02  0.00000000000E+00 0. -1.
          1    1    1    2  501    0 -0.10344196882E+02  0.17368689240E+02  0.50861351846E+02  0.54731626019E+02  0.00000000000E+00 0. -1.
<mgrwt>
<rscale>  1 0.83237603E+02</rscale>
<asrwt>0</asrwt>
<pdfrwt beam="1">  1       21 0.16705056E-01 0.83237603E+02</pdfrwt>
<pdfrwt beam="2">  1        2 0.50745200E-02 0.83237603E+02</pdfrwt>
<totfact> 0.55317642E+05</totfact>
</mgrwt>
</event>
<event>
 6    2  0.7993170E+000  0.8423130E+02  0.7546771E-02  0.1317455E+00
         21   -1    0    0  501  502  0.00000000000E+00  0.00000000000E+00  0.51911584084E+02  0.51911584084E+02  0.00000000000E+00 0.  1.
         -3   -1    0    0    0  501 -0.00000000000E+00 -0.00000000000E+00 -0.56757199207E+02  0.56757199207E+02  0.00000000000E+00 0.  1.
         24    2    1    2    0    0  0.16386752173E+02  0.14541472722E+02 -0.13125705506E+02  0.85247853069E+02  0.81332233659E+02 0.  0.
        -11    1    3    3    0    0  0.42047252898E+02  0.11278021844E+02 -0.31314348895E+02  0.53626054299E+02  0.00000000000E+00 0.  1.
         12    1    3    3    0    0 -0.25660500724E+02  0.32634508781E+01  0.18188643389E+02  0.31621798769E+02  0.00000000000E+00 0. -1.
         -4    1    1    2    0  502 -0.16386752173E+02 -0.14541472722E+02  0.82800903835E+01  0.23420930223E+02  0.00000000000E+00 0.  1.
<mgrwt>
<rscale>  1 0.84231302E+02</rscale>
<asrwt>0</asrwt>
<pdfrwt beam="1">  1       21 0.79863976E-02 0.84231302E+02</pdfrwt>
<pdfrwt beam="2">  1       -3 0.87318768E-02 0.84231302E+02</pdfrwt>
<totfact> 0.48249953E+05</totfact>
</mgrwt>
</event>
<event>
 6    2  0.7993170E+000  0.8788480E+02  0.7546771E-02  0.1308056E+00
         21   -1    0    0  501  502  0.00000000000E+00  0.00000000000E+00  0.42955895377E+02  0.42955895377E+02  0.00000000000E+00 0. -1.
          4   -1    0    0  502    0 -0.00000000000E+00 -0.00000000000E+00 -0.10574753184E+03  0.10574753184E+03  0.00000000000E+00 0. -1.
         24    2    1    2    0    0 -0.36078614350E+02  0.18006071541E+02 -0.63416786665E+02  0.10837631675E+03  0.78088745512E+02 0.  0.
        -11    1    3    3    0    0 -0.76852952461E+01 -0.39669224108E+01  0.17683088769E+02  0.19684813051E+02  0.00000000000E+00 0.  1.
         12    1    3    3    0    0 -0.28393319104E+02  0.21972993952E+02 -0.81099875435E+02  0.88691503699E+02  0.00000000000E+00 0. -1.
          3    1    1    2  501    0  0.36078614350E+02 -0.18006071541E+02  0.62515020274E+00  0.40327110466E+02  0.00000000000E+00 0. -1.
<mgrwt>
<rscale>  1 0.87884795E+02</rscale>
<asrwt>0</asrwt>
<pdfrwt beam="1">  1       21 0.66085994E-02 0.87884795E+02</pdfrwt>
<pdfrwt beam="2">  1        4 0.16268851E-01 0.87884795E+02</pdfrwt>
<totfact> 0.20266093E+05</totfact>
</mgrwt>
</event>
<event>
 6    2  0.7993170E+000  0.8782256E+02  0.7546771E-02  0.1308212E+00
         21   -1    0    0  501  502  0.00000000000E+00  0.00000000000E+00  0.30468698027E+02  0.30468698027E+02  0.00000000000E+00 0.  1.
          2   -1    0    0  502    0 -0.00000000000E+00 -0.00000000000E+00 -0.11509374631E+03  0.11509374631E+03  0.00000000000E+00 0. -1.
         24    2    1    2    0    0  0.17012658325E+02 -0.24694225963E+02 -0.69386852469E+02  0.11192559028E+03  0.82544334301E+02 0.  0.
        -11    1    3    3    0    0  0.46288618850E+02 -0.33383791051E+02 -0.41435472436E+02  0.70526676627E+02  0.00000000000E+00 0.  1.
         12    1    3    3    0    0 -0.29275960525E+02  0.86895650881E+01 -0.27951380033E+02  0.41398913655E+02  0.00000000000E+00 0. -1.
          1    1    1    2  501    0 -0.17012658325E+02  0.24694225963E+02 -0.15238195817E+02  0.33636854058E+02  0.00000000000E+00 0. -1.
<mgrwt>
<rscale>  1 0.87822562E+02</rscale>
<asrwt>0</asrwt>
<pdfrwt beam="1">  1       21 0.46874920E-02 0.87822562E+02</pdfrwt>
<pdfrwt beam="2">  1        2 0.17706730E-01 0.87822562E+02</pdfrwt>
<totfact> 0.10863878E+06</totfact>
</mgrwt>
</event>
<event>
 6    2  0.7993170E+000  0.7553921E+02  0.7546771E-02  0.1342209E+00
          2   -1    0    0  502    0 -0.00000000000E+00  0.00000000000E+00  0.23627357091E+03  0.23627357091E+03  0.00000000000E+00 0. -1.
         21   -1    0    0  501  502  0.00000000000E+00 -0.00000000000E+00 -0.97222635755E+01  0.97222635755E+01  0.00000000000E+00 0.  1.
         24    2    1    2    0    0 -0.15762322529E+02  0.12366698205E+02  0.17097858553E+03  0.18692203789E+03  0.72833958435E+02 0.  0.
        -13    1    3    3    0    0 -0.18695137824E+02  0.28717150343E+02  0.31777179941E+02  0.46732986927E+02  0.00000000000E+00 0.  1.
         14    1    3    3    0    0  0.29328152954E+01 -0.16350452138E+02  0.13920140559E+03  0.14018905096E+03  0.00000000000E+00 0. -1.
          1    1    1    2  501    0  0.15762322529E+02 -0.12366698205E+02  0.55572721798E+02  0.59073796594E+02  0.00000000000E+00 0. -1.
<mgrwt>
<rscale>  1 0.75539205E+02</rscale>
<asrwt>0</asrwt>
<pdfrwt beam="1">  1       21 0.14957330E-02 0.75539205E+02</pdfrwt>
<pdfrwt beam="2">  1        2 0.36349776E-01 0.75539205E+02</pdfrwt>
<totfact> 0.30856495E+06</totfact>
</mgrwt>
</event>
<event>
 6    2  0.7993170E+000  0.8751690E+02  0.7546771E-02  0.1308979E+00
         -3   -1    0    0    0  501 -0.00000000000E+00  0.00000000000E+00  0.27492337806E+03  0.27492337806E+03  0.00000000000E+00 0.  1.
         21   -1    0    0  501  502  0.00000000000E+00 -0.00000000000E+00 -0.15663884721E+02  0.15663884721E+02  0.00000000000E+00 0. -1.
         24    2    1    2    0    0 -0.13651261852E+02 -0.29170204068E+02  0.23344956117E+03  0.24931487063E+03  0.81375360826E+02 0.  0.
        -13    1    3    3    0    0 -0.24730675878E+02  0.54601139190E+01  0.19407446375E+03  0.19571999553E+03  0.00000000000E+00 0.  1.
         14    1    3    3    0    0  0.11079414026E+02 -0.34630317987E+02  0.39375097423E+02  0.53594875092E+02  0.00000000000E+00 0. -1.
         -4    1    1    2    0  502  0.13651261852E+02  0.29170204068E+02  0.25809932169E+02  0.41272392154E+02  0.00000000000E+00 0.  1.
<mgrwt>
<rscale>  1 0.87516896E+02</rscale>
<asrwt>0</asrwt>
<pdfrwt beam="1">  1       21 0.24098286E-02 0.87516896E+02</pdfrwt>
<pdfrwt beam="2">  1       -3 0.42295901E-01 0.87516896E+02</pdfrwt>
<totfact> 0.22389638E+05</totfact>
</mgrwt>
</event>
<event>
 6    2  0.7993170E+000  0.8189376E+02  0.7546771E-02  0.1323762E+00
          2   -1    0    0  502    0 -0.00000000000E+00  0.00000000000E+00  0.18253222571E+04  0.18253222571E+04  0.00000000000E+00 0. -1.
         21   -1    0    0  501  502  0.00000000000E+00 -0.00000000000E+00 -0.19782474232E+01  0.19782474232E+01  0.00000000000E+00 0.  1.
         24    2    1    2    0    0 -0.93657097816E+01 -0.18485985673E+02  0.17172461486E+04  0.17191977556E+04  0.79228404082E+02 0.  0.
        -13    1    3    3    0    0 -0.41080170484E+01 -0.49010666839E+02  0.87378190964E+03  0.87516498266E+03  0.00000000000E+00 0.  1.
         14    1    3    3    0    0 -0.52576927332E+01  0.30524681166E+02  0.84346423893E+03  0.84403277297E+03  0.00000000000E+00 0. -1.
          1    1    1    2  501    0  0.93657097816E+01  0.18485985673E+02  0.10609786114E+03  0.10810274892E+03  0.00000000000E+00 0. -1.
<mgrwt>
<rscale>  1 0.81893762E+02</rscale>
<asrwt>0</asrwt>
<pdfrwt beam="1">  1       21 0.30434722E-03 0.81893762E+02</pdfrwt>
<pdfrwt beam="2">  1        2 0.28081746E+00 0.81893762E+02</pdfrwt>
<totfact> 0.27075452E+06</totfact>
</mgrwt>
</event>
<event>
 6    2  0.7993170E+000  0.8174513E+02  0.7546771E-02  0.1324171E+00
          2   -1    0    0  502    0 -0.00000000000E+00  0.00000000000E+00  0.89843430260E+02  0.89843430260E+02  0.00000000000E+00 0. -1.
         21   -1    0    0  501  502  0.00000000000E+00 -0.00000000000E+00 -0.39524015914E+02  0.39524015914E+02  0.00000000000E+00 0. -1.
         24    2    1    2    0    0 -0.19813872598E+02 -0.77416972854E+01  0.81677922596E+01  0.82152166140E+02  0.78928715604E+02 0.  0.
        -13    1    3    3    0    0  0.22516635643E+02  0.18320041678E+02  0.13768220375E+02  0.32127662536E+02  0.00000000000E+00 0.  1.
         14    1    3    3    0    0 -0.42330508241E+02 -0.26061738963E+02 -0.56004281151E+01  0.50024503603E+02  0.00000000000E+00 0. -1.
          1    1    1    2  501    0  0.19813872598E+02  0.77416972854E+01  0.42151622087E+02  0.47215280034E+02  0.00000000000E+00 0. -1.
<mgrwt>
<rscale>  1 0.81745126E+02</rscale>
<asrwt>0</asrwt>
<pdfrwt beam="1">  1       21 0.60806179E-02 0.81745126E+02</pdfrwt>
<pdfrwt beam="2">  1        2 0.13822066E-01 0.81745126E+02</pdfrwt>
<totfact> 0.92791184E+05</totfact>
</mgrwt>
</event>
<event>
 6    2  0.7993170E+000  0.8619869E+02  0.7546771E-02  0.1312327E+00
         21   -1    0    0  501  502  0.00000000000E+00  0.00000000000E+00  0.69900637188E+01  0.69900637188E+01  0.00000000000E+00 0.  1.
          2   -1    0    0  502    0 -0.00000000000E+00 -0.00000000000E+00 -0.47779926594E+03  0.47779926594E+03  0.00000000000E+00 0. -1.
         24    2    1    2    0    0 -0.27661601365E+02  0.86616670274E+01 -0.36899288582E+03  0.37892738677E+03  0.81178975087E+02 0.  0.
        -13    1    3    3    0    0 -0.37492586589E+02  0.12639876893E+01 -0.67824307185E+02  0.77507601944E+02  0.00000000000E+00 0.  1.
         14    1    3    3    0    0  0.98309852246E+01  0.73976793381E+01 -0.30116857863E+03  0.30141978483E+03  0.00000000000E+00 0. -1.
          1    1    1    2  501    0  0.27661601365E+02 -0.86616670274E+01 -0.10181631641E+03  0.10586194289E+03  0.00000000000E+00 0. -1.
<mgrwt>
<rscale>  1 0.86198693E+02</rscale>
<asrwt>0</asrwt>
<pdfrwt beam="1">  1       21 0.10753946E-02 0.86198693E+02</pdfrwt>
<pdfrwt beam="2">  1        2 0.73507565E-01 0.86198693E+02</pdfrwt>
<totfact> 0.25221927E+06</totfact>
</mgrwt>
</event>
<event>
 6    2  0.7993170E+000  0.1063040E+03  0.7546771E-02  0.1267571E+00
         21   -1    0    0  501  502  0.00000000000E+00  0.00000000000E+00  0.43325411528E+02  0.43325411528E+02  0.00000000000E+00 0.  1.
          2   -1    0    0  502    0 -0.00000000000E+00 -0.00000000000E+00 -0.19076059931E+03  0.19076059931E+03  0.00000000000E+00 0. -1.
         24    2    1    2    0    0 -0.33813380210E+02 -0.58698970515E+02 -0.12177631292E+03  0.16164781870E+03  0.81924557247E+02 0.  0.
        -13    1    3    3    0    0 -0.61013916066E+01 -0.11168920164E+02  0.11693254153E+02  0.17283053835E+02  0.00000000000E+00 0.  1.
         14    1    3    3    0    0 -0.27711988603E+02 -0.47530050351E+02 -0.13346956708E+03  0.14436476487E+03  0.00000000000E+00 0. -1.
          1    1    1    2  501    0  0.33813380210E+02  0.58698970515E+02 -0.25658874854E+02  0.72438192133E+02  0.00000000000E+00 0. -1.
<mgrwt>
<rscale>  1 0.10630403E+03</rscale>
<asrwt>0</asrwt>
<pdfrwt beam="1">  1       21 0.66654479E-02 0.10630403E+03</pdfrwt>
<pdfrwt beam="2">  1        2 0.29347785E-01 0.10630403E+03</pdfrwt>
<totfact> 0.35095579E+05</totfact>
</mgrwt>
</event>
<event>
 6    2  0.7993170E+000  0.8288209E+02  0.7546771E-02  0.1321066E+00
          2   -1    0    0  502    0 -0.00000000000E+00  0.00000000000E+00  0.21853970718E+04  0.21853970718E+04  0.00000000000E+00 0. -1.
         21   -1    0    0  501  502  0.00000000000E+00 -0.00000000000E+00 -0.14144648095E+01  0.14144648095E+01  0.00000000000E+00 0.  1.
         24    2    1    2    0    0  0.24098348655E+02  0.42277549092E+01  0.18884397742E+04  0.18902577130E+04  0.79188611724E+02 0.  0.
        -11    1    3    3    0    0  0.10670806657E+02  0.41251610531E+02  0.11185375308E+04  0.11193488148E+04  0.00000000000E+00 0.  1.
         12    1    3    3    0    0  0.13427541998E+02 -0.37023855622E+02  0.76990224343E+03  0.77090889813E+03  0.00000000000E+00 0. -1.
          1    1    1    2  501    0 -0.24098348655E+02 -0.42277549092E+01  0.29554283277E+03  0.29655382364E+03  0.00000000000E+00 0. -1.
<mgrwt>
<rscale>  1 0.82882088E+02</rscale>
<asrwt>0</asrwt>
<pdfrwt beam="1">  1       21 0.21761172E-03 0.82882088E+02</pdfrwt>
<pdfrwt beam="2">  1        2 0.33621223E+00 0.82882088E+02</pdfrwt>
<totfact> 0.29626415E+06</totfact>
</mgrwt>
</event>
<event>
 6    2  0.7993170E+000  0.8117835E+02  0.7546771E-02  0.1325740E+00
         -1   -1    0    0    0  501 -0.00000000000E+00  0.00000000000E+00  0.81927528814E+02  0.81927528814E+02  0.00000000000E+00 0.  1.
         21   -1    0    0  501  502  0.00000000000E+00 -0.00000000000E+00 -0.32860221284E+02  0.32860221284E+02  0.00000000000E+00 0. -1.
         24    2    1    2    0    0  0.17508990575E+02 -0.14178801576E+02  0.36733310408E+02  0.89102527692E+02  0.77989237606E+02 0.  0.
        -11    1    3    3    0    0  0.26713955664E+02 -0.30812045365E+02  0.51025135628E+02  0.65319078627E+02  0.00000000000E+00 0.  1.
         12    1    3    3    0    0 -0.92049650891E+01  0.16633243790E+02 -0.14291825221E+02  0.23783449064E+02  0.00000000000E+00 0. -1.
         -2    1    1    2    0  502 -0.17508990575E+02  0.14178801576E+02  0.12333997122E+02  0.25685222407E+02  0.00000000000E+00 0.  1.
<mgrwt>
<rscale>  1 0.81178349E+02</rscale>
<asrwt>0</asrwt>
<pdfrwt beam="1">  1       21 0.50554187E-02 0.81178349E+02</pdfrwt>
<pdfrwt beam="2">  1       -1 0.12604235E-01 0.81178349E+02</pdfrwt>
<totfact> 0.91375183E+05</totfact>
</mgrwt>
</event>
<event>
 6    2  0.7993170E+000  0.8519311E+02  0.7546771E-02  0.1314928E+00
         21   -1    0    0  501  502  0.00000000000E+00  0.00000000000E+00  0.15623107924E+02  0.15623107924E+02  0.00000000000E+00 0. -1.
          2   -1    0    0  502    0 -0.00000000000E+00 -0.00000000000E+00 -0.87578751724E+03  0.87578751724E+03  0.00000000000E+00 0. -1.
         24    2    1    2    0    0  0.31180044447E+01  0.22422698171E+02 -0.86422242526E+03  0.86841134609E+03  0.82130179222E+02 0.  0.
        -13    1    3    3    0    0  0.18488457165E+02 -0.22449911643E+02 -0.16207658012E+03  0.16466523435E+03  0.00000000000E+00 0.  1.
         14    1    3    3    0    0 -0.15370452720E+02  0.44872609814E+02 -0.70214584514E+03  0.70374611173E+03  0.00000000000E+00 0. -1.
          1    1    1    2  501    0 -0.31180044447E+01 -0.22422698171E+02  0.40580159404E+01  0.22999279083E+02  0.00000000000E+00 0. -1.
<mgrwt>
<rscale>  1 0.85193108E+02</rscale>
<asrwt>0</asrwt>
<pdfrwt beam="1">  1       21 0.24035546E-02 0.85193108E+02</pdfrwt>
<pdfrwt beam="2">  1        2 0.13473657E+00 0.85193108E+02</pdfrwt>
<totfact> 0.35120045E+05</totfact>
</mgrwt>
</event>
<event>
 6    2  0.7993170E+000  0.9168583E+02  0.7546771E-02  0.1298820E+00
          2   -1    0    0  502    0 -0.00000000000E+00  0.00000000000E+00  0.95825547061E+03  0.95825547061E+03  0.00000000000E+00 0. -1.
         21   -1    0    0  501  502  0.00000000000E+00 -0.00000000000E+00 -0.10340374546E+02  0.10340374546E+02  0.00000000000E+00 0. -1.
         24    2    1    2    0    0  0.28665699034E+02 -0.34950726245E+02  0.89197715149E+03  0.89667693798E+03  0.79768519841E+02 0.  0.
        -13    1    3    3    0    0 -0.17688744814E+02 -0.27570166472E+02  0.16702394978E+03  0.17020577420E+03  0.00000000000E+00 0.  1.
         14    1    3    3    0    0  0.46354443847E+02 -0.73805597723E+01  0.72495320171E+03  0.72647116378E+03  0.00000000000E+00 0. -1.
          1    1    1    2  501    0 -0.28665699034E+02  0.34950726245E+02  0.55937944570E+02  0.71918907172E+02  0.00000000000E+00 0. -1.
<mgrwt>
<rscale>  1 0.91685835E+02</rscale>
<asrwt>0</asrwt>
<pdfrwt beam="1">  1       21 0.15908276E-02 0.91685835E+02</pdfrwt>
<pdfrwt beam="2">  1        2 0.14742385E+00 0.91685835E+02</pdfrwt>
<totfact> 0.60736698E+05</totfact>
</mgrwt>
</event>
<event>
 6    2  0.7993170E+000  0.1057408E+03  0.7546771E-02  0.1268667E+00
         21   -1    0    0  501  502  0.00000000000E+00  0.00000000000E+00  0.23786307280E+03  0.23786307280E+03  0.00000000000E+00 0.  1.
         -3   -1    0    0    0  501 -0.00000000000E+00 -0.00000000000E+00 -0.34540080304E+02  0.34540080304E+02  0.00000000000E+00 0.  1.
         24    2    1    2    0    0 -0.68585674107E+02  0.79839059939E+01  0.86123930547E+02  0.13637610591E+03  0.80083540142E+02 0.  0.
        -13    1    3    3    0    0 -0.84339611919E+02 -0.15811637109E+01  0.56640612093E+02  0.10160624565E+03  0.00000000000E+00 0.  1.
         14    1    3    3    0    0  0.15753937812E+02  0.95650697048E+01  0.29483318454E+02  0.34769860254E+02  0.00000000000E+00 0. -1.
         -4    1    1    2    0  502  0.68585674107E+02 -0.79839059939E+01  0.11719906195E+03  0.13602704719E+03  0.00000000000E+00 0.  1.
<mgrwt>
<rscale>  1 0.10574077E+03</rscale>
<asrwt>0</asrwt>
<pdfrwt beam="1">  1       21 0.36594318E-01 0.10574077E+03</pdfrwt>
<pdfrwt beam="2">  1       -3 0.53138586E-02 0.10574077E+03</pdfrwt>
<totfact> 0.69419773E+04</totfact>
</mgrwt>
</event>
<event>
 6    2  0.7993170E+000  0.8403076E+02  0.7546771E-02  0.1317987E+00
         21   -1    0    0  501  502  0.00000000000E+00  0.00000000000E+00  0.49328397640E+01  0.49328397640E+01  0.00000000000E+00 0.  1.
          2   -1    0    0  502    0 -0.00000000000E+00 -0.00000000000E+00 -0.61544783122E+03  0.61544783122E+03  0.00000000000E+00 0. -1.
         24    2    1    2    0    0 -0.20989088762E+02  0.57963327833E+01 -0.39929442613E+03  0.40804069233E+03  0.81160510921E+02 0.  0.
        -13    1    3    3    0    0  0.27315613403E+02 -0.27662437366E+01 -0.71401083949E+02  0.76497775321E+02  0.00000000000E+00 0.  1.
         14    1    3    3    0    0 -0.48304702165E+02  0.85625765199E+01 -0.32789334218E+03  0.33154291701E+03  0.00000000000E+00 0. -1.
          1    1    1    2  501    0  0.20989088762E+02 -0.57963327833E+01 -0.21122056533E+03  0.21233997866E+03  0.00000000000E+00 0. -1.
<mgrwt>
<rscale>  1 0.84030755E+02</rscale>
<asrwt>0</asrwt>
<pdfrwt beam="1">  1       21 0.75889806E-03 0.84030755E+02</pdfrwt>
<pdfrwt beam="2">  1        2 0.94684328E-01 0.84030755E+02</pdfrwt>
<totfact> 0.32786384E+06</totfact>
</mgrwt>
</event>
<event>
 6    2  0.7993170E+000  0.8429855E+02  0.7546771E-02  0.1317277E+00
         21   -1    0    0  501  502  0.00000000000E+00  0.00000000000E+00  0.21028558689E+01  0.21028558689E+01  0.00000000000E+00 0. -1.
         -3   -1    0    0    0  501 -0.00000000000E+00 -0.00000000000E+00 -0.13590949571E+04  0.13590949571E+04  0.00000000000E+00 0.  1.
         24    2    1    2    0    0  0.11564627531E+02  0.18184091735E+02 -0.99487068011E+03  0.99843573469E+03  0.81497511385E+02 0.  0.
        -13    1    3    3    0    0 -0.32750904586E+02 -0.14842666004E+01 -0.27780511643E+03  0.27973292175E+03  0.00000000000E+00 0.  1.
         14    1    3    3    0    0  0.44315532117E+02  0.19668358335E+02 -0.71706556368E+03  0.71870281294E+03  0.00000000000E+00 0. -1.
         -4    1    1    2    0  502 -0.11564627531E+02 -0.18184091735E+02 -0.36212142112E+03  0.36276207828E+03  0.00000000000E+00 0.  1.
<mgrwt>
<rscale>  1 0.84298554E+02</rscale>
<asrwt>0</asrwt>
<pdfrwt beam="1">  1       21 0.32351515E-03 0.84298554E+02</pdfrwt>
<pdfrwt beam="2">  1       -3 0.20909227E+00 0.84298554E+02</pdfrwt>
<totfact> 0.13926550E+05</totfact>
</mgrwt>
</event>
<event>
 6    2  0.7993170E+000  0.1045729E+03  0.7546771E-02  0.1270963E+00
          2   -1    0    0  502    0 -0.00000000000E+00  0.00000000000E+00  0.99939381166E+03  0.99939381166E+03  0.00000000000E+00 0. -1.
         21   -1    0    0  501  502  0.00000000000E+00 -0.00000000000E+00 -0.76885975330E+01  0.76885975330E+01  0.00000000000E+00 0. -1.
         24    2    1    2    0    0  0.21923636591E+02 -0.62766531478E+02  0.70862965713E+03  0.71630404981E+03  0.80716897224E+02 0.  0.
        -11    1    3    3    0    0  0.16378705755E+02  0.17286914525E+02  0.13419828597E+03  0.13629482519E+03  0.00000000000E+00 0.  1.
         12    1    3    3    0    0  0.55449308365E+01 -0.80053446003E+02  0.57443137116E+03  0.58000922463E+03  0.00000000000E+00 0. -1.
          1    1    1    2  501    0 -0.21923636591E+02  0.62766531478E+02  0.28307555699E+03  0.29077835937E+03  0.00000000000E+00 0. -1.
<mgrwt>
<rscale>  1 0.10457294E+03</rscale>
<asrwt>0</asrwt>
<pdfrwt beam="1">  1       21 0.11828620E-02 0.10457294E+03</pdfrwt>
<pdfrwt beam="2">  1        2 0.15375279E+00 0.10457294E+03</pdfrwt>
<totfact> 0.92567209E+05</totfact>
</mgrwt>
</event>
<event>
 6    2  0.7993170E+000  0.8589099E+02  0.7546771E-02  0.1313119E+00
          2   -1    0    0  502    0 -0.00000000000E+00  0.00000000000E+00  0.18371990658E+04  0.18371990658E+04  0.00000000000E+00 0. -1.
         21   -1    0    0  501  502  0.00000000000E+00 -0.00000000000E+00 -0.23974373937E+01  0.23974373937E+01  0.00000000000E+00 0. -1.
         24    2    1    2    0    0  0.29913815676E+02 -0.16124261767E+02  0.16049174892E+04  0.16072141768E+04  0.78882410038E+02 0.  0.
        -13    1    3    3    0    0  0.16154005021E+02 -0.14231716445E+02  0.10269067621E+03  0.10492315575E+03  0.00000000000E+00 0.  1.
         14    1    3    3    0    0  0.13759810654E+02 -0.18925453215E+01  0.15022268130E+04  0.15022910210E+04  0.00000000000E+00 0. -1.
          1    1    1    2  501    0 -0.29913815676E+02  0.16124261767E+02  0.22988413920E+03  0.23238232644E+03  0.00000000000E+00 0. -1.
<mgrwt>
<rscale>  1 0.85890994E+02</rscale>
<asrwt>0</asrwt>
<pdfrwt beam="1">  1       21 0.36883799E-03 0.85890994E+02</pdfrwt>
<pdfrwt beam="2">  1        2 0.28264488E+00 0.85890994E+02</pdfrwt>
<totfact> 0.20036179E+06</totfact>
</mgrwt>
</event>
<event>
 6    2  0.7993170E+000  0.8482095E+02  0.7546771E-02  0.1315901E+00
          2   -1    0    0  502    0 -0.00000000000E+00  0.00000000000E+00  0.13490097422E+04  0.13490097422E+04  0.00000000000E+00 0. -1.
         21   -1    0    0  501  502  0.00000000000E+00 -0.00000000000E+00 -0.24421950686E+01  0.24421950686E+01  0.00000000000E+00 0. -1.
         24    2    1    2    0    0  0.13780112567E+02  0.21434898880E+02  0.11679347052E+04  0.11710107041E+04  0.80902702268E+02 0.  0.
        -13    1    3    3    0    0 -0.25130517939E+02 -0.16829818746E+02  0.42070441215E+03  0.42179021816E+03  0.00000000000E+00 0.  1.
         14    1    3    3    0    0  0.38910630506E+02  0.38264717626E+02  0.74723029300E+03  0.74922048595E+03  0.00000000000E+00 0. -1.
          1    1    1    2  501    0 -0.13780112567E+02 -0.21434898880E+02  0.17863284194E+03  0.18044123313E+03  0.00000000000E+00 0. -1.
<mgrwt>
<rscale>  1 0.84820950E+02</rscale>
<asrwt>0</asrwt>
<pdfrwt beam="1">  1       21 0.37572340E-03 0.84820950E+02</pdfrwt>
<pdfrwt beam="2">  1        2 0.20753937E+00 0.84820950E+02</pdfrwt>
<totfact> 0.34393220E+06</totfact>
</mgrwt>
</event>
<event>
 6    2  0.7993170E+000  0.1864208E+03  0.7546771E-02  0.1161730E+00
          2   -1    0    0  502    0 -0.00000000000E+00  0.00000000000E+00  0.85618828378E+03  0.85618828378E+03  0.00000000000E+00 0. -1.
         21   -1    0    0  501  502  0.00000000000E+00 -0.00000000000E+00 -0.11196190241E+03  0.11196190241E+03  0.00000000000E+00 0. -1.
         24    2    1    2    0    0  0.15778940840E+03  0.61130045963E+02  0.77417474699E+03  0.79630349717E+03  0.78219823649E+02 0.  0.
        -13    1    3    3    0    0  0.66081352790E+02  0.23233314110E+02  0.16733542708E+03  0.18140473320E+03  0.00000000000E+00 0.  1.
         14    1    3    3    0    0  0.91708055610E+02  0.37896731853E+02  0.60683931990E+03  0.61489876397E+03  0.00000000000E+00 0. -1.
          1    1    1    2  501    0 -0.15778940840E+03 -0.61130045963E+02 -0.29948365622E+02  0.17184668902E+03  0.00000000000E+00 0. -1.
<mgrwt>
<rscale>  1 0.18642082E+03</rscale>
<asrwt>0</asrwt>
<pdfrwt beam="1">  1       21 0.17224909E-01 0.18642082E+03</pdfrwt>
<pdfrwt beam="2">  1        2 0.13172127E+00 0.18642082E+03</pdfrwt>
<totfact> 0.12548027E+04</totfact>
</mgrwt>
</event>
<event>
 6    2  0.7993170E+000  0.9616556E+02  0.7546771E-02  0.1288572E+00
         21   -1    0    0  501  502  0.00000000000E+00  0.00000000000E+00  0.20885673473E+02  0.20885673473E+02  0.00000000000E+00 0.  1.
          2   -1    0    0  502    0 -0.00000000000E+00 -0.00000000000E+00 -0.26356900616E+03  0.26356900616E+03  0.00000000000E+00 0. -1.
         24    2    1    2    0    0  0.37119320887E+02  0.36691159105E+02 -0.16004900254E+03  0.18671769759E+03  0.80769612115E+02 0.  0.
        -13    1    3    3    0    0  0.30789318701E+02  0.28898866971E+01 -0.95881188944E+01  0.32376930292E+02  0.00000000000E+00 0.  1.
         14    1    3    3    0    0  0.63300021860E+01  0.33801272408E+02 -0.15046088365E+03  0.15434076730E+03  0.00000000000E+00 0. -1.
          1    1    1    2  501    0 -0.37119320887E+02 -0.36691159105E+02 -0.82634330150E+02  0.97736982043E+02  0.00000000000E+00 0. -1.
<mgrwt>
<rscale>  1 0.96165562E+02</rscale>
<asrwt>0</asrwt>
<pdfrwt beam="1">  1       21 0.32131806E-02 0.96165562E+02</pdfrwt>
<pdfrwt beam="2">  1        2 0.40549077E-01 0.96165562E+02</pdfrwt>
<totfact> 0.83089609E+05</totfact>
</mgrwt>
</event>
<event>
 6    2  0.7993170E+000  0.8431014E+02  0.7546771E-02  0.1317246E+00
         21   -1    0    0  501  502  0.00000000000E+00  0.00000000000E+00  0.11648933057E+02  0.11648933057E+02  0.00000000000E+00 0. -1.
          2   -1    0    0  502    0 -0.00000000000E+00 -0.00000000000E+00 -0.11005357430E+04  0.11005357430E+04  0.00000000000E+00 0. -1.
         24    2    1    2    0    0 -0.14707737684E+02  0.20317773495E+02 -0.10831864286E+04  0.10864626268E+04  0.80492676044E+02 0.  0.
        -13    1    3    3    0    0  0.32506200114E+02  0.15770427031E+02 -0.39808303347E+03  0.39971922765E+03  0.00000000000E+00 0.  1.
         14    1    3    3    0    0 -0.47213937798E+02  0.45473464640E+01 -0.68510339514E+03  0.68674339918E+03  0.00000000000E+00 0. -1.
          1    1    1    2  501    0  0.14707737684E+02 -0.20317773495E+02 -0.57003812899E+01  0.25722049188E+02  0.00000000000E+00 0. -1.
<mgrwt>
<rscale>  1 0.84310144E+02</rscale>
<asrwt>0</asrwt>
<pdfrwt beam="1">  1       21 0.17921424E-02 0.84310144E+02</pdfrwt>
<pdfrwt beam="2">  1        2 0.16931330E+00 0.84310144E+02</pdfrwt>
<totfact> 0.41373579E+05</totfact>
</mgrwt>
</event>
<event>
 6    2  0.7993170E+000  0.8476230E+02  0.7546771E-02  0.1316055E+00
         21   -1    0    0  501  502  0.00000000000E+00  0.00000000000E+00  0.15190545547E+03  0.15190545547E+03  0.00000000000E+00 0. -1.
          2   -1    0    0  502    0 -0.00000000000E+00 -0.00000000000E+00 -0.27729928929E+02  0.27729928929E+02  0.00000000000E+00 0. -1.
         24    2    1    2    0    0  0.19761159494E+02  0.72394078468E+01  0.41600368857E+02  0.94420543455E+02  0.82108074431E+02 0.  0.
        -11    1    3    3    0    0  0.42294300315E+02  0.42230354952E+00  0.53372077393E+02  0.68099668315E+02  0.00000000000E+00 0.  1.
         12    1    3    3    0    0 -0.22533140821E+02  0.68171042972E+01 -0.11771708536E+02  0.26320875139E+02  0.00000000000E+00 0. -1.
          1    1    1    2  501    0 -0.19761159494E+02 -0.72394078468E+01  0.82575157688E+02  0.85214840948E+02  0.00000000000E+00 0. -1.
<mgrwt>
<rscale>  1 0.84762305E+02</rscale>
<asrwt>0</asrwt>
<pdfrwt beam="1">  1       21 0.23370069E-01 0.84762305E+02</pdfrwt>
<pdfrwt beam="2">  1        2 0.42661430E-02 0.84762305E+02</pdfrwt>
<totfact> 0.37577912E+05</totfact>
</mgrwt>
</event>
<event>
 6    2  0.7993170E+000  0.8621584E+02  0.7546771E-02  0.1312283E+00
         -3   -1    0    0    0  501 -0.00000000000E+00  0.00000000000E+00  0.21610226476E+03  0.21610226476E+03  0.00000000000E+00 0.  1.
         21   -1    0    0  501  502  0.00000000000E+00 -0.00000000000E+00 -0.14231183284E+02  0.14231183284E+02  0.00000000000E+00 0. -1.
         24    2    1    2    0    0 -0.83173791831E+01  0.20852908306E+02  0.17665784672E+03  0.19657356374E+03  0.83241507508E+02 0.  0.
        -13    1    3    3    0    0  0.97308549604E+01 -0.29838382625E+02  0.51055994860E+02  0.59931070632E+02  0.00000000000E+00 0.  1.
         14    1    3    3    0    0 -0.18048234143E+02  0.50691290931E+02  0.12560185186E+03  0.13664249311E+03  0.00000000000E+00 0. -1.
         -4    1    1    2    0  502  0.83173791831E+01 -0.20852908306E+02  0.25213234748E+02  0.33759884297E+02  0.00000000000E+00 0.  1.
<mgrwt>
<rscale>  1 0.86215841E+02</rscale>
<asrwt>0</asrwt>
<pdfrwt beam="1">  1       21 0.21894130E-02 0.86215841E+02</pdfrwt>
<pdfrwt beam="2">  1       -3 0.33246500E-01 0.86215841E+02</pdfrwt>
<totfact> 0.41051808E+05</totfact>
</mgrwt>
</event>
<event>
 6    2  0.7993170E+000  0.8591238E+02  0.7546771E-02  0.1313064E+00
         -3   -1    0    0    0  501 -0.00000000000E+00  0.00000000000E+00  0.54528255822E+02  0.54528255822E+02  0.00000000000E+00 0.  1.
         21   -1    0    0  501  502  0.00000000000E+00 -0.00000000000E+00 -0.10761635073E+03  0.10761635073E+03  0.00000000000E+00 0.  1.
         24    2    1    2    0    0  0.71951624392E+01 -0.22789276080E+02  0.17451306405E+02  0.87666901133E+02  0.82521609244E+02 0.  0.
        -13    1    3    3    0    0 -0.16792404992E+00 -0.44654864610E+02  0.36557534344E+02  0.57710817436E+02  0.00000000000E+00 0.  1.
         14    1    3    3    0    0  0.73630864891E+01  0.21865588530E+02 -0.19106227939E+02  0.29956083697E+02  0.00000000000E+00 0. -1.
         -4    1    1    2    0  502 -0.71951624392E+01  0.22789276080E+02 -0.70539401313E+02  0.74477705418E+02  0.00000000000E+00 0.  1.
<mgrwt>
<rscale>  1 0.85912382E+02</rscale>
<asrwt>0</asrwt>
<pdfrwt beam="1">  1       21 0.16556362E-01 0.85912382E+02</pdfrwt>
<pdfrwt beam="2">  1       -3 0.83889625E-02 0.85912382E+02</pdfrwt>
<totfact> 0.14439927E+05</totfact>
</mgrwt>
</event>
<event>
 6    2  0.7993170E+000  0.9104577E+02  0.7546771E-02  0.1300339E+00
          2   -1    0    0  502    0 -0.00000000000E+00  0.00000000000E+00  0.63977857821E+03  0.63977857821E+03  0.00000000000E+00 0. -1.
         21   -1    0    0  501  502  0.00000000000E+00 -0.00000000000E+00 -0.17156408687E+02  0.17156408687E+02  0.00000000000E+00 0. -1.
         24    2    1    2    0    0  0.16089360742E+02  0.38572045083E+02  0.60460810345E+03  0.61142480378E+03  0.80886721598E+02 0.  0.
        -11    1    3    3    0    0 -0.22057175422E+01 -0.23098032089E+02  0.95966276819E+02  0.98731507447E+02  0.00000000000E+00 0.  1.
         12    1    3    3    0    0  0.18295078284E+02  0.61670077172E+02  0.50864182663E+03  0.51269329634E+03  0.00000000000E+00 0. -1.
          1    1    1    2  501    0 -0.16089360742E+02 -0.38572045083E+02  0.18014066077E+02  0.45510183119E+02  0.00000000000E+00 0. -1.
<mgrwt>
<rscale>  1 0.91045768E+02</rscale>
<asrwt>0</asrwt>
<pdfrwt beam="1">  1       21 0.26394480E-02 0.91045768E+02</pdfrwt>
<pdfrwt beam="2">  1        2 0.98427455E-01 0.91045768E+02</pdfrwt>
<totfact> 0.44125377E+05</totfact>
</mgrwt>
</event>
<event>
 6    2  0.7993170E+000  0.8209301E+02  0.7546771E-02  0.1323215E+00
          2   -1    0    0  502    0 -0.00000000000E+00  0.00000000000E+00  0.62712256600E+03  0.62712256600E+03  0.00000000000E+00 0. -1.
         21   -1    0    0  501  502  0.00000000000E+00 -0.00000000000E+00 -0.60242352031E+01  0.60242352031E+01  0.00000000000E+00 0. -1.
         24    2    1    2    0    0 -0.15405521916E+02  0.13222615573E+02  0.59200735326E+03  0.59767212513E+03  0.79543039804E+02 0.  0.
        -13    1    3    3    0    0  0.11586696086E+02 -0.18379818180E+02  0.56174792927E+02  0.60230196770E+02  0.00000000000E+00 0.  1.
         14    1    3    3    0    0 -0.26992218003E+02  0.31602433753E+02  0.53583256033E+03  0.53744192836E+03  0.00000000000E+00 0. -1.
          1    1    1    2  501    0  0.15405521916E+02 -0.13222615573E+02  0.29090977537E+02  0.35474676069E+02  0.00000000000E+00 0. -1.
<mgrwt>
<rscale>  1 0.82093013E+02</rscale>
<asrwt>0</asrwt>
<pdfrwt beam="1">  1       21 0.92680591E-03 0.82093013E+02</pdfrwt>
<pdfrwt beam="2">  1        2 0.96480343E-01 0.82093013E+02</pdfrwt>
<totfact> 0.23476203E+06</totfact>
</mgrwt>
</event>
<event>
 6    2  0.7993170E+000  0.8628004E+02  0.7546771E-02  0.1312119E+00
         -1   -1    0    0    0  501 -0.00000000000E+00  0.00000000000E+00  0.76332828640E+03  0.76332828640E+03  0.00000000000E+00 0.  1.
         21   -1    0    0  501  502  0.00000000000E+00 -0.00000000000E+00 -0.10876559774E+02  0.10876559774E+02  0.00000000000E+00 0. -1.
         24    2    1    2    0    0 -0.45815322117E+01 -0.34029646144E+02  0.16906377446E+03  0.18980728459E+03  0.79153257635E+02 0.  0.
        -13    1    3    3    0    0  0.23700247618E+02 -0.91184556914E+01  0.13981053504E+03  0.14209797212E+03  0.00000000000E+00 0.  1.
         14    1    3    3    0    0 -0.28281779830E+02 -0.24911190452E+02  0.29253239421E+02  0.47709312474E+02  0.00000000000E+00 0. -1.
         -2    1    1    2    0  502  0.45815322117E+01  0.34029646144E+02  0.58338795216E+03  0.58439756158E+03  0.00000000000E+00 0.  1.
<mgrwt>
<rscale>  1 0.86280041E+02</rscale>
<asrwt>0</asrwt>
<pdfrwt beam="1">  1       21 0.16733175E-02 0.86280041E+02</pdfrwt>
<pdfrwt beam="2">  1       -1 0.11743508E+00 0.86280041E+02</pdfrwt>
<totfact> 0.10361188E+05</totfact>
</mgrwt>
</event>
<event>
 6    2  0.7993170E+000  0.8307353E+02  0.7546771E-02  0.1320549E+00
         -1   -1    0    0    0  501 -0.00000000000E+00  0.00000000000E+00  0.74986412789E+02  0.74986412789E+02  0.00000000000E+00 0.  1.
         21   -1    0    0  501  502  0.00000000000E+00 -0.00000000000E+00 -0.60637757602E+02  0.60637757602E+02  0.00000000000E+00 0.  1.
         24    2    1    2    0    0 -0.19177935685E+02 -0.95137690761E+01  0.47848514023E+02  0.95868094614E+02  0.80267716123E+02 0.  0.
        -11    1    3    3    0    0 -0.27735984621E+02 -0.20989212876E+02  0.64882443691E+02  0.73617684012E+02  0.00000000000E+00 0.  1.
         12    1    3    3    0    0  0.85580489367E+01  0.11475443800E+02 -0.17033929668E+02  0.22250410602E+02  0.00000000000E+00 0. -1.
         -2    1    1    2    0  502  0.19177935685E+02  0.95137690761E+01 -0.33499858836E+02  0.39756075777E+02  0.00000000000E+00 0.  1.
<mgrwt>
<rscale>  1 0.83073529E+02</rscale>
<asrwt>0</asrwt>
<pdfrwt beam="1">  1       21 0.93288858E-02 0.83073529E+02</pdfrwt>
<pdfrwt beam="2">  1       -1 0.11536371E-01 0.83073529E+02</pdfrwt>
<totfact> 0.37248630E+05</totfact>
</mgrwt>
</event>
<event>
 6    2  0.7993170E+000  0.9376802E+02  0.7546771E-02  0.1293975E+00
         21   -1    0    0  501  502  0.00000000000E+00  0.00000000000E+00  0.37045428081E+02  0.37045428081E+02  0.00000000000E+00 0.  1.
          2   -1    0    0  502    0 -0.00000000000E+00 -0.00000000000E+00 -0.13024978710E+03  0.13024978710E+03  0.00000000000E+00 0. -1.
         24    2    1    2    0    0  0.38260865484E+02 -0.21876472916E+02 -0.72886052359E+02  0.11876370500E+03  0.82764528046E+02 0.  0.
        -11    1    3    3    0    0  0.18170764729E+02 -0.51907037193E+02 -0.29859137874E+02  0.62578633059E+02  0.00000000000E+00 0.  1.
         12    1    3    3    0    0  0.20090100755E+02  0.30030564277E+02 -0.43026914485E+02  0.56185071943E+02  0.00000000000E+00 0. -1.
          1    1    1    2  501    0 -0.38260865484E+02  0.21876472916E+02 -0.20318306662E+02  0.48531510181E+02  0.00000000000E+00 0. -1.
<mgrwt>
<rscale>  1 0.93768017E+02</rscale>
<asrwt>0</asrwt>
<pdfrwt beam="1">  1       21 0.56992967E-02 0.93768017E+02</pdfrwt>
<pdfrwt beam="2">  1        2 0.20038429E-01 0.93768017E+02</pdfrwt>
<totfact> 0.68713995E+05</totfact>
</mgrwt>
</event>
<event>
 6    2  0.7993170E+000  0.9094946E+02  0.7546771E-02  0.1300569E+00
          2   -1    0    0  502    0 -0.00000000000E+00  0.00000000000E+00  0.13291917865E+04  0.13291917865E+04  0.00000000000E+00 0. -1.
         21   -1    0    0  501  502  0.00000000000E+00 -0.00000000000E+00 -0.89102074549E+01  0.89102074549E+01  0.00000000000E+00 0. -1.
         24    2    1    2    0    0  0.24331976892E+02  0.36684244700E+02  0.12609390811E+04  0.12642148437E+04  0.79586593679E+02 0.  0.
        -11    1    3    3    0    0 -0.24374782741E+02  0.52472883580E+01  0.17953487856E+03  0.18125792862E+03  0.00000000000E+00 0.  1.
         12    1    3    3    0    0  0.48706759632E+02  0.31436956342E+02  0.10814042026E+04  0.10829569151E+04  0.00000000000E+00 0. -1.
          1    1    1    2  501    0 -0.24331976892E+02 -0.36684244700E+02  0.59342497918E+02  0.73887150221E+02  0.00000000000E+00 0. -1.
<mgrwt>
<rscale>  1 0.90949463E+02</rscale>
<asrwt>0</asrwt>
<pdfrwt beam="1">  1       21 0.13708022E-02 0.90949463E+02</pdfrwt>
<pdfrwt beam="2">  1        2 0.20449089E+00 0.90949463E+02</pdfrwt>
<totfact> 0.47790341E+05</totfact>
</mgrwt>
</event>
<event>
 6    2  0.7993170E+000  0.9294122E+02  0.7546771E-02  0.1295881E+00
         21   -1    0    0  501  502  0.00000000000E+00  0.00000000000E+00  0.19460902420E+03  0.19460902420E+03  0.00000000000E+00 0. -1.
          2   -1    0    0  502    0 -0.00000000000E+00 -0.00000000000E+00 -0.25574340524E+03  0.25574340524E+03  0.00000000000E+00 0. -1.
         24    2    1    2    0    0  0.43081994287E+02 -0.18797541284E+02 -0.24423157634E+03  0.26131807088E+03  0.80178959172E+02 0.  0.
        -13    1    3    3    0    0  0.38890584571E+02 -0.32566982580E+02 -0.69754576172E+02  0.86248401837E+02  0.00000000000E+00 0.  1.
         14    1    3    3    0    0  0.41914097164E+01  0.13769441295E+02 -0.17447700017E+03  0.17506966904E+03  0.00000000000E+00 0. -1.
          1    1    1    2  501    0 -0.43081994287E+02  0.18797541284E+02  0.18309719530E+03  0.18903435856E+03  0.00000000000E+00 0. -1.
<mgrwt>
<rscale>  1 0.92941225E+02</rscale>
<asrwt>0</asrwt>
<pdfrwt beam="1">  1       21 0.29939850E-01 0.92941225E+02</pdfrwt>
<pdfrwt beam="2">  1        2 0.39345139E-01 0.92941225E+02</pdfrwt>
<totfact> 0.17412778E+04</totfact>
</mgrwt>
</event>
<event>
 6    2  0.7993170E+000  0.1037490E+03  0.7546771E-02  0.1272604E+00
          2   -1    0    0  502    0 -0.00000000000E+00  0.00000000000E+00  0.25610941412E+04  0.25610941412E+04  0.00000000000E+00 0. -1.
         21   -1    0    0  501  502  0.00000000000E+00 -0.00000000000E+00 -0.51754457480E+01  0.51754457480E+01  0.00000000000E+00 0.  1.
         24    2    1    2    0    0  0.57527248210E+01 -0.69139400237E+02  0.58489654358E+03  0.59402678403E+03  0.77139503112E+02 0.  0.
        -11    1    3    3    0    0  0.14574988168E+02 -0.83654800823E+02  0.52269813052E+03  0.52955065068E+03  0.00000000000E+00 0.  1.
         12    1    3    3    0    0 -0.88222633467E+01  0.14515400586E+02  0.62198413058E+02  0.64476133349E+02  0.00000000000E+00 0. -1.
          1    1    1    2  501    0 -0.57527248210E+01  0.69139400237E+02  0.19710221519E+04  0.19722428029E+04  0.00000000000E+00 0. -1.
<mgrwt>
<rscale>  1 0.10374899E+03</rscale>
<asrwt>0</asrwt>
<pdfrwt beam="1">  1       21 0.79622447E-03 0.10374899E+03</pdfrwt>
<pdfrwt beam="2">  1        2 0.39401347E+00 0.10374899E+03</pdfrwt>
<totfact> 0.26325234E+05</totfact>
</mgrwt>
</event>
<event>
 6    2  0.7993170E+000  0.8611973E+02  0.7546771E-02  0.1312530E+00
         21   -1    0    0  501  502  0.00000000000E+00  0.00000000000E+00  0.74119350148E+02  0.74119350148E+02  0.00000000000E+00 0.  1.
         -3   -1    0    0    0  501 -0.00000000000E+00 -0.00000000000E+00 -0.43806502988E+02  0.43806502988E+02  0.00000000000E+00 0.  1.
         24    2    1    2    0    0  0.17972281481E+02 -0.13539732038E+02  0.84185989927E+01  0.86530226878E+02  0.83128094584E+02 0.  0.
        -11    1    3    3    0    0  0.46079570749E+01 -0.53675886692E+01 -0.37423133575E+02  0.38085892442E+02  0.00000000000E+00 0.  1.
         12    1    3    3    0    0  0.13364324406E+02 -0.81721433687E+01  0.45841732568E+02  0.48444334435E+02  0.00000000000E+00 0. -1.
         -4    1    1    2    0  502 -0.17972281481E+02  0.13539732038E+02  0.21894248167E+02  0.31395626257E+02  0.00000000000E+00 0.  1.
<mgrwt>
<rscale>  1 0.86119727E+02</rscale>
<asrwt>0</asrwt>
<pdfrwt beam="1">  1       21 0.11402977E-01 0.86119727E+02</pdfrwt>
<pdfrwt beam="2">  1       -3 0.67394620E-02 0.86119727E+02</pdfrwt>
<totfact> 0.39708961E+05</totfact>
</mgrwt>
</event>
<event>
 6    2  0.7993170E+000  0.8671963E+02  0.7546771E-02  0.1310996E+00
          2   -1    0    0  502    0 -0.00000000000E+00  0.00000000000E+00  0.55199935407E+02  0.55199935407E+02  0.00000000000E+00 0. -1.
         21   -1    0    0  501  502  0.00000000000E+00 -0.00000000000E+00 -0.11062836015E+03  0.11062836015E+03  0.00000000000E+00 0. -1.
         24    2    1    2    0    0 -0.50064633775E+01  0.31647226299E+02  0.15412306716E+02  0.88078563457E+02  0.80583388700E+02 0.  0.
        -11    1    3    3    0    0 -0.27601334409E+02 -0.42983705568E+01 -0.18699730078E+02  0.33615317276E+02  0.00000000000E+00 0.  1.
         12    1    3    3    0    0  0.22594871031E+02  0.35945596856E+02  0.34112036794E+02  0.54463246181E+02  0.00000000000E+00 0. -1.
          1    1    1    2  501    0  0.50064633775E+01 -0.31647226299E+02 -0.70840731456E+02  0.77749732098E+02  0.00000000000E+00 0. -1.
<mgrwt>
<rscale>  1 0.86719630E+02</rscale>
<asrwt>0</asrwt>
<pdfrwt beam="1">  1       21 0.17019748E-01 0.86719630E+02</pdfrwt>
<pdfrwt beam="2">  1        2 0.84922977E-02 0.86719630E+02</pdfrwt>
<totfact> 0.28078142E+05</totfact>
</mgrwt>
</event>
<event>
 6    2  0.7993170E+000  0.9907613E+02  0.7546771E-02  0.1282251E+00
         21   -1    0    0  501  502  0.00000000000E+00  0.00000000000E+00  0.27635539312E+02  0.27635539312E+02  0.00000000000E+00 0. -1.
          2   -1    0    0  502    0 -0.00000000000E+00 -0.00000000000E+00 -0.53747718566E+03  0.53747718566E+03  0.00000000000E+00 0. -1.
         24    2    1    2    0    0  0.43543085272E+02  0.79225793193E+01 -0.51131975855E+03  0.52083008330E+03  0.88641483790E+02 0.  0.
        -11    1    3    3    0    0 -0.17502895318E+02 -0.23763383068E+02 -0.18513963801E+03  0.18747729271E+03  0.00000000000E+00 0.  1.
         12    1    3    3    0    0  0.61045980590E+02  0.31685962388E+02 -0.32618012054E+03  0.33335279059E+03  0.00000000000E+00 0. -1.
          1    1    1    2  501    0 -0.43543085272E+02 -0.79225793193E+01  0.14781121990E+01  0.44282641676E+02  0.00000000000E+00 0. -1.
<mgrwt>
<rscale>  1 0.99076133E+02</rscale>
<asrwt>0</asrwt>
<pdfrwt beam="1">  1       21 0.42516215E-02 0.99076133E+02</pdfrwt>
<pdfrwt beam="2">  1        2 0.82688796E-01 0.99076133E+02</pdfrwt>
<totfact> 0.24701051E+05</totfact>
</mgrwt>
</event>
<event>
 6    2  0.7993170E+000  0.8132236E+02  0.7546771E-02  0.1325340E+00
         21   -1    0    0  501  502  0.00000000000E+00  0.00000000000E+00  0.31094818210E+01  0.31094818210E+01  0.00000000000E+00 0.  1.
          2   -1    0    0  502    0 -0.00000000000E+00 -0.00000000000E+00 -0.10782873372E+04  0.10782873372E+04  0.00000000000E+00 0. -1.
         24    2    1    2    0    0 -0.21512148628E+02 -0.26936078518E+02 -0.74728151770E+03  0.75169341727E+03  0.73654612908E+02 0.  0.
        -13    1    3    3    0    0  0.17441575328E+02 -0.32785577091E+02 -0.23678514339E+03  0.23967959184E+03  0.00000000000E+00 0.  1.
         14    1    3    3    0    0 -0.38953723956E+02  0.58494985731E+01 -0.51049637431E+03  0.51201382542E+03  0.00000000000E+00 0. -1.
          1    1    1    2  501    0  0.21512148628E+02  0.26936078518E+02 -0.32789633764E+03  0.32970340171E+03  0.00000000000E+00 0. -1.
<mgrwt>
<rscale>  1 0.81322364E+02</rscale>
<asrwt>0</asrwt>
<pdfrwt beam="1">  1       21 0.47838187E-03 0.81322364E+02</pdfrwt>
<pdfrwt beam="2">  1        2 0.16589034E+00 0.81322364E+02</pdfrwt>
<totfact> 0.33184262E+06</totfact>
</mgrwt>
</event>
<event>
 6    2  0.7993170E+000  0.8662596E+02  0.7546771E-02  0.1311234E+00
          2   -1    0    0  502    0 -0.00000000000E+00  0.00000000000E+00  0.58608946574E+03  0.58608946574E+03  0.00000000000E+00 0. -1.
         21   -1    0    0  501  502  0.00000000000E+00 -0.00000000000E+00 -0.74168415289E+01  0.74168415289E+01  0.00000000000E+00 0.  1.
         24    2    1    2    0    0 -0.48872706355E+00 -0.31653898523E+02  0.27830765223E+03  0.29147762562E+03  0.80634042445E+02 0.  0.
        -13    1    3    3    0    0 -0.36070736624E+02 -0.24827530474E+02  0.94763053593E+02  0.10439128621E+03  0.00000000000E+00 0.  1.
         14    1    3    3    0    0  0.35582009561E+02 -0.68263680493E+01  0.18354459864E+03  0.18708633941E+03  0.00000000000E+00 0. -1.
          1    1    1    2  501    0  0.48872706355E+00  0.31653898523E+02  0.30036497197E+03  0.30202868164E+03  0.00000000000E+00 0. -1.
<mgrwt>
<rscale>  1 0.86625960E+02</rscale>
<asrwt>0</asrwt>
<pdfrwt beam="1">  1       21 0.11410530E-02 0.86625960E+02</pdfrwt>
<pdfrwt beam="2">  1        2 0.90167574E-01 0.86625960E+02</pdfrwt>
<totfact> 0.18411281E+06</totfact>
</mgrwt>
</event>
<event>
 6    2  0.7993170E+000  0.8488718E+02  0.7546771E-02  0.1315728E+00
          2   -1    0    0  502    0 -0.00000000000E+00  0.00000000000E+00  0.33597761792E+04  0.33597761792E+04  0.00000000000E+00 0. -1.
         21   -1    0    0  501  502  0.00000000000E+00 -0.00000000000E+00 -0.10628931706E+01  0.10628931706E+01  0.00000000000E+00 0.  1.
         24    2    1    2    0    0 -0.96314577053E+01 -0.21893173803E+02  0.18612083736E+04  0.18631431624E+04  0.81447882399E+02 0.  0.
        -13    1    3    3    0    0 -0.15601930072E+02  0.94413706334E+01  0.10020282654E+03  0.10184874151E+03  0.00000000000E+00 0.  1.
         14    1    3    3    0    0  0.59704723670E+01 -0.31334544437E+02  0.17610055470E+04  0.17612944208E+04  0.00000000000E+00 0. -1.
          1    1    1    2  501    0  0.96314577053E+01  0.21893173803E+02  0.14975049125E+04  0.14976959100E+04  0.00000000000E+00 0. -1.
<mgrwt>
<rscale>  1 0.84887182E+02</rscale>
<asrwt>0</asrwt>
<pdfrwt beam="1">  1       21 0.16352472E-03 0.84887182E+02</pdfrwt>
<pdfrwt beam="2">  1        2 0.51688014E+00 0.84887182E+02</pdfrwt>
<totfact> 0.10280944E+06</totfact>
</mgrwt>
</event>
<event>
 6    2  0.7993170E+000  0.8464685E+02  0.7546771E-02  0.1316359E+00
          2   -1    0    0  502    0 -0.00000000000E+00  0.00000000000E+00  0.42358922140E+03  0.42358922140E+03  0.00000000000E+00 0. -1.
         21   -1    0    0  501  502  0.00000000000E+00 -0.00000000000E+00 -0.78054510006E+01  0.78054510006E+01  0.00000000000E+00 0.  1.
         24    2    1    2    0    0  0.87087868282E+01 -0.26329836588E+02  0.34822321455E+03  0.35836363811E+03  0.79974912977E+02 0.  0.
        -11    1    3    3    0    0 -0.50732619146E+01 -0.19680375107E+02  0.16206138039E+02  0.25994115891E+02  0.00000000000E+00 0.  1.
         12    1    3    3    0    0  0.13782048743E+02 -0.66494614805E+01  0.33201707651E+03  0.33236952222E+03  0.00000000000E+00 0. -1.
          1    1    1    2  501    0 -0.87087868282E+01  0.26329836588E+02  0.67560555851E+02  0.73031034291E+02  0.00000000000E+00 0. -1.
<mgrwt>
<rscale>  1 0.84646854E+02</rscale>
<asrwt>0</asrwt>
<pdfrwt beam="1">  1       21 0.12008389E-02 0.84646854E+02</pdfrwt>
<pdfrwt beam="2">  1        2 0.65167554E-01 0.84646854E+02</pdfrwt>
<totfact> 0.24060215E+06</totfact>
</mgrwt>
</event>
<event>
 6    2  0.7993170E+000  0.8374881E+02  0.7546771E-02  0.1318737E+00
          2   -1    0    0  502    0 -0.00000000000E+00  0.00000000000E+00  0.13715823707E+03  0.13715823707E+03  0.00000000000E+00 0. -1.
         21   -1    0    0  501  502  0.00000000000E+00 -0.00000000000E+00 -0.30001704910E+02  0.30001704910E+02  0.00000000000E+00 0.  1.
         24    2    1    2    0    0 -0.18190045289E+02 -0.14651609036E+02  0.34038271633E+02  0.90401701918E+02  0.80425843974E+02 0.  0.
        -13    1    3    3    0    0  0.27309375490E+02 -0.13744044565E+02 -0.43292318701E+01  0.30877872324E+02  0.00000000000E+00 0.  1.
         14    1    3    3    0    0 -0.45499420779E+02 -0.90756447148E+00  0.38367503503E+02  0.59523829594E+02  0.00000000000E+00 0. -1.
          1    1    1    2  501    0  0.18190045289E+02  0.14651609036E+02  0.73118260529E+02  0.76758240064E+02  0.00000000000E+00 0. -1.
<mgrwt>
<rscale>  1 0.83748814E+02</rscale>
<asrwt>0</asrwt>
<pdfrwt beam="1">  1       21 0.46156470E-02 0.83748814E+02</pdfrwt>
<pdfrwt beam="2">  1        2 0.21101267E-01 0.83748814E+02</pdfrwt>
<totfact> 0.91096543E+05</totfact>
</mgrwt>
</event>
<event>
 6    2  0.7993170E+000  0.9086303E+02  0.7546771E-02  0.1300775E+00
          2   -1    0    0  502    0 -0.00000000000E+00  0.00000000000E+00  0.12814823090E+03  0.12814823090E+03  0.00000000000E+00 0. -1.
         21   -1    0    0  501  502  0.00000000000E+00 -0.00000000000E+00 -0.54516049060E+02  0.54516049060E+02  0.00000000000E+00 0. -1.
         24    2    1    2    0    0  0.43407590128E+02  0.41887195287E+01  0.97231459506E+02  0.13307909913E+03  0.79714024209E+02 0.  0.
        -11    1    3    3    0    0 -0.22407639686E+01  0.18662261087E+02 -0.56260202296E+01  0.19620222111E+02  0.00000000000E+00 0.  1.
         12    1    3    3    0    0  0.45648354096E+02 -0.14473541558E+02  0.10285747974E+03  0.11345887702E+03  0.00000000000E+00 0. -1.
          1    1    1    2  501    0 -0.43407590128E+02 -0.41887195287E+01 -0.23599277663E+02  0.49585180833E+02  0.00000000000E+00 0. -1.
<mgrwt>
<rscale>  1 0.90863028E+02</rscale>
<asrwt>0</asrwt>
<pdfrwt beam="1">  1       21 0.83870845E-02 0.90863028E+02</pdfrwt>
<pdfrwt beam="2">  1        2 0.19715112E-01 0.90863028E+02</pdfrwt>
<totfact> 0.36255971E+05</totfact>
</mgrwt>
</event>
<event>
 6    2  0.7993170E+000  0.9311039E+02  0.7546771E-02  0.1295490E+00
         21   -1    0    0  501  502  0.00000000000E+00  0.00000000000E+00  0.12001499231E+02  0.12001499231E+02  0.00000000000E+00 0. -1.
          2   -1    0    0  502    0 -0.00000000000E+00 -0.00000000000E+00 -0.85547652794E+03  0.85547652794E+03  0.00000000000E+00 0. -1.
         24    2    1    2    0    0 -0.45015394377E+02 -0.12980584185E+02 -0.79362447201E+03  0.79906779913E+03  0.80465295294E+02 0.  0.
        -13    1    3    3    0    0  0.11064793653E+02 -0.27796182116E+02 -0.15839952968E+03  0.16120008809E+03  0.00000000000E+00 0.  1.
         14    1    3    3    0    0 -0.56080188030E+02  0.14815597931E+02 -0.63522494233E+03  0.63786771104E+03  0.00000000000E+00 0. -1.
          1    1    1    2  501    0  0.45015394377E+02  0.12980584185E+02 -0.49850556702E+02  0.68410228038E+02  0.00000000000E+00 0. -1.
<mgrwt>
<rscale>  1 0.93110392E+02</rscale>
<asrwt>0</asrwt>
<pdfrwt beam="1">  1       21 0.18463844E-02 0.93110392E+02</pdfrwt>
<pdfrwt beam="2">  1        2 0.13161178E+00 0.93110392E+02</pdfrwt>
<totfact> 0.55509179E+05</totfact>
</mgrwt>
</event>
<event>
 6    2  0.7993170E+000  0.8836607E+02  0.7546771E-02  0.1306857E+00
         21   -1    0    0  501  502  0.00000000000E+00  0.00000000000E+00  0.10227622890E+02  0.10227622890E+02  0.00000000000E+00 0. -1.
          2   -1    0    0  502    0 -0.00000000000E+00 -0.00000000000E+00 -0.36167256754E+04  0.36167256754E+04  0.00000000000E+00 0. -1.
         24    2    1    2    0    0 -0.35397548659E+02 -0.19227033862E+02 -0.35742785955E+04  0.35753707557E+04  0.78650478694E+02 0.  0.
        -11    1    3    3    0    0  0.14363702151E+02 -0.31940798963E+02 -0.10938990229E+04  0.10944595026E+04  0.00000000000E+00 0.  1.
         12    1    3    3    0    0 -0.49761250810E+02  0.12713765101E+02 -0.24803795726E+04  0.24809112532E+04  0.00000000000E+00 0. -1.
          1    1    1    2  501    0  0.35397548659E+02  0.19227033862E+02 -0.32219457040E+02  0.51582542533E+02  0.00000000000E+00 0. -1.
<mgrwt>
<rscale>  1 0.88366074E+02</rscale>
<asrwt>0</asrwt>
<pdfrwt beam="1">  1       21 0.15734800E-02 0.88366074E+02</pdfrwt>
<pdfrwt beam="2">  1        2 0.55641950E+00 0.88366074E+02</pdfrwt>
<totfact> 0.21902793E+04</totfact>
</mgrwt>
</event>
<event>
 6    2  0.7993170E+000  0.8423372E+02  0.7546771E-02  0.1317449E+00
         21   -1    0    0  501  502  0.00000000000E+00  0.00000000000E+00  0.37445275593E+03  0.37445275593E+03  0.00000000000E+00 0. -1.
         -1   -1    0    0    0  501 -0.00000000000E+00 -0.00000000000E+00 -0.11542987222E+02  0.11542987222E+02  0.00000000000E+00 0.  1.
         24    2    1    2    0    0  0.10697170015E+00  0.22796164519E+02  0.15134955452E+03  0.17321087342E+03  0.81090335168E+02 0.  0.
        -11    1    3    3    0    0  0.83980759196E+01 -0.19516149173E+02  0.67088563708E+01  0.22280406448E+02  0.00000000000E+00 0.  1.
         12    1    3    3    0    0 -0.82911042195E+01  0.42312313692E+02  0.14464069815E+03  0.15093046697E+03  0.00000000000E+00 0. -1.
         -2    1    1    2    0  502 -0.10697170015E+00 -0.22796164519E+02  0.21156021419E+03  0.21278486974E+03  0.00000000000E+00 0.  1.
<mgrwt>
<rscale>  1 0.84233717E+02</rscale>
<asrwt>0</asrwt>
<pdfrwt beam="1">  1       21 0.57608107E-01 0.84233717E+02</pdfrwt>
<pdfrwt beam="2">  1       -1 0.17758445E-02 0.84233717E+02</pdfrwt>
<totfact> 0.19061554E+05</totfact>
</mgrwt>
</event>
<event>
 6    2  0.7993170E+000  0.8873578E+02  0.7546771E-02  0.1305942E+00
         21   -1    0    0  501  502  0.00000000000E+00  0.00000000000E+00  0.41864897846E+03  0.41864897846E+03  0.00000000000E+00 0. -1.
          2   -1    0    0  502    0 -0.00000000000E+00 -0.00000000000E+00 -0.11660891802E+02  0.11660891802E+02  0.00000000000E+00 0. -1.
         24    2    1    2    0    0  0.13928258004E+02 -0.35441811162E+02  0.18621497422E+03  0.20627664611E+03  0.80149359051E+02 0.  0.
        -11    1    3    3    0    0 -0.27960277098E+02 -0.36264365495E+02  0.81361120345E+02  0.93362268631E+02  0.00000000000E+00 0.  1.
         12    1    3    3    0    0  0.41888535102E+02  0.82255433232E+00  0.10485385387E+03  0.11291437747E+03  0.00000000000E+00 0. -1.
          1    1    1    2  501    0 -0.13928258004E+02  0.35441811162E+02  0.22077311244E+03  0.22403322416E+03  0.00000000000E+00 0. -1.
<mgrwt>
<rscale>  1 0.88735777E+02</rscale>
<asrwt>0</asrwt>
<pdfrwt beam="1">  1       21 0.64407524E-01 0.88735777E+02</pdfrwt>
<pdfrwt beam="2">  1        2 0.17939837E-02 0.88735777E+02</pdfrwt>
<totfact> 0.16098799E+05</totfact>
</mgrwt>
</event>
<event>
 6    2  0.7993170E+000  0.8530159E+02  0.7546771E-02  0.1314646E+00
         21   -1    0    0  501  502  0.00000000000E+00  0.00000000000E+00  0.18125419681E+03  0.18125419681E+03  0.00000000000E+00 0.  1.
         -1   -1    0    0    0  501 -0.00000000000E+00 -0.00000000000E+00 -0.21516012735E+02  0.21516012735E+02  0.00000000000E+00 0.  1.
         24    2    1    2    0    0  0.31765262697E+02  0.15869777566E+02  0.87076257253E+02  0.12189600251E+03  0.77559519702E+02 0.  0.
        -11    1    3    3    0    0  0.26089445821E+02  0.36389998389E+02  0.15758561249E+02  0.47468130558E+02  0.00000000000E+00 0.  1.
         12    1    3    3    0    0  0.56758168756E+01 -0.20520220824E+02  0.71317696005E+02  0.74427871952E+02  0.00000000000E+00 0. -1.
         -2    1    1    2    0  502 -0.31765262697E+02 -0.15869777566E+02  0.72661926825E+02  0.80874207038E+02  0.00000000000E+00 0.  1.
<mgrwt>
<rscale>  1 0.85301588E+02</rscale>
<asrwt>0</asrwt>
<pdfrwt beam="1">  1       21 0.27885260E-01 0.85301588E+02</pdfrwt>
<pdfrwt beam="2">  1       -1 0.33101559E-02 0.85301588E+02</pdfrwt>
<totfact> 0.32923285E+05</totfact>
</mgrwt>
</event>
<event>
 6    2  0.7993170E+000  0.8065262E+02  0.7546771E-02  0.1327210E+00
         -1   -1    0    0    0  501 -0.00000000000E+00  0.00000000000E+00  0.65439683302E+02  0.65439683302E+02  0.00000000000E+00 0.  1.
         21   -1    0    0  501  502  0.00000000000E+00 -0.00000000000E+00 -0.41452251515E+02  0.41452251515E+02  0.00000000000E+00 0. -1.
         24    2    1    2    0    0  0.12800441020E+02  0.19647852651E+02  0.20133436281E+02  0.83127619437E+02  0.77168364326E+02 0.  0.
        -11    1    3    3    0    0 -0.15912140510E+02 -0.36713086567E+01  0.38506923998E+02  0.41826521714E+02  0.00000000000E+00 0.  1.
         12    1    3    3    0    0  0.28712581530E+02  0.23319161308E+02 -0.18373487718E+02  0.41301097723E+02  0.00000000000E+00 0. -1.
         -2    1    1    2    0  502 -0.12800441020E+02 -0.19647852651E+02  0.38539955065E+01  0.23764315379E+02  0.00000000000E+00 0.  1.
<mgrwt>
<rscale>  1 0.80652625E+02</rscale>
<asrwt>0</asrwt>
<pdfrwt beam="1">  1       21 0.63772695E-02 0.80652625E+02</pdfrwt>
<pdfrwt beam="2">  1       -1 0.10067644E-01 0.80652625E+02</pdfrwt>
<totfact> 0.87070428E+05</totfact>
</mgrwt>
</event>
<event>
 6    2  0.7993170E+000  0.9189411E+02  0.7546771E-02  0.1298329E+00
          2   -1    0    0  502    0 -0.00000000000E+00  0.00000000000E+00  0.18687527839E+04  0.18687527839E+04  0.00000000000E+00 0. -1.
         21   -1    0    0  501  502  0.00000000000E+00 -0.00000000000E+00 -0.24116254690E+01  0.24116254690E+01  0.00000000000E+00 0.  1.
         24    2    1    2    0    0 -0.74104021005E+01 -0.39346363164E+02  0.14474711973E+04  0.14503852575E+04  0.82713225398E+02 0.  0.
        -11    1    3    3    0    0  0.28212684294E+02 -0.23598859882E+01  0.21647766097E+03  0.21832109910E+03  0.00000000000E+00 0.  1.
         12    1    3    3    0    0 -0.35623086394E+02 -0.36986477176E+02  0.12309935364E+04  0.12320641584E+04  0.00000000000E+00 0. -1.
          1    1    1    2  501    0  0.74104021005E+01  0.39346363164E+02  0.41886996114E+03  0.42077915193E+03  0.00000000000E+00 0. -1.
<mgrwt>
<rscale>  1 0.91894113E+02</rscale>
<asrwt>0</asrwt>
<pdfrwt beam="1">  1       21 0.37102080E-03 0.91894113E+02</pdfrwt>
<pdfrwt beam="2">  1        2 0.28749927E+00 0.91894113E+02</pdfrwt>
<totfact> 0.19236578E+06</totfact>
</mgrwt>
</event>
<event>
 6    2  0.7993170E+000  0.8411127E+02  0.7546771E-02  0.1317773E+00
         21   -1    0    0  501  502  0.00000000000E+00  0.00000000000E+00  0.44535371223E+01  0.44535371223E+01  0.00000000000E+00 0. -1.
          2   -1    0    0  502    0 -0.00000000000E+00 -0.00000000000E+00 -0.10323314630E+04  0.10323314630E+04  0.00000000000E+00 0. -1.
         24    2    1    2    0    0  0.25139767123E+02  0.40711183876E+00 -0.97052376751E+03  0.97416173677E+03  0.80265387658E+02 0.  0.
        -11    1    3    3    0    0  0.29632817778E+01 -0.10537600241E+02 -0.16400171062E+02  0.19717699374E+02  0.00000000000E+00 0.  1.
         12    1    3    3    0    0  0.22176485345E+02  0.10944712079E+02 -0.95412359645E+03  0.95444403740E+03  0.00000000000E+00 0. -1.
          1    1    1    2  501    0 -0.25139767123E+02 -0.40711183876E+00 -0.57354158402E+02  0.62623263386E+02  0.00000000000E+00 0. -1.
<mgrwt>
<rscale>  1 0.84111272E+02</rscale>
<asrwt>0</asrwt>
<pdfrwt beam="1">  1       21 0.68515974E-03 0.84111272E+02</pdfrwt>
<pdfrwt beam="2">  1        2 0.15882018E+00 0.84111272E+02</pdfrwt>
<totfact> 0.20377238E+06</totfact>
</mgrwt>
</event>
<event>
 6    2  0.7993170E+000  0.8379148E+02  0.7546771E-02  0.1318624E+00
          4   -1    0    0  502    0 -0.00000000000E+00  0.00000000000E+00  0.18359641778E+02  0.18359641778E+02  0.00000000000E+00 0. -1.
         21   -1    0    0  501  502  0.00000000000E+00 -0.00000000000E+00 -0.17132294299E+03  0.17132294299E+03  0.00000000000E+00 0.  1.
         24    2    1    2    0    0 -0.16620790940E+02 -0.18924471306E+02 -0.96156839683E+02  0.12754273944E+03  0.79916370417E+02 0.  0.
        -11    1    3    3    0    0  0.35003469601E+01 -0.38654281225E+02 -0.90950245296E+02  0.98885555090E+02  0.00000000000E+00 0.  1.
         12    1    3    3    0    0 -0.20121137901E+02  0.19729809919E+02 -0.52065943863E+01  0.28657184351E+02  0.00000000000E+00 0. -1.
          3    1    1    2  501    0  0.16620790940E+02  0.18924471306E+02 -0.56806461528E+02  0.62139845325E+02  0.00000000000E+00 0. -1.
<mgrwt>
<rscale>  1 0.83791483E+02</rscale>
<asrwt>0</asrwt>
<pdfrwt beam="1">  1       21 0.26357376E-01 0.83791483E+02</pdfrwt>
<pdfrwt beam="2">  1        4 0.28245603E-02 0.83791483E+02</pdfrwt>
<totfact> 0.30040188E+05</totfact>
</mgrwt>
</event>
<event>
 6    2  0.7993170E+000  0.9709839E+02  0.7546771E-02  0.1286519E+00
         21   -1    0    0  501  502  0.00000000000E+00  0.00000000000E+00  0.15623200231E+02  0.15623200231E+02  0.00000000000E+00 0. -1.
          2   -1    0    0  502    0 -0.00000000000E+00 -0.00000000000E+00 -0.44682344849E+03  0.44682344849E+03  0.00000000000E+00 0. -1.
         24    2    1    2    0    0 -0.24490489792E+02 -0.47796366046E+02 -0.36231259513E+03  0.37509800562E+03  0.80893884405E+02 0.  0.
        -11    1    3    3    0    0  0.29932738363E+02 -0.14537452291E+02 -0.12943863228E+03  0.13364754345E+03  0.00000000000E+00 0.  1.
         12    1    3    3    0    0 -0.54423228156E+02 -0.33258913756E+02 -0.23287396285E+03  0.24145046217E+03  0.00000000000E+00 0. -1.
          1    1    1    2  501    0  0.24490489792E+02  0.47796366046E+02 -0.68887653128E+02  0.87348643098E+02  0.00000000000E+00 0. -1.
<mgrwt>
<rscale>  1 0.97098389E+02</rscale>
<asrwt>0</asrwt>
<pdfrwt beam="1">  1       21 0.24035693E-02 0.97098389E+02</pdfrwt>
<pdfrwt beam="2">  1        2 0.68742069E-01 0.97098389E+02</pdfrwt>
<totfact> 0.76475349E+05</totfact>
</mgrwt>
</event>
<event>
 6    2  0.7993170E+000  0.8459106E+02  0.7546771E-02  0.1316505E+00
          2   -1    0    0  502    0 -0.00000000000E+00  0.00000000000E+00  0.15284217714E+03  0.15284217714E+03  0.00000000000E+00 0. -1.
         21   -1    0    0  501  502  0.00000000000E+00 -0.00000000000E+00 -0.22059511371E+02  0.22059511371E+02  0.00000000000E+00 0. -1.
         24    2    1    2    0    0 -0.83664123256E+01  0.26148833297E+02  0.11644882521E+03  0.14393045471E+03  0.80011802642E+02 0.  0.
        -13    1    3    3    0    0  0.39551685444E+01 -0.26480045589E+02  0.20186932230E+02  0.33531304858E+02  0.00000000000E+00 0.  1.
         14    1    3    3    0    0 -0.12321580870E+02  0.52628878886E+02  0.96261892978E+02  0.11039914985E+03  0.00000000000E+00 0. -1.
          1    1    1    2  501    0  0.83664123256E+01 -0.26148833297E+02  0.14333840561E+02  0.30971233803E+02  0.00000000000E+00 0. -1.
<mgrwt>
<rscale>  1 0.84591057E+02</rscale>
<asrwt>0</asrwt>
<pdfrwt beam="1">  1       21 0.33937711E-02 0.84591057E+02</pdfrwt>
<pdfrwt beam="2">  1        2 0.23514180E-01 0.84591057E+02</pdfrwt>
<totfact> 0.13416429E+06</totfact>
</mgrwt>
</event>
<event>
 6    2  0.7993170E+000  0.8930084E+02  0.7546771E-02  0.1304554E+00
          2   -1    0    0  502    0 -0.00000000000E+00  0.00000000000E+00  0.26069867387E+04  0.26069867387E+04  0.00000000000E+00 0. -1.
         21   -1    0    0  501  502  0.00000000000E+00 -0.00000000000E+00 -0.39176657287E+01  0.39176657287E+01  0.00000000000E+00 0. -1.
         24    2    1    2    0    0 -0.27888772597E+02  0.29314779908E+02  0.24746758717E+04  0.24762865969E+04  0.79608418565E+02 0.  0.
        -13    1    3    3    0    0 -0.43318930571E+02  0.19055892787E+01  0.70556244321E+03  0.70689357210E+03  0.00000000000E+00 0.  1.
         14    1    3    3    0    0  0.15430157975E+02  0.27409190630E+02  0.17691134285E+04  0.17693930248E+04  0.00000000000E+00 0. -1.
          1    1    1    2  501    0  0.27888772597E+02 -0.29314779908E+02  0.12839320132E+03  0.13461780752E+03  0.00000000000E+00 0. -1.
<mgrwt>
<rscale>  1 0.89300841E+02</rscale>
<asrwt>0</asrwt>
<pdfrwt beam="1">  1       21 0.60271989E-03 0.89300841E+02</pdfrwt>
<pdfrwt beam="2">  1        2 0.40107350E+00 0.89300841E+02</pdfrwt>
<totfact> 0.38274523E+05</totfact>
</mgrwt>
</event>
<event>
 6    2  0.7993170E+000  0.8790170E+02  0.7546771E-02  0.1308014E+00
         21   -1    0    0  501  502  0.00000000000E+00  0.00000000000E+00  0.39281193015E+01  0.39281193015E+01  0.00000000000E+00 0.  1.
          2   -1    0    0  502    0 -0.00000000000E+00 -0.00000000000E+00 -0.15310995758E+04  0.15310995758E+04  0.00000000000E+00 0. -1.
         24    2    1    2    0    0  0.72833426545E+00 -0.35766099194E+02 -0.14044606497E+04  0.14072087355E+04  0.80292991291E+02 0.  0.
        -13    1    3    3    0    0  0.13599738486E+02 -0.24476356432E+01 -0.40725927894E+02  0.43006336858E+02  0.00000000000E+00 0.  1.
         14    1    3    3    0    0 -0.12871404221E+02 -0.33318463551E+02 -0.13637347218E+04  0.13642023987E+04  0.00000000000E+00 0. -1.
          1    1    1    2  501    0 -0.72833426545E+00  0.35766099194E+02 -0.12271080674E+03  0.12781895952E+03  0.00000000000E+00 0. -1.
<mgrwt>
<rscale>  1 0.87901699E+02</rscale>
<asrwt>0</asrwt>
<pdfrwt beam="1">  1       21 0.60432664E-03 0.87901699E+02</pdfrwt>
<pdfrwt beam="2">  1        2 0.23555355E+00 0.87901699E+02</pdfrwt>
<totfact> 0.13445408E+06</totfact>
</mgrwt>
</event>
<event>
 6    2  0.7993170E+000  0.9477845E+02  0.7546771E-02  0.1291676E+00
          2   -1    0    0  502    0 -0.00000000000E+00  0.00000000000E+00  0.71924227703E+02  0.71924227703E+02  0.00000000000E+00 0. -1.
         21   -1    0    0  501  502  0.00000000000E+00 -0.00000000000E+00 -0.80969176803E+02  0.80969176803E+02  0.00000000000E+00 0.  1.
         24    2    1    2    0    0  0.39409375842E+02 -0.25150180052E+02  0.21320295842E+02  0.97146848010E+02  0.82445888936E+02 0.  0.
        -11    1    3    3    0    0  0.11021048884E+02 -0.21718519507E+02 -0.29852286217E+02  0.38526829619E+02  0.00000000000E+00 0.  1.
         12    1    3    3    0    0  0.28388326958E+02 -0.34316605454E+01  0.51172582059E+02  0.58620018391E+02  0.00000000000E+00 0. -1.
          1    1    1    2  501    0 -0.39409375842E+02  0.25150180052E+02 -0.30365244941E+02  0.55746556497E+02  0.00000000000E+00 0. -1.
<mgrwt>
<rscale>  1 0.94778453E+02</rscale>
<asrwt>0</asrwt>
<pdfrwt beam="1">  1       21 0.12456796E-01 0.94778453E+02</pdfrwt>
<pdfrwt beam="2">  1        2 0.11065266E-01 0.94778453E+02</pdfrwt>
<totfact> 0.35749793E+05</totfact>
</mgrwt>
</event>
<event>
 6    2  0.7993170E+000  0.8515955E+02  0.7546771E-02  0.1315016E+00
          2   -1    0    0  502    0 -0.00000000000E+00  0.00000000000E+00  0.48682653467E+03  0.48682653467E+03  0.00000000000E+00 0. -1.
         21   -1    0    0  501  502  0.00000000000E+00 -0.00000000000E+00 -0.92625344755E+01  0.92625344755E+01  0.00000000000E+00 0. -1.
         24    2    1    2    0    0  0.58324838809E+01  0.20258540196E+02  0.46225896744E+03  0.47003776694E+03  0.82508927081E+02 0.  0.
        -11    1    3    3    0    0 -0.99156853144E+01  0.48511661411E+02  0.21246987997E+03  0.21816313163E+03  0.00000000000E+00 0.  1.
         12    1    3    3    0    0  0.15748169195E+02 -0.28253121214E+02  0.24978908747E+03  0.25187463531E+03  0.00000000000E+00 0. -1.
          1    1    1    2  501    0 -0.58324838809E+01 -0.20258540196E+02  0.15305032749E+02  0.26051302205E+02  0.00000000000E+00 0. -1.
<mgrwt>
<rscale>  1 0.85159552E+02</rscale>
<asrwt>0</asrwt>
<pdfrwt beam="1">  1       21 0.14250057E-02 0.85159552E+02</pdfrwt>
<pdfrwt beam="2">  1        2 0.74896370E-01 0.85159552E+02</pdfrwt>
<totfact> 0.15861573E+06</totfact>
</mgrwt>
</event>
<event>
 6    2  0.7993170E+000  0.8374360E+02  0.7546771E-02  0.1318751E+00
         21   -1    0    0  501  502  0.00000000000E+00  0.00000000000E+00  0.17810635097E+02  0.17810635097E+02  0.00000000000E+00 0. -1.
          2   -1    0    0  502    0 -0.00000000000E+00 -0.00000000000E+00 -0.30020902578E+03  0.30020902578E+03  0.00000000000E+00 0. -1.
         24    2    1    2    0    0 -0.21750151060E+02 -0.23296767365E+01 -0.28399713802E+03  0.29608675277E+03  0.80836218959E+02 0.  0.
        -11    1    3    3    0    0 -0.93182354765E+01 -0.29334279013E+02 -0.40945139913E+02  0.51223372792E+02  0.00000000000E+00 0.  1.
         12    1    3    3    0    0 -0.12431915584E+02  0.27004602277E+02 -0.24305199811E+03  0.24486337998E+03  0.00000000000E+00 0. -1.
          1    1    1    2  501    0  0.21750151060E+02  0.23296767365E+01  0.15987473438E+01  0.21932908104E+02  0.00000000000E+00 0. -1.
<mgrwt>
<rscale>  1 0.83743601E+02</rscale>
<asrwt>0</asrwt>
<pdfrwt beam="1">  1       21 0.27400979E-02 0.83743601E+02</pdfrwt>
<pdfrwt beam="2">  1        2 0.46186000E-01 0.83743601E+02</pdfrwt>
<totfact> 0.92641851E+05</totfact>
</mgrwt>
</event>
<event>
 6    2  0.7993170E+000  0.8502677E+02  0.7546771E-02  0.1315363E+00
         21   -1    0    0  501  502  0.00000000000E+00  0.00000000000E+00  0.11883666673E+04  0.11883666673E+04  0.00000000000E+00 0. -1.
         -1   -1    0    0    0  501 -0.00000000000E+00 -0.00000000000E+00 -0.37207454950E+01  0.37207454950E+01  0.00000000000E+00 0.  1.
         24    2    1    2    0    0 -0.15304162205E+02  0.24932939990E+02  0.52904522993E+03  0.53583430914E+03  0.79835347161E+02 0.  0.
        -11    1    3    3    0    0 -0.28909255546E+01 -0.26659240477E+02  0.10049028022E+03  0.10400658139E+03  0.00000000000E+00 0.  1.
         12    1    3    3    0    0 -0.12413236650E+02  0.51592180467E+02  0.42855494971E+03  0.43182772775E+03  0.00000000000E+00 0. -1.
         -2    1    1    2    0  502  0.15304162205E+02 -0.24932939990E+02  0.65560069190E+03  0.65625310369E+03  0.00000000000E+00 0.  1.
<mgrwt>
<rscale>  1 0.85026770E+02</rscale>
<asrwt>0</asrwt>
<pdfrwt beam="1">  1       21 0.18282534E+00 0.85026770E+02</pdfrwt>
<pdfrwt beam="2">  1       -1 0.57242333E-03 0.85026770E+02</pdfrwt>
<totfact> 0.62739585E+04</totfact>
</mgrwt>
</event>
<event>
 6    2  0.7993170E+000  0.9421435E+02  0.7546771E-02  0.1292955E+00
         21   -1    0    0  501  502  0.00000000000E+00  0.00000000000E+00  0.19750521251E+02  0.19750521251E+02  0.00000000000E+00 0. -1.
          2   -1    0    0  502    0 -0.00000000000E+00 -0.00000000000E+00 -0.28045816008E+03  0.28045816008E+03  0.00000000000E+00 0. -1.
         24    2    1    2    0    0 -0.15079028815E+02 -0.14280862045E+02 -0.26295079321E+03  0.27931964419E+03  0.91896810900E+02 0.  0.
        -11    1    3    3    0    0  0.17087756421E+02 -0.45920892742E+02 -0.13053584276E+03  0.13942856973E+03  0.00000000000E+00 0.  1.
         12    1    3    3    0    0 -0.32166785236E+02  0.31640030697E+02 -0.13241495044E+03  0.13989107447E+03  0.00000000000E+00 0. -1.
          1    1    1    2  501    0  0.15079028815E+02  0.14280862045E+02  0.22431543827E+01  0.20889037133E+02  0.00000000000E+00 0. -1.
<mgrwt>
<rscale>  1 0.94214351E+02</rscale>
<asrwt>0</asrwt>
<pdfrwt beam="1">  1       21 0.30385419E-02 0.94214351E+02</pdfrwt>
<pdfrwt beam="2">  1        2 0.43147407E-01 0.94214351E+02</pdfrwt>
<totfact> 0.85115001E+05</totfact>
</mgrwt>
</event>
<event>
 6    2  0.7993170E+000  0.9883311E+02  0.7546771E-02  0.1282769E+00
         21   -1    0    0  501  502  0.00000000000E+00  0.00000000000E+00  0.21576462277E+03  0.21576462277E+03  0.00000000000E+00 0.  1.
          4   -1    0    0  502    0 -0.00000000000E+00 -0.00000000000E+00 -0.32709705395E+02  0.32709705395E+02  0.00000000000E+00 0. -1.
         24    2    1    2    0    0 -0.37206898758E+02  0.33970134739E+02  0.16965078669E+03  0.19633994327E+03  0.85027410453E+02 0.  0.
        -13    1    3    3    0    0 -0.14669096895E+02  0.40631625604E+02  0.16722371156E+03  0.17271329164E+03  0.00000000000E+00 0.  1.
         14    1    3    3    0    0 -0.22537801863E+02 -0.66614908649E+01  0.24270751340E+01  0.23626651627E+02  0.00000000000E+00 0. -1.
          3    1    1    2  501    0  0.37206898758E+02 -0.33970134739E+02  0.13404130688E+02  0.52134384900E+02  0.00000000000E+00 0. -1.
<mgrwt>
<rscale>  1 0.98833111E+02</rscale>
<asrwt>0</asrwt>
<pdfrwt beam="1">  1       21 0.33194556E-01 0.98833111E+02</pdfrwt>
<pdfrwt beam="2">  1        4 0.50322625E-02 0.98833111E+02</pdfrwt>
<totfact> 0.80269305E+04</totfact>
</mgrwt>
</event>
<event>
 6    2  0.7993170E+000  0.8828452E+02  0.7546771E-02  0.1307060E+00
         21   -1    0    0  501  502  0.00000000000E+00  0.00000000000E+00  0.32124285722E+01  0.32124285722E+01  0.00000000000E+00 0. -1.
          2   -1    0    0  502    0 -0.00000000000E+00 -0.00000000000E+00 -0.11809265616E+04  0.11809265616E+04  0.00000000000E+00 0. -1.
         24    2    1    2    0    0  0.12532027794E+02 -0.31744999460E+02 -0.78669077985E+03  0.79162904196E+03  0.81420883499E+02 0.  0.
        -11    1    3    3    0    0 -0.26906972896E+02 -0.34586445988E+01 -0.11374428798E+03  0.11693464183E+03  0.00000000000E+00 0.  1.
         12    1    3    3    0    0  0.39439000690E+02 -0.28286354861E+02 -0.67294649187E+03  0.67469440013E+03  0.00000000000E+00 0. -1.
          1    1    1    2  501    0 -0.12532027794E+02  0.31744999460E+02 -0.39102335314E+03  0.39250994817E+03  0.00000000000E+00 0. -1.
<mgrwt>
<rscale>  1 0.88284523E+02</rscale>
<asrwt>0</asrwt>
<pdfrwt beam="1">  1       21 0.49421971E-03 0.88284523E+02</pdfrwt>
<pdfrwt beam="2">  1        2 0.18168104E+00 0.88284523E+02</pdfrwt>
<totfact> 0.27935423E+06</totfact>
</mgrwt>
</event>
<event>
 6    2  0.7993170E+000  0.8457717E+02  0.7546771E-02  0.1316542E+00
         21   -1    0    0  501  502  0.00000000000E+00  0.00000000000E+00  0.68940985957E+01  0.68940985957E+01  0.00000000000E+00 0. -1.
          4   -1    0    0  502    0 -0.00000000000E+00 -0.00000000000E+00 -0.72087871860E+03  0.72087871860E+03  0.00000000000E+00 0. -1.
         24    2    1    2    0    0 -0.19809831222E+01  0.28044256421E+02 -0.67164411689E+03  0.67694838590E+03  0.79767742917E+02 0.  0.
        -13    1    3    3    0    0 -0.69448815616E+01 -0.14326385975E+02 -0.30669366799E+02  0.34555560694E+02  0.00000000000E+00 0.  1.
         14    1    3    3    0    0  0.49638984393E+01  0.42370642396E+02 -0.64097475009E+03  0.64239282521E+03  0.00000000000E+00 0. -1.
          3    1    1    2  501    0  0.19809831222E+01 -0.28044256421E+02 -0.42340503114E+02  0.50824431293E+02  0.00000000000E+00 0. -1.
<mgrwt>
<rscale>  1 0.84577168E+02</rscale>
<asrwt>0</asrwt>
<pdfrwt beam="1">  1       21 0.10606303E-02 0.84577168E+02</pdfrwt>
<pdfrwt beam="2">  1        4 0.11090445E+00 0.84577168E+02</pdfrwt>
<totfact> 0.85384518E+04</totfact>
</mgrwt>
</event>
<event>
 6    2  0.7993170E+000  0.8315253E+02  0.7546771E-02  0.1320336E+00
         -1   -1    0    0    0  501 -0.00000000000E+00  0.00000000000E+00  0.29992622077E+03  0.29992622077E+03  0.00000000000E+00 0.  1.
         21   -1    0    0  501  502  0.00000000000E+00 -0.00000000000E+00 -0.11619160486E+02  0.11619160486E+02  0.00000000000E+00 0. -1.
         24    2    1    2    0    0 -0.29774378913E+01 -0.20460750105E+02  0.27415957785E+03  0.28649226388E+03  0.80540894587E+02 0.  0.
        -11    1    3    3    0    0  0.35221806546E+02  0.19711916783E+01  0.81530536911E+02  0.88835182794E+02  0.00000000000E+00 0.  1.
         12    1    3    3    0    0 -0.38199244437E+02 -0.22431941783E+02  0.19262904094E+03  0.19765708108E+03  0.00000000000E+00 0. -1.
         -2    1    1    2    0  502  0.29774378913E+01  0.20460750105E+02  0.14147482429E+02  0.25053117378E+02  0.00000000000E+00 0.  1.
<mgrwt>
<rscale>  1 0.83152529E+02</rscale>
<asrwt>0</asrwt>
<pdfrwt beam="1">  1       21 0.17875634E-02 0.83152529E+02</pdfrwt>
<pdfrwt beam="2">  1       -1 0.46142490E-01 0.83152529E+02</pdfrwt>
<totfact> 0.60029102E+05</totfact>
</mgrwt>
</event>
<event>
 6    2  0.7993170E+000  0.1193702E+03  0.7546771E-02  0.1244140E+00
         21   -1    0    0  501  502  0.00000000000E+00  0.00000000000E+00  0.59224329082E+02  0.59224329082E+02  0.00000000000E+00 0.  1.
          2   -1    0    0  502    0 -0.00000000000E+00 -0.00000000000E+00 -0.18405224381E+03  0.18405224381E+03  0.00000000000E+00 0. -1.
         24    2    1    2    0    0  0.29006745065E+02  0.83871438429E+02 -0.61737719967E+02  0.13439047590E+03  0.79833855617E+02 0.  0.
        -11    1    3    3    0    0  0.26170231454E+02  0.99658014049E+02 -0.56537823209E+02  0.11752925692E+03  0.00000000000E+00 0.  1.
         12    1    3    3    0    0  0.28365136103E+01 -0.15786575620E+02 -0.51998967587E+01  0.16861218982E+02  0.00000000000E+00 0. -1.
          1    1    1    2  501    0 -0.29006745065E+02 -0.83871438429E+02 -0.63090194763E+02  0.10888609699E+03  0.00000000000E+00 0. -1.
<mgrwt>
<rscale>  1 0.11937024E+03</rscale>
<asrwt>0</asrwt>
<pdfrwt beam="1">  1       21 0.91114355E-02 0.11937024E+03</pdfrwt>
<pdfrwt beam="2">  1        2 0.28315729E-01 0.11937024E+03</pdfrwt>
<totfact> 0.21496572E+05</totfact>
</mgrwt>
</event>
<event>
 6    2  0.7993170E+000  0.9370418E+02  0.7546771E-02  0.1294122E+00
         21   -1    0    0  501  502  0.00000000000E+00  0.00000000000E+00  0.15311360464E+03  0.15311360464E+03  0.00000000000E+00 0. -1.
          2   -1    0    0  502    0 -0.00000000000E+00 -0.00000000000E+00 -0.46217491973E+02  0.46217491973E+02  0.00000000000E+00 0. -1.
         24    2    1    2    0    0  0.33402346375E+02 -0.31993278795E+02  0.12921540291E+02  0.94590909079E+02  0.81493479773E+02 0.  0.
        -11    1    3    3    0    0 -0.16538516152E+02 -0.13477892137E+02  0.31617396064E+02  0.38142310193E+02  0.00000000000E+00 0.  1.
         12    1    3    3    0    0  0.49940862528E+02 -0.18515386659E+02 -0.18695855773E+02  0.56448598886E+02  0.00000000000E+00 0. -1.
          1    1    1    2  501    0 -0.33402346375E+02  0.31993278795E+02  0.93974572374E+02  0.10474018753E+03  0.00000000000E+00 0. -1.
<mgrwt>
<rscale>  1 0.93704183E+02</rscale>
<asrwt>0</asrwt>
<pdfrwt beam="1">  1       21 0.23555939E-01 0.93704183E+02</pdfrwt>
<pdfrwt beam="2">  1        2 0.71103834E-02 0.93704183E+02</pdfrwt>
<totfact> 0.19422170E+05</totfact>
</mgrwt>
</event>
<event>
 6    2  0.7993170E+000  0.8312854E+02  0.7546771E-02  0.1320400E+00
         21   -1    0    0  501  502  0.00000000000E+00  0.00000000000E+00  0.85121787707E+01  0.85121787707E+01  0.00000000000E+00 0. -1.
          2   -1    0    0  502    0 -0.00000000000E+00 -0.00000000000E+00 -0.36788713057E+03  0.36788713057E+03  0.00000000000E+00 0. -1.
         24    2    1    2    0    0 -0.24649894478E+02  0.13778510940E+02 -0.28364717322E+03  0.29557752323E+03  0.78184964679E+02 0.  0.
        -11    1    3    3    0    0 -0.68376537433E+01 -0.22500257982E+02 -0.27161702457E+02  0.35927332190E+02  0.00000000000E+00 0.  1.
         12    1    3    3    0    0 -0.17812240734E+02  0.36278768922E+02 -0.25648547077E+03  0.25965019104E+03  0.00000000000E+00 0. -1.
          1    1    1    2  501    0  0.24649894478E+02 -0.13778510940E+02 -0.75727778575E+02  0.80821786106E+02  0.00000000000E+00 0. -1.
<mgrwt>
<rscale>  1 0.83128535E+02</rscale>
<asrwt>0</asrwt>
<pdfrwt beam="1">  1       21 0.13095658E-02 0.83128535E+02</pdfrwt>
<pdfrwt beam="2">  1        2 0.56598026E-01 0.83128535E+02</pdfrwt>
<totfact> 0.24288594E+06</totfact>
</mgrwt>
</event>
<event>
 6    2  0.7993170E+000  0.9008670E+02  0.7546771E-02  0.1302642E+00
          2   -1    0    0  502    0 -0.00000000000E+00  0.00000000000E+00  0.24778826582E+03  0.24778826582E+03  0.00000000000E+00 0. -1.
         21   -1    0    0  501  502  0.00000000000E+00 -0.00000000000E+00 -0.19142492459E+02  0.19142492459E+02  0.00000000000E+00 0.  1.
         24    2    1    2    0    0  0.21804410801E+02 -0.38655499946E+02  0.17864780214E+03  0.20007661007E+03  0.78395999142E+02 0.  0.
        -13    1    3    3    0    0  0.21663474983E+02 -0.53121605371E+02  0.70162890991E+02  0.90631354275E+02  0.00000000000E+00 0.  1.
         14    1    3    3    0    0  0.14093581793E+00  0.14466105425E+02  0.10848491115E+03  0.10944525580E+03  0.00000000000E+00 0. -1.
          1    1    1    2  501    0 -0.21804410801E+02  0.38655499946E+02  0.49997971221E+02  0.66854148208E+02  0.00000000000E+00 0. -1.
<mgrwt>
<rscale>  1 0.90086695E+02</rscale>
<asrwt>0</asrwt>
<pdfrwt beam="1">  1       21 0.29449990E-02 0.90086695E+02</pdfrwt>
<pdfrwt beam="2">  1        2 0.38121269E-01 0.90086695E+02</pdfrwt>
<totfact> 0.10151970E+06</totfact>
</mgrwt>
</event>
<event>
 6    2  0.7993170E+000  0.1038539E+03  0.7546771E-02  0.1272394E+00
         21   -1    0    0  501  502  0.00000000000E+00  0.00000000000E+00  0.32871046507E+03  0.32871046507E+03  0.00000000000E+00 0. -1.
          2   -1    0    0  502    0 -0.00000000000E+00 -0.00000000000E+00 -0.86034651987E+02  0.86034651987E+02  0.00000000000E+00 0. -1.
         24    2    1    2    0    0 -0.64787339626E+00  0.34419335782E+02 -0.53328454118E+02  0.11674572676E+03  0.97982295762E+02 0.  0.
        -11    1    3    3    0    0 -0.41024050446E+02  0.10781308136E+02  0.41647977933E+01  0.42621061235E+02  0.00000000000E+00 0.  1.
         12    1    3    3    0    0  0.40376177050E+02  0.23638027646E+02 -0.57493251911E+02  0.74124665527E+02  0.00000000000E+00 0. -1.
          1    1    1    2  501    0  0.64787339626E+00 -0.34419335782E+02  0.29600426720E+03  0.29799939029E+03  0.00000000000E+00 0. -1.
<mgrwt>
<rscale>  1 0.10385394E+03</rscale>
<asrwt>0</asrwt>
<pdfrwt beam="1">  1       21 0.50570840E-01 0.10385394E+03</pdfrwt>
<pdfrwt beam="2">  1        2 0.13236100E-01 0.10385394E+03</pdfrwt>
<totfact> 0.20599418E+04</totfact>
</mgrwt>
</event>
<event>
 6    2  0.7993170E+000  0.8367436E+02  0.7546771E-02  0.1318936E+00
         21   -1    0    0  501  502  0.00000000000E+00  0.00000000000E+00  0.83796834035E+01  0.83796834035E+01  0.00000000000E+00 0.  1.
          2   -1    0    0  502    0 -0.00000000000E+00 -0.00000000000E+00 -0.33421278743E+03  0.33421278743E+03  0.00000000000E+00 0. -1.
         24    2    1    2    0    0  0.49821891016E+01 -0.21559653443E+02 -0.26140743747E+03  0.27447266919E+03  0.80695457755E+02 0.  0.
        -13    1    3    3    0    0  0.10557742555E+01 -0.28558776627E+02 -0.25120285908E+02  0.38049272606E+02  0.00000000000E+00 0.  1.
         14    1    3    3    0    0  0.39264148460E+01  0.69991231833E+01 -0.23628715156E+03  0.23642339659E+03  0.00000000000E+00 0. -1.
          1    1    1    2  501    0 -0.49821891016E+01  0.21559653443E+02 -0.64425666557E+02  0.68119801645E+02  0.00000000000E+00 0. -1.
<mgrwt>
<rscale>  1 0.83674355E+02</rscale>
<asrwt>0</asrwt>
<pdfrwt beam="1">  1       21 0.12891821E-02 0.83674355E+02</pdfrwt>
<pdfrwt beam="2">  1        2 0.51417351E-01 0.83674355E+02</pdfrwt>
<totfact> 0.27542919E+06</totfact>
</mgrwt>
</event>
<event>
 6    2  0.7993170E+000  0.8180770E+02  0.7546771E-02  0.1323998E+00
          2   -1    0    0  502    0 -0.00000000000E+00  0.00000000000E+00  0.53015984984E+03  0.53015984984E+03  0.00000000000E+00 0. -1.
         21   -1    0    0  501  502  0.00000000000E+00 -0.00000000000E+00 -0.13514715854E+02  0.13514715854E+02  0.00000000000E+00 0. -1.
         24    2    1    2    0    0  0.17025041590E+02 -0.12339891804E+02  0.51620084668E+03  0.52264310445E+03  0.79059316586E+02 0.  0.
        -11    1    3    3    0    0 -0.15023946631E+00 -0.38463640358E+02  0.14132393525E+03  0.14646477009E+03  0.00000000000E+00 0.  1.
         12    1    3    3    0    0  0.17175281056E+02  0.26123748554E+02  0.37487691143E+03  0.37617833436E+03  0.00000000000E+00 0. -1.
          1    1    1    2  501    0 -0.17025041590E+02  0.12339891804E+02  0.44428730143E+00  0.21031461245E+02  0.00000000000E+00 0. -1.
<mgrwt>
<rscale>  1 0.81807704E+02</rscale>
<asrwt>0</asrwt>
<pdfrwt beam="1">  1       21 0.20791875E-02 0.81807704E+02</pdfrwt>
<pdfrwt beam="2">  1        2 0.81563038E-01 0.81807704E+02</pdfrwt>
<totfact> 0.79072844E+05</totfact>
</mgrwt>
</event>
<event>
 6    2  0.7993170E+000  0.9222726E+02  0.7546771E-02  0.1297546E+00
          2   -1    0    0  502    0 -0.00000000000E+00  0.00000000000E+00  0.69525355008E+03  0.69525355008E+03  0.00000000000E+00 0. -1.
         21   -1    0    0  501  502  0.00000000000E+00 -0.00000000000E+00 -0.83440976042E+01  0.83440976042E+01  0.00000000000E+00 0.  1.
         24    2    1    2    0    0  0.41250114470E+02  0.10372530364E+02  0.28752054947E+03  0.30195021875E+03  0.81833409450E+02 0.  0.
        -13    1    3    3    0    0  0.57702267329E+02  0.94932071744E+01  0.11865240937E+03  0.13228025887E+03  0.00000000000E+00 0.  1.
         14    1    3    3    0    0 -0.16452152859E+02  0.87932318939E+00  0.16886814010E+03  0.16966995987E+03  0.00000000000E+00 0. -1.
          1    1    1    2  501    0 -0.41250114470E+02 -0.10372530364E+02  0.39938890300E+03  0.40164742894E+03  0.00000000000E+00 0. -1.
<mgrwt>
<rscale>  1 0.92227264E+02</rscale>
<asrwt>0</asrwt>
<pdfrwt beam="1">  1       21 0.12837079E-02 0.92227264E+02</pdfrwt>
<pdfrwt beam="2">  1        2 0.10696204E+00 0.92227264E+02</pdfrwt>
<totfact> 0.12681299E+06</totfact>
</mgrwt>
</event>
<event>
 6    2  0.7993170E+000  0.8564618E+02  0.7546771E-02  0.1313751E+00
         21   -1    0    0  501  502  0.00000000000E+00  0.00000000000E+00  0.66456417591E+01  0.66456417591E+01  0.00000000000E+00 0. -1.
         -3   -1    0    0    0  501 -0.00000000000E+00 -0.00000000000E+00 -0.49636467601E+03  0.49636467601E+03  0.00000000000E+00 0.  1.
         24    2    1    2    0    0  0.84078897261E+01  0.27118894443E+02 -0.33986971720E+03  0.35049492554E+03  0.80803100905E+02 0.  0.
        -13    1    3    3    0    0 -0.16240984428E+02 -0.19287552988E+02 -0.19030547308E+03  0.19196862338E+03  0.00000000000E+00 0.  1.
         14    1    3    3    0    0  0.24648874154E+02  0.46406447431E+02 -0.14956424411E+03  0.15852630216E+03  0.00000000000E+00 0. -1.
         -4    1    1    2    0  502 -0.84078897261E+01 -0.27118894443E+02 -0.14984931705E+03  0.15251539223E+03  0.00000000000E+00 0.  1.
<mgrwt>
<rscale>  1 0.85646180E+02</rscale>
<asrwt>0</asrwt>
<pdfrwt beam="1">  1       21 0.10224062E-02 0.85646180E+02</pdfrwt>
<pdfrwt beam="2">  1       -3 0.76363815E-01 0.85646180E+02</pdfrwt>
<totfact> 0.26298308E+05</totfact>
</mgrwt>
</event>
<event>
 6    2  0.7993170E+000  0.9778352E+02  0.7546771E-02  0.1285027E+00
          4   -1    0    0  502    0 -0.00000000000E+00  0.00000000000E+00  0.19001664004E+03  0.19001664004E+03  0.00000000000E+00 0. -1.
         21   -1    0    0  501  502  0.00000000000E+00 -0.00000000000E+00 -0.52706323609E+02  0.52706323609E+02  0.00000000000E+00 0.  1.
         24    2    1    2    0    0 -0.49869503924E+02  0.26716635032E+02  0.15515732364E+03  0.18339959831E+03  0.79755072402E+02 0.  0.
        -13    1    3    3    0    0 -0.40291968313E+02  0.53503531103E+02  0.89014426145E+02  0.11139855750E+03  0.00000000000E+00 0.  1.
         14    1    3    3    0    0 -0.95775356115E+01 -0.26786896072E+02  0.66142897491E+02  0.72001040812E+02  0.00000000000E+00 0. -1.
          3    1    1    2  501    0  0.49869503924E+02 -0.26716635032E+02 -0.17847007203E+02  0.59323365339E+02  0.00000000000E+00 0. -1.
<mgrwt>
<rscale>  1 0.97783524E+02</rscale>
<asrwt>0</asrwt>
<pdfrwt beam="1">  1       21 0.81086653E-02 0.97783524E+02</pdfrwt>
<pdfrwt beam="2">  1        4 0.29233329E-01 0.97783524E+02</pdfrwt>
<totfact> 0.50632346E+04</totfact>
</mgrwt>
</event>
<event>
 6    2  0.7993170E+000  0.8411591E+02  0.7546771E-02  0.1317761E+00
         -3   -1    0    0    0  501 -0.00000000000E+00  0.00000000000E+00  0.30785696534E+03  0.30785696534E+03  0.00000000000E+00 0.  1.
         21   -1    0    0  501  502  0.00000000000E+00 -0.00000000000E+00 -0.98175786951E+01  0.98175786951E+01  0.00000000000E+00 0.  1.
         24    2    1    2    0    0 -0.13227671231E+02  0.17504454354E+02  0.26486704378E+03  0.27790292677E+03  0.81204117017E+02 0.  0.
        -13    1    3    3    0    0 -0.41249681295E+02 -0.10563902643E+02  0.16606957430E+03  0.17144163950E+03  0.00000000000E+00 0.  1.
         14    1    3    3    0    0  0.28022010065E+02  0.28068356997E+02  0.98797469473E+02  0.10646128727E+03  0.00000000000E+00 0. -1.
         -4    1    1    2    0  502  0.13227671231E+02 -0.17504454354E+02  0.33172342868E+02  0.39771617263E+02  0.00000000000E+00 0.  1.
<mgrwt>
<rscale>  1 0.84115907E+02</rscale>
<asrwt>0</asrwt>
<pdfrwt beam="1">  1       21 0.15103970E-02 0.84115907E+02</pdfrwt>
<pdfrwt beam="2">  1       -3 0.47362603E-01 0.84115907E+02</pdfrwt>
<totfact> 0.37618923E+05</totfact>
</mgrwt>
</event>
<event>
 6    2  0.7993170E+000  0.6755315E+02  0.7546771E-02  0.1368617E+00
          2   -1    0    0  502    0 -0.00000000000E+00  0.00000000000E+00  0.98822612648E+03  0.98822612648E+03  0.00000000000E+00 0. -1.
         21   -1    0    0  501  502  0.00000000000E+00 -0.00000000000E+00 -0.29036743990E+01  0.29036743990E+01  0.00000000000E+00 0. -1.
         24    2    1    2    0    0  0.97793014256E+01  0.17830520869E+02  0.92516460849E+03  0.92762760914E+03  0.64419455254E+02 0.  0.
        -11    1    3    3    0    0  0.29308411137E+02  0.84142308276E+01  0.21707407970E+03  0.21920524246E+03  0.00000000000E+00 0.  1.
         12    1    3    3    0    0 -0.19529109712E+02  0.94162900418E+01  0.70809052879E+03  0.70842236668E+03  0.00000000000E+00 0. -1.
          1    1    1    2  501    0 -0.97793014256E+01 -0.17830520869E+02  0.60157843594E+02  0.63502191747E+02  0.00000000000E+00 0. -1.
<mgrwt>
<rscale>  1 0.67553153E+02</rscale>
<asrwt>0</asrwt>
<pdfrwt beam="1">  1       21 0.44671992E-03 0.67553153E+02</pdfrwt>
<pdfrwt beam="2">  1        2 0.15203452E+00 0.67553153E+02</pdfrwt>
<totfact> 0.40566681E+06</totfact>
</mgrwt>
</event>
<event>
 6    2  0.7993170E+000  0.8366457E+02  0.7546771E-02  0.1318962E+00
         21   -1    0    0  501  502  0.00000000000E+00  0.00000000000E+00  0.82712249314E+02  0.82712249314E+02  0.00000000000E+00 0.  1.
          4   -1    0    0  502    0 -0.00000000000E+00 -0.00000000000E+00 -0.35693634651E+02  0.35693634651E+02  0.00000000000E+00 0. -1.
         24    2    1    2    0    0 -0.10330749959E+02  0.22518613678E+02  0.39460176044E+02  0.92503329052E+02  0.79912126962E+02 0.  0.
        -13    1    3    3    0    0  0.64531007048E+01  0.19810627989E+02  0.61347460876E+02  0.64788999420E+02  0.00000000000E+00 0.  1.
         14    1    3    3    0    0 -0.16783850664E+02  0.27079856884E+01 -0.21887284832E+02  0.27714329631E+02  0.00000000000E+00 0. -1.
          3    1    1    2  501    0  0.10330749959E+02 -0.22518613678E+02  0.75584386197E+01  0.25902554914E+02  0.00000000000E+00 0. -1.
<mgrwt>
<rscale>  1 0.83664571E+02</rscale>
<asrwt>0</asrwt>
<pdfrwt beam="1">  1       21 0.12724961E-01 0.83664571E+02</pdfrwt>
<pdfrwt beam="2">  1        4 0.54913284E-02 0.83664571E+02</pdfrwt>
<totfact> 0.39594767E+05</totfact>
</mgrwt>
</event>
<event>
 6    2  0.7993170E+000  0.1027014E+03  0.7546771E-02  0.1274716E+00
         21   -1    0    0  501  502  0.00000000000E+00  0.00000000000E+00  0.39671643906E+02  0.39671643906E+02  0.00000000000E+00 0. -1.
         -1   -1    0    0    0  501 -0.00000000000E+00 -0.00000000000E+00 -0.17853673008E+03  0.17853673008E+03  0.00000000000E+00 0.  1.
         24    2    1    2    0    0 -0.57914307681E+02  0.19032463173E+02 -0.11086339852E+03  0.15112338162E+03  0.82651567761E+02 0.  0.
        -13    1    3    3    0    0 -0.41857609910E+02 -0.17477015649E+02 -0.99968186064E+02  0.10977770178E+03  0.00000000000E+00 0.  1.
         14    1    3    3    0    0 -0.16056697770E+02  0.36509478822E+02 -0.10895212455E+02  0.41345679842E+02  0.00000000000E+00 0. -1.
         -2    1    1    2    0  502  0.57914307681E+02 -0.19032463173E+02 -0.28001687652E+02  0.67084992360E+02  0.00000000000E+00 0.  1.
<mgrwt>
<rscale>  1 0.10270143E+03</rscale>
<asrwt>0</asrwt>
<pdfrwt beam="1">  1       21 0.61033298E-02 0.10270143E+03</pdfrwt>
<pdfrwt beam="2">  1       -1 0.27467189E-01 0.10270143E+03</pdfrwt>
<totfact> 0.19930187E+05</totfact>
</mgrwt>
</event>
<event>
 6    2  0.7993170E+000  0.8572103E+02  0.7546771E-02  0.1313558E+00
          2   -1    0    0  502    0 -0.00000000000E+00  0.00000000000E+00  0.30612534989E+03  0.30612534989E+03  0.00000000000E+00 0. -1.
         21   -1    0    0  501  502  0.00000000000E+00 -0.00000000000E+00 -0.12640490239E+02  0.12640490239E+02  0.00000000000E+00 0.  1.
         24    2    1    2    0    0 -0.96587457079E+01  0.29654617319E+02  0.25618067662E+03  0.27014187722E+03  0.79846146185E+02 0.  0.
        -11    1    3    3    0    0  0.10219864296E+02  0.37980239146E+02  0.53943548329E+02  0.66759647978E+02  0.00000000000E+00 0.  1.
         12    1    3    3    0    0 -0.19878610004E+02 -0.83256218271E+01  0.20223712829E+03  0.20338222924E+03  0.00000000000E+00 0. -1.
          1    1    1    2  501    0  0.96587457079E+01 -0.29654617319E+02  0.37304183038E+02  0.48623962910E+02  0.00000000000E+00 0. -1.
<mgrwt>
<rscale>  1 0.85721029E+02</rscale>
<asrwt>0</asrwt>
<pdfrwt beam="1">  1       21 0.19446910E-02 0.85721029E+02</pdfrwt>
<pdfrwt beam="2">  1        2 0.47096202E-01 0.85721029E+02</pdfrwt>
<totfact> 0.15785206E+06</totfact>
</mgrwt>
</event>
<event>
 6    2  0.7993170E+000  0.8735395E+02  0.7546771E-02  0.1309389E+00
         -3   -1    0    0    0  501 -0.00000000000E+00  0.00000000000E+00  0.89484197035E+02  0.89484197035E+02  0.00000000000E+00 0.  1.
         21   -1    0    0  501  502  0.00000000000E+00 -0.00000000000E+00 -0.41274799077E+02  0.41274799077E+02  0.00000000000E+00 0. -1.
         24    2    1    2    0    0  0.30833054785E+02 -0.11201979191E+02  0.43605080714E+02  0.97632551352E+02  0.80960177953E+02 0.  0.
        -13    1    3    3    0    0 -0.20161582736E+02 -0.23990466301E+02  0.29873786785E+02  0.43295207918E+02  0.00000000000E+00 0.  1.
         14    1    3    3    0    0  0.50994637521E+02  0.12788487110E+02  0.13731293930E+02  0.54337343434E+02  0.00000000000E+00 0. -1.
         -4    1    1    2    0  502 -0.30833054785E+02  0.11201979191E+02  0.46043172437E+01  0.33126444761E+02  0.00000000000E+00 0.  1.
<mgrwt>
<rscale>  1 0.87353947E+02</rscale>
<asrwt>0</asrwt>
<pdfrwt beam="1">  1       21 0.63499691E-02 0.87353947E+02</pdfrwt>
<pdfrwt beam="2">  1       -3 0.13766800E-01 0.87353947E+02</pdfrwt>
<totfact> 0.33829841E+05</totfact>
</mgrwt>
</event>
<event>
 6    2  0.7993170E+000  0.8136081E+02  0.7546771E-02  0.1325233E+00
         -1   -1    0    0    0  501 -0.00000000000E+00  0.00000000000E+00  0.21872237391E+03  0.21872237391E+03  0.00000000000E+00 0.  1.
         21   -1    0    0  501  502  0.00000000000E+00 -0.00000000000E+00 -0.22672653151E+02  0.22672653151E+02  0.00000000000E+00 0.  1.
         24    2    1    2    0    0 -0.19168380459E+02 -0.89541566727E+01  0.20334354055E+03  0.21901638683E+03  0.78561940434E+02 0.  0.
        -11    1    3    3    0    0 -0.81543243656E+01 -0.23586851931E+01  0.20577527465E+03  0.20595028541E+03  0.00000000000E+00 0.  1.
         12    1    3    3    0    0 -0.11014056093E+02 -0.65954714796E+01 -0.24317340986E+01  0.13066101423E+02  0.00000000000E+00 0. -1.
         -2    1    1    2    0  502  0.19168380459E+02  0.89541566727E+01 -0.72938197977E+01  0.22378640226E+02  0.00000000000E+00 0.  1.
<mgrwt>
<rscale>  1 0.81360815E+02</rscale>
<asrwt>0</asrwt>
<pdfrwt beam="1">  1       21 0.34881007E-02 0.81360815E+02</pdfrwt>
<pdfrwt beam="2">  1       -1 0.33649594E-01 0.81360815E+02</pdfrwt>
<totfact> 0.35208175E+05</totfact>
</mgrwt>
</event>
<event>
 6    2  0.7993170E+000  0.1027763E+03  0.7546771E-02  0.1274564E+00
          2   -1    0    0  502    0 -0.00000000000E+00  0.00000000000E+00  0.62254007615E+02  0.62254007615E+02  0.00000000000E+00 0. -1.
         21   -1    0    0  501  502  0.00000000000E+00 -0.00000000000E+00 -0.11042161287E+03  0.11042161287E+03  0.00000000000E+00 0. -1.
         24    2    1    2    0    0 -0.64590159505E-01 -0.62909250243E+02 -0.26477755712E+02  0.10613219473E+03  0.81273570565E+02 0.  0.
        -11    1    3    3    0    0  0.86196759984E-01  0.16327826591E+02 -0.21145353639E+02  0.26715750627E+02  0.00000000000E+00 0.  1.
         12    1    3    3    0    0 -0.15078691949E+00 -0.79237076834E+02 -0.53324020736E+01  0.79416444102E+02  0.00000000000E+00 0. -1.
          1    1    1    2  501    0  0.64590159505E-01  0.62909250243E+02 -0.21689849542E+02  0.66543425755E+02  0.00000000000E+00 0. -1.
<mgrwt>
<rscale>  1 0.10277632E+03</rscale>
<asrwt>0</asrwt>
<pdfrwt beam="1">  1       21 0.16987940E-01 0.10277632E+03</pdfrwt>
<pdfrwt beam="2">  1        2 0.95775398E-02 0.10277632E+03</pdfrwt>
<totfact> 0.24621228E+05</totfact>
</mgrwt>
</event>
<event>
 6    2  0.7993170E+000  0.9407485E+02  0.7546771E-02  0.1293273E+00
         21   -1    0    0  501  502  0.00000000000E+00  0.00000000000E+00  0.49815256506E+03  0.49815256506E+03  0.00000000000E+00 0. -1.
         -1   -1    0    0    0  501 -0.00000000000E+00 -0.00000000000E+00 -0.10005757308E+02  0.10005757308E+02  0.00000000000E+00 0.  1.
         24    2    1    2    0    0 -0.11157855864E+02 -0.44901262427E+02  0.29988253406E+03  0.31429224008E+03  0.81911274082E+02 0.  0.
        -11    1    3    3    0    0  0.30388801752E+02 -0.16962089479E+02  0.61093089495E+02  0.70310435466E+02  0.00000000000E+00 0.  1.
         12    1    3    3    0    0 -0.41546657616E+02 -0.27939172948E+02  0.23878944457E+03  0.24398180461E+03  0.00000000000E+00 0. -1.
         -2    1    1    2    0  502  0.11157855864E+02  0.44901262427E+02  0.18826427369E+03  0.19386608229E+03  0.00000000000E+00 0.  1.
<mgrwt>
<rscale>  1 0.94074853E+02</rscale>
<asrwt>0</asrwt>
<pdfrwt beam="1">  1       21 0.76638837E-01 0.94074853E+02</pdfrwt>
<pdfrwt beam="2">  1       -1 0.15393477E-02 0.94074853E+02</pdfrwt>
<totfact> 0.12790040E+05</totfact>
</mgrwt>
</event>
<event>
 6    2  0.7993170E+000  0.8428223E+02  0.7546771E-02  0.1317320E+00
         21   -1    0    0  501  502  0.00000000000E+00  0.00000000000E+00  0.35404396034E+02  0.35404396034E+02  0.00000000000E+00 0.  1.
          2   -1    0    0  502    0 -0.00000000000E+00 -0.00000000000E+00 -0.95458632004E+02  0.95458632004E+02  0.00000000000E+00 0. -1.
         24    2    1    2    0    0 -0.24052588002E+02  0.46091742279E+01 -0.64297588985E+02  0.10600789735E+03  0.80645662468E+02 0.  0.
        -13    1    3    3    0    0 -0.28752782020E+02  0.30147145017E+01  0.10714350293E+02  0.30831936034E+02  0.00000000000E+00 0.  1.
         14    1    3    3    0    0  0.47001940185E+01  0.15944597262E+01 -0.75011939278E+02  0.75175961317E+02  0.00000000000E+00 0. -1.
          1    1    1    2  501    0  0.24052588002E+02 -0.46091742279E+01  0.42433530148E+01  0.24855130686E+02  0.00000000000E+00 0. -1.
<mgrwt>
<rscale>  1 0.84282230E+02</rscale>
<asrwt>0</asrwt>
<pdfrwt beam="1">  1       21 0.54468302E-02 0.84282230E+02</pdfrwt>
<pdfrwt beam="2">  1        2 0.14685943E-01 0.84282230E+02</pdfrwt>
<totfact> 0.10433731E+06</totfact>
</mgrwt>
</event>
<event>
 6    2  0.7993170E+000  0.8408503E+02  0.7546771E-02  0.1317843E+00
         21   -1    0    0  501  502  0.00000000000E+00  0.00000000000E+00  0.15669578769E+02  0.15669578769E+02  0.00000000000E+00 0. -1.
          2   -1    0    0  502    0 -0.00000000000E+00 -0.00000000000E+00 -0.31699597468E+04  0.31699597468E+04  0.00000000000E+00 0. -1.
         24    2    1    2    0    0 -0.30279935316E+01 -0.25144620965E+02 -0.31587878262E+04  0.31599067744E+04  0.80180240818E+02 0.  0.
        -13    1    3    3    0    0  0.11548531776E+02 -0.40962168457E+02 -0.88999891923E+03  0.89101590562E+03  0.00000000000E+00 0.  1.
         14    1    3    3    0    0 -0.14576525308E+02  0.15817547492E+02 -0.22687889070E+04  0.22688908688E+04  0.00000000000E+00 0. -1.
          1    1    1    2  501    0  0.30279935316E+01  0.25144620965E+02  0.44976582216E+01  0.25722551152E+02  0.00000000000E+00 0. -1.
<mgrwt>
<rscale>  1 0.84085027E+02</rscale>
<asrwt>0</asrwt>
<pdfrwt beam="1">  1       21 0.24107061E-02 0.84085027E+02</pdfrwt>
<pdfrwt beam="2">  1        2 0.48768577E+00 0.84085027E+02</pdfrwt>
<totfact> 0.21067963E+04</totfact>
</mgrwt>
</event>
<event>
 6    2  0.7993170E+000  0.1078741E+03  0.7546771E-02  0.1264558E+00
         21   -1    0    0  501  502  0.00000000000E+00  0.00000000000E+00  0.22236840263E+02  0.22236840263E+02  0.00000000000E+00 0.  1.
         -1   -1    0    0    0  501 -0.00000000000E+00 -0.00000000000E+00 -0.43080314745E+03  0.43080314745E+03  0.00000000000E+00 0.  1.
         24    2    1    2    0    0 -0.84101912926E+01 -0.73305922650E+02 -0.32039387982E+03  0.33806665793E+03  0.78691405930E+02 0.  0.
        -11    1    3    3    0    0 -0.19281322428E+02 -0.86955930634E+02 -0.28519544720E+03  0.29878009701E+03  0.00000000000E+00 0.  1.
         12    1    3    3    0    0  0.10871131136E+02  0.13650007984E+02 -0.35198432618E+02  0.39286560919E+02  0.00000000000E+00 0. -1.
         -2    1    1    2    0  502  0.84101912926E+01  0.73305922650E+02 -0.88172427375E+02  0.11497332979E+03  0.00000000000E+00 0.  1.
<mgrwt>
<rscale>  1 0.10787413E+03</rscale>
<asrwt>0</asrwt>
<pdfrwt beam="1">  1       21 0.34210525E-02 0.10787413E+03</pdfrwt>
<pdfrwt beam="2">  1       -1 0.66277404E-01 0.10787413E+03</pdfrwt>
<totfact> 0.11013239E+05</totfact>
</mgrwt>
</event>
<event>
 6    2  0.7993170E+000  0.8361762E+02  0.7546771E-02  0.1319088E+00
          2   -1    0    0  502    0 -0.00000000000E+00  0.00000000000E+00  0.88161463139E+03  0.88161463139E+03  0.00000000000E+00 0. -1.
         21   -1    0    0  501  502  0.00000000000E+00 -0.00000000000E+00 -0.39116827605E+01  0.39116827605E+01  0.00000000000E+00 0. -1.
         24    2    1    2    0    0 -0.22720438638E+02 -0.19197089030E+02  0.53025477538E+03  0.53680725867E+03  0.78148317903E+02 0.  0.
        -13    1    3    3    0    0  0.87642464612E+01  0.37973990119E+01  0.63859791094E+01  0.11489690356E+02  0.00000000000E+00 0.  1.
         14    1    3    3    0    0 -0.31484685099E+02 -0.22994488042E+02  0.52386879627E+03  0.52531756832E+03  0.00000000000E+00 0. -1.
          1    1    1    2  501    0  0.22720438638E+02  0.19197089030E+02  0.34744817325E+03  0.34871905548E+03  0.00000000000E+00 0. -1.
<mgrwt>
<rscale>  1 0.83617619E+02</rscale>
<asrwt>0</asrwt>
<pdfrwt beam="1">  1       21 0.60179805E-03 0.83617619E+02</pdfrwt>
<pdfrwt beam="2">  1        2 0.13563286E+00 0.83617619E+02</pdfrwt>
<totfact> 0.30600925E+06</totfact>
</mgrwt>
</event>
<event>
 6    2  0.7993170E+000  0.8304137E+02  0.7546771E-02  0.1320636E+00
          2   -1    0    0  502    0 -0.00000000000E+00  0.00000000000E+00  0.22647684654E+03  0.22647684654E+03  0.00000000000E+00 0. -1.
         21   -1    0    0  501  502  0.00000000000E+00 -0.00000000000E+00 -0.15060576730E+02  0.15060576730E+02  0.00000000000E+00 0. -1.
         24    2    1    2    0    0 -0.19990177428E+02 -0.67767837133E+01  0.20204187345E+03  0.21844172457E+03  0.80313986437E+02 0.  0.
        -11    1    3    3    0    0  0.27420808277E+02  0.14335046456E+02  0.68247453232E+02  0.74934032029E+02  0.00000000000E+00 0.  1.
         12    1    3    3    0    0 -0.47410985706E+02 -0.21111830169E+02  0.13379442022E+03  0.14350769254E+03  0.00000000000E+00 0. -1.
          1    1    1    2  501    0  0.19990177428E+02  0.67767837133E+01  0.93743963637E+01  0.23095698697E+02  0.00000000000E+00 0. -1.
<mgrwt>
<rscale>  1 0.83041366E+02</rscale>
<asrwt>0</asrwt>
<pdfrwt beam="1">  1       21 0.23170120E-02 0.83041366E+02</pdfrwt>
<pdfrwt beam="2">  1        2 0.34842589E-01 0.83041366E+02</pdfrwt>
<totfact> 0.16284176E+06</totfact>
</mgrwt>
</event>
<event>
 6    2  0.7993170E+000  0.8415589E+02  0.7546771E-02  0.1317655E+00
         21   -1    0    0  501  502  0.00000000000E+00  0.00000000000E+00  0.66082620321E+03  0.66082620321E+03  0.00000000000E+00 0. -1.
          4   -1    0    0  502    0 -0.00000000000E+00 -0.00000000000E+00 -0.51745006983E+01  0.51745006983E+01  0.00000000000E+00 0. -1.
         24    2    1    2    0    0  0.18723988378E+02  0.11115948923E+02  0.36683717103E+03  0.37636647655E+03  0.81289990538E+02 0.  0.
        -13    1    3    3    0    0  0.15127286431E+02 -0.21862354508E+02  0.30531455612E+03  0.30646986070E+03  0.00000000000E+00 0.  1.
         14    1    3    3    0    0  0.35967019469E+01  0.32978303431E+02  0.61522614913E+02  0.69896615854E+02  0.00000000000E+00 0. -1.
          3    1    1    2  501    0 -0.18723988378E+02 -0.11115948923E+02  0.28881453149E+03  0.28963422736E+03  0.00000000000E+00 0. -1.
<mgrwt>
<rscale>  1 0.84155895E+02</rscale>
<asrwt>0</asrwt>
<pdfrwt beam="1">  1       21 0.10166550E+00 0.84155895E+02</pdfrwt>
<pdfrwt beam="2">  1        4 0.79607755E-03 0.84155895E+02</pdfrwt>
<totfact> 0.12558047E+05</totfact>
</mgrwt>
</event>
<event>
 6    2  0.7993170E+000  0.8372828E+02  0.7546771E-02  0.1318792E+00
          2   -1    0    0  502    0 -0.00000000000E+00  0.00000000000E+00  0.31410976027E+03  0.31410976027E+03  0.00000000000E+00 0. -1.
         21   -1    0    0  501  502  0.00000000000E+00 -0.00000000000E+00 -0.91558279773E+01  0.91558279773E+01  0.00000000000E+00 0. -1.
         24    2    1    2    0    0  0.11212484445E+02 -0.19027669452E+02  0.21731782559E+03  0.23288937893E+03  0.80762946255E+02 0.  0.
        -11    1    3    3    0    0 -0.22394626143E+02  0.12933674114E+02  0.28610087087E+02  0.38565999135E+02  0.00000000000E+00 0.  1.
         12    1    3    3    0    0  0.33607110588E+02 -0.31961343566E+02  0.18870773850E+03  0.19432337980E+03  0.00000000000E+00 0. -1.
          1    1    1    2  501    0 -0.11212484445E+02  0.19027669452E+02  0.87636106700E+02  0.90376209313E+02  0.00000000000E+00 0. -1.
<mgrwt>
<rscale>  1 0.83728284E+02</rscale>
<asrwt>0</asrwt>
<pdfrwt beam="1">  1       21 0.14085892E-02 0.83728284E+02</pdfrwt>
<pdfrwt beam="2">  1        2 0.48324570E-01 0.83728284E+02</pdfrwt>
<totfact> 0.25558721E+06</totfact>
</mgrwt>
</event>
<event>
 6    2  0.7993170E+000  0.8725751E+02  0.7546771E-02  0.1309632E+00
         -1   -1    0    0    0  501 -0.00000000000E+00  0.00000000000E+00  0.75574214048E+03  0.75574214048E+03  0.00000000000E+00 0.  1.
         21   -1    0    0  501  502  0.00000000000E+00 -0.00000000000E+00 -0.95174340223E+01  0.95174340223E+01  0.00000000000E+00 0.  1.
         24    2    1    2    0    0 -0.31880201973E+02  0.13370888394E+02  0.70941528124E+03  0.71476143871E+03  0.80117070985E+02 0.  0.
        -13    1    3    3    0    0 -0.13700571978E+02  0.38452496899E+02  0.58943339315E+03  0.59084517867E+03  0.00000000000E+00 0.  1.
         14    1    3    3    0    0 -0.18179629995E+02 -0.25081608505E+02  0.11998188809E+03  0.12391626004E+03  0.00000000000E+00 0. -1.
         -2    1    1    2    0  502  0.31880201973E+02 -0.13370888394E+02  0.36809425209E+02  0.50498135793E+02  0.00000000000E+00 0.  1.
<mgrwt>
<rscale>  1 0.87257510E+02</rscale>
<asrwt>0</asrwt>
<pdfrwt beam="1">  1       21 0.14642212E-02 0.87257510E+02</pdfrwt>
<pdfrwt beam="2">  1       -1 0.11626797E+00 0.87257510E+02</pdfrwt>
<totfact> 0.13108288E+05</totfact>
</mgrwt>
</event>
<event>
 6    2  0.7993170E+000  0.8387064E+02  0.7546771E-02  0.1318413E+00
         21   -1    0    0  501  502  0.00000000000E+00  0.00000000000E+00  0.40075435315E+01  0.40075435315E+01  0.00000000000E+00 0. -1.
          2   -1    0    0  502    0 -0.00000000000E+00 -0.00000000000E+00 -0.77281908723E+03  0.77281908723E+03  0.00000000000E+00 0. -1.
         24    2    1    2    0    0 -0.21652516132E+02  0.22922777112E+01 -0.48648854212E+03  0.49366525766E+03  0.80995055542E+02 0.  0.
        -11    1    3    3    0    0  0.15523281459E+02  0.23992761902E+02 -0.80899357387E+02  0.85798198795E+02  0.00000000000E+00 0.  1.
         12    1    3    3    0    0 -0.37175797592E+02 -0.21700484191E+02 -0.40558918473E+03  0.40786705887E+03  0.00000000000E+00 0. -1.
          1    1    1    2  501    0  0.21652516132E+02 -0.22922777112E+01 -0.28232300159E+03  0.28316137310E+03  0.00000000000E+00 0. -1.
<mgrwt>
<rscale>  1 0.83870645E+02</rscale>
<asrwt>0</asrwt>
<pdfrwt beam="1">  1       21 0.61654498E-03 0.83870645E+02</pdfrwt>
<pdfrwt beam="2">  1        2 0.11889528E+00 0.83870645E+02</pdfrwt>
<totfact> 0.34690771E+06</totfact>
</mgrwt>
</event>
<event>
 6    2  0.7993170E+000  0.8424977E+02  0.7546771E-02  0.1317406E+00
          2   -1    0    0  502    0 -0.00000000000E+00  0.00000000000E+00  0.48733896948E+02  0.48733896948E+02  0.00000000000E+00 0. -1.
         21   -1    0    0  501  502  0.00000000000E+00 -0.00000000000E+00 -0.61614322304E+02  0.61614322304E+02  0.00000000000E+00 0. -1.
         24    2    1    2    0    0 -0.25340858000E+02 -0.18154253576E+00 -0.10223974756E+02  0.84867858743E+02  0.80348190683E+02 0.  0.
        -11    1    3    3    0    0  0.24249869722E+02  0.72748844372E+01 -0.21789816922E+02  0.33403237067E+02  0.00000000000E+00 0.  1.
         12    1    3    3    0    0 -0.49590727722E+02 -0.74564269729E+01  0.11565842166E+02  0.51464621676E+02  0.00000000000E+00 0. -1.
          1    1    1    2  501    0  0.25340858000E+02  0.18154253576E+00 -0.26564506003E+01  0.25480360509E+02  0.00000000000E+00 0. -1.
<mgrwt>
<rscale>  1 0.84249770E+02</rscale>
<asrwt>0</asrwt>
<pdfrwt beam="1">  1       21 0.94791265E-02 0.84249770E+02</pdfrwt>
<pdfrwt beam="2">  1        2 0.74975226E-02 0.84249770E+02</pdfrwt>
<totfact> 0.91536867E+05</totfact>
</mgrwt>
</event>
<event>
 6    2  0.7993170E+000  0.9141607E+02  0.7546771E-02  0.1299458E+00
          2   -1    0    0  502    0 -0.00000000000E+00  0.00000000000E+00  0.10158847677E+04  0.10158847677E+04  0.00000000000E+00 0. -1.
         21   -1    0    0  501  502  0.00000000000E+00 -0.00000000000E+00 -0.63061613321E+01  0.63061613321E+01  0.00000000000E+00 0.  1.
         24    2    1    2    0    0 -0.22524084635E+02  0.34669241714E+02  0.90698279352E+03  0.91157812904E+03  0.81532857701E+02 0.  0.
        -13    1    3    3    0    0 -0.19618952983E+02  0.24817297453E+02  0.10821620739E+03  0.11274550595E+03  0.00000000000E+00 0.  1.
         14    1    3    3    0    0 -0.29051316522E+01  0.98519442615E+01  0.79876658613E+03  0.79883262309E+03  0.00000000000E+00 0. -1.
          1    1    1    2  501    0  0.22524084635E+02 -0.34669241714E+02  0.10259581288E+03  0.11061280003E+03  0.00000000000E+00 0. -1.
<mgrwt>
<rscale>  1 0.91416069E+02</rscale>
<asrwt>0</asrwt>
<pdfrwt beam="1">  1       21 0.97017947E-03 0.91416069E+02</pdfrwt>
<pdfrwt beam="2">  1        2 0.15628983E+00 0.91416069E+02</pdfrwt>
<totfact> 0.12230694E+06</totfact>
</mgrwt>
</event>
<event>
 6    2  0.7993170E+000  0.9783366E+02  0.7546771E-02  0.1284919E+00
         -3   -1    0    0    0  501 -0.00000000000E+00  0.00000000000E+00  0.17145098077E+02  0.17145098077E+02  0.00000000000E+00 0.  1.
         21   -1    0    0  501  502  0.00000000000E+00 -0.00000000000E+00 -0.18307759957E+04  0.18307759957E+04  0.00000000000E+00 0.  1.
         24    2    1    2    0    0  0.54450998419E+02  0.58508230691E+01 -0.12657734226E+03  0.15997890222E+03  0.81069613443E+02 0.  0.
        -13    1    3    3    0    0  0.44794213140E+02  0.18898013026E+02 -0.20660237670E+02  0.52825200877E+02  0.00000000000E+00 0.  1.
         14    1    3    3    0    0  0.96567852793E+01 -0.13047189957E+02 -0.10591710459E+03  0.10715370134E+03  0.00000000000E+00 0. -1.
         -4    1    1    2    0  502 -0.54450998419E+02 -0.58508230691E+01 -0.16870535554E+04  0.16879421916E+04  0.00000000000E+00 0.  1.
<mgrwt>
<rscale>  1 0.97833663E+02</rscale>
<asrwt>0</asrwt>
<pdfrwt beam="1">  1       21 0.28165775E+00 0.97833663E+02</pdfrwt>
<pdfrwt beam="2">  1       -3 0.26377083E-02 0.97833663E+02</pdfrwt>
<totfact> 0.14127603E+03</totfact>
</mgrwt>
</event>
<event>
 6    2  0.7993170E+000  0.1272908E+03  0.7546771E-02  0.1231532E+00
         21   -1    0    0  501  502  0.00000000000E+00  0.00000000000E+00  0.12666147615E+02  0.12666147615E+02  0.00000000000E+00 0. -1.
          2   -1    0    0  502    0 -0.00000000000E+00 -0.00000000000E+00 -0.11800481388E+04  0.11800481388E+04  0.00000000000E+00 0. -1.
         24    2    1    2    0    0  0.94855675566E+02 -0.18667063741E+02 -0.88804206150E+03  0.89711852398E+03  0.82806307813E+02 0.  0.
        -13    1    3    3    0    0  0.15014189256E+02  0.27569420735E+02 -0.14428058546E+03  0.14765631100E+03  0.00000000000E+00 0.  1.
         14    1    3    3    0    0  0.79841486310E+02 -0.46236484476E+02 -0.74376147604E+03  0.74946221297E+03  0.00000000000E+00 0. -1.
          1    1    1    2  501    0 -0.94855675566E+02  0.18667063741E+02 -0.27933992971E+03  0.29559576246E+03  0.00000000000E+00 0. -1.
<mgrwt>
<rscale>  1 0.12729078E+03</rscale>
<asrwt>0</asrwt>
<pdfrwt beam="1">  1       21 0.19486377E-02 0.12729078E+03</pdfrwt>
<pdfrwt beam="2">  1        2 0.18154591E+00 0.12729078E+03</pdfrwt>
<totfact> 0.33285659E+05</totfact>
</mgrwt>
</event>
<event>
 6    2  0.7993170E+000  0.9914838E+02  0.7546771E-02  0.1282097E+00
          4   -1    0    0  502    0 -0.00000000000E+00  0.00000000000E+00  0.16880516823E+03  0.16880516823E+03  0.00000000000E+00 0. -1.
         21   -1    0    0  501  502  0.00000000000E+00 -0.00000000000E+00 -0.38831608060E+02  0.38831608060E+02  0.00000000000E+00 0. -1.
         24    2    1    2    0    0 -0.44697932532E+02  0.33785014172E+02  0.52984367387E+02  0.11241772273E+03  0.81798953791E+02 0.  0.
        -13    1    3    3    0    0  0.11547965738E+01 -0.12541204340E+02 -0.14083901936E+02  0.18893693529E+02  0.00000000000E+00 0.  1.
         14    1    3    3    0    0 -0.45852729106E+02  0.46326218512E+02  0.67068269323E+02  0.93524029201E+02  0.00000000000E+00 0. -1.
          3    1    1    2  501    0  0.44697932532E+02 -0.33785014172E+02  0.76989192782E+02  0.95219053558E+02  0.00000000000E+00 0. -1.
<mgrwt>
<rscale>  1 0.99148380E+02</rscale>
<asrwt>0</asrwt>
<pdfrwt beam="1">  1       21 0.59740936E-02 0.99148380E+02</pdfrwt>
<pdfrwt beam="2">  1        4 0.25970026E-01 0.99148380E+02</pdfrwt>
<totfact> 0.10619057E+05</totfact>
</mgrwt>
</event>
<event>
 6    2  0.7993170E+000  0.9336070E+02  0.7546771E-02  0.1294911E+00
         21   -1    0    0  501  502  0.00000000000E+00  0.00000000000E+00  0.56905217761E+02  0.56905217761E+02  0.00000000000E+00 0.  1.
          2   -1    0    0  502    0 -0.00000000000E+00 -0.00000000000E+00 -0.92045968162E+02  0.92045968162E+02  0.00000000000E+00 0. -1.
         24    2    1    2    0    0 -0.48574775698E+02 -0.46707720622E+01 -0.36219961983E+02  0.10014043256E+03  0.79592057659E+02 0.  0.
        -13    1    3    3    0    0 -0.11907319114E+02  0.26614994557E+02  0.12393528093E+02  0.31681883188E+02  0.00000000000E+00 0.  1.
         14    1    3    3    0    0 -0.36667456584E+02 -0.31285766620E+02 -0.48613490076E+02  0.68458549376E+02  0.00000000000E+00 0. -1.
          1    1    1    2  501    0  0.48574775698E+02  0.46707720622E+01  0.10792115829E+01  0.48810753358E+02  0.00000000000E+00 0. -1.
<mgrwt>
<rscale>  1 0.93360702E+02</rscale>
<asrwt>0</asrwt>
<pdfrwt beam="1">  1       21 0.87546490E-02 0.93360702E+02</pdfrwt>
<pdfrwt beam="2">  1        2 0.14160918E-01 0.93360702E+02</pdfrwt>
<totfact> 0.49262705E+05</totfact>
</mgrwt>
</event>
<event>
 6    2  0.7993170E+000  0.9607922E+02  0.7546771E-02  0.1288764E+00
         21   -1    0    0  501  502  0.00000000000E+00  0.00000000000E+00  0.43024691683E+01  0.43024691683E+01  0.00000000000E+00 0. -1.
          2   -1    0    0  502    0 -0.00000000000E+00 -0.00000000000E+00 -0.13671115785E+04  0.13671115785E+04  0.00000000000E+00 0. -1.
         24    2    1    2    0    0 -0.53897123874E+02 -0.79523086668E+01 -0.98894587124E+03  0.99360211036E+03  0.79139612698E+02 0.  0.
        -11    1    3    3    0    0  0.16039294095E+02  0.79956244529E+01 -0.88072183779E+02  0.89877130134E+02  0.00000000000E+00 0.  1.
         12    1    3    3    0    0 -0.69936417969E+02 -0.15947933120E+02 -0.90087368746E+03  0.90372498023E+03  0.00000000000E+00 0. -1.
          1    1    1    2  501    0  0.53897123874E+02  0.79523086668E+01 -0.37386323812E+03  0.37781193733E+03  0.00000000000E+00 0. -1.
<mgrwt>
<rscale>  1 0.96079225E+02</rscale>
<asrwt>0</asrwt>
<pdfrwt beam="1">  1       21 0.66191786E-03 0.96079225E+02</pdfrwt>
<pdfrwt beam="2">  1        2 0.21032501E+00 0.96079225E+02</pdfrwt>
<totfact> 0.14281926E+06</totfact>
</mgrwt>
</event>
<event>
 6    2  0.7993170E+000  0.9391255E+02  0.7546771E-02  0.1293644E+00
         21   -1    0    0  501  502  0.00000000000E+00  0.00000000000E+00  0.91733126429E+03  0.91733126429E+03  0.00000000000E+00 0. -1.
          4   -1    0    0  502    0 -0.00000000000E+00 -0.00000000000E+00 -0.59966822385E+01  0.59966822385E+01  0.00000000000E+00 0. -1.
         24    2    1    2    0    0 -0.17303534355E+02  0.43775850859E+02  0.72862298653E+03  0.73465027281E+03  0.81263949134E+02 0.  0.
        -13    1    3    3    0    0 -0.24300697186E+02  0.45647570809E+01  0.60727957906E+02  0.65568633983E+02  0.00000000000E+00 0.  1.
         14    1    3    3    0    0  0.69971628306E+01  0.39211093778E+02  0.66789502862E+03  0.66908163883E+03  0.00000000000E+00 0. -1.
          3    1    1    2  501    0  0.17303534355E+02 -0.43775850859E+02  0.18271159553E+03  0.18867767372E+03  0.00000000000E+00 0. -1.
<mgrwt>
<rscale>  1 0.93912549E+02</rscale>
<asrwt>0</asrwt>
<pdfrwt beam="1">  1       21 0.14112778E+00 0.93912549E+02</pdfrwt>
<pdfrwt beam="2">  1        4 0.92256723E-03 0.93912549E+02</pdfrwt>
<totfact> 0.46416018E+04</totfact>
</mgrwt>
</event>
<event>
 6    2  0.7993170E+000  0.8851254E+02  0.7546771E-02  0.1306494E+00
         -3   -1    0    0    0  501 -0.00000000000E+00  0.00000000000E+00  0.20468516489E+02  0.20468516489E+02  0.00000000000E+00 0.  1.
         21   -1    0    0  501  502  0.00000000000E+00 -0.00000000000E+00 -0.19056815411E+03  0.19056815411E+03  0.00000000000E+00 0. -1.
         24    2    1    2    0    0 -0.29394117819E+02 -0.26591644384E+01 -0.15345606709E+03  0.17715313835E+03  0.83446896779E+02 0.  0.
        -13    1    3    3    0    0  0.81126482594E+01 -0.25906746858E+02 -0.13330346712E+02  0.30243556967E+02  0.00000000000E+00 0.  1.
         14    1    3    3    0    0 -0.37506766078E+02  0.23247582420E+02 -0.14012572038E+03  0.14690958138E+03  0.00000000000E+00 0. -1.
         -4    1    1    2    0  502  0.29394117819E+02  0.26591644384E+01 -0.16643570532E+02  0.33883532252E+02  0.00000000000E+00 0.  1.
<mgrwt>
<rscale>  1 0.88512541E+02</rscale>
<asrwt>0</asrwt>
<pdfrwt beam="1">  1       21 0.29318178E-01 0.88512541E+02</pdfrwt>
<pdfrwt beam="2">  1       -3 0.31490025E-02 0.88512541E+02</pdfrwt>
<totfact> 0.23501771E+05</totfact>
</mgrwt>
</event>
<event>
 6    2  0.7993170E+000  0.8267453E+02  0.7546771E-02  0.1321628E+00
         21   -1    0    0  501  502  0.00000000000E+00  0.00000000000E+00  0.20631576846E+01  0.20631576846E+01  0.00000000000E+00 0. -1.
          2   -1    0    0  502    0 -0.00000000000E+00 -0.00000000000E+00 -0.13727925948E+04  0.13727925948E+04  0.00000000000E+00 0. -1.
         24    2    1    2    0    0 -0.14306087769E+02 -0.15322060782E+02 -0.11999278624E+04  0.12027726109E+04  0.79972800772E+02 0.  0.
        -13    1    3    3    0    0  0.23521605831E+01  0.32210298979E+02 -0.45901875164E+03  0.46015350740E+03  0.00000000000E+00 0.  1.
         14    1    3    3    0    0 -0.16658248352E+02 -0.47532359761E+02 -0.74090911074E+03  0.74261910347E+03  0.00000000000E+00 0. -1.
          1    1    1    2  501    0  0.14306087769E+02  0.15322060782E+02 -0.17080157474E+03  0.17208314161E+03  0.00000000000E+00 0. -1.
<mgrwt>
<rscale>  1 0.82674534E+02</rscale>
<asrwt>0</asrwt>
<pdfrwt beam="1">  1       21 0.31740812E-03 0.82674534E+02</pdfrwt>
<pdfrwt beam="2">  1        2 0.21119936E+00 0.82674534E+02</pdfrwt>
<totfact> 0.43049453E+06</totfact>
</mgrwt>
</event>
<event>
 6    2  0.7993170E+000  0.8799079E+02  0.7546771E-02  0.1307792E+00
         21   -1    0    0  501  502  0.00000000000E+00  0.00000000000E+00  0.50903249271E+02  0.50903249271E+02  0.00000000000E+00 0. -1.
          2   -1    0    0  502    0 -0.00000000000E+00 -0.00000000000E+00 -0.17697496733E+03  0.17697496733E+03  0.00000000000E+00 0. -1.
         24    2    1    2    0    0  0.33099755830E+02 -0.16167696017E+02 -0.15686980299E+03  0.17986248724E+03  0.79908641557E+02 0.  0.
        -13    1    3    3    0    0  0.71360338947E+01 -0.30818808537E+02 -0.15212047117E+02  0.35101685385E+02  0.00000000000E+00 0.  1.
         14    1    3    3    0    0  0.25963721935E+02  0.14651112519E+02 -0.14165775587E+03  0.14476080185E+03  0.00000000000E+00 0. -1.
          1    1    1    2  501    0 -0.33099755830E+02  0.16167696017E+02  0.30798084932E+02  0.48015729360E+02  0.00000000000E+00 0. -1.
<mgrwt>
<rscale>  1 0.87990791E+02</rscale>
<asrwt>0</asrwt>
<pdfrwt beam="1">  1       21 0.78312692E-02 0.87990791E+02</pdfrwt>
<pdfrwt beam="2">  1        2 0.27226918E-01 0.87990791E+02</pdfrwt>
<totfact> 0.28523615E+05</totfact>
</mgrwt>
</event>
<event>
 6    2  0.7993170E+000  0.9481050E+02  0.7546771E-02  0.1291603E+00
          2   -1    0    0  502    0 -0.00000000000E+00  0.00000000000E+00  0.10316679961E+04  0.10316679961E+04  0.00000000000E+00 0. -1.
         21   -1    0    0  501  502  0.00000000000E+00 -0.00000000000E+00 -0.50991768716E+01  0.50991768716E+01  0.00000000000E+00 0. -1.
         24    2    1    2    0    0 -0.24793285206E+02 -0.41535684196E+02  0.59671456564E+03  0.60419972230E+03  0.81542084389E+02 0.  0.
        -11    1    3    3    0    0 -0.35768211881E+01  0.22569387327E+02  0.83809851550E+02  0.86869224187E+02  0.00000000000E+00 0.  1.
         12    1    3    3    0    0 -0.21216464018E+02 -0.64105071524E+02  0.51290471409E+03  0.51733049811E+03  0.00000000000E+00 0. -1.
          1    1    1    2  501    0  0.24793285206E+02  0.41535684196E+02  0.42985425356E+03  0.43256745064E+03  0.00000000000E+00 0. -1.
<mgrwt>
<rscale>  1 0.94810504E+02</rscale>
<asrwt>0</asrwt>
<pdfrwt beam="1">  1       21 0.78448957E-03 0.94810504E+02</pdfrwt>
<pdfrwt beam="2">  1        2 0.15871799E+00 0.94810504E+02</pdfrwt>
<totfact> 0.16722986E+06</totfact>
</mgrwt>
</event>
<event>
 6    2  0.7993170E+000  0.9047776E+02  0.7546771E-02  0.1301699E+00
         21   -1    0    0  501  502  0.00000000000E+00  0.00000000000E+00  0.26559074102E+02  0.26559074102E+02  0.00000000000E+00 0.  1.
          2   -1    0    0  502    0 -0.00000000000E+00 -0.00000000000E+00 -0.16561166270E+03  0.16561166270E+03  0.00000000000E+00 0. -1.
         24    2    1    2    0    0 -0.10399020500E+02  0.38234486530E+02 -0.11295894458E+03  0.14472715088E+03  0.81340085148E+02 0.  0.
        -13    1    3    3    0    0 -0.22802251834E+01  0.42207572394E+02 -0.12804950621E+02  0.44166110930E+02  0.00000000000E+00 0.  1.
         14    1    3    3    0    0 -0.81187953163E+01 -0.39730858638E+01 -0.10015399396E+03  0.10056103995E+03  0.00000000000E+00 0. -1.
          1    1    1    2  501    0  0.10399020500E+02 -0.38234486530E+02 -0.26093644017E+02  0.47443585927E+02  0.00000000000E+00 0. -1.
<mgrwt>
<rscale>  1 0.90477760E+02</rscale>
<asrwt>0</asrwt>
<pdfrwt beam="1">  1       21 0.40860116E-02 0.90477760E+02</pdfrwt>
<pdfrwt beam="2">  1        2 0.25478716E-01 0.90477760E+02</pdfrwt>
<totfact> 0.91369477E+05</totfact>
</mgrwt>
</event>
<event>
 6    2  0.7993170E+000  0.8277199E+02  0.7546771E-02  0.1321364E+00
          2   -1    0    0  502    0 -0.00000000000E+00  0.00000000000E+00  0.63446392698E+03  0.63446392698E+03  0.00000000000E+00 0. -1.
         21   -1    0    0  501  502  0.00000000000E+00 -0.00000000000E+00 -0.80509073481E+01  0.80509073481E+01  0.00000000000E+00 0. -1.
         24    2    1    2    0    0 -0.82355545081E+01  0.18909437952E+02  0.61146685937E+03  0.61704369559E+03  0.80161156209E+02 0.  0.
        -13    1    3    3    0    0 -0.49890678447E+01  0.25283423399E+02  0.57276376336E+02  0.62807050423E+02  0.00000000000E+00 0.  1.
         14    1    3    3    0    0 -0.32464866634E+01 -0.63739854469E+01  0.55419048303E+03  0.55423664517E+03  0.00000000000E+00 0. -1.
          1    1    1    2  501    0  0.82355545081E+01 -0.18909437952E+02  0.14946160260E+02  0.25471138730E+02  0.00000000000E+00 0. -1.
<mgrwt>
<rscale>  1 0.82771989E+02</rscale>
<asrwt>0</asrwt>
<pdfrwt beam="1">  1       21 0.12386016E-02 0.82771989E+02</pdfrwt>
<pdfrwt beam="2">  1        2 0.97609796E-01 0.82771989E+02</pdfrwt>
<totfact> 0.14739983E+06</totfact>
</mgrwt>
</event>
<event>
 6    2  0.7993170E+000  0.8383800E+02  0.7546771E-02  0.1318500E+00
         21   -1    0    0  501  502  0.00000000000E+00  0.00000000000E+00  0.24862025533E+01  0.24862025533E+01  0.00000000000E+00 0. -1.
          2   -1    0    0  502    0 -0.00000000000E+00 -0.00000000000E+00 -0.12080206135E+04  0.12080206135E+04  0.00000000000E+00 0. -1.
         24    2    1    2    0    0  0.19906836215E+02  0.59737369637E+01 -0.10813547887E+04  0.10845999209E+04  0.81220944027E+02 0.  0.
        -11    1    3    3    0    0 -0.15965251287E+02 -0.28644927858E+02 -0.34301220121E+03  0.34457624891E+03  0.00000000000E+00 0.  1.
         12    1    3    3    0    0  0.35872087502E+02  0.34618664821E+02 -0.73834258753E+03  0.74002367203E+03  0.00000000000E+00 0. -1.
          1    1    1    2  501    0 -0.19906836215E+02 -0.59737369637E+01 -0.12417962224E+03  0.12590689512E+03  0.00000000000E+00 0. -1.
<mgrwt>
<rscale>  1 0.83837995E+02</rscale>
<asrwt>0</asrwt>
<pdfrwt beam="1">  1       21 0.38249244E-03 0.83837995E+02</pdfrwt>
<pdfrwt beam="2">  1        2 0.18584945E+00 0.83837995E+02</pdfrwt>
<totfact> 0.39708431E+06</totfact>
</mgrwt>
</event>
<event>
 6    2  0.7993170E+000  0.6227147E+02  0.7546771E-02  0.1388539E+00
         21   -1    0    0  501  502  0.00000000000E+00  0.00000000000E+00  0.85555438130E+02  0.85555438130E+02  0.00000000000E+00 0. -1.
          4   -1    0    0  502    0 -0.00000000000E+00 -0.00000000000E+00 -0.38163412561E+02  0.38163412561E+02  0.00000000000E+00 0. -1.
         24    2    1    2    0    0 -0.29135425153E+02  0.10494184143E+02 -0.54096057191E+01  0.62505999373E+02  0.54025320212E+02 0.  0.
        -13    1    3    3    0    0  0.76566468693E+01 -0.14021689813E+02  0.56261043154E+01  0.16937682140E+02  0.00000000000E+00 0.  1.
         14    1    3    3    0    0 -0.36792072022E+02  0.24515873956E+02 -0.11035710035E+02  0.45568317233E+02  0.00000000000E+00 0. -1.
          3    1    1    2  501    0  0.29135425153E+02 -0.10494184143E+02  0.52801631289E+02  0.61212851317E+02  0.00000000000E+00 0. -1.
<mgrwt>
<rscale>  1 0.62271471E+02</rscale>
<asrwt>0</asrwt>
<pdfrwt beam="1">  1       21 0.13162375E-01 0.62271471E+02</pdfrwt>
<pdfrwt beam="2">  1        4 0.58712943E-02 0.62271471E+02</pdfrwt>
<totfact> 0.31510353E+05</totfact>
</mgrwt>
</event>
<event>
 6    2  0.7993170E+000  0.8561629E+02  0.7546771E-02  0.1313829E+00
         21   -1    0    0  501  502  0.00000000000E+00  0.00000000000E+00  0.74884085814E+02  0.74884085814E+02  0.00000000000E+00 0. -1.
          2   -1    0    0  502    0 -0.00000000000E+00 -0.00000000000E+00 -0.95717308386E+02  0.95717308386E+02  0.00000000000E+00 0. -1.
         24    2    1    2    0    0 -0.88915877596E+01  0.25465119323E+02 -0.72583869949E+02  0.11224334301E+03  0.81256490435E+02 0.  0.
        -13    1    3    3    0    0  0.24803531494E+02  0.97118438309E+01 -0.70070511476E+02  0.74962735167E+02  0.00000000000E+00 0.  1.
         14    1    3    3    0    0 -0.33695119253E+02  0.15753275492E+02 -0.25133584735E+01  0.37280607842E+02  0.00000000000E+00 0. -1.
          1    1    1    2  501    0  0.88915877596E+01 -0.25465119323E+02  0.51750647377E+02  0.58358051192E+02  0.00000000000E+00 0. -1.
<mgrwt>
<rscale>  1 0.85616294E+02</rscale>
<asrwt>0</asrwt>
<pdfrwt beam="1">  1       21 0.11520629E-01 0.85616294E+02</pdfrwt>
<pdfrwt beam="2">  1        2 0.14725740E-01 0.85616294E+02</pdfrwt>
<totfact> 0.29035688E+05</totfact>
</mgrwt>
</event>
<event>
 6    2  0.7993170E+000  0.8534165E+02  0.7546771E-02  0.1314541E+00
          4   -1    0    0  502    0 -0.00000000000E+00  0.00000000000E+00  0.28910506353E+03  0.28910506353E+03  0.00000000000E+00 0. -1.
         21   -1    0    0  501  502  0.00000000000E+00 -0.00000000000E+00 -0.12357868167E+02  0.12357868167E+02  0.00000000000E+00 0. -1.
         24    2    1    2    0    0 -0.17461347072E+02  0.29330553649E+02  0.20220971800E+03  0.21948113158E+03  0.78217754035E+02 0.  0.
        -11    1    3    3    0    0 -0.19610680775E+02 -0.24511569465E+02  0.78627318063E+02  0.84661980747E+02  0.00000000000E+00 0.  1.
         12    1    3    3    0    0  0.21493337038E+01  0.53842123114E+02  0.12358239994E+03  0.13481915084E+03  0.00000000000E+00 0. -1.
          3    1    1    2  501    0  0.17461347072E+02 -0.29330553649E+02  0.74537477356E+02  0.81981800111E+02  0.00000000000E+00 0. -1.
<mgrwt>
<rscale>  1 0.85341649E+02</rscale>
<asrwt>0</asrwt>
<pdfrwt beam="1">  1       21 0.19012107E-02 0.85341649E+02</pdfrwt>
<pdfrwt beam="2">  1        4 0.44477697E-01 0.85341649E+02</pdfrwt>
<totfact> 0.24102742E+05</totfact>
</mgrwt>
</event>
<event>
 6    2  0.7993170E+000  0.8493519E+02  0.7546771E-02  0.1315602E+00
          4   -1    0    0  502    0 -0.00000000000E+00  0.00000000000E+00  0.23287632385E+03  0.23287632385E+03  0.00000000000E+00 0. -1.
         21   -1    0    0  501  502  0.00000000000E+00 -0.00000000000E+00 -0.41766273998E+02  0.41766273998E+02  0.00000000000E+00 0. -1.
         24    2    1    2    0    0  0.24930666565E+02  0.10328457264E+02  0.21956868747E+03  0.23542386228E+03  0.80534286180E+02 0.  0.
        -13    1    3    3    0    0  0.24294233825E+02  0.21819808242E+02  0.26613936436E+02  0.42126184749E+02  0.00000000000E+00 0.  1.
         14    1    3    3    0    0  0.63643273974E+00 -0.11491350978E+02  0.19295475103E+03  0.19329767753E+03  0.00000000000E+00 0. -1.
          3    1    1    2  501    0 -0.24930666565E+02 -0.10328457264E+02 -0.28458637614E+02  0.39218735569E+02  0.00000000000E+00 0. -1.
<mgrwt>
<rscale>  1 0.84935189E+02</rscale>
<asrwt>0</asrwt>
<pdfrwt beam="1">  1       21 0.64255807E-02 0.84935189E+02</pdfrwt>
<pdfrwt beam="2">  1        4 0.35827126E-01 0.84935189E+02</pdfrwt>
<totfact> 0.50071574E+04</totfact>
</mgrwt>
</event>
<event>
 6    2  0.7993170E+000  0.8445945E+02  0.7546771E-02  0.1316852E+00
          2   -1    0    0  502    0 -0.00000000000E+00  0.00000000000E+00  0.38902931754E+03  0.38902931754E+03  0.00000000000E+00 0. -1.
         21   -1    0    0  501  502  0.00000000000E+00 -0.00000000000E+00 -0.18385464092E+03  0.18385464092E+03  0.00000000000E+00 0. -1.
         24    2    1    2    0    0 -0.11843637513E+02  0.22339703275E+02  0.38354305588E+03  0.39273232008E+03  0.80585764434E+02 0.  0.
        -13    1    3    3    0    0  0.48087963037E+01  0.48043337804E+02  0.16076973951E+03  0.16786362314E+03  0.00000000000E+00 0.  1.
         14    1    3    3    0    0 -0.16652433816E+02 -0.25703634529E+02  0.22277331637E+03  0.22486869694E+03  0.00000000000E+00 0. -1.
          1    1    1    2  501    0  0.11843637513E+02 -0.22339703275E+02 -0.17836837926E+03  0.18015163838E+03  0.00000000000E+00 0. -1.
<mgrwt>
<rscale>  1 0.84459455E+02</rscale>
<asrwt>0</asrwt>
<pdfrwt beam="1">  1       21 0.28285329E-01 0.84459455E+02</pdfrwt>
<pdfrwt beam="2">  1        2 0.59850664E-01 0.84459455E+02</pdfrwt>
<totfact> 0.12529041E+04</totfact>
</mgrwt>
</event>
<event>
 6    2  0.7993170E+000  0.8986553E+02  0.7546771E-02  0.1303178E+00
         21   -1    0    0  501  502  0.00000000000E+00  0.00000000000E+00  0.48692310930E+01  0.48692310930E+01  0.00000000000E+00 0.  1.
          2   -1    0    0  502    0 -0.00000000000E+00 -0.00000000000E+00 -0.95041315803E+03  0.95041315803E+03  0.00000000000E+00 0. -1.
         24    2    1    2    0    0 -0.36648487631E+02  0.15940912653E-01 -0.80644350690E+03  0.81143511332E+03  0.82053040270E+02 0.  0.
        -11    1    3    3    0    0 -0.35090859407E+02  0.17326221509E+02 -0.15854925187E+03  0.16330778192E+03  0.00000000000E+00 0.  1.
         12    1    3    3    0    0 -0.15576282241E+01 -0.17310280597E+02 -0.64789425503E+03  0.64812733141E+03  0.00000000000E+00 0. -1.
          1    1    1    2  501    0  0.36648487631E+02 -0.15940912653E-01 -0.13910042004E+03  0.14384727580E+03  0.00000000000E+00 0. -1.
<mgrwt>
<rscale>  1 0.89865529E+02</rscale>
<asrwt>0</asrwt>
<pdfrwt beam="1">  1       21 0.74911325E-03 0.89865529E+02</pdfrwt>
<pdfrwt beam="2">  1        2 0.14621726E+00 0.89865529E+02</pdfrwt>
<totfact> 0.19960889E+06</totfact>
</mgrwt>
</event>
<event>
 6    2  0.7993170E+000  0.8717898E+02  0.7546771E-02  0.1309831E+00
          2   -1    0    0  502    0 -0.00000000000E+00  0.00000000000E+00  0.80264328971E+03  0.80264328971E+03  0.00000000000E+00 0. -1.
         21   -1    0    0  501  502  0.00000000000E+00 -0.00000000000E+00 -0.45780461645E+01  0.45780461645E+01  0.00000000000E+00 0.  1.
         24    2    1    2    0    0 -0.27635215557E+01  0.30861039593E+02  0.49929827724E+03  0.50685199494E+03  0.81487019254E+02 0.  0.
        -13    1    3    3    0    0 -0.11215144146E+01  0.42294683697E+02  0.11760768441E+03  0.12498666127E+03  0.00000000000E+00 0.  1.
         14    1    3    3    0    0 -0.16420071410E+01 -0.11433644104E+02  0.38169059283E+03  0.38186533367E+03  0.00000000000E+00 0. -1.
          1    1    1    2  501    0  0.27635215557E+01 -0.30861039593E+02  0.29876696631E+03  0.30036934094E+03  0.00000000000E+00 0. -1.
<mgrwt>
<rscale>  1 0.87178983E+02</rscale>
<asrwt>0</asrwt>
<pdfrwt beam="1">  1       21 0.70431543E-03 0.87178983E+02</pdfrwt>
<pdfrwt beam="2">  1        2 0.12348347E+00 0.87178983E+02</pdfrwt>
<totfact> 0.27109195E+06</totfact>
</mgrwt>
</event>
<event>
 6    2  0.7993170E+000  0.8720248E+02  0.7546771E-02  0.1309771E+00
          4   -1    0    0  502    0 -0.00000000000E+00  0.00000000000E+00  0.62942892613E+03  0.62942892613E+03  0.00000000000E+00 0. -1.
         21   -1    0    0  501  502  0.00000000000E+00 -0.00000000000E+00 -0.64679793993E+01  0.64679793993E+01  0.00000000000E+00 0. -1.
         24    2    1    2    0    0 -0.26386997636E+02 -0.30118787135E+02  0.40390986067E+03  0.41321598294E+03  0.77465205250E+02 0.  0.
        -13    1    3    3    0    0 -0.15057835605E+02  0.25033931061E+02  0.10201228600E+03  0.10611287675E+03  0.00000000000E+00 0.  1.
         14    1    3    3    0    0 -0.11329162032E+02 -0.55152718196E+02  0.30189757467E+03  0.30710310618E+03  0.00000000000E+00 0. -1.
          3    1    1    2  501    0  0.26386997636E+02  0.30118787135E+02  0.21905108605E+03  0.22268092259E+03  0.00000000000E+00 0. -1.
<mgrwt>
<rscale>  1 0.87202483E+02</rscale>
<asrwt>0</asrwt>
<pdfrwt beam="1">  1       21 0.99507425E-03 0.87202483E+02</pdfrwt>
<pdfrwt beam="2">  1        4 0.96835171E-01 0.87202483E+02</pdfrwt>
<totfact> 0.12964631E+05</totfact>
</mgrwt>
</event>
<event>
 6    2  0.7993170E+000  0.8635685E+02  0.7546771E-02  0.1311922E+00
          2   -1    0    0  502    0 -0.00000000000E+00  0.00000000000E+00  0.38259141227E+02  0.38259141227E+02  0.00000000000E+00 0. -1.
         21   -1    0    0  501  502  0.00000000000E+00 -0.00000000000E+00 -0.90127897326E+02  0.90127897326E+02  0.00000000000E+00 0. -1.
         24    2    1    2    0    0 -0.24517681917E+02  0.13189892212E+01 -0.56775064709E+02  0.10334850179E+03  0.82792803974E+02 0.  0.
        -11    1    3    3    0    0  0.11347646415E+02  0.30244429012E+02 -0.45693087121E+02  0.55958491546E+02  0.00000000000E+00 0.  1.
         12    1    3    3    0    0 -0.35865328332E+02 -0.28925439791E+02 -0.11081977588E+02  0.47390010242E+02  0.00000000000E+00 0. -1.
          1    1    1    2  501    0  0.24517681917E+02 -0.13189892212E+01  0.49063086103E+01  0.25038536765E+02  0.00000000000E+00 0. -1.
<mgrwt>
<rscale>  1 0.86356846E+02</rscale>
<asrwt>0</asrwt>
<pdfrwt beam="1">  1       21 0.13865830E-01 0.86356846E+02</pdfrwt>
<pdfrwt beam="2">  1        2 0.58860218E-02 0.86356846E+02</pdfrwt>
<totfact> 0.64054071E+05</totfact>
</mgrwt>
</event>
<event>
 6    2  0.7993170E+000  0.1040117E+03  0.7546771E-02  0.1272079E+00
         21   -1    0    0  501  502  0.00000000000E+00  0.00000000000E+00  0.19381181947E+02  0.19381181947E+02  0.00000000000E+00 0.  1.
         -3   -1    0    0    0  501 -0.00000000000E+00 -0.00000000000E+00 -0.36441097922E+03  0.36441097922E+03  0.00000000000E+00 0.  1.
         24    2    1    2    0    0  0.29947711894E+00 -0.64037694989E+02 -0.21002405290E+03  0.23436837765E+03  0.81960463522E+02 0.  0.
        -11    1    3    3    0    0 -0.22292393493E+02 -0.60197791892E+02 -0.19869081309E+03  0.20880317086E+03  0.00000000000E+00 0.  1.
         12    1    3    3    0    0  0.22591870612E+02 -0.38399030967E+01 -0.11333239810E+02  0.25565206788E+02  0.00000000000E+00 0. -1.
         -4    1    1    2    0  502 -0.29947711894E+00  0.64037694989E+02 -0.13500574438E+03  0.14942378352E+03  0.00000000000E+00 0.  1.
<mgrwt>
<rscale>  1 0.10401170E+03</rscale>
<asrwt>0</asrwt>
<pdfrwt beam="1">  1       21 0.29817203E-02 0.10401170E+03</pdfrwt>
<pdfrwt beam="2">  1       -3 0.56063227E-01 0.10401170E+03</pdfrwt>
<totfact> 0.93275254E+04</totfact>
</mgrwt>
</event>
<event>
 6    2  0.7993170E+000  0.8504578E+02  0.7546771E-02  0.1315313E+00
          2   -1    0    0  502    0 -0.00000000000E+00  0.00000000000E+00  0.20081522119E+03  0.20081522119E+03  0.00000000000E+00 0. -1.
         21   -1    0    0  501  502  0.00000000000E+00 -0.00000000000E+00 -0.19408135185E+02  0.19408135185E+02  0.00000000000E+00 0.  1.
         24    2    1    2    0    0  0.12681270914E+01 -0.23753472197E+02  0.17652030644E+03  0.19593928336E+03  0.81651384488E+02 0.  0.
        -13    1    3    3    0    0  0.36160334779E+02  0.21987903242E+01  0.47177181625E+02  0.59481854009E+02  0.00000000000E+00 0.  1.
         14    1    3    3    0    0 -0.34892207688E+02 -0.25952262521E+02  0.12934312482E+03  0.13645742935E+03  0.00000000000E+00 0. -1.
          1    1    1    2  501    0 -0.12681270914E+01  0.23753472197E+02  0.48867795617E+01  0.24284073015E+02  0.00000000000E+00 0. -1.
<mgrwt>
<rscale>  1 0.85045777E+02</rscale>
<asrwt>0</asrwt>
<pdfrwt beam="1">  1       21 0.29858671E-02 0.85045777E+02</pdfrwt>
<pdfrwt beam="2">  1        2 0.30894648E-01 0.85045777E+02</pdfrwt>
<totfact> 0.12318565E+06</totfact>
</mgrwt>
</event>
<event>
 6    2  0.7993170E+000  0.8816869E+02  0.7546771E-02  0.1307348E+00
         -3   -1    0    0    0  501 -0.00000000000E+00  0.00000000000E+00  0.30706306984E+02  0.30706306984E+02  0.00000000000E+00 0.  1.
         21   -1    0    0  501  502  0.00000000000E+00 -0.00000000000E+00 -0.12395490124E+03  0.12395490124E+03  0.00000000000E+00 0.  1.
         24    2    1    2    0    0  0.22286484919E+02 -0.56108213561E+01 -0.40304309168E+02  0.96944087283E+02  0.85120796491E+02 0.  0.
        -13    1    3    3    0    0  0.53453268787E+01  0.13758665415E+02  0.23722436865E+02  0.27939710168E+02  0.00000000000E+00 0.  1.
         14    1    3    3    0    0  0.16941158040E+02 -0.19369486771E+02 -0.64026746033E+02  0.69004377115E+02  0.00000000000E+00 0. -1.
         -4    1    1    2    0  502 -0.22286484919E+02  0.56108213561E+01 -0.52944285086E+02  0.57717120940E+02  0.00000000000E+00 0.  1.
<mgrwt>
<rscale>  1 0.88168695E+02</rscale>
<asrwt>0</asrwt>
<pdfrwt beam="1">  1       21 0.19069985E-01 0.88168695E+02</pdfrwt>
<pdfrwt beam="2">  1       -3 0.47240473E-02 0.88168695E+02</pdfrwt>
<totfact> 0.27916260E+05</totfact>
</mgrwt>
</event>
<event>
 6    2  0.7993170E+000  0.9268751E+02  0.7546771E-02  0.1296471E+00
         21   -1    0    0  501  502  0.00000000000E+00  0.00000000000E+00  0.11331277046E+02  0.11331277046E+02  0.00000000000E+00 0. -1.
          2   -1    0    0  502    0 -0.00000000000E+00 -0.00000000000E+00 -0.43906925475E+03  0.43906925475E+03  0.00000000000E+00 0. -1.
         24    2    1    2    0    0 -0.14434271757E+02 -0.45773297842E+02 -0.29726271891E+03  0.31137774174E+03  0.79293322562E+02 0.  0.
        -13    1    3    3    0    0  0.14337690444E+02  0.12330569160E+02 -0.24143356350E+02  0.30667800033E+02  0.00000000000E+00 0.  1.
         14    1    3    3    0    0 -0.28771962201E+02 -0.58103867002E+02 -0.27311936256E+03  0.28070994171E+03  0.00000000000E+00 0. -1.
          1    1    1    2  501    0  0.14434271757E+02  0.45773297842E+02 -0.13047525880E+03  0.13902279006E+03  0.00000000000E+00 0. -1.
<mgrwt>
<rscale>  1 0.92687507E+02</rscale>
<asrwt>0</asrwt>
<pdfrwt beam="1">  1       21 0.17432734E-02 0.92687507E+02</pdfrwt>
<pdfrwt beam="2">  1        2 0.67549117E-01 0.92687507E+02</pdfrwt>
<totfact> 0.12982600E+06</totfact>
</mgrwt>
</event>
<event>
 6    2  0.7993170E+000  0.1157862E+03  0.7546771E-02  0.1250215E+00
         -3   -1    0    0    0  501 -0.00000000000E+00  0.00000000000E+00  0.10936191998E+03  0.10936191998E+03  0.00000000000E+00 0.  1.
         21   -1    0    0  501  502  0.00000000000E+00 -0.00000000000E+00 -0.94262157980E+02  0.94262157980E+02  0.00000000000E+00 0.  1.
         24    2    1    2    0    0 -0.82678574023E+02 -0.17127740778E+02 -0.80749307141E+01  0.11606739638E+03  0.79229602363E+02 0.  0.
        -13    1    3    3    0    0 -0.67223915407E+02 -0.22657034325E+02  0.28131824597E+02  0.76313796670E+02  0.00000000000E+00 0.  1.
         14    1    3    3    0    0 -0.15454658617E+02  0.55292935468E+01 -0.36206755311E+02  0.39753599714E+02  0.00000000000E+00 0. -1.
         -4    1    1    2    0  502  0.82678574023E+02  0.17127740778E+02  0.23174692718E+02  0.87556681580E+02  0.00000000000E+00 0.  1.
<mgrwt>
<rscale>  1 0.11578616E+03</rscale>
<asrwt>0</asrwt>
<pdfrwt beam="1">  1       21 0.14501871E-01 0.11578616E+03</pdfrwt>
<pdfrwt beam="2">  1       -3 0.16824911E-01 0.11578616E+03</pdfrwt>
<totfact> 0.59658745E+04</totfact>
</mgrwt>
</event>
<event>
 6    2  0.7993170E+000  0.8770467E+02  0.7546771E-02  0.1308507E+00
          2   -1    0    0  502    0 -0.00000000000E+00  0.00000000000E+00  0.34516270932E+03  0.34516270932E+03  0.00000000000E+00 0. -1.
         21   -1    0    0  501  502  0.00000000000E+00 -0.00000000000E+00 -0.95534077693E+01  0.95534077693E+01  0.00000000000E+00 0. -1.
         24    2    1    2    0    0  0.18137297744E+02 -0.10356418010E+02  0.30707822836E+03  0.31935739680E+03  0.85181521422E+02 0.  0.
        -13    1    3    3    0    0 -0.85957465294E+01  0.14942033316E+02  0.98395350361E+01  0.19848618786E+02  0.00000000000E+00 0.  1.
         14    1    3    3    0    0  0.26733044273E+02 -0.25298451325E+02  0.29723869332E+03  0.29950877801E+03  0.00000000000E+00 0. -1.
          1    1    1    2  501    0 -0.18137297744E+02  0.10356418010E+02  0.28531073193E+02  0.35358720296E+02  0.00000000000E+00 0. -1.
<mgrwt>
<rscale>  1 0.87704667E+02</rscale>
<asrwt>0</asrwt>
<pdfrwt beam="1">  1       21 0.14697553E-02 0.87704667E+02</pdfrwt>
<pdfrwt beam="2">  1        2 0.53101946E-01 0.87704667E+02</pdfrwt>
<totfact> 0.21788307E+06</totfact>
</mgrwt>
</event>
<event>
 6    2  0.7993170E+000  0.9055040E+02  0.7546771E-02  0.1301524E+00
         -3   -1    0    0    0  501 -0.00000000000E+00  0.00000000000E+00  0.16316250928E+04  0.16316250928E+04  0.00000000000E+00 0.  1.
         21   -1    0    0  501  502  0.00000000000E+00 -0.00000000000E+00 -0.27886714593E+01  0.27886714593E+01  0.00000000000E+00 0. -1.
         24    2    1    2    0    0 -0.13861697217E+02 -0.40938148892E+02  0.99859708198E+03  0.10026941243E+04  0.79569441371E+02 0.  0.
        -11    1    3    3    0    0  0.16779975774E+02 -0.20716025978E+02  0.81639030535E+03  0.81682547217E+03  0.00000000000E+00 0.  1.
         12    1    3    3    0    0 -0.30641672991E+02 -0.20222122913E+02  0.18220677663E+03  0.18586865209E+03  0.00000000000E+00 0. -1.
         -4    1    1    2    0  502  0.13861697217E+02  0.40938148892E+02  0.63023933937E+03  0.63171964001E+03  0.00000000000E+00 0.  1.
<mgrwt>
<rscale>  1 0.90550399E+02</rscale>
<asrwt>0</asrwt>
<pdfrwt beam="1">  1       21 0.42902768E-03 0.90550399E+02</pdfrwt>
<pdfrwt beam="2">  1       -3 0.25101848E+00 0.90550399E+02</pdfrwt>
<totfact> 0.53758101E+04</totfact>
</mgrwt>
</event>
<event>
 6    2  0.7993170E+000  0.1155602E+03  0.7546771E-02  0.1250606E+00
          2   -1    0    0  502    0 -0.00000000000E+00  0.00000000000E+00  0.19174514191E+04  0.19174514191E+04  0.00000000000E+00 0. -1.
         21   -1    0    0  501  502  0.00000000000E+00 -0.00000000000E+00 -0.60383398078E+01  0.60383398078E+01  0.00000000000E+00 0. -1.
         24    2    1    2    0    0  0.48873326304E+00  0.81235189415E+02  0.71089560332E+03  0.72022685955E+03  0.82187441474E+02 0.  0.
        -11    1    3    3    0    0  0.32633104595E+02  0.62205914867E+01  0.17089340962E+03  0.17409242581E+03  0.00000000000E+00 0.  1.
         12    1    3    3    0    0 -0.32144371332E+02  0.75014597928E+02  0.54000219370E+03  0.54613443374E+03  0.00000000000E+00 0. -1.
          1    1    1    2  501    0 -0.48873326304E+00 -0.81235189415E+02  0.12005174759E+04  0.12032628993E+04  0.00000000000E+00 0. -1.
<mgrwt>
<rscale>  1 0.11556025E+03</rscale>
<asrwt>0</asrwt>
<pdfrwt beam="1">  1       21 0.92897689E-03 0.11556025E+03</pdfrwt>
<pdfrwt beam="2">  1        2 0.29499204E+00 0.11556025E+03</pdfrwt>
<totfact> 0.44517994E+05</totfact>
</mgrwt>
</event>
<event>
 6    2  0.7993170E+000  0.1515840E+03  0.7546771E-02  0.1198540E+00
         21   -1    0    0  501  502  0.00000000000E+00  0.00000000000E+00  0.31038831422E+02  0.31038831422E+02  0.00000000000E+00 0. -1.
          2   -1    0    0  502    0 -0.00000000000E+00 -0.00000000000E+00 -0.63666354376E+03  0.63666354376E+03  0.00000000000E+00 0. -1.
         24    2    1    2    0    0  0.99913038555E+02  0.78202914839E+02 -0.37503082596E+03  0.40450691246E+03  0.82942212686E+02 0.  0.
        -11    1    3    3    0    0 -0.10347038774E+01 -0.12932734858E+02 -0.59776153939E+02  0.61167923152E+02  0.00000000000E+00 0.  1.
         12    1    3    3    0    0  0.10094774243E+03  0.91135649697E+02 -0.31525467202E+03  0.34333898931E+03  0.00000000000E+00 0. -1.
          1    1    1    2  501    0 -0.99913038555E+02 -0.78202914839E+02 -0.23059388638E+03  0.26319546272E+03  0.00000000000E+00 0. -1.
<mgrwt>
<rscale>  1 0.15158404E+03</rscale>
<asrwt>0</asrwt>
<pdfrwt beam="1">  1       21 0.47752048E-02 0.15158404E+03</pdfrwt>
<pdfrwt beam="2">  1        2 0.97948238E-01 0.15158404E+03</pdfrwt>
<totfact> 0.17119298E+05</totfact>
</mgrwt>
</event>
<event>
 6    2  0.7993170E+000  0.9224166E+02  0.7546771E-02  0.1297512E+00
         21   -1    0    0  501  502  0.00000000000E+00  0.00000000000E+00  0.41176249612E+01  0.41176249612E+01  0.00000000000E+00 0. -1.
          2   -1    0    0  502    0 -0.00000000000E+00 -0.00000000000E+00 -0.17628531839E+04  0.17628531839E+04  0.00000000000E+00 0. -1.
         24    2    1    2    0    0  0.26735168401E+02  0.39152881669E+02 -0.15573713088E+04  0.15601006114E+04  0.79125260051E+02 0.  0.
        -11    1    3    3    0    0 -0.25658978683E+02  0.26607192108E+01 -0.63384790559E+03  0.63437262711E+03  0.00000000000E+00 0.  1.
         12    1    3    3    0    0  0.52394147084E+02  0.36492162458E+02 -0.92352340319E+03  0.92572798424E+03  0.00000000000E+00 0. -1.
          1    1    1    2  501    0 -0.26735168401E+02 -0.39152881669E+02 -0.20136425013E+03  0.20687019747E+03  0.00000000000E+00 0. -1.
<mgrwt>
<rscale>  1 0.92241662E+02</rscale>
<asrwt>0</asrwt>
<pdfrwt beam="1">  1       21 0.63347970E-03 0.92241662E+02</pdfrwt>
<pdfrwt beam="2">  1        2 0.27120864E+00 0.92241662E+02</pdfrwt>
<totfact> 0.95814991E+05</totfact>
</mgrwt>
</event>
<event>
 6    2  0.7993170E+000  0.9284118E+02  0.7546771E-02  0.1296114E+00
         21   -1    0    0  501  502  0.00000000000E+00  0.00000000000E+00  0.14626180708E+03  0.14626180708E+03  0.00000000000E+00 0.  1.
         -1   -1    0    0    0  501 -0.00000000000E+00 -0.00000000000E+00 -0.59834561321E+02  0.59834561321E+02  0.00000000000E+00 0.  1.
         24    2    1    2    0    0  0.99403715268E+01  0.46971380992E+02 -0.14844182505E+02  0.94020395057E+02  0.79462968192E+02 0.  0.
        -11    1    3    3    0    0 -0.11495436064E+02  0.55560589727E+02 -0.32103964195E+02  0.65190403420E+02  0.00000000000E+00 0.  1.
         12    1    3    3    0    0  0.21435807591E+02 -0.85892087345E+01  0.17259781690E+02  0.28829991636E+02  0.00000000000E+00 0. -1.
         -2    1    1    2    0  502 -0.99403715268E+01 -0.46971380992E+02  0.10127142827E+03  0.11207597335E+03  0.00000000000E+00 0.  1.
<mgrwt>
<rscale>  1 0.92841181E+02</rscale>
<asrwt>0</asrwt>
<pdfrwt beam="1">  1       21 0.22501816E-01 0.92841181E+02</pdfrwt>
<pdfrwt beam="2">  1       -1 0.92053172E-02 0.92841181E+02</pdfrwt>
<totfact> 0.11018607E+05</totfact>
</mgrwt>
</event>
<event>
 6    2  0.7993170E+000  0.9230788E+02  0.7546771E-02  0.1297357E+00
          2   -1    0    0  502    0 -0.00000000000E+00  0.00000000000E+00  0.61747740072E+03  0.61747740072E+03  0.00000000000E+00 0. -1.
         21   -1    0    0  501  502  0.00000000000E+00 -0.00000000000E+00 -0.94115297473E+01  0.94115297473E+01  0.00000000000E+00 0.  1.
         24    2    1    2    0    0  0.17001176404E+02 -0.44461475824E+02  0.50492894398E+03  0.51329716782E+03  0.79087806852E+02 0.  0.
        -11    1    3    3    0    0  0.27602635493E+02 -0.59335523826E+02  0.27648664611E+03  0.28412580902E+03  0.00000000000E+00 0.  1.
         12    1    3    3    0    0 -0.10601459089E+02  0.14874048003E+02  0.22844229787E+03  0.22917135880E+03  0.00000000000E+00 0. -1.
          1    1    1    2  501    0 -0.17001176404E+02  0.44461475824E+02  0.10313692699E+03  0.11359176264E+03  0.00000000000E+00 0. -1.
<mgrwt>
<rscale>  1 0.92307876E+02</rscale>
<asrwt>0</asrwt>
<pdfrwt beam="1">  1       21 0.14479281E-02 0.92307876E+02</pdfrwt>
<pdfrwt beam="2">  1        2 0.94996492E-01 0.92307876E+02</pdfrwt>
<totfact> 0.12013209E+06</totfact>
</mgrwt>
</event>
<event>
 6    2  0.7993170E+000  0.1190643E+03  0.7546771E-02  0.1244649E+00
         -3   -1    0    0    0  501 -0.00000000000E+00  0.00000000000E+00  0.17354841812E+03  0.17354841812E+03  0.00000000000E+00 0.  1.
         21   -1    0    0  501  502  0.00000000000E+00 -0.00000000000E+00 -0.77752541621E+02  0.77752541621E+02  0.00000000000E+00 0.  1.
         24    2    1    2    0    0  0.46605796458E+02 -0.44185797196E+02  0.13184768114E+03  0.17765167220E+03  0.10025876858E+03 0.  0.
        -11    1    3    3    0    0  0.66283671941E+02 -0.61269534902E+02  0.84692983174E+02  0.12377553261E+03  0.00000000000E+00 0.  1.
         12    1    3    3    0    0 -0.19677875483E+02  0.17083737706E+02  0.47154697963E+02  0.53876139594E+02  0.00000000000E+00 0. -1.
         -4    1    1    2    0  502 -0.46605796458E+02  0.44185797196E+02 -0.36051804639E+02  0.73649287540E+02  0.00000000000E+00 0.  1.
<mgrwt>
<rscale>  1 0.11906429E+03</rscale>
<asrwt>0</asrwt>
<pdfrwt beam="1">  1       21 0.11961930E-01 0.11906429E+03</pdfrwt>
<pdfrwt beam="2">  1       -3 0.26699756E-01 0.11906429E+03</pdfrwt>
<totfact> 0.37262533E+04</totfact>
</mgrwt>
</event>
<event>
 6    2  0.7993170E+000  0.9186191E+02  0.7546771E-02  0.1298404E+00
          4   -1    0    0  502    0 -0.00000000000E+00  0.00000000000E+00  0.15575139418E+02  0.15575139418E+02  0.00000000000E+00 0. -1.
         21   -1    0    0  501  502  0.00000000000E+00 -0.00000000000E+00 -0.32147482907E+03  0.32147482907E+03  0.00000000000E+00 0. -1.
         24    2    1    2    0    0 -0.46310518996E+02 -0.63749256988E+01 -0.16847173223E+03  0.19188886031E+03  0.79077849630E+02 0.  0.
        -11    1    3    3    0    0  0.51032975259E+01 -0.11830903633E+02 -0.12104472939E+03  0.12172855227E+03  0.00000000000E+00 0.  1.
         12    1    3    3    0    0 -0.51413816522E+02  0.54559779337E+01 -0.47427002841E+02  0.70160308032E+02  0.00000000000E+00 0. -1.
          3    1    1    2  501    0  0.46310518996E+02  0.63749256988E+01 -0.13742795743E+03  0.14516110819E+03  0.00000000000E+00 0. -1.
<mgrwt>
<rscale>  1 0.91861908E+02</rscale>
<asrwt>0</asrwt>
<pdfrwt beam="1">  1       21 0.49457662E-01 0.91861908E+02</pdfrwt>
<pdfrwt beam="2">  1        4 0.23961755E-02 0.91861908E+02</pdfrwt>
<totfact> 0.11498414E+05</totfact>
</mgrwt>
</event>
<event>
 6    2  0.7993170E+000  0.8067462E+02  0.7546771E-02  0.1327148E+00
         21   -1    0    0  501  502  0.00000000000E+00  0.00000000000E+00  0.51076907095E+02  0.51076907095E+02  0.00000000000E+00 0.  1.
          2   -1    0    0  502    0 -0.00000000000E+00 -0.00000000000E+00 -0.65459712035E+02  0.65459712035E+02  0.00000000000E+00 0. -1.
         24    2    1    2    0    0  0.18673328354E+02  0.93140765104E+01 -0.34324313727E+02  0.87672991745E+02  0.77929132907E+02 0.  0.
        -13    1    3    3    0    0 -0.57780719023E+01  0.11338174055E+02  0.22460173564E+02  0.25814718715E+02  0.00000000000E+00 0.  1.
         14    1    3    3    0    0  0.24451400256E+02 -0.20240975447E+01 -0.56784487291E+02  0.61858273030E+02  0.00000000000E+00 0. -1.
          1    1    1    2  501    0 -0.18673328354E+02 -0.93140765104E+01  0.19941508787E+02  0.28863627384E+02  0.00000000000E+00 0. -1.
<mgrwt>
<rscale>  1 0.80674624E+02</rscale>
<asrwt>0</asrwt>
<pdfrwt beam="1">  1       21 0.78579858E-02 0.80674624E+02</pdfrwt>
<pdfrwt beam="2">  1        2 0.10070725E-01 0.80674624E+02</pdfrwt>
<totfact> 0.87455249E+05</totfact>
</mgrwt>
</event>
<event>
 6    2  0.7993170E+000  0.8175026E+02  0.7546771E-02  0.1324157E+00
         21   -1    0    0  501  502  0.00000000000E+00  0.00000000000E+00  0.31130407720E+02  0.31130407720E+02  0.00000000000E+00 0. -1.
          2   -1    0    0  502    0 -0.00000000000E+00 -0.00000000000E+00 -0.93042301380E+02  0.93042301380E+02  0.00000000000E+00 0. -1.
         24    2    1    2    0    0  0.20933288042E+02  0.91274731025E+01 -0.59701504911E+02  0.10122931938E+03  0.78495809442E+02 0.  0.
        -11    1    3    3    0    0 -0.19710210080E+02  0.27237119571E+02 -0.11265930117E+02  0.35458063192E+02  0.00000000000E+00 0.  1.
         12    1    3    3    0    0  0.40643498122E+02 -0.18109646468E+02 -0.48435574794E+02  0.65771256187E+02  0.00000000000E+00 0. -1.
          1    1    1    2  501    0 -0.20933288042E+02 -0.91274731025E+01 -0.22103887491E+01  0.22943389721E+02  0.00000000000E+00 0. -1.
<mgrwt>
<rscale>  1 0.81750262E+02</rscale>
<asrwt>0</asrwt>
<pdfrwt beam="1">  1       21 0.47892936E-02 0.81750262E+02</pdfrwt>
<pdfrwt beam="2">  1        2 0.14314200E-01 0.81750262E+02</pdfrwt>
<totfact> 0.13262228E+06</totfact>
</mgrwt>
</event>
<event>
 6    2  0.7993170E+000  0.8558850E+02  0.7546771E-02  0.1313901E+00
          2   -1    0    0  502    0 -0.00000000000E+00  0.00000000000E+00  0.66475020482E+02  0.66475020482E+02  0.00000000000E+00 0. -1.
         21   -1    0    0  501  502  0.00000000000E+00 -0.00000000000E+00 -0.95087636105E+02  0.95087636105E+02  0.00000000000E+00 0.  1.
         24    2    1    2    0    0  0.34618571862E+01 -0.32356739587E+02  0.33124058668E+02  0.91774691976E+02  0.79160898004E+02 0.  0.
        -13    1    3    3    0    0  0.20166012541E+02 -0.23463825555E+02 -0.19009873551E+02  0.36312456043E+02  0.00000000000E+00 0.  1.
         14    1    3    3    0    0 -0.16704155355E+02 -0.88929140324E+01  0.52133932219E+02  0.55462235933E+02  0.00000000000E+00 0. -1.
          1    1    1    2  501    0 -0.34618571862E+01  0.32356739587E+02 -0.61736674291E+02  0.69787964610E+02  0.00000000000E+00 0. -1.
<mgrwt>
<rscale>  1 0.85588497E+02</rscale>
<asrwt>0</asrwt>
<pdfrwt beam="1">  1       21 0.14628867E-01 0.85588497E+02</pdfrwt>
<pdfrwt beam="2">  1        2 0.10226926E-01 0.85588497E+02</pdfrwt>
<totfact> 0.29323288E+05</totfact>
</mgrwt>
</event>
<event>
 6    2  0.7993170E+000  0.9019697E+02  0.7546771E-02  0.1302375E+00
         21   -1    0    0  501  502  0.00000000000E+00  0.00000000000E+00  0.16561735437E+02  0.16561735437E+02  0.00000000000E+00 0.  1.
         -3   -1    0    0    0  501 -0.00000000000E+00 -0.00000000000E+00 -0.43933567988E+03  0.43933567988E+03  0.00000000000E+00 0.  1.
         24    2    1    2    0    0  0.30417281645E+02 -0.25837548857E+02 -0.39979862550E+03  0.40984684275E+03  0.80886980447E+02 0.  0.
        -13    1    3    3    0    0  0.35168958149E+02 -0.81815970671E+00 -0.36517811803E+03  0.36686861802E+03  0.00000000000E+00 0.  1.
         14    1    3    3    0    0 -0.47516765041E+01 -0.25019389151E+02 -0.34620507471E+02  0.42978224726E+02  0.00000000000E+00 0. -1.
         -4    1    1    2    0  502 -0.30417281645E+02  0.25837548857E+02 -0.22975318949E+02  0.46050572574E+02  0.00000000000E+00 0.  1.
<mgrwt>
<rscale>  1 0.90196971E+02</rscale>
<asrwt>0</asrwt>
<pdfrwt beam="1">  1       21 0.25479592E-02 0.90196971E+02</pdfrwt>
<pdfrwt beam="2">  1       -3 0.67590108E-01 0.90196971E+02</pdfrwt>
<totfact> 0.80483764E+04</totfact>
</mgrwt>
</event>
<event>
 6    2  0.7993170E+000  0.8450333E+02  0.7546771E-02  0.1316737E+00
         -1   -1    0    0    0  501 -0.00000000000E+00  0.00000000000E+00  0.41229362372E+03  0.41229362372E+03  0.00000000000E+00 0.  1.
         21   -1    0    0  501  502  0.00000000000E+00 -0.00000000000E+00 -0.71089628258E+01  0.71089628258E+01  0.00000000000E+00 0. -1.
         24    2    1    2    0    0 -0.46433898708E+01  0.23254054296E+02  0.32207569738E+03  0.33297682692E+03  0.81107954674E+02 0.  0.
        -11    1    3    3    0    0 -0.13451062257E+02  0.45293394044E+02  0.28544633364E+03  0.28933031644E+03  0.00000000000E+00 0.  1.
         12    1    3    3    0    0  0.88076723861E+01 -0.22039339748E+02  0.36629363739E+02  0.43646510483E+02  0.00000000000E+00 0. -1.
         -2    1    1    2    0  502  0.46433898708E+01 -0.23254054296E+02  0.83108963507E+02  0.86425759620E+02  0.00000000000E+00 0.  1.
<mgrwt>
<rscale>  1 0.84503328E+02</rscale>
<asrwt>0</asrwt>
<pdfrwt beam="1">  1       21 0.10936869E-02 0.84503328E+02</pdfrwt>
<pdfrwt beam="2">  1       -1 0.63429770E-01 0.84503328E+02</pdfrwt>
<totfact> 0.72812606E+05</totfact>
</mgrwt>
</event>
<event>
 6    2  0.7993170E+000  0.1139590E+03  0.7546771E-02  0.1253409E+00
          2   -1    0    0  502    0 -0.00000000000E+00  0.00000000000E+00  0.91301285539E+03  0.91301285539E+03  0.00000000000E+00 0. -1.
         21   -1    0    0  501  502  0.00000000000E+00 -0.00000000000E+00 -0.11411326830E+02  0.11411326830E+02  0.00000000000E+00 0.  1.
         24    2    1    2    0    0 -0.81784801162E+02 -0.14257615973E+01  0.38941170461E+03  0.40574393173E+03  0.79346555981E+02 0.  0.
        -13    1    3    3    0    0 -0.39085750218E+02 -0.26333081383E+02  0.83655612285E+02  0.96017646878E+02  0.00000000000E+00 0.  1.
         14    1    3    3    0    0 -0.42699050945E+02  0.24907319785E+02  0.30575609233E+03  0.30972628485E+03  0.00000000000E+00 0. -1.
          1    1    1    2  501    0  0.81784801162E+02  0.14257615973E+01  0.51218982395E+03  0.51868025050E+03  0.00000000000E+00 0. -1.
<mgrwt>
<rscale>  1 0.11395904E+03</rscale>
<asrwt>0</asrwt>
<pdfrwt beam="1">  1       21 0.17555895E-02 0.11395904E+03</pdfrwt>
<pdfrwt beam="2">  1        2 0.14046346E+00 0.11395904E+03</pdfrwt>
<totfact> 0.56064271E+05</totfact>
</mgrwt>
</event>
<event>
 6    2  0.7993170E+000  0.9956192E+02  0.7546771E-02  0.1281220E+00
         21   -1    0    0  501  502  0.00000000000E+00  0.00000000000E+00  0.19632953515E+03  0.19632953515E+03  0.00000000000E+00 0. -1.
         -1   -1    0    0    0  501 -0.00000000000E+00 -0.00000000000E+00 -0.31939190982E+02  0.31939190982E+02  0.00000000000E+00 0.  1.
         24    2    1    2    0    0 -0.21735925403E+02 -0.54220465740E+02  0.11129969195E+03  0.14933250688E+03  0.80624232229E+02 0.  0.
        -11    1    3    3    0    0 -0.97174686401E+01  0.14189174557E+02  0.61520532773E+02  0.63879087533E+02  0.00000000000E+00 0.  1.
         12    1    3    3    0    0 -0.12018456763E+02 -0.68409640297E+02  0.49779159181E+02  0.85453419342E+02  0.00000000000E+00 0. -1.
         -2    1    1    2    0  502  0.21735925403E+02  0.54220465740E+02  0.53090652216E+02  0.78936219259E+02  0.00000000000E+00 0.  1.
<mgrwt>
<rscale>  1 0.99561921E+02</rscale>
<asrwt>0</asrwt>
<pdfrwt beam="1">  1       21 0.30204543E-01 0.99561921E+02</pdfrwt>
<pdfrwt beam="2">  1       -1 0.49137218E-02 0.99561921E+02</pdfrwt>
<totfact> 0.16136200E+05</totfact>
</mgrwt>
</event>
<event>
 6    2  0.7993170E+000  0.8520664E+02  0.7546771E-02  0.1314893E+00
          2   -1    0    0  502    0 -0.00000000000E+00  0.00000000000E+00  0.27533238828E+04  0.27533238828E+04  0.00000000000E+00 0. -1.
         21   -1    0    0  501  502  0.00000000000E+00 -0.00000000000E+00 -0.24818038132E+01  0.24818038132E+01  0.00000000000E+00 0. -1.
         24    2    1    2    0    0  0.38613448635E+01 -0.23288529863E+02  0.26754002589E+04  0.26767567535E+04  0.81871280090E+02 0.  0.
        -11    1    3    3    0    0  0.39653289641E+01  0.27906464450E+02  0.53289634415E+03  0.53364127295E+03  0.00000000000E+00 0.  1.
         12    1    3    3    0    0 -0.10398410051E+00 -0.51194994314E+02  0.21425039148E+04  0.21431154806E+04  0.00000000000E+00 0. -1.
          1    1    1    2  501    0 -0.38613448635E+01  0.23288529863E+02  0.75441820056E+02  0.79048933078E+02  0.00000000000E+00 0. -1.
<mgrwt>
<rscale>  1 0.85206644E+02</rscale>
<asrwt>0</asrwt>
<pdfrwt beam="1">  1       21 0.38181817E-03 0.85206644E+02</pdfrwt>
<pdfrwt beam="2">  1        2 0.42358585E+00 0.85206644E+02</pdfrwt>
<totfact> 0.64150467E+05</totfact>
</mgrwt>
</event>
<event>
 6    2  0.7993170E+000  0.8406494E+02  0.7546771E-02  0.1317896E+00
          2   -1    0    0  502    0 -0.00000000000E+00  0.00000000000E+00  0.47302814460E+02  0.47302814460E+02  0.00000000000E+00 0. -1.
         21   -1    0    0  501  502  0.00000000000E+00 -0.00000000000E+00 -0.76309098963E+02  0.76309098963E+02  0.00000000000E+00 0.  1.
         24    2    1    2    0    0  0.32243898640E+01 -0.24034699683E+02 -0.44218729129E+02  0.94985318264E+02  0.80491311339E+02 0.  0.
        -13    1    3    3    0    0 -0.70220464589E+01  0.94058016028E+01 -0.56660206718E+02  0.57863263524E+02  0.00000000000E+00 0.  1.
         14    1    3    3    0    0  0.10246436323E+02 -0.33440501286E+02  0.12441477589E+02  0.37122054741E+02  0.00000000000E+00 0. -1.
          1    1    1    2  501    0 -0.32243898640E+01  0.24034699683E+02  0.15212444626E+02  0.28626595159E+02  0.00000000000E+00 0. -1.
<mgrwt>
<rscale>  1 0.84064943E+02</rscale>
<asrwt>0</asrwt>
<pdfrwt beam="1">  1       21 0.11739861E-01 0.84064943E+02</pdfrwt>
<pdfrwt beam="2">  1        2 0.72773561E-02 0.84064943E+02</pdfrwt>
<totfact> 0.65522226E+05</totfact>
</mgrwt>
</event>
<event>
 6    2  0.7993170E+000  0.8366873E+02  0.7546771E-02  0.1318951E+00
         21   -1    0    0  501  502  0.00000000000E+00  0.00000000000E+00  0.96288870281E+02  0.96288870281E+02  0.00000000000E+00 0. -1.
          2   -1    0    0  502    0 -0.00000000000E+00 -0.00000000000E+00 -0.46065361366E+02  0.46065361366E+02  0.00000000000E+00 0. -1.
         24    2    1    2    0    0 -0.23612435322E+02 -0.20100245483E+01 -0.33894662372E+01  0.83737353488E+02  0.80242560946E+02 0.  0.
        -11    1    3    3    0    0  0.20146952416E+02  0.85182458485E+01  0.22855721188E+02  0.31636121681E+02  0.00000000000E+00 0.  1.
         12    1    3    3    0    0 -0.43759387739E+02 -0.10528270397E+02 -0.26245187425E+02  0.52101231807E+02  0.00000000000E+00 0. -1.
          1    1    1    2  501    0  0.23612435322E+02  0.20100245483E+01  0.53612975152E+02  0.58616878160E+02  0.00000000000E+00 0. -1.
<mgrwt>
<rscale>  1 0.83668727E+02</rscale>
<asrwt>0</asrwt>
<pdfrwt beam="1">  1       21 0.14813672E-01 0.83668727E+02</pdfrwt>
<pdfrwt beam="2">  1        2 0.70869787E-02 0.83668727E+02</pdfrwt>
<totfact> 0.44918890E+05</totfact>
</mgrwt>
</event>
<event>
 6    2  0.7993170E+000  0.8498032E+02  0.7546771E-02  0.1315484E+00
         21   -1    0    0  501  502  0.00000000000E+00  0.00000000000E+00  0.24796725565E+01  0.24796725565E+01  0.00000000000E+00 0.  1.
          4   -1    0    0  502    0 -0.00000000000E+00 -0.00000000000E+00 -0.16249660351E+04  0.16249660351E+04  0.00000000000E+00 0. -1.
         24    2    1    2    0    0 -0.26876995997E+02  0.20101067198E+01 -0.79665703961E+03  0.80117669331E+03  0.80593062414E+02 0.  0.
        -13    1    3    3    0    0 -0.37133067317E+02  0.34619060799E+02 -0.48629695530E+03  0.48893974352E+03  0.00000000000E+00 0.  1.
         14    1    3    3    0    0  0.10256071320E+02 -0.32608954079E+02 -0.31036008430E+03  0.31223694979E+03  0.00000000000E+00 0. -1.
          3    1    1    2  501    0  0.26876995997E+02 -0.20101067198E+01 -0.82582932291E+03  0.82626901431E+03  0.00000000000E+00 0. -1.
<mgrwt>
<rscale>  1 0.84980322E+02</rscale>
<asrwt>0</asrwt>
<pdfrwt beam="1">  1       21 0.38148708E-03 0.84980322E+02</pdfrwt>
<pdfrwt beam="2">  1        4 0.24999544E+00 0.84980322E+02</pdfrwt>
<totfact> 0.47668197E+04</totfact>
</mgrwt>
</event>
<event>
 6    2  0.7993170E+000  0.9364069E+02  0.7546771E-02  0.1294267E+00
         21   -1    0    0  501  502  0.00000000000E+00  0.00000000000E+00  0.16745514041E+02  0.16745514041E+02  0.00000000000E+00 0. -1.
         -3   -1    0    0    0  501 -0.00000000000E+00 -0.00000000000E+00 -0.29919182588E+03  0.29919182588E+03  0.00000000000E+00 0.  1.
         24    2    1    2    0    0  0.96587125991E+01 -0.45957363078E+02 -0.17011366279E+03  0.19418351455E+03  0.81013635303E+02 0.  0.
        -11    1    3    3    0    0 -0.34811264287E+01  0.22980314847E+02 -0.48271364461E+02  0.53575533022E+02  0.00000000000E+00 0.  1.
         12    1    3    3    0    0  0.13139839028E+02 -0.68937677925E+02 -0.12184229833E+03  0.14060798153E+03  0.00000000000E+00 0. -1.
         -4    1    1    2    0  502 -0.96587125991E+01  0.45957363078E+02 -0.11233264905E+03  0.12175382537E+03  0.00000000000E+00 0.  1.
<mgrwt>
<rscale>  1 0.93640691E+02</rscale>
<asrwt>0</asrwt>
<pdfrwt beam="1">  1       21 0.25762332E-02 0.93640691E+02</pdfrwt>
<pdfrwt beam="2">  1       -3 0.46029508E-01 0.93640691E+02</pdfrwt>
<totfact> 0.17245137E+05</totfact>
</mgrwt>
</event>
<event>
 6    2  0.7993170E+000  0.8666106E+02  0.7546771E-02  0.1311145E+00
         21   -1    0    0  501  502  0.00000000000E+00  0.00000000000E+00  0.21714131015E+01  0.21714131015E+01  0.00000000000E+00 0.  1.
          2   -1    0    0  502    0 -0.00000000000E+00 -0.00000000000E+00 -0.14581850548E+04  0.14581850548E+04  0.00000000000E+00 0. -1.
         24    2    1    2    0    0 -0.13389320358E+02 -0.21355497437E+02 -0.11899871307E+04  0.11931385124E+04  0.82914458633E+02 0.  0.
        -11    1    3    3    0    0 -0.60117377131E+01 -0.22665700933E+02 -0.86390440608E+02  0.89516385190E+02  0.00000000000E+00 0.  1.
         12    1    3    3    0    0 -0.73775826448E+01  0.13102034963E+01 -0.11035966901E+04  0.11036221273E+04  0.00000000000E+00 0. -1.
          1    1    1    2  501    0  0.13389320358E+02  0.21355497437E+02 -0.26602651101E+03  0.26721795548E+03  0.00000000000E+00 0. -1.
<mgrwt>
<rscale>  1 0.86661056E+02</rscale>
<asrwt>0</asrwt>
<pdfrwt beam="1">  1       21 0.33406290E-03 0.86661056E+02</pdfrwt>
<pdfrwt beam="2">  1        2 0.22433660E+00 0.86661056E+02</pdfrwt>
<totfact> 0.36173393E+06</totfact>
</mgrwt>
</event>
<event>
 6    2  0.7993170E+000  0.8377612E+02  0.7546771E-02  0.1318664E+00
         21   -1    0    0  501  502  0.00000000000E+00  0.00000000000E+00  0.57799405252E+01  0.57799405252E+01  0.00000000000E+00 0. -1.
         -1   -1    0    0    0  501 -0.00000000000E+00 -0.00000000000E+00 -0.66859977228E+03  0.66859977228E+03  0.00000000000E+00 0.  1.
         24    2    1    2    0    0 -0.22461139431E+02  0.44892190208E+01 -0.62162744430E+03  0.62724725418E+03  0.80584008930E+02 0.  0.
        -11    1    3    3    0    0  0.12937951231E+02 -0.26671139526E+02 -0.37373225795E+03  0.37490604276E+03  0.00000000000E+00 0.  1.
         12    1    3    3    0    0 -0.35399090661E+02  0.31160358547E+02 -0.24789518636E+03  0.25234121142E+03  0.00000000000E+00 0. -1.
         -2    1    1    2    0  502  0.22461139431E+02 -0.44892190208E+01 -0.41192387450E+02  0.47132458622E+02  0.00000000000E+00 0.  1.
<mgrwt>
<rscale>  1 0.83776121E+02</rscale>
<asrwt>0</asrwt>
<pdfrwt beam="1">  1       21 0.88922102E-03 0.83776121E+02</pdfrwt>
<pdfrwt beam="2">  1       -1 0.10286157E+00 0.83776121E+02</pdfrwt>
<totfact> 0.37574343E+05</totfact>
</mgrwt>
</event>
<event>
 6    2  0.7993170E+000  0.8680291E+02  0.7546771E-02  0.1310784E+00
         21   -1    0    0  501  502  0.00000000000E+00  0.00000000000E+00  0.33700845425E+01  0.33700845425E+01  0.00000000000E+00 0.  1.
          2   -1    0    0  502    0 -0.00000000000E+00 -0.00000000000E+00 -0.13003291044E+04  0.13003291044E+04  0.00000000000E+00 0. -1.
         24    2    1    2    0    0 -0.11893105104E+02  0.30284515456E+02 -0.11455399119E+04  0.11488239356E+04  0.80474514973E+02 0.  0.
        -11    1    3    3    0    0 -0.20249252147E+02 -0.10449958041E+02 -0.10457434605E+03  0.10702816305E+03  0.00000000000E+00 0.  1.
         12    1    3    3    0    0  0.83561470429E+01  0.40734473497E+02 -0.10409655658E+04  0.10417957726E+04  0.00000000000E+00 0. -1.
          1    1    1    2  501    0  0.11893105104E+02 -0.30284515456E+02 -0.15141910799E+03  0.15487525332E+03  0.00000000000E+00 0. -1.
<mgrwt>
<rscale>  1 0.86802911E+02</rscale>
<asrwt>0</asrwt>
<pdfrwt beam="1">  1       21 0.51847406E-03 0.86802911E+02</pdfrwt>
<pdfrwt beam="2">  1        2 0.20005082E+00 0.86802911E+02</pdfrwt>
<totfact> 0.22365866E+06</totfact>
</mgrwt>
</event>
<event>
 6    2  0.7993170E+000  0.8585975E+02  0.7546771E-02  0.1313199E+00
          2   -1    0    0  502    0 -0.00000000000E+00  0.00000000000E+00  0.65107534570E+03  0.65107534570E+03  0.00000000000E+00 0. -1.
         21   -1    0    0  501  502  0.00000000000E+00 -0.00000000000E+00 -0.51759194814E+01  0.51759194814E+01  0.00000000000E+00 0. -1.
         24    2    1    2    0    0  0.26595230562E+02 -0.13917412996E+02  0.49590204911E+03  0.50327998091E+03  0.80441880864E+02 0.  0.
        -13    1    3    3    0    0 -0.41083735646E+01 -0.23424830570E+02  0.42194055792E+02  0.48434902341E+02  0.00000000000E+00 0.  1.
         14    1    3    3    0    0  0.30703604126E+02  0.95074175737E+01  0.45370799332E+03  0.45484507857E+03  0.00000000000E+00 0. -1.
          1    1    1    2  501    0 -0.26595230562E+02  0.13917412996E+02  0.14999737711E+03  0.15297128427E+03  0.00000000000E+00 0. -1.
<mgrwt>
<rscale>  1 0.85859751E+02</rscale>
<asrwt>0</asrwt>
<pdfrwt beam="1">  1       21 0.79629582E-03 0.85859751E+02</pdfrwt>
<pdfrwt beam="2">  1        2 0.10016537E+00 0.85859751E+02</pdfrwt>
<totfact> 0.28631245E+06</totfact>
</mgrwt>
</event>
<event>
 6    2  0.7993170E+000  0.8568636E+02  0.7546771E-02  0.1313647E+00
         21   -1    0    0  501  502  0.00000000000E+00  0.00000000000E+00  0.10367593379E+02  0.10367593379E+02  0.00000000000E+00 0.  1.
          2   -1    0    0  502    0 -0.00000000000E+00 -0.00000000000E+00 -0.45562784105E+03  0.45562784105E+03  0.00000000000E+00 0. -1.
         24    2    1    2    0    0  0.22008999803E+02 -0.81570282308E+00 -0.43172167850E+03  0.44014288526E+03  0.82807549856E+02 0.  0.
        -11    1    3    3    0    0  0.41197483672E+02  0.49908585222E+01 -0.10643497554E+03  0.11423898348E+03  0.00000000000E+00 0.  1.
         12    1    3    3    0    0 -0.19188483868E+02 -0.58065613452E+01 -0.32528670297E+03  0.32590390178E+03  0.00000000000E+00 0. -1.
          1    1    1    2  501    0 -0.22008999803E+02  0.81570282308E+00 -0.13538569173E+02  0.25852549172E+02  0.00000000000E+00 0. -1.
<mgrwt>
<rscale>  1 0.85686357E+02</rscale>
<asrwt>0</asrwt>
<pdfrwt beam="1">  1       21 0.15950146E-02 0.85686357E+02</pdfrwt>
<pdfrwt beam="2">  1        2 0.70096581E-01 0.85686357E+02</pdfrwt>
<totfact> 0.14254781E+06</totfact>
</mgrwt>
</event>
<event>
 6    2  0.7993170E+000  0.9407702E+02  0.7546771E-02  0.1293269E+00
          2   -1    0    0  502    0 -0.00000000000E+00  0.00000000000E+00  0.41542034114E+03  0.41542034114E+03  0.00000000000E+00 0. -1.
         21   -1    0    0  501  502  0.00000000000E+00 -0.00000000000E+00 -0.13512086667E+02  0.13512086667E+02  0.00000000000E+00 0. -1.
         24    2    1    2    0    0 -0.49675701809E+02 -0.25142731289E+02  0.24526413415E+03  0.26268799115E+03  0.75833059471E+02 0.  0.
        -13    1    3    3    0    0  0.47540839529E+01 -0.16018240196E+02  0.70004904836E+01  0.18116075740E+02  0.00000000000E+00 0.  1.
         14    1    3    3    0    0 -0.54429785762E+02 -0.91244910931E+01  0.23826364367E+03  0.24457191541E+03  0.00000000000E+00 0. -1.
          1    1    1    2  501    0  0.49675701809E+02  0.25142731289E+02  0.15664412032E+03  0.16624443666E+03  0.00000000000E+00 0. -1.
<mgrwt>
<rscale>  1 0.94077017E+02</rscale>
<asrwt>0</asrwt>
<pdfrwt beam="1">  1       21 0.20787829E-02 0.94077017E+02</pdfrwt>
<pdfrwt beam="2">  1        2 0.63910812E-01 0.94077017E+02</pdfrwt>
<totfact> 0.10406923E+06</totfact>
</mgrwt>
</event>
<event>
 6    2  0.7993170E+000  0.9571054E+02  0.7546771E-02  0.1289584E+00
          2   -1    0    0  502    0 -0.00000000000E+00  0.00000000000E+00  0.34583823778E+01  0.34583823778E+01  0.00000000000E+00 0. -1.
         21   -1    0    0  501  502  0.00000000000E+00 -0.00000000000E+00 -0.17778102891E+04  0.17778102891E+04  0.00000000000E+00 0. -1.
         24    2    1    2    0    0 -0.40755054649E+02 -0.31663369439E+02 -0.82854834366E+03  0.83405807011E+03  0.80603741161E+02 0.  0.
        -13    1    3    3    0    0 -0.72386306000E+01  0.27101086216E+02 -0.24801494820E+03  0.24959623631E+03  0.00000000000E+00 0.  1.
         14    1    3    3    0    0 -0.33516424049E+02 -0.58764455655E+02 -0.58053339546E+03  0.58446183381E+03  0.00000000000E+00 0. -1.
          1    1    1    2  501    0  0.40755054649E+02  0.31663369439E+02 -0.94580356307E+03  0.94721060138E+03  0.00000000000E+00 0. -1.
<mgrwt>
<rscale>  1 0.95710535E+02</rscale>
<asrwt>0</asrwt>
<pdfrwt beam="1">  1       21 0.27351031E+00 0.95710535E+02</pdfrwt>
<pdfrwt beam="2">  1        2 0.53205682E-03 0.95710535E+02</pdfrwt>
<totfact> 0.20933415E+04</totfact>
</mgrwt>
</event>
<event>
 6    2  0.7993170E+000  0.8211462E+02  0.7546771E-02  0.1323155E+00
         21   -1    0    0  501  502  0.00000000000E+00  0.00000000000E+00  0.76094439755E+01  0.76094439755E+01  0.00000000000E+00 0. -1.
          2   -1    0    0  502    0 -0.00000000000E+00 -0.00000000000E+00 -0.11504741941E+04  0.11504741941E+04  0.00000000000E+00 0. -1.
         24    2    1    2    0    0 -0.68119427110E+01 -0.20940940806E+02 -0.11291695253E+04  0.11321513272E+04  0.79106796065E+02 0.  0.
        -11    1    3    3    0    0 -0.23022207039E+02 -0.23624113137E+02 -0.19028381580E+03  0.19312185607E+03  0.00000000000E+00 0.  1.
         12    1    3    3    0    0  0.16210264328E+02  0.26831723305E+01 -0.93888570954E+03  0.93902947114E+03  0.00000000000E+00 0. -1.
          1    1    1    2  501    0  0.68119427110E+01  0.20940940806E+02 -0.13695224803E+02  0.25932310884E+02  0.00000000000E+00 0. -1.
<mgrwt>
<rscale>  1 0.82114620E+02</rscale>
<asrwt>0</asrwt>
<pdfrwt beam="1">  1       21 0.11706836E-02 0.82114620E+02</pdfrwt>
<pdfrwt beam="2">  1        2 0.17699604E+00 0.82114620E+02</pdfrwt>
<totfact> 0.75901644E+05</totfact>
</mgrwt>
</event>
<event>
 6    2  0.7993170E+000  0.1131952E+03  0.7546771E-02  0.1254765E+00
         -1   -1    0    0    0  501 -0.00000000000E+00  0.00000000000E+00  0.28431496918E+03  0.28431496918E+03  0.00000000000E+00 0.  1.
         21   -1    0    0  501  502  0.00000000000E+00 -0.00000000000E+00 -0.33136087877E+02  0.33136087877E+02  0.00000000000E+00 0.  1.
         24    2    1    2    0    0  0.34712381453E+02 -0.71632691483E+02  0.12891230372E+03  0.17155620482E+03  0.80479546763E+02 0.  0.
        -13    1    3    3    0    0  0.57597348260E+02 -0.54139763998E+02  0.11505074444E+03  0.13958954964E+03  0.00000000000E+00 0.  1.
         14    1    3    3    0    0 -0.22884966807E+02 -0.17492927484E+02  0.13861559276E+02  0.31966655178E+02  0.00000000000E+00 0. -1.
         -2    1    1    2    0  502 -0.34712381453E+02  0.71632691483E+02  0.12226657758E+03  0.14589485224E+03  0.00000000000E+00 0.  1.
<mgrwt>
<rscale>  1 0.11319518E+03</rscale>
<asrwt>0</asrwt>
<pdfrwt beam="1">  1       21 0.50978599E-02 0.11319518E+03</pdfrwt>
<pdfrwt beam="2">  1       -1 0.43740763E-01 0.11319518E+03</pdfrwt>
<totfact> 0.12279866E+05</totfact>
</mgrwt>
</event>
<event>
 6    2  0.7993170E+000  0.9492038E+02  0.7546771E-02  0.1291356E+00
          2   -1    0    0  502    0 -0.00000000000E+00  0.00000000000E+00  0.13609514584E+03  0.13609514584E+03  0.00000000000E+00 0. -1.
         21   -1    0    0  501  502  0.00000000000E+00 -0.00000000000E+00 -0.38827105645E+02  0.38827105645E+02  0.00000000000E+00 0.  1.
         24    2    1    2    0    0 -0.16504491187E+02  0.47679825635E+02  0.64423142073E+02  0.11471800467E+03  0.80399722377E+02 0.  0.
        -11    1    3    3    0    0 -0.34625203413E+02  0.58085758551E+02  0.28974508114E+02  0.73568894095E+02  0.00000000000E+00 0.  1.
         12    1    3    3    0    0  0.18120712225E+02 -0.10405932916E+02  0.35448633959E+02  0.41149110573E+02  0.00000000000E+00 0. -1.
          1    1    1    2  501    0  0.16504491187E+02 -0.47679825635E+02  0.32844898119E+02  0.60204246814E+02  0.00000000000E+00 0. -1.
<mgrwt>
<rscale>  1 0.94920384E+02</rscale>
<asrwt>0</asrwt>
<pdfrwt beam="1">  1       21 0.59734009E-02 0.94920384E+02</pdfrwt>
<pdfrwt beam="2">  1        2 0.20937714E-01 0.94920384E+02</pdfrwt>
<totfact> 0.60537872E+05</totfact>
</mgrwt>
</event>
<event>
 6    2  0.7993170E+000  0.8803469E+02  0.7546771E-02  0.1307682E+00
         21   -1    0    0  501  502  0.00000000000E+00  0.00000000000E+00  0.33441129394E+01  0.33441129394E+01  0.00000000000E+00 0.  1.
          2   -1    0    0  502    0 -0.00000000000E+00 -0.00000000000E+00 -0.12844966006E+04  0.12844966006E+04  0.00000000000E+00 0. -1.
         24    2    1    2    0    0 -0.22503474565E+02  0.25600438642E+02 -0.10994504134E+04  0.11029693187E+04  0.81168452755E+02 0.  0.
        -11    1    3    3    0    0 -0.48425028236E+02  0.83883858879E+01 -0.43060474318E+03  0.43340026907E+03  0.00000000000E+00 0.  1.
         12    1    3    3    0    0  0.25921553670E+02  0.17212052754E+02 -0.66884567020E+03  0.66956904965E+03  0.00000000000E+00 0. -1.
          1    1    1    2  501    0  0.22503474565E+02 -0.25600438642E+02 -0.18170207433E+03  0.18487139487E+03  0.00000000000E+00 0. -1.
<mgrwt>
<rscale>  1 0.88034689E+02</rscale>
<asrwt>0</asrwt>
<pdfrwt beam="1">  1       21 0.51447848E-03 0.88034689E+02</pdfrwt>
<pdfrwt beam="2">  1        2 0.19761503E+00 0.88034689E+02</pdfrwt>
<totfact> 0.23102586E+06</totfact>
</mgrwt>
</event>
<event>
 6    2  0.7993170E+000  0.8283133E+02  0.7546771E-02  0.1321203E+00
          2   -1    0    0  502    0 -0.00000000000E+00  0.00000000000E+00  0.19299500839E+04  0.19299500839E+04  0.00000000000E+00 0. -1.
         21   -1    0    0  501  502  0.00000000000E+00 -0.00000000000E+00 -0.34607838711E+01  0.34607838711E+01  0.00000000000E+00 0. -1.
         24    2    1    2    0    0  0.15741530464E+02 -0.12438437995E+02  0.18896350847E+04  0.18914496511E+04  0.80364908985E+02 0.  0.
        -11    1    3    3    0    0 -0.27486374488E+02 -0.18958730381E+02  0.11779289494E+04  0.11784021147E+04  0.00000000000E+00 0.  1.
         12    1    3    3    0    0  0.43227904951E+02  0.65202923862E+01  0.71170613537E+03  0.71304753635E+03  0.00000000000E+00 0. -1.
          1    1    1    2  501    0 -0.15741530464E+02  0.12438437995E+02  0.36854215295E+02  0.41961216690E+02  0.00000000000E+00 0. -1.
<mgrwt>
<rscale>  1 0.82831329E+02</rscale>
<asrwt>0</asrwt>
<pdfrwt beam="1">  1       21 0.53242983E-03 0.82831329E+02</pdfrwt>
<pdfrwt beam="2">  1        2 0.29691454E+00 0.82831329E+02</pdfrwt>
<totfact> 0.10264823E+06</totfact>
</mgrwt>
</event>
<event>
 6    2  0.7993170E+000  0.1080713E+03  0.7546771E-02  0.1264184E+00
          2   -1    0    0  502    0 -0.00000000000E+00  0.00000000000E+00  0.59417706067E+03  0.59417706067E+03  0.00000000000E+00 0. -1.
         21   -1    0    0  501  502  0.00000000000E+00 -0.00000000000E+00 -0.19686199406E+02  0.19686199406E+02  0.00000000000E+00 0. -1.
         24    2    1    2    0    0  0.71956155958E+02  0.22710140418E+02  0.16340348676E+03  0.19590839609E+03  0.77368994521E+02 0.  0.
        -13    1    3    3    0    0  0.56903814161E+01 -0.25476436948E+02  0.41598267090E+02  0.49110539654E+02  0.00000000000E+00 0.  1.
         14    1    3    3    0    0  0.66265774542E+02  0.48186577366E+02  0.12180521967E+03  0.14679785643E+03  0.00000000000E+00 0. -1.
          1    1    1    2  501    0 -0.71956155958E+02 -0.22710140418E+02  0.41108737450E+03  0.41795486399E+03  0.00000000000E+00 0. -1.
<mgrwt>
<rscale>  1 0.10807127E+03</rscale>
<asrwt>0</asrwt>
<pdfrwt beam="1">  1       21 0.30286465E-02 0.10807127E+03</pdfrwt>
<pdfrwt beam="2">  1        2 0.91411842E-01 0.10807127E+03</pdfrwt>
<totfact> 0.38794070E+05</totfact>
</mgrwt>
</event>
<event>
 6    2  0.7993170E+000  0.8256380E+02  0.7546771E-02  0.1321929E+00
         21   -1    0    0  501  502  0.00000000000E+00  0.00000000000E+00  0.30177025186E+01  0.30177025186E+01  0.00000000000E+00 0. -1.
          2   -1    0    0  502    0 -0.00000000000E+00 -0.00000000000E+00 -0.10067171115E+04  0.10067171115E+04  0.00000000000E+00 0. -1.
         24    2    1    2    0    0 -0.28168727418E+01 -0.22441028497E+02 -0.88907175731E+03  0.89289717856E+03  0.79405587332E+02 0.  0.
        -11    1    3    3    0    0 -0.92056540645E+01 -0.41390613430E+01 -0.12300163127E+02  0.15911313852E+02  0.00000000000E+00 0.  1.
         12    1    3    3    0    0  0.63887813226E+01 -0.18301967154E+02 -0.87677159418E+03  0.87698586471E+03  0.00000000000E+00 0. -1.
          1    1    1    2  501    0  0.28168727418E+01  0.22441028497E+02 -0.11462765165E+03  0.11683763543E+03  0.00000000000E+00 0. -1.
<mgrwt>
<rscale>  1 0.82563805E+02</rscale>
<asrwt>0</asrwt>
<pdfrwt beam="1">  1       21 0.46426173E-03 0.82563805E+02</pdfrwt>
<pdfrwt beam="2">  1        2 0.15487962E+00 0.82563805E+02</pdfrwt>
<totfact> 0.38236537E+06</totfact>
</mgrwt>
</event>
<event>
 6    2  0.7993170E+000  0.8681537E+02  0.7546771E-02  0.1310752E+00
         -1   -1    0    0    0  501 -0.00000000000E+00  0.00000000000E+00  0.61058212033E+03  0.61058212033E+03  0.00000000000E+00 0.  1.
         21   -1    0    0  501  502  0.00000000000E+00 -0.00000000000E+00 -0.76274993564E+01  0.76274993564E+01  0.00000000000E+00 0.  1.
         24    2    1    2    0    0 -0.34159958377E+02  0.10519692656E+01  0.53653252187E+03  0.54351086036E+03  0.79805381453E+02 0.  0.
        -11    1    3    3    0    0 -0.51602635253E+02  0.21363191807E+02  0.43238837448E+03  0.43598041736E+03  0.00000000000E+00 0.  1.
         12    1    3    3    0    0  0.17442676875E+02 -0.20311222542E+02  0.10414414739E+03  0.10753044300E+03  0.00000000000E+00 0. -1.
         -2    1    1    2    0  502  0.34159958377E+02 -0.10519692656E+01  0.66422099104E+02  0.74698759328E+02  0.00000000000E+00 0.  1.
<mgrwt>
<rscale>  1 0.86815369E+02</rscale>
<asrwt>0</asrwt>
<pdfrwt beam="1">  1       21 0.11734619E-02 0.86815369E+02</pdfrwt>
<pdfrwt beam="2">  1       -1 0.93935672E-01 0.86815369E+02</pdfrwt>
<totfact> 0.29744291E+05</totfact>
</mgrwt>
</event>
<event>
 6    2  0.7993170E+000  0.8181249E+02  0.7546771E-02  0.1323985E+00
         -1   -1    0    0    0  501 -0.00000000000E+00  0.00000000000E+00  0.63006683256E+03  0.63006683256E+03  0.00000000000E+00 0.  1.
         21   -1    0    0  501  502  0.00000000000E+00 -0.00000000000E+00 -0.89224163642E+01  0.89224163642E+01  0.00000000000E+00 0.  1.
         24    2    1    2    0    0  0.23012544761E+02 -0.37858741436E+01  0.60527764981E+03  0.61078172626E+03  0.78417942515E+02 0.  0.
        -11    1    3    3    0    0  0.28158479439E+02 -0.16966304469E+02  0.58572297179E+03  0.58664482878E+03  0.00000000000E+00 0.  1.
         12    1    3    3    0    0 -0.51459346786E+01  0.13180430326E+02  0.19554678023E+02  0.24136897478E+02  0.00000000000E+00 0. -1.
         -2    1    1    2    0  502 -0.23012544761E+02  0.37858741436E+01  0.15866766378E+02  0.28207522662E+02  0.00000000000E+00 0.  1.
<mgrwt>
<rscale>  1 0.81812492E+02</rscale>
<asrwt>0</asrwt>
<pdfrwt beam="1">  1       21 0.13726799E-02 0.81812492E+02</pdfrwt>
<pdfrwt beam="2">  1       -1 0.96933324E-01 0.81812492E+02</pdfrwt>
<totfact> 0.21623138E+05</totfact>
</mgrwt>
</event>
<event>
 6    2  0.7993170E+000  0.8068920E+02  0.7546771E-02  0.1327107E+00
         21   -1    0    0  501  502  0.00000000000E+00  0.00000000000E+00  0.45134798470E+02  0.45134798470E+02  0.00000000000E+00 0.  1.
         -1   -1    0    0    0  501 -0.00000000000E+00 -0.00000000000E+00 -0.11232943346E+03  0.11232943346E+03  0.00000000000E+00 0.  1.
         24    2    1    2    0    0  0.24983970368E+02 -0.93542806155E+01 -0.91062371353E+02  0.12166800056E+03  0.76151464483E+02 0.  0.
        -13    1    3    3    0    0  0.33484867516E+02 -0.21727585492E+01 -0.10119778052E+03  0.10661589006E+03  0.00000000000E+00 0.  1.
         14    1    3    3    0    0 -0.85008971477E+01 -0.71815220664E+01  0.10135409165E+02  0.15052110498E+02  0.00000000000E+00 0. -1.
         -2    1    1    2    0  502 -0.24983970368E+02  0.93542806155E+01  0.23867736362E+02  0.35796231369E+02  0.00000000000E+00 0.  1.
<mgrwt>
<rscale>  1 0.80689199E+02</rscale>
<asrwt>0</asrwt>
<pdfrwt beam="1">  1       21 0.69438152E-02 0.80689199E+02</pdfrwt>
<pdfrwt beam="2">  1       -1 0.17281451E-01 0.80689199E+02</pdfrwt>
<totfact> 0.32973968E+05</totfact>
</mgrwt>
</event>
<event>
 6    2  0.7993170E+000  0.8585545E+02  0.7546771E-02  0.1313210E+00
         21   -1    0    0  501  502  0.00000000000E+00  0.00000000000E+00  0.70156012935E+02  0.70156012935E+02  0.00000000000E+00 0.  1.
         -1   -1    0    0    0  501 -0.00000000000E+00 -0.00000000000E+00 -0.67265893026E+02  0.67265893026E+02  0.00000000000E+00 0.  1.
         24    2    1    2    0    0 -0.18201539522E+02 -0.24786849106E+02 -0.31349354773E+02  0.91399894314E+02  0.80159058791E+02 0.  0.
        -11    1    3    3    0    0 -0.22955938800E+02  0.18965232784E+02 -0.36482729731E+02  0.47091875619E+02  0.00000000000E+00 0.  1.
         12    1    3    3    0    0  0.47543992786E+01 -0.43752081890E+02  0.51333749573E+01  0.44308018694E+02  0.00000000000E+00 0. -1.
         -2    1    1    2    0  502  0.18201539522E+02  0.24786849106E+02  0.34239474682E+02  0.46022011647E+02  0.00000000000E+00 0.  1.
<mgrwt>
<rscale>  1 0.85855452E+02</rscale>
<asrwt>0</asrwt>
<pdfrwt beam="1">  1       21 0.10793233E-01 0.85855452E+02</pdfrwt>
<pdfrwt beam="2">  1       -1 0.10348599E-01 0.85855452E+02</pdfrwt>
<totfact> 0.34236846E+05</totfact>
</mgrwt>
</event>
<event>
 6    2  0.7993170E+000  0.1217217E+03  0.7546771E-02  0.1240284E+00
          2   -1    0    0  502    0 -0.00000000000E+00  0.00000000000E+00  0.17265977988E+03  0.17265977988E+03  0.00000000000E+00 0. -1.
         21   -1    0    0  501  502  0.00000000000E+00 -0.00000000000E+00 -0.92002194712E+02  0.92002194712E+02  0.00000000000E+00 0. -1.
         24    2    1    2    0    0  0.28955807557E+02  0.84795408830E+02  0.11618659556E+03  0.16827208544E+03  0.82386100775E+02 0.  0.
        -13    1    3    3    0    0  0.41279619964E+02  0.33325094691E+02  0.16760277727E+02  0.55637000908E+02  0.00000000000E+00 0.  1.
         14    1    3    3    0    0 -0.12323812407E+02  0.51470314139E+02  0.99426317836E+02  0.11263508454E+03  0.00000000000E+00 0. -1.
          1    1    1    2  501    0 -0.28955807557E+02 -0.84795408830E+02 -0.35529010397E+02  0.96389889147E+02  0.00000000000E+00 0. -1.
<mgrwt>
<rscale>  1 0.12172169E+03</rscale>
<asrwt>0</asrwt>
<pdfrwt beam="1">  1       21 0.14154184E-01 0.12172169E+03</pdfrwt>
<pdfrwt beam="2">  1        2 0.26563043E-01 0.12172169E+03</pdfrwt>
<totfact> 0.10613634E+05</totfact>
</mgrwt>
</event>
<event>
 6    2  0.7993170E+000  0.1090112E+03  0.7546771E-02  0.1262412E+00
         21   -1    0    0  501  502  0.00000000000E+00  0.00000000000E+00  0.29624998723E+04  0.29624998723E+04  0.00000000000E+00 0. -1.
          2   -1    0    0  502    0 -0.00000000000E+00 -0.00000000000E+00 -0.40559464894E+01  0.40559464894E+01  0.00000000000E+00 0. -1.
         24    2    1    2    0    0  0.21721997328E+02 -0.64158444873E+02  0.84188506277E+03  0.84891336268E+03  0.85412453418E+02 0.  0.
        -13    1    3    3    0    0  0.16972735937E+02  0.12281495789E+02  0.39171800237E+03  0.39227783813E+03  0.00000000000E+00 0.  1.
         14    1    3    3    0    0  0.47492613910E+01 -0.76439940663E+02  0.45016706040E+03  0.45663552455E+03  0.00000000000E+00 0. -1.
          1    1    1    2  501    0 -0.21721997328E+02  0.64158444873E+02  0.21165588631E+04  0.21176424561E+04  0.00000000000E+00 0. -1.
<mgrwt>
<rscale>  1 0.10901118E+03</rscale>
<asrwt>0</asrwt>
<pdfrwt beam="1">  1       21 0.45576748E+00 0.10901118E+03</pdfrwt>
<pdfrwt beam="2">  1        2 0.62399414E-03 0.10901118E+03</pdfrwt>
<totfact> 0.14074533E+03</totfact>
</mgrwt>
</event>
<event>
 6    2  0.7993170E+000  0.7632557E+02  0.7546771E-02  0.1339815E+00
          2   -1    0    0  502    0 -0.00000000000E+00  0.00000000000E+00  0.25679690155E+04  0.25679690155E+04  0.00000000000E+00 0. -1.
         21   -1    0    0  501  502  0.00000000000E+00 -0.00000000000E+00 -0.10483525425E+01  0.10483525425E+01  0.00000000000E+00 0.  1.
         24    2    1    2    0    0  0.27293934043E+02 -0.11928164271E+01  0.18330391706E+04  0.18346275353E+04  0.71268580668E+02 0.  0.
        -13    1    3    3    0    0  0.23257953814E+02 -0.32561942772E+02  0.13255010866E+04  0.13261049518E+04  0.00000000000E+00 0.  1.
         14    1    3    3    0    0  0.40359802291E+01  0.31369126345E+02  0.50753808398E+03  0.50852258349E+03  0.00000000000E+00 0. -1.
          1    1    1    2  501    0 -0.27293934043E+02  0.11928164271E+01  0.73388149235E+03  0.73438983276E+03  0.00000000000E+00 0. -1.
<mgrwt>
<rscale>  1 0.76325567E+02</rscale>
<asrwt>0</asrwt>
<pdfrwt beam="1">  1       21 0.16128706E-03 0.76325567E+02</pdfrwt>
<pdfrwt beam="2">  1        2 0.39506712E+00 0.76325567E+02</pdfrwt>
<totfact> 0.29267804E+06</totfact>
</mgrwt>
</event>
<event>
 6    2  0.7993170E+000  0.8488782E+02  0.7546771E-02  0.1315726E+00
          4   -1    0    0  502    0 -0.00000000000E+00  0.00000000000E+00  0.62073576412E+01  0.62073576412E+01  0.00000000000E+00 0. -1.
         21   -1    0    0  501  502  0.00000000000E+00 -0.00000000000E+00 -0.73456098009E+03  0.73456098009E+03  0.00000000000E+00 0.  1.
         24    2    1    2    0    0 -0.12392219334E+01  0.28107759928E+02 -0.67622050303E+03  0.68152777747E+03  0.80089705406E+02 0.  0.
        -13    1    3    3    0    0  0.28238325497E+01 -0.46162980546E+01 -0.57592665307E+03  0.57595207609E+03  0.00000000000E+00 0.  1.
         14    1    3    3    0    0 -0.40630544832E+01  0.32724057983E+02 -0.10029384995E+03  0.10557570138E+03  0.00000000000E+00 0. -1.
          3    1    1    2  501    0  0.12392219334E+01 -0.28107759928E+02 -0.52133119419E+02  0.59240560257E+02  0.00000000000E+00 0. -1.
<mgrwt>
<rscale>  1 0.84887825E+02</rscale>
<asrwt>0</asrwt>
<pdfrwt beam="1">  1       21 0.11300941E+00 0.84887825E+02</pdfrwt>
<pdfrwt beam="2">  1        4 0.95497789E-03 0.84887825E+02</pdfrwt>
<totfact> 0.74889490E+04</totfact>
</mgrwt>
</event>
<event>
 6    2  0.7993170E+000  0.8859940E+02  0.7546771E-02  0.1306279E+00
          2   -1    0    0  502    0 -0.00000000000E+00  0.00000000000E+00  0.48161633747E+03  0.48161633747E+03  0.00000000000E+00 0. -1.
         21   -1    0    0  501  502  0.00000000000E+00 -0.00000000000E+00 -0.10032111425E+02  0.10032111425E+02  0.00000000000E+00 0.  1.
         24    2    1    2    0    0  0.36950984292E+02 -0.24816329379E+02  0.24014186172E+03  0.25596477647E+03  0.76606968338E+02 0.  0.
        -11    1    3    3    0    0  0.35575129740E+02 -0.91092559992E+01  0.36717144969E+02  0.51929925241E+02  0.00000000000E+00 0.  1.
         12    1    3    3    0    0  0.13758545516E+01 -0.15707073380E+02  0.20342471675E+03  0.20403485123E+03  0.00000000000E+00 0. -1.
          1    1    1    2  501    0 -0.36950984292E+02  0.24816329379E+02  0.23144236433E+03  0.23568367243E+03  0.00000000000E+00 0. -1.
<mgrwt>
<rscale>  1 0.88599396E+02</rscale>
<asrwt>0</asrwt>
<pdfrwt beam="1">  1       21 0.15434021E-02 0.88599396E+02</pdfrwt>
<pdfrwt beam="2">  1        2 0.74094803E-01 0.88599396E+02</pdfrwt>
<totfact> 0.14204423E+06</totfact>
</mgrwt>
</event>
<event>
 6    2  0.7993170E+000  0.1255879E+03  0.7546771E-02  0.1234153E+00
         21   -1    0    0  501  502  0.00000000000E+00  0.00000000000E+00  0.48064701891E+02  0.48064701891E+02  0.00000000000E+00 0. -1.
          2   -1    0    0  502    0 -0.00000000000E+00 -0.00000000000E+00 -0.36855239033E+03  0.36855239033E+03  0.00000000000E+00 0. -1.
         24    2    1    2    0    0  0.72946463556E+02 -0.67398317134E+02 -0.28449175288E+03  0.31097890275E+03  0.76867423540E+02 0.  0.
        -11    1    3    3    0    0  0.33784955658E+02 -0.14366154980E+01 -0.30095122337E+02  0.45268128759E+02  0.00000000000E+00 0.  1.
         12    1    3    3    0    0  0.39161507898E+02 -0.65961701636E+02 -0.25439663054E+03  0.26571077399E+03  0.00000000000E+00 0. -1.
          1    1    1    2  501    0 -0.72946463556E+02  0.67398317134E+02 -0.35995935559E+02  0.10563818947E+03  0.00000000000E+00 0. -1.
<mgrwt>
<rscale>  1 0.12558790E+03</rscale>
<asrwt>0</asrwt>
<pdfrwt beam="1">  1       21 0.73945695E-02 0.12558790E+03</pdfrwt>
<pdfrwt beam="2">  1        2 0.56700368E-01 0.12558790E+03</pdfrwt>
<totfact> 0.14755232E+05</totfact>
</mgrwt>
</event>
<event>
 6    2  0.7993170E+000  0.8763928E+02  0.7546771E-02  0.1308671E+00
         21   -1    0    0  501  502  0.00000000000E+00  0.00000000000E+00  0.41377763357E+03  0.41377763357E+03  0.00000000000E+00 0. -1.
          4   -1    0    0  502    0 -0.00000000000E+00 -0.00000000000E+00 -0.33994906226E+02  0.33994906226E+02  0.00000000000E+00 0. -1.
         24    2    1    2    0    0  0.33316957186E+02  0.28894573586E+01  0.24610281269E+02  0.91029165575E+02  0.81007866538E+02 0.  0.
        -13    1    3    3    0    0  0.12438624733E+02  0.18297461817E+02  0.50030434624E+02  0.54704304061E+02  0.00000000000E+00 0.  1.
         14    1    3    3    0    0  0.20878332453E+02 -0.15408004458E+02 -0.25420153354E+02  0.36324861513E+02  0.00000000000E+00 0. -1.
          3    1    1    2  501    0 -0.33316957186E+02 -0.28894573586E+01  0.35517244607E+03  0.35674337422E+03  0.00000000000E+00 0. -1.
<mgrwt>
<rscale>  1 0.87639278E+02</rscale>
<asrwt>0</asrwt>
<pdfrwt beam="1">  1       21 0.63658094E-01 0.87639278E+02</pdfrwt>
<pdfrwt beam="2">  1        4 0.52299859E-02 0.87639278E+02</pdfrwt>
<totfact> 0.19927960E+04</totfact>
</mgrwt>
</event>
<event>
 6    2  0.7993170E+000  0.8310093E+02  0.7546771E-02  0.1320475E+00
         -1   -1    0    0    0  501 -0.00000000000E+00  0.00000000000E+00  0.31873009252E+02  0.31873009252E+02  0.00000000000E+00 0.  1.
         21   -1    0    0  501  502  0.00000000000E+00 -0.00000000000E+00 -0.12678706568E+03  0.12678706568E+03  0.00000000000E+00 0.  1.
         24    2    1    2    0    0 -0.87587905088E+01 -0.23126316327E+02 -0.28599381414E+02  0.87884520959E+02  0.79336129782E+02 0.  0.
        -13    1    3    3    0    0 -0.26264178065E+02  0.16228730741E+02  0.74009112621E+01  0.31748263549E+02  0.00000000000E+00 0.  1.
         14    1    3    3    0    0  0.17505387556E+02 -0.39355047068E+02 -0.36000292676E+02  0.56136257410E+02  0.00000000000E+00 0. -1.
         -2    1    1    2    0  502  0.87587905088E+01  0.23126316327E+02 -0.66314675016E+02  0.70775553975E+02  0.00000000000E+00 0.  1.
<mgrwt>
<rscale>  1 0.83100929E+02</rscale>
<asrwt>0</asrwt>
<pdfrwt beam="1">  1       21 0.19505702E-01 0.83100929E+02</pdfrwt>
<pdfrwt beam="2">  1       -1 0.49035399E-02 0.83100929E+02</pdfrwt>
<totfact> 0.36045519E+05</totfact>
</mgrwt>
</event>
<event>
 6    2  0.7993170E+000  0.8405269E+02  0.7546771E-02  0.1317929E+00
         21   -1    0    0  501  502  0.00000000000E+00  0.00000000000E+00  0.68898689770E+01  0.68898689770E+01  0.00000000000E+00 0. -1.
          2   -1    0    0  502    0 -0.00000000000E+00 -0.00000000000E+00 -0.47072904311E+03  0.47072904311E+03  0.00000000000E+00 0. -1.
         24    2    1    2    0    0  0.10704173250E+02  0.20861171192E+02 -0.41521071300E+03  0.42363284888E+03  0.80716086823E+02 0.  0.
        -11    1    3    3    0    0  0.64650298879E+01 -0.28891344428E+02 -0.93646820046E+02  0.98215239648E+02  0.00000000000E+00 0.  1.
         12    1    3    3    0    0  0.42391433621E+01  0.49752515620E+02 -0.32156389295E+03  0.32541760923E+03  0.00000000000E+00 0. -1.
          1    1    1    2  501    0 -0.10704173250E+02 -0.20861171192E+02 -0.48628461141E+02  0.53986063214E+02  0.00000000000E+00 0. -1.
<mgrwt>
<rscale>  1 0.84052689E+02</rscale>
<asrwt>0</asrwt>
<pdfrwt beam="1">  1       21 0.10599795E-02 0.84052689E+02</pdfrwt>
<pdfrwt beam="2">  1        2 0.72419877E-01 0.84052689E+02</pdfrwt>
<totfact> 0.26131178E+06</totfact>
</mgrwt>
</event>
<event>
 6    2  0.7993170E+000  0.8393727E+02  0.7546771E-02  0.1318235E+00
         21   -1    0    0  501  502  0.00000000000E+00  0.00000000000E+00  0.19731238251E+01  0.19731238251E+01  0.00000000000E+00 0.  1.
          2   -1    0    0  502    0 -0.00000000000E+00 -0.00000000000E+00 -0.20904620406E+04  0.20904620406E+04  0.00000000000E+00 0. -1.
         24    2    1    2    0    0 -0.25258782729E+02 -0.22384009106E+01 -0.19386076916E+04  0.19404239865E+04  0.80015305099E+02 0.  0.
        -11    1    3    3    0    0 -0.51761434422E+02  0.78524279085E+01 -0.98051676130E+03  0.98191345133E+03  0.00000000000E+00 0.  1.
         12    1    3    3    0    0  0.26502651693E+02 -0.10090828819E+02 -0.95809093028E+03  0.95851053518E+03  0.00000000000E+00 0. -1.
          1    1    1    2  501    0  0.25258782729E+02  0.22384009106E+01 -0.14988122523E+03  0.15201117795E+03  0.00000000000E+00 0. -1.
<mgrwt>
<rscale>  1 0.83937272E+02</rscale>
<asrwt>0</asrwt>
<pdfrwt beam="1">  1       21 0.30355785E-03 0.83937272E+02</pdfrwt>
<pdfrwt beam="2">  1        2 0.32160919E+00 0.83937272E+02</pdfrwt>
<totfact> 0.20065412E+06</totfact>
</mgrwt>
</event>
<event>
 6    2  0.7993170E+000  0.7648746E+02  0.7546771E-02  0.1339326E+00
         -3   -1    0    0    0  501 -0.00000000000E+00  0.00000000000E+00  0.90749491749E+01  0.90749491749E+01  0.00000000000E+00 0.  1.
         21   -1    0    0  501  502  0.00000000000E+00 -0.00000000000E+00 -0.45444456194E+03  0.45444456194E+03  0.00000000000E+00 0.  1.
         24    2    1    2    0    0 -0.23681486843E+02  0.20270739750E+01 -0.16193558582E+03  0.17909066328E+03  0.72700824429E+02 0.  0.
        -13    1    3    3    0    0 -0.25873105789E+02 -0.16371834551E+02 -0.21439190177E+02  0.37377713216E+02  0.00000000000E+00 0.  1.
         14    1    3    3    0    0  0.21916189469E+01  0.18398908526E+02 -0.14049639564E+03  0.14171295006E+03  0.00000000000E+00 0. -1.
         -4    1    1    2    0  502  0.23681486843E+02 -0.20270739750E+01 -0.28343402695E+03  0.28442884783E+03  0.00000000000E+00 0.  1.
<mgrwt>
<rscale>  1 0.76487461E+02</rscale>
<asrwt>0</asrwt>
<pdfrwt beam="1">  1       21 0.69914549E-01 0.76487461E+02</pdfrwt>
<pdfrwt beam="2">  1       -3 0.13961460E-02 0.76487461E+02</pdfrwt>
<totfact> 0.13659888E+05</totfact>
</mgrwt>
</event>
<event>
 6    2  0.7993170E+000  0.8300897E+02  0.7546771E-02  0.1320723E+00
          2   -1    0    0  502    0 -0.00000000000E+00  0.00000000000E+00  0.16922993418E+03  0.16922993418E+03  0.00000000000E+00 0. -1.
         21   -1    0    0  501  502  0.00000000000E+00 -0.00000000000E+00 -0.21972007411E+02  0.21972007411E+02  0.00000000000E+00 0. -1.
         24    2    1    2    0    0 -0.21408685114E+02 -0.88393702373E+01  0.14607125097E+03  0.16800982086E+03  0.79712127578E+02 0.  0.
        -11    1    3    3    0    0  0.22108625062E+01 -0.28032429213E+02  0.12077941515E+02  0.30603621875E+02  0.00000000000E+00 0.  1.
         12    1    3    3    0    0 -0.23619547620E+02  0.19193058976E+02  0.13399330945E+03  0.13740619899E+03  0.00000000000E+00 0. -1.
          1    1    1    2  501    0  0.21408685114E+02  0.88393702373E+01  0.11866758054E+01  0.23192120731E+02  0.00000000000E+00 0. -1.
<mgrwt>
<rscale>  1 0.83008973E+02</rscale>
<asrwt>0</asrwt>
<pdfrwt beam="1">  1       21 0.33803090E-02 0.83008973E+02</pdfrwt>
<pdfrwt beam="2">  1        2 0.26035374E-01 0.83008973E+02</pdfrwt>
<totfact> 0.12060653E+06</totfact>
</mgrwt>
</event>
<event>
 6    2  0.7993170E+000  0.8678364E+02  0.7546771E-02  0.1310833E+00
          2   -1    0    0  502    0 -0.00000000000E+00  0.00000000000E+00  0.14949643224E+04  0.14949643224E+04  0.00000000000E+00 0. -1.
         21   -1    0    0  501  502  0.00000000000E+00 -0.00000000000E+00 -0.40032157416E+01  0.40032157416E+01  0.00000000000E+00 0. -1.
         24    2    1    2    0    0 -0.51111542833E+01  0.33733393916E+02  0.13835231120E+04  0.13862422595E+04  0.79795580292E+02 0.  0.
        -13    1    3    3    0    0 -0.14633239069E+01  0.25807646125E+02  0.12290006792E+03  0.12558902265E+03  0.00000000000E+00 0.  1.
         14    1    3    3    0    0 -0.36478303764E+01  0.79257477914E+01  0.12606230441E+04  0.12606532368E+04  0.00000000000E+00 0. -1.
          1    1    1    2  501    0  0.51111542833E+01 -0.33733393916E+02  0.10743799459E+03  0.11272527864E+03  0.00000000000E+00 0. -1.
<mgrwt>
<rscale>  1 0.86783641E+02</rscale>
<asrwt>0</asrwt>
<pdfrwt beam="1">  1       21 0.61588054E-03 0.86783641E+02</pdfrwt>
<pdfrwt beam="2">  1        2 0.22999407E+00 0.86783641E+02</pdfrwt>
<totfact> 0.13611915E+06</totfact>
</mgrwt>
</event>
<event>
 6    2  0.7993170E+000  0.8276443E+02  0.7546771E-02  0.1321385E+00
          2   -1    0    0  502    0 -0.00000000000E+00  0.00000000000E+00  0.19124080679E+03  0.19124080679E+03  0.00000000000E+00 0. -1.
         21   -1    0    0  501  502  0.00000000000E+00 -0.00000000000E+00 -0.20095139084E+02  0.20095139084E+02  0.00000000000E+00 0.  1.
         24    2    1    2    0    0 -0.24023046268E+02  0.32253642293E+01  0.16749023626E+03  0.18682325721E+03  0.79135582803E+02 0.  0.
        -11    1    3    3    0    0  0.20669464000E+02 -0.10215984074E+01  0.98579382529E+01  0.22922682041E+02  0.00000000000E+00 0.  1.
         12    1    3    3    0    0 -0.44692510267E+02  0.42469626367E+01  0.15763229801E+03  0.16390057517E+03  0.00000000000E+00 0. -1.
          1    1    1    2  501    0  0.24023046268E+02 -0.32253642293E+01  0.36554314423E+01  0.24512688662E+02  0.00000000000E+00 0. -1.
<mgrwt>
<rscale>  1 0.82764426E+02</rscale>
<asrwt>0</asrwt>
<pdfrwt beam="1">  1       21 0.30915600E-02 0.82764426E+02</pdfrwt>
<pdfrwt beam="2">  1        2 0.29421661E-01 0.82764426E+02</pdfrwt>
<totfact> 0.12225836E+06</totfact>
</mgrwt>
</event>
<event>
 6    2  0.7993170E+000  0.8537691E+02  0.7546771E-02  0.1314450E+00
          2   -1    0    0  502    0 -0.00000000000E+00  0.00000000000E+00  0.51074257322E+03  0.51074257322E+03  0.00000000000E+00 0. -1.
         21   -1    0    0  501  502  0.00000000000E+00 -0.00000000000E+00 -0.37085527495E+02  0.37085527495E+02  0.00000000000E+00 0. -1.
         24    2    1    2    0    0 -0.80125819589E+01 -0.27124958554E+02  0.50115811009E+03  0.50837846971E+03  0.80555895559E+02 0.  0.
        -11    1    3    3    0    0 -0.96907403530E+01 -0.17599549359E+01  0.40963986971E+01  0.10667163271E+02  0.00000000000E+00 0.  1.
         12    1    3    3    0    0  0.16781583942E+01 -0.25365003618E+02  0.49706171139E+03  0.49771130644E+03  0.00000000000E+00 0. -1.
          1    1    1    2  501    0  0.80125819589E+01  0.27124958554E+02 -0.27501064357E+02  0.39449631012E+02  0.00000000000E+00 0. -1.
<mgrwt>
<rscale>  1 0.85376912E+02</rscale>
<asrwt>0</asrwt>
<pdfrwt beam="1">  1       21 0.57054661E-02 0.85376912E+02</pdfrwt>
<pdfrwt beam="2">  1        2 0.78575776E-01 0.85376912E+02</pdfrwt>
<totfact> 0.15883848E+05</totfact>
</mgrwt>
</event>
<event>
 6    2  0.7993170E+000  0.8538308E+02  0.7546771E-02  0.1314434E+00
          4   -1    0    0  502    0 -0.00000000000E+00  0.00000000000E+00  0.75580132066E+02  0.75580132066E+02  0.00000000000E+00 0. -1.
         21   -1    0    0  501  502  0.00000000000E+00 -0.00000000000E+00 -0.77554351735E+02  0.77554351735E+02  0.00000000000E+00 0.  1.
         24    2    1    2    0    0 -0.42662987885E+01  0.26802303752E+02 -0.49289133186E+02  0.98588486396E+02  0.80954964071E+02 0.  0.
        -13    1    3    3    0    0 -0.37172076424E+02 -0.64123115058E+01 -0.14937976410E+02  0.40571223099E+02  0.00000000000E+00 0.  1.
         14    1    3    3    0    0  0.32905777636E+02  0.33214615258E+02 -0.34351156776E+02  0.58017263296E+02  0.00000000000E+00 0. -1.
          3    1    1    2  501    0  0.42662987885E+01 -0.26802303752E+02  0.47314913517E+02  0.54545997405E+02  0.00000000000E+00 0. -1.
<mgrwt>
<rscale>  1 0.85383084E+02</rscale>
<asrwt>0</asrwt>
<pdfrwt beam="1">  1       21 0.11931439E-01 0.85383084E+02</pdfrwt>
<pdfrwt beam="2">  1        4 0.11627713E-01 0.85383084E+02</pdfrwt>
<totfact> 0.12995520E+05</totfact>
</mgrwt>
</event>
<event>
 6    2  0.7993170E+000  0.8618158E+02  0.7546771E-02  0.1312371E+00
         21   -1    0    0  501  502  0.00000000000E+00  0.00000000000E+00  0.13316948978E+03  0.13316948978E+03  0.00000000000E+00 0. -1.
         -3   -1    0    0    0  501 -0.00000000000E+00 -0.00000000000E+00 -0.28568205197E+02  0.28568205197E+02  0.00000000000E+00 0.  1.
         24    2    1    2    0    0  0.22256819734E+02 -0.12808586389E+02  0.10527222018E+03  0.13604964203E+03  0.82266875745E+02 0.  0.
        -11    1    3    3    0    0  0.23265626255E+02 -0.20453300968E+02  0.48759912683E+00  0.30981682305E+02  0.00000000000E+00 0.  1.
         12    1    3    3    0    0 -0.10088065211E+01  0.76447145797E+01  0.10478462105E+03  0.10506795972E+03  0.00000000000E+00 0. -1.
         -4    1    1    2    0  502 -0.22256819734E+02  0.12808586389E+02 -0.67093559070E+00  0.25688052953E+02  0.00000000000E+00 0.  1.
<mgrwt>
<rscale>  1 0.86181580E+02</rscale>
<asrwt>0</asrwt>
<pdfrwt beam="1">  1       21 0.20487614E-01 0.86181580E+02</pdfrwt>
<pdfrwt beam="2">  1       -3 0.43951085E-02 0.86181580E+02</pdfrwt>
<totfact> 0.27304758E+05</totfact>
</mgrwt>
</event>
<event>
 6    2  0.7993170E+000  0.8438159E+02  0.7546771E-02  0.1317058E+00
          2   -1    0    0  502    0 -0.00000000000E+00  0.00000000000E+00  0.47164244608E+03  0.47164244608E+03  0.00000000000E+00 0. -1.
         21   -1    0    0  501  502  0.00000000000E+00 -0.00000000000E+00 -0.64913231782E+01  0.64913231782E+01  0.00000000000E+00 0. -1.
         24    2    1    2    0    0 -0.23158804747E+02  0.26472747051E+00  0.40457756056E+03  0.41328350501E+03  0.81140943360E+02 0.  0.
        -11    1    3    3    0    0  0.15724528561E+02 -0.23702961192E+02  0.69324901292E+02  0.74933524585E+02  0.00000000000E+00 0.  1.
         12    1    3    3    0    0 -0.38883333307E+02  0.23967688662E+02  0.33525265927E+03  0.33834998042E+03  0.00000000000E+00 0. -1.
          1    1    1    2  501    0  0.23158804747E+02 -0.26472747051E+00  0.60573562348E+02  0.64850264251E+02  0.00000000000E+00 0. -1.
<mgrwt>
<rscale>  1 0.84381592E+02</rscale>
<asrwt>0</asrwt>
<pdfrwt beam="1">  1       21 0.99866547E-03 0.84381592E+02</pdfrwt>
<pdfrwt beam="2">  1        2 0.72560350E-01 0.84381592E+02</pdfrwt>
<totfact> 0.28634204E+06</totfact>
</mgrwt>
</event>
<event>
 6    2  0.7993170E+000  0.9004179E+02  0.7546771E-02  0.1302751E+00
          2   -1    0    0  502    0 -0.00000000000E+00  0.00000000000E+00  0.25809832800E+04  0.25809832800E+04  0.00000000000E+00 0. -1.
         21   -1    0    0  501  502  0.00000000000E+00 -0.00000000000E+00 -0.17786084843E+01  0.17786084843E+01  0.00000000000E+00 0. -1.
         24    2    1    2    0    0  0.77970817368E+01  0.44207765324E+02  0.18295699891E+04  0.18317843401E+04  0.78053845910E+02 0.  0.
        -11    1    3    3    0    0  0.37371755305E+02  0.25397648710E+02  0.14195666421E+04  0.14202855839E+04  0.00000000000E+00 0.  1.
         12    1    3    3    0    0 -0.29574673568E+02  0.18810116614E+02  0.41000334702E+03  0.41149875622E+03  0.00000000000E+00 0. -1.
          1    1    1    2  501    0 -0.77970817368E+01 -0.44207765324E+02  0.74963468242E+03  0.75097754833E+03  0.00000000000E+00 0. -1.
<mgrwt>
<rscale>  1 0.90041790E+02</rscale>
<asrwt>0</asrwt>
<pdfrwt beam="1">  1       21 0.27363414E-03 0.90041790E+02</pdfrwt>
<pdfrwt beam="2">  1        2 0.39707136E+00 0.90041790E+02</pdfrwt>
<totfact> 0.13166984E+06</totfact>
</mgrwt>
</event>
<event>
 6    2  0.7993170E+000  0.8572726E+02  0.7546771E-02  0.1313542E+00
         -3   -1    0    0    0  501 -0.00000000000E+00  0.00000000000E+00  0.55814989779E+02  0.55814989779E+02  0.00000000000E+00 0.  1.
         21   -1    0    0  501  502  0.00000000000E+00 -0.00000000000E+00 -0.84960266606E+02  0.84960266606E+02  0.00000000000E+00 0.  1.
         24    2    1    2    0    0  0.26163639686E+02 -0.15780607192E+02  0.15058172346E+02  0.87039713922E+02  0.80097438413E+02 0.  0.
        -11    1    3    3    0    0  0.95449168899E+01 -0.48074542605E+02  0.12766703978E+02  0.50648354520E+02  0.00000000000E+00 0.  1.
         12    1    3    3    0    0  0.16618722796E+02  0.32293935413E+02  0.22914683679E+01  0.36391359402E+02  0.00000000000E+00 0. -1.
         -4    1    1    2    0  502 -0.26163639686E+02  0.15780607192E+02 -0.44203449172E+02  0.53735542462E+02  0.00000000000E+00 0.  1.
<mgrwt>
<rscale>  1 0.85727261E+02</rscale>
<asrwt>0</asrwt>
<pdfrwt beam="1">  1       21 0.13070810E-01 0.85727261E+02</pdfrwt>
<pdfrwt beam="2">  1       -3 0.85869216E-02 0.85727261E+02</pdfrwt>
<totfact> 0.21174579E+05</totfact>
</mgrwt>
</event>
<event>
 6    2  0.7993170E+000  0.8802929E+02  0.7546771E-02  0.1307695E+00
          2   -1    0    0  502    0 -0.00000000000E+00  0.00000000000E+00  0.30692023821E+04  0.30692023821E+04  0.00000000000E+00 0. -1.
         21   -1    0    0  501  502  0.00000000000E+00 -0.00000000000E+00 -0.12602963217E+01  0.12602963217E+01  0.00000000000E+00 0.  1.
         24    2    1    2    0    0 -0.35478018520E+02 -0.36362756864E+01  0.23231425155E+04  0.23248097349E+04  0.80481326115E+02 0.  0.
        -11    1    3    3    0    0 -0.35631495830E+02  0.27504888285E+02  0.74413027341E+03  0.74549043332E+03  0.00000000000E+00 0.  1.
         12    1    3    3    0    0  0.15347731047E+00 -0.31141163971E+02  0.15790122421E+04  0.15793193016E+04  0.00000000000E+00 0. -1.
          1    1    1    2  501    0  0.35478018520E+02  0.36362756864E+01  0.74479957031E+03  0.74565294355E+03  0.00000000000E+00 0. -1.
<mgrwt>
<rscale>  1 0.88029291E+02</rscale>
<asrwt>0</asrwt>
<pdfrwt beam="1">  1       21 0.19389420E-03 0.88029291E+02</pdfrwt>
<pdfrwt beam="2">  1        2 0.47217900E+00 0.88029291E+02</pdfrwt>
<totfact> 0.11875289E+06</totfact>
</mgrwt>
</event>
<event>
 6    2  0.7993170E+000  0.8558723E+02  0.7546771E-02  0.1313904E+00
          2   -1    0    0  502    0 -0.00000000000E+00  0.00000000000E+00  0.61409352191E+02  0.61409352191E+02  0.00000000000E+00 0. -1.
         21   -1    0    0  501  502  0.00000000000E+00 -0.00000000000E+00 -0.50186160107E+02  0.50186160107E+02  0.00000000000E+00 0.  1.
         24    2    1    2    0    0  0.21264212687E+02 -0.13634751507E+02  0.11339359504E+02  0.86335134535E+02  0.81774697746E+02 0.  0.
        -11    1    3    3    0    0  0.45304426498E+02 -0.21401798405E+02 -0.12455266703E+02  0.51630046523E+02  0.00000000000E+00 0.  1.
         12    1    3    3    0    0 -0.24040213811E+02  0.77670468978E+01  0.23794626208E+02  0.34705088013E+02  0.00000000000E+00 0. -1.
          1    1    1    2  501    0 -0.21264212687E+02  0.13634751507E+02 -0.11616742039E+00  0.25260377763E+02  0.00000000000E+00 0. -1.
<mgrwt>
<rscale>  1 0.85587233E+02</rscale>
<asrwt>0</asrwt>
<pdfrwt beam="1">  1       21 0.77209477E-02 0.85587233E+02</pdfrwt>
<pdfrwt beam="2">  1        2 0.94475927E-02 0.85587233E+02</pdfrwt>
<totfact> 0.98031023E+05</totfact>
</mgrwt>
</event>
<event>
 6    2  0.7993170E+000  0.1284004E+03  0.7546771E-02  0.1229849E+00
         21   -1    0    0  501  502  0.00000000000E+00  0.00000000000E+00  0.69396259665E+03  0.69396259665E+03  0.00000000000E+00 0.  1.
         -1   -1    0    0    0  501 -0.00000000000E+00 -0.00000000000E+00 -0.38863053514E+02  0.38863053514E+02  0.00000000000E+00 0.  1.
         24    2    1    2    0    0  0.10876487784E+01 -0.10155028375E+03  0.85544139639E+02  0.15428697318E+03  0.78568614323E+02 0.  0.
        -11    1    3    3    0    0  0.25912379906E+01 -0.11491214227E+03  0.75908834632E+02  0.13774493141E+03  0.00000000000E+00 0.  1.
         12    1    3    3    0    0 -0.15035892122E+01  0.13361858511E+02  0.96353050073E+01  0.16542041771E+02  0.00000000000E+00 0. -1.
         -2    1    1    2    0  502 -0.10876487784E+01  0.10155028375E+03  0.56955540350E+03  0.57853867699E+03  0.00000000000E+00 0.  1.
<mgrwt>
<rscale>  1 0.12840043E+03</rscale>
<asrwt>0</asrwt>
<pdfrwt beam="1">  1       21 0.10676347E+00 0.12840043E+03</pdfrwt>
<pdfrwt beam="2">  1       -1 0.59789318E-02 0.12840043E+03</pdfrwt>
<totfact> 0.84469909E+03</totfact>
</mgrwt>
</event>
<event>
 6    2  0.7993170E+000  0.8774328E+02  0.7546771E-02  0.1308411E+00
          2   -1    0    0  502    0 -0.00000000000E+00  0.00000000000E+00  0.23474840725E+03  0.23474840725E+03  0.00000000000E+00 0. -1.
         21   -1    0    0  501  502  0.00000000000E+00 -0.00000000000E+00 -0.14913777288E+02  0.14913777288E+02  0.00000000000E+00 0.  1.
         24    2    1    2    0    0  0.20631631501E+02 -0.18033769546E+02  0.13967673495E+03  0.16494991154E+03  0.83354675759E+02 0.  0.
        -13    1    3    3    0    0 -0.20127148912E+02  0.12977941670E+02  0.10802755374E+02  0.26272202363E+02  0.00000000000E+00 0.  1.
         14    1    3    3    0    0  0.40758780413E+02 -0.31011711216E+02  0.12887397957E+03  0.13867770918E+03  0.00000000000E+00 0. -1.
          1    1    1    2  501    0 -0.20631631501E+02  0.18033769546E+02  0.80157895020E+02  0.84712272997E+02  0.00000000000E+00 0. -1.
<mgrwt>
<rscale>  1 0.87743279E+02</rscale>
<asrwt>0</asrwt>
<pdfrwt beam="1">  1       21 0.22944274E-02 0.87743279E+02</pdfrwt>
<pdfrwt beam="2">  1        2 0.36115137E-01 0.87743279E+02</pdfrwt>
<totfact> 0.16035419E+06</totfact>
</mgrwt>
</event>
<event>
 6    2  0.7993170E+000  0.8445718E+02  0.7546771E-02  0.1316858E+00
         21   -1    0    0  501  502  0.00000000000E+00  0.00000000000E+00  0.60255393012E+01  0.60255393012E+01  0.00000000000E+00 0. -1.
          2   -1    0    0  502    0 -0.00000000000E+00 -0.00000000000E+00 -0.13887008699E+04  0.13887008699E+04  0.00000000000E+00 0. -1.
         24    2    1    2    0    0 -0.17629913984E+02  0.12601425094E+02 -0.13625093419E+04  0.13651244349E+04  0.81629690030E+02 0.  0.
        -13    1    3    3    0    0 -0.39050416739E+02  0.17155266942E+01 -0.32576357479E+03  0.32810026629E+03  0.00000000000E+00 0.  1.
         14    1    3    3    0    0  0.21420502755E+02  0.10885898400E+02 -0.10367457671E+04  0.10370241686E+04  0.00000000000E+00 0. -1.
          1    1    1    2  501    0  0.17629913984E+02 -0.12601425094E+02 -0.20165988746E+02  0.29601974319E+02  0.00000000000E+00 0. -1.
<mgrwt>
<rscale>  1 0.84457185E+02</rscale>
<asrwt>0</asrwt>
<pdfrwt beam="1">  1       21 0.92700635E-03 0.84457185E+02</pdfrwt>
<pdfrwt beam="2">  1        2 0.21364622E+00 0.84457185E+02</pdfrwt>
<totfact> 0.81806887E+05</totfact>
</mgrwt>
</event>
<event>
 6    2  0.7993170E+000  0.1100446E+03  0.7546771E-02  0.1260487E+00
         21   -1    0    0  501  502  0.00000000000E+00  0.00000000000E+00  0.94575734172E+01  0.94575734172E+01  0.00000000000E+00 0. -1.
          2   -1    0    0  502    0 -0.00000000000E+00 -0.00000000000E+00 -0.17176026808E+04  0.17176026808E+04  0.00000000000E+00 0. -1.
         24    2    1    2    0    0 -0.30302702562E+02 -0.57700167279E+02 -0.15748011878E+04  0.15786413741E+04  0.88669294663E+02 0.  0.
        -13    1    3    3    0    0 -0.10667563496E+02  0.22195721079E+02 -0.22711194086E+03  0.22844316717E+03  0.00000000000E+00 0.  1.
         14    1    3    3    0    0 -0.19635139066E+02 -0.79895888358E+02 -0.13476892470E+04  0.13501982070E+04  0.00000000000E+00 0. -1.
          1    1    1    2  501    0  0.30302702562E+02  0.57700167279E+02 -0.13334391955E+03  0.14841888009E+03  0.00000000000E+00 0. -1.
<mgrwt>
<rscale>  1 0.11004457E+03</rscale>
<asrwt>0</asrwt>
<pdfrwt beam="1">  1       21 0.14550126E-02 0.11004457E+03</pdfrwt>
<pdfrwt beam="2">  1        2 0.26424634E+00 0.11004457E+03</pdfrwt>
<totfact> 0.27651170E+05</totfact>
</mgrwt>
</event>
<event>
 6    2  0.7993170E+000  0.7649672E+02  0.7546771E-02  0.1339298E+00
          2   -1    0    0  502    0 -0.00000000000E+00  0.00000000000E+00  0.11030466337E+03  0.11030466337E+03  0.00000000000E+00 0. -1.
         21   -1    0    0  501  502  0.00000000000E+00 -0.00000000000E+00 -0.32608076188E+02  0.32608076188E+02  0.00000000000E+00 0. -1.
         24    2    1    2    0    0 -0.21022314619E+02 -0.46222599342E+01  0.90002020930E+02  0.11811905692E+03  0.73406027258E+02 0.  0.
        -11    1    3    3    0    0 -0.32549250651E+02  0.25837996244E+02  0.35637920522E+02  0.54745932698E+02  0.00000000000E+00 0.  1.
         12    1    3    3    0    0  0.11526936032E+02 -0.30460256179E+02  0.54364100408E+02  0.63373124224E+02  0.00000000000E+00 0. -1.
          1    1    1    2  501    0  0.21022314619E+02  0.46222599342E+01 -0.12305433749E+02  0.24793682634E+02  0.00000000000E+00 0. -1.
<mgrwt>
<rscale>  1 0.76496718E+02</rscale>
<asrwt>0</asrwt>
<pdfrwt beam="1">  1       21 0.50166272E-02 0.76496718E+02</pdfrwt>
<pdfrwt beam="2">  1        2 0.16969948E-01 0.76496718E+02</pdfrwt>
<totfact> 0.10025479E+06</totfact>
</mgrwt>
</event>
<event>
 6    2  0.7993170E+000  0.1013571E+03  0.7546771E-02  0.1277468E+00
         21   -1    0    0  501  502  0.00000000000E+00  0.00000000000E+00  0.34430628871E+03  0.34430628871E+03  0.00000000000E+00 0. -1.
          4   -1    0    0  502    0 -0.00000000000E+00 -0.00000000000E+00 -0.31335700550E+02  0.31335700550E+02  0.00000000000E+00 0. -1.
         24    2    1    2    0    0  0.48861940787E+02 -0.38204037857E+02  0.65881044294E+02  0.12088665476E+03  0.80163791929E+02 0.  0.
        -13    1    3    3    0    0  0.12632959582E+01 -0.64494618669E+01  0.63267851977E+02  0.63608274374E+02  0.00000000000E+00 0.  1.
         14    1    3    3    0    0  0.47598644829E+02 -0.31754575990E+02  0.26131923165E+01  0.57278380389E+02  0.00000000000E+00 0. -1.
          3    1    1    2  501    0 -0.48861940787E+02  0.38204037857E+02  0.24708954386E+03  0.25475533449E+03  0.00000000000E+00 0. -1.
<mgrwt>
<rscale>  1 0.10135715E+03</rscale>
<asrwt>0</asrwt>
<pdfrwt beam="1">  1       21 0.52970196E-01 0.10135715E+03</pdfrwt>
<pdfrwt beam="2">  1        4 0.48208772E-02 0.10135715E+03</pdfrwt>
<totfact> 0.33882605E+04</totfact>
</mgrwt>
</event>
<event>
 6    2  0.7993170E+000  0.8511346E+02  0.7546771E-02  0.1315136E+00
         -3   -1    0    0    0  501 -0.00000000000E+00  0.00000000000E+00  0.11528388935E+02  0.11528388935E+02  0.00000000000E+00 0.  1.
         21   -1    0    0  501  502  0.00000000000E+00 -0.00000000000E+00 -0.41135235865E+03  0.41135235865E+03  0.00000000000E+00 0.  1.
         24    2    1    2    0    0 -0.23987451161E+02  0.77524104197E+01 -0.15558527159E+03  0.17734451942E+03  0.81294551795E+02 0.  0.
        -13    1    3    3    0    0 -0.52634289032E+02  0.13582315238E+02 -0.11629021737E+03  0.12836768412E+03  0.00000000000E+00 0.  1.
         14    1    3    3    0    0  0.28646837871E+02 -0.58299048178E+01 -0.39295054220E+02  0.48976835304E+02  0.00000000000E+00 0. -1.
         -4    1    1    2    0  502  0.23987451161E+02 -0.77524104197E+01 -0.24423869812E+03  0.24553622816E+03  0.00000000000E+00 0.  1.
<mgrwt>
<rscale>  1 0.85113464E+02</rscale>
<asrwt>0</asrwt>
<pdfrwt beam="1">  1       21 0.63284978E-01 0.85113464E+02</pdfrwt>
<pdfrwt beam="2">  1       -3 0.17735983E-02 0.85113464E+02</pdfrwt>
<totfact> 0.11975566E+05</totfact>
</mgrwt>
</event>
<event>
 6    2  0.7993170E+000  0.8718238E+02  0.7546771E-02  0.1309822E+00
         21   -1    0    0  501  502  0.00000000000E+00  0.00000000000E+00  0.28805250028E+01  0.28805250028E+01  0.00000000000E+00 0.  1.
          2   -1    0    0  502    0 -0.00000000000E+00 -0.00000000000E+00 -0.12926826527E+04  0.12926826527E+04  0.00000000000E+00 0. -1.
         24    2    1    2    0    0  0.19612576502E+02  0.20615127585E+02 -0.75738614315E+03  0.76238739314E+03  0.82408317186E+02 0.  0.
        -11    1    3    3    0    0  0.38978147462E+02  0.27569684019E+02 -0.24614958854E+03  0.25073692069E+03  0.00000000000E+00 0.  1.
         12    1    3    3    0    0 -0.19365570961E+02 -0.69545564336E+01 -0.51123655461E+03  0.51165047246E+03  0.00000000000E+00 0. -1.
          1    1    1    2  501    0 -0.19612576502E+02 -0.20615127585E+02 -0.53241598454E+03  0.53317578456E+03  0.00000000000E+00 0. -1.
<mgrwt>
<rscale>  1 0.87182380E+02</rscale>
<asrwt>0</asrwt>
<pdfrwt beam="1">  1       21 0.44315624E-03 0.87182380E+02</pdfrwt>
<pdfrwt beam="2">  1        2 0.19887491E+00 0.87182380E+02</pdfrwt>
<totfact> 0.28711694E+06</totfact>
</mgrwt>
</event>
<event>
 6    2  0.7993170E+000  0.1043755E+03  0.7546771E-02  0.1271355E+00
         21   -1    0    0  501  502  0.00000000000E+00  0.00000000000E+00  0.11921592887E+03  0.11921592887E+03  0.00000000000E+00 0. -1.
          2   -1    0    0  502    0 -0.00000000000E+00 -0.00000000000E+00 -0.33357278179E+03  0.33357278179E+03  0.00000000000E+00 0. -1.
         24    2    1    2    0    0  0.59648452270E+02 -0.28038443618E+02 -0.31535949883E+03  0.33218345928E+03  0.80932965695E+02 0.  0.
        -13    1    3    3    0    0 -0.20240138373E+02 -0.55343700528E+01 -0.52742730845E+02  0.56763439908E+02  0.00000000000E+00 0.  1.
         14    1    3    3    0    0  0.79888590643E+02 -0.22504073565E+02 -0.26261676799E+03  0.27542001937E+03  0.00000000000E+00 0. -1.
          1    1    1    2  501    0 -0.59648452270E+02  0.28038443618E+02  0.10100264591E+03  0.12060525138E+03  0.00000000000E+00 0. -1.
<mgrwt>
<rscale>  1 0.10437546E+03</rscale>
<asrwt>0</asrwt>
<pdfrwt beam="1">  1       21 0.18340912E-01 0.10437546E+03</pdfrwt>
<pdfrwt beam="2">  1        2 0.51318890E-01 0.10437546E+03</pdfrwt>
<totfact> 0.32859984E+04</totfact>
</mgrwt>
</event>
<event>
 6    2  0.7993170E+000  0.8327223E+02  0.7546771E-02  0.1320014E+00
          2   -1    0    0  502    0 -0.00000000000E+00  0.00000000000E+00  0.12268802478E+04  0.12268802478E+04  0.00000000000E+00 0. -1.
         21   -1    0    0  501  502  0.00000000000E+00 -0.00000000000E+00 -0.25941001600E+01  0.25941001600E+01  0.00000000000E+00 0. -1.
         24    2    1    2    0    0 -0.11885160309E+02 -0.21179902947E+02  0.10755116021E+04  0.10787304900E+04  0.79651857416E+02 0.  0.
        -13    1    3    3    0    0 -0.31017614877E+02  0.18189309454E+02  0.33447584282E+03  0.33640308090E+03  0.00000000000E+00 0.  1.
         14    1    3    3    0    0  0.19132454568E+02 -0.39369212401E+02  0.74103575929E+03  0.74232740907E+03  0.00000000000E+00 0. -1.
          1    1    1    2  501    0  0.11885160309E+02  0.21179902947E+02  0.14877454549E+03  0.15074385795E+03  0.00000000000E+00 0. -1.
<mgrwt>
<rscale>  1 0.83272227E+02</rscale>
<asrwt>0</asrwt>
<pdfrwt beam="1">  1       21 0.39909331E-03 0.83272227E+02</pdfrwt>
<pdfrwt beam="2">  1        2 0.18875034E+00 0.83272227E+02</pdfrwt>
<totfact> 0.36339736E+06</totfact>
</mgrwt>
</event>
<event>
 6    2  0.7993170E+000  0.8841817E+02  0.7546771E-02  0.1306728E+00
         21   -1    0    0  501  502  0.00000000000E+00  0.00000000000E+00  0.23550544126E+01  0.23550544126E+01  0.00000000000E+00 0. -1.
          4   -1    0    0  502    0 -0.00000000000E+00 -0.00000000000E+00 -0.19681841741E+04  0.19681841741E+04  0.00000000000E+00 0. -1.
         24    2    1    2    0    0  0.31091691236E+02  0.17674416102E+02 -0.17022566428E+04  0.17045513926E+04  0.80862191523E+02 0.  0.
        -13    1    3    3    0    0  0.28611755121E+02 -0.61530871244E+01 -0.20254309021E+03  0.20464651574E+03  0.00000000000E+00 0.  1.
         14    1    3    3    0    0  0.24799361150E+01  0.23827503226E+02 -0.14997135526E+04  0.14999048769E+04  0.00000000000E+00 0. -1.
          3    1    1    2  501    0 -0.31091691236E+02 -0.17674416102E+02 -0.26357247691E+03  0.26598783588E+03  0.00000000000E+00 0. -1.
<mgrwt>
<rscale>  1 0.88418167E+02</rscale>
<asrwt>0</asrwt>
<pdfrwt beam="1">  1       21 0.36231503E-03 0.88418167E+02</pdfrwt>
<pdfrwt beam="2">  1        4 0.30279843E+00 0.88418167E+02</pdfrwt>
<totfact> 0.26093337E+04</totfact>
</mgrwt>
</event>
<event>
 6    2  0.7993170E+000  0.8977092E+02  0.7546771E-02  0.1303407E+00
         -1   -1    0    0    0  501 -0.00000000000E+00  0.00000000000E+00  0.32006804231E+02  0.32006804231E+02  0.00000000000E+00 0.  1.
         21   -1    0    0  501  502  0.00000000000E+00 -0.00000000000E+00 -0.10058578623E+03  0.10058578623E+03  0.00000000000E+00 0. -1.
         24    2    1    2    0    0  0.23641265117E+02 -0.17323881866E+01 -0.54729717598E+02  0.10513876177E+03  0.86584679094E+02 0.  0.
        -11    1    3    3    0    0  0.28496390227E+02 -0.21811971683E+02  0.99501810856E+01  0.37239931099E+02  0.00000000000E+00 0.  1.
         12    1    3    3    0    0 -0.48551251094E+01  0.20079583496E+02 -0.64679898683E+02  0.67898830674E+02  0.00000000000E+00 0. -1.
         -2    1    1    2    0  502 -0.23641265117E+02  0.17323881866E+01 -0.13849264403E+02  0.27453828689E+02  0.00000000000E+00 0.  1.
<mgrwt>
<rscale>  1 0.89770915E+02</rscale>
<asrwt>0</asrwt>
<pdfrwt beam="1">  1       21 0.15474736E-01 0.89770915E+02</pdfrwt>
<pdfrwt beam="2">  1       -1 0.49241238E-02 0.89770915E+02</pdfrwt>
<totfact> 0.54866967E+05</totfact>
</mgrwt>
</event>
<event>
 6    2  0.7993170E+000  0.8310134E+02  0.7546771E-02  0.1320474E+00
          2   -1    0    0  502    0 -0.00000000000E+00  0.00000000000E+00  0.51487399067E+03  0.51487399067E+03  0.00000000000E+00 0. -1.
         21   -1    0    0  501  502  0.00000000000E+00 -0.00000000000E+00 -0.17629569035E+02  0.17629569035E+02  0.00000000000E+00 0. -1.
         24    2    1    2    0    0 -0.14409093368E+02  0.16470414256E+02  0.50304605570E+03  0.50986387165E+03  0.80168179054E+02 0.  0.
        -11    1    3    3    0    0 -0.20154479546E+02 -0.28836322845E+02  0.16218516822E+03  0.16595711902E+03  0.00000000000E+00 0.  1.
         12    1    3    3    0    0  0.57453861783E+01  0.45306737102E+02  0.34086088748E+03  0.34390675263E+03  0.00000000000E+00 0. -1.
          1    1    1    2  501    0  0.14409093368E+02 -0.16470414256E+02 -0.58016340708E+01  0.22639688058E+02  0.00000000000E+00 0. -1.
<mgrwt>
<rscale>  1 0.83101344E+02</rscale>
<asrwt>0</asrwt>
<pdfrwt beam="1">  1       21 0.27122418E-02 0.83101344E+02</pdfrwt>
<pdfrwt beam="2">  1        2 0.79211372E-01 0.83101344E+02</pdfrwt>
<totfact> 0.53327022E+05</totfact>
</mgrwt>
</event>
<event>
 6    2  0.7993170E+000  0.8556204E+02  0.7546771E-02  0.1313969E+00
         21   -1    0    0  501  502  0.00000000000E+00  0.00000000000E+00  0.95392886268E+00  0.95392886268E+00  0.00000000000E+00 0.  1.
          2   -1    0    0  502    0 -0.00000000000E+00 -0.00000000000E+00 -0.32659454201E+04  0.32659454201E+04  0.00000000000E+00 0. -1.
         24    2    1    2    0    0  0.56891654200E+01  0.24737322817E+02 -0.26596052538E+04  0.26609812042E+04  0.81710225909E+02 0.  0.
        -11    1    3    3    0    0  0.23285004727E+02  0.29376861277E+02 -0.54072054883E+03  0.54201836071E+03  0.00000000000E+00 0.  1.
         12    1    3    3    0    0 -0.17595839308E+02 -0.46395384602E+01 -0.21188847050E+04  0.21189628435E+04  0.00000000000E+00 0. -1.
          1    1    1    2  501    0 -0.56891654200E+01 -0.24737322817E+02 -0.60538623745E+03  0.60591814483E+03  0.00000000000E+00 0. -1.
<mgrwt>
<rscale>  1 0.85562040E+02</rscale>
<asrwt>0</asrwt>
<pdfrwt beam="1">  1       21 0.14675703E-03 0.85562040E+02</pdfrwt>
<pdfrwt beam="2">  1        2 0.50245744E+00 0.85562040E+02</pdfrwt>
<totfact> 0.13770661E+06</totfact>
</mgrwt>
</event>
<event>
 6    2  0.7993170E+000  0.1028348E+03  0.7546771E-02  0.1274445E+00
          2   -1    0    0  502    0 -0.00000000000E+00  0.00000000000E+00  0.25664042431E+03  0.25664042431E+03  0.00000000000E+00 0. -1.
         21   -1    0    0  501  502  0.00000000000E+00 -0.00000000000E+00 -0.24269196511E+03  0.24269196511E+03  0.00000000000E+00 0. -1.
         24    2    1    2    0    0  0.89061890644E+01 -0.62988098019E+02  0.24180435697E+03  0.26276288410E+03  0.80797063789E+02 0.  0.
        -11    1    3    3    0    0  0.10724015049E+02  0.13876528216E+02  0.99332499177E+02  0.10086876586E+03  0.00000000000E+00 0.  1.
         12    1    3    3    0    0 -0.18178259846E+01 -0.76864626235E+02  0.14247185779E+03  0.16189411824E+03  0.00000000000E+00 0. -1.
          1    1    1    2  501    0 -0.89061890644E+01  0.62988098019E+02 -0.22785589777E+03  0.23656950531E+03  0.00000000000E+00 0. -1.
<mgrwt>
<rscale>  1 0.10283475E+03</rscale>
<asrwt>0</asrwt>
<pdfrwt beam="1">  1       21 0.37337225E-01 0.10283475E+03</pdfrwt>
<pdfrwt beam="2">  1        2 0.39483142E-01 0.10283475E+03</pdfrwt>
<totfact> 0.11289162E+04</totfact>
</mgrwt>
</event>
<event>
 6    2  0.7993170E+000  0.1149991E+03  0.7546771E-02  0.1251583E+00
         -1   -1    0    0    0  501 -0.00000000000E+00  0.00000000000E+00  0.36957189426E+02  0.36957189426E+02  0.00000000000E+00 0.  1.
         21   -1    0    0  501  502  0.00000000000E+00 -0.00000000000E+00 -0.36370236913E+03  0.36370236913E+03  0.00000000000E+00 0.  1.
         24    2    1    2    0    0 -0.61507323561E+02  0.51348457194E+02 -0.77052766395E+02  0.13842661598E+03  0.82492328703E+02 0.  0.
        -11    1    3    3    0    0 -0.66859987876E+02  0.68285677830E+02 -0.55563466351E+02  0.11054632770E+03  0.00000000000E+00 0.  1.
         12    1    3    3    0    0  0.53526643147E+01 -0.16937220635E+02 -0.21489300044E+02  0.27880288279E+02  0.00000000000E+00 0. -1.
         -2    1    1    2    0  502  0.61507323561E+02 -0.51348457194E+02 -0.24969241331E+03  0.26223294258E+03  0.00000000000E+00 0.  1.
<mgrwt>
<rscale>  1 0.11499913E+03</rscale>
<asrwt>0</asrwt>
<pdfrwt beam="1">  1       21 0.55954212E-01 0.11499913E+03</pdfrwt>
<pdfrwt beam="2">  1       -1 0.56857213E-02 0.11499913E+03</pdfrwt>
<totfact> 0.38230995E+04</totfact>
</mgrwt>
</event>
<event>
 6    2  0.7993170E+000  0.8403987E+02  0.7546771E-02  0.1317963E+00
         21   -1    0    0  501  502  0.00000000000E+00  0.00000000000E+00  0.18534071797E+02  0.18534071797E+02  0.00000000000E+00 0. -1.
          2   -1    0    0  502    0 -0.00000000000E+00 -0.00000000000E+00 -0.16287395835E+04  0.16287395835E+04  0.00000000000E+00 0. -1.
         24    2    1    2    0    0  0.11075229226E+02 -0.25786252602E+02 -0.16163595008E+04  0.16185427815E+04  0.79215581089E+02 0.  0.
        -13    1    3    3    0    0  0.11781884894E+02  0.77751012442E+01 -0.53749126843E+02  0.55571878206E+02  0.00000000000E+00 0.  1.
         14    1    3    3    0    0 -0.70665566839E+00 -0.33561353846E+02 -0.15626103740E+04  0.15629709033E+04  0.00000000000E+00 0. -1.
          1    1    1    2  501    0 -0.11075229226E+02  0.25786252602E+02  0.61539890967E+01  0.28730873767E+02  0.00000000000E+00 0. -1.
<mgrwt>
<rscale>  1 0.84039870E+02</rscale>
<asrwt>0</asrwt>
<pdfrwt beam="1">  1       21 0.28513959E-02 0.84039870E+02</pdfrwt>
<pdfrwt beam="2">  1        2 0.25057530E+00 0.84039870E+02</pdfrwt>
<totfact> 0.10388731E+05</totfact>
</mgrwt>
</event>
<event>
 6    2  0.7993170E+000  0.9079584E+02  0.7546771E-02  0.1300936E+00
          2   -1    0    0  502    0 -0.00000000000E+00  0.00000000000E+00  0.24319144179E+04  0.24319144179E+04  0.00000000000E+00 0. -1.
         21   -1    0    0  501  502  0.00000000000E+00 -0.00000000000E+00 -0.31024474034E+01  0.31024474034E+01  0.00000000000E+00 0. -1.
         24    2    1    2    0    0  0.59189040291E+00  0.39843990649E+02  0.22494510927E+04  0.22512827683E+04  0.81584253244E+02 0.  0.
        -11    1    3    3    0    0 -0.18709173886E+02  0.57954107773E+02  0.12515796472E+04  0.12530603836E+04  0.00000000000E+00 0.  1.
         12    1    3    3    0    0  0.19301064289E+02 -0.18110117124E+02  0.99787144550E+03  0.99822238463E+03  0.00000000000E+00 0. -1.
          1    1    1    2  501    0 -0.59189040291E+00 -0.39843990649E+02  0.17936087777E+03  0.18373409700E+03  0.00000000000E+00 0. -1.
<mgrwt>
<rscale>  1 0.90795839E+02</rscale>
<asrwt>0</asrwt>
<pdfrwt beam="1">  1       21 0.47730154E-03 0.90795839E+02</pdfrwt>
<pdfrwt beam="2">  1        2 0.37413916E+00 0.90795839E+02</pdfrwt>
<totfact> 0.67717931E+05</totfact>
</mgrwt>
</event>
<event>
 6    2  0.7993170E+000  0.8487627E+02  0.7546771E-02  0.1315756E+00
          2   -1    0    0  502    0 -0.00000000000E+00  0.00000000000E+00  0.11847873998E+04  0.11847873998E+04  0.00000000000E+00 0. -1.
         21   -1    0    0  501  502  0.00000000000E+00 -0.00000000000E+00 -0.15887014592E+02  0.15887014592E+02  0.00000000000E+00 0. -1.
         24    2    1    2    0    0  0.20838479156E+02  0.14592788843E+02  0.11719793966E+04  0.11750488020E+04  0.80974004091E+02 0.  0.
        -13    1    3    3    0    0 -0.52775421033E+01 -0.29727291587E+02  0.28917796764E+03  0.29074982594E+03  0.00000000000E+00 0.  1.
         14    1    3    3    0    0  0.26116021259E+02  0.44320080429E+02  0.88280142897E+03  0.88429897607E+03  0.00000000000E+00 0. -1.
          1    1    1    2  501    0 -0.20838479156E+02 -0.14592788843E+02 -0.30790113795E+01  0.25625612399E+02  0.00000000000E+00 0. -1.
<mgrwt>
<rscale>  1 0.84876269E+02</rscale>
<asrwt>0</asrwt>
<pdfrwt beam="1">  1       21 0.24441570E-02 0.84876269E+02</pdfrwt>
<pdfrwt beam="2">  1        2 0.18227491E+00 0.84876269E+02</pdfrwt>
<totfact> 0.22637326E+05</totfact>
</mgrwt>
</event>
<event>
 6    2  0.7993170E+000  0.1084667E+03  0.7546771E-02  0.1263436E+00
         21   -1    0    0  501  502  0.00000000000E+00  0.00000000000E+00  0.19730099168E+01  0.19730099168E+01  0.00000000000E+00 0. -1.
          2   -1    0    0  502    0 -0.00000000000E+00 -0.00000000000E+00 -0.33668463437E+04  0.33668463437E+04  0.00000000000E+00 0. -1.
         24    2    1    2    0    0 -0.11695279063E+02  0.22501582385E+02 -0.15593178616E+04  0.15630858007E+04  0.10546054375E+03 0.  0.
        -13    1    3    3    0    0  0.44676633829E+02 -0.45497468122E+01 -0.76036958479E+03  0.76169456299E+03  0.00000000000E+00 0.  1.
         14    1    3    3    0    0 -0.56371912891E+02  0.27051329197E+02 -0.79894827677E+03  0.80139123774E+03  0.00000000000E+00 0. -1.
          1    1    1    2  501    0  0.11695279063E+02 -0.22501582385E+02 -0.18055554722E+04  0.18057335529E+04  0.00000000000E+00 0. -1.
<mgrwt>
<rscale>  1 0.10846671E+03</rscale>
<asrwt>0</asrwt>
<pdfrwt beam="1">  1       21 0.30354124E-03 0.10846671E+03</pdfrwt>
<pdfrwt beam="2">  1        2 0.51797422E+00 0.10846671E+03</pdfrwt>
<totfact> 0.40152748E+05</totfact>
</mgrwt>
</event>
<event>
 6    2  0.7993170E+000  0.1059714E+03  0.7546771E-02  0.1268217E+00
         21   -1    0    0  501  502  0.00000000000E+00  0.00000000000E+00  0.65387118377E+01  0.65387118377E+01  0.00000000000E+00 0. -1.
          2   -1    0    0  502    0 -0.00000000000E+00 -0.00000000000E+00 -0.10869183940E+04  0.10869183940E+04  0.00000000000E+00 0. -1.
         24    2    1    2    0    0 -0.48772163392E+02 -0.39299412995E+02 -0.67917433258E+03  0.68739196289E+03  0.85479639840E+02 0.  0.
        -11    1    3    3    0    0 -0.62696037005E+02  0.13950428869E-01 -0.34809537001E+03  0.35369645160E+03  0.00000000000E+00 0.  1.
         12    1    3    3    0    0  0.13923873614E+02 -0.39313363424E+02 -0.33107896258E+03  0.33369551130E+03  0.00000000000E+00 0. -1.
          1    1    1    2  501    0  0.48772163392E+02  0.39299412995E+02 -0.40120534962E+03  0.40606514298E+03  0.00000000000E+00 0. -1.
<mgrwt>
<rscale>  1 0.10597140E+03</rscale>
<asrwt>0</asrwt>
<pdfrwt beam="1">  1       21 0.10059564E-02 0.10597140E+03</pdfrwt>
<pdfrwt beam="2">  1        2 0.16721808E+00 0.10597140E+03</pdfrwt>
<totfact> 0.10637648E+06</totfact>
</mgrwt>
</event>
<event>
 6    2  0.7993170E+000  0.8870892E+02  0.7546771E-02  0.1306009E+00
         21   -1    0    0  501  502  0.00000000000E+00  0.00000000000E+00  0.32109978542E+01  0.32109978542E+01  0.00000000000E+00 0. -1.
         -1   -1    0    0    0  501 -0.00000000000E+00 -0.00000000000E+00 -0.14087673887E+04  0.14087673887E+04  0.00000000000E+00 0.  1.
         24    2    1    2    0    0 -0.30767875819E+02 -0.22118186486E+02 -0.11735399829E+04  0.11768879998E+04  0.80208456008E+02 0.  0.
        -11    1    3    3    0    0  0.13173023162E+02  0.53773183723E+01 -0.45840540278E+02  0.47997908549E+02  0.00000000000E+00 0.  1.
         12    1    3    3    0    0 -0.43940898981E+02 -0.27495504858E+02 -0.11276994426E+04  0.11288900913E+04  0.00000000000E+00 0. -1.
         -2    1    1    2    0  502  0.30767875819E+02  0.22118186486E+02 -0.23201640798E+03  0.23509038672E+03  0.00000000000E+00 0.  1.
<mgrwt>
<rscale>  1 0.88708922E+02</rscale>
<asrwt>0</asrwt>
<pdfrwt beam="1">  1       21 0.49399908E-03 0.88708922E+02</pdfrwt>
<pdfrwt beam="2">  1       -1 0.21673370E+00 0.88708922E+02</pdfrwt>
<totfact> 0.13530237E+05</totfact>
</mgrwt>
</event>
<event>
 6    2  0.7993170E+000  0.8427737E+02  0.7546771E-02  0.1317333E+00
         21   -1    0    0  501  502  0.00000000000E+00  0.00000000000E+00  0.14146203630E+02  0.14146203630E+02  0.00000000000E+00 0.  1.
         -3   -1    0    0    0  501 -0.00000000000E+00 -0.00000000000E+00 -0.73403017475E+03  0.73403017475E+03  0.00000000000E+00 0.  1.
         24    2    1    2    0    0 -0.11908986448E+02  0.16667552629E+02 -0.72261256844E+03  0.72751054880E+03  0.81749882433E+02 0.  0.
        -13    1    3    3    0    0 -0.39929774749E+02  0.32012444669E+02 -0.38426336797E+03  0.38765644518E+03  0.00000000000E+00 0.  1.
         14    1    3    3    0    0  0.28020788301E+02 -0.15344892040E+02 -0.33834920047E+03  0.33985410362E+03  0.00000000000E+00 0. -1.
         -4    1    1    2    0  502  0.11908986448E+02 -0.16667552629E+02  0.27285973222E+01  0.20665829579E+02  0.00000000000E+00 0.  1.
<mgrwt>
<rscale>  1 0.84277367E+02</rscale>
<asrwt>0</asrwt>
<pdfrwt beam="1">  1       21 0.21763389E-02 0.84277367E+02</pdfrwt>
<pdfrwt beam="2">  1       -3 0.11292772E+00 0.84277367E+02</pdfrwt>
<totfact> 0.33439613E+04</totfact>
</mgrwt>
</event>
<event>
 6    2  0.7993170E+000  0.1004378E+03  0.7546771E-02  0.1279378E+00
          2   -1    0    0  502    0 -0.00000000000E+00  0.00000000000E+00  0.18500197881E+04  0.18500197881E+04  0.00000000000E+00 0. -1.
         21   -1    0    0  501  502  0.00000000000E+00 -0.00000000000E+00 -0.44416297630E+01  0.44416297630E+01  0.00000000000E+00 0. -1.
         24    2    1    2    0    0  0.13974195138E+02 -0.56866561349E+02  0.15432161787E+04  0.15464811415E+04  0.81600629461E+02 0.  0.
        -13    1    3    3    0    0  0.39021547847E+01 -0.34899127899E+02  0.20080502039E+03  0.20385247644E+03  0.00000000000E+00 0.  1.
         14    1    3    3    0    0  0.10072040353E+02 -0.21967433451E+02  0.13424111583E+04  0.13426286650E+04  0.00000000000E+00 0. -1.
          1    1    1    2  501    0 -0.13974195138E+02  0.56866561349E+02  0.30236197961E+03  0.30798027639E+03  0.00000000000E+00 0. -1.
<mgrwt>
<rscale>  1 0.10043778E+03</rscale>
<asrwt>0</asrwt>
<pdfrwt beam="1">  1       21 0.68332913E-03 0.10043778E+03</pdfrwt>
<pdfrwt beam="2">  1        2 0.28461781E+00 0.10043778E+03</pdfrwt>
<totfact> 0.77357743E+05</totfact>
</mgrwt>
</event>
<event>
 6    2  0.7993170E+000  0.8167774E+02  0.7546771E-02  0.1324357E+00
         21   -1    0    0  501  502  0.00000000000E+00  0.00000000000E+00  0.22830241826E+02  0.22830241826E+02  0.00000000000E+00 0. -1.
          2   -1    0    0  502    0 -0.00000000000E+00 -0.00000000000E+00 -0.15046395903E+03  0.15046395903E+03  0.00000000000E+00 0. -1.
         24    2    1    2    0    0  0.77584522919E+01  0.22153910492E+02 -0.12548145429E+03  0.14972257453E+03  0.78232120138E+02 0.  0.
        -11    1    3    3    0    0 -0.33207215371E+02 -0.45819735918E+00 -0.67396588168E+02  0.75134740262E+02  0.00000000000E+00 0.  1.
         12    1    3    3    0    0  0.40965667663E+02  0.22612107851E+02 -0.58084866120E+02  0.74587834267E+02  0.00000000000E+00 0. -1.
          1    1    1    2  501    0 -0.77584522919E+01 -0.22153910492E+02 -0.21522629173E+01  0.23571626328E+02  0.00000000000E+00 0. -1.
<mgrwt>
<rscale>  1 0.81677745E+02</rscale>
<asrwt>0</asrwt>
<pdfrwt beam="1">  1       21 0.35123448E-02 0.81677745E+02</pdfrwt>
<pdfrwt beam="2">  1        2 0.23148302E-01 0.81677745E+02</pdfrwt>
<totfact> 0.12850708E+06</totfact>
</mgrwt>
</event>
<event>
 6    2  0.7993170E+000  0.1045167E+03  0.7546771E-02  0.1271075E+00
         21   -1    0    0  501  502  0.00000000000E+00  0.00000000000E+00  0.68596703127E+01  0.68596703127E+01  0.00000000000E+00 0. -1.
          2   -1    0    0  502    0 -0.00000000000E+00 -0.00000000000E+00 -0.10472463868E+04  0.10472463868E+04  0.00000000000E+00 0. -1.
         24    2    1    2    0    0  0.36244497740E+02 -0.48861566799E+02 -0.53880840736E+03  0.54885174836E+03  0.84986031260E+02 0.  0.
        -13    1    3    3    0    0  0.22831533665E+02 -0.42791815205E+02 -0.52886880289E+03  0.53108815563E+03  0.00000000000E+00 0.  1.
         14    1    3    3    0    0  0.13412964075E+02 -0.60697515947E+01 -0.99396044685E+01  0.17763592730E+02  0.00000000000E+00 0. -1.
          1    1    1    2  501    0 -0.36244497740E+02  0.48861566799E+02 -0.50157830916E+03  0.50525430879E+03  0.00000000000E+00 0. -1.
<mgrwt>
<rscale>  1 0.10451671E+03</rscale>
<asrwt>0</asrwt>
<pdfrwt beam="1">  1       21 0.10553341E-02 0.10451671E+03</pdfrwt>
<pdfrwt beam="2">  1        2 0.16111480E+00 0.10451671E+03</pdfrwt>
<totfact> 0.10386585E+06</totfact>
</mgrwt>
</event>
<event>
 6    2  0.7993170E+000  0.1040837E+03  0.7546771E-02  0.1271936E+00
         21   -1    0    0  501  502  0.00000000000E+00  0.00000000000E+00  0.24824269696E+02  0.24824269696E+02  0.00000000000E+00 0.  1.
          2   -1    0    0  502    0 -0.00000000000E+00 -0.00000000000E+00 -0.29146546735E+03  0.29146546735E+03  0.00000000000E+00 0. -1.
         24    2    1    2    0    0 -0.36585497833E+02  0.54651575023E+02 -0.17200753431E+03  0.20104728158E+03  0.80672946310E+02 0.  0.
        -11    1    3    3    0    0 -0.56589666331E+02  0.25860076957E+02 -0.72461950636E+02  0.95508471905E+02  0.00000000000E+00 0.  1.
         12    1    3    3    0    0  0.20004168498E+02  0.28791498067E+02 -0.99545583672E+02  0.10553880967E+03  0.00000000000E+00 0. -1.
          1    1    1    2  501    0  0.36585497833E+02 -0.54651575023E+02 -0.94633663348E+02  0.11524245547E+03  0.00000000000E+00 0. -1.
<mgrwt>
<rscale>  1 0.10408370E+03</rscale>
<asrwt>0</asrwt>
<pdfrwt beam="1">  1       21 0.38191185E-02 0.10408370E+03</pdfrwt>
<pdfrwt beam="2">  1        2 0.44840840E-01 0.10408370E+03</pdfrwt>
<totfact> 0.56709414E+05</totfact>
</mgrwt>
</event>
<event>
 6    2  0.7993170E+000  0.8286997E+02  0.7546771E-02  0.1321099E+00
          2   -1    0    0  502    0 -0.00000000000E+00  0.00000000000E+00  0.10568574840E+04  0.10568574840E+04  0.00000000000E+00 0. -1.
         21   -1    0    0  501  502  0.00000000000E+00 -0.00000000000E+00 -0.31725121639E+01  0.31725121639E+01  0.00000000000E+00 0.  1.
         24    2    1    2    0    0  0.26429402070E+02  0.19854192547E+01  0.92120188055E+03  0.92492180004E+03  0.78517362882E+02 0.  0.
        -11    1    3    3    0    0  0.58380896799E+01 -0.45007712033E+00  0.31750567995E+01  0.66608442562E+01  0.00000000000E+00 0.  1.
         12    1    3    3    0    0  0.20591312390E+02  0.24354963750E+01  0.91802682375E+03  0.91826095579E+03  0.00000000000E+00 0. -1.
          1    1    1    2  501    0 -0.26429402070E+02 -0.19854192547E+01  0.13248309125E+03  0.13510819609E+03  0.00000000000E+00 0. -1.
<mgrwt>
<rscale>  1 0.82869967E+02</rscale>
<asrwt>0</asrwt>
<pdfrwt beam="1">  1       21 0.48807964E-03 0.82869967E+02</pdfrwt>
<pdfrwt beam="2">  1        2 0.16259318E+00 0.82869967E+02</pdfrwt>
<totfact> 0.33161890E+06</totfact>
</mgrwt>
</event>
<event>
 6    2  0.7993170E+000  0.8829613E+02  0.7546771E-02  0.1307031E+00
         -1   -1    0    0    0  501 -0.00000000000E+00  0.00000000000E+00  0.32929186201E+03  0.32929186201E+03  0.00000000000E+00 0.  1.
         21   -1    0    0  501  502  0.00000000000E+00 -0.00000000000E+00 -0.25701287731E+02  0.25701287731E+02  0.00000000000E+00 0.  1.
         24    2    1    2    0    0 -0.12768314291E+02 -0.25903614249E+02  0.31252872316E+03  0.32476207985E+03  0.83439670579E+02 0.  0.
        -11    1    3    3    0    0  0.20944555511E+02 -0.39067385694E+02  0.23574595950E+03  0.23987724455E+03  0.00000000000E+00 0.  1.
         12    1    3    3    0    0 -0.33712869802E+02  0.13163771445E+02  0.76782763658E+02  0.84884835300E+02  0.00000000000E+00 0. -1.
         -2    1    1    2    0  502  0.12768314291E+02  0.25903614249E+02 -0.89381488867E+01  0.30231069887E+02  0.00000000000E+00 0.  1.
<mgrwt>
<rscale>  1 0.88296125E+02</rscale>
<asrwt>0</asrwt>
<pdfrwt beam="1">  1       21 0.39540445E-02 0.88296125E+02</pdfrwt>
<pdfrwt beam="2">  1       -1 0.50660284E-01 0.88296125E+02</pdfrwt>
<totfact> 0.14158247E+05</totfact>
</mgrwt>
</event>
<event>
 6    2  0.7993170E+000  0.9421860E+02  0.7546771E-02  0.1292946E+00
         21   -1    0    0  501  502  0.00000000000E+00  0.00000000000E+00  0.49735914100E+01  0.49735914100E+01  0.00000000000E+00 0. -1.
          2   -1    0    0  502    0 -0.00000000000E+00 -0.00000000000E+00 -0.10619811738E+04  0.10619811738E+04  0.00000000000E+00 0. -1.
         24    2    1    2    0    0 -0.43513598775E+02 -0.13363352525E+02 -0.56037845940E+03  0.56824392888E+03  0.82493226889E+02 0.  0.
        -11    1    3    3    0    0 -0.36846726426E+02  0.25114839069E+02 -0.16425839461E+03  0.17020357397E+03  0.00000000000E+00 0.  1.
         12    1    3    3    0    0 -0.66668723496E+01 -0.38478191594E+02 -0.39612006478E+03  0.39804035491E+03  0.00000000000E+00 0. -1.
          1    1    1    2  501    0  0.43513598775E+02  0.13363352525E+02 -0.49662912297E+03  0.49871083631E+03  0.00000000000E+00 0. -1.
<mgrwt>
<rscale>  1 0.94218602E+02</rscale>
<asrwt>0</asrwt>
<pdfrwt beam="1">  1       21 0.76516643E-03 0.94218602E+02</pdfrwt>
<pdfrwt beam="2">  1        2 0.16338204E+00 0.94218602E+02</pdfrwt>
<totfact> 0.16690396E+06</totfact>
</mgrwt>
</event>
<event>
 6    2  0.7993170E+000  0.8400552E+02  0.7546771E-02  0.1318054E+00
          2   -1    0    0  502    0 -0.00000000000E+00  0.00000000000E+00  0.16801190065E+04  0.16801190065E+04  0.00000000000E+00 0. -1.
         21   -1    0    0  501  502  0.00000000000E+00 -0.00000000000E+00 -0.33586589210E+01  0.33586589210E+01  0.00000000000E+00 0. -1.
         24    2    1    2    0    0 -0.20399294954E+02  0.98206506803E+01  0.16226340532E+04  0.16248071263E+04  0.80897161509E+02 0.  0.
        -13    1    3    3    0    0 -0.32705723951E+02  0.30396031626E+02  0.52027094720E+03  0.52218334101E+03  0.00000000000E+00 0.  1.
         14    1    3    3    0    0  0.12306428996E+02 -0.20575380946E+02  0.11023631060E+04  0.11026237853E+04  0.00000000000E+00 0. -1.
          1    1    1    2  501    0  0.20399294954E+02 -0.98206506803E+01  0.54126294367E+02  0.58670539083E+02  0.00000000000E+00 0. -1.
<mgrwt>
<rscale>  1 0.84005519E+02</rscale>
<asrwt>0</asrwt>
<pdfrwt beam="1">  1       21 0.51671810E-03 0.84005519E+02</pdfrwt>
<pdfrwt beam="2">  1        2 0.25847918E+00 0.84005519E+02</pdfrwt>
<totfact> 0.14336965E+06</totfact>
</mgrwt>
</event>
<event>
 6    2  0.7993170E+000  0.8625749E+02  0.7546771E-02  0.1312176E+00
         21   -1    0    0  501  502  0.00000000000E+00  0.00000000000E+00  0.15457790577E+03  0.15457790577E+03  0.00000000000E+00 0. -1.
         -3   -1    0    0    0  501 -0.00000000000E+00 -0.00000000000E+00 -0.27266644929E+02  0.27266644929E+02  0.00000000000E+00 0.  1.
         24    2    1    2    0    0 -0.24537442751E+02 -0.21102755031E+02  0.54153103160E+02  0.10184749824E+03  0.79955875014E+02 0.  0.
        -11    1    3    3    0    0  0.11989638104E+02 -0.34963144872E+02  0.50538310486E+02  0.62612249185E+02  0.00000000000E+00 0.  1.
         12    1    3    3    0    0 -0.36527080856E+02  0.13860389840E+02  0.36147926743E+01  0.39235249056E+02  0.00000000000E+00 0. -1.
         -4    1    1    2    0  502  0.24537442751E+02  0.21102755031E+02  0.73158157677E+02  0.79997052454E+02  0.00000000000E+00 0.  1.
<mgrwt>
<rscale>  1 0.86257488E+02</rscale>
<asrwt>0</asrwt>
<pdfrwt beam="1">  1       21 0.23781216E-01 0.86257488E+02</pdfrwt>
<pdfrwt beam="2">  1       -3 0.41948685E-02 0.86257488E+02</pdfrwt>
<totfact> 0.22298225E+05</totfact>
</mgrwt>
</event>
<event>
 6    2  0.7993170E+000  0.1378908E+03  0.7546771E-02  0.1216196E+00
         21   -1    0    0  501  502  0.00000000000E+00  0.00000000000E+00  0.13923540353E+02  0.13923540353E+02  0.00000000000E+00 0.  1.
          2   -1    0    0  502    0 -0.00000000000E+00 -0.00000000000E+00 -0.14140713529E+04  0.14140713529E+04  0.00000000000E+00 0. -1.
         24    2    1    2    0    0  0.76040540322E+02 -0.75391231461E+02 -0.11134000917E+04  0.11219062510E+04  0.86878478932E+02 0.  0.
        -11    1    3    3    0    0  0.65045451322E+02 -0.74770971314E+02 -0.11004639211E+04  0.11049173953E+04  0.00000000000E+00 0.  1.
         12    1    3    3    0    0  0.10995088999E+02 -0.62026014644E+00 -0.12936170694E+02  0.16988855670E+02  0.00000000000E+00 0. -1.
          1    1    1    2  501    0 -0.76040540322E+02  0.75391231461E+02 -0.28674772082E+03  0.30608864231E+03  0.00000000000E+00 0. -1.
<mgrwt>
<rscale>  1 0.13789080E+03</rscale>
<asrwt>0</asrwt>
<pdfrwt beam="1">  1       21 0.21420834E-02 0.13789080E+03</pdfrwt>
<pdfrwt beam="2">  1        2 0.21754941E+00 0.13789080E+03</pdfrwt>
<totfact> 0.21399388E+05</totfact>
</mgrwt>
</event>
<event>
 6    2  0.7993170E+000  0.9711037E+02  0.7546771E-02  0.1286493E+00
          2   -1    0    0  502    0 -0.00000000000E+00  0.00000000000E+00  0.11486783181E+03  0.11486783181E+03  0.00000000000E+00 0. -1.
         21   -1    0    0  501  502  0.00000000000E+00 -0.00000000000E+00 -0.55166552783E+02  0.55166552783E+02  0.00000000000E+00 0. -1.
         24    2    1    2    0    0 -0.54328932044E+02 -0.25588274428E+01  0.62649303570E+02  0.11556539063E+03  0.80450256800E+02 0.  0.
        -13    1    3    3    0    0 -0.48347659497E+02  0.87563212297E+01 -0.24738854398E+01  0.49196437366E+02  0.00000000000E+00 0.  1.
         14    1    3    3    0    0 -0.59812725463E+01 -0.11315148673E+02  0.65123189009E+02  0.66368953265E+02  0.00000000000E+00 0. -1.
          1    1    1    2  501    0  0.54328932044E+02  0.25588274428E+01 -0.29480245386E+01  0.54468993965E+02  0.00000000000E+00 0. -1.
<mgrwt>
<rscale>  1 0.97110372E+02</rscale>
<asrwt>0</asrwt>
<pdfrwt beam="1">  1       21 0.84871620E-02 0.97110372E+02</pdfrwt>
<pdfrwt beam="2">  1        2 0.17671974E-01 0.97110372E+02</pdfrwt>
<totfact> 0.40404934E+05</totfact>
</mgrwt>
</event>
<event>
 6    2  0.7993170E+000  0.8381773E+02  0.7546771E-02  0.1318554E+00
         -1   -1    0    0    0  501 -0.00000000000E+00  0.00000000000E+00  0.40117157908E+03  0.40117157908E+03  0.00000000000E+00 0.  1.
         21   -1    0    0  501  502  0.00000000000E+00 -0.00000000000E+00 -0.71388606496E+01  0.71388606496E+01  0.00000000000E+00 0. -1.
         24    2    1    2    0    0  0.21107471267E+02  0.39884280078E+00  0.27754743301E+03  0.28992756031E+03  0.81115524046E+02 0.  0.
        -11    1    3    3    0    0  0.30332118200E+02 -0.14883470104E+02  0.26713274044E+03  0.26926094424E+03  0.00000000000E+00 0.  1.
         12    1    3    3    0    0 -0.92246469324E+01  0.15282312905E+02  0.10414692569E+02  0.20666616077E+02  0.00000000000E+00 0. -1.
         -2    1    1    2    0  502 -0.21107471267E+02 -0.39884280078E+00  0.11648528542E+03  0.11838287942E+03  0.00000000000E+00 0.  1.
<mgrwt>
<rscale>  1 0.83817735E+02</rscale>
<asrwt>0</asrwt>
<pdfrwt beam="1">  1       21 0.10982866E-02 0.83817735E+02</pdfrwt>
<pdfrwt beam="2">  1       -1 0.61718687E-01 0.83817735E+02</pdfrwt>
<totfact> 0.76110288E+05</totfact>
</mgrwt>
</event>
<event>
 6    2  0.7993170E+000  0.8610850E+02  0.7546771E-02  0.1312559E+00
          2   -1    0    0  502    0 -0.00000000000E+00  0.00000000000E+00  0.21581270031E+02  0.21581270031E+02  0.00000000000E+00 0. -1.
         21   -1    0    0  501  502  0.00000000000E+00 -0.00000000000E+00 -0.15528718951E+03  0.15528718951E+03  0.00000000000E+00 0. -1.
         24    2    1    2    0    0  0.29095293235E+02  0.56962966088E+01 -0.97856488230E+02  0.13034786620E+03  0.80843614786E+02 0.  0.
        -13    1    3    3    0    0 -0.15655049749E+02  0.17275871221E+02 -0.75468158666E+02  0.78987209607E+02  0.00000000000E+00 0.  1.
         14    1    3    3    0    0  0.44750342984E+02 -0.11579574613E+02 -0.22388329564E+02  0.51360656597E+02  0.00000000000E+00 0. -1.
          1    1    1    2  501    0 -0.29095293235E+02 -0.56962966088E+01 -0.35849431244E+02  0.46520593333E+02  0.00000000000E+00 0. -1.
<mgrwt>
<rscale>  1 0.86108501E+02</rscale>
<asrwt>0</asrwt>
<pdfrwt beam="1">  1       21 0.23890337E-01 0.86108501E+02</pdfrwt>
<pdfrwt beam="2">  1        2 0.33201954E-02 0.86108501E+02</pdfrwt>
<totfact> 0.50171986E+05</totfact>
</mgrwt>
</event>
<event>
 6    2  0.7993170E+000  0.9093465E+02  0.7546771E-02  0.1300604E+00
          2   -1    0    0  502    0 -0.00000000000E+00  0.00000000000E+00  0.19009307232E+04  0.19009307232E+04  0.00000000000E+00 0. -1.
         21   -1    0    0  501  502  0.00000000000E+00 -0.00000000000E+00 -0.26350919502E+01  0.26350919502E+01  0.00000000000E+00 0.  1.
         24    2    1    2    0    0  0.41916423989E+02 -0.28376377423E+01  0.15638760378E+04  0.15665175942E+04  0.80647829647E+02 0.  0.
        -13    1    3    3    0    0 -0.29708791066E+01 -0.96959704973E+01  0.25092339930E+02  0.27064062697E+02  0.00000000000E+00 0.  1.
         14    1    3    3    0    0  0.44887303095E+02  0.68583327551E+01  0.15387836979E+04  0.15394535315E+04  0.00000000000E+00 0. -1.
          1    1    1    2  501    0 -0.41916423989E+02  0.28376377423E+01  0.33441959344E+03  0.33704822097E+03  0.00000000000E+00 0. -1.
<mgrwt>
<rscale>  1 0.90934654E+02</rscale>
<asrwt>0</asrwt>
<pdfrwt beam="1">  1       21 0.40540028E-03 0.90934654E+02</pdfrwt>
<pdfrwt beam="2">  1        2 0.29244978E+00 0.90934654E+02</pdfrwt>
<totfact> 0.16184490E+06</totfact>
</mgrwt>
</event>
<event>
 6    2  0.7993170E+000  0.9175575E+02  0.7546771E-02  0.1298655E+00
         21   -1    0    0  501  502  0.00000000000E+00  0.00000000000E+00  0.11850490189E+02  0.11850490189E+02  0.00000000000E+00 0. -1.
          2   -1    0    0  502    0 -0.00000000000E+00 -0.00000000000E+00 -0.67471556319E+03  0.67471556319E+03  0.00000000000E+00 0. -1.
         24    2    1    2    0    0  0.39474451158E+02 -0.17880258057E+02 -0.61576311346E+03  0.62256190886E+03  0.80877577548E+02 0.  0.
        -11    1    3    3    0    0  0.20745940499E+01  0.30465282605E+02 -0.19188159599E+03  0.19429612520E+03  0.00000000000E+00 0.  1.
         12    1    3    3    0    0  0.37399857108E+02 -0.48345540662E+02 -0.42388151746E+03  0.42826578367E+03  0.00000000000E+00 0. -1.
          1    1    1    2  501    0 -0.39474451158E+02  0.17880258057E+02 -0.47101959547E+02  0.64004144519E+02  0.00000000000E+00 0. -1.
<mgrwt>
<rscale>  1 0.91755754E+02</rscale>
<asrwt>0</asrwt>
<pdfrwt beam="1">  1       21 0.18231529E-02 0.91755754E+02</pdfrwt>
<pdfrwt beam="2">  1        2 0.10380236E+00 0.91755754E+02</pdfrwt>
<totfact> 0.75254873E+05</totfact>
</mgrwt>
</event>
<event>
 6    2  0.7993170E+000  0.9042815E+02  0.7546771E-02  0.1301818E+00
         -3   -1    0    0    0  501 -0.00000000000E+00  0.00000000000E+00  0.30406336148E+03  0.30406336148E+03  0.00000000000E+00 0.  1.
         21   -1    0    0  501  502  0.00000000000E+00 -0.00000000000E+00 -0.12061968081E+02  0.12061968081E+02  0.00000000000E+00 0. -1.
         24    2    1    2    0    0  0.12506792771E+02 -0.25213334985E+02  0.19183527892E+03  0.21208023060E+03  0.85936708393E+02 0.  0.
        -11    1    3    3    0    0  0.11166004544E+02 -0.39826495763E+02  0.19297831307E+03  0.19736123920E+03  0.00000000000E+00 0.  1.
         12    1    3    3    0    0  0.13407882265E+01  0.14613160778E+02 -0.11430341514E+01  0.14718991408E+02  0.00000000000E+00 0. -1.
         -4    1    1    2    0  502 -0.12506792771E+02  0.25213334985E+02  0.10016611448E+03  0.10404509896E+03  0.00000000000E+00 0.  1.
<mgrwt>
<rscale>  1 0.90428148E+02</rscale>
<asrwt>0</asrwt>
<pdfrwt beam="1">  1       21 0.18556876E-02 0.90428148E+02</pdfrwt>
<pdfrwt beam="2">  1       -3 0.46778973E-01 0.90428148E+02</pdfrwt>
<totfact> 0.28146149E+05</totfact>
</mgrwt>
</event>
<event>
 6    2  0.7993170E+000  0.9331138E+02  0.7546771E-02  0.1295025E+00
         21   -1    0    0  501  502  0.00000000000E+00  0.00000000000E+00  0.20115858997E+03  0.20115858997E+03  0.00000000000E+00 0. -1.
          4   -1    0    0  502    0 -0.00000000000E+00 -0.00000000000E+00 -0.23890476988E+02  0.23890476988E+02  0.00000000000E+00 0. -1.
         24    2    1    2    0    0 -0.10680336297E+02 -0.39399447210E+02  0.94736166315E+02  0.13297350970E+03  0.83908444449E+02 0.  0.
        -11    1    3    3    0    0 -0.73832951789E+01  0.24764595204E+02  0.12761641509E+02  0.28821133172E+02  0.00000000000E+00 0.  1.
         12    1    3    3    0    0 -0.32970411177E+01 -0.64164042414E+02  0.81974524806E+02  0.10415237653E+03  0.00000000000E+00 0. -1.
          3    1    1    2  501    0  0.10680336297E+02  0.39399447210E+02  0.82531946662E+02  0.92075557255E+02  0.00000000000E+00 0. -1.
<mgrwt>
<rscale>  1 0.93311377E+02</rscale>
<asrwt>0</asrwt>
<pdfrwt beam="1">  1       21 0.30947474E-01 0.93311377E+02</pdfrwt>
<pdfrwt beam="2">  1        4 0.36754581E-02 0.93311377E+02</pdfrwt>
<totfact> 0.14977980E+05</totfact>
</mgrwt>
</event>
<event>
 6    2  0.7993170E+000  0.8918932E+02  0.7546771E-02  0.1304827E+00
          2   -1    0    0  502    0 -0.00000000000E+00  0.00000000000E+00  0.15454495204E+04  0.15454495204E+04  0.00000000000E+00 0. -1.
         21   -1    0    0  501  502  0.00000000000E+00 -0.00000000000E+00 -0.81824795563E+01  0.81824795563E+01  0.00000000000E+00 0. -1.
         24    2    1    2    0    0 -0.18371585445E+02  0.12848427317E+02  0.15258851287E+04  0.15284895029E+04  0.86325760754E+02 0.  0.
        -11    1    3    3    0    0  0.27841303603E+02  0.28297012779E+02  0.58696073655E+03  0.58830159389E+03  0.00000000000E+00 0.  1.
         12    1    3    3    0    0 -0.46212889048E+02 -0.15448585462E+02  0.93892439219E+03  0.94018790896E+03  0.00000000000E+00 0. -1.
          1    1    1    2  501    0  0.18371585445E+02 -0.12848427317E+02  0.11381912051E+02  0.25142497056E+02  0.00000000000E+00 0. -1.
<mgrwt>
<rscale>  1 0.89189317E+02</rscale>
<asrwt>0</asrwt>
<pdfrwt beam="1">  1       21 0.12588442E-02 0.89189317E+02</pdfrwt>
<pdfrwt beam="2">  1        2 0.23776123E+00 0.89189317E+02</pdfrwt>
<totfact> 0.42242319E+05</totfact>
</mgrwt>
</event>
<event>
 6    2  0.7993170E+000  0.9276818E+02  0.7546771E-02  0.1296283E+00
         21   -1    0    0  501  502  0.00000000000E+00  0.00000000000E+00  0.27129228327E+02  0.27129228327E+02  0.00000000000E+00 0. -1.
          2   -1    0    0  502    0 -0.00000000000E+00 -0.00000000000E+00 -0.23218910889E+03  0.23218910889E+03  0.00000000000E+00 0. -1.
         24    2    1    2    0    0 -0.34183057583E+02 -0.33240811034E+02 -0.18622572289E+03  0.20805276945E+03  0.79577019704E+02 0.  0.
        -11    1    3    3    0    0 -0.56716992388E+02 -0.19167780173E+02 -0.88998885286E+02  0.10726146840E+03  0.00000000000E+00 0.  1.
         12    1    3    3    0    0  0.22533934805E+02 -0.14073030861E+02 -0.97226837602E+02  0.10079130104E+03  0.00000000000E+00 0. -1.
          1    1    1    2  501    0  0.34183057583E+02  0.33240811034E+02 -0.18834157679E+02  0.51265567776E+02  0.00000000000E+00 0. -1.
<mgrwt>
<rscale>  1 0.92768179E+02</rscale>
<asrwt>0</asrwt>
<pdfrwt beam="1">  1       21 0.41737274E-02 0.92768179E+02</pdfrwt>
<pdfrwt beam="2">  1        2 0.35721402E-01 0.92768179E+02</pdfrwt>
<totfact> 0.61605878E+05</totfact>
</mgrwt>
</event>
<event>
 6    2  0.7993170E+000  0.9058397E+02  0.7546771E-02  0.1301444E+00
          2   -1    0    0  502    0 -0.00000000000E+00  0.00000000000E+00  0.15804711939E+04  0.15804711939E+04  0.00000000000E+00 0. -1.
         21   -1    0    0  501  502  0.00000000000E+00 -0.00000000000E+00 -0.29017259625E+01  0.29017259625E+01  0.00000000000E+00 0.  1.
         24    2    1    2    0    0 -0.38750531473E+02  0.20162310240E+02  0.11571957435E+04  0.11607357343E+04  0.79355740846E+02 0.  0.
        -13    1    3    3    0    0 -0.43422065993E+02  0.20391347044E+02  0.32448792865E+03  0.32801478425E+03  0.00000000000E+00 0.  1.
         14    1    3    3    0    0  0.46715345198E+01 -0.22903680449E+00  0.83270781484E+03  0.83272095001E+03  0.00000000000E+00 0. -1.
          1    1    1    2  501    0  0.38750531473E+02 -0.20162310240E+02  0.42037372444E+03  0.42263718559E+03  0.00000000000E+00 0. -1.
<mgrwt>
<rscale>  1 0.90583972E+02</rscale>
<asrwt>0</asrwt>
<pdfrwt beam="1">  1       21 0.44642064E-03 0.90583972E+02</pdfrwt>
<pdfrwt beam="2">  1        2 0.24314873E+00 0.90583972E+02</pdfrwt>
<totfact> 0.20238821E+06</totfact>
</mgrwt>
</event>
<event>
 6    2  0.7993170E+000  0.8548483E+02  0.7546771E-02  0.1314169E+00
         21   -1    0    0  501  502  0.00000000000E+00  0.00000000000E+00  0.29566241760E+01  0.29566241760E+01  0.00000000000E+00 0.  1.
          2   -1    0    0  502    0 -0.00000000000E+00 -0.00000000000E+00 -0.15858032743E+04  0.15858032743E+04  0.00000000000E+00 0. -1.
         24    2    1    2    0    0 -0.14319086851E+02  0.14528830630E+02 -0.15254974496E+04  0.15278907440E+04  0.83015261602E+02 0.  0.
        -11    1    3    3    0    0  0.43115291673E+01 -0.10949461278E+01 -0.33996056684E+01  0.55987060544E+01  0.00000000000E+00 0.  1.
         12    1    3    3    0    0 -0.18630616018E+02  0.15623776757E+02 -0.15220978439E+04  0.15222920379E+04  0.00000000000E+00 0. -1.
          1    1    1    2  501    0  0.14319086851E+02 -0.14528830630E+02 -0.57349200567E+02  0.60869154531E+02  0.00000000000E+00 0. -1.
<mgrwt>
<rscale>  1 0.85484834E+02</rscale>
<asrwt>0</asrwt>
<pdfrwt beam="1">  1       21 0.45486441E-03 0.85484834E+02</pdfrwt>
<pdfrwt beam="2">  1        2 0.24397019E+00 0.85484834E+02</pdfrwt>
<totfact> 0.19458424E+06</totfact>
</mgrwt>
</event>
<event>
 6    2  0.7993170E+000  0.9417523E+02  0.7546771E-02  0.1293045E+00
          2   -1    0    0  502    0 -0.00000000000E+00  0.00000000000E+00  0.22782087513E+03  0.22782087513E+03  0.00000000000E+00 0. -1.
         21   -1    0    0  501  502  0.00000000000E+00 -0.00000000000E+00 -0.18008244248E+02  0.18008244248E+02  0.00000000000E+00 0.  1.
         24    2    1    2    0    0 -0.30284269406E+02 -0.15208691163E+02  0.15154930850E+03  0.17842692360E+03  0.87866563030E+02 0.  0.
        -11    1    3    3    0    0 -0.61462967486E+02 -0.11248724759E+02  0.94411299416E+02  0.11321538605E+03  0.00000000000E+00 0.  1.
         12    1    3    3    0    0  0.31178698080E+02 -0.39599664048E+01  0.57138009086E+02  0.65211537554E+02  0.00000000000E+00 0. -1.
          1    1    1    2  501    0  0.30284269406E+02  0.15208691163E+02  0.58263322378E+02  0.67402195772E+02  0.00000000000E+00 0. -1.
<mgrwt>
<rscale>  1 0.94175231E+02</rscale>
<asrwt>0</asrwt>
<pdfrwt beam="1">  1       21 0.27704993E-02 0.94175231E+02</pdfrwt>
<pdfrwt beam="2">  1        2 0.35049363E-01 0.94175231E+02</pdfrwt>
<totfact> 0.12306375E+06</totfact>
</mgrwt>
</event>
<event>
 6    2  0.7993170E+000  0.8638017E+02  0.7546771E-02  0.1311862E+00
         -1   -1    0    0    0  501 -0.00000000000E+00  0.00000000000E+00  0.20805166438E+03  0.20805166438E+03  0.00000000000E+00 0.  1.
         21   -1    0    0  501  502  0.00000000000E+00 -0.00000000000E+00 -0.25818844191E+02  0.25818844191E+02  0.00000000000E+00 0.  1.
         24    2    1    2    0    0 -0.28423542952E+02  0.50852340424E+01  0.18568142482E+03  0.20479044197E+03  0.81411155268E+02 0.  0.
        -11    1    3    3    0    0 -0.39368069195E+02  0.15618960999E+02  0.18478194564E+03  0.18957363807E+03  0.00000000000E+00 0.  1.
         12    1    3    3    0    0  0.10944526243E+02 -0.10533726956E+02  0.89947917318E+00  0.15216803904E+02  0.00000000000E+00 0. -1.
         -2    1    1    2    0  502  0.28423542952E+02 -0.50852340424E+01 -0.34486046328E+01  0.29080066594E+02  0.00000000000E+00 0.  1.
<mgrwt>
<rscale>  1 0.86380169E+02</rscale>
<asrwt>0</asrwt>
<pdfrwt beam="1">  1       21 0.39721300E-02 0.86380169E+02</pdfrwt>
<pdfrwt beam="2">  1       -1 0.32007947E-01 0.86380169E+02</pdfrwt>
<totfact> 0.31135806E+05</totfact>
</mgrwt>
</event>
<event>
 6    2  0.7993170E+000  0.9039936E+02  0.7546771E-02  0.1301887E+00
          2   -1    0    0  502    0 -0.00000000000E+00  0.00000000000E+00  0.21688362092E+04  0.21688362092E+04  0.00000000000E+00 0. -1.
         21   -1    0    0  501  502  0.00000000000E+00 -0.00000000000E+00 -0.23228254850E+01  0.23228254850E+01  0.00000000000E+00 0.  1.
         24    2    1    2    0    0  0.36902204864E+01 -0.39121501391E+02  0.10277994111E+04  0.10317672579E+04  0.81412132996E+02 0.  0.
        -11    1    3    3    0    0 -0.35903369766E+01 -0.43025309041E+02  0.23551184869E+03  0.23943662755E+03  0.00000000000E+00 0.  1.
         12    1    3    3    0    0  0.72805574630E+01  0.39038076495E+01  0.79228756238E+03  0.79233063031E+03  0.00000000000E+00 0. -1.
          1    1    1    2  501    0 -0.36902204864E+01  0.39121501391E+02  0.11387139726E+04  0.11393917768E+04  0.00000000000E+00 0. -1.
<mgrwt>
<rscale>  1 0.90399364E+02</rscale>
<asrwt>0</asrwt>
<pdfrwt beam="1">  1       21 0.35735950E-03 0.90399364E+02</pdfrwt>
<pdfrwt beam="2">  1        2 0.33366549E+00 0.90399364E+02</pdfrwt>
<totfact> 0.14366967E+06</totfact>
</mgrwt>
</event>
<event>
 6    2  0.7993170E+000  0.8799406E+02  0.7546771E-02  0.1307783E+00
          2   -1    0    0  502    0 -0.00000000000E+00  0.00000000000E+00  0.56242445707E+03  0.56242445707E+03  0.00000000000E+00 0. -1.
         21   -1    0    0  501  502  0.00000000000E+00 -0.00000000000E+00 -0.73163503926E+01  0.73163503926E+01  0.00000000000E+00 0. -1.
         24    2    1    2    0    0 -0.29957472826E+02 -0.19826658232E+02  0.31893650428E+03  0.33085260697E+03  0.80326877338E+02 0.  0.
        -11    1    3    3    0    0 -0.48972585067E+02  0.27608717311E+01  0.26366953031E+03  0.26819313510E+03  0.00000000000E+00 0.  1.
         12    1    3    3    0    0  0.19015112242E+02 -0.22587529964E+02  0.55266973968E+02  0.62659471870E+02  0.00000000000E+00 0. -1.
          1    1    1    2  501    0  0.29957472826E+02  0.19826658232E+02  0.23617160240E+03  0.23888820050E+03  0.00000000000E+00 0. -1.
<mgrwt>
<rscale>  1 0.87994055E+02</rscale>
<asrwt>0</asrwt>
<pdfrwt beam="1">  1       21 0.11255928E-02 0.87994055E+02</pdfrwt>
<pdfrwt beam="2">  1        2 0.86526806E-01 0.87994055E+02</pdfrwt>
<totfact> 0.19720916E+06</totfact>
</mgrwt>
</event>
<event>
 6    2  0.7993170E+000  0.1012893E+03  0.7546771E-02  0.1277608E+00
         21   -1    0    0  501  502  0.00000000000E+00  0.00000000000E+00  0.13980139424E+02  0.13980139424E+02  0.00000000000E+00 0. -1.
         -1   -1    0    0    0  501 -0.00000000000E+00 -0.00000000000E+00 -0.43222615246E+03  0.43222615246E+03  0.00000000000E+00 0.  1.
         24    2    1    2    0    0 -0.46394150169E+02  0.25269194014E+02 -0.30161048384E+03  0.31816412692E+03  0.86420937078E+02 0.  0.
        -11    1    3    3    0    0  0.20954014629E+01 -0.39554863628E+01 -0.21277152265E+03  0.21281860217E+03  0.00000000000E+00 0.  1.
         12    1    3    3    0    0 -0.48489551632E+02  0.29224680377E+02 -0.88838961185E+02  0.10534552475E+03  0.00000000000E+00 0. -1.
         -2    1    1    2    0  502  0.46394150169E+02 -0.25269194014E+02 -0.11663552920E+03  0.12804216496E+03  0.00000000000E+00 0.  1.
<mgrwt>
<rscale>  1 0.10128933E+03</rscale>
<asrwt>0</asrwt>
<pdfrwt beam="1">  1       21 0.21507909E-02 0.10128933E+03</pdfrwt>
<pdfrwt beam="2">  1       -1 0.66496324E-01 0.10128933E+03</pdfrwt>
<totfact> 0.23161582E+05</totfact>
</mgrwt>
</event>
<event>
 6    2  0.7993170E+000  0.8810824E+02  0.7546771E-02  0.1307499E+00
         21   -1    0    0  501  502  0.00000000000E+00  0.00000000000E+00  0.63324412673E+02  0.63324412673E+02  0.00000000000E+00 0. -1.
          2   -1    0    0  502    0 -0.00000000000E+00 -0.00000000000E+00 -0.16918441633E+03  0.16918441633E+03  0.00000000000E+00 0. -1.
         24    2    1    2    0    0 -0.35320927791E+02 -0.92664973331E+00 -0.15121729369E+03  0.17501352154E+03  0.80713296248E+02 0.  0.
        -11    1    3    3    0    0 -0.11228548477E+02 -0.29293109892E+02 -0.16896791027E+02  0.35632402881E+02  0.00000000000E+00 0.  1.
         12    1    3    3    0    0 -0.24092379314E+02  0.28366460159E+02 -0.13432050267E+03  0.13938111866E+03  0.00000000000E+00 0. -1.
          1    1    1    2  501    0  0.35320927791E+02  0.92664973331E+00  0.45357290040E+02  0.57495307456E+02  0.00000000000E+00 0. -1.
<mgrwt>
<rscale>  1 0.88108245E+02</rscale>
<asrwt>0</asrwt>
<pdfrwt beam="1">  1       21 0.97422173E-02 0.88108245E+02</pdfrwt>
<pdfrwt beam="2">  1        2 0.26028372E-01 0.88108245E+02</pdfrwt>
<totfact> 0.20588926E+05</totfact>
</mgrwt>
</event>
<event>
 6    2  0.7993170E+000  0.9088043E+02  0.7546771E-02  0.1300734E+00
          2   -1    0    0  502    0 -0.00000000000E+00  0.00000000000E+00  0.60838536355E+02  0.60838536355E+02  0.00000000000E+00 0. -1.
         21   -1    0    0  501  502  0.00000000000E+00 -0.00000000000E+00 -0.85846835142E+02  0.85846835142E+02  0.00000000000E+00 0. -1.
         24    2    1    2    0    0  0.39847298715E+02  0.18821904204E+02  0.85671830474E+01  0.91283347408E+02  0.79480699518E+02 0.  0.
        -11    1    3    3    0    0  0.23583249934E+02 -0.30353079046E+02 -0.17217246694E+01  0.38476530780E+02  0.00000000000E+00 0.  1.
         12    1    3    3    0    0  0.16264048781E+02  0.49174983250E+02  0.10288907717E+02  0.52806816628E+02  0.00000000000E+00 0. -1.
          1    1    1    2  501    0 -0.39847298715E+02 -0.18821904204E+02 -0.33575481834E+02  0.55402024089E+02  0.00000000000E+00 0. -1.
<mgrwt>
<rscale>  1 0.90880432E+02</rscale>
<asrwt>0</asrwt>
<pdfrwt beam="1">  1       21 0.13207205E-01 0.90880432E+02</pdfrwt>
<pdfrwt beam="2">  1        2 0.93597748E-02 0.90880432E+02</pdfrwt>
<totfact> 0.39346978E+05</totfact>
</mgrwt>
</event>
<event>
 6    2  0.7993170E+000  0.8602609E+02  0.7546771E-02  0.1312771E+00
         -3   -1    0    0    0  501 -0.00000000000E+00  0.00000000000E+00  0.39933747646E+02  0.39933747646E+02  0.00000000000E+00 0.  1.
         21   -1    0    0  501  502  0.00000000000E+00 -0.00000000000E+00 -0.92709931668E+02  0.92709931668E+02  0.00000000000E+00 0.  1.
         24    2    1    2    0    0 -0.54729969678E+01  0.31857851467E+02 -0.51564382398E+02  0.10029642504E+03  0.79722085697E+02 0.  0.
        -13    1    3    3    0    0 -0.38609288392E+02  0.31710279461E+02 -0.17933107787E+02  0.53083098332E+02  0.00000000000E+00 0.  1.
         14    1    3    3    0    0  0.33136291425E+02  0.14757200565E+00 -0.33631274611E+02  0.47213326708E+02  0.00000000000E+00 0. -1.
         -4    1    1    2    0  502  0.54729969678E+01 -0.31857851467E+02 -0.12118016245E+01  0.32347254274E+02  0.00000000000E+00 0.  1.
<mgrwt>
<rscale>  1 0.86026085E+02</rscale>
<asrwt>0</asrwt>
<pdfrwt beam="1">  1       21 0.14263066E-01 0.86026085E+02</pdfrwt>
<pdfrwt beam="2">  1       -3 0.61436535E-02 0.86026085E+02</pdfrwt>
<totfact> 0.31010369E+05</totfact>
</mgrwt>
</event>
<event>
 6    2  0.7993170E+000  0.8911659E+02  0.7546771E-02  0.1305005E+00
         21   -1    0    0  501  502  0.00000000000E+00  0.00000000000E+00  0.93325872753E+01  0.93325872753E+01  0.00000000000E+00 0.  1.
         -1   -1    0    0    0  501 -0.00000000000E+00 -0.00000000000E+00 -0.47320613640E+03  0.47320613640E+03  0.00000000000E+00 0.  1.
         24    2    1    2    0    0 -0.27218663555E+02 -0.27356501798E+02 -0.37848058952E+03  0.38883071235E+03  0.80327656433E+02 0.  0.
        -11    1    3    3    0    0 -0.37614790795E+02 -0.19184484333E+02 -0.37147313768E+03  0.37386522832E+03  0.00000000000E+00 0.  1.
         12    1    3    3    0    0  0.10396127240E+02 -0.81720174650E+01 -0.70074518337E+01  0.14965484030E+02  0.00000000000E+00 0. -1.
         -2    1    1    2    0  502  0.27218663555E+02  0.27356501798E+02 -0.85392959610E+02  0.93708011329E+02  0.00000000000E+00 0.  1.
<mgrwt>
<rscale>  1 0.89116588E+02</rscale>
<asrwt>0</asrwt>
<pdfrwt beam="1">  1       21 0.14357827E-02 0.89116588E+02</pdfrwt>
<pdfrwt beam="2">  1       -1 0.72800940E-01 0.89116588E+02</pdfrwt>
<totfact> 0.36557111E+05</totfact>
</mgrwt>
</event>
<event>
 6    2  0.7993170E+000  0.9765633E+02  0.7546771E-02  0.1285303E+00
         21   -1    0    0  501  502  0.00000000000E+00  0.00000000000E+00  0.28243607772E+02  0.28243607772E+02  0.00000000000E+00 0. -1.
          2   -1    0    0  502    0 -0.00000000000E+00 -0.00000000000E+00 -0.53344446889E+03  0.53344446889E+03  0.00000000000E+00 0. -1.
         24    2    1    2    0    0  0.32050443922E+02 -0.45705526936E+02 -0.49549578449E+03  0.50502755548E+03  0.80128229770E+02 0.  0.
        -13    1    3    3    0    0 -0.84707297517E+01  0.16120746711E+02 -0.45645782209E+02  0.49144370690E+02  0.00000000000E+00 0.  1.
         14    1    3    3    0    0  0.40521173674E+02 -0.61826273646E+02 -0.44985000228E+03  0.45588318479E+03  0.00000000000E+00 0. -1.
          1    1    1    2  501    0 -0.32050443922E+02  0.45705526936E+02 -0.97050766361E+01  0.56660521182E+02  0.00000000000E+00 0. -1.
<mgrwt>
<rscale>  1 0.97656333E+02</rscale>
<asrwt>0</asrwt>
<pdfrwt beam="1">  1       21 0.43451708E-02 0.97656333E+02</pdfrwt>
<pdfrwt beam="2">  1        2 0.82068372E-01 0.97656333E+02</pdfrwt>
<totfact> 0.24005496E+05</totfact>
</mgrwt>
</event>
<event>
 6    2  0.7993170E+000  0.8325089E+02  0.7546771E-02  0.1320071E+00
         21   -1    0    0  501  502  0.00000000000E+00  0.00000000000E+00  0.12089253162E+02  0.12089253162E+02  0.00000000000E+00 0. -1.
         -1   -1    0    0    0  501 -0.00000000000E+00 -0.00000000000E+00 -0.27396612038E+03  0.27396612038E+03  0.00000000000E+00 0.  1.
         24    2    1    2    0    0  0.13750163560E+02  0.19558590222E+02 -0.23852181176E+03  0.25263286518E+03  0.79743993111E+02 0.  0.
        -11    1    3    3    0    0 -0.11293208585E+01  0.37679637094E+02 -0.21871414366E+03  0.22193897146E+03  0.00000000000E+00 0.  1.
         12    1    3    3    0    0  0.14879484418E+02 -0.18121046872E+02 -0.19807668099E+02  0.30693893722E+02  0.00000000000E+00 0. -1.
         -2    1    1    2    0  502 -0.13750163560E+02 -0.19558590222E+02 -0.23355055462E+02  0.33422508360E+02  0.00000000000E+00 0.  1.
<mgrwt>
<rscale>  1 0.83250885E+02</rscale>
<asrwt>0</asrwt>
<pdfrwt beam="1">  1       21 0.18598853E-02 0.83250885E+02</pdfrwt>
<pdfrwt beam="2">  1       -1 0.42148630E-01 0.83250885E+02</pdfrwt>
<totfact> 0.66101676E+05</totfact>
</mgrwt>
</event>
<event>
 6    2  0.7993170E+000  0.9841239E+02  0.7546771E-02  0.1283670E+00
         -1   -1    0    0    0  501 -0.00000000000E+00  0.00000000000E+00  0.50899304065E+03  0.50899304065E+03  0.00000000000E+00 0.  1.
         21   -1    0    0  501  502  0.00000000000E+00 -0.00000000000E+00 -0.26226819055E+02  0.26226819055E+02  0.00000000000E+00 0.  1.
         24    2    1    2    0    0 -0.18790061691E+02  0.21811183369E+02  0.49445141152E+03  0.50414997393E+03  0.94107405218E+02 0.  0.
        -11    1    3    3    0    0 -0.35002631786E+02  0.45271835272E+01  0.46504920725E+03  0.46638658298E+03  0.00000000000E+00 0.  1.
         12    1    3    3    0    0  0.16212570095E+02  0.17283999841E+02  0.29402204272E+02  0.37763390945E+02  0.00000000000E+00 0. -1.
         -2    1    1    2    0  502  0.18790061691E+02 -0.21811183369E+02 -0.11685189930E+02  0.31069885774E+02  0.00000000000E+00 0.  1.
<mgrwt>
<rscale>  1 0.98412387E+02</rscale>
<asrwt>0</asrwt>
<pdfrwt beam="1">  1       21 0.40348956E-02 0.98412387E+02</pdfrwt>
<pdfrwt beam="2">  1       -1 0.78306614E-01 0.98412387E+02</pdfrwt>
<totfact> 0.60085544E+04</totfact>
</mgrwt>
</event>
<event>
 6    2  0.7993170E+000  0.1085405E+03  0.7546771E-02  0.1263297E+00
          2   -1    0    0  502    0 -0.00000000000E+00  0.00000000000E+00  0.11972289777E+04  0.11972289777E+04  0.00000000000E+00 0. -1.
         21   -1    0    0  501  502  0.00000000000E+00 -0.00000000000E+00 -0.72542427154E+01  0.72542427154E+01  0.00000000000E+00 0. -1.
         24    2    1    2    0    0  0.62382022556E+02 -0.38640574083E+02  0.57584343540E+03  0.58598353259E+03  0.79977669858E+02 0.  0.
        -11    1    3    3    0    0  0.15699776731E+02  0.18163638947E+02  0.55487223043E+02  0.60458520411E+02  0.00000000000E+00 0.  1.
         12    1    3    3    0    0  0.46682245825E+02 -0.56804213030E+02  0.52035621235E+03  0.52552501218E+03  0.00000000000E+00 0. -1.
          1    1    1    2  501    0 -0.62382022556E+02  0.38640574083E+02  0.61413129955E+03  0.61849968778E+03  0.00000000000E+00 0. -1.
<mgrwt>
<rscale>  1 0.10854049E+03</rscale>
<asrwt>0</asrwt>
<pdfrwt beam="1">  1       21 0.11160383E-02 0.10854049E+03</pdfrwt>
<pdfrwt beam="2">  1        2 0.18418892E+00 0.10854049E+03</pdfrwt>
<totfact> 0.78539588E+05</totfact>
</mgrwt>
</event>
<event>
 6    2  0.7993170E+000  0.8454340E+02  0.7546771E-02  0.1316631E+00
         -1   -1    0    0    0  501 -0.00000000000E+00  0.00000000000E+00  0.19676573018E+02  0.19676573018E+02  0.00000000000E+00 0.  1.
         21   -1    0    0  501  502  0.00000000000E+00 -0.00000000000E+00 -0.40181544408E+03  0.40181544408E+03  0.00000000000E+00 0.  1.
         24    2    1    2    0    0 -0.10174430405E+01 -0.35793611254E+02 -0.77293338708E+02  0.11455062791E+03  0.76585692855E+02 0.  0.
        -11    1    3    3    0    0 -0.19914768938E+02  0.16001540990E+02 -0.97089692027E+01  0.27329680182E+02  0.00000000000E+00 0.  1.
         12    1    3    3    0    0  0.18897325897E+02 -0.51795152244E+02 -0.67584369505E+02  0.87220947732E+02  0.00000000000E+00 0. -1.
         -2    1    1    2    0  502  0.10174430405E+01  0.35793611254E+02 -0.30484553235E+03  0.30694138918E+03  0.00000000000E+00 0.  1.
<mgrwt>
<rscale>  1 0.84543398E+02</rscale>
<asrwt>0</asrwt>
<pdfrwt beam="1">  1       21 0.61817759E-01 0.84543398E+02</pdfrwt>
<pdfrwt beam="2">  1       -1 0.30271652E-02 0.84543398E+02</pdfrwt>
<totfact> 0.76769675E+04</totfact>
</mgrwt>
</event>
<event>
 6    2  0.7993170E+000  0.8125849E+02  0.7546771E-02  0.1325518E+00
          2   -1    0    0  502    0 -0.00000000000E+00  0.00000000000E+00  0.13406681093E+04  0.13406681093E+04  0.00000000000E+00 0. -1.
         21   -1    0    0  501  502  0.00000000000E+00 -0.00000000000E+00 -0.19690083131E+01  0.19690083131E+01  0.00000000000E+00 0.  1.
         24    2    1    2    0    0 -0.20372236795E+02 -0.60672137838E+00  0.98202141173E+03  0.98537758988E+03  0.78660952179E+02 0.  0.
        -13    1    3    3    0    0 -0.35765921696E+02 -0.11915785511E+02  0.22658250066E+03  0.22969722833E+03  0.00000000000E+00 0.  1.
         14    1    3    3    0    0  0.15393684901E+02  0.11309064133E+02  0.75543891108E+03  0.75568036155E+03  0.00000000000E+00 0. -1.
          1    1    1    2  501    0  0.20372236795E+02  0.60672137838E+00  0.35667768925E+03  0.35725952773E+03  0.00000000000E+00 0. -1.
<mgrwt>
<rscale>  1 0.81258486E+02</rscale>
<asrwt>0</asrwt>
<pdfrwt beam="1">  1       21 0.30292543E-03 0.81258486E+02</pdfrwt>
<pdfrwt beam="2">  1        2 0.20625590E+00 0.81258486E+02</pdfrwt>
<totfact> 0.47919343E+06</totfact>
</mgrwt>
</event>
<event>
 6    2  0.7993170E+000  0.8253066E+02  0.7546771E-02  0.1322019E+00
          2   -1    0    0  502    0 -0.00000000000E+00  0.00000000000E+00  0.82090694074E+03  0.82090694074E+03  0.00000000000E+00 0. -1.
         21   -1    0    0  501  502  0.00000000000E+00 -0.00000000000E+00 -0.51599445390E+01  0.51599445390E+01  0.00000000000E+00 0.  1.
         24    2    1    2    0    0 -0.11938631286E+02 -0.18075977207E+02  0.77937521613E+03  0.78373275892E+03  0.79636913657E+02 0.  0.
        -11    1    3    3    0    0 -0.13783923849E+02 -0.27587265902E+02  0.10876477967E+03  0.11305233785E+03  0.00000000000E+00 0.  1.
         12    1    3    3    0    0  0.18452925630E+01  0.95112886944E+01  0.67061043646E+03  0.67068042107E+03  0.00000000000E+00 0. -1.
          1    1    1    2  501    0  0.11938631286E+02  0.18075977207E+02  0.36371780062E+02  0.42334126350E+02  0.00000000000E+00 0. -1.
<mgrwt>
<rscale>  1 0.82530660E+02</rscale>
<asrwt>0</asrwt>
<pdfrwt beam="1">  1       21 0.79383828E-03 0.82530660E+02</pdfrwt>
<pdfrwt beam="2">  1        2 0.12629327E+00 0.82530660E+02</pdfrwt>
<totfact> 0.21784484E+06</totfact>
</mgrwt>
</event>
<event>
 6    2  0.7993170E+000  0.8295841E+02  0.7546771E-02  0.1320860E+00
          2   -1    0    0  502    0 -0.00000000000E+00  0.00000000000E+00  0.25797371607E+04  0.25797371607E+04  0.00000000000E+00 0. -1.
         21   -1    0    0  501  502  0.00000000000E+00 -0.00000000000E+00 -0.10819505029E+01  0.10819505029E+01  0.00000000000E+00 0.  1.
         24    2    1    2    0    0  0.17596442367E+01 -0.20149477495E+02  0.18132890894E+04  0.18151857808E+04  0.80454951472E+02 0.  0.
        -13    1    3    3    0    0 -0.33774407200E+02 -0.29492167398E+02  0.82970897372E+03  0.83091965893E+03  0.00000000000E+00 0.  1.
         14    1    3    3    0    0  0.35534051437E+02  0.93426899031E+01  0.98358011572E+03  0.98426612189E+03  0.00000000000E+00 0. -1.
          1    1    1    2  501    0 -0.17596442367E+01  0.20149477495E+02  0.76536612078E+03  0.76563333040E+03  0.00000000000E+00 0. -1.
<mgrwt>
<rscale>  1 0.82958405E+02</rscale>
<asrwt>0</asrwt>
<pdfrwt beam="1">  1       21 0.16645599E-03 0.82958405E+02</pdfrwt>
<pdfrwt beam="2">  1        2 0.39687772E+00 0.82958405E+02</pdfrwt>
<totfact> 0.27673606E+06</totfact>
</mgrwt>
</event>
<event>
 6    2  0.7993170E+000  0.9172661E+02  0.7546771E-02  0.1298724E+00
          2   -1    0    0  502    0 -0.00000000000E+00  0.00000000000E+00  0.15320943960E+04  0.15320943960E+04  0.00000000000E+00 0. -1.
         21   -1    0    0  501  502  0.00000000000E+00 -0.00000000000E+00 -0.30008861350E+01  0.30008861350E+01  0.00000000000E+00 0.  1.
         24    2    1    2    0    0 -0.35947885011E+02 -0.25105741179E+02  0.10514755016E+04  0.10554688541E+04  0.80568125060E+02 0.  0.
        -13    1    3    3    0    0 -0.43219415984E+02 -0.22309155766E+02  0.29723242791E+03  0.30118554505E+03  0.00000000000E+00 0.  1.
         14    1    3    3    0    0  0.72715309727E+01 -0.27965854134E+01  0.75424307373E+03  0.75428330906E+03  0.00000000000E+00 0. -1.
          1    1    1    2  501    0  0.35947885011E+02  0.25105741179E+02  0.47761800826E+03  0.47962642805E+03  0.00000000000E+00 0. -1.
<mgrwt>
<rscale>  1 0.91726613E+02</rscale>
<asrwt>0</asrwt>
<pdfrwt beam="1">  1       21 0.46167601E-03 0.91726613E+02</pdfrwt>
<pdfrwt beam="2">  1        2 0.23570621E+00 0.91726613E+02</pdfrwt>
<totfact> 0.20364154E+06</totfact>
</mgrwt>
</event>
<event>
 6    2  0.7993170E+000  0.9817807E+02  0.7546771E-02  0.1284175E+00
          2   -1    0    0  502    0 -0.00000000000E+00  0.00000000000E+00  0.14627922614E+04  0.14627922614E+04  0.00000000000E+00 0. -1.
         21   -1    0    0  501  502  0.00000000000E+00 -0.00000000000E+00 -0.73325177752E+01  0.73325177752E+01  0.00000000000E+00 0. -1.
         24    2    1    2    0    0 -0.49115461989E+01 -0.57018659032E+02  0.13120412561E+04  0.13157093871E+04  0.79772693723E+02 0.  0.
        -13    1    3    3    0    0  0.36615849681E+02 -0.23372069688E+02  0.69582349921E+03  0.69717810934E+03  0.00000000000E+00 0.  1.
         14    1    3    3    0    0 -0.41527395880E+02 -0.33646589345E+02  0.61621775694E+03  0.61853127774E+03  0.00000000000E+00 0. -1.
          1    1    1    2  501    0  0.49115461989E+01  0.57018659032E+02  0.14341848745E+03  0.15441539207E+03  0.00000000000E+00 0. -1.
<mgrwt>
<rscale>  1 0.98178070E+02</rscale>
<asrwt>0</asrwt>
<pdfrwt beam="1">  1       21 0.11280808E-02 0.98178070E+02</pdfrwt>
<pdfrwt beam="2">  1        2 0.22504473E+00 0.98178070E+02</pdfrwt>
<totfact> 0.55558906E+05</totfact>
</mgrwt>
</event>
<event>
 6    2  0.7993170E+000  0.8912034E+02  0.7546771E-02  0.1304996E+00
          2   -1    0    0  502    0 -0.00000000000E+00  0.00000000000E+00  0.84828029702E+02  0.84828029702E+02  0.00000000000E+00 0. -1.
         21   -1    0    0  501  502  0.00000000000E+00 -0.00000000000E+00 -0.98372098572E+02  0.98372098572E+02  0.00000000000E+00 0. -1.
         24    2    1    2    0    0 -0.18415576129E+02 -0.34424120556E+02  0.54707139381E+02  0.10457201022E+03  0.80114172922E+02 0.  0.
        -11    1    3    3    0    0 -0.83039346462E+01 -0.46795895458E+02 -0.54425695486E-01  0.47526983120E+02  0.00000000000E+00 0.  1.
         12    1    3    3    0    0 -0.10111641483E+02  0.12371774903E+02  0.54761565077E+02  0.57045027105E+02  0.00000000000E+00 0. -1.
          1    1    1    2  501    0  0.18415576129E+02  0.34424120556E+02 -0.68251208251E+02  0.78628118049E+02  0.00000000000E+00 0. -1.
<mgrwt>
<rscale>  1 0.89120336E+02</rscale>
<asrwt>0</asrwt>
<pdfrwt beam="1">  1       21 0.15134169E-01 0.89120336E+02</pdfrwt>
<pdfrwt beam="2">  1        2 0.13050466E-01 0.89120336E+02</pdfrwt>
<totfact> 0.20709072E+05</totfact>
</mgrwt>
</event>
<event>
 6    2  0.7993170E+000  0.8380794E+02  0.7546771E-02  0.1318580E+00
         -1   -1    0    0    0  501 -0.00000000000E+00  0.00000000000E+00  0.69941278110E+03  0.69941278110E+03  0.00000000000E+00 0.  1.
         21   -1    0    0  501  502  0.00000000000E+00 -0.00000000000E+00 -0.57337744616E+01  0.57337744616E+01  0.00000000000E+00 0.  1.
         24    2    1    2    0    0 -0.16240514658E+02  0.21744475751E+02  0.63486258718E+03  0.64037041999E+03  0.79291825883E+02 0.  0.
        -13    1    3    3    0    0  0.19729637047E+02  0.17791007755E+02  0.50097143140E+03  0.50167534683E+03  0.00000000000E+00 0.  1.
         14    1    3    3    0    0 -0.35970151705E+02  0.39534679960E+01  0.13389115578E+03  0.13869507316E+03  0.00000000000E+00 0. -1.
         -2    1    1    2    0  502  0.16240514658E+02 -0.21744475751E+02  0.58816419462E+02  0.64776135577E+02  0.00000000000E+00 0.  1.
<mgrwt>
<rscale>  1 0.83807936E+02</rscale>
<asrwt>0</asrwt>
<pdfrwt beam="1">  1       21 0.88211970E-03 0.83807936E+02</pdfrwt>
<pdfrwt beam="2">  1       -1 0.10760190E+00 0.83807936E+02</pdfrwt>
<totfact> 0.34436427E+05</totfact>
</mgrwt>
</event>
<event>
 6    2  0.7993170E+000  0.9082452E+02  0.7546771E-02  0.1300867E+00
         21   -1    0    0  501  502  0.00000000000E+00  0.00000000000E+00  0.15958024467E+03  0.15958024467E+03  0.00000000000E+00 0.  1.
         -1   -1    0    0    0  501 -0.00000000000E+00 -0.00000000000E+00 -0.30213318185E+02  0.30213318185E+02  0.00000000000E+00 0.  1.
         24    2    1    2    0    0  0.29418440519E+02 -0.24805174586E+02  0.55322171545E+02  0.10634677105E+03  0.82269992823E+02 0.  0.
        -13    1    3    3    0    0  0.36083235121E+02 -0.27171935061E+02 -0.51499497408E+01  0.45462466872E+02  0.00000000000E+00 0.  1.
         14    1    3    3    0    0 -0.66647946019E+01  0.23667604751E+01  0.60472121285E+02  0.60884304176E+02  0.00000000000E+00 0. -1.
         -2    1    1    2    0  502 -0.29418440519E+02  0.24805174586E+02  0.74044754941E+02  0.83446791808E+02  0.00000000000E+00 0.  1.
<mgrwt>
<rscale>  1 0.90824518E+02</rscale>
<asrwt>0</asrwt>
<pdfrwt beam="1">  1       21 0.24550806E-01 0.90824518E+02</pdfrwt>
<pdfrwt beam="2">  1       -1 0.46482029E-02 0.90824518E+02</pdfrwt>
<totfact> 0.25715931E+05</totfact>
</mgrwt>
</event>
<event>
 6    2  0.7993170E+000  0.8432107E+02  0.7546771E-02  0.1317218E+00
         21   -1    0    0  501  502  0.00000000000E+00  0.00000000000E+00  0.17707572828E+01  0.17707572828E+01  0.00000000000E+00 0. -1.
          2   -1    0    0  502    0 -0.00000000000E+00 -0.00000000000E+00 -0.20148466942E+04  0.20148466942E+04  0.00000000000E+00 0. -1.
         24    2    1    2    0    0  0.22392276901E+02 -0.10222390231E+02 -0.11068176051E+04  0.11100248884E+04  0.80648191117E+02 0.  0.
        -13    1    3    3    0    0 -0.35709222825E+01 -0.19594717756E+02 -0.98155292864E+03  0.98175498785E+03  0.00000000000E+00 0.  1.
         14    1    3    3    0    0  0.25963199183E+02  0.93723275254E+01 -0.12526467642E+03  0.12826990058E+03  0.00000000000E+00 0. -1.
          1    1    1    2  501    0 -0.22392276901E+02  0.10222390231E+02 -0.90625833186E+03  0.90659256306E+03  0.00000000000E+00 0. -1.
<mgrwt>
<rscale>  1 0.84321065E+02</rscale>
<asrwt>0</asrwt>
<pdfrwt beam="1">  1       21 0.27242347E-03 0.84321065E+02</pdfrwt>
<pdfrwt beam="2">  1        2 0.30997725E+00 0.84321065E+02</pdfrwt>
<totfact> 0.25789514E+06</totfact>
</mgrwt>
</event>
<event>
 6    2  0.7993170E+000  0.8786643E+02  0.7546771E-02  0.1308102E+00
         -1   -1    0    0    0  501 -0.00000000000E+00  0.00000000000E+00  0.18842860510E+03  0.18842860510E+03  0.00000000000E+00 0.  1.
         21   -1    0    0  501  502  0.00000000000E+00 -0.00000000000E+00 -0.48447421281E+02  0.48447421281E+02  0.00000000000E+00 0.  1.
         24    2    1    2    0    0  0.20224219654E+02  0.21294512952E+02  0.17217490559E+03  0.19329952970E+03  0.82813252101E+02 0.  0.
        -11    1    3    3    0    0  0.17784627309E+02 -0.13345240250E+02  0.15099765853E+03  0.15262595221E+03  0.00000000000E+00 0.  1.
         12    1    3    3    0    0  0.24395923447E+01  0.34639753203E+02  0.21177247062E+02  0.40673577490E+02  0.00000000000E+00 0. -1.
         -2    1    1    2    0  502 -0.20224219654E+02 -0.21294512952E+02 -0.32193721767E+02  0.43576496689E+02  0.00000000000E+00 0.  1.
<mgrwt>
<rscale>  1 0.87866433E+02</rscale>
<asrwt>0</asrwt>
<pdfrwt beam="1">  1       21 0.74534495E-02 0.87866433E+02</pdfrwt>
<pdfrwt beam="2">  1       -1 0.28989016E-01 0.87866433E+02</pdfrwt>
<totfact> 0.12848444E+05</totfact>
</mgrwt>
</event>
<event>
 6    2  0.7993170E+000  0.9633101E+02  0.7546771E-02  0.1288206E+00
          2   -1    0    0  502    0 -0.00000000000E+00  0.00000000000E+00  0.39604898941E+04  0.39604898941E+04  0.00000000000E+00 0. -1.
         21   -1    0    0  501  502  0.00000000000E+00 -0.00000000000E+00 -0.17977076253E+01  0.17977076253E+01  0.00000000000E+00 0. -1.
         24    2    1    2    0    0 -0.28328240367E+02  0.46757337943E+02  0.32738075436E+04  0.32752244956E+04  0.79315356079E+02 0.  0.
        -11    1    3    3    0    0  0.26013087973E+02  0.28508083080E+02  0.11711106078E+04  0.11717463237E+04  0.00000000000E+00 0.  1.
         12    1    3    3    0    0 -0.54341328340E+02  0.18249254863E+02  0.21026969358E+04  0.21034781718E+04  0.00000000000E+00 0. -1.
          1    1    1    2  501    0  0.28328240367E+02 -0.46757337943E+02  0.68488464283E+03  0.68706310615E+03  0.00000000000E+00 0. -1.
<mgrwt>
<rscale>  1 0.96331010E+02</rscale>
<asrwt>0</asrwt>
<pdfrwt beam="1">  1       21 0.27657357E-03 0.96331010E+02</pdfrwt>
<pdfrwt beam="2">  1        2 0.60929915E+00 0.96331010E+02</pdfrwt>
<totfact> 0.18514882E+05</totfact>
</mgrwt>
</event>
<event>
 6    2  0.7993170E+000  0.8516988E+02  0.7546771E-02  0.1314989E+00
         -3   -1    0    0    0  501 -0.00000000000E+00  0.00000000000E+00  0.75743178925E+01  0.75743178925E+01  0.00000000000E+00 0.  1.
         21   -1    0    0  501  502  0.00000000000E+00 -0.00000000000E+00 -0.65780601292E+03  0.65780601292E+03  0.00000000000E+00 0.  1.
         24    2    1    2    0    0 -0.28949611083E+02 -0.26580071519E+02 -0.26979851002E+03  0.28292250511E+03  0.75560093347E+02 0.  0.
        -13    1    3    3    0    0 -0.43625181720E+02 -0.23636296850E+02 -0.26075734816E+03  0.26543591623E+03  0.00000000000E+00 0.  1.
         14    1    3    3    0    0  0.14675570636E+02 -0.29437746686E+01 -0.90411618625E+01  0.17486588879E+02  0.00000000000E+00 0. -1.
         -4    1    1    2    0  502  0.28949611083E+02  0.26580071519E+02 -0.38043318501E+03  0.38245782570E+03  0.00000000000E+00 0.  1.
<mgrwt>
<rscale>  1 0.85169877E+02</rscale>
<asrwt>0</asrwt>
<pdfrwt beam="1">  1       21 0.10120097E+00 0.85169877E+02</pdfrwt>
<pdfrwt beam="2">  1       -3 0.11652792E-02 0.85169877E+02</pdfrwt>
<totfact> 0.79491654E+04</totfact>
</mgrwt>
</event>
<event>
 6    2  0.7993170E+000  0.1083416E+03  0.7546771E-02  0.1263672E+00
          2   -1    0    0  502    0 -0.00000000000E+00  0.00000000000E+00  0.10406855226E+04  0.10406855226E+04  0.00000000000E+00 0. -1.
         21   -1    0    0  501  502  0.00000000000E+00 -0.00000000000E+00 -0.10638519127E+02  0.10638519127E+02  0.00000000000E+00 0. -1.
         24    2    1    2    0    0 -0.74731706147E+01  0.72138835178E+02  0.85515644893E+03  0.86199214824E+03  0.80486344614E+02 0.  0.
        -13    1    3    3    0    0  0.35403137685E+02  0.26175398247E+02  0.28492481468E+03  0.28830657928E+03  0.00000000000E+00 0.  1.
         14    1    3    3    0    0 -0.42876308299E+02  0.45963436931E+02  0.57023163424E+03  0.57368556897E+03  0.00000000000E+00 0. -1.
          1    1    1    2  501    0  0.74731706147E+01 -0.72138835178E+02  0.17489055450E+03  0.18933189344E+03  0.00000000000E+00 0. -1.
<mgrwt>
<rscale>  1 0.10834164E+03</rscale>
<asrwt>0</asrwt>
<pdfrwt beam="1">  1       21 0.16366961E-02 0.10834164E+03</pdfrwt>
<pdfrwt beam="2">  1        2 0.16010538E+00 0.10834164E+03</pdfrwt>
<totfact> 0.52434623E+05</totfact>
</mgrwt>
</event>
<event>
 6    2  0.7993170E+000  0.7964355E+02  0.7546771E-02  0.1330066E+00
          2   -1    0    0  502    0 -0.00000000000E+00  0.00000000000E+00  0.89036427240E+03  0.89036427240E+03  0.00000000000E+00 0. -1.
         21   -1    0    0  501  502  0.00000000000E+00 -0.00000000000E+00 -0.32087908056E+01  0.32087908056E+01  0.00000000000E+00 0.  1.
         24    2    1    2    0    0 -0.24402337340E+02  0.70357118433E+01  0.73628828121E+03  0.74058323524E+03  0.75485892485E+02 0.  0.
        -11    1    3    3    0    0 -0.46230553302E+01  0.10223228255E+02  0.13659530692E+02  0.17676815756E+02  0.00000000000E+00 0.  1.
         12    1    3    3    0    0 -0.19779282010E+02 -0.31875164119E+01  0.72262875052E+03  0.72290641948E+03  0.00000000000E+00 0. -1.
          1    1    1    2  501    0  0.24402337340E+02 -0.70357118433E+01  0.15086720039E+03  0.15298982797E+03  0.00000000000E+00 0. -1.
<mgrwt>
<rscale>  1 0.79643551E+02</rscale>
<asrwt>0</asrwt>
<pdfrwt beam="1">  1       21 0.49366084E-03 0.79643551E+02</pdfrwt>
<pdfrwt beam="2">  1        2 0.13697892E+00 0.79643551E+02</pdfrwt>
<totfact> 0.40704002E+06</totfact>
</mgrwt>
</event>
<event>
 6    2  0.7993170E+000  0.1216998E+03  0.7546771E-02  0.1240319E+00
         21   -1    0    0  501  502  0.00000000000E+00  0.00000000000E+00  0.14312642532E+02  0.14312642532E+02  0.00000000000E+00 0.  1.
          2   -1    0    0  502    0 -0.00000000000E+00 -0.00000000000E+00 -0.90832817056E+03  0.90832817056E+03  0.00000000000E+00 0. -1.
         24    2    1    2    0    0 -0.45086740090E+02 -0.79870740045E+02 -0.66313476477E+03  0.67420958299E+03  0.79991851481E+02 0.  0.
        -13    1    3    3    0    0 -0.36571333880E+02 -0.92641316384E+02 -0.62826985833E+03  0.63611546974E+03  0.00000000000E+00 0.  1.
         14    1    3    3    0    0 -0.85154062101E+01  0.12770576339E+02 -0.34864906442E+02  0.38094113248E+02  0.00000000000E+00 0. -1.
          1    1    1    2  501    0  0.45086740090E+02  0.79870740045E+02 -0.23088076326E+03  0.24843123010E+03  0.00000000000E+00 0. -1.
<mgrwt>
<rscale>  1 0.12169982E+03</rscale>
<asrwt>0</asrwt>
<pdfrwt beam="1">  1       21 0.22019446E-02 0.12169982E+03</pdfrwt>
<pdfrwt beam="2">  1        2 0.13974282E+00 0.12169982E+03</pdfrwt>
<totfact> 0.39336489E+05</totfact>
</mgrwt>
</event>
<event>
 6    2  0.7993170E+000  0.9333360E+02  0.7546771E-02  0.1294974E+00
         -1   -1    0    0    0  501 -0.00000000000E+00  0.00000000000E+00  0.26654028292E+03  0.26654028292E+03  0.00000000000E+00 0.  1.
         21   -1    0    0  501  502  0.00000000000E+00 -0.00000000000E+00 -0.31557819662E+02  0.31557819662E+02  0.00000000000E+00 0.  1.
         24    2    1    2    0    0  0.44165022128E+02 -0.31261297146E+02  0.22430090960E+03  0.24294455811E+03  0.76048289845E+02 0.  0.
        -13    1    3    3    0    0  0.61002561836E+02 -0.37992829797E+01  0.14698037621E+03  0.15918221664E+03  0.00000000000E+00 0.  1.
         14    1    3    3    0    0 -0.16837539709E+02 -0.27462014166E+02  0.77320533391E+02  0.83762341475E+02  0.00000000000E+00 0. -1.
         -2    1    1    2    0  502 -0.44165022128E+02  0.31261297146E+02  0.10681553651E+02  0.55153544466E+02  0.00000000000E+00 0.  1.
<mgrwt>
<rscale>  1 0.93333597E+02</rscale>
<asrwt>0</asrwt>
<pdfrwt beam="1">  1       21 0.48550494E-02 0.93333597E+02</pdfrwt>
<pdfrwt beam="2">  1       -1 0.41006196E-01 0.93333597E+02</pdfrwt>
<totfact> 0.14734004E+05</totfact>
</mgrwt>
</event>
<event>
 6    2  0.7993170E+000  0.8578157E+02  0.7546771E-02  0.1313401E+00
         -1   -1    0    0    0  501 -0.00000000000E+00  0.00000000000E+00  0.23882285865E+02  0.23882285865E+02  0.00000000000E+00 0.  1.
         21   -1    0    0  501  502  0.00000000000E+00 -0.00000000000E+00 -0.48892807911E+03  0.48892807911E+03  0.00000000000E+00 0.  1.
         24    2    1    2    0    0  0.94793850839E+01  0.29629797720E+02 -0.55688309897E+02  0.10227250700E+03  0.79941817436E+02 0.  0.
        -11    1    3    3    0    0 -0.96391256878E+01  0.51998056390E+02 -0.21297843013E+02  0.57011478926E+02  0.00000000000E+00 0.  1.
         12    1    3    3    0    0  0.19118510772E+02 -0.22368258670E+02 -0.34390466884E+02  0.45261028077E+02  0.00000000000E+00 0. -1.
         -2    1    1    2    0  502 -0.94793850839E+01 -0.29629797720E+02 -0.40935748335E+03  0.41053785797E+03  0.00000000000E+00 0.  1.
<mgrwt>
<rscale>  1 0.85781570E+02</rscale>
<asrwt>0</asrwt>
<pdfrwt beam="1">  1       21 0.75219711E-01 0.85781570E+02</pdfrwt>
<pdfrwt beam="2">  1       -1 0.36741975E-02 0.85781570E+02</pdfrwt>
<totfact> 0.38149886E+04</totfact>
</mgrwt>
</event>
<event>
 6    2  0.7993170E+000  0.8589102E+02  0.7546771E-02  0.1313119E+00
         -1   -1    0    0    0  501 -0.00000000000E+00  0.00000000000E+00  0.35888277759E+02  0.35888277759E+02  0.00000000000E+00 0.  1.
         21   -1    0    0  501  502  0.00000000000E+00 -0.00000000000E+00 -0.96177844927E+02  0.96177844927E+02  0.00000000000E+00 0. -1.
         24    2    1    2    0    0  0.18075434887E+02  0.20058616079E+02 -0.60507585140E+02  0.10506395690E+03  0.81536481126E+02 0.  0.
        -13    1    3    3    0    0  0.47505491873E+02  0.20715525913E+02 -0.21291986662E+02  0.56029041291E+02  0.00000000000E+00 0.  1.
         14    1    3    3    0    0 -0.29430056986E+02 -0.65690983454E+00 -0.39215598478E+02  0.49034915608E+02  0.00000000000E+00 0. -1.
         -2    1    1    2    0  502 -0.18075434887E+02 -0.20058616079E+02  0.21801797228E+00  0.27002165787E+02  0.00000000000E+00 0.  1.
<mgrwt>
<rscale>  1 0.85891019E+02</rscale>
<asrwt>0</asrwt>
<pdfrwt beam="1">  1       21 0.14796591E-01 0.85891019E+02</pdfrwt>
<pdfrwt beam="2">  1       -1 0.55212736E-02 0.85891019E+02</pdfrwt>
<totfact> 0.50015434E+05</totfact>
</mgrwt>
</event>
<event>
 6    2  0.7993170E+000  0.9805029E+02  0.7546771E-02  0.1284450E+00
         -1   -1    0    0    0  501 -0.00000000000E+00  0.00000000000E+00  0.94441183404E+02  0.94441183404E+02  0.00000000000E+00 0.  1.
         21   -1    0    0  501  502  0.00000000000E+00 -0.00000000000E+00 -0.89915496492E+02  0.89915496492E+02  0.00000000000E+00 0.  1.
         24    2    1    2    0    0  0.10953677557E+02  0.62957824887E+02  0.45865292566E+02  0.10824732592E+03  0.74365232070E+02 0.  0.
        -11    1    3    3    0    0  0.20672670294E+02  0.41342405496E+02  0.63617014988E+02  0.78636368083E+02  0.00000000000E+00 0.  1.
         12    1    3    3    0    0 -0.97189927376E+01  0.21615419391E+02 -0.17751722422E+02  0.29610957841E+02  0.00000000000E+00 0. -1.
         -2    1    1    2    0  502 -0.10953677557E+02 -0.62957824887E+02 -0.41339605653E+02  0.76109353973E+02  0.00000000000E+00 0.  1.
<mgrwt>
<rscale>  1 0.98050286E+02</rscale>
<asrwt>0</asrwt>
<pdfrwt beam="1">  1       21 0.13833153E-01 0.98050286E+02</pdfrwt>
<pdfrwt beam="2">  1       -1 0.14529413E-01 0.98050286E+02</pdfrwt>
<totfact> 0.13319660E+05</totfact>
</mgrwt>
</event>
<event>
 6    2  0.7993170E+000  0.9612250E+02  0.7546771E-02  0.1288668E+00
          2   -1    0    0  502    0 -0.00000000000E+00  0.00000000000E+00  0.24564976966E+02  0.24564976966E+02  0.00000000000E+00 0. -1.
         21   -1    0    0  501  502  0.00000000000E+00 -0.00000000000E+00 -0.43377889710E+03  0.43377889710E+03  0.00000000000E+00 0. -1.
         24    2    1    2    0    0 -0.15780805224E+02  0.51827121105E+02 -0.81033530979E+02  0.12572178803E+03  0.79400570189E+02 0.  0.
        -13    1    3    3    0    0  0.25303924145E+02  0.44389363924E+01 -0.48930537289E+02  0.55264728470E+02  0.00000000000E+00 0.  1.
         14    1    3    3    0    0 -0.41084729369E+02  0.47388184712E+02 -0.32102993690E+02  0.70457059557E+02  0.00000000000E+00 0. -1.
          1    1    1    2  501    0  0.15780805224E+02 -0.51827121105E+02 -0.32818038915E+03  0.33262208604E+03  0.00000000000E+00 0. -1.
<mgrwt>
<rscale>  1 0.96122499E+02</rscale>
<asrwt>0</asrwt>
<pdfrwt beam="1">  1       21 0.66735212E-01 0.96122499E+02</pdfrwt>
<pdfrwt beam="2">  1        2 0.37792274E-02 0.96122499E+02</pdfrwt>
<totfact> 0.55394059E+04</totfact>
</mgrwt>
</event>
<event>
 6    2  0.7993170E+000  0.8715385E+02  0.7546771E-02  0.1309894E+00
         21   -1    0    0  501  502  0.00000000000E+00  0.00000000000E+00  0.11275663037E+02  0.11275663037E+02  0.00000000000E+00 0.  1.
          2   -1    0    0  502    0 -0.00000000000E+00 -0.00000000000E+00 -0.33249835666E+03  0.33249835666E+03  0.00000000000E+00 0. -1.
         24    2    1    2    0    0 -0.50828825712E+01 -0.26014435227E+02 -0.29002193015E+03  0.30283413479E+03  0.83025337626E+02 0.  0.
        -11    1    3    3    0    0 -0.23396720931E+01 -0.38502748295E+02 -0.53441769314E+02  0.65908712620E+02  0.00000000000E+00 0.  1.
         12    1    3    3    0    0 -0.27432104782E+01  0.12488313069E+02 -0.23658016084E+03  0.23692542217E+03  0.00000000000E+00 0. -1.
          1    1    1    2  501    0  0.50828825712E+01  0.26014435227E+02 -0.31200763475E+02  0.40939884915E+02  0.00000000000E+00 0. -1.
<mgrwt>
<rscale>  1 0.87153848E+02</rscale>
<asrwt>0</asrwt>
<pdfrwt beam="1">  1       21 0.17347174E-02 0.87153848E+02</pdfrwt>
<pdfrwt beam="2">  1        2 0.51153592E-01 0.87153848E+02</pdfrwt>
<totfact> 0.17406357E+06</totfact>
</mgrwt>
</event>
<event>
 6    2  0.7993170E+000  0.1173771E+03  0.7546771E-02  0.1247488E+00
          2   -1    0    0  502    0 -0.00000000000E+00  0.00000000000E+00  0.54294610426E+03  0.54294610426E+03  0.00000000000E+00 0. -1.
         21   -1    0    0  501  502  0.00000000000E+00 -0.00000000000E+00 -0.19125533344E+02  0.19125533344E+02  0.00000000000E+00 0.  1.
         24    2    1    2    0    0 -0.79195491728E+02  0.32871271761E+02  0.27973636756E+03  0.30336418749E+03  0.80155776445E+02 0.  0.
        -13    1    3    3    0    0 -0.79254569141E+02  0.53559378050E+02  0.24386989506E+03  0.26195881245E+03  0.00000000000E+00 0.  1.
         14    1    3    3    0    0  0.59077413366E-01 -0.20688106289E+02  0.35866472505E+02  0.41405375037E+02  0.00000000000E+00 0. -1.
          1    1    1    2  501    0  0.79195491728E+02 -0.32871271761E+02  0.24408420336E+03  0.25870745011E+03  0.00000000000E+00 0. -1.
<mgrwt>
<rscale>  1 0.11737715E+03</rscale>
<asrwt>0</asrwt>
<pdfrwt beam="1">  1       21 0.29423902E-02 0.11737715E+03</pdfrwt>
<pdfrwt beam="2">  1        2 0.83530158E-01 0.11737715E+03</pdfrwt>
<totfact> 0.45204545E+05</totfact>
</mgrwt>
</event>
<event>
 6    2  0.7993170E+000  0.9787520E+02  0.7546771E-02  0.1284829E+00
          4   -1    0    0  502    0 -0.00000000000E+00  0.00000000000E+00  0.21524266174E+02  0.21524266174E+02  0.00000000000E+00 0. -1.
         21   -1    0    0  501  502  0.00000000000E+00 -0.00000000000E+00 -0.23105707390E+03  0.23105707390E+03  0.00000000000E+00 0.  1.
         24    2    1    2    0    0  0.38686194502E+01  0.29632812777E+02 -0.19739184868E+03  0.22032498107E+03  0.93201317325E+02 0.  0.
        -13    1    3    3    0    0 -0.43479009988E+01  0.40185394954E+02 -0.20213345544E+03  0.20613515959E+03  0.00000000000E+00 0.  1.
         14    1    3    3    0    0  0.82165204490E+01 -0.10552582177E+02  0.47416067672E+01  0.14189821480E+02  0.00000000000E+00 0. -1.
          3    1    1    2  501    0 -0.38686194502E+01 -0.29632812777E+02 -0.12140959052E+02  0.32256359005E+02  0.00000000000E+00 0. -1.
<mgrwt>
<rscale>  1 0.97875203E+02</rscale>
<asrwt>0</asrwt>
<pdfrwt beam="1">  1       21 0.35547243E-01 0.97875203E+02</pdfrwt>
<pdfrwt beam="2">  1        4 0.33114255E-02 0.97875203E+02</pdfrwt>
<totfact> 0.13586609E+05</totfact>
</mgrwt>
</event>
<event>
 6    2  0.7993170E+000  0.8434103E+02  0.7546771E-02  0.1317165E+00
          2   -1    0    0  502    0 -0.00000000000E+00  0.00000000000E+00  0.65568396666E+03  0.65568396666E+03  0.00000000000E+00 0. -1.
         21   -1    0    0  501  502  0.00000000000E+00 -0.00000000000E+00 -0.63453316283E+01  0.63453316283E+01  0.00000000000E+00 0.  1.
         24    2    1    2    0    0  0.96604657338E+01 -0.19840173727E+02  0.61783912877E+03  0.62356924126E+03  0.81403025229E+02 0.  0.
        -11    1    3    3    0    0  0.13175475400E+02  0.12871317896E+02  0.32895797456E+02  0.37701425261E+02  0.00000000000E+00 0.  1.
         12    1    3    3    0    0 -0.35150096662E+01 -0.32711491623E+02  0.58494333131E+03  0.58586781600E+03  0.00000000000E+00 0. -1.
          1    1    1    2  501    0 -0.96604657338E+01  0.19840173727E+02  0.31499506256E+02  0.38460057021E+02  0.00000000000E+00 0. -1.
<mgrwt>
<rscale>  1 0.84341032E+02</rscale>
<asrwt>0</asrwt>
<pdfrwt beam="1">  1       21 0.97620538E-03 0.84341032E+02</pdfrwt>
<pdfrwt beam="2">  1        2 0.10087440E+00 0.84341032E+02</pdfrwt>
<totfact> 0.20649927E+06</totfact>
</mgrwt>
</event>
<event>
 6    2  0.7993170E+000  0.9756791E+02  0.7546771E-02  0.1285495E+00
         21   -1    0    0  501  502  0.00000000000E+00  0.00000000000E+00  0.14845914301E+02  0.14845914301E+02  0.00000000000E+00 0. -1.
         -1   -1    0    0    0  501 -0.00000000000E+00 -0.00000000000E+00 -0.56744939393E+03  0.56744939393E+03  0.00000000000E+00 0.  1.
         24    2    1    2    0    0  0.13532813954E+02 -0.57586397976E+02 -0.47389912142E+03  0.48383868689E+03  0.77589737458E+02 0.  0.
        -11    1    3    3    0    0  0.97456864833E+01  0.17207193072E+02 -0.15541871333E+03  0.15667176629E+03  0.00000000000E+00 0.  1.
         12    1    3    3    0    0  0.37871274703E+01 -0.74793591048E+02 -0.31848040809E+03  0.32716692060E+03  0.00000000000E+00 0. -1.
         -2    1    1    2    0  502 -0.13532813954E+02  0.57586397976E+02 -0.78704358201E+02  0.98456621338E+02  0.00000000000E+00 0.  1.
<mgrwt>
<rscale>  1 0.97567913E+02</rscale>
<asrwt>0</asrwt>
<pdfrwt beam="1">  1       21 0.22839868E-02 0.97567913E+02</pdfrwt>
<pdfrwt beam="2">  1       -1 0.87299906E-01 0.97567913E+02</pdfrwt>
<totfact> 0.12151467E+05</totfact>
</mgrwt>
</event>
<event>
 6    2  0.7993170E+000  0.8284500E+02  0.7546771E-02  0.1321166E+00
         -3   -1    0    0    0  501 -0.00000000000E+00  0.00000000000E+00  0.27473239221E+04  0.27473239221E+04  0.00000000000E+00 0.  1.
         21   -1    0    0  501  502  0.00000000000E+00 -0.00000000000E+00 -0.21411718177E+01  0.21411718177E+01  0.00000000000E+00 0. -1.
         24    2    1    2    0    0  0.21182747695E+02 -0.21714957042E+01  0.26710580755E+04  0.26723425188E+04  0.80061666682E+02 0.  0.
        -13    1    3    3    0    0 -0.38484548045E+01 -0.10770943615E+01  0.24267009774E+04  0.24267042680E+04  0.00000000000E+00 0.  1.
         14    1    3    3    0    0  0.25031202500E+02 -0.10944013428E+01  0.24435709818E+03  0.24563825077E+03  0.00000000000E+00 0. -1.
         -4    1    1    2    0  502 -0.21182747695E+02  0.21714957042E+01  0.74124674779E+02  0.77122575195E+02  0.00000000000E+00 0.  1.
<mgrwt>
<rscale>  1 0.82845004E+02</rscale>
<asrwt>0</asrwt>
<pdfrwt beam="1">  1       21 0.32941324E-03 0.82845004E+02</pdfrwt>
<pdfrwt beam="2">  1       -3 0.42266240E+00 0.82845004E+02</pdfrwt>
<totfact> 0.10392085E+04</totfact>
</mgrwt>
</event>
<event>
 6    2  0.7993170E+000  0.8674873E+02  0.7546771E-02  0.1310922E+00
          2   -1    0    0  502    0 -0.00000000000E+00  0.00000000000E+00  0.67885984066E+02  0.67885984066E+02  0.00000000000E+00 0. -1.
         21   -1    0    0  501  502  0.00000000000E+00 -0.00000000000E+00 -0.72278945852E+02  0.72278945852E+02  0.00000000000E+00 0. -1.
         24    2    1    2    0    0 -0.12463875392E+02 -0.31564915974E+02 -0.35875247378E+02  0.93874256814E+02  0.79835146444E+02 0.  0.
        -13    1    3    3    0    0 -0.16490754774E+02  0.24124979102E+02 -0.21319331436E+02  0.36172828235E+02  0.00000000000E+00 0.  1.
         14    1    3    3    0    0  0.40268793820E+01 -0.55689895076E+02 -0.14555915942E+02  0.57701428579E+02  0.00000000000E+00 0. -1.
          1    1    1    2  501    0  0.12463875392E+02  0.31564915974E+02  0.31482285593E+02  0.46290673104E+02  0.00000000000E+00 0. -1.
<mgrwt>
<rscale>  1 0.86748733E+02</rscale>
<asrwt>0</asrwt>
<pdfrwt beam="1">  1       21 0.11119838E-01 0.86748733E+02</pdfrwt>
<pdfrwt beam="2">  1        2 0.10443998E-01 0.86748733E+02</pdfrwt>
<totfact> 0.46392901E+05</totfact>
</mgrwt>
</event>
<event>
 6    2  0.7993170E+000  0.6214435E+02  0.7546771E-02  0.1389047E+00
         21   -1    0    0  501  502  0.00000000000E+00  0.00000000000E+00  0.74884546413E+02  0.74884546413E+02  0.00000000000E+00 0.  1.
         -1   -1    0    0    0  501 -0.00000000000E+00 -0.00000000000E+00 -0.31904717846E+02  0.31904717846E+02  0.00000000000E+00 0.  1.
         24    2    1    2    0    0 -0.17553660825E+02  0.28364812729E+02  0.16770937819E+02  0.64367576837E+02  0.52433071462E+02 0.  0.
        -11    1    3    3    0    0 -0.18884110790E+02  0.43169368209E+02  0.10747016056E+02  0.48329104544E+02  0.00000000000E+00 0.  1.
         12    1    3    3    0    0  0.13304499643E+01 -0.14804555480E+02  0.60239217631E+01  0.16038472293E+02  0.00000000000E+00 0. -1.
         -2    1    1    2    0  502  0.17553660825E+02 -0.28364812729E+02  0.26208890748E+02  0.42421687422E+02  0.00000000000E+00 0.  1.
<mgrwt>
<rscale>  1 0.62144353E+02</rscale>
<asrwt>0</asrwt>
<pdfrwt beam="1">  1       21 0.11520699E-01 0.62144353E+02</pdfrwt>
<pdfrwt beam="2">  1       -1 0.49084182E-02 0.62144353E+02</pdfrwt>
<totfact> 0.88395349E+05</totfact>
</mgrwt>
</event>
<event>
 6    2  0.7993170E+000  0.8398257E+02  0.7546771E-02  0.1318115E+00
          4   -1    0    0  502    0 -0.00000000000E+00  0.00000000000E+00  0.34573877875E+02  0.34573877875E+02  0.00000000000E+00 0. -1.
         21   -1    0    0  501  502  0.00000000000E+00 -0.00000000000E+00 -0.15606156615E+03  0.15606156615E+03  0.00000000000E+00 0. -1.
         24    2    1    2    0    0 -0.19881077550E+02  0.12790917817E+02 -0.19865976631E+02  0.86300228970E+02  0.80586646969E+02 0.  0.
        -11    1    3    3    0    0  0.16770095643E+02 -0.90717610635E+01 -0.35950188542E+02  0.40693353424E+02  0.00000000000E+00 0.  1.
         12    1    3    3    0    0 -0.36651173194E+02  0.21862678881E+02  0.16084211911E+02  0.45606875546E+02  0.00000000000E+00 0. -1.
          3    1    1    2  501    0  0.19881077550E+02 -0.12790917817E+02 -0.10162171165E+03  0.10433521506E+03  0.00000000000E+00 0. -1.
<mgrwt>
<rscale>  1 0.83982573E+02</rscale>
<asrwt>0</asrwt>
<pdfrwt beam="1">  1       21 0.24009472E-01 0.83982573E+02</pdfrwt>
<pdfrwt beam="2">  1        4 0.53190580E-02 0.83982573E+02</pdfrwt>
<totfact> 0.13246063E+05</totfact>
</mgrwt>
</event>
<event>
 6    2  0.7993170E+000  0.8388264E+02  0.7546771E-02  0.1318381E+00
          2   -1    0    0  502    0 -0.00000000000E+00  0.00000000000E+00  0.10197406814E+03  0.10197406814E+03  0.00000000000E+00 0. -1.
         21   -1    0    0  501  502  0.00000000000E+00 -0.00000000000E+00 -0.36668492627E+02  0.36668492627E+02  0.00000000000E+00 0.  1.
         24    2    1    2    0    0 -0.47023100962E+01  0.19916382282E+02  0.78014163269E+02  0.11455351333E+03  0.81348163737E+02 0.  0.
        -13    1    3    3    0    0 -0.30561422098E+02  0.11214402036E+02  0.69479154147E+00  0.32561419947E+02  0.00000000000E+00 0.  1.
         14    1    3    3    0    0  0.25859112002E+02  0.87019802469E+01  0.77319371728E+02  0.81992093388E+02  0.00000000000E+00 0. -1.
          1    1    1    2  501    0  0.47023100962E+01 -0.19916382282E+02 -0.12708587756E+02  0.24089047433E+02  0.00000000000E+00 0. -1.
<mgrwt>
<rscale>  1 0.83882643E+02</rscale>
<asrwt>0</asrwt>
<pdfrwt beam="1">  1       21 0.56413066E-02 0.83882643E+02</pdfrwt>
<pdfrwt beam="2">  1        2 0.15688318E-01 0.83882643E+02</pdfrwt>
<totfact> 0.91145532E+05</totfact>
</mgrwt>
</event>
<event>
 6    2  0.7993170E+000  0.8842463E+02  0.7546771E-02  0.1306712E+00
         21   -1    0    0  501  502  0.00000000000E+00  0.00000000000E+00  0.44639605588E+02  0.44639605588E+02  0.00000000000E+00 0. -1.
          2   -1    0    0  502    0 -0.00000000000E+00 -0.00000000000E+00 -0.10557808061E+03  0.10557808061E+03  0.00000000000E+00 0. -1.
         24    2    1    2    0    0 -0.27312121348E+02 -0.23785491900E+02 -0.70122172962E+02  0.11285404204E+03  0.80667304812E+02 0.  0.
        -13    1    3    3    0    0 -0.15757998265E+02  0.41051644285E+01  0.15244758881E+02  0.22306267228E+02  0.00000000000E+00 0.  1.
         14    1    3    3    0    0 -0.11554123083E+02 -0.27890656329E+02 -0.85366931842E+02  0.90547774809E+02  0.00000000000E+00 0. -1.
          1    1    1    2  501    0  0.27312121348E+02  0.23785491900E+02  0.91836979356E+01  0.37363644164E+02  0.00000000000E+00 0. -1.
<mgrwt>
<rscale>  1 0.88424633E+02</rscale>
<asrwt>0</asrwt>
<pdfrwt beam="1">  1       21 0.68676318E-02 0.88424633E+02</pdfrwt>
<pdfrwt beam="2">  1        2 0.16242781E-01 0.88424633E+02</pdfrwt>
<totfact> 0.63279216E+05</totfact>
</mgrwt>
</event>
<event>
 6    2  0.7993170E+000  0.8710082E+02  0.7546771E-02  0.1310028E+00
         21   -1    0    0  501  502  0.00000000000E+00  0.00000000000E+00  0.28322398876E+01  0.28322398876E+01  0.00000000000E+00 0. -1.
          2   -1    0    0  502    0 -0.00000000000E+00 -0.00000000000E+00 -0.20552163609E+04  0.20552163609E+04  0.00000000000E+00 0. -1.
         24    2    1    2    0    0 -0.96242789937E+01 -0.30319756938E+02 -0.19169902124E+04  0.19189679590E+04  0.81084148634E+02 0.  0.
        -11    1    3    3    0    0 -0.41367711151E+02 -0.27451304168E+02 -0.81075247906E+03  0.81227116404E+03  0.00000000000E+00 0.  1.
         12    1    3    3    0    0  0.31743432158E+02 -0.28684527693E+01 -0.11062377333E+04  0.11066967950E+04  0.00000000000E+00 0. -1.
          1    1    1    2  501    0  0.96242789937E+01  0.30319756938E+02 -0.13539390868E+03  0.13908064177E+03  0.00000000000E+00 0. -1.
<mgrwt>
<rscale>  1 0.87100824E+02</rscale>
<asrwt>0</asrwt>
<pdfrwt beam="1">  1       21 0.43572950E-03 0.87100824E+02</pdfrwt>
<pdfrwt beam="2">  1        2 0.31618693E+00 0.87100824E+02</pdfrwt>
<totfact> 0.12100877E+06</totfact>
</mgrwt>
</event>
<event>
 6    2  0.7993170E+000  0.9319232E+02  0.7546771E-02  0.1295300E+00
         -1   -1    0    0    0  501 -0.00000000000E+00  0.00000000000E+00  0.29366612889E+03  0.29366612889E+03  0.00000000000E+00 0.  1.
         21   -1    0    0  501  502  0.00000000000E+00 -0.00000000000E+00 -0.23541111801E+02  0.23541111801E+02  0.00000000000E+00 0.  1.
         24    2    1    2    0    0 -0.25119230613E+02  0.33596614798E+02  0.25680947122E+03  0.27319574180E+03  0.83217189078E+02 0.  0.
        -11    1    3    3    0    0 -0.41040331954E+02  0.44125156803E+02  0.11244013677E+03  0.12757006964E+03  0.00000000000E+00 0.  1.
         12    1    3    3    0    0  0.15921101341E+02 -0.10528542005E+02  0.14436933445E+03  0.14562567216E+03  0.00000000000E+00 0. -1.
         -2    1    1    2    0  502  0.25119230613E+02 -0.33596614798E+02  0.13315545867E+02  0.44011498887E+02  0.00000000000E+00 0.  1.
<mgrwt>
<rscale>  1 0.93192322E+02</rscale>
<asrwt>0</asrwt>
<pdfrwt beam="1">  1       21 0.36217097E-02 0.93192322E+02</pdfrwt>
<pdfrwt beam="2">  1       -1 0.45179402E-01 0.93192322E+02</pdfrwt>
<totfact> 0.20159849E+05</totfact>
</mgrwt>
</event>
<event>
 6    2  0.7993170E+000  0.2315744E+03  0.7546771E-02  0.1125537E+00
          2   -1    0    0  502    0 -0.00000000000E+00  0.00000000000E+00  0.35044987584E+03  0.35044987584E+03  0.00000000000E+00 0. -1.
         21   -1    0    0  501  502  0.00000000000E+00 -0.00000000000E+00 -0.16802087111E+03  0.16802087111E+03  0.00000000000E+00 0. -1.
         24    2    1    2    0    0  0.19588422643E+03 -0.93278780340E+02  0.19270576332E+03  0.30126767885E+03  0.80963831920E+02 0.  0.
        -11    1    3    3    0    0  0.16642879535E+02 -0.41661629253E+02  0.42231993224E+02  0.61613456670E+02  0.00000000000E+00 0.  1.
         12    1    3    3    0    0  0.17924134689E+03 -0.51617151087E+02  0.15047377009E+03  0.23965422218E+03  0.00000000000E+00 0. -1.
          1    1    1    2  501    0 -0.19588422643E+03  0.93278780340E+02 -0.10276758594E+02  0.21720306810E+03  0.00000000000E+00 0. -1.
<mgrwt>
<rscale>  1 0.23157440E+03</rscale>
<asrwt>0</asrwt>
<pdfrwt beam="1">  1       21 0.25849365E-01 0.23157440E+03</pdfrwt>
<pdfrwt beam="2">  1        2 0.53915365E-01 0.23157440E+03</pdfrwt>
<totfact> 0.16206413E+04</totfact>
</mgrwt>
</event>
<event>
 6    2  0.7993170E+000  0.1044374E+03  0.7546771E-02  0.1271232E+00
          2   -1    0    0  502    0 -0.00000000000E+00  0.00000000000E+00  0.13102168548E+04  0.13102168548E+04  0.00000000000E+00 0. -1.
         21   -1    0    0  501  502  0.00000000000E+00 -0.00000000000E+00 -0.65463572967E+01  0.65463572967E+01  0.00000000000E+00 0. -1.
         24    2    1    2    0    0 -0.67449559306E+02 -0.26609928264E+01  0.10124326058E+04  0.10178049650E+04  0.79690912874E+02 0.  0.
        -13    1    3    3    0    0  0.13387387495E+02 -0.12358238006E+02  0.33541271809E+03  0.33590718904E+03  0.00000000000E+00 0.  1.
         14    1    3    3    0    0 -0.80836946801E+02  0.96972451793E+01  0.67701988769E+03  0.68189777596E+03  0.00000000000E+00 0. -1.
          1    1    1    2  501    0  0.67449559306E+02  0.26609928264E+01  0.29123789176E+03  0.29895824713E+03  0.00000000000E+00 0. -1.
<mgrwt>
<rscale>  1 0.10443738E+03</rscale>
<asrwt>0</asrwt>
<pdfrwt beam="1">  1       21 0.10071329E-02 0.10443738E+03</pdfrwt>
<pdfrwt beam="2">  1        2 0.20157161E+00 0.10443738E+03</pdfrwt>
<totfact> 0.80031226E+05</totfact>
</mgrwt>
</event>
<event>
 6    2  0.7993170E+000  0.8288782E+02  0.7546771E-02  0.1321050E+00
         21   -1    0    0  501  502  0.00000000000E+00  0.00000000000E+00  0.40712200313E+01  0.40712200313E+01  0.00000000000E+00 0.  1.
          2   -1    0    0  502    0 -0.00000000000E+00 -0.00000000000E+00 -0.70817612838E+03  0.70817612838E+03  0.00000000000E+00 0. -1.
         24    2    1    2    0    0  0.19693302561E+02 -0.67867115851E+01 -0.62389129749E+03  0.62937329344E+03  0.80227836787E+02 0.  0.
        -13    1    3    3    0    0 -0.37289511771E+01 -0.11274560239E+02 -0.11543229413E+02  0.16561006333E+02  0.00000000000E+00 0.  1.
         14    1    3    3    0    0  0.23422253738E+02  0.44878486544E+01 -0.61234806808E+03  0.61281228711E+03  0.00000000000E+00 0. -1.
          1    1    1    2  501    0 -0.19693302561E+02  0.67867115851E+01 -0.80213610856E+02  0.82874054965E+02  0.00000000000E+00 0. -1.
<mgrwt>
<rscale>  1 0.82887824E+02</rscale>
<asrwt>0</asrwt>
<pdfrwt beam="1">  1       21 0.62634185E-03 0.82887824E+02</pdfrwt>
<pdfrwt beam="2">  1        2 0.10895012E+00 0.82887824E+02</pdfrwt>
<totfact> 0.37492191E+06</totfact>
</mgrwt>
</event>
<event>
 6    2  0.7993170E+000  0.9025510E+02  0.7546771E-02  0.1302235E+00
         21   -1    0    0  501  502  0.00000000000E+00  0.00000000000E+00  0.32246824655E+01  0.32246824655E+01  0.00000000000E+00 0. -1.
          2   -1    0    0  502    0 -0.00000000000E+00 -0.00000000000E+00 -0.19184205689E+04  0.19184205689E+04  0.00000000000E+00 0. -1.
         24    2    1    2    0    0  0.28281642944E+02  0.20308266956E+02 -0.17712623206E+04  0.17735603149E+04  0.83268872752E+02 0.  0.
        -13    1    3    3    0    0 -0.24109408123E+02 -0.21042038451E+01 -0.23529317471E+03  0.23653449917E+03  0.00000000000E+00 0.  1.
         14    1    3    3    0    0  0.52391051067E+02  0.22412470801E+02 -0.15359691459E+04  0.15370258157E+04  0.00000000000E+00 0. -1.
          1    1    1    2  501    0 -0.28281642944E+02 -0.20308266956E+02 -0.14393356578E+03  0.14808493641E+03  0.00000000000E+00 0. -1.
<mgrwt>
<rscale>  1 0.90255095E+02</rscale>
<asrwt>0</asrwt>
<pdfrwt beam="1">  1       21 0.49610296E-03 0.90255095E+02</pdfrwt>
<pdfrwt beam="2">  1        2 0.29514283E+00 0.90255095E+02</pdfrwt>
<totfact> 0.11644939E+06</totfact>
</mgrwt>
</event>
<event>
 6    2  0.7993170E+000  0.9604140E+02  0.7546771E-02  0.1288848E+00
          4   -1    0    0  502    0 -0.00000000000E+00  0.00000000000E+00  0.78367643371E+02  0.78367643371E+02  0.00000000000E+00 0. -1.
         21   -1    0    0  501  502  0.00000000000E+00 -0.00000000000E+00 -0.70021456341E+02  0.70021456341E+02  0.00000000000E+00 0. -1.
         24    2    1    2    0    0 -0.45847029538E+02  0.24406332255E+02  0.19802407332E+01  0.96061817689E+02  0.80785718372E+02 0.  0.
        -13    1    3    3    0    0  0.12730539780E+02 -0.38598287184E+01 -0.22851839832E+02  0.26441851383E+02  0.00000000000E+00 0.  1.
         14    1    3    3    0    0 -0.58577569318E+02  0.28266160973E+02  0.24832080566E+02  0.69619966307E+02  0.00000000000E+00 0. -1.
          3    1    1    2  501    0  0.45847029538E+02 -0.24406332255E+02  0.63659462973E+01  0.52327282022E+02  0.00000000000E+00 0. -1.
<mgrwt>
<rscale>  1 0.96041405E+02</rscale>
<asrwt>0</asrwt>
<pdfrwt beam="1">  1       21 0.10772532E-01 0.96041405E+02</pdfrwt>
<pdfrwt beam="2">  1        4 0.12056560E-01 0.96041405E+02</pdfrwt>
<totfact> 0.14909748E+05</totfact>
</mgrwt>
</event>
<event>
 6    2  0.7993170E+000  0.8047113E+02  0.7546771E-02  0.1327720E+00
          2   -1    0    0  502    0 -0.00000000000E+00  0.00000000000E+00  0.10095783819E+04  0.10095783819E+04  0.00000000000E+00 0. -1.
         21   -1    0    0  501  502  0.00000000000E+00 -0.00000000000E+00 -0.60204413062E+01  0.60204413062E+01  0.00000000000E+00 0. -1.
         24    2    1    2    0    0  0.19782785936E+02  0.12795103850E+02  0.97612981656E+03  0.97944117824E+03  0.76944977356E+02 0.  0.
        -13    1    3    3    0    0  0.11549183414E+02  0.11865555873E+02  0.40225493604E+02  0.43500176889E+02  0.00000000000E+00 0.  1.
         14    1    3    3    0    0  0.82336025218E+01  0.92954797676E+00  0.93590432296E+03  0.93594100135E+03  0.00000000000E+00 0. -1.
          1    1    1    2  501    0 -0.19782785936E+02 -0.12795103850E+02  0.27428124032E+02  0.36157644970E+02  0.00000000000E+00 0. -1.
<mgrwt>
<rscale>  1 0.80471130E+02</rscale>
<asrwt>0</asrwt>
<pdfrwt beam="1">  1       21 0.92622254E-03 0.80471130E+02</pdfrwt>
<pdfrwt beam="2">  1        2 0.15531962E+00 0.80471130E+02</pdfrwt>
<totfact> 0.13113330E+06</totfact>
</mgrwt>
</event>
<event>
 6    2  0.7993170E+000  0.1017270E+03  0.7546771E-02  0.1276706E+00
         21   -1    0    0  501  502  0.00000000000E+00  0.00000000000E+00  0.78910640249E+01  0.78910640249E+01  0.00000000000E+00 0.  1.
          2   -1    0    0  502    0 -0.00000000000E+00 -0.00000000000E+00 -0.12171298462E+04  0.12171298462E+04  0.00000000000E+00 0. -1.
         24    2    1    2    0    0 -0.16689907450E+02 -0.56290867816E+02 -0.10564986287E+04  0.10613848223E+04  0.83073302608E+02 0.  0.
        -13    1    3    3    0    0 -0.82047817585E+01  0.13932837308E+02 -0.53374181609E+02  0.55769576487E+02  0.00000000000E+00 0.  1.
         14    1    3    3    0    0 -0.84851256916E+01 -0.70223705124E+02 -0.10031244471E+04  0.10056152458E+04  0.00000000000E+00 0. -1.
          1    1    1    2  501    0  0.16689907450E+02  0.56290867816E+02 -0.15274015346E+03  0.16363608798E+03  0.00000000000E+00 0. -1.
<mgrwt>
<rscale>  1 0.10172703E+03</rscale>
<asrwt>0</asrwt>
<pdfrwt beam="1">  1       21 0.12140102E-02 0.10172703E+03</pdfrwt>
<pdfrwt beam="2">  1        2 0.18725069E+00 0.10172703E+03</pdfrwt>
<totfact> 0.66831316E+05</totfact>
</mgrwt>
</event>
<event>
 6    2  0.7993170E+000  0.8729605E+02  0.7546771E-02  0.1309535E+00
         21   -1    0    0  501  502  0.00000000000E+00  0.00000000000E+00  0.12936766874E+02  0.12936766874E+02  0.00000000000E+00 0. -1.
         -1   -1    0    0    0  501 -0.00000000000E+00 -0.00000000000E+00 -0.30851208574E+03  0.30851208574E+03  0.00000000000E+00 0.  1.
         24    2    1    2    0    0 -0.26014451721E+02 -0.17741144549E+02 -0.16000280796E+03  0.18226765553E+03  0.81419283889E+02 0.  0.
        -13    1    3    3    0    0 -0.88592068364E+01 -0.20519242301E+02 -0.16309217223E+03  0.16461646787E+03  0.00000000000E+00 0.  1.
         14    1    3    3    0    0 -0.17155244884E+02  0.27780977520E+01  0.30893642737E+01  0.17651187659E+02  0.00000000000E+00 0. -1.
         -2    1    1    2    0  502  0.26014451721E+02  0.17741144549E+02 -0.13557251090E+03  0.13918119708E+03  0.00000000000E+00 0.  1.
<mgrwt>
<rscale>  1 0.87296046E+02</rscale>
<asrwt>0</asrwt>
<pdfrwt beam="1">  1       21 0.19902721E-02 0.87296046E+02</pdfrwt>
<pdfrwt beam="2">  1       -1 0.47463391E-01 0.87296046E+02</pdfrwt>
<totfact> 0.48363646E+05</totfact>
</mgrwt>
</event>
<event>
 6    2  0.7993170E+000  0.8001796E+02  0.7546771E-02  0.1329000E+00
         -1   -1    0    0    0  501 -0.00000000000E+00  0.00000000000E+00  0.12450690969E+04  0.12450690969E+04  0.00000000000E+00 0.  1.
         21   -1    0    0  501  502  0.00000000000E+00 -0.00000000000E+00 -0.24061546156E+01  0.24061546156E+01  0.00000000000E+00 0. -1.
         24    2    1    2    0    0  0.11146852053E+02  0.20329804161E+02  0.11032064034E+04  0.11061045350E+04  0.76585381226E+02 0.  0.
        -11    1    3    3    0    0 -0.28768035134E+02 -0.93394136192E+01  0.40079971338E+03  0.40193934211E+03  0.00000000000E+00 0.  1.
         12    1    3    3    0    0  0.39914887187E+02  0.29669217780E+02  0.70240669000E+03  0.70416519288E+03  0.00000000000E+00 0. -1.
         -2    1    1    2    0  502 -0.11146852053E+02 -0.20329804161E+02  0.13945653889E+03  0.14137071651E+03  0.00000000000E+00 0.  1.
<mgrwt>
<rscale>  1 0.80017960E+02</rscale>
<asrwt>0</asrwt>
<pdfrwt beam="1">  1       21 0.37017863E-03 0.80017960E+02</pdfrwt>
<pdfrwt beam="2">  1       -1 0.19154858E+00 0.80017960E+02</pdfrwt>
<totfact> 0.30289026E+05</totfact>
</mgrwt>
</event>
<event>
 6    2  0.7993170E+000  0.9561300E+02  0.7546771E-02  0.1289801E+00
         21   -1    0    0  501  502  0.00000000000E+00  0.00000000000E+00  0.36218667045E+01  0.36218667045E+01  0.00000000000E+00 0.  1.
          2   -1    0    0  502    0 -0.00000000000E+00 -0.00000000000E+00 -0.11436766712E+04  0.11436766712E+04  0.00000000000E+00 0. -1.
         24    2    1    2    0    0  0.28247934146E+02 -0.11329255140E+02 -0.95294467029E+03  0.95772928900E+03  0.90639663396E+02 0.  0.
        -11    1    3    3    0    0 -0.21112259967E+02 -0.30536523676E+02 -0.24390728800E+03  0.24671637955E+03  0.00000000000E+00 0.  1.
         12    1    3    3    0    0  0.49360194113E+02  0.19207268536E+02 -0.70903738229E+03  0.71101290946E+03  0.00000000000E+00 0. -1.
          1    1    1    2  501    0 -0.28247934146E+02  0.11329255140E+02 -0.18711013422E+03  0.18956924891E+03  0.00000000000E+00 0. -1.
<mgrwt>
<rscale>  1 0.95613003E+02</rscale>
<asrwt>0</asrwt>
<pdfrwt beam="1">  1       21 0.55721045E-03 0.95613003E+02</pdfrwt>
<pdfrwt beam="2">  1        2 0.17595020E+00 0.95613003E+02</pdfrwt>
<totfact> 0.24543707E+06</totfact>
</mgrwt>
</event>
<event>
 6    2  0.7993170E+000  0.9952412E+02  0.7546771E-02  0.1281300E+00
         21   -1    0    0  501  502  0.00000000000E+00  0.00000000000E+00  0.57353749434E+01  0.57353749434E+01  0.00000000000E+00 0. -1.
          2   -1    0    0  502    0 -0.00000000000E+00 -0.00000000000E+00 -0.10219487993E+04  0.10219487993E+04  0.00000000000E+00 0. -1.
         24    2    1    2    0    0 -0.48496647355E+02 -0.20173087413E+02 -0.72065551122E+03  0.72749530323E+03  0.84535034836E+02 0.  0.
        -11    1    3    3    0    0  0.93222895865E+01 -0.18535057516E+02 -0.47178664910E+02  0.51539110033E+02  0.00000000000E+00 0.  1.
         12    1    3    3    0    0 -0.57818936941E+02 -0.16380298967E+01 -0.67347684631E+03  0.67595619320E+03  0.00000000000E+00 0. -1.
          1    1    1    2  501    0  0.48496647355E+02  0.20173087413E+02 -0.29555791313E+03  0.30018887100E+03  0.00000000000E+00 0. -1.
<mgrwt>
<rscale>  1 0.99524120E+02</rscale>
<asrwt>0</asrwt>
<pdfrwt beam="1">  1       21 0.88236461E-03 0.99524120E+02</pdfrwt>
<pdfrwt beam="2">  1        2 0.15722303E+00 0.99524120E+02</pdfrwt>
<totfact> 0.14165466E+06</totfact>
</mgrwt>
</event>
<event>
 6    2  0.7993170E+000  0.8218753E+02  0.7546771E-02  0.1322956E+00
         21   -1    0    0  501  502  0.00000000000E+00  0.00000000000E+00  0.19973973923E+03  0.19973973923E+03  0.00000000000E+00 0. -1.
         -1   -1    0    0    0  501 -0.00000000000E+00 -0.00000000000E+00 -0.19226591999E+02  0.19226591999E+02  0.00000000000E+00 0.  1.
         24    2    1    2    0    0 -0.58171639731E+01 -0.24229603046E+02  0.17515468845E+03  0.19347856669E+03  0.78319077003E+02 0.  0.
        -13    1    3    3    0    0 -0.33457220348E+02  0.11189009133E+01  0.35160401815E+02  0.48547825785E+02  0.00000000000E+00 0.  1.
         14    1    3    3    0    0  0.27640056375E+02 -0.25348503960E+02  0.13999428664E+03  0.14493074091E+03  0.00000000000E+00 0. -1.
         -2    1    1    2    0  502  0.58171639731E+01  0.24229603046E+02  0.53584587773E+01  0.25487764534E+02  0.00000000000E+00 0.  1.
<mgrwt>
<rscale>  1 0.82187535E+02</rscale>
<asrwt>0</asrwt>
<pdfrwt beam="1">  1       21 0.30729189E-01 0.82187535E+02</pdfrwt>
<pdfrwt beam="2">  1       -1 0.29579374E-02 0.82187535E+02</pdfrwt>
<totfact> 0.32066523E+05</totfact>
</mgrwt>
</event>
<event>
 6    2  0.7993170E+000  0.8992915E+02  0.7546771E-02  0.1303023E+00
         21   -1    0    0  501  502  0.00000000000E+00  0.00000000000E+00  0.30182906278E+02  0.30182906278E+02  0.00000000000E+00 0. -1.
         -1   -1    0    0    0  501 -0.00000000000E+00 -0.00000000000E+00 -0.13709999779E+03  0.13709999779E+03  0.00000000000E+00 0.  1.
         24    2    1    2    0    0  0.38662667714E+02 -0.18359332541E+01 -0.73373399750E+02  0.11606423772E+03  0.81173141865E+02 0.  0.
        -11    1    3    3    0    0 -0.65314882583E+01 -0.63117198853E+01 -0.69931359502E+02  0.70518743526E+02  0.00000000000E+00 0.  1.
         12    1    3    3    0    0  0.45194155972E+02  0.44757866312E+01 -0.34420402485E+01  0.45545494191E+02  0.00000000000E+00 0. -1.
         -2    1    1    2    0  502 -0.38662667714E+02  0.18359332541E+01 -0.33543691757E+02  0.51218666347E+02  0.00000000000E+00 0.  1.
<mgrwt>
<rscale>  1 0.89929147E+02</rscale>
<asrwt>0</asrwt>
<pdfrwt beam="1">  1       21 0.46435241E-02 0.89929147E+02</pdfrwt>
<pdfrwt beam="2">  1       -1 0.21092307E-01 0.89929147E+02</pdfrwt>
<totfact> 0.47730368E+05</totfact>
</mgrwt>
</event>
<event>
 6    2  0.7993170E+000  0.8734495E+02  0.7546771E-02  0.1309412E+00
         21   -1    0    0  501  502  0.00000000000E+00  0.00000000000E+00  0.25954913352E+01  0.25954913352E+01  0.00000000000E+00 0.  1.
          2   -1    0    0  502    0 -0.00000000000E+00 -0.00000000000E+00 -0.13095659039E+04  0.13095659039E+04  0.00000000000E+00 0. -1.
         24    2    1    2    0    0  0.10378856344E+02 -0.22029319530E+02 -0.11501158241E+04  0.11534277394E+04  0.83881640146E+02 0.  0.
        -11    1    3    3    0    0  0.35676396565E+02 -0.11087312630E+02 -0.23962685045E+03  0.24252167167E+03  0.00000000000E+00 0.  1.
         12    1    3    3    0    0 -0.25297540221E+02 -0.10942006900E+02 -0.91048897364E+03  0.91090606770E+03  0.00000000000E+00 0. -1.
          1    1    1    2  501    0 -0.10378856344E+02  0.22029319530E+02 -0.15685458847E+03  0.15873365586E+03  0.00000000000E+00 0. -1.
<mgrwt>
<rscale>  1 0.87344955E+02</rscale>
<asrwt>0</asrwt>
<pdfrwt beam="1">  1       21 0.39930688E-03 0.87344955E+02</pdfrwt>
<pdfrwt beam="2">  1        2 0.20147141E+00 0.87344955E+02</pdfrwt>
<totfact> 0.32976248E+06</totfact>
</mgrwt>
</event>
<event>
 6    2  0.7993170E+000  0.9619903E+02  0.7546771E-02  0.1288498E+00
          2   -1    0    0  502    0 -0.00000000000E+00  0.00000000000E+00  0.16182632016E+04  0.16182632016E+04  0.00000000000E+00 0. -1.
         21   -1    0    0  501  502  0.00000000000E+00 -0.00000000000E+00 -0.14045016310E+02  0.14045016310E+02  0.00000000000E+00 0. -1.
         24    2    1    2    0    0  0.51018136015E+02 -0.11956010810E+02  0.15690910996E+03  0.18405086650E+03  0.80675004010E+02 0.  0.
        -13    1    3    3    0    0 -0.58087369094E+01 -0.33248456978E+02  0.40060467443E+02  0.52383607814E+02  0.00000000000E+00 0.  1.
         14    1    3    3    0    0  0.56826872925E+02  0.21292446169E+02  0.11684864252E+03  0.13166725868E+03  0.00000000000E+00 0. -1.
          1    1    1    2  501    0 -0.51018136015E+02  0.11956010810E+02  0.14473090753E+04  0.14482573514E+04  0.00000000000E+00 0. -1.
<mgrwt>
<rscale>  1 0.96199026E+02</rscale>
<asrwt>0</asrwt>
<pdfrwt beam="1">  1       21 0.21607730E-02 0.96199026E+02</pdfrwt>
<pdfrwt beam="2">  1        2 0.24896342E+00 0.96199026E+02</pdfrwt>
<totfact> 0.16468202E+05</totfact>
</mgrwt>
</event>
<event>
 6    2  0.7993170E+000  0.8755180E+02  0.7546771E-02  0.1308891E+00
          2   -1    0    0  502    0 -0.00000000000E+00  0.00000000000E+00  0.48770588762E+03  0.48770588762E+03  0.00000000000E+00 0. -1.
         21   -1    0    0  501  502  0.00000000000E+00 -0.00000000000E+00 -0.12553152449E+02  0.12553152449E+02  0.00000000000E+00 0. -1.
         24    2    1    2    0    0 -0.24916835727E+02 -0.20298115642E+02  0.45261699946E+03  0.46100701356E+03  0.81439892851E+02 0.  0.
        -11    1    3    3    0    0 -0.15986228979E+02  0.84219746616E+01  0.18537658931E+02  0.25886945992E+02  0.00000000000E+00 0.  1.
         12    1    3    3    0    0 -0.89306067483E+01 -0.28720090304E+02  0.43407934053E+03  0.43512006756E+03  0.00000000000E+00 0. -1.
          1    1    1    2  501    0  0.24916835727E+02  0.20298115642E+02  0.22535735710E+02  0.39252026512E+02  0.00000000000E+00 0. -1.
<mgrwt>
<rscale>  1 0.87551804E+02</rscale>
<asrwt>0</asrwt>
<pdfrwt beam="1">  1       21 0.19312546E-02 0.87551804E+02</pdfrwt>
<pdfrwt beam="2">  1        2 0.75031660E-01 0.87551804E+02</pdfrwt>
<totfact> 0.97994699E+05</totfact>
</mgrwt>
</event>
<event>
 6    2  0.7993170E+000  0.8976858E+02  0.7546771E-02  0.1303413E+00
          2   -1    0    0  502    0 -0.00000000000E+00  0.00000000000E+00  0.69957445859E+03  0.69957445859E+03  0.00000000000E+00 0. -1.
         21   -1    0    0  501  502  0.00000000000E+00 -0.00000000000E+00 -0.11401427714E+02  0.11401427714E+02  0.00000000000E+00 0. -1.
         24    2    1    2    0    0  0.39896124165E+02  0.64257037582E+01  0.64731430525E+03  0.65350914939E+03  0.80158643702E+02 0.  0.
        -13    1    3    3    0    0 -0.10920828279E+02  0.31445801505E+01  0.13474702283E+02  0.17627265138E+02  0.00000000000E+00 0.  1.
         14    1    3    3    0    0  0.50816952444E+02  0.32811236077E+01  0.63383960297E+03  0.63588188425E+03  0.00000000000E+00 0. -1.
          1    1    1    2  501    0 -0.39896124165E+02 -0.64257037582E+01  0.40858725630E+02  0.57466736920E+02  0.00000000000E+00 0. -1.
<mgrwt>
<rscale>  1 0.89768583E+02</rscale>
<asrwt>0</asrwt>
<pdfrwt beam="1">  1       21 0.17540664E-02 0.89768583E+02</pdfrwt>
<pdfrwt beam="2">  1        2 0.10762681E+00 0.89768583E+02</pdfrwt>
<totfact> 0.76604694E+05</totfact>
</mgrwt>
</event>
<event>
 6    2  0.7993170E+000  0.8429705E+02  0.7546771E-02  0.1317281E+00
         -3   -1    0    0    0  501 -0.00000000000E+00  0.00000000000E+00  0.60310302031E+03  0.60310302031E+03  0.00000000000E+00 0.  1.
         21   -1    0    0  501  502  0.00000000000E+00 -0.00000000000E+00 -0.53829882941E+01  0.53829882941E+01  0.00000000000E+00 0.  1.
         24    2    1    2    0    0 -0.21138181638E+02 -0.10342682225E+02  0.53290605831E+03  0.53953207481E+03  0.80945654382E+02 0.  0.
        -13    1    3    3    0    0 -0.13448903231E+02 -0.28381665661E+02  0.50166172738E+03  0.50264389050E+03  0.00000000000E+00 0.  1.
         14    1    3    3    0    0 -0.76892784069E+01  0.18038983436E+02  0.31244330928E+02  0.36888184300E+02  0.00000000000E+00 0. -1.
         -4    1    1    2    0  502  0.21138181638E+02  0.10342682225E+02  0.64813973708E+02  0.68953933799E+02  0.00000000000E+00 0.  1.
<mgrwt>
<rscale>  1 0.84297051E+02</rscale>
<asrwt>0</asrwt>
<pdfrwt beam="1">  1       21 0.82815252E-03 0.84297051E+02</pdfrwt>
<pdfrwt beam="2">  1       -3 0.92785027E-01 0.84297051E+02</pdfrwt>
<totfact> 0.23868145E+05</totfact>
</mgrwt>
</event>
<event>
 6    2  0.7993170E+000  0.8874873E+02  0.7546771E-02  0.1305910E+00
         21   -1    0    0  501  502  0.00000000000E+00  0.00000000000E+00  0.40668300595E+01  0.40668300595E+01  0.00000000000E+00 0. -1.
          2   -1    0    0  502    0 -0.00000000000E+00 -0.00000000000E+00 -0.13822030530E+04  0.13822030530E+04  0.00000000000E+00 0. -1.
         24    2    1    2    0    0 -0.28552556365E+02  0.25363460278E+02 -0.12331032005E+04  0.12362927808E+04  0.80111068419E+02 0.  0.
        -11    1    3    3    0    0  0.27467881652E+02  0.96531849703E+00 -0.34897830505E+03  0.35005895754E+03  0.00000000000E+00 0.  1.
         12    1    3    3    0    0 -0.56020438017E+02  0.24398141781E+02 -0.88412489544E+03  0.88623382328E+03  0.00000000000E+00 0. -1.
          1    1    1    2  501    0  0.28552556365E+02 -0.25363460278E+02 -0.14503302250E+03  0.14997710228E+03  0.00000000000E+00 0. -1.
<mgrwt>
<rscale>  1 0.88748729E+02</rscale>
<asrwt>0</asrwt>
<pdfrwt beam="1">  1       21 0.62566617E-03 0.88748729E+02</pdfrwt>
<pdfrwt beam="2">  1        2 0.21264662E+00 0.88748729E+02</pdfrwt>
<totfact> 0.15209686E+06</totfact>
</mgrwt>
</event>
<event>
 6    2  0.7993170E+000  0.9612070E+02  0.7546771E-02  0.1288672E+00
         21   -1    0    0  501  502  0.00000000000E+00  0.00000000000E+00  0.20024536640E+02  0.20024536640E+02  0.00000000000E+00 0.  1.
         -1   -1    0    0    0  501 -0.00000000000E+00 -0.00000000000E+00 -0.27257325688E+03  0.27257325688E+03  0.00000000000E+00 0.  1.
         24    2    1    2    0    0  0.17009891643E+02  0.46024371159E+02 -0.19154399956E+03  0.21430887285E+03  0.82653554438E+02 0.  0.
        -11    1    3    3    0    0  0.20152921585E+02  0.53725333914E+02 -0.19644558577E+03  0.20465439141E+03  0.00000000000E+00 0.  1.
         12    1    3    3    0    0 -0.31430299418E+01 -0.77009627549E+01  0.49015862127E+01  0.96544814448E+01  0.00000000000E+00 0. -1.
         -2    1    1    2    0  502 -0.17009891643E+02 -0.46024371159E+02 -0.61004720683E+02  0.78288920671E+02  0.00000000000E+00 0.  1.
<mgrwt>
<rscale>  1 0.96120701E+02</rscale>
<asrwt>0</asrwt>
<pdfrwt beam="1">  1       21 0.30806980E-02 0.96120701E+02</pdfrwt>
<pdfrwt beam="2">  1       -1 0.41934347E-01 0.96120701E+02</pdfrwt>
<totfact> 0.30028479E+05</totfact>
</mgrwt>
</event>
<event>
 6    2  0.7993170E+000  0.8200092E+02  0.7546771E-02  0.1323467E+00
         -1   -1    0    0    0  501 -0.00000000000E+00  0.00000000000E+00  0.10599941509E+04  0.10599941509E+04  0.00000000000E+00 0.  1.
         21   -1    0    0  501  502  0.00000000000E+00 -0.00000000000E+00 -0.81664601711E+01  0.81664601711E+01  0.00000000000E+00 0.  1.
         24    2    1    2    0    0 -0.98751623375E+01  0.23062267927E+02  0.10343261222E+04  0.10375715292E+04  0.78068969221E+02 0.  0.
        -13    1    3    3    0    0  0.43364815554E+01  0.23874638847E+02  0.10014749090E+04  0.10017688340E+04  0.00000000000E+00 0.  1.
         14    1    3    3    0    0 -0.14211643893E+02 -0.81237092014E+00  0.32851213254E+02  0.35802695162E+02  0.00000000000E+00 0. -1.
         -2    1    1    2    0  502  0.98751623375E+01 -0.23062267927E+02  0.17501568524E+02  0.30589081940E+02  0.00000000000E+00 0.  1.
<mgrwt>
<rscale>  1 0.82000921E+02</rscale>
<asrwt>0</asrwt>
<pdfrwt beam="1">  1       21 0.12563793E-02 0.82000921E+02</pdfrwt>
<pdfrwt beam="2">  1       -1 0.16307591E+00 0.82000921E+02</pdfrwt>
<totfact> 0.72129280E+04</totfact>
</mgrwt>
</event>
<event>
 6    2  0.7993170E+000  0.8341597E+02  0.7546771E-02  0.1319628E+00
         -1   -1    0    0    0  501 -0.00000000000E+00  0.00000000000E+00  0.11213994166E+04  0.11213994166E+04  0.00000000000E+00 0.  1.
         21   -1    0    0  501  502  0.00000000000E+00 -0.00000000000E+00 -0.41099193423E+01  0.41099193423E+01  0.00000000000E+00 0.  1.
         24    2    1    2    0    0  0.17788659001E+02  0.17058128442E+02  0.10582452424E+04  0.10615277748E+04  0.79691953619E+02 0.  0.
        -13    1    3    3    0    0  0.28832845455E+02  0.78899511056E+00  0.99215845240E+03  0.99257762928E+03  0.00000000000E+00 0.  1.
         14    1    3    3    0    0 -0.11044186454E+02  0.16269133331E+02  0.66086790017E+02  0.68950145530E+02  0.00000000000E+00 0. -1.
         -2    1    1    2    0  502 -0.17788659001E+02 -0.17058128442E+02  0.59044254887E+02  0.63981561173E+02  0.00000000000E+00 0.  1.
<mgrwt>
<rscale>  1 0.83415967E+02</rscale>
<asrwt>0</asrwt>
<pdfrwt beam="1">  1       21 0.63229618E-03 0.83415967E+02</pdfrwt>
<pdfrwt beam="2">  1       -1 0.17252274E+00 0.83415967E+02</pdfrwt>
<totfact> 0.18031012E+05</totfact>
</mgrwt>
</event>
<event>
 6    2  0.7993170E+000  0.8842228E+02  0.7546771E-02  0.1306718E+00
          2   -1    0    0  502    0 -0.00000000000E+00  0.00000000000E+00  0.24573925380E+02  0.24573925380E+02  0.00000000000E+00 0. -1.
         21   -1    0    0  501  502  0.00000000000E+00 -0.00000000000E+00 -0.47052671032E+03  0.47052671032E+03  0.00000000000E+00 0. -1.
         24    2    1    2    0    0 -0.22243300084E+02  0.33305107685E+02 -0.59498438560E+02  0.10657656124E+03  0.78832129356E+02 0.  0.
        -11    1    3    3    0    0  0.13080678765E+02  0.45375581003E+02 -0.17438599587E+02  0.50340364161E+02  0.00000000000E+00 0.  1.
         12    1    3    3    0    0 -0.35323978849E+02 -0.12070473318E+02 -0.42059838973E+02  0.56236197082E+02  0.00000000000E+00 0. -1.
          1    1    1    2  501    0  0.22243300084E+02 -0.33305107685E+02 -0.38645434638E+03  0.38852407446E+03  0.00000000000E+00 0. -1.
<mgrwt>
<rscale>  1 0.88422278E+02</rscale>
<asrwt>0</asrwt>
<pdfrwt beam="1">  1       21 0.72388719E-01 0.88422278E+02</pdfrwt>
<pdfrwt beam="2">  1        2 0.37806042E-02 0.88422278E+02</pdfrwt>
<totfact> 0.46348472E+04</totfact>
</mgrwt>
</event>
<event>
 6    2  0.7993170E+000  0.8234403E+02  0.7546771E-02  0.1322528E+00
          2   -1    0    0  502    0 -0.00000000000E+00  0.00000000000E+00  0.22639645874E+03  0.22639645874E+03  0.00000000000E+00 0. -1.
         21   -1    0    0  501  502  0.00000000000E+00 -0.00000000000E+00 -0.13320175094E+02  0.13320175094E+02  0.00000000000E+00 0.  1.
         24    2    1    2    0    0  0.19065318165E+02  0.72166781825E+01  0.12774882775E+03  0.15198783850E+03  0.79780782524E+02 0.  0.
        -11    1    3    3    0    0  0.43241253783E+02  0.20676605747E+02  0.49110509369E+02  0.68623393857E+02  0.00000000000E+00 0.  1.
         12    1    3    3    0    0 -0.24175935619E+02 -0.13459927565E+02  0.78638318379E+02  0.83364444643E+02  0.00000000000E+00 0. -1.
          1    1    1    2  501    0 -0.19065318165E+02 -0.72166781825E+01  0.85327455895E+02  0.87728795331E+02  0.00000000000E+00 0. -1.
<mgrwt>
<rscale>  1 0.82344035E+02</rscale>
<asrwt>0</asrwt>
<pdfrwt beam="1">  1       21 0.20492579E-02 0.82344035E+02</pdfrwt>
<pdfrwt beam="2">  1        2 0.34830222E-01 0.82344035E+02</pdfrwt>
<totfact> 0.19809716E+06</totfact>
</mgrwt>
</event>
<event>
 6    2  0.7993170E+000  0.8639036E+02  0.7546771E-02  0.1311836E+00
         21   -1    0    0  501  502  0.00000000000E+00  0.00000000000E+00  0.22280731733E+03  0.22280731733E+03  0.00000000000E+00 0.  1.
          2   -1    0    0  502    0 -0.00000000000E+00 -0.00000000000E+00 -0.29460166571E+02  0.29460166571E+02  0.00000000000E+00 0. -1.
         24    2    1    2    0    0 -0.15115270615E+02  0.30600371295E+02  0.40059724449E+02  0.95226440878E+02  0.79362707805E+02 0.  0.
        -13    1    3    3    0    0  0.12355497134E+02  0.31967239702E+02  0.54332867086E+02  0.64238798007E+02  0.00000000000E+00 0.  1.
         14    1    3    3    0    0 -0.27470767749E+02 -0.13668684063E+01 -0.14273142637E+02  0.30987642871E+02  0.00000000000E+00 0. -1.
          1    1    1    2  501    0  0.15115270615E+02 -0.30600371295E+02  0.15328742631E+03  0.15704104303E+03  0.00000000000E+00 0. -1.
<mgrwt>
<rscale>  1 0.86390355E+02</rscale>
<asrwt>0</asrwt>
<pdfrwt beam="1">  1       21 0.34278048E-01 0.86390355E+02</pdfrwt>
<pdfrwt beam="2">  1        2 0.45323335E-02 0.86390355E+02</pdfrwt>
<totfact> 0.16838629E+05</totfact>
</mgrwt>
</event>
<event>
 6    2  0.7993170E+000  0.1156321E+03  0.7546771E-02  0.1250482E+00
         21   -1    0    0  501  502  0.00000000000E+00  0.00000000000E+00  0.83988675010E+03  0.83988675010E+03  0.00000000000E+00 0.  1.
         -1   -1    0    0    0  501 -0.00000000000E+00 -0.00000000000E+00 -0.18665334985E+02  0.18665334985E+02  0.00000000000E+00 0.  1.
         24    2    1    2    0    0  0.44649215098E+02 -0.69922351403E+02  0.19384146475E+03  0.22571064384E+03  0.80548703605E+02 0.  0.
        -13    1    3    3    0    0  0.43217116950E+02 -0.57308534868E+02  0.66850026753E+02  0.98086255118E+02  0.00000000000E+00 0.  1.
         14    1    3    3    0    0  0.14320981478E+01 -0.12613816535E+02  0.12699143799E+03  0.12762438872E+03  0.00000000000E+00 0. -1.
         -2    1    1    2    0  502 -0.44649215098E+02  0.69922351403E+02  0.62737995037E+03  0.63284144124E+03  0.00000000000E+00 0.  1.
<mgrwt>
<rscale>  1 0.11563209E+03</rscale>
<asrwt>0</asrwt>
<pdfrwt beam="1">  1       21 0.12921332E+00 0.11563209E+03</pdfrwt>
<pdfrwt beam="2">  1       -1 0.28715906E-02 0.11563209E+03</pdfrwt>
<totfact> 0.15620320E+04</totfact>
</mgrwt>
</event>
<event>
 6    2  0.7993170E+000  0.8621749E+02  0.7546771E-02  0.1312279E+00
         21   -1    0    0  501  502  0.00000000000E+00  0.00000000000E+00  0.27923575788E+01  0.27923575788E+01  0.00000000000E+00 0.  1.
          2   -1    0    0  502    0 -0.00000000000E+00 -0.00000000000E+00 -0.11917385332E+04  0.11917385332E+04  0.00000000000E+00 0. -1.
         24    2    1    2    0    0  0.11022349991E+02 -0.26687381245E+02 -0.92543140507E+03  0.92943893915E+03  0.81238830682E+02 0.  0.
        -13    1    3    3    0    0  0.43834750436E+02 -0.17126494399E+02 -0.68176121784E+03  0.68338361138E+03  0.00000000000E+00 0.  1.
         14    1    3    3    0    0 -0.32812400445E+02 -0.95608868456E+01 -0.24367018723E+03  0.24605532777E+03  0.00000000000E+00 0. -1.
          1    1    1    2  501    0 -0.11022349991E+02  0.26687381245E+02 -0.26351477052E+03  0.26509195160E+03  0.00000000000E+00 0. -1.
<mgrwt>
<rscale>  1 0.86217493E+02</rscale>
<asrwt>0</asrwt>
<pdfrwt beam="1">  1       21 0.42959361E-03 0.86217493E+02</pdfrwt>
<pdfrwt beam="2">  1        2 0.18334433E+00 0.86217493E+02</pdfrwt>
<totfact> 0.34058305E+06</totfact>
</mgrwt>
</event>
<event>
 6    2  0.7993170E+000  0.8773064E+02  0.7546771E-02  0.1308442E+00
         21   -1    0    0  501  502  0.00000000000E+00  0.00000000000E+00  0.91924491086E+03  0.91924491086E+03  0.00000000000E+00 0.  1.
          2   -1    0    0  502    0 -0.00000000000E+00 -0.00000000000E+00 -0.42973041374E+01  0.42973041374E+01  0.00000000000E+00 0. -1.
         24    2    1    2    0    0  0.29524403354E+02 -0.17860963861E+02  0.54828652619E+03  0.55526100125E+03  0.80659533112E+02 0.  0.
        -11    1    3    3    0    0  0.47824898897E+02  0.27503985360E+01  0.19110466602E+03  0.19701720489E+03  0.00000000000E+00 0.  1.
         12    1    3    3    0    0 -0.18300495544E+02 -0.20611362397E+02  0.35718186017E+03  0.35824379636E+03  0.00000000000E+00 0. -1.
          1    1    1    2  501    0 -0.29524403354E+02  0.17860963861E+02  0.36666108053E+03  0.36828121375E+03  0.00000000000E+00 0. -1.
<mgrwt>
<rscale>  1 0.87730637E+02</rscale>
<asrwt>0</asrwt>
<pdfrwt beam="1">  1       21 0.14142214E+00 0.87730637E+02</pdfrwt>
<pdfrwt beam="2">  1        2 0.66112444E-03 0.87730637E+02</pdfrwt>
<totfact> 0.10328278E+05</totfact>
</mgrwt>
</event>
<event>
 6    2  0.7993170E+000  0.8939405E+02  0.7546771E-02  0.1304326E+00
         -3   -1    0    0    0  501 -0.00000000000E+00  0.00000000000E+00  0.15684777202E+04  0.15684777202E+04  0.00000000000E+00 0.  1.
         21   -1    0    0  501  502  0.00000000000E+00 -0.00000000000E+00 -0.23310983085E+01  0.23310983085E+01  0.00000000000E+00 0. -1.
         24    2    1    2    0    0 -0.34336162556E+01 -0.30995148200E+02  0.11061346699E+04  0.11097410524E+04  0.83778318094E+02 0.  0.
        -13    1    3    3    0    0  0.16721786373E+02  0.45173428775E+01  0.86500395878E+03  0.86517736518E+03  0.00000000000E+00 0.  1.
         14    1    3    3    0    0 -0.20155402628E+02 -0.35512491077E+02  0.24113071112E+03  0.24456368726E+03  0.00000000000E+00 0. -1.
         -4    1    1    2    0  502  0.34336162556E+01  0.30995148200E+02  0.46001195196E+03  0.46106776604E+03  0.00000000000E+00 0.  1.
<mgrwt>
<rscale>  1 0.89394046E+02</rscale>
<asrwt>0</asrwt>
<pdfrwt beam="1">  1       21 0.35863176E-03 0.89394046E+02</pdfrwt>
<pdfrwt beam="2">  1       -3 0.24130342E+00 0.89394046E+02</pdfrwt>
<totfact> 0.79512955E+04</totfact>
</mgrwt>
</event>
<event>
 6    2  0.7993170E+000  0.8949371E+02  0.7546771E-02  0.1304082E+00
         21   -1    0    0  501  502  0.00000000000E+00  0.00000000000E+00  0.17386156962E+02  0.17386156962E+02  0.00000000000E+00 0. -1.
         -3   -1    0    0    0  501 -0.00000000000E+00 -0.00000000000E+00 -0.26212934479E+03  0.26212934479E+03  0.00000000000E+00 0.  1.
         24    2    1    2    0    0  0.37464462686E+02  0.11163460768E+02 -0.12633744380E+03  0.15482336472E+03  0.80504134890E+02 0.  0.
        -11    1    3    3    0    0 -0.25527160447E+01  0.40026593652E+02 -0.54197667516E+02  0.67424266572E+02  0.00000000000E+00 0.  1.
         12    1    3    3    0    0  0.40017178731E+02 -0.28863132884E+02 -0.72139776288E+02  0.87399098143E+02  0.00000000000E+00 0. -1.
         -4    1    1    2    0  502 -0.37464462686E+02 -0.11163460768E+02 -0.11840574403E+03  0.12469213704E+03  0.00000000000E+00 0.  1.
<mgrwt>
<rscale>  1 0.89493712E+02</rscale>
<asrwt>0</asrwt>
<pdfrwt beam="1">  1       21 0.26747937E-02 0.89493712E+02</pdfrwt>
<pdfrwt beam="2">  1       -3 0.40327587E-01 0.89493712E+02</pdfrwt>
<totfact> 0.20806840E+05</totfact>
</mgrwt>
</event>
<event>
 6    2  0.7993170E+000  0.1053642E+03  0.7546771E-02  0.1269404E+00
          2   -1    0    0  502    0 -0.00000000000E+00  0.00000000000E+00  0.30989549475E+03  0.30989549475E+03  0.00000000000E+00 0. -1.
         21   -1    0    0  501  502  0.00000000000E+00 -0.00000000000E+00 -0.33974403020E+02  0.33974403020E+02  0.00000000000E+00 0. -1.
         24    2    1    2    0    0 -0.27674777790E+02 -0.55902700275E+02  0.25843370879E+03  0.27908707762E+03  0.84915309775E+02 0.  0.
        -13    1    3    3    0    0  0.22324660332E+02 -0.40890715657E+02  0.74316596375E+02  0.87712015042E+02  0.00000000000E+00 0.  1.
         14    1    3    3    0    0 -0.49999438122E+02 -0.15011984618E+02  0.18411711241E+03  0.19137506258E+03  0.00000000000E+00 0. -1.
          1    1    1    2  501    0  0.27674777790E+02  0.55902700275E+02  0.17487382940E+02  0.64782820145E+02  0.00000000000E+00 0. -1.
<mgrwt>
<rscale>  1 0.10536420E+03</rscale>
<asrwt>0</asrwt>
<pdfrwt beam="1">  1       21 0.52268314E-02 0.10536420E+03</pdfrwt>
<pdfrwt beam="2">  1        2 0.47676228E-01 0.10536420E+03</pdfrwt>
<totfact> 0.31598439E+05</totfact>
</mgrwt>
</event>
<event>
 6    2  0.7993170E+000  0.8791398E+02  0.7546771E-02  0.1307983E+00
         21   -1    0    0  501  502  0.00000000000E+00  0.00000000000E+00  0.22169124383E+02  0.22169124383E+02  0.00000000000E+00 0. -1.
         -1   -1    0    0    0  501 -0.00000000000E+00 -0.00000000000E+00 -0.21400965341E+03  0.21400965341E+03  0.00000000000E+00 0.  1.
         24    2    1    2    0    0 -0.18672545616E+02  0.34834218692E+02 -0.16908097460E+03  0.19057083913E+03  0.78528860954E+02 0.  0.
        -13    1    3    3    0    0  0.63855249487E+01  0.39311656330E+02 -0.15776421890E+03  0.16271364423E+03  0.00000000000E+00 0.  1.
         14    1    3    3    0    0 -0.25058070564E+02 -0.44774376375E+01 -0.11316755699E+02  0.27857194901E+02  0.00000000000E+00 0. -1.
         -2    1    1    2    0  502  0.18672545616E+02 -0.34834218692E+02 -0.22759554430E+02  0.45607938668E+02  0.00000000000E+00 0.  1.
<mgrwt>
<rscale>  1 0.87913985E+02</rscale>
<asrwt>0</asrwt>
<pdfrwt beam="1">  1       21 0.34106346E-02 0.87913985E+02</pdfrwt>
<pdfrwt beam="2">  1       -1 0.32924561E-01 0.87913985E+02</pdfrwt>
<totfact> 0.38185805E+05</totfact>
</mgrwt>
</event>
<event>
 6    2  0.7993170E+000  0.9000909E+02  0.7546771E-02  0.1302830E+00
         -3   -1    0    0    0  501 -0.00000000000E+00  0.00000000000E+00  0.70086896359E+03  0.70086896359E+03  0.00000000000E+00 0.  1.
         21   -1    0    0  501  502  0.00000000000E+00 -0.00000000000E+00 -0.76572134748E+01  0.76572134748E+01  0.00000000000E+00 0.  1.
         24    2    1    2    0    0 -0.36868149667E+02  0.14207533260E+02  0.60767461170E+03  0.61430454203E+03  0.80873494964E+02 0.  0.
        -11    1    3    3    0    0 -0.41282132089E+02  0.40877273770E+02  0.30937443657E+03  0.31478200067E+03  0.00000000000E+00 0.  1.
         12    1    3    3    0    0  0.44139824224E+01 -0.26669740510E+02  0.29830017513E+03  0.29952254136E+03  0.00000000000E+00 0. -1.
         -4    1    1    2    0  502  0.36868149667E+02 -0.14207533260E+02  0.85537138419E+02  0.94221635043E+02  0.00000000000E+00 0.  1.
<mgrwt>
<rscale>  1 0.90009092E+02</rscale>
<asrwt>0</asrwt>
<pdfrwt beam="1">  1       21 0.11780334E-02 0.90009092E+02</pdfrwt>
<pdfrwt beam="2">  1       -3 0.10782594E+00 0.90009092E+02</pdfrwt>
<totfact> 0.99255379E+04</totfact>
</mgrwt>
</event>
<event>
 6    2  0.7993170E+000  0.8296741E+02  0.7546771E-02  0.1320835E+00
          2   -1    0    0  502    0 -0.00000000000E+00  0.00000000000E+00  0.15596527061E+04  0.15596527061E+04  0.00000000000E+00 0. -1.
         21   -1    0    0  501  502  0.00000000000E+00 -0.00000000000E+00 -0.17445911743E+01  0.17445911743E+01  0.00000000000E+00 0.  1.
         24    2    1    2    0    0  0.78278482356E+01  0.19809826523E+02  0.12181766419E+04  0.12209987394E+04  0.80186571969E+02 0.  0.
        -13    1    3    3    0    0  0.33978562461E+02  0.38036188253E+02  0.77683765740E+03  0.77851014141E+03  0.00000000000E+00 0.  1.
         14    1    3    3    0    0 -0.26150714225E+02 -0.18226361729E+02  0.44133898446E+03  0.44248859795E+03  0.00000000000E+00 0. -1.
          1    1    1    2  501    0 -0.78278482356E+01 -0.19809826523E+02  0.33973147305E+03  0.34039855790E+03  0.00000000000E+00 0. -1.
<mgrwt>
<rscale>  1 0.82967408E+02</rscale>
<asrwt>0</asrwt>
<pdfrwt beam="1">  1       21 0.26839989E-03 0.82967408E+02</pdfrwt>
<pdfrwt beam="2">  1        2 0.23994546E+00 0.82967408E+02</pdfrwt>
<totfact> 0.44513103E+06</totfact>
</mgrwt>
</event>
<event>
 6    2  0.7993170E+000  0.9925592E+02  0.7546771E-02  0.1281868E+00
         -1   -1    0    0    0  501 -0.00000000000E+00  0.00000000000E+00  0.13093864000E+03  0.13093864000E+03  0.00000000000E+00 0.  1.
         21   -1    0    0  501  502  0.00000000000E+00 -0.00000000000E+00 -0.69842722368E+02  0.69842722368E+02  0.00000000000E+00 0. -1.
         24    2    1    2    0    0 -0.48296370772E+02  0.32753449257E+02 -0.19623713226E+02  0.10117721248E+03  0.80289540647E+02 0.  0.
        -11    1    3    3    0    0  0.17702514449E+02 -0.47716307234E+01  0.85076256802E+01  0.20212055123E+02  0.00000000000E+00 0.  1.
         12    1    3    3    0    0 -0.65998885221E+02  0.37525079980E+02 -0.28131338906E+02  0.80965157362E+02  0.00000000000E+00 0. -1.
         -2    1    1    2    0  502  0.48296370772E+02 -0.32753449257E+02  0.80719630856E+02  0.99604149881E+02  0.00000000000E+00 0.  1.
<mgrwt>
<rscale>  1 0.99255923E+02</rscale>
<asrwt>0</asrwt>
<pdfrwt beam="1">  1       21 0.10745034E-01 0.99255923E+02</pdfrwt>
<pdfrwt beam="2">  1       -1 0.20144406E-01 0.99255923E+02</pdfrwt>
<totfact> 0.12451297E+05</totfact>
</mgrwt>
</event>
<event>
 6    2  0.7993170E+000  0.8461067E+02  0.7546771E-02  0.1316454E+00
         21   -1    0    0  501  502  0.00000000000E+00  0.00000000000E+00  0.78533428422E+02  0.78533428422E+02  0.00000000000E+00 0.  1.
         -1   -1    0    0    0  501 -0.00000000000E+00 -0.00000000000E+00 -0.71458057786E+02  0.71458057786E+02  0.00000000000E+00 0.  1.
         24    2    1    2    0    0 -0.78777134080E+01 -0.24422555895E+02 -0.42112907885E+02  0.94511702963E+02  0.80625339574E+02 0.  0.
        -11    1    3    3    0    0 -0.28342096012E+02 -0.17252286978E+02 -0.58552554330E+02  0.67300203796E+02  0.00000000000E+00 0.  1.
         12    1    3    3    0    0  0.20464382604E+02 -0.71702689167E+01  0.16439646445E+02  0.27211499168E+02  0.00000000000E+00 0. -1.
         -2    1    1    2    0  502  0.78777134080E+01  0.24422555895E+02  0.49188278521E+02  0.55479783244E+02  0.00000000000E+00 0.  1.
<mgrwt>
<rscale>  1 0.84610667E+02</rscale>
<asrwt>0</asrwt>
<pdfrwt beam="1">  1       21 0.12082066E-01 0.84610667E+02</pdfrwt>
<pdfrwt beam="2">  1       -1 0.10993547E-01 0.84610667E+02</pdfrwt>
<totfact> 0.25623754E+05</totfact>
</mgrwt>
</event>
<event>
 6    2  0.7993170E+000  0.8488097E+02  0.7546771E-02  0.1315744E+00
         21   -1    0    0  501  502  0.00000000000E+00  0.00000000000E+00  0.51979783676E+02  0.51979783676E+02  0.00000000000E+00 0.  1.
         -1   -1    0    0    0  501 -0.00000000000E+00 -0.00000000000E+00 -0.63187358437E+02  0.63187358437E+02  0.00000000000E+00 0.  1.
         24    2    1    2    0    0  0.26915083840E+01  0.24676903813E+02 -0.22624221702E+02  0.87844374564E+02  0.81170098779E+02 0.  0.
        -11    1    3    3    0    0 -0.58521987344E+01  0.34714804261E+02  0.21865941319E+02  0.41442553670E+02  0.00000000000E+00 0.  1.
         12    1    3    3    0    0  0.85437071184E+01 -0.10037900448E+02 -0.44490163021E+02  0.46401820895E+02  0.00000000000E+00 0. -1.
         -2    1    1    2    0  502 -0.26915083840E+01 -0.24676903813E+02  0.11416646941E+02  0.27322767549E+02  0.00000000000E+00 0.  1.
<mgrwt>
<rscale>  1 0.84880968E+02</rscale>
<asrwt>0</asrwt>
<pdfrwt beam="1">  1       21 0.79968898E-02 0.84880968E+02</pdfrwt>
<pdfrwt beam="2">  1       -1 0.97211320E-02 0.84880968E+02</pdfrwt>
<totfact> 0.62968976E+05</totfact>
</mgrwt>
</event>
<event>
 6    2  0.7993170E+000  0.8479094E+02  0.7546771E-02  0.1315980E+00
         21   -1    0    0  501  502  0.00000000000E+00  0.00000000000E+00  0.20989828503E+02  0.20989828503E+02  0.00000000000E+00 0. -1.
          2   -1    0    0  502    0 -0.00000000000E+00 -0.00000000000E+00 -0.51921845663E+03  0.51921845663E+03  0.00000000000E+00 0. -1.
         24    2    1    2    0    0 -0.21145895657E+02  0.80114706589E+01 -0.50839364150E+03  0.51541594635E+03  0.81720073851E+02 0.  0.
        -13    1    3    3    0    0 -0.48609393594E+02  0.13846900487E+01 -0.20408368232E+03  0.20979737821E+03  0.00000000000E+00 0.  1.
         14    1    3    3    0    0  0.27463497936E+02  0.66267806102E+01 -0.30430995918E+03  0.30561856814E+03  0.00000000000E+00 0. -1.
          1    1    1    2  501    0  0.21145895657E+02 -0.80114706589E+01  0.10165013375E+02  0.24792338780E+02  0.00000000000E+00 0. -1.
<mgrwt>
<rscale>  1 0.84790937E+02</rscale>
<asrwt>0</asrwt>
<pdfrwt beam="1">  1       21 0.32292043E-02 0.84790937E+02</pdfrwt>
<pdfrwt beam="2">  1        2 0.79879764E-01 0.84790937E+02</pdfrwt>
<totfact> 0.39885698E+05</totfact>
</mgrwt>
</event>
<event>
 6    2  0.7993170E+000  0.9853420E+02  0.7546771E-02  0.1283409E+00
         21   -1    0    0  501  502  0.00000000000E+00  0.00000000000E+00  0.20065879624E+01  0.20065879624E+01  0.00000000000E+00 0. -1.
          2   -1    0    0  502    0 -0.00000000000E+00 -0.00000000000E+00 -0.30246425627E+04  0.30246425627E+04  0.00000000000E+00 0. -1.
         24    2    1    2    0    0 -0.51241484642E+02 -0.11010761596E+02 -0.23031218234E+04  0.23052286488E+04  0.83438977277E+02 0.  0.
        -13    1    3    3    0    0  0.65411646673E+00  0.44804663980E+01 -0.62469719021E+01  0.77153810951E+01  0.00000000000E+00 0.  1.
         14    1    3    3    0    0 -0.51895601109E+02 -0.15491227994E+02 -0.22968748515E+04  0.22975132677E+04  0.00000000000E+00 0. -1.
          1    1    1    2  501    0  0.51241484642E+02  0.11010761596E+02 -0.71951415129E+03  0.72142050188E+03  0.00000000000E+00 0. -1.
<mgrwt>
<rscale>  1 0.98534205E+02</rscale>
<asrwt>0</asrwt>
<pdfrwt beam="1">  1       21 0.30870328E-03 0.98534205E+02</pdfrwt>
<pdfrwt beam="2">  1        2 0.46533349E+00 0.98534205E+02</pdfrwt>
<totfact> 0.62634137E+05</totfact>
</mgrwt>
</event>
<event>
 6    2  0.7993170E+000  0.1059475E+03  0.7546771E-02  0.1268264E+00
          4   -1    0    0  502    0 -0.00000000000E+00  0.00000000000E+00  0.88471833176E+02  0.88471833176E+02  0.00000000000E+00 0. -1.
         21   -1    0    0  501  502  0.00000000000E+00 -0.00000000000E+00 -0.94416883828E+02  0.94416883828E+02  0.00000000000E+00 0. -1.
         24    2    1    2    0    0  0.18590941760E+02 -0.65910124272E+02  0.23208311533E+02  0.10845964927E+03  0.80839978961E+02 0.  0.
        -13    1    3    3    0    0 -0.14657978250E+02  0.11068923703E+02 -0.65236558441E+01  0.19491933816E+02  0.00000000000E+00 0.  1.
         14    1    3    3    0    0  0.33248920009E+02 -0.76979047975E+02  0.29731967377E+02  0.88967715454E+02  0.00000000000E+00 0. -1.
          3    1    1    2  501    0 -0.18590941760E+02  0.65910124272E+02 -0.29153362185E+02  0.74429067734E+02  0.00000000000E+00 0. -1.
<mgrwt>
<rscale>  1 0.10594749E+03</rscale>
<asrwt>0</asrwt>
<pdfrwt beam="1">  1       21 0.14525674E-01 0.10594749E+03</pdfrwt>
<pdfrwt beam="2">  1        4 0.13611051E-01 0.10594749E+03</pdfrwt>
<totfact> 0.72584843E+04</totfact>
</mgrwt>
</event>
<event>
 6    2  0.7993170E+000  0.8466360E+02  0.7546771E-02  0.1316315E+00
         21   -1    0    0  501  502  0.00000000000E+00  0.00000000000E+00  0.67073715046E+02  0.67073715046E+02  0.00000000000E+00 0.  1.
          2   -1    0    0  502    0 -0.00000000000E+00 -0.00000000000E+00 -0.62648427700E+02  0.62648427700E+02  0.00000000000E+00 0. -1.
         24    2    1    2    0    0 -0.21889593729E+02  0.14604648004E+02  0.33008311813E+02  0.90870638983E+02  0.80470331945E+02 0.  0.
        -11    1    3    3    0    0 -0.48634309471E+02 -0.42492485875E+01  0.31527496194E+02  0.58114844813E+02  0.00000000000E+00 0.  1.
         12    1    3    3    0    0  0.26744715742E+02  0.18853896592E+02  0.14808156190E+01  0.32755794170E+02  0.00000000000E+00 0. -1.
          1    1    1    2  501    0  0.21889593729E+02 -0.14604648004E+02 -0.28583024468E+02  0.38851503764E+02  0.00000000000E+00 0. -1.
<mgrwt>
<rscale>  1 0.84663595E+02</rscale>
<asrwt>0</asrwt>
<pdfrwt beam="1">  1       21 0.10319033E-01 0.84663595E+02</pdfrwt>
<pdfrwt beam="2">  1        2 0.96382197E-02 0.84663595E+02</pdfrwt>
<totfact> 0.58075227E+05</totfact>
</mgrwt>
</event>
<event>
 6    2  0.7993170E+000  0.8890871E+02  0.7546771E-02  0.1305516E+00
          4   -1    0    0  502    0 -0.00000000000E+00  0.00000000000E+00  0.90040686888E+02  0.90040686888E+02  0.00000000000E+00 0. -1.
         21   -1    0    0  501  502  0.00000000000E+00 -0.00000000000E+00 -0.17123748333E+03  0.17123748333E+03  0.00000000000E+00 0. -1.
         24    2    1    2    0    0 -0.35442523151E+02  0.10708726715E+02  0.65211940584E+02  0.11026039791E+03  0.80832597866E+02 0.  0.
        -11    1    3    3    0    0  0.65675767706E-01 -0.79520276432E+01 -0.17009067010E+02  0.18776246097E+02  0.00000000000E+00 0.  1.
         12    1    3    3    0    0 -0.35508198919E+02  0.18660754358E+02  0.82221007593E+02  0.91484151815E+02  0.00000000000E+00 0. -1.
          3    1    1    2  501    0  0.35442523151E+02 -0.10708726715E+02 -0.14640873703E+03  0.15101777231E+03  0.00000000000E+00 0. -1.
<mgrwt>
<rscale>  1 0.88908707E+02</rscale>
<asrwt>0</asrwt>
<pdfrwt beam="1">  1       21 0.26344228E-01 0.88908707E+02</pdfrwt>
<pdfrwt beam="2">  1        4 0.13852414E-01 0.88908707E+02</pdfrwt>
<totfact> 0.23120088E+04</totfact>
</mgrwt>
</event>
<event>
 6    2  0.7993170E+000  0.8374501E+02  0.7546771E-02  0.1318747E+00
         21   -1    0    0  501  502  0.00000000000E+00  0.00000000000E+00  0.19996900768E+01  0.19996900768E+01  0.00000000000E+00 0. -1.
          2   -1    0    0  502    0 -0.00000000000E+00 -0.00000000000E+00 -0.14680142962E+04  0.14680142962E+04  0.00000000000E+00 0. -1.
         24    2    1    2    0    0  0.22544525551E+02  0.77956733033E+01 -0.10627425224E+04  0.10660370047E+04  0.80275763854E+02 0.  0.
        -11    1    3    3    0    0 -0.29772047308E+02 -0.69958252895E+00 -0.46315902550E+03  0.46411544589E+03  0.00000000000E+00 0.  1.
         12    1    3    3    0    0  0.52316572859E+02  0.84952558323E+01 -0.59958349688E+03  0.60192155876E+03  0.00000000000E+00 0. -1.
          1    1    1    2  501    0 -0.22544525551E+02 -0.77956733033E+01 -0.40327208375E+03  0.40397698163E+03  0.00000000000E+00 0. -1.
<mgrwt>
<rscale>  1 0.83745008E+02</rscale>
<asrwt>0</asrwt>
<pdfrwt beam="1">  1       21 0.30764343E-03 0.83745008E+02</pdfrwt>
<pdfrwt beam="2">  1        2 0.22584923E+00 0.83745008E+02</pdfrwt>
<totfact> 0.40369014E+06</totfact>
</mgrwt>
</event>
<event>
 6    2  0.7993170E+000  0.8206315E+02  0.7546771E-02  0.1323296E+00
         21   -1    0    0  501  502  0.00000000000E+00  0.00000000000E+00  0.31226743892E+03  0.31226743892E+03  0.00000000000E+00 0. -1.
         -3   -1    0    0    0  501 -0.00000000000E+00 -0.00000000000E+00 -0.88395111301E+01  0.88395111301E+01  0.00000000000E+00 0.  1.
         24    2    1    2    0    0 -0.13498566181E+02 -0.14930815427E+02  0.20849524902E+03  0.22406389756E+03  0.79556400040E+02 0.  0.
        -13    1    3    3    0    0 -0.44168424215E+02  0.24566078701E+01  0.87644251220E+02  0.98175350225E+02  0.00000000000E+00 0.  1.
         14    1    3    3    0    0  0.30669858034E+02 -0.17387423297E+02  0.12085099780E+03  0.12588854733E+03  0.00000000000E+00 0. -1.
         -4    1    1    2    0  502  0.13498566181E+02  0.14930815427E+02  0.94932678769E+02  0.97043052490E+02  0.00000000000E+00 0.  1.
<mgrwt>
<rscale>  1 0.82063154E+02</rscale>
<asrwt>0</asrwt>
<pdfrwt beam="1">  1       21 0.48041136E-01 0.82063154E+02</pdfrwt>
<pdfrwt beam="2">  1       -3 0.13599250E-02 0.82063154E+02</pdfrwt>
<totfact> 0.31339663E+05</totfact>
</mgrwt>
</event>
<event>
 6    2  0.7993170E+000  0.9579025E+02  0.7546771E-02  0.1289406E+00
         21   -1    0    0  501  502  0.00000000000E+00  0.00000000000E+00  0.37646257843E+02  0.37646257843E+02  0.00000000000E+00 0. -1.
          2   -1    0    0  502    0 -0.00000000000E+00 -0.00000000000E+00 -0.15086500501E+03  0.15086500501E+03  0.00000000000E+00 0. -1.
         24    2    1    2    0    0 -0.46872135432E+02 -0.16671330105E+02 -0.96647125415E+02  0.13607512097E+03  0.81858667039E+02 0.  0.
        -13    1    3    3    0    0  0.32215500428E+01  0.37144234565E+01  0.12954479978E+02  0.13856185543E+02  0.00000000000E+00 0.  1.
         14    1    3    3    0    0 -0.50093685475E+02 -0.20385753561E+02 -0.10960160539E+03  0.12221893543E+03  0.00000000000E+00 0. -1.
          1    1    1    2  501    0  0.46872135432E+02  0.16671330105E+02 -0.16571621748E+02  0.52436141876E+02  0.00000000000E+00 0. -1.
<mgrwt>
<rscale>  1 0.95790248E+02</rscale>
<asrwt>0</asrwt>
<pdfrwt beam="1">  1       21 0.57917321E-02 0.95790248E+02</pdfrwt>
<pdfrwt beam="2">  1        2 0.23210000E-01 0.95790248E+02</pdfrwt>
<totfact> 0.56942976E+05</totfact>
</mgrwt>
</event>
<event>
 6    2  0.7993170E+000  0.8392239E+02  0.7546771E-02  0.1318275E+00
         21   -1    0    0  501  502  0.00000000000E+00  0.00000000000E+00  0.62404566268E+01  0.62404566268E+01  0.00000000000E+00 0. -1.
          2   -1    0    0  502    0 -0.00000000000E+00 -0.00000000000E+00 -0.46697592167E+03  0.46697592167E+03  0.00000000000E+00 0. -1.
         24    2    1    2    0    0 -0.20417913032E+02  0.93981247432E+01 -0.39259081717E+03  0.40146047990E+03  0.80856361979E+02 0.  0.
        -13    1    3    3    0    0 -0.13008085177E+01 -0.34557613805E+02 -0.12945099301E+03  0.13399059805E+03  0.00000000000E+00 0.  1.
         14    1    3    3    0    0 -0.19117104514E+02  0.43955738549E+02 -0.26313982416E+03  0.26746988185E+03  0.00000000000E+00 0. -1.
          1    1    1    2  501    0  0.20417913032E+02 -0.93981247432E+01 -0.68144647873E+02  0.71755898399E+02  0.00000000000E+00 0. -1.
<mgrwt>
<rscale>  1 0.83922388E+02</rscale>
<asrwt>0</asrwt>
<pdfrwt beam="1">  1       21 0.96006986E-03 0.83922388E+02</pdfrwt>
<pdfrwt beam="2">  1        2 0.71842479E-01 0.83922388E+02</pdfrwt>
<totfact> 0.30752778E+06</totfact>
</mgrwt>
</event>
<event>
 6    2  0.7993170E+000  0.9795248E+02  0.7546771E-02  0.1284661E+00
         -1   -1    0    0    0  501 -0.00000000000E+00  0.00000000000E+00  0.42019012101E+03  0.42019012101E+03  0.00000000000E+00 0.  1.
         21   -1    0    0  501  502  0.00000000000E+00 -0.00000000000E+00 -0.37338777166E+02  0.37338777166E+02  0.00000000000E+00 0.  1.
         24    2    1    2    0    0 -0.53455105797E+02 -0.17465352386E+02  0.38882801537E+03  0.40097620176E+03  0.80201009816E+02 0.  0.
        -13    1    3    3    0    0 -0.71197696762E+02 -0.14624971624E+02  0.35791198757E+03  0.36521773323E+03  0.00000000000E+00 0.  1.
         14    1    3    3    0    0  0.17742590965E+02 -0.28403807623E+01  0.30916027797E+02  0.35758468532E+02  0.00000000000E+00 0. -1.
         -2    1    1    2    0  502  0.53455105797E+02  0.17465352386E+02 -0.59766715190E+01  0.56552696418E+02  0.00000000000E+00 0.  1.
<mgrwt>
<rscale>  1 0.97952483E+02</rscale>
<asrwt>0</asrwt>
<pdfrwt beam="1">  1       21 0.57444276E-02 0.97952483E+02</pdfrwt>
<pdfrwt beam="2">  1       -1 0.64644631E-01 0.97952483E+02</pdfrwt>
<totfact> 0.48634481E+04</totfact>
</mgrwt>
</event>
<event>
 6    2  0.7993170E+000  0.8542064E+02  0.7546771E-02  0.1314336E+00
         21   -1    0    0  501  502  0.00000000000E+00  0.00000000000E+00  0.18500200527E+02  0.18500200527E+02  0.00000000000E+00 0.  1.
         -3   -1    0    0    0  501 -0.00000000000E+00 -0.00000000000E+00 -0.27209462497E+03  0.27209462497E+03  0.00000000000E+00 0.  1.
         24    2    1    2    0    0 -0.22826447217E+02  0.13140256112E+02 -0.24977896196E+03  0.26398146838E+03  0.81258678216E+02 0.  0.
        -13    1    3    3    0    0 -0.40640117692E+02 -0.71880534025E+01 -0.21969876028E+03  0.22354156782E+03  0.00000000000E+00 0.  1.
         14    1    3    3    0    0  0.17813670474E+02  0.20328309515E+02 -0.30080201682E+02  0.40439900553E+02  0.00000000000E+00 0. -1.
         -4    1    1    2    0  502  0.22826447217E+02 -0.13140256112E+02 -0.38154624839E+01  0.26613357120E+02  0.00000000000E+00 0.  1.
<mgrwt>
<rscale>  1 0.85420640E+02</rscale>
<asrwt>0</asrwt>
<pdfrwt beam="1">  1       21 0.28461849E-02 0.85420640E+02</pdfrwt>
<pdfrwt beam="2">  1       -3 0.41860708E-01 0.85420640E+02</pdfrwt>
<totfact> 0.17389212E+05</totfact>
</mgrwt>
</event>
<event>
 6    2  0.7993170E+000  0.8919029E+02  0.7546771E-02  0.1304824E+00
         21   -1    0    0  501  502  0.00000000000E+00  0.00000000000E+00  0.11612186703E+01  0.11612186703E+01  0.00000000000E+00 0.  1.
          2   -1    0    0  502    0 -0.00000000000E+00 -0.00000000000E+00 -0.35401911466E+04  0.35401911466E+04  0.00000000000E+00 0. -1.
         24    2    1    2    0    0  0.71139904595E+01 -0.37271073741E+02 -0.22585705922E+04  0.22603309555E+04  0.80716582582E+02 0.  0.
        -11    1    3    3    0    0  0.11994691162E+02 -0.97350181170E+01 -0.74666260594E+02  0.76247581371E+02  0.00000000000E+00 0.  1.
         12    1    3    3    0    0 -0.48807007028E+01 -0.27536055624E+02 -0.21839043316E+04  0.21840833741E+04  0.00000000000E+00 0. -1.
          1    1    1    2  501    0 -0.71139904595E+01  0.37271073741E+02 -0.12804593358E+04  0.12810214098E+04  0.00000000000E+00 0. -1.
<mgrwt>
<rscale>  1 0.89190294E+02</rscale>
<asrwt>0</asrwt>
<pdfrwt beam="1">  1       21 0.17864853E-03 0.89190294E+02</pdfrwt>
<pdfrwt beam="2">  1        2 0.54464632E+00 0.89190294E+02</pdfrwt>
<totfact> 0.69405017E+05</totfact>
</mgrwt>
</event>
<event>
 6    2  0.7993170E+000  0.8696398E+02  0.7546771E-02  0.1310375E+00
          2   -1    0    0  502    0 -0.00000000000E+00  0.00000000000E+00  0.52540029579E+03  0.52540029579E+03  0.00000000000E+00 0. -1.
         21   -1    0    0  501  502  0.00000000000E+00 -0.00000000000E+00 -0.80845339638E+01  0.80845339638E+01  0.00000000000E+00 0.  1.
         24    2    1    2    0    0  0.31771930052E+02 -0.68584466980E+01  0.45463517671E+03  0.46287782174E+03  0.80661267812E+02 0.  0.
        -13    1    3    3    0    0  0.40867408830E+02 -0.34237236601E+01  0.99642134538E+02  0.10775166803E+03  0.00000000000E+00 0.  1.
         14    1    3    3    0    0 -0.90954787781E+01 -0.34347230379E+01  0.35499304218E+03  0.35512615371E+03  0.00000000000E+00 0. -1.
          1    1    1    2  501    0 -0.31771930052E+02  0.68584466980E+01  0.62680585117E+02  0.70607008016E+02  0.00000000000E+00 0. -1.
<mgrwt>
<rscale>  1 0.86963981E+02</rscale>
<asrwt>0</asrwt>
<pdfrwt beam="1">  1       21 0.12437749E-02 0.86963981E+02</pdfrwt>
<pdfrwt beam="2">  1        2 0.80830788E-01 0.86963981E+02</pdfrwt>
<totfact> 0.18140132E+06</totfact>
</mgrwt>
</event>
<event>
 6    2  0.7993170E+000  0.8661278E+02  0.7546771E-02  0.1311268E+00
         -3   -1    0    0    0  501 -0.00000000000E+00  0.00000000000E+00  0.30751745052E+02  0.30751745052E+02  0.00000000000E+00 0.  1.
         21   -1    0    0  501  502  0.00000000000E+00 -0.00000000000E+00 -0.10655919430E+03  0.10655919430E+03  0.00000000000E+00 0. -1.
         24    2    1    2    0    0 -0.12901215905E+01 -0.24965942200E+02 -0.44901057421E+02  0.97559615607E+02  0.82926539516E+02 0.  0.
        -11    1    3    3    0    0 -0.33844022429E+01  0.27598958022E+02 -0.33847604935E+02  0.43804303696E+02  0.00000000000E+00 0.  1.
         12    1    3    3    0    0  0.20942806524E+01 -0.52564900222E+02 -0.11053452486E+02  0.53755311911E+02  0.00000000000E+00 0. -1.
         -4    1    1    2    0  502  0.12901215905E+01  0.24965942200E+02 -0.30906391822E+02  0.39751323741E+02  0.00000000000E+00 0.  1.
<mgrwt>
<rscale>  1 0.86612780E+02</rscale>
<asrwt>0</asrwt>
<pdfrwt beam="1">  1       21 0.16393722E-01 0.86612780E+02</pdfrwt>
<pdfrwt beam="2">  1       -3 0.47310376E-02 0.86612780E+02</pdfrwt>
<totfact> 0.36504458E+05</totfact>
</mgrwt>
</event>
<event>
 6    2  0.7993170E+000  0.8444122E+02  0.7546771E-02  0.1316900E+00
         21   -1    0    0  501  502  0.00000000000E+00  0.00000000000E+00  0.14180532782E+03  0.14180532782E+03  0.00000000000E+00 0. -1.
         -1   -1    0    0    0  501 -0.00000000000E+00 -0.00000000000E+00 -0.22963282169E+02  0.22963282169E+02  0.00000000000E+00 0.  1.
         24    2    1    2    0    0  0.24041895961E+02 -0.17338041144E+02  0.89982061044E+02  0.12339809943E+03  0.79067687472E+02 0.  0.
        -13    1    3    3    0    0  0.28237316627E+02 -0.41129368147E+01 -0.36283639254E+01  0.28765036491E+02  0.00000000000E+00 0.  1.
         14    1    3    3    0    0 -0.41954206657E+01 -0.13225104329E+02  0.93610424969E+02  0.94633062943E+02  0.00000000000E+00 0. -1.
         -2    1    1    2    0  502 -0.24041895961E+02  0.17338041144E+02  0.28859984608E+02  0.41370510557E+02  0.00000000000E+00 0.  1.
<mgrwt>
<rscale>  1 0.84441220E+02</rscale>
<asrwt>0</asrwt>
<pdfrwt beam="1">  1       21 0.21816204E-01 0.84441220E+02</pdfrwt>
<pdfrwt beam="2">  1       -1 0.35328127E-02 0.84441220E+02</pdfrwt>
<totfact> 0.47326934E+05</totfact>
</mgrwt>
</event>
<event>
 6    2  0.7993170E+000  0.9240982E+02  0.7546771E-02  0.1297119E+00
          2   -1    0    0  502    0 -0.00000000000E+00  0.00000000000E+00  0.43967579721E+03  0.43967579721E+03  0.00000000000E+00 0. -1.
         21   -1    0    0  501  502  0.00000000000E+00 -0.00000000000E+00 -0.11889783538E+02  0.11889783538E+02  0.00000000000E+00 0.  1.
         24    2    1    2    0    0  0.41646532521E+02 -0.19392978697E+02  0.21745356247E+03  0.23627447242E+03  0.80181376860E+02 0.  0.
        -11    1    3    3    0    0  0.59701286506E+02 -0.28470336754E+02  0.12271962793E+03  0.13940914878E+03  0.00000000000E+00 0.  1.
         12    1    3    3    0    0 -0.18054753985E+02  0.90773580565E+01  0.94733934538E+02  0.96865323639E+02  0.00000000000E+00 0. -1.
          1    1    1    2  501    0 -0.41646532521E+02  0.19392978697E+02  0.21033245121E+03  0.21529110833E+03  0.00000000000E+00 0. -1.
<mgrwt>
<rscale>  1 0.92409818E+02</rscale>
<asrwt>0</asrwt>
<pdfrwt beam="1">  1       21 0.18291978E-02 0.92409818E+02</pdfrwt>
<pdfrwt beam="2">  1        2 0.67642418E-01 0.92409818E+02</pdfrwt>
<totfact> 0.12002918E+06</totfact>
</mgrwt>
</event>
<event>
 6    2  0.7993170E+000  0.9198444E+02  0.7546771E-02  0.1298116E+00
         21   -1    0    0  501  502  0.00000000000E+00  0.00000000000E+00  0.45945200621E+01  0.45945200621E+01  0.00000000000E+00 0. -1.
          2   -1    0    0  502    0 -0.00000000000E+00 -0.00000000000E+00 -0.10238738753E+04  0.10238738753E+04  0.00000000000E+00 0. -1.
         24    2    1    2    0    0  0.24847101883E+02  0.37249097742E+02 -0.72199589699E+03  0.72783185682E+03  0.80350872971E+02 0.  0.
        -13    1    3    3    0    0 -0.14744180913E+02 -0.29609183257E+01 -0.30189148310E+02  0.33727475207E+02  0.00000000000E+00 0.  1.
         14    1    3    3    0    0  0.39591282795E+02  0.40210016068E+02 -0.69180674868E+03  0.69410438162E+03  0.00000000000E+00 0. -1.
          1    1    1    2  501    0 -0.24847101883E+02 -0.37249097742E+02 -0.29728345824E+03  0.30063653853E+03  0.00000000000E+00 0. -1.
<mgrwt>
<rscale>  1 0.91984436E+02</rscale>
<asrwt>0</asrwt>
<pdfrwt beam="1">  1       21 0.70684909E-03 0.91984436E+02</pdfrwt>
<pdfrwt beam="2">  1        2 0.15751909E+00 0.91984436E+02</pdfrwt>
<totfact> 0.19808012E+06</totfact>
</mgrwt>
</event>
<event>
 6    2  0.7993170E+000  0.8802945E+02  0.7546771E-02  0.1307695E+00
         21   -1    0    0  501  502  0.00000000000E+00  0.00000000000E+00  0.70154679767E+01  0.70154679767E+01  0.00000000000E+00 0. -1.
          4   -1    0    0  502    0 -0.00000000000E+00 -0.00000000000E+00 -0.59974580350E+03  0.59974580350E+03  0.00000000000E+00 0. -1.
         24    2    1    2    0    0  0.29304129837E+02 -0.21599421417E+02 -0.48820393633E+03  0.49607687710E+03  0.80149345042E+02 0.  0.
        -11    1    3    3    0    0  0.93244629186E+01  0.30678106746E+02 -0.17829614884E+03  0.18115630967E+03  0.00000000000E+00 0.  1.
         12    1    3    3    0    0  0.19979666918E+02 -0.52277528163E+02 -0.30990778749E+03  0.31492056743E+03  0.00000000000E+00 0. -1.
          3    1    1    2  501    0 -0.29304129837E+02  0.21599421417E+02 -0.10452639920E+03  0.11068439438E+03  0.00000000000E+00 0. -1.
<mgrwt>
<rscale>  1 0.88029453E+02</rscale>
<asrwt>0</asrwt>
<pdfrwt beam="1">  1       21 0.10793028E-02 0.88029453E+02</pdfrwt>
<pdfrwt beam="2">  1        4 0.92268583E-01 0.88029453E+02</pdfrwt>
<totfact> 0.12755780E+05</totfact>
</mgrwt>
</event>
<event>
 6    2  0.7993170E+000  0.8501750E+02  0.7546771E-02  0.1315387E+00
         21   -1    0    0  501  502  0.00000000000E+00  0.00000000000E+00  0.95368556175E+00  0.95368556175E+00  0.00000000000E+00 0.  1.
          2   -1    0    0  502    0 -0.00000000000E+00 -0.00000000000E+00 -0.32377606752E+04  0.32377606752E+04  0.00000000000E+00 0. -1.
         24    2    1    2    0    0  0.11355873926E+02 -0.23263161957E+02 -0.25661759981E+04  0.25675839283E+04  0.80980522453E+02 0.  0.
        -11    1    3    3    0    0  0.54029347413E+01 -0.36570605406E+02 -0.50307294806E+03  0.50442937261E+03  0.00000000000E+00 0.  1.
         12    1    3    3    0    0  0.59529391848E+01  0.13307443449E+02 -0.20631030500E+04  0.20631545557E+04  0.00000000000E+00 0. -1.
          1    1    1    2  501    0 -0.11355873926E+02  0.23263161957E+02 -0.67063099158E+03  0.67113043251E+03  0.00000000000E+00 0. -1.
<mgrwt>
<rscale>  1 0.85017502E+02</rscale>
<asrwt>0</asrwt>
<pdfrwt beam="1">  1       21 0.14671923E-03 0.85017502E+02</pdfrwt>
<pdfrwt beam="2">  1        2 0.49812255E+00 0.85017502E+02</pdfrwt>
<totfact> 0.14319519E+06</totfact>
</mgrwt>
</event>
<event>
 6    2  0.7993170E+000  0.9467230E+02  0.7546771E-02  0.1291916E+00
         21   -1    0    0  501  502  0.00000000000E+00  0.00000000000E+00  0.42636893375E+02  0.42636893375E+02  0.00000000000E+00 0.  1.
          2   -1    0    0  502    0 -0.00000000000E+00 -0.00000000000E+00 -0.12607603467E+03  0.12607603467E+03  0.00000000000E+00 0. -1.
         24    2    1    2    0    0 -0.50524256747E+02 -0.11859855901E+02 -0.56297490996E+02  0.11014650522E+03  0.79180101147E+02 0.  0.
        -13    1    3    3    0    0 -0.56402568109E+02 -0.14784964234E+02 -0.51012113123E+01  0.58530908190E+02  0.00000000000E+00 0.  1.
         14    1    3    3    0    0  0.58783113617E+01  0.29251083334E+01 -0.51196279683E+02  0.51615597029E+02  0.00000000000E+00 0. -1.
          1    1    1    2  501    0  0.50524256747E+02  0.11859855901E+02 -0.27141650302E+02  0.58566422829E+02  0.00000000000E+00 0. -1.
<mgrwt>
<rscale>  1 0.94672304E+02</rscale>
<asrwt>0</asrwt>
<pdfrwt beam="1">  1       21 0.65595221E-02 0.94672304E+02</pdfrwt>
<pdfrwt beam="2">  1        2 0.19396313E-01 0.94672304E+02</pdfrwt>
<totfact> 0.56295179E+05</totfact>
</mgrwt>
</event>
<event>
 6    2  0.7993170E+000  0.8387897E+02  0.7546771E-02  0.1318390E+00
          2   -1    0    0  502    0 -0.00000000000E+00  0.00000000000E+00  0.41787135614E+03  0.41787135614E+03  0.00000000000E+00 0. -1.
         21   -1    0    0  501  502  0.00000000000E+00 -0.00000000000E+00 -0.17973681728E+02  0.17973681728E+02  0.00000000000E+00 0. -1.
         24    2    1    2    0    0 -0.21484616558E+02  0.51870790249E+01  0.40463811889E+03  0.41324047303E+03  0.80914688113E+02 0.  0.
        -11    1    3    3    0    0 -0.37275066433E+02 -0.19220140535E+02  0.11991482195E+03  0.12703703753E+03  0.00000000000E+00 0.  1.
         12    1    3    3    0    0  0.15790449874E+02  0.24407219560E+02  0.28472329694E+03  0.28620343551E+03  0.00000000000E+00 0. -1.
          1    1    1    2  501    0  0.21484616558E+02 -0.51870790249E+01 -0.47404444830E+01  0.22604564835E+02  0.00000000000E+00 0. -1.
<mgrwt>
<rscale>  1 0.83878968E+02</rscale>
<asrwt>0</asrwt>
<pdfrwt beam="1">  1       21 0.27651821E-02 0.83878968E+02</pdfrwt>
<pdfrwt beam="2">  1        2 0.64287894E-01 0.83878968E+02</pdfrwt>
<totfact> 0.64623421E+05</totfact>
</mgrwt>
</event>
<event>
 6    2  0.7993170E+000  0.7605015E+02  0.7546771E-02  0.1340650E+00
          2   -1    0    0  502    0 -0.00000000000E+00  0.00000000000E+00  0.91685021532E+03  0.91685021532E+03  0.00000000000E+00 0. -1.
         21   -1    0    0  501  502  0.00000000000E+00 -0.00000000000E+00 -0.30830145308E+01  0.30830145308E+01  0.00000000000E+00 0.  1.
         24    2    1    2    0    0 -0.49376247757E+01 -0.29610576922E+02  0.68332853299E+03  0.68754746002E+03  0.69874597485E+02 0.  0.
        -11    1    3    3    0    0  0.45728061533E+01 -0.51159074140E+02  0.51976873324E+03  0.52230039008E+03  0.00000000000E+00 0.  1.
         12    1    3    3    0    0 -0.95104309289E+01  0.21548497218E+02  0.16355979975E+03  0.16524706994E+03  0.00000000000E+00 0. -1.
          1    1    1    2  501    0  0.49376247757E+01  0.29610576922E+02  0.23043866780E+03  0.23238576983E+03  0.00000000000E+00 0. -1.
<mgrwt>
<rscale>  1 0.76050153E+02</rscale>
<asrwt>0</asrwt>
<pdfrwt beam="1">  1       21 0.47431066E-03 0.76050153E+02</pdfrwt>
<pdfrwt beam="2">  1        2 0.14105366E+00 0.76050153E+02</pdfrwt>
<totfact> 0.41444077E+06</totfact>
</mgrwt>
</event>
<event>
 6    2  0.7993170E+000  0.1924232E+03  0.7546771E-02  0.1156294E+00
         -1   -1    0    0    0  501 -0.00000000000E+00  0.00000000000E+00  0.34482442613E+03  0.34482442613E+03  0.00000000000E+00 0.  1.
         21   -1    0    0  501  502  0.00000000000E+00 -0.00000000000E+00 -0.11362350616E+03  0.11362350616E+03  0.00000000000E+00 0.  1.
         24    2    1    2    0    0  0.31048696843E+02  0.17173716090E+03  0.20638230739E+03  0.28217077115E+03  0.81049449600E+02 0.  0.
        -11    1    3    3    0    0  0.42909135065E+02  0.17040983061E+03  0.20522331124E+03  0.27018014679E+03  0.00000000000E+00 0.  1.
         12    1    3    3    0    0 -0.11860438223E+02  0.13273302884E+01  0.11589961414E+01  0.11990624362E+02  0.00000000000E+00 0. -1.
         -2    1    1    2    0  502 -0.31048696843E+02 -0.17173716090E+03  0.24818612585E+02  0.17627716114E+03  0.00000000000E+00 0.  1.
<mgrwt>
<rscale>  1 0.19242320E+03</rscale>
<asrwt>0</asrwt>
<pdfrwt beam="1">  1       21 0.17480540E-01 0.19242320E+03</pdfrwt>
<pdfrwt beam="2">  1       -1 0.53049911E-01 0.19242320E+03</pdfrwt>
<totfact> 0.10090569E+04</totfact>
</mgrwt>
</event>
<event>
 6    2  0.7993170E+000  0.8991418E+02  0.7546771E-02  0.1303060E+00
         -1   -1    0    0    0  501 -0.00000000000E+00  0.00000000000E+00  0.34189133843E+02  0.34189133843E+02  0.00000000000E+00 0.  1.
         21   -1    0    0  501  502  0.00000000000E+00 -0.00000000000E+00 -0.17684907802E+03  0.17684907802E+03  0.00000000000E+00 0.  1.
         24    2    1    2    0    0 -0.28902853177E+02  0.31563453162E+02 -0.37348299325E+02  0.97362493089E+02  0.79075489886E+02 0.  0.
        -11    1    3    3    0    0 -0.17926976938E+02  0.12295851391E+01  0.22847992912E+02  0.29067493216E+02  0.00000000000E+00 0.  1.
         12    1    3    3    0    0 -0.10975876240E+02  0.30333868023E+02 -0.60196292238E+02  0.68294999873E+02  0.00000000000E+00 0. -1.
         -2    1    1    2    0  502  0.28902853177E+02 -0.31563453162E+02 -0.10531164485E+03  0.11367571877E+03  0.00000000000E+00 0.  1.
<mgrwt>
<rscale>  1 0.89914179E+02</rscale>
<asrwt>0</asrwt>
<pdfrwt beam="1">  1       21 0.27207550E-01 0.89914179E+02</pdfrwt>
<pdfrwt beam="2">  1       -1 0.52598668E-02 0.89914179E+02</pdfrwt>
<totfact> 0.17681312E+05</totfact>
</mgrwt>
</event>
<event>
 6    2  0.7993170E+000  0.9674355E+02  0.7546771E-02  0.1287297E+00
          2   -1    0    0  502    0 -0.00000000000E+00  0.00000000000E+00  0.19113900133E+04  0.19113900133E+04  0.00000000000E+00 0. -1.
         21   -1    0    0  501  502  0.00000000000E+00 -0.00000000000E+00 -0.37972626401E+01  0.37972626401E+01  0.00000000000E+00 0. -1.
         24    2    1    2    0    0 -0.41716757700E+02 -0.56376395493E+02  0.12907408842E+04  0.12943613656E+04  0.66638792543E+02 0.  0.
        -11    1    3    3    0    0 -0.43138730898E+02 -0.63860442154E+02  0.83304835050E+03  0.83660543893E+03  0.00000000000E+00 0.  1.
         12    1    3    3    0    0  0.14219731980E+01  0.74840466611E+01  0.45769253371E+03  0.45775592664E+03  0.00000000000E+00 0. -1.
          1    1    1    2  501    0  0.41716757700E+02  0.56376395493E+02  0.61685186642E+03  0.62082591034E+03  0.00000000000E+00 0. -1.
<mgrwt>
<rscale>  1 0.96743550E+02</rscale>
<asrwt>0</asrwt>
<pdfrwt beam="1">  1       21 0.58419578E-03 0.96743550E+02</pdfrwt>
<pdfrwt beam="2">  1        2 0.29405923E+00 0.96743550E+02</pdfrwt>
<totfact> 0.91641387E+05</totfact>
</mgrwt>
</event>
<event>
 6    2  0.7993170E+000  0.8314996E+02  0.7546771E-02  0.1320343E+00
         21   -1    0    0  501  502  0.00000000000E+00  0.00000000000E+00  0.64957623525E+01  0.64957623525E+01  0.00000000000E+00 0. -1.
          2   -1    0    0  502    0 -0.00000000000E+00 -0.00000000000E+00 -0.17740818198E+04  0.17740818198E+04  0.00000000000E+00 0. -1.
         24    2    1    2    0    0  0.85804838492E+01  0.20847358373E+02 -0.17500292120E+04  0.17520034702E+04  0.80035489154E+02 0.  0.
        -11    1    3    3    0    0 -0.58113179488E+01  0.24724442983E+02 -0.16844402186E+03  0.17034804958E+03  0.00000000000E+00 0.  1.
         12    1    3    3    0    0  0.14391801798E+02 -0.38770846102E+01 -0.15815851902E+04  0.15816554206E+04  0.00000000000E+00 0. -1.
          1    1    1    2  501    0 -0.85804838492E+01 -0.20847358373E+02 -0.17556845437E+02  0.28574111988E+02  0.00000000000E+00 0. -1.
<mgrwt>
<rscale>  1 0.83149964E+02</rscale>
<asrwt>0</asrwt>
<pdfrwt beam="1">  1       21 0.99934637E-03 0.83149964E+02</pdfrwt>
<pdfrwt beam="2">  1        2 0.27293613E+00 0.83149964E+02</pdfrwt>
<totfact> 0.46411225E+05</totfact>
</mgrwt>
</event>
<event>
 6    2  0.7993170E+000  0.1030107E+03  0.7546771E-02  0.1274089E+00
          2   -1    0    0  502    0 -0.00000000000E+00  0.00000000000E+00  0.49631906372E+02  0.49631906372E+02  0.00000000000E+00 0. -1.
         21   -1    0    0  501  502  0.00000000000E+00 -0.00000000000E+00 -0.76798962333E+02  0.76798962333E+02  0.00000000000E+00 0.  1.
         24    2    1    2    0    0  0.41936507854E+01  0.20009681185E+02 -0.23562650091E+02  0.10567115316E+03  0.10096147821E+03 0.  0.
        -11    1    3    3    0    0  0.17379108151E+02 -0.36998632199E+02 -0.23514481269E+02  0.47157852094E+02  0.00000000000E+00 0.  1.
         12    1    3    3    0    0 -0.13185457366E+02  0.57008313385E+02 -0.48168822246E-01  0.58513301062E+02  0.00000000000E+00 0. -1.
          1    1    1    2  501    0 -0.41936507854E+01 -0.20009681185E+02 -0.36044058699E+01  0.20759715550E+02  0.00000000000E+00 0. -1.
<mgrwt>
<rscale>  1 0.10301065E+03</rscale>
<asrwt>0</asrwt>
<pdfrwt beam="1">  1       21 0.11815225E-01 0.10301065E+03</pdfrwt>
<pdfrwt beam="2">  1        2 0.76356779E-02 0.10301065E+03</pdfrwt>
<totfact> 0.62288519E+05</totfact>
</mgrwt>
</event>
<event>
 6    2  0.7993170E+000  0.9907603E+02  0.7546771E-02  0.1282251E+00
         -3   -1    0    0    0  501 -0.00000000000E+00  0.00000000000E+00  0.27224702761E+02  0.27224702761E+02  0.00000000000E+00 0.  1.
         21   -1    0    0  501  502  0.00000000000E+00 -0.00000000000E+00 -0.26857688590E+03  0.26857688590E+03  0.00000000000E+00 0.  1.
         24    2    1    2    0    0  0.33703111874E+02 -0.46518190071E+02 -0.89757013775E+02  0.13368762525E+03  0.80723093761E+02 0.  0.
        -11    1    3    3    0    0  0.40532801123E+02 -0.58851893706E+02 -0.39833800727E+02  0.81811888134E+02  0.00000000000E+00 0.  1.
         12    1    3    3    0    0 -0.68296892490E+01  0.12333703635E+02 -0.49923213048E+02  0.51875737119E+02  0.00000000000E+00 0. -1.
         -4    1    1    2    0  502 -0.33703111874E+02  0.46518190071E+02 -0.15159516937E+03  0.16211396341E+03  0.00000000000E+00 0.  1.
<mgrwt>
<rscale>  1 0.99076030E+02</rscale>
<asrwt>0</asrwt>
<pdfrwt beam="1">  1       21 0.41319524E-01 0.99076030E+02</pdfrwt>
<pdfrwt beam="2">  1       -3 0.41884155E-02 0.99076030E+02</pdfrwt>
<totfact> 0.78707904E+04</totfact>
</mgrwt>
</event>
<event>
 6    2  0.7993170E+000  0.8353949E+02  0.7546771E-02  0.1319297E+00
         21   -1    0    0  501  502  0.00000000000E+00  0.00000000000E+00  0.22835077147E+02  0.22835077147E+02  0.00000000000E+00 0. -1.
          2   -1    0    0  502    0 -0.00000000000E+00 -0.00000000000E+00 -0.20245985111E+03  0.20245985111E+03  0.00000000000E+00 0. -1.
         24    2    1    2    0    0  0.18358279634E+02  0.10236843244E+02 -0.18552256590E+03  0.20346368138E+03  0.80851887987E+02 0.  0.
        -11    1    3    3    0    0 -0.13356283427E+02 -0.19062424937E+02 -0.15308760173E+02  0.27859010921E+02  0.00000000000E+00 0.  1.
         12    1    3    3    0    0  0.31714563061E+02  0.29299268181E+02 -0.17021380573E+03  0.17560467046E+03  0.00000000000E+00 0. -1.
          1    1    1    2  501    0 -0.18358279634E+02 -0.10236843244E+02  0.58977919344E+01  0.21831246882E+02  0.00000000000E+00 0. -1.
<mgrwt>
<rscale>  1 0.83539495E+02</rscale>
<asrwt>0</asrwt>
<pdfrwt beam="1">  1       21 0.35130888E-02 0.83539495E+02</pdfrwt>
<pdfrwt beam="2">  1        2 0.31147669E-01 0.83539495E+02</pdfrwt>
<totfact> 0.93530094E+05</totfact>
</mgrwt>
</event>
<event>
 6    2  0.7993170E+000  0.1147951E+03  0.7546771E-02  0.1251939E+00
         21   -1    0    0  501  502  0.00000000000E+00  0.00000000000E+00  0.18419203319E+03  0.18419203319E+03  0.00000000000E+00 0.  1.
         -3   -1    0    0    0  501 -0.00000000000E+00 -0.00000000000E+00 -0.50969624689E+02  0.50969624689E+02  0.00000000000E+00 0.  1.
         24    2    1    2    0    0  0.27509700103E+02 -0.73735038999E+02  0.72674913839E+02  0.13586594455E+03  0.83571958277E+02 0.  0.
        -13    1    3    3    0    0  0.97659208042E+01 -0.34832992329E+02 -0.14339009550E+02  0.38914235937E+02  0.00000000000E+00 0.  1.
         14    1    3    3    0    0  0.17743779298E+02 -0.38902046670E+02  0.87013923389E+02  0.96951708610E+02  0.00000000000E+00 0. -1.
         -4    1    1    2    0  502 -0.27509700103E+02  0.73735038999E+02  0.60547494658E+02  0.99295713328E+02  0.00000000000E+00 0.  1.
<mgrwt>
<rscale>  1 0.11479509E+03</rscale>
<asrwt>0</asrwt>
<pdfrwt beam="1">  1       21 0.28337235E-01 0.11479509E+03</pdfrwt>
<pdfrwt beam="2">  1       -3 0.78414808E-02 0.11479509E+03</pdfrwt>
<totfact> 0.61711840E+04</totfact>
</mgrwt>
</event>
<event>
 6    2  0.7993170E+000  0.1034758E+03  0.7546771E-02  0.1273152E+00
          2   -1    0    0  502    0 -0.00000000000E+00  0.00000000000E+00  0.21477422216E+03  0.21477422216E+03  0.00000000000E+00 0. -1.
         21   -1    0    0  501  502  0.00000000000E+00 -0.00000000000E+00 -0.17795944336E+03  0.17795944336E+03  0.00000000000E+00 0. -1.
         24    2    1    2    0    0 -0.29282045168E+01  0.64300051382E+02  0.19566310625E+03  0.22133978546E+03  0.81019617928E+02 0.  0.
        -11    1    3    3    0    0  0.23532900071E+02 -0.72510483952E+01  0.28983985347E+02  0.38032177103E+02  0.00000000000E+00 0.  1.
         12    1    3    3    0    0 -0.26461104588E+02  0.71551099777E+02  0.16667912091E+03  0.18330760836E+03  0.00000000000E+00 0. -1.
          1    1    1    2  501    0  0.29282045168E+01 -0.64300051382E+02 -0.15884832745E+03  0.17139388006E+03  0.00000000000E+00 0. -1.
<mgrwt>
<rscale>  1 0.10347584E+03</rscale>
<asrwt>0</asrwt>
<pdfrwt beam="1">  1       21 0.27378376E-01 0.10347584E+03</pdfrwt>
<pdfrwt beam="2">  1        2 0.33042188E-01 0.10347584E+03</pdfrwt>
<totfact> 0.24824143E+04</totfact>
</mgrwt>
</event>
<event>
 6    2  0.7993170E+000  0.1230104E+03  0.7546771E-02  0.1238212E+00
          4   -1    0    0  502    0 -0.00000000000E+00  0.00000000000E+00  0.23520270531E+03  0.23520270531E+03  0.00000000000E+00 0. -1.
         21   -1    0    0  501  502  0.00000000000E+00 -0.00000000000E+00 -0.58733619762E+02  0.58733619762E+02  0.00000000000E+00 0. -1.
         24    2    1    2    0    0 -0.88216738924E+02  0.15262903555E+02  0.16174409848E+03  0.20320609585E+03  0.84358845102E+02 0.  0.
        -13    1    3    3    0    0 -0.13637865559E+02 -0.31103889259E+02  0.32930564663E+02  0.47306081988E+02  0.00000000000E+00 0.  1.
         14    1    3    3    0    0 -0.74578873365E+02  0.46366792814E+02  0.12881353382E+03  0.15590001386E+03  0.00000000000E+00 0. -1.
          3    1    1    2  501    0  0.88216738924E+02 -0.15262903555E+02  0.14724987075E+02  0.90730229227E+02  0.00000000000E+00 0. -1.
<mgrwt>
<rscale>  1 0.12301042E+03</rscale>
<asrwt>0</asrwt>
<pdfrwt beam="1">  1       21 0.90359416E-02 0.12301042E+03</pdfrwt>
<pdfrwt beam="2">  1        4 0.36185031E-01 0.12301042E+03</pdfrwt>
<totfact> 0.28851195E+04</totfact>
</mgrwt>
</event>
<event>
 6    2  0.7993170E+000  0.8322427E+02  0.7546771E-02  0.1320143E+00
         21   -1    0    0  501  502  0.00000000000E+00  0.00000000000E+00  0.65917378090E+01  0.65917378090E+01  0.00000000000E+00 0. -1.
          2   -1    0    0  502    0 -0.00000000000E+00 -0.00000000000E+00 -0.71675701202E+03  0.71675701202E+03  0.00000000000E+00 0. -1.
         24    2    1    2    0    0  0.18705483054E+02 -0.11802900255E+02 -0.68418750648E+03  0.68923060265E+03  0.80231390694E+02 0.  0.
        -13    1    3    3    0    0 -0.11836021534E+02  0.29529232069E+02 -0.26885758406E+03  0.27073320347E+03  0.00000000000E+00 0.  1.
         14    1    3    3    0    0  0.30541504588E+02 -0.41332132324E+02 -0.41532992242E+03  0.41849739918E+03  0.00000000000E+00 0. -1.
          1    1    1    2  501    0 -0.18705483054E+02  0.11802900255E+02 -0.25977767728E+02  0.34118147178E+02  0.00000000000E+00 0. -1.
<mgrwt>
<rscale>  1 0.83224273E+02</rscale>
<asrwt>0</asrwt>
<pdfrwt beam="1">  1       21 0.10141133E-02 0.83224273E+02</pdfrwt>
<pdfrwt beam="2">  1        2 0.11027033E+00 0.83224273E+02</pdfrwt>
<totfact> 0.17530725E+06</totfact>
</mgrwt>
</event>
<event>
 6    2  0.7993170E+000  0.8497690E+02  0.7546771E-02  0.1315493E+00
         21   -1    0    0  501  502  0.00000000000E+00  0.00000000000E+00  0.68543988739E+01  0.68543988739E+01  0.00000000000E+00 0.  1.
          2   -1    0    0  502    0 -0.00000000000E+00 -0.00000000000E+00 -0.46622593412E+03  0.46622593412E+03  0.00000000000E+00 0. -1.
         24    2    1    2    0    0  0.21163734528E+02 -0.13929690116E+02 -0.30386945054E+03  0.31552768061E+03  0.81111863081E+02 0.  0.
        -13    1    3    3    0    0 -0.82391437212E+01  0.22520028659E+02 -0.33885048254E+02  0.41511825728E+02  0.00000000000E+00 0.  1.
         14    1    3    3    0    0  0.29402878249E+02 -0.36449718775E+02 -0.26998440229E+03  0.27401585488E+03  0.00000000000E+00 0. -1.
          1    1    1    2  501    0 -0.21163734528E+02  0.13929690116E+02 -0.15550208470E+03  0.15755265238E+03  0.00000000000E+00 0. -1.
<mgrwt>
<rscale>  1 0.84976904E+02</rscale>
<asrwt>0</asrwt>
<pdfrwt beam="1">  1       21 0.10545230E-02 0.84976904E+02</pdfrwt>
<pdfrwt beam="2">  1        2 0.71727063E-01 0.84976904E+02</pdfrwt>
<totfact> 0.26650728E+06</totfact>
</mgrwt>
</event>
<event>
 6    2  0.7993170E+000  0.8488877E+02  0.7546771E-02  0.1315724E+00
         21   -1    0    0  501  502  0.00000000000E+00  0.00000000000E+00  0.19767340749E+01  0.19767340749E+01  0.00000000000E+00 0. -1.
          2   -1    0    0  502    0 -0.00000000000E+00 -0.00000000000E+00 -0.17520141733E+04  0.17520141733E+04  0.00000000000E+00 0. -1.
         24    2    1    2    0    0  0.17773070777E+01  0.27486992171E+02 -0.15087833067E+04  0.15111694709E+04  0.80295763251E+02 0.  0.
        -11    1    3    3    0    0  0.21587972386E+02 -0.19545770391E+02 -0.33018816749E+03  0.33146991363E+03  0.00000000000E+00 0.  1.
         12    1    3    3    0    0 -0.19810665308E+02  0.47032762562E+02 -0.11785951392E+04  0.11796995572E+04  0.00000000000E+00 0. -1.
          1    1    1    2  501    0 -0.17773070777E+01 -0.27486992171E+02 -0.24125413253E+03  0.24282143649E+03  0.00000000000E+00 0. -1.
<mgrwt>
<rscale>  1 0.84888769E+02</rscale>
<asrwt>0</asrwt>
<pdfrwt beam="1">  1       21 0.30411283E-03 0.84888769E+02</pdfrwt>
<pdfrwt beam="2">  1        2 0.26954074E+00 0.84888769E+02</pdfrwt>
<totfact> 0.29576846E+06</totfact>
</mgrwt>
</event>
<event>
 6    2  0.7993170E+000  0.8520054E+02  0.7546771E-02  0.1314909E+00
         -1   -1    0    0    0  501 -0.00000000000E+00  0.00000000000E+00  0.12083749177E+03  0.12083749177E+03  0.00000000000E+00 0.  1.
         21   -1    0    0  501  502  0.00000000000E+00 -0.00000000000E+00 -0.25965771792E+02  0.25965771792E+02  0.00000000000E+00 0. -1.
         24    2    1    2    0    0  0.53489572403E+00  0.26790326060E+02  0.73680010204E+02  0.11264047317E+03  0.80877219349E+02 0.  0.
        -13    1    3    3    0    0 -0.16911178841E+02 -0.11017329958E+02  0.67614016681E+02  0.70562205046E+02  0.00000000000E+00 0.  1.
         14    1    3    3    0    0  0.17446074565E+02  0.37807656018E+02  0.60659935224E+01  0.42078268129E+02  0.00000000000E+00 0. -1.
         -2    1    1    2    0  502 -0.53489572403E+00 -0.26790326060E+02  0.21191709776E+02  0.34162790387E+02  0.00000000000E+00 0.  1.
<mgrwt>
<rscale>  1 0.85200542E+02</rscale>
<asrwt>0</asrwt>
<pdfrwt beam="1">  1       21 0.39947342E-02 0.85200542E+02</pdfrwt>
<pdfrwt beam="2">  1       -1 0.18590383E-01 0.85200542E+02</pdfrwt>
<totfact> 0.74288042E+05</totfact>
</mgrwt>
</event>
<event>
 6    2  0.7993170E+000  0.9343563E+02  0.7546771E-02  0.1294739E+00
          2   -1    0    0  502    0 -0.00000000000E+00  0.00000000000E+00  0.12523421286E+04  0.12523421286E+04  0.00000000000E+00 0. -1.
         21   -1    0    0  501  502  0.00000000000E+00 -0.00000000000E+00 -0.38882571948E+01  0.38882571948E+01  0.00000000000E+00 0.  1.
         24    2    1    2    0    0 -0.31285315868E+02 -0.24081201447E+02  0.10307035535E+04  0.10349299651E+04  0.84684958589E+02 0.  0.
        -13    1    3    3    0    0 -0.39272594764E+02 -0.45332023154E+02  0.47625519444E+03  0.48001701975E+03  0.00000000000E+00 0.  1.
         14    1    3    3    0    0  0.79872788953E+01  0.21250821707E+02  0.55444835904E+03  0.55491294532E+03  0.00000000000E+00 0. -1.
          1    1    1    2  501    0  0.31285315868E+02  0.24081201447E+02  0.21775031792E+03  0.22130042071E+03  0.00000000000E+00 0. -1.
<mgrwt>
<rscale>  1 0.93435633E+02</rscale>
<asrwt>0</asrwt>
<pdfrwt beam="1">  1       21 0.59819441E-03 0.93435633E+02</pdfrwt>
<pdfrwt beam="2">  1        2 0.19266770E+00 0.93435633E+02</pdfrwt>
<totfact> 0.19161385E+06</totfact>
</mgrwt>
</event>
<event>
 6    2  0.7993170E+000  0.1030913E+03  0.7546771E-02  0.1273927E+00
         21   -1    0    0  501  502  0.00000000000E+00  0.00000000000E+00  0.17985919733E+02  0.17985919733E+02  0.00000000000E+00 0. -1.
         -1   -1    0    0    0  501 -0.00000000000E+00 -0.00000000000E+00 -0.40995999082E+03  0.40995999082E+03  0.00000000000E+00 0.  1.
         24    2    1    2    0    0 -0.36788941519E+02 -0.33305943298E+02 -0.15722906444E+03  0.18801273189E+03  0.90360923916E+02 0.  0.
        -11    1    3    3    0    0 -0.50018458003E+02 -0.17656697486E+02 -0.15883503218E+03  0.16745797250E+03  0.00000000000E+00 0.  1.
         12    1    3    3    0    0  0.13229516484E+02 -0.15649245813E+02  0.16059677450E+01  0.20554759383E+02  0.00000000000E+00 0. -1.
         -2    1    1    2    0  502  0.36788941519E+02  0.33305943298E+02 -0.23474500665E+03  0.23993317866E+03  0.00000000000E+00 0.  1.
<mgrwt>
<rscale>  1 0.10309126E+03</rscale>
<asrwt>0</asrwt>
<pdfrwt beam="1">  1       21 0.27670647E-02 0.10309126E+03</pdfrwt>
<pdfrwt beam="2">  1       -1 0.63070766E-01 0.10309126E+03</pdfrwt>
<totfact> 0.17081825E+05</totfact>
</mgrwt>
</event>
<event>
 6    2  0.7993170E+000  0.8291427E+02  0.7546771E-02  0.1320979E+00
         -1   -1    0    0    0  501 -0.00000000000E+00  0.00000000000E+00  0.11095330368E+03  0.11095330368E+03  0.00000000000E+00 0.  1.
         21   -1    0    0  501  502  0.00000000000E+00 -0.00000000000E+00 -0.39134279905E+02  0.39134279905E+02  0.00000000000E+00 0. -1.
         24    2    1    2    0    0 -0.16913166567E+02 -0.32846182760E+02  0.76541249619E+02  0.11284209604E+03  0.74228355909E+02 0.  0.
        -11    1    3    3    0    0 -0.67023292601E+01  0.23798097535E+02  0.16841166445E+02  0.29914804880E+02  0.00000000000E+00 0.  1.
         12    1    3    3    0    0 -0.10210837306E+02 -0.56644280295E+02  0.59700083174E+02  0.82927291163E+02  0.00000000000E+00 0. -1.
         -2    1    1    2    0  502  0.16913166567E+02  0.32846182760E+02 -0.47222258450E+01  0.37245487541E+02  0.00000000000E+00 0.  1.
<mgrwt>
<rscale>  1 0.82914267E+02</rscale>
<asrwt>0</asrwt>
<pdfrwt beam="1">  1       21 0.60206585E-02 0.82914267E+02</pdfrwt>
<pdfrwt beam="2">  1       -1 0.17069739E-01 0.82914267E+02</pdfrwt>
<totfact> 0.42856019E+05</totfact>
</mgrwt>
</event>
<event>
 6    2  0.7993170E+000  0.9574477E+02  0.7546771E-02  0.1289507E+00
         21   -1    0    0  501  502  0.00000000000E+00  0.00000000000E+00  0.10828933198E+03  0.10828933198E+03  0.00000000000E+00 0. -1.
         -1   -1    0    0    0  501 -0.00000000000E+00 -0.00000000000E+00 -0.63235701485E+02  0.63235701485E+02  0.00000000000E+00 0.  1.
         24    2    1    2    0    0 -0.19689441733E+02  0.46966053781E+02  0.66179610370E+02  0.11639073062E+03  0.81077598774E+02 0.  0.
        -11    1    3    3    0    0 -0.48889495563E+00  0.71421838092E+01 -0.19064255094E+02  0.20364076953E+02  0.00000000000E+00 0.  1.
         12    1    3    3    0    0 -0.19200546777E+02  0.39823869972E+02  0.85243865464E+02  0.96026653671E+02  0.00000000000E+00 0. -1.
         -2    1    1    2    0  502  0.19689441733E+02 -0.46966053781E+02 -0.21125979878E+02  0.55134302837E+02  0.00000000000E+00 0.  1.
<mgrwt>
<rscale>  1 0.95744772E+02</rscale>
<asrwt>0</asrwt>
<pdfrwt beam="1">  1       21 0.16659897E-01 0.95744772E+02</pdfrwt>
<pdfrwt beam="2">  1       -1 0.97285695E-02 0.95744772E+02</pdfrwt>
<totfact> 0.17597825E+05</totfact>
</mgrwt>
</event>
<event>
 6    2  0.7993170E+000  0.8869505E+02  0.7546771E-02  0.1306043E+00
          2   -1    0    0  502    0 -0.00000000000E+00  0.00000000000E+00  0.57426964538E+03  0.57426964538E+03  0.00000000000E+00 0. -1.
         21   -1    0    0  501  502  0.00000000000E+00 -0.00000000000E+00 -0.27541137927E+02  0.27541137927E+02  0.00000000000E+00 0. -1.
         24    2    1    2    0    0  0.79476774361E+01 -0.21686359121E+02  0.56527385376E+03  0.57218995249E+03  0.85634970910E+02 0.  0.
        -11    1    3    3    0    0 -0.38904414135E+02 -0.10151129947E+02  0.27788074418E+03  0.28077447687E+03  0.00000000000E+00 0.  1.
         12    1    3    3    0    0  0.46852091571E+02 -0.11535229174E+02  0.28739310958E+03  0.29141547562E+03  0.00000000000E+00 0. -1.
          1    1    1    2  501    0 -0.79476774361E+01  0.21686359121E+02 -0.18545346305E+02  0.29620830814E+02  0.00000000000E+00 0. -1.
<mgrwt>
<rscale>  1 0.88695051E+02</rscale>
<asrwt>0</asrwt>
<pdfrwt beam="1">  1       21 0.42370986E-02 0.88695051E+02</pdfrwt>
<pdfrwt beam="2">  1        2 0.88349168E-01 0.88695051E+02</pdfrwt>
<totfact> 0.22954063E+05</totfact>
</mgrwt>
</event>
<event>
 6    2  0.7993170E+000  0.1618861E+03  0.7546771E-02  0.1186584E+00
         21   -1    0    0  501  502  0.00000000000E+00  0.00000000000E+00  0.10131124613E+03  0.10131124613E+03  0.00000000000E+00 0. -1.
          2   -1    0    0  502    0 -0.00000000000E+00 -0.00000000000E+00 -0.26013743058E+03  0.26013743058E+03  0.00000000000E+00 0. -1.
         24    2    1    2    0    0 -0.57703793672E+01 -0.14091807460E+03 -0.14908585423E+03  0.22007656115E+03  0.79472635596E+02 0.  0.
        -11    1    3    3    0    0  0.20955971283E+02 -0.99181430426E+01 -0.53920062781E+01  0.23803277622E+02  0.00000000000E+00 0.  1.
         12    1    3    3    0    0 -0.26726350651E+02 -0.13099993156E+03 -0.14369384795E+03  0.19627328353E+03  0.00000000000E+00 0. -1.
          1    1    1    2  501    0  0.57703793672E+01  0.14091807460E+03 -0.97403302155E+01  0.14137211557E+03  0.00000000000E+00 0. -1.
<mgrwt>
<rscale>  1 0.16188607E+03</rscale>
<asrwt>0</asrwt>
<pdfrwt beam="1">  1       21 0.15586345E-01 0.16188607E+03</pdfrwt>
<pdfrwt beam="2">  1        2 0.40021144E-01 0.16188607E+03</pdfrwt>
<totfact> 0.57742473E+04</totfact>
</mgrwt>
</event>
<event>
 6    2  0.7993170E+000  0.9040257E+02  0.7546771E-02  0.1301880E+00
          2   -1    0    0  502    0 -0.00000000000E+00  0.00000000000E+00  0.13033475553E+03  0.13033475553E+03  0.00000000000E+00 0. -1.
         21   -1    0    0  501  502  0.00000000000E+00 -0.00000000000E+00 -0.31742171853E+02  0.31742171853E+02  0.00000000000E+00 0.  1.
         24    2    1    2    0    0 -0.30134884166E+02 -0.90164777102E+01  0.93775418686E+02  0.13025534363E+03  0.84753862916E+02 0.  0.
        -13    1    3    3    0    0  0.74375678912E+01  0.18477089249E+02 -0.54502378750E+01  0.20650068672E+02  0.00000000000E+00 0.  1.
         14    1    3    3    0    0 -0.37572452057E+02 -0.27493566959E+02  0.99225656561E+02  0.10960527495E+03  0.00000000000E+00 0. -1.
          1    1    1    2  501    0  0.30134884166E+02  0.90164777102E+01  0.48171649863E+01  0.31821583752E+02  0.00000000000E+00 0. -1.
<mgrwt>
<rscale>  1 0.90402574E+02</rscale>
<asrwt>0</asrwt>
<pdfrwt beam="1">  1       21 0.48834111E-02 0.90402574E+02</pdfrwt>
<pdfrwt beam="2">  1        2 0.20051501E-01 0.90402574E+02</pdfrwt>
<totfact> 0.88545574E+05</totfact>
</mgrwt>
</event>
<event>
 6    2  0.7993170E+000  0.9921677E+02  0.7546771E-02  0.1281952E+00
          2   -1    0    0  502    0 -0.00000000000E+00  0.00000000000E+00  0.74600157637E+03  0.74600157637E+03  0.00000000000E+00 0. -1.
         21   -1    0    0  501  502  0.00000000000E+00 -0.00000000000E+00 -0.21579604874E+02  0.21579604874E+02  0.00000000000E+00 0. -1.
         24    2    1    2    0    0  0.26774216238E+02  0.49181098187E+02  0.69913425994E+03  0.70613927836E+03  0.81904382993E+02 0.  0.
        -11    1    3    3    0    0 -0.11938870660E+02  0.41814865011E+02  0.16771603443E+03  0.17326190514E+03  0.00000000000E+00 0.  1.
         12    1    3    3    0    0  0.38713086898E+02  0.73662331762E+01  0.53141822551E+03  0.53287737322E+03  0.00000000000E+00 0. -1.
          1    1    1    2  501    0 -0.26774216238E+02 -0.49181098187E+02  0.25287711560E+02  0.61441902883E+02  0.00000000000E+00 0. -1.
<mgrwt>
<rscale>  1 0.99216768E+02</rscale>
<asrwt>0</asrwt>
<pdfrwt beam="1">  1       21 0.33199398E-02 0.99216768E+02</pdfrwt>
<pdfrwt beam="2">  1        2 0.11476945E+00 0.99216768E+02</pdfrwt>
<totfact> 0.25531158E+05</totfact>
</mgrwt>
</event>
<event>
 6    2  0.7993170E+000  0.8394108E+02  0.7546771E-02  0.1318225E+00
         21   -1    0    0  501  502  0.00000000000E+00  0.00000000000E+00  0.91760019068E+01  0.91760019068E+01  0.00000000000E+00 0.  1.
          2   -1    0    0  502    0 -0.00000000000E+00 -0.00000000000E+00 -0.35897399832E+03  0.35897399832E+03  0.00000000000E+00 0. -1.
         24    2    1    2    0    0  0.13887542132E+02  0.22800245765E+02 -0.21646605914E+03  0.23217161764E+03  0.79582600142E+02 0.  0.
        -11    1    3    3    0    0  0.40736849066E+02  0.23755710573E+02 -0.78191351915E+02  0.91311073649E+02  0.00000000000E+00 0.  1.
         12    1    3    3    0    0 -0.26849306934E+02 -0.95546480743E+00 -0.13827470722E+03  0.14086054399E+03  0.00000000000E+00 0. -1.
          1    1    1    2  501    0 -0.13887542132E+02 -0.22800245765E+02 -0.13333193728E+03  0.13597838259E+03  0.00000000000E+00 0. -1.
<mgrwt>
<rscale>  1 0.83941082E+02</rscale>
<asrwt>0</asrwt>
<pdfrwt beam="1">  1       21 0.14116929E-02 0.83941082E+02</pdfrwt>
<pdfrwt beam="2">  1        2 0.55226758E-01 0.83941082E+02</pdfrwt>
<totfact> 0.22166594E+06</totfact>
</mgrwt>
</event>
<event>
 6    2  0.7993170E+000  0.8447159E+02  0.7546771E-02  0.1316820E+00
         -3   -1    0    0    0  501 -0.00000000000E+00  0.00000000000E+00  0.75081611023E+02  0.75081611023E+02  0.00000000000E+00 0.  1.
         21   -1    0    0  501  502  0.00000000000E+00 -0.00000000000E+00 -0.42554876916E+02  0.42554876916E+02  0.00000000000E+00 0.  1.
         24    2    1    2    0    0 -0.16052701369E+02  0.13573974504E+02  0.42279853286E+02  0.94461817742E+02  0.81813855869E+02 0.  0.
        -11    1    3    3    0    0 -0.21152092267E+02 -0.28024550632E+02  0.38920506402E+02  0.52417480519E+02  0.00000000000E+00 0.  1.
         12    1    3    3    0    0  0.50993908984E+01  0.41598525136E+02  0.33593468843E+01  0.42044337222E+02  0.00000000000E+00 0. -1.
         -4    1    1    2    0  502  0.16052701369E+02 -0.13573974504E+02 -0.97531191794E+01  0.23174670198E+02  0.00000000000E+00 0.  1.
<mgrwt>
<rscale>  1 0.84471587E+02</rscale>
<asrwt>0</asrwt>
<pdfrwt beam="1">  1       21 0.65469042E-02 0.84471587E+02</pdfrwt>
<pdfrwt beam="2">  1       -3 0.11551017E-01 0.84471587E+02</pdfrwt>
<totfact> 0.42790911E+05</totfact>
</mgrwt>
</event>
<event>
 6    2  0.7993170E+000  0.8781011E+02  0.7546771E-02  0.1308243E+00
         21   -1    0    0  501  502  0.00000000000E+00  0.00000000000E+00  0.47004830677E+01  0.47004830677E+01  0.00000000000E+00 0.  1.
          2   -1    0    0  502    0 -0.00000000000E+00 -0.00000000000E+00 -0.80692473782E+03  0.80692473782E+03  0.00000000000E+00 0. -1.
         24    2    1    2    0    0  0.72919012678E+01 -0.32926824862E+02 -0.51561774429E+03  0.52304136920E+03  0.81075693281E+02 0.  0.
        -13    1    3    3    0    0  0.28882656297E+02  0.12695769451E+02 -0.11473816051E+03  0.11899678934E+03  0.00000000000E+00 0.  1.
         14    1    3    3    0    0 -0.21590755029E+02 -0.45622594313E+02 -0.40087958378E+03  0.40404457985E+03  0.00000000000E+00 0. -1.
          1    1    1    2  501    0 -0.72919012678E+01  0.32926824862E+02 -0.28660651046E+03  0.28858385169E+03  0.00000000000E+00 0. -1.
<mgrwt>
<rscale>  1 0.87810111E+02</rscale>
<asrwt>0</asrwt>
<pdfrwt beam="1">  1       21 0.72315214E-03 0.87810111E+02</pdfrwt>
<pdfrwt beam="2">  1        2 0.12414211E+00 0.87810111E+02</pdfrwt>
<totfact> 0.25877122E+06</totfact>
</mgrwt>
</event>
<event>
 6    2  0.7993170E+000  0.8648000E+02  0.7546771E-02  0.1311607E+00
         21   -1    0    0  501  502  0.00000000000E+00  0.00000000000E+00  0.26190523639E+02  0.26190523639E+02  0.00000000000E+00 0. -1.
          2   -1    0    0  502    0 -0.00000000000E+00 -0.00000000000E+00 -0.53237219456E+03  0.53237219456E+03  0.00000000000E+00 0. -1.
         24    2    1    2    0    0 -0.24621632985E+02  0.24551187461E+02 -0.51538877310E+03  0.52259389355E+03  0.79182097177E+02 0.  0.
        -13    1    3    3    0    0 -0.57184436765E+00  0.44067819238E+02 -0.16320406421E+03  0.16904989285E+03  0.00000000000E+00 0.  1.
         14    1    3    3    0    0 -0.24049788617E+02 -0.19516631777E+02 -0.35218470889E+03  0.35354400069E+03  0.00000000000E+00 0. -1.
          1    1    1    2  501    0  0.24621632985E+02 -0.24551187461E+02  0.92071021805E+01  0.35968824656E+02  0.00000000000E+00 0. -1.
<mgrwt>
<rscale>  1 0.86479998E+02</rscale>
<asrwt>0</asrwt>
<pdfrwt beam="1">  1       21 0.40293111E-02 0.86479998E+02</pdfrwt>
<pdfrwt beam="2">  1        2 0.81903420E-01 0.86479998E+02</pdfrwt>
<totfact> 0.27057306E+05</totfact>
</mgrwt>
</event>
<event>
 6    2  0.7993170E+000  0.8824862E+02  0.7546771E-02  0.1307149E+00
          2   -1    0    0  502    0 -0.00000000000E+00  0.00000000000E+00  0.18394299984E+03  0.18394299984E+03  0.00000000000E+00 0. -1.
         21   -1    0    0  501  502  0.00000000000E+00 -0.00000000000E+00 -0.26523780444E+02  0.26523780444E+02  0.00000000000E+00 0.  1.
         24    2    1    2    0    0  0.30123454183E+02 -0.19994676572E+02  0.60425514802E+02  0.10695355256E+03  0.80502235888E+02 0.  0.
        -13    1    3    3    0    0  0.17892690963E+00 -0.14276879596E+02 -0.17904355082E+02  0.22900376345E+02  0.00000000000E+00 0.  1.
         14    1    3    3    0    0  0.29944527273E+02 -0.57177969757E+01  0.78329869883E+02  0.84053176215E+02  0.00000000000E+00 0. -1.
          1    1    1    2  501    0 -0.30123454183E+02  0.19994676572E+02  0.96993704592E+02  0.10351322772E+03  0.00000000000E+00 0. -1.
<mgrwt>
<rscale>  1 0.88248624E+02</rscale>
<asrwt>0</asrwt>
<pdfrwt beam="1">  1       21 0.40805817E-02 0.88248624E+02</pdfrwt>
<pdfrwt beam="2">  1        2 0.28298922E-01 0.88248624E+02</pdfrwt>
<totfact> 0.81533470E+05</totfact>
</mgrwt>
</event>
<event>
 6    2  0.7993170E+000  0.8761887E+02  0.7546771E-02  0.1308723E+00
         21   -1    0    0  501  502  0.00000000000E+00  0.00000000000E+00  0.30611518957E+01  0.30611518957E+01  0.00000000000E+00 0. -1.
          2   -1    0    0  502    0 -0.00000000000E+00 -0.00000000000E+00 -0.11630291940E+04  0.11630291940E+04  0.00000000000E+00 0. -1.
         24    2    1    2    0    0 -0.30709223576E+01  0.27704375377E+02 -0.98804127277E+03  0.99191865763E+03  0.83066862707E+02 0.  0.
        -13    1    3    3    0    0 -0.10450675966E+02 -0.17716086021E+02 -0.76509578053E+02  0.79226206939E+02  0.00000000000E+00 0.  1.
         14    1    3    3    0    0  0.73797536083E+01  0.45420461398E+02 -0.91153169472E+03  0.91269245069E+03  0.00000000000E+00 0. -1.
          1    1    1    2  501    0  0.30709223576E+01 -0.27704375377E+02 -0.17192676930E+03  0.17417168823E+03  0.00000000000E+00 0. -1.
<mgrwt>
<rscale>  1 0.87618872E+02</rscale>
<asrwt>0</asrwt>
<pdfrwt beam="1">  1       21 0.47094662E-03 0.87618872E+02</pdfrwt>
<pdfrwt beam="2">  1        2 0.17892750E+00 0.87618872E+02</pdfrwt>
<totfact> 0.30737291E+06</totfact>
</mgrwt>
</event>
<event>
 6    2  0.7993170E+000  0.8260577E+02  0.7546771E-02  0.1321815E+00
          2   -1    0    0  502    0 -0.00000000000E+00  0.00000000000E+00  0.70652275659E+02  0.70652275659E+02  0.00000000000E+00 0. -1.
         21   -1    0    0  501  502  0.00000000000E+00 -0.00000000000E+00 -0.68466601838E+02  0.68466601838E+02  0.00000000000E+00 0. -1.
         24    2    1    2    0    0 -0.21180857278E+02  0.24675163284E+01  0.42957188853E+02  0.93107642023E+02  0.79805987100E+02 0.  0.
        -13    1    3    3    0    0  0.17627119952E+02  0.69204217604E+01 -0.14345543683E+02  0.23757150896E+02  0.00000000000E+00 0.  1.
         14    1    3    3    0    0 -0.38807977229E+02 -0.44529054320E+01  0.57302732536E+02  0.69350491127E+02  0.00000000000E+00 0. -1.
          1    1    1    2  501    0  0.21180857278E+02 -0.24675163284E+01 -0.40771515032E+02  0.46011235474E+02  0.00000000000E+00 0. -1.
<mgrwt>
<rscale>  1 0.82605768E+02</rscale>
<asrwt>0</asrwt>
<pdfrwt beam="1">  1       21 0.10533323E-01 0.82605768E+02</pdfrwt>
<pdfrwt beam="2">  1        2 0.10869581E-01 0.82605768E+02</pdfrwt>
<totfact> 0.48361544E+05</totfact>
</mgrwt>
</event>
<event>
 6    2  0.7993170E+000  0.8122220E+02  0.7546771E-02  0.1325618E+00
         -1   -1    0    0    0  501 -0.00000000000E+00  0.00000000000E+00  0.18477363143E+04  0.18477363143E+04  0.00000000000E+00 0.  1.
         21   -1    0    0  501  502  0.00000000000E+00 -0.00000000000E+00 -0.25987232628E+01  0.25987232628E+01  0.00000000000E+00 0.  1.
         24    2    1    2    0    0 -0.14499796323E+02 -0.15914012008E+02  0.17774784090E+04  0.17793331729E+04  0.78316957631E+02 0.  0.
        -11    1    3    3    0    0  0.24670697309E+02  0.58173997691E+01  0.11404975434E+04  0.11407791776E+04  0.00000000000E+00 0.  1.
         12    1    3    3    0    0 -0.39170493632E+02 -0.21731411777E+02  0.63698086556E+03  0.63855399530E+03  0.00000000000E+00 0. -1.
         -2    1    1    2    0  502  0.14499796323E+02  0.15914012008E+02  0.67659182052E+02  0.71001864677E+02  0.00000000000E+00 0.  1.
<mgrwt>
<rscale>  1 0.81222200E+02</rscale>
<asrwt>0</asrwt>
<pdfrwt beam="1">  1       21 0.39980505E-03 0.81222200E+02</pdfrwt>
<pdfrwt beam="2">  1       -1 0.28426608E+00 0.81222200E+02</pdfrwt>
<totfact> 0.71589909E+04</totfact>
</mgrwt>
</event>
<event>
 6    2  0.7993170E+000  0.8652808E+02  0.7546771E-02  0.1311484E+00
         21   -1    0    0  501  502  0.00000000000E+00  0.00000000000E+00  0.23236865223E+03  0.23236865223E+03  0.00000000000E+00 0. -1.
          2   -1    0    0  502    0 -0.00000000000E+00 -0.00000000000E+00 -0.94312455624E+02  0.94312455624E+02  0.00000000000E+00 0. -1.
         24    2    1    2    0    0 -0.56128958788E+01 -0.32687342520E+02 -0.72893832333E+02  0.11313981988E+03  0.79919591395E+02 0.  0.
        -13    1    3    3    0    0  0.31021541955E+02 -0.24831916014E+02 -0.11762986158E+02  0.41440655901E+02  0.00000000000E+00 0.  1.
         14    1    3    3    0    0 -0.36634437833E+02 -0.78554265059E+01 -0.61130846175E+02  0.71699163977E+02  0.00000000000E+00 0. -1.
          1    1    1    2  501    0  0.56128958788E+01  0.32687342520E+02  0.21095002894E+03  0.21354128798E+03  0.00000000000E+00 0. -1.
<mgrwt>
<rscale>  1 0.86528077E+02</rscale>
<asrwt>0</asrwt>
<pdfrwt beam="1">  1       21 0.35749023E-01 0.86528077E+02</pdfrwt>
<pdfrwt beam="2">  1        2 0.14509609E-01 0.86528077E+02</pdfrwt>
<totfact> 0.36953041E+04</totfact>
</mgrwt>
</event>
<event>
 6    2  0.7993170E+000  0.9660818E+02  0.7546771E-02  0.1287595E+00
          2   -1    0    0  502    0 -0.00000000000E+00  0.00000000000E+00  0.30059902811E+04  0.30059902811E+04  0.00000000000E+00 0. -1.
         21   -1    0    0  501  502  0.00000000000E+00 -0.00000000000E+00 -0.16939098915E+01  0.16939098915E+01  0.00000000000E+00 0. -1.
         24    2    1    2    0    0  0.21683792871E+02 -0.17404872771E+02  0.27789722662E+04  0.27806510023E+04  0.92520396753E+02 0.  0.
        -11    1    3    3    0    0  0.24020960760E+02  0.35930264685E+02  0.12353082393E+04  0.12360640908E+04  0.00000000000E+00 0.  1.
         12    1    3    3    0    0 -0.23371678889E+01 -0.53335137456E+02  0.15436640269E+04  0.15445869115E+04  0.00000000000E+00 0. -1.
          1    1    1    2  501    0 -0.21683792871E+02  0.17404872771E+02  0.22532410504E+03  0.22703318872E+03  0.00000000000E+00 0. -1.
<mgrwt>
<rscale>  1 0.96608179E+02</rscale>
<asrwt>0</asrwt>
<pdfrwt beam="1">  1       21 0.26060393E-03 0.96608179E+02</pdfrwt>
<pdfrwt beam="2">  1        2 0.46245577E+00 0.96608179E+02</pdfrwt>
<totfact> 0.82933371E+05</totfact>
</mgrwt>
</event>
<event>
 6    2  0.7993170E+000  0.8968589E+02  0.7546771E-02  0.1303614E+00
         21   -1    0    0  501  502  0.00000000000E+00  0.00000000000E+00  0.13192181477E+04  0.13192181477E+04  0.00000000000E+00 0. -1.
         -1   -1    0    0    0  501 -0.00000000000E+00 -0.00000000000E+00 -0.23927263179E+01  0.23927263179E+01  0.00000000000E+00 0.  1.
         24    2    1    2    0    0  0.98477215315E+01  0.18492349293E+02  0.96361631907E+03  0.96778095081E+03  0.87204436639E+02 0.  0.
        -11    1    3    3    0    0 -0.37054831591E+02 -0.37009055200E+01  0.35040922515E+03  0.35238243758E+03  0.00000000000E+00 0.  1.
         12    1    3    3    0    0  0.46902553123E+02  0.22193254813E+02  0.61320709392E+03  0.61539851323E+03  0.00000000000E+00 0. -1.
         -2    1    1    2    0  502 -0.98477215315E+01 -0.18492349293E+02  0.35320910228E+03  0.35382992318E+03  0.00000000000E+00 0.  1.
<mgrwt>
<rscale>  1 0.89685887E+02</rscale>
<asrwt>0</asrwt>
<pdfrwt beam="1">  1       21 0.20295606E+00 0.89685887E+02</pdfrwt>
<pdfrwt beam="2">  1       -1 0.36811280E-03 0.89685887E+02</pdfrwt>
<totfact> 0.86945218E+04</totfact>
</mgrwt>
</event>
<event>
 6    2  0.7993170E+000  0.8308068E+02  0.7546771E-02  0.1320529E+00
         -1   -1    0    0    0  501 -0.00000000000E+00  0.00000000000E+00  0.12398630636E+03  0.12398630636E+03  0.00000000000E+00 0.  1.
         21   -1    0    0  501  502  0.00000000000E+00 -0.00000000000E+00 -0.24237262150E+02  0.24237262150E+02  0.00000000000E+00 0.  1.
         24    2    1    2    0    0  0.23058029204E+02 -0.17113947001E+01  0.91705717618E+02  0.12374303164E+03  0.79798481527E+02 0.  0.
        -13    1    3    3    0    0  0.20878747272E+02  0.36531075033E+02  0.32239312808E+02  0.53007686433E+02  0.00000000000E+00 0.  1.
         14    1    3    3    0    0  0.21792819324E+01 -0.38242469733E+02  0.59466404810E+02  0.70735345211E+02  0.00000000000E+00 0. -1.
         -2    1    1    2    0  502 -0.23058029204E+02  0.17113947001E+01  0.80433265911E+01  0.24480536866E+02  0.00000000000E+00 0.  1.
<mgrwt>
<rscale>  1 0.83080679E+02</rscale>
<asrwt>0</asrwt>
<pdfrwt beam="1">  1       21 0.37288096E-02 0.83080679E+02</pdfrwt>
<pdfrwt beam="2">  1       -1 0.19074816E-01 0.83080679E+02</pdfrwt>
<totfact> 0.79623476E+05</totfact>
</mgrwt>
</event>
<event>
 6    2  0.7993170E+000  0.9115981E+02  0.7546771E-02  0.1300067E+00
         21   -1    0    0  501  502  0.00000000000E+00  0.00000000000E+00  0.20644883274E+02  0.20644883274E+02  0.00000000000E+00 0.  1.
          2   -1    0    0  502    0 -0.00000000000E+00 -0.00000000000E+00 -0.23106619566E+03  0.23106619566E+03  0.00000000000E+00 0. -1.
         24    2    1    2    0    0 -0.38865603825E+02 -0.25452636874E+02 -0.12883558621E+03  0.15782496388E+03  0.78433022795E+02 0.  0.
        -11    1    3    3    0    0 -0.30062731969E+02 -0.11022964253E+02 -0.44869126158E+01  0.32332738504E+02  0.00000000000E+00 0.  1.
         12    1    3    3    0    0 -0.88028718563E+01 -0.14429672621E+02 -0.12434867359E+03  0.12549222538E+03  0.00000000000E+00 0. -1.
          1    1    1    2  501    0  0.38865603825E+02  0.25452636874E+02 -0.81585726175E+02  0.93886115055E+02  0.00000000000E+00 0. -1.
<mgrwt>
<rscale>  1 0.91159810E+02</rscale>
<asrwt>0</asrwt>
<pdfrwt beam="1">  1       21 0.31761361E-02 0.91159810E+02</pdfrwt>
<pdfrwt beam="2">  1        2 0.35548643E-01 0.91159810E+02</pdfrwt>
<totfact> 0.96757845E+05</totfact>
</mgrwt>
</event>
<event>
 6    2  0.7993170E+000  0.1203804E+03  0.7546771E-02  0.1242471E+00
         -1   -1    0    0    0  501 -0.00000000000E+00  0.00000000000E+00  0.40527098120E+03  0.40527098120E+03  0.00000000000E+00 0.  1.
         21   -1    0    0  501  502  0.00000000000E+00 -0.00000000000E+00 -0.38692208553E+02  0.38692208553E+02  0.00000000000E+00 0.  1.
         24    2    1    2    0    0  0.37121536786E+02 -0.85266311611E+02  0.31588850407E+03  0.33804881057E+03  0.76440165717E+02 0.  0.
        -11    1    3    3    0    0 -0.10980034582E+02 -0.61071446407E+02  0.21391665430E+03  0.22273441071E+03  0.00000000000E+00 0.  1.
         12    1    3    3    0    0  0.48101571368E+02 -0.24194865205E+02  0.10197184976E+03  0.11531439986E+03  0.00000000000E+00 0. -1.
         -2    1    1    2    0  502 -0.37121536786E+02  0.85266311611E+02  0.50690268576E+02  0.10591437918E+03  0.00000000000E+00 0.  1.
<mgrwt>
<rscale>  1 0.12038044E+03</rscale>
<asrwt>0</asrwt>
<pdfrwt beam="1">  1       21 0.59526477E-02 0.12038044E+03</pdfrwt>
<pdfrwt beam="2">  1       -1 0.62349379E-01 0.12038044E+03</pdfrwt>
<totfact> 0.49467179E+04</totfact>
</mgrwt>
</event>
<event>
 6    2  0.7993170E+000  0.8147908E+02  0.7546771E-02  0.1324906E+00
         -3   -1    0    0    0  501 -0.00000000000E+00  0.00000000000E+00  0.22144336841E+04  0.22144336841E+04  0.00000000000E+00 0.  1.
         21   -1    0    0  501  502  0.00000000000E+00 -0.00000000000E+00 -0.24984873837E+01  0.24984873837E+01  0.00000000000E+00 0.  1.
         24    2    1    2    0    0  0.45668495299E+02 -0.18353265354E+02  0.18335328374E+04  0.18353423402E+04  0.64933705054E+02 0.  0.
        -11    1    3    3    0    0  0.32186215243E+02 -0.31694180699E+02  0.16847407758E+04  0.16853462419E+04  0.00000000000E+00 0.  1.
         12    1    3    3    0    0  0.13482280056E+02  0.13340915345E+02  0.14879206159E+03  0.14999609825E+03  0.00000000000E+00 0. -1.
         -4    1    1    2    0  502 -0.45668495299E+02  0.18353265354E+02  0.37840235934E+03  0.38158983132E+03  0.00000000000E+00 0.  1.
<mgrwt>
<rscale>  1 0.81479076E+02</rscale>
<asrwt>0</asrwt>
<pdfrwt beam="1">  1       21 0.38438445E-03 0.81479076E+02</pdfrwt>
<pdfrwt beam="2">  1       -3 0.34068054E+00 0.81479076E+02</pdfrwt>
<totfact> 0.21666047E+04</totfact>
</mgrwt>
</event>
<event>
 6    2  0.7993170E+000  0.1044983E+03  0.7546771E-02  0.1271111E+00
          2   -1    0    0  502    0 -0.00000000000E+00  0.00000000000E+00  0.60717541958E+03  0.60717541958E+03  0.00000000000E+00 0. -1.
         21   -1    0    0  501  502  0.00000000000E+00 -0.00000000000E+00 -0.17537807963E+02  0.17537807963E+02  0.00000000000E+00 0.  1.
         24    2    1    2    0    0 -0.66263869115E+02 -0.23696038798E+02  0.49972992108E+03  0.51053881963E+03  0.77249528930E+02 0.  0.
        -11    1    3    3    0    0 -0.67303046411E+02  0.18990294998E+01  0.44554804712E+03  0.45060666735E+03  0.00000000000E+00 0.  1.
         12    1    3    3    0    0  0.10391772960E+01 -0.25595068298E+02  0.54181873955E+02  0.59932152271E+02  0.00000000000E+00 0. -1.
          1    1    1    2  501    0  0.66263869115E+02  0.23696038798E+02  0.89907690538E+02  0.11417440792E+03  0.00000000000E+00 0. -1.
<mgrwt>
<rscale>  1 0.10449829E+03</rscale>
<asrwt>0</asrwt>
<pdfrwt beam="1">  1       21 0.26981248E-02 0.10449829E+03</pdfrwt>
<pdfrwt beam="2">  1        2 0.93411587E-01 0.10449829E+03</pdfrwt>
<totfact> 0.45600418E+05</totfact>
</mgrwt>
</event>
<event>
 6    2  0.7993170E+000  0.9293711E+02  0.7546771E-02  0.1295891E+00
          2   -1    0    0  502    0 -0.00000000000E+00  0.00000000000E+00  0.71552955741E+03  0.71552955741E+03  0.00000000000E+00 0. -1.
         21   -1    0    0  501  502  0.00000000000E+00 -0.00000000000E+00 -0.57159745032E+01  0.57159745032E+01  0.00000000000E+00 0.  1.
         24    2    1    2    0    0  0.32783649047E+02  0.77708393551E+01  0.56269401603E+03  0.57031733525E+03  0.86614973445E+02 0.  0.
        -11    1    3    3    0    0  0.12717527127E+02  0.86757221533E+01  0.12701783655E+02  0.19958430778E+02  0.00000000000E+00 0.  1.
         12    1    3    3    0    0  0.20066121920E+02 -0.90488279816E+00  0.54999223238E+03  0.55035890448E+03  0.00000000000E+00 0. -1.
          1    1    1    2  501    0 -0.32783649047E+02 -0.77708393551E+01  0.14711956688E+03  0.15092819666E+03  0.00000000000E+00 0. -1.
<mgrwt>
<rscale>  1 0.92937114E+02</rscale>
<asrwt>0</asrwt>
<pdfrwt beam="1">  1       21 0.87938126E-03 0.92937114E+02</pdfrwt>
<pdfrwt beam="2">  1        2 0.11008140E+00 0.92937114E+02</pdfrwt>
<totfact> 0.22196650E+06</totfact>
</mgrwt>
</event>
<event>
 6    2  0.7993170E+000  0.8871492E+02  0.7546771E-02  0.1305994E+00
          2   -1    0    0  502    0 -0.00000000000E+00  0.00000000000E+00  0.97400672417E+03  0.97400672417E+03  0.00000000000E+00 0. -1.
         21   -1    0    0  501  502  0.00000000000E+00 -0.00000000000E+00 -0.74352281321E+01  0.74352281321E+01  0.00000000000E+00 0.  1.
         24    2    1    2    0    0 -0.28729072785E+02  0.48881121180E+01  0.93205920958E+03  0.93627170568E+03  0.83791905542E+02 0.  0.
        -11    1    3    3    0    0 -0.46642387178E+02  0.16635739287E+02  0.31744396730E+03  0.32128325894E+03  0.00000000000E+00 0.  1.
         12    1    3    3    0    0  0.17913314393E+02 -0.11747627169E+02  0.61461524228E+03  0.61498844674E+03  0.00000000000E+00 0. -1.
          1    1    1    2  501    0  0.28729072785E+02 -0.48881121180E+01  0.34512286456E+02  0.45170246618E+02  0.00000000000E+00 0. -1.
<mgrwt>
<rscale>  1 0.88714918E+02</rscale>
<asrwt>0</asrwt>
<pdfrwt beam="1">  1       21 0.11438820E-02 0.88714918E+02</pdfrwt>
<pdfrwt beam="2">  1        2 0.14984709E+00 0.88714918E+02</pdfrwt>
<totfact> 0.99773683E+05</totfact>
</mgrwt>
</event>
<event>
 6    2  0.7993170E+000  0.1127127E+03  0.7546771E-02  0.1255627E+00
         21   -1    0    0  501  502  0.00000000000E+00  0.00000000000E+00  0.38388707927E+03  0.38388707927E+03  0.00000000000E+00 0.  1.
         -1   -1    0    0    0  501 -0.00000000000E+00 -0.00000000000E+00 -0.23990657301E+02  0.23990657301E+02  0.00000000000E+00 0.  1.
         24    2    1    2    0    0  0.32343735179E+02 -0.71720842255E+02  0.19665219882E+03  0.22666329782E+03  0.80710388799E+02 0.  0.
        -11    1    3    3    0    0  0.59231560881E+02 -0.50070173990E+02  0.14674209665E+03  0.16597783906E+03  0.00000000000E+00 0.  1.
         12    1    3    3    0    0 -0.26887825702E+02 -0.21650668265E+02  0.49910102166E+02  0.60685458765E+02  0.00000000000E+00 0. -1.
         -2    1    1    2    0  502 -0.32343735179E+02  0.71720842255E+02  0.16324422315E+03  0.18121443875E+03  0.00000000000E+00 0.  1.
<mgrwt>
<rscale>  1 0.11271275E+03</rscale>
<asrwt>0</asrwt>
<pdfrwt beam="1">  1       21 0.59059546E-01 0.11271275E+03</pdfrwt>
<pdfrwt beam="2">  1       -1 0.36908706E-02 0.11271275E+03</pdfrwt>
<totfact> 0.64320752E+04</totfact>
</mgrwt>
</event>
<event>
 6    2  0.7993170E+000  0.8280700E+02  0.7546771E-02  0.1321269E+00
         21   -1    0    0  501  502  0.00000000000E+00  0.00000000000E+00  0.51736021119E+03  0.51736021119E+03  0.00000000000E+00 0. -1.
         -3   -1    0    0    0  501 -0.00000000000E+00 -0.00000000000E+00 -0.55019985121E+01  0.55019985121E+01  0.00000000000E+00 0.  1.
         24    2    1    2    0    0  0.21902361906E+02 -0.83444036225E+01  0.41786721029E+03  0.42599296247E+03  0.79420753661E+02 0.  0.
        -11    1    3    3    0    0 -0.10640877157E+02  0.28559638949E+01  0.57248201779E+01  0.12416052614E+02  0.00000000000E+00 0.  1.
         12    1    3    3    0    0  0.32543239063E+02 -0.11200367517E+02  0.41214239011E+03  0.41357690986E+03  0.00000000000E+00 0. -1.
         -4    1    1    2    0  502 -0.21902361906E+02  0.83444036225E+01  0.93991002389E+02  0.96869247230E+02  0.00000000000E+00 0.  1.
<mgrwt>
<rscale>  1 0.82806996E+02</rscale>
<asrwt>0</asrwt>
<pdfrwt beam="1">  1       21 0.79593840E-01 0.82806996E+02</pdfrwt>
<pdfrwt beam="2">  1       -3 0.84646172E-03 0.82806996E+02</pdfrwt>
<totfact> 0.21834442E+05</totfact>
</mgrwt>
</event>
<event>
 6    2  0.7993170E+000  0.5969320E+02  0.7546771E-02  0.1399124E+00
         21   -1    0    0  501  502  0.00000000000E+00  0.00000000000E+00  0.13805570244E+02  0.13805570244E+02  0.00000000000E+00 0.  1.
          2   -1    0    0  502    0 -0.00000000000E+00 -0.00000000000E+00 -0.50126797359E+03  0.50126797359E+03  0.00000000000E+00 0. -1.
         24    2    1    2    0    0 -0.12637930075E+02 -0.24271111099E+02 -0.48379601839E+03  0.48746473203E+03  0.53051611216E+02 0.  0.
        -11    1    3    3    0    0  0.18581537613E+02 -0.14599170986E+02 -0.12738347221E+03  0.12955677646E+03  0.00000000000E+00 0.  1.
         12    1    3    3    0    0 -0.31219467688E+02 -0.96719401123E+01 -0.35641254618E+03  0.35790795557E+03  0.00000000000E+00 0. -1.
          1    1    1    2  501    0  0.12637930075E+02  0.24271111099E+02 -0.36663849557E+01  0.27608811803E+02  0.00000000000E+00 0. -1.
<mgrwt>
<rscale>  1 0.59693195E+02</rscale>
<asrwt>0</asrwt>
<pdfrwt beam="1">  1       21 0.21239343E-02 0.59693195E+02</pdfrwt>
<pdfrwt beam="2">  1        2 0.77118135E-01 0.59693195E+02</pdfrwt>
<totfact> 0.78647024E+05</totfact>
</mgrwt>
</event>
<event>
 6    2  0.7993170E+000  0.8333571E+02  0.7546771E-02  0.1319843E+00
         21   -1    0    0  501  502  0.00000000000E+00  0.00000000000E+00  0.10851631240E+01  0.10851631240E+01  0.00000000000E+00 0.  1.
          2   -1    0    0  502    0 -0.00000000000E+00 -0.00000000000E+00 -0.27257141143E+04  0.27257141143E+04  0.00000000000E+00 0. -1.
         24    2    1    2    0    0 -0.21977828886E+02 -0.93791581580E+01 -0.19047096410E+04  0.19065318400E+04  0.79836377320E+02 0.  0.
        -13    1    3    3    0    0 -0.22284267414E+02 -0.27758448933E+02 -0.36917539875E+03  0.37088757744E+03  0.00000000000E+00 0.  1.
         14    1    3    3    0    0  0.30643852831E+00  0.18379290775E+02 -0.15355342422E+04  0.15356442626E+04  0.00000000000E+00 0. -1.
          1    1    1    2  501    0  0.21977828886E+02  0.93791581580E+01 -0.81991931025E+03  0.82026743742E+03  0.00000000000E+00 0. -1.
<mgrwt>
<rscale>  1 0.83335711E+02</rscale>
<asrwt>0</asrwt>
<pdfrwt beam="1">  1       21 0.16694835E-03 0.83335711E+02</pdfrwt>
<pdfrwt beam="2">  1        2 0.41934020E+00 0.83335711E+02</pdfrwt>
<totfact> 0.23028425E+06</totfact>
</mgrwt>
</event>
<event>
 6    2  0.7993170E+000  0.8430974E+02  0.7546771E-02  0.1317248E+00
          2   -1    0    0  502    0 -0.00000000000E+00  0.00000000000E+00  0.64119510498E+03  0.64119510498E+03  0.00000000000E+00 0. -1.
         21   -1    0    0  501  502  0.00000000000E+00 -0.00000000000E+00 -0.53107569282E+01  0.53107569282E+01  0.00000000000E+00 0.  1.
         24    2    1    2    0    0 -0.25501313734E+02 -0.68339940086E+01  0.37877785034E+03  0.38804740946E+03  0.80069417409E+02 0.  0.
        -11    1    3    3    0    0 -0.76713957672E+01 -0.14453545231E+02  0.10905267870E+02  0.19664184450E+02  0.00000000000E+00 0.  1.
         12    1    3    3    0    0 -0.17829917966E+02  0.76195512227E+01  0.36787258247E+03  0.36838322501E+03  0.00000000000E+00 0. -1.
          1    1    1    2  501    0  0.25501313734E+02  0.68339940086E+01  0.25710649771E+03  0.25845845245E+03  0.00000000000E+00 0. -1.
<mgrwt>
<rscale>  1 0.84309739E+02</rscale>
<asrwt>0</asrwt>
<pdfrwt beam="1">  1       21 0.81704003E-03 0.84309739E+02</pdfrwt>
<pdfrwt beam="2">  1        2 0.98645340E-01 0.84309739E+02</pdfrwt>
<totfact> 0.27933691E+06</totfact>
</mgrwt>
</event>
<event>
 6    2  0.7993170E+000  0.8449897E+02  0.7546771E-02  0.1316748E+00
         21   -1    0    0  501  502  0.00000000000E+00  0.00000000000E+00  0.93680802264E+02  0.93680802264E+02  0.00000000000E+00 0. -1.
         -1   -1    0    0    0  501 -0.00000000000E+00 -0.00000000000E+00 -0.32139985445E+02  0.32139985445E+02  0.00000000000E+00 0.  1.
         24    2    1    2    0    0  0.15728787427E+02  0.19386813682E+02  0.51189954553E+02  0.98795176739E+02  0.80726898870E+02 0.  0.
        -13    1    3    3    0    0  0.21284852403E+02 -0.14196276649E+02 -0.11039016546E+02  0.27864656804E+02  0.00000000000E+00 0.  1.
         14    1    3    3    0    0 -0.55560649765E+01  0.33583090331E+02  0.62228971099E+02  0.70930519935E+02  0.00000000000E+00 0. -1.
         -2    1    1    2    0  502 -0.15728787427E+02 -0.19386813682E+02  0.10350862266E+02  0.27025610970E+02  0.00000000000E+00 0.  1.
<mgrwt>
<rscale>  1 0.84498967E+02</rscale>
<asrwt>0</asrwt>
<pdfrwt beam="1">  1       21 0.14412431E-01 0.84498967E+02</pdfrwt>
<pdfrwt beam="2">  1       -1 0.49446132E-02 0.84498967E+02</pdfrwt>
<totfact> 0.61474161E+05</totfact>
</mgrwt>
</event>
<event>
 6    2  0.7993170E+000  0.8727751E+02  0.7546771E-02  0.1309582E+00
          2   -1    0    0  502    0 -0.00000000000E+00  0.00000000000E+00  0.32243859798E+03  0.32243859798E+03  0.00000000000E+00 0. -1.
         21   -1    0    0  501  502  0.00000000000E+00 -0.00000000000E+00 -0.15352865216E+02  0.15352865216E+02  0.00000000000E+00 0. -1.
         24    2    1    2    0    0  0.29274207948E+02 -0.73667244210E+00  0.29217152648E+03  0.30492878701E+03  0.82218260267E+02 0.  0.
        -13    1    3    3    0    0  0.23002394213E+00  0.29556910292E+02  0.42580158828E+02  0.51833712801E+02  0.00000000000E+00 0.  1.
         14    1    3    3    0    0  0.29044184006E+02 -0.30293582734E+02  0.24959136765E+03  0.25309507420E+03  0.00000000000E+00 0. -1.
          1    1    1    2  501    0 -0.29274207948E+02  0.73667244210E+00  0.14914206281E+02  0.32862676189E+02  0.00000000000E+00 0. -1.
<mgrwt>
<rscale>  1 0.87277513E+02</rscale>
<asrwt>0</asrwt>
<pdfrwt beam="1">  1       21 0.23619795E-02 0.87277513E+02</pdfrwt>
<pdfrwt beam="2">  1        2 0.49605933E-01 0.87277513E+02</pdfrwt>
<totfact> 0.10973489E+06</totfact>
</mgrwt>
</event>
<event>
 6    2  0.7993170E+000  0.8961124E+02  0.7546771E-02  0.1303796E+00
          2   -1    0    0  502    0 -0.00000000000E+00  0.00000000000E+00  0.18586713164E+04  0.18586713164E+04  0.00000000000E+00 0. -1.
         21   -1    0    0  501  502  0.00000000000E+00 -0.00000000000E+00 -0.22877118859E+01  0.22877118859E+01  0.00000000000E+00 0. -1.
         24    2    1    2    0    0  0.92437057805E+01  0.39612507376E+02  0.12378669656E+04  0.12411062801E+04  0.79847211025E+02 0.  0.
        -13    1    3    3    0    0  0.18874198486E+02 -0.40737822928E+01  0.77219022129E+02  0.79596535410E+02  0.00000000000E+00 0.  1.
         14    1    3    3    0    0 -0.96304927060E+01  0.43686289669E+02  0.11606479435E+04  0.11615097447E+04  0.00000000000E+00 0. -1.
          1    1    1    2  501    0 -0.92437057805E+01 -0.39612507376E+02  0.61851663886E+03  0.61985274815E+03  0.00000000000E+00 0. -1.
<mgrwt>
<rscale>  1 0.89611238E+02</rscale>
<asrwt>0</asrwt>
<pdfrwt beam="1">  1       21 0.35195716E-03 0.89611238E+02</pdfrwt>
<pdfrwt beam="2">  1        2 0.28594823E+00 0.89611238E+02</pdfrwt>
<totfact> 0.21050312E+06</totfact>
</mgrwt>
</event>
<event>
 6    2  0.7993170E+000  0.8600955E+02  0.7546771E-02  0.1312813E+00
         21   -1    0    0  501  502  0.00000000000E+00  0.00000000000E+00  0.18139528951E+02  0.18139528951E+02  0.00000000000E+00 0. -1.
          2   -1    0    0  502    0 -0.00000000000E+00 -0.00000000000E+00 -0.27843878379E+03  0.27843878379E+03  0.00000000000E+00 0. -1.
         24    2    1    2    0    0  0.26189955736E+02 -0.10690141837E+02 -0.25320542650E+03  0.26741471704E+03  0.81224688159E+02 0.  0.
        -11    1    3    3    0    0 -0.27362543911E+02  0.87575663055E+01 -0.74543866518E+02  0.79888621294E+02  0.00000000000E+00 0.  1.
         12    1    3    3    0    0  0.53552499647E+02 -0.19447708142E+02 -0.17866155998E+03  0.18752609574E+03  0.00000000000E+00 0. -1.
          1    1    1    2  501    0 -0.26189955736E+02  0.10690141837E+02 -0.70938283450E+01  0.29163595706E+02  0.00000000000E+00 0. -1.
<mgrwt>
<rscale>  1 0.86009551E+02</rscale>
<asrwt>0</asrwt>
<pdfrwt beam="1">  1       21 0.27906967E-02 0.86009551E+02</pdfrwt>
<pdfrwt beam="2">  1        2 0.42836737E-01 0.86009551E+02</pdfrwt>
<totfact> 0.97556855E+05</totfact>
</mgrwt>
</event>
<event>
 6    2  0.7993170E+000  0.1198774E+03  0.7546771E-02  0.1243299E+00
         21   -1    0    0  501  502  0.00000000000E+00  0.00000000000E+00  0.61239027532E+02  0.61239027532E+02  0.00000000000E+00 0.  1.
          2   -1    0    0  502    0 -0.00000000000E+00 -0.00000000000E+00 -0.17727173773E+03  0.17727173773E+03  0.00000000000E+00 0. -1.
         24    2    1    2    0    0  0.27266649308E+02 -0.75182312804E+02 -0.35520395626E+02  0.12502912304E+03  0.89301359343E+02 0.  0.
        -13    1    3    3    0    0 -0.34492113786E+01 -0.64289582762E+02  0.13866457182E+02  0.65858379464E+02  0.00000000000E+00 0.  1.
         14    1    3    3    0    0  0.30715860687E+02 -0.10892730042E+02 -0.49386852807E+02  0.59170743579E+02  0.00000000000E+00 0. -1.
          1    1    1    2  501    0 -0.27266649308E+02  0.75182312804E+02 -0.80512314573E+02  0.11348164222E+03  0.00000000000E+00 0. -1.
<mgrwt>
<rscale>  1 0.11987737E+03</rscale>
<asrwt>0</asrwt>
<pdfrwt beam="1">  1       21 0.94213889E-02 0.11987737E+03</pdfrwt>
<pdfrwt beam="2">  1        2 0.27272575E-01 0.11987737E+03</pdfrwt>
<totfact> 0.21131927E+05</totfact>
</mgrwt>
</event>
<event>
 6    2  0.7993170E+000  0.1156150E+03  0.7546771E-02  0.1250511E+00
         21   -1    0    0  501  502  0.00000000000E+00  0.00000000000E+00  0.28255505054E+01  0.28255505054E+01  0.00000000000E+00 0.  1.
          2   -1    0    0  502    0 -0.00000000000E+00 -0.00000000000E+00 -0.41290642603E+04  0.41290642603E+04  0.00000000000E+00 0. -1.
         24    2    1    2    0    0  0.69041139409E+02 -0.54825646830E+02 -0.29906770232E+04  0.29929109372E+04  0.74794988941E+02 0.  0.
        -13    1    3    3    0    0  0.65938305285E+02 -0.72207163603E+02 -0.24708732004E+04  0.24728073332E+04  0.00000000000E+00 0.  1.
         14    1    3    3    0    0  0.31028341242E+01  0.17381516773E+02 -0.51980382284E+03  0.52010360405E+03  0.00000000000E+00 0. -1.
          1    1    1    2  501    0 -0.69041139409E+02  0.54825646830E+02 -0.11355616865E+04  0.11389788735E+04  0.00000000000E+00 0. -1.
<mgrwt>
<rscale>  1 0.11561497E+03</rscale>
<asrwt>0</asrwt>
<pdfrwt beam="1">  1       21 0.43469758E-03 0.11561497E+03</pdfrwt>
<pdfrwt beam="2">  1        2 0.63524431E+00 0.11561497E+03</pdfrwt>
<totfact> 0.68656061E+04</totfact>
</mgrwt>
</event>
<event>
 6    2  0.7993170E+000  0.1038955E+03  0.7546771E-02  0.1272311E+00
          2   -1    0    0  502    0 -0.00000000000E+00  0.00000000000E+00  0.33188807086E+02  0.33188807086E+02  0.00000000000E+00 0. -1.
         21   -1    0    0  501  502  0.00000000000E+00 -0.00000000000E+00 -0.27689646723E+03  0.27689646723E+03  0.00000000000E+00 0. -1.
         24    2    1    2    0    0  0.37268720537E+02  0.52121553264E+02 -0.70902614464E+02  0.12578335447E+03  0.81784214123E+02 0.  0.
        -11    1    3    3    0    0 -0.25841824309E+02  0.14637947773E+02 -0.27689249131E+02  0.40604974031E+02  0.00000000000E+00 0.  1.
         12    1    3    3    0    0  0.63110544846E+02  0.37483605491E+02 -0.43213365333E+02  0.85178380443E+02  0.00000000000E+00 0. -1.
          1    1    1    2  501    0 -0.37268720537E+02 -0.52121553264E+02 -0.17280504568E+03  0.18430191984E+03  0.00000000000E+00 0. -1.
<mgrwt>
<rscale>  1 0.10389548E+03</rscale>
<asrwt>0</asrwt>
<pdfrwt beam="1">  1       21 0.42599455E-01 0.10389548E+03</pdfrwt>
<pdfrwt beam="2">  1        2 0.51059705E-02 0.10389548E+03</pdfrwt>
<totfact> 0.95036101E+04</totfact>
</mgrwt>
</event>
<event>
 6    2  0.7993170E+000  0.1189133E+03  0.7546771E-02  0.1244901E+00
         21   -1    0    0  501  502  0.00000000000E+00  0.00000000000E+00  0.18994760893E+02  0.18994760893E+02  0.00000000000E+00 0. -1.
          2   -1    0    0  502    0 -0.00000000000E+00 -0.00000000000E+00 -0.36297057429E+03  0.36297057429E+03  0.00000000000E+00 0. -1.
         24    2    1    2    0    0 -0.46820333756E+02 -0.50517170166E+01 -0.24166197200E+03  0.26933414217E+03  0.10919115317E+03 0.  0.
        -13    1    3    3    0    0  0.15081961408E+02  0.39384230796E+02 -0.98695631247E+02  0.10732851822E+03  0.00000000000E+00 0.  1.
         14    1    3    3    0    0 -0.61902295164E+02 -0.44435947813E+02 -0.14296634075E+03  0.16200562395E+03  0.00000000000E+00 0. -1.
          1    1    1    2  501    0  0.46820333756E+02  0.50517170166E+01 -0.10231384140E+03  0.11263119301E+03  0.00000000000E+00 0. -1.
<mgrwt>
<rscale>  1 0.11891329E+03</rscale>
<asrwt>0</asrwt>
<pdfrwt beam="1">  1       21 0.29222711E-02 0.11891329E+03</pdfrwt>
<pdfrwt beam="2">  1        2 0.55841623E-01 0.11891329E+03</pdfrwt>
<totfact> 0.70606039E+05</totfact>
</mgrwt>
</event>
<event>
 6    2  0.7993170E+000  0.8690739E+02  0.7546771E-02  0.1310519E+00
          4   -1    0    0  502    0 -0.00000000000E+00  0.00000000000E+00  0.44227035490E+02  0.44227035490E+02  0.00000000000E+00 0. -1.
         21   -1    0    0  501  502  0.00000000000E+00 -0.00000000000E+00 -0.93027496099E+02  0.93027496099E+02  0.00000000000E+00 0.  1.
         24    2    1    2    0    0  0.32418584456E+02 -0.40222242299E+01 -0.11489310023E+02  0.87663555958E+02  0.80534165995E+02 0.  0.
        -13    1    3    3    0    0 -0.10209177054E+01 -0.38665613427E+02 -0.69754492870E+01  0.39303038399E+02  0.00000000000E+00 0.  1.
         14    1    3    3    0    0  0.33439502162E+02  0.34643389197E+02 -0.45138607355E+01  0.48360517559E+02  0.00000000000E+00 0. -1.
          3    1    1    2  501    0 -0.32418584456E+02  0.40222242299E+01 -0.37311150587E+02  0.49590975631E+02  0.00000000000E+00 0. -1.
<mgrwt>
<rscale>  1 0.86907392E+02</rscale>
<asrwt>0</asrwt>
<pdfrwt beam="1">  1       21 0.14311922E-01 0.86907392E+02</pdfrwt>
<pdfrwt beam="2">  1        4 0.68041593E-02 0.86907392E+02</pdfrwt>
<totfact> 0.22944556E+05</totfact>
</mgrwt>
</event>
<event>
 6    2  0.7993170E+000  0.9345902E+02  0.7546771E-02  0.1294685E+00
          2   -1    0    0  502    0 -0.00000000000E+00  0.00000000000E+00  0.48288458546E+03  0.48288458546E+03  0.00000000000E+00 0. -1.
         21   -1    0    0  501  502  0.00000000000E+00 -0.00000000000E+00 -0.11526402184E+02  0.11526402184E+02  0.00000000000E+00 0.  1.
         24    2    1    2    0    0  0.28269267678E+02  0.39043943597E+02  0.22957367852E+03  0.24786823726E+03  0.80068771357E+02 0.  0.
        -11    1    3    3    0    0  0.15079982270E+02  0.42310966263E+02  0.47821463002E+02  0.65608810804E+02  0.00000000000E+00 0.  1.
         12    1    3    3    0    0  0.13189285407E+02 -0.32670226664E+01  0.18175221552E+03  0.18225942645E+03  0.00000000000E+00 0. -1.
          1    1    1    2  501    0 -0.28269267678E+02 -0.39043943597E+02  0.24178450476E+03  0.24654275039E+03  0.00000000000E+00 0. -1.
<mgrwt>
<rscale>  1 0.93459024E+02</rscale>
<asrwt>0</asrwt>
<pdfrwt beam="1">  1       21 0.17732930E-02 0.93459024E+02</pdfrwt>
<pdfrwt beam="2">  1        2 0.74289920E-01 0.93459024E+02</pdfrwt>
<totfact> 0.11421536E+06</totfact>
</mgrwt>
</event>
<event>
 6    2  0.7993170E+000  0.8494749E+02  0.7546771E-02  0.1315570E+00
          2   -1    0    0  502    0 -0.00000000000E+00  0.00000000000E+00  0.86322328343E+03  0.86322328343E+03  0.00000000000E+00 0. -1.
         21   -1    0    0  501  502  0.00000000000E+00 -0.00000000000E+00 -0.38645905362E+01  0.38645905362E+01  0.00000000000E+00 0.  1.
         24    2    1    2    0    0  0.67694235519E+01 -0.23602862818E+02  0.52492763281E+03  0.53175661360E+03  0.81321314511E+02 0.  0.
        -13    1    3    3    0    0 -0.10952293128E+02 -0.22939185762E+02  0.46450896492E+02  0.52951343261E+02  0.00000000000E+00 0.  1.
         14    1    3    3    0    0  0.17721716680E+02 -0.66367705598E+00  0.47847673631E+03  0.47880527034E+03  0.00000000000E+00 0. -1.
          1    1    1    2  501    0 -0.67694235519E+01  0.23602862818E+02  0.33443106009E+03  0.33533126037E+03  0.00000000000E+00 0. -1.
<mgrwt>
<rscale>  1 0.84947492E+02</rscale>
<asrwt>0</asrwt>
<pdfrwt beam="1">  1       21 0.59455308E-03 0.84947492E+02</pdfrwt>
<pdfrwt beam="2">  1        2 0.13280343E+00 0.84947492E+02</pdfrwt>
<totfact> 0.32073123E+06</totfact>
</mgrwt>
</event>
<event>
 6    2  0.7993170E+000  0.8561518E+02  0.7546771E-02  0.1313832E+00
         21   -1    0    0  501  502  0.00000000000E+00  0.00000000000E+00  0.31713399549E+01  0.31713399549E+01  0.00000000000E+00 0. -1.
          2   -1    0    0  502    0 -0.00000000000E+00 -0.00000000000E+00 -0.16187588844E+04  0.16187588844E+04  0.00000000000E+00 0. -1.
         24    2    1    2    0    0 -0.98593610561E+01  0.23958404179E+02 -0.15326717052E+04  0.15350610783E+04  0.81601140855E+02 0.  0.
        -11    1    3    3    0    0  0.32127775097E+02  0.19173589544E+02 -0.10064852425E+04  0.10071804028E+04  0.00000000000E+00 0.  1.
         12    1    3    3    0    0 -0.41987136153E+02  0.47848146351E+01 -0.52618646269E+03  0.52788067550E+03  0.00000000000E+00 0. -1.
          1    1    1    2  501    0  0.98593610561E+01 -0.23958404179E+02 -0.82915839241E+02  0.86869146008E+02  0.00000000000E+00 0. -1.
<mgrwt>
<rscale>  1 0.85615176E+02</rscale>
<asrwt>0</asrwt>
<pdfrwt beam="1">  1       21 0.48789923E-03 0.85615176E+02</pdfrwt>
<pdfrwt beam="2">  1        2 0.24903943E+00 0.85615176E+02</pdfrwt>
<totfact> 0.16827201E+06</totfact>
</mgrwt>
</event>
<event>
 6    2  0.7993170E+000  0.8422891E+02  0.7546771E-02  0.1317461E+00
          2   -1    0    0  502    0 -0.00000000000E+00  0.00000000000E+00  0.11057626867E+04  0.11057626867E+04  0.00000000000E+00 0. -1.
         21   -1    0    0  501  502  0.00000000000E+00 -0.00000000000E+00 -0.11801245382E+02  0.11801245382E+02  0.00000000000E+00 0. -1.
         24    2    1    2    0    0 -0.23690019990E+02 -0.31018882529E+01  0.10901148592E+04  0.10933640364E+04  0.80769245647E+02 0.  0.
        -11    1    3    3    0    0  0.22186647231E+02  0.19759139248E+02  0.26536911310E+03  0.26702703437E+03  0.00000000000E+00 0.  1.
         12    1    3    3    0    0 -0.45876667220E+02 -0.22861027501E+02  0.82474574610E+03  0.82633700201E+03  0.00000000000E+00 0. -1.
          1    1    1    2  501    0  0.23690019990E+02  0.31018882529E+01  0.38465821136E+01  0.24199895698E+02  0.00000000000E+00 0. -1.
<mgrwt>
<rscale>  1 0.84228913E+02</rscale>
<asrwt>0</asrwt>
<pdfrwt beam="1">  1       21 0.18155771E-02 0.84228913E+02</pdfrwt>
<pdfrwt beam="2">  1        2 0.17011725E+00 0.84228913E+02</pdfrwt>
<totfact> 0.40253472E+05</totfact>
</mgrwt>
</event>
<event>
 6    2  0.7993170E+000  0.8762655E+02  0.7546771E-02  0.1308703E+00
         -1   -1    0    0    0  501 -0.00000000000E+00  0.00000000000E+00  0.12379288936E+03  0.12379288936E+03  0.00000000000E+00 0.  1.
         21   -1    0    0  501  502  0.00000000000E+00 -0.00000000000E+00 -0.36649632285E+02  0.36649632285E+02  0.00000000000E+00 0.  1.
         24    2    1    2    0    0 -0.27245518198E+02 -0.17614138822E+02  0.92662098749E+02  0.12753304335E+03  0.81399241111E+02 0.  0.
        -11    1    3    3    0    0 -0.11554157569E+02  0.25339934513E+02  0.72292068940E+02  0.77470988569E+02  0.00000000000E+00 0.  1.
         12    1    3    3    0    0 -0.15691360629E+02 -0.42954073336E+02  0.20370029809E+02  0.50062054781E+02  0.00000000000E+00 0. -1.
         -2    1    1    2    0  502  0.27245518198E+02  0.17614138822E+02 -0.55188416719E+01  0.32909478296E+02  0.00000000000E+00 0.  1.
<mgrwt>
<rscale>  1 0.87626552E+02</rscale>
<asrwt>0</asrwt>
<pdfrwt beam="1">  1       21 0.56384050E-02 0.87626552E+02</pdfrwt>
<pdfrwt beam="2">  1       -1 0.19045060E-01 0.87626552E+02</pdfrwt>
<totfact> 0.40511490E+05</totfact>
</mgrwt>
</event>
<event>
 6    2  0.7993170E+000  0.8827401E+02  0.7546771E-02  0.1307086E+00
         21   -1    0    0  501  502  0.00000000000E+00  0.00000000000E+00  0.70918797063E+01  0.70918797063E+01  0.00000000000E+00 0. -1.
         -3   -1    0    0    0  501 -0.00000000000E+00 -0.00000000000E+00 -0.54818600360E+03  0.54818600360E+03  0.00000000000E+00 0.  1.
         24    2    1    2    0    0  0.15327208544E+02  0.32347332590E+02 -0.40917797159E+03  0.41859158375E+03  0.80690943146E+02 0.  0.
        -13    1    3    3    0    0 -0.20729301439E+02  0.23233432052E+02 -0.32593068803E+03  0.32741458382E+03  0.00000000000E+00 0.  1.
         14    1    3    3    0    0  0.36056509983E+02  0.91139005373E+01 -0.83247283566E+02  0.91176999930E+02  0.00000000000E+00 0. -1.
         -4    1    1    2    0  502 -0.15327208544E+02 -0.32347332590E+02 -0.13191615231E+03  0.13668629956E+03  0.00000000000E+00 0.  1.
<mgrwt>
<rscale>  1 0.88274014E+02</rscale>
<asrwt>0</asrwt>
<pdfrwt beam="1">  1       21 0.10910581E-02 0.88274014E+02</pdfrwt>
<pdfrwt beam="2">  1       -3 0.84336334E-01 0.88274014E+02</pdfrwt>
<totfact> 0.19285991E+05</totfact>
</mgrwt>
</event>
<event>
 6    2  0.7993170E+000  0.9185244E+02  0.7546771E-02  0.1298427E+00
          2   -1    0    0  502    0 -0.00000000000E+00  0.00000000000E+00  0.43456100974E+03  0.43456100974E+03  0.00000000000E+00 0. -1.
         21   -1    0    0  501  502  0.00000000000E+00 -0.00000000000E+00 -0.12728063743E+02  0.12728063743E+02  0.00000000000E+00 0.  1.
         24    2    1    2    0    0  0.42800497743E+02 -0.22040560302E+02  0.34148326541E+03  0.35362082873E+03  0.78225322292E+02 0.  0.
        -11    1    3    3    0    0  0.21438654787E+02 -0.57660749681E+01  0.16830106008E+02  0.27858858696E+02  0.00000000000E+00 0.  1.
         12    1    3    3    0    0  0.21361842956E+02 -0.16274485334E+02  0.32465315941E+03  0.32576197003E+03  0.00000000000E+00 0. -1.
          1    1    1    2  501    0 -0.42800497743E+02  0.22040560302E+02  0.80349680577E+02  0.93668244749E+02  0.00000000000E+00 0. -1.
<mgrwt>
<rscale>  1 0.91852436E+02</rscale>
<asrwt>0</asrwt>
<pdfrwt beam="1">  1       21 0.19581640E-02 0.91852436E+02</pdfrwt>
<pdfrwt beam="2">  1        2 0.66855529E-01 0.91852436E+02</pdfrwt>
<totfact> 0.10893599E+06</totfact>
</mgrwt>
</event>
<event>
 6    2  0.7993170E+000  0.9392032E+02  0.7546771E-02  0.1293626E+00
          2   -1    0    0  502    0 -0.00000000000E+00  0.00000000000E+00  0.13450046017E+04  0.13450046017E+04  0.00000000000E+00 0. -1.
         21   -1    0    0  501  502  0.00000000000E+00 -0.00000000000E+00 -0.42469660581E+01  0.42469660581E+01  0.00000000000E+00 0. -1.
         24    2    1    2    0    0  0.58678721486E+01 -0.50271217504E+02  0.10432853672E+04  0.10475043595E+04  0.79116359928E+02 0.  0.
        -11    1    3    3    0    0  0.26415660495E+01 -0.60389413179E+01  0.50025730069E+01  0.82748063497E+01  0.00000000000E+00 0.  1.
         12    1    3    3    0    0  0.32263060991E+01 -0.44232276186E+02  0.10382827942E+04  0.10392295531E+04  0.00000000000E+00 0. -1.
          1    1    1    2  501    0 -0.58678721486E+01  0.50271217504E+02  0.29747226840E+03  0.30174720827E+03  0.00000000000E+00 0. -1.
<mgrwt>
<rscale>  1 0.93920315E+02</rscale>
<asrwt>0</asrwt>
<pdfrwt beam="1">  1       21 0.65338046E-03 0.93920315E+02</pdfrwt>
<pdfrwt beam="2">  1        2 0.20692345E+00 0.93920315E+02</pdfrwt>
<totfact> 0.14940417E+06</totfact>
</mgrwt>
</event>
<event>
 6    2  0.7993170E+000  0.8639528E+02  0.7546771E-02  0.1311824E+00
         -1   -1    0    0    0  501 -0.00000000000E+00  0.00000000000E+00  0.49623950188E+02  0.49623950188E+02  0.00000000000E+00 0.  1.
         21   -1    0    0  501  502  0.00000000000E+00 -0.00000000000E+00 -0.59016948539E+02  0.59016948539E+02  0.00000000000E+00 0. -1.
         24    2    1    2    0    0  0.20272487515E+02  0.31699087269E+01 -0.14230814116E+02  0.87559472477E+02  0.83923316656E+02 0.  0.
        -13    1    3    3    0    0 -0.14586182464E+02  0.16805488893E+02  0.24909871707E+02  0.33401839534E+02  0.00000000000E+00 0.  1.
         14    1    3    3    0    0  0.34858669979E+02 -0.13635580166E+02 -0.39140685823E+02  0.54157632942E+02  0.00000000000E+00 0. -1.
         -2    1    1    2    0  502 -0.20272487515E+02 -0.31699087269E+01  0.48378157654E+01  0.21081426251E+02  0.00000000000E+00 0.  1.
<mgrwt>
<rscale>  1 0.86395284E+02</rscale>
<asrwt>0</asrwt>
<pdfrwt beam="1">  1       21 0.90795305E-02 0.86395284E+02</pdfrwt>
<pdfrwt beam="2">  1       -1 0.76344539E-02 0.86395284E+02</pdfrwt>
<totfact> 0.72873287E+05</totfact>
</mgrwt>
</event>
<event>
 6    2  0.7993170E+000  0.8758667E+02  0.7546771E-02  0.1308803E+00
          2   -1    0    0  502    0 -0.00000000000E+00  0.00000000000E+00  0.37323371460E+03  0.37323371460E+03  0.00000000000E+00 0. -1.
         21   -1    0    0  501  502  0.00000000000E+00 -0.00000000000E+00 -0.19025554967E+02  0.19025554967E+02  0.00000000000E+00 0.  1.
         24    2    1    2    0    0 -0.19943725332E+01  0.24316495522E+02  0.35710543422E+03  0.36768970148E+03  0.84119890318E+02 0.  0.
        -13    1    3    3    0    0 -0.36376778112E+02  0.35613004428E+02  0.22750509214E+03  0.23313112838E+03  0.00000000000E+00 0.  1.
         14    1    3    3    0    0  0.34382405579E+02 -0.11296508906E+02  0.12960034208E+03  0.13455857310E+03  0.00000000000E+00 0. -1.
          1    1    1    2  501    0  0.19943725332E+01 -0.24316495522E+02 -0.28972745831E+01  0.24569568093E+02  0.00000000000E+00 0. -1.
<mgrwt>
<rscale>  1 0.87586674E+02</rscale>
<asrwt>0</asrwt>
<pdfrwt beam="1">  1       21 0.29270087E-02 0.87586674E+02</pdfrwt>
<pdfrwt beam="2">  1        2 0.57420566E-01 0.87586674E+02</pdfrwt>
<totfact> 0.66619543E+05</totfact>
</mgrwt>
</event>
<event>
 6    2  0.7993170E+000  0.8740466E+02  0.7546771E-02  0.1309261E+00
          2   -1    0    0  502    0 -0.00000000000E+00  0.00000000000E+00  0.51785116378E+02  0.51785116378E+02  0.00000000000E+00 0. -1.
         21   -1    0    0  501  502  0.00000000000E+00 -0.00000000000E+00 -0.94785074731E+02  0.94785074731E+02  0.00000000000E+00 0.  1.
         24    2    1    2    0    0  0.31482701332E+02  0.32213504043E-01  0.67832465121E+01  0.87667483128E+02  0.81537804998E+02 0.  0.
        -11    1    3    3    0    0  0.27147542500E+02  0.30339979906E+02 -0.21452670831E+02  0.46018697616E+02  0.00000000000E+00 0.  1.
         12    1    3    3    0    0  0.43351588322E+01 -0.30307766402E+02  0.28235917343E+02  0.41648785512E+02  0.00000000000E+00 0. -1.
          1    1    1    2  501    0 -0.31482701332E+02 -0.32213504043E-01 -0.49783204865E+02  0.58902707981E+02  0.00000000000E+00 0. -1.
<mgrwt>
<rscale>  1 0.87404663E+02</rscale>
<asrwt>0</asrwt>
<pdfrwt beam="1">  1       21 0.14582319E-01 0.87404663E+02</pdfrwt>
<pdfrwt beam="2">  1        2 0.79669411E-02 0.87404663E+02</pdfrwt>
<totfact> 0.40096814E+05</totfact>
</mgrwt>
</event>
<event>
 6    2  0.7993170E+000  0.9731587E+02  0.7546771E-02  0.1286044E+00
         21   -1    0    0  501  502  0.00000000000E+00  0.00000000000E+00  0.14193639649E+03  0.14193639649E+03  0.00000000000E+00 0. -1.
          2   -1    0    0  502    0 -0.00000000000E+00 -0.00000000000E+00 -0.44405590782E+02  0.44405590782E+02  0.00000000000E+00 0. -1.
         24    2    1    2    0    0  0.30657718589E+02  0.43032228649E+02  0.32602118862E+02  0.10263175619E+03  0.81723379846E+02 0.  0.
        -13    1    3    3    0    0  0.52578187992E+01  0.22818549555E+02  0.57262625097E+02  0.61865491959E+02  0.00000000000E+00 0.  1.
         14    1    3    3    0    0  0.25399899790E+02  0.20213679094E+02 -0.24660506235E+02  0.40766264234E+02  0.00000000000E+00 0. -1.
          1    1    1    2  501    0 -0.30657718589E+02 -0.43032228649E+02  0.64928686845E+02  0.83710231077E+02  0.00000000000E+00 0. -1.
<mgrwt>
<rscale>  1 0.97315873E+02</rscale>
<asrwt>0</asrwt>
<pdfrwt beam="1">  1       21 0.21836368E-01 0.97315873E+02</pdfrwt>
<pdfrwt beam="2">  1        2 0.68316294E-02 0.97315873E+02</pdfrwt>
<totfact> 0.23570481E+05</totfact>
</mgrwt>
</event>
<event>
 6    2  0.7993170E+000  0.8423776E+02  0.7546771E-02  0.1317438E+00
         21   -1    0    0  501  502  0.00000000000E+00  0.00000000000E+00  0.27745573836E+03  0.27745573836E+03  0.00000000000E+00 0. -1.
          2   -1    0    0  502    0 -0.00000000000E+00 -0.00000000000E+00 -0.13677612720E+02  0.13677612720E+02  0.00000000000E+00 0. -1.
         24    2    1    2    0    0 -0.22987353060E+02 -0.40123293000E+01  0.12712158801E+03  0.15249884432E+03  0.80941226791E+02 0.  0.
        -11    1    3    3    0    0  0.14931986383E+02 -0.21961860519E+02  0.97731209424E+02  0.10127525280E+03  0.00000000000E+00 0.  1.
         12    1    3    3    0    0 -0.37919339444E+02  0.17949531219E+02  0.29390378589E+02  0.51223591522E+02  0.00000000000E+00 0. -1.
          1    1    1    2  501    0  0.22987353060E+02  0.40123293000E+01  0.13665653763E+03  0.13863450676E+03  0.00000000000E+00 0. -1.
<mgrwt>
<rscale>  1 0.84237755E+02</rscale>
<asrwt>0</asrwt>
<pdfrwt beam="1">  1       21 0.42685494E-01 0.84237755E+02</pdfrwt>
<pdfrwt beam="2">  1        2 0.21042483E-02 0.84237755E+02</pdfrwt>
<totfact> 0.30123660E+05</totfact>
</mgrwt>
</event>
<event>
 6    2  0.7993170E+000  0.9107752E+02  0.7546771E-02  0.1300263E+00
          2   -1    0    0  502    0 -0.00000000000E+00  0.00000000000E+00  0.44106567609E+03  0.44106567609E+03  0.00000000000E+00 0. -1.
         21   -1    0    0  501  502  0.00000000000E+00 -0.00000000000E+00 -0.19697391218E+03  0.19697391218E+03  0.00000000000E+00 0. -1.
         24    2    1    2    0    0  0.17726834168E+02 -0.38519666316E+02  0.43400072921E+03  0.44345433588E+03  0.80604650708E+02 0.  0.
        -13    1    3    3    0    0  0.21099366382E+02  0.94300893349E+01  0.37492662982E+02  0.44043269906E+02  0.00000000000E+00 0.  1.
         14    1    3    3    0    0 -0.33725322134E+01 -0.47949755651E+02  0.39650806623E+03  0.39941106598E+03  0.00000000000E+00 0. -1.
          1    1    1    2  501    0 -0.17726834168E+02  0.38519666316E+02 -0.18990896530E+03  0.19458525238E+03  0.00000000000E+00 0. -1.
<mgrwt>
<rscale>  1 0.91077522E+02</rscale>
<asrwt>0</asrwt>
<pdfrwt beam="1">  1       21 0.30303679E-01 0.91077522E+02</pdfrwt>
<pdfrwt beam="2">  1        2 0.67856258E-01 0.91077522E+02</pdfrwt>
<totfact> 0.96085957E+03</totfact>
</mgrwt>
</event>
<event>
 6    2  0.7993170E+000  0.9765143E+02  0.7546771E-02  0.1285314E+00
          4   -1    0    0  502    0 -0.00000000000E+00  0.00000000000E+00  0.28162194991E+02  0.28162194991E+02  0.00000000000E+00 0. -1.
         21   -1    0    0  501  502  0.00000000000E+00 -0.00000000000E+00 -0.39462641439E+03  0.39462641439E+03  0.00000000000E+00 0. -1.
         24    2    1    2    0    0 -0.38856518451E+02 -0.41073559783E+02 -0.35077143059E+03  0.36411041956E+03  0.79617427610E+02 0.  0.
        -11    1    3    3    0    0  0.21042384586E+02 -0.10324752006E+02 -0.16208288046E+03  0.16376886942E+03  0.00000000000E+00 0.  1.
         12    1    3    3    0    0 -0.59898903037E+02 -0.30748807777E+02 -0.18868855013E+03  0.20034155015E+03  0.00000000000E+00 0. -1.
          3    1    1    2  501    0  0.38856518451E+02  0.41073559783E+02 -0.15692788810E+02  0.58678189815E+02  0.00000000000E+00 0. -1.
<mgrwt>
<rscale>  1 0.97651427E+02</rscale>
<asrwt>0</asrwt>
<pdfrwt beam="1">  1       21 0.60711758E-01 0.97651427E+02</pdfrwt>
<pdfrwt beam="2">  1        4 0.43326453E-02 0.97651427E+02</pdfrwt>
<totfact> 0.30069819E+04</totfact>
</mgrwt>
</event>
<event>
 6    2  0.7993170E+000  0.8445369E+02  0.7546771E-02  0.1316867E+00
          2   -1    0    0  502    0 -0.00000000000E+00  0.00000000000E+00  0.16609096428E+04  0.16609096428E+04  0.00000000000E+00 0. -1.
         21   -1    0    0  501  502  0.00000000000E+00 -0.00000000000E+00 -0.27512885373E+01  0.27512885373E+01  0.00000000000E+00 0. -1.
         24    2    1    2    0    0  0.89876043127E+01  0.25722957527E+02  0.15435251905E+04  0.15458338979E+04  0.79937341709E+02 0.  0.
        -11    1    3    3    0    0 -0.82766907910E+01  0.34298007216E+02  0.28696661517E+03  0.28912747211E+03  0.00000000000E+00 0.  1.
         12    1    3    3    0    0  0.17264295104E+02 -0.85750496890E+01  0.12565585753E+04  0.12567064258E+04  0.00000000000E+00 0. -1.
          1    1    1    2  501    0 -0.89876043127E+01 -0.25722957527E+02  0.11463316373E+03  0.11782703341E+03  0.00000000000E+00 0. -1.
<mgrwt>
<rscale>  1 0.84453692E+02</rscale>
<asrwt>0</asrwt>
<pdfrwt beam="1">  1       21 0.42327649E-03 0.84453692E+02</pdfrwt>
<pdfrwt beam="2">  1        2 0.25552376E+00 0.84453692E+02</pdfrwt>
<totfact> 0.19886804E+06</totfact>
</mgrwt>
</event>
<event>
 6    2  0.7993170E+000  0.7941578E+02  0.7546771E-02  0.1330718E+00
          2   -1    0    0  502    0 -0.00000000000E+00  0.00000000000E+00  0.86929530214E+03  0.86929530214E+03  0.00000000000E+00 0. -1.
         21   -1    0    0  501  502  0.00000000000E+00 -0.00000000000E+00 -0.35469010407E+01  0.35469010407E+01  0.00000000000E+00 0.  1.
         24    2    1    2    0    0  0.14193134412E+01  0.29301878457E+02  0.54511115160E+03  0.55086571289E+03  0.73798722958E+02 0.  0.
        -13    1    3    3    0    0 -0.29885401445E+01  0.48229978238E+02  0.22332184221E+03  0.22849005970E+03  0.00000000000E+00 0.  1.
         14    1    3    3    0    0  0.44078535857E+01 -0.18928099781E+02  0.32178930939E+03  0.32237565319E+03  0.00000000000E+00 0. -1.
          1    1    1    2  501    0 -0.14193134412E+01 -0.29301878457E+02  0.32063724950E+03  0.32197649029E+03  0.00000000000E+00 0. -1.
<mgrwt>
<rscale>  1 0.79415780E+02</rscale>
<asrwt>0</asrwt>
<pdfrwt beam="1">  1       21 0.54567778E-03 0.79415780E+02</pdfrwt>
<pdfrwt beam="2">  1        2 0.13373757E+00 0.79415780E+02</pdfrwt>
<totfact> 0.35980959E+06</totfact>
</mgrwt>
</event>
<event>
 6    2  0.7993170E+000  0.9474867E+02  0.7546771E-02  0.1291743E+00
          2   -1    0    0  502    0 -0.00000000000E+00  0.00000000000E+00  0.23177848617E+02  0.23177848617E+02  0.00000000000E+00 0. -1.
         21   -1    0    0  501  502  0.00000000000E+00 -0.00000000000E+00 -0.66280617362E+03  0.66280617362E+03  0.00000000000E+00 0. -1.
         24    2    1    2    0    0  0.51810809211E+02  0.17719403414E+02 -0.80925649154E+02  0.12460445616E+03  0.77323816483E+02 0.  0.
        -13    1    3    3    0    0  0.13469894635E+02  0.43740737293E+02 -0.25612126095E+02  0.52446841311E+02  0.00000000000E+00 0.  1.
         14    1    3    3    0    0  0.38340914576E+02 -0.26021333880E+02 -0.55313523060E+02  0.72157614849E+02  0.00000000000E+00 0. -1.
          1    1    1    2  501    0 -0.51810809211E+02 -0.17719403414E+02 -0.55870267585E+03  0.56137956608E+03  0.00000000000E+00 0. -1.
<mgrwt>
<rscale>  1 0.94748667E+02</rscale>
<asrwt>0</asrwt>
<pdfrwt beam="1">  1       21 0.10197018E+00 0.94748667E+02</pdfrwt>
<pdfrwt beam="2">  1        2 0.35658228E-02 0.94748667E+02</pdfrwt>
<totfact> 0.23236584E+04</totfact>
</mgrwt>
</event>
<event>
 6    2  0.7993170E+000  0.8259278E+02  0.7546771E-02  0.1321850E+00
         21   -1    0    0  501  502  0.00000000000E+00  0.00000000000E+00  0.35519961094E+01  0.35519961094E+01  0.00000000000E+00 0.  1.
          2   -1    0    0  502    0 -0.00000000000E+00 -0.00000000000E+00 -0.94729844032E+03  0.94729844032E+03  0.00000000000E+00 0. -1.
         24    2    1    2    0    0  0.14256187165E+02 -0.14659758103E+02 -0.88084337494E+03  0.88470708073E+03  0.80021372953E+02 0.  0.
        -13    1    3    3    0    0  0.46190445102E+02  0.27734002022E+00 -0.57073269662E+03  0.57259885184E+03  0.00000000000E+00 0.  1.
         14    1    3    3    0    0 -0.31934257937E+02 -0.14937098124E+02 -0.31011067832E+03  0.31210822889E+03  0.00000000000E+00 0. -1.
          1    1    1    2  501    0 -0.14256187165E+02  0.14659758103E+02 -0.62903069265E+02  0.66143355698E+02  0.00000000000E+00 0. -1.
<mgrwt>
<rscale>  1 0.82592781E+02</rscale>
<asrwt>0</asrwt>
<pdfrwt beam="1">  1       21 0.54646087E-03 0.82592781E+02</pdfrwt>
<pdfrwt beam="2">  1        2 0.14573824E+00 0.82592781E+02</pdfrwt>
<totfact> 0.32306316E+06</totfact>
</mgrwt>
</event>
<event>
 6    2  0.7993170E+000  0.8589967E+02  0.7546771E-02  0.1313096E+00
          2   -1    0    0  502    0 -0.00000000000E+00  0.00000000000E+00  0.32744017646E+04  0.32744017646E+04  0.00000000000E+00 0. -1.
         21   -1    0    0  501  502  0.00000000000E+00 -0.00000000000E+00 -0.11469002285E+01  0.11469002285E+01  0.00000000000E+00 0.  1.
         24    2    1    2    0    0  0.69467112389E+01 -0.23362793451E+02  0.29940394038E+04  0.29952713908E+04  0.82369145451E+02 0.  0.
        -11    1    3    3    0    0 -0.19163863748E+02 -0.21763777613E+02  0.38132602246E+03  0.38242705330E+03  0.00000000000E+00 0.  1.
         12    1    3    3    0    0  0.26110574987E+02 -0.15990158388E+01  0.26127133813E+04  0.26128443375E+04  0.00000000000E+00 0. -1.
          1    1    1    2  501    0 -0.69467112389E+01  0.23362793451E+02  0.27921546062E+03  0.28027727408E+03  0.00000000000E+00 0. -1.
<mgrwt>
<rscale>  1 0.85899668E+02</rscale>
<asrwt>0</asrwt>
<pdfrwt beam="1">  1       21 0.17644881E-03 0.85899668E+02</pdfrwt>
<pdfrwt beam="2">  1        2 0.50374663E+00 0.85899668E+02</pdfrwt>
<totfact> 0.10345876E+06</totfact>
</mgrwt>
</event>
<event>
 6    2  0.7993170E+000  0.9237162E+02  0.7546771E-02  0.1297208E+00
         21   -1    0    0  501  502  0.00000000000E+00  0.00000000000E+00  0.41429005325E+01  0.41429005325E+01  0.00000000000E+00 0. -1.
          4   -1    0    0  502    0 -0.00000000000E+00 -0.00000000000E+00 -0.16158587361E+04  0.16158587361E+04  0.00000000000E+00 0. -1.
         24    2    1    2    0    0 -0.29187168853E+02 -0.28053754713E+02 -0.14618093722E+04  0.14647249425E+04  0.83027781907E+02 0.  0.
        -13    1    3    3    0    0 -0.91391590414E+01 -0.16879234909E+02 -0.66193011274E+02  0.68919863179E+02  0.00000000000E+00 0.  1.
         14    1    3    3    0    0 -0.20048009812E+02 -0.11174519804E+02 -0.13956163610E+04  0.13958050794E+04  0.00000000000E+00 0. -1.
          3    1    1    2  501    0  0.29187168853E+02  0.28053754713E+02 -0.14990646334E+03  0.15527669410E+03  0.00000000000E+00 0. -1.
<mgrwt>
<rscale>  1 0.92371622E+02</rscale>
<asrwt>0</asrwt>
<pdfrwt beam="1">  1       21 0.63736902E-03 0.92371622E+02</pdfrwt>
<pdfrwt beam="2">  1        4 0.24859377E+00 0.92371622E+02</pdfrwt>
<totfact> 0.22343868E+04</totfact>
</mgrwt>
</event>
<event>
 6    2  0.7993170E+000  0.8375755E+02  0.7546771E-02  0.1318714E+00
         -1   -1    0    0    0  501 -0.00000000000E+00  0.00000000000E+00  0.33969262002E+03  0.33969262002E+03  0.00000000000E+00 0.  1.
         21   -1    0    0  501  502  0.00000000000E+00 -0.00000000000E+00 -0.95708386641E+01  0.95708386641E+01  0.00000000000E+00 0. -1.
         24    2    1    2    0    0 -0.23355674909E+02  0.19191514506E+02  0.24711069232E+03  0.26091956991E+03  0.78112264898E+02 0.  0.
        -11    1    3    3    0    0 -0.24459017110E+01  0.42593598548E+02  0.19868562320E+03  0.20321460070E+03  0.00000000000E+00 0.  1.
         12    1    3    3    0    0 -0.20909773198E+02 -0.23402084042E+02  0.48425069116E+02  0.57704969211E+02  0.00000000000E+00 0. -1.
         -2    1    1    2    0  502  0.23355674909E+02 -0.19191514506E+02  0.83011089035E+02  0.88343888766E+02  0.00000000000E+00 0.  1.
<mgrwt>
<rscale>  1 0.83757553E+02</rscale>
<asrwt>0</asrwt>
<pdfrwt beam="1">  1       21 0.14724370E-02 0.83757553E+02</pdfrwt>
<pdfrwt beam="2">  1       -1 0.52260394E-01 0.83757553E+02</pdfrwt>
<totfact> 0.65325922E+05</totfact>
</mgrwt>
</event>
<event>
 6    2  0.7993170E+000  0.8172489E+02  0.7546771E-02  0.1324227E+00
         -1   -1    0    0    0  501 -0.00000000000E+00  0.00000000000E+00  0.30664677394E+03  0.30664677394E+03  0.00000000000E+00 0.  1.
         21   -1    0    0  501  502  0.00000000000E+00 -0.00000000000E+00 -0.13633493200E+02  0.13633493200E+02  0.00000000000E+00 0. -1.
         24    2    1    2    0    0  0.24688256023E+02 -0.46157759539E+01  0.28060990322E+03  0.29226849913E+03  0.77769804073E+02 0.  0.
        -13    1    3    3    0    0 -0.19051946925E+02 -0.18251330919E+02  0.17733523504E+03  0.17928712544E+03  0.00000000000E+00 0.  1.
         14    1    3    3    0    0  0.43740202948E+02  0.13635554965E+02  0.10327466818E+03  0.11298137369E+03  0.00000000000E+00 0. -1.
         -2    1    1    2    0  502 -0.24688256023E+02  0.46157759539E+01  0.12403377518E+02  0.28011768009E+02  0.00000000000E+00 0.  1.
<mgrwt>
<rscale>  1 0.81724891E+02</rscale>
<asrwt>0</asrwt>
<pdfrwt beam="1">  1       21 0.20974607E-02 0.81724891E+02</pdfrwt>
<pdfrwt beam="2">  1       -1 0.47176421E-01 0.81724891E+02</pdfrwt>
<totfact> 0.44642221E+05</totfact>
</mgrwt>
</event>
<event>
 6    2  0.7993170E+000  0.8359209E+02  0.7546771E-02  0.1319156E+00
          2   -1    0    0  502    0 -0.00000000000E+00  0.00000000000E+00  0.74845267379E+03  0.74845267379E+03  0.00000000000E+00 0. -1.
         21   -1    0    0  501  502  0.00000000000E+00 -0.00000000000E+00 -0.32400882212E+02  0.32400882212E+02  0.00000000000E+00 0. -1.
         24    2    1    2    0    0 -0.17559270723E+02  0.14217728606E+02  0.74185897469E+03  0.74655366539E+03  0.80480837393E+02 0.  0.
        -13    1    3    3    0    0  0.19515085493E+02 -0.23450926791E+02  0.24536767780E+03  0.24725711686E+03  0.00000000000E+00 0.  1.
         14    1    3    3    0    0 -0.37074356216E+02  0.37668655397E+02  0.49649129689E+03  0.49929654854E+03  0.00000000000E+00 0. -1.
          1    1    1    2  501    0  0.17559270723E+02 -0.14217728606E+02 -0.25807183117E+02  0.34299890604E+02  0.00000000000E+00 0. -1.
<mgrwt>
<rscale>  1 0.83592087E+02</rscale>
<asrwt>0</asrwt>
<pdfrwt beam="1">  1       21 0.49847517E-02 0.83592087E+02</pdfrwt>
<pdfrwt beam="2">  1        2 0.11514655E+00 0.83592087E+02</pdfrwt>
<totfact> 0.12919468E+05</totfact>
</mgrwt>
</event>
<event>
 6    2  0.7993170E+000  0.8509265E+02  0.7546771E-02  0.1315190E+00
          2   -1    0    0  502    0 -0.00000000000E+00  0.00000000000E+00  0.53091047802E+03  0.53091047802E+03  0.00000000000E+00 0. -1.
         21   -1    0    0  501  502  0.00000000000E+00 -0.00000000000E+00 -0.70874210604E+01  0.70874210604E+01  0.00000000000E+00 0. -1.
         24    2    1    2    0    0  0.25529159188E+02  0.91212041137E-01  0.47825307449E+03  0.48576410168E+03  0.81172735168E+02 0.  0.
        -13    1    3    3    0    0 -0.16443977162E+02  0.12432632867E+02  0.37065029769E+02  0.42412158359E+02  0.00000000000E+00 0.  1.
         14    1    3    3    0    0  0.41973136350E+02 -0.12341420825E+02  0.44118804472E+03  0.44335194332E+03  0.00000000000E+00 0. -1.
          1    1    1    2  501    0 -0.25529159188E+02 -0.91212041137E-01  0.45569982475E+02  0.52233797404E+02  0.00000000000E+00 0. -1.
<mgrwt>
<rscale>  1 0.85092651E+02</rscale>
<asrwt>0</asrwt>
<pdfrwt beam="1">  1       21 0.10903729E-02 0.85092651E+02</pdfrwt>
<pdfrwt beam="2">  1        2 0.81678504E-01 0.85092651E+02</pdfrwt>
<totfact> 0.21993237E+06</totfact>
</mgrwt>
</event>
<event>
 6    2  0.7993170E+000  0.9159687E+02  0.7546771E-02  0.1299030E+00
          2   -1    0    0  502    0 -0.00000000000E+00  0.00000000000E+00  0.39683002045E+03  0.39683002045E+03  0.00000000000E+00 0. -1.
         21   -1    0    0  501  502  0.00000000000E+00 -0.00000000000E+00 -0.15779847182E+02  0.15779847182E+02  0.00000000000E+00 0. -1.
         24    2    1    2    0    0  0.38978961558E+02  0.16494068588E+02  0.34518955740E+03  0.35713557166E+03  0.81231596490E+02 0.  0.
        -11    1    3    3    0    0  0.32423306739E+02  0.27071594161E+02  0.70647835053E+02  0.82311959204E+02  0.00000000000E+00 0.  1.
         12    1    3    3    0    0  0.65556548194E+01 -0.10577525573E+02  0.27454172234E+03  0.27482361246E+03  0.00000000000E+00 0. -1.
          1    1    1    2  501    0 -0.38978961558E+02 -0.16494068588E+02  0.35860615873E+02  0.55474295971E+02  0.00000000000E+00 0. -1.
<mgrwt>
<rscale>  1 0.91596867E+02</rscale>
<asrwt>0</asrwt>
<pdfrwt beam="1">  1       21 0.24276691E-02 0.91596867E+02</pdfrwt>
<pdfrwt beam="2">  1        2 0.61050765E-01 0.91596867E+02</pdfrwt>
<totfact> 0.84891768E+05</totfact>
</mgrwt>
</event>
<event>
 6    2  0.7993170E+000  0.9823184E+02  0.7546771E-02  0.1284059E+00
          2   -1    0    0  502    0 -0.00000000000E+00  0.00000000000E+00  0.31740005353E+04  0.31740005353E+04  0.00000000000E+00 0. -1.
         21   -1    0    0  501  502  0.00000000000E+00 -0.00000000000E+00 -0.19568559592E+01  0.19568559592E+01  0.00000000000E+00 0.  1.
         24    2    1    2    0    0  0.51021852294E+02  0.30090116194E+02  0.19098435715E+04  0.19123681555E+04  0.78363576041E+02 0.  0.
        -13    1    3    3    0    0  0.39086375822E+02  0.23375185513E+02  0.42006210526E+03  0.42252374649E+03  0.00000000000E+00 0.  1.
         14    1    3    3    0    0  0.11935476472E+02  0.67149306812E+01  0.14897814662E+04  0.14898444090E+04  0.00000000000E+00 0. -1.
          1    1    1    2  501    0 -0.51021852294E+02 -0.30090116194E+02  0.12622001078E+04  0.12635892358E+04  0.00000000000E+00 0. -1.
<mgrwt>
<rscale>  1 0.98231841E+02</rscale>
<asrwt>0</asrwt>
<pdfrwt beam="1">  1       21 0.30105730E-03 0.98231841E+02</pdfrwt>
<pdfrwt beam="2">  1        2 0.48830366E+00 0.98231841E+02</pdfrwt>
<totfact> 0.53248106E+05</totfact>
</mgrwt>
</event>
<event>
 6    2  0.7993170E+000  0.1183610E+03  0.7546771E-02  0.1245826E+00
         21   -1    0    0  501  502  0.00000000000E+00  0.00000000000E+00  0.43339910476E+02  0.43339910476E+02  0.00000000000E+00 0. -1.
          2   -1    0    0  502    0 -0.00000000000E+00 -0.00000000000E+00 -0.78926923957E+03  0.78926923957E+03  0.00000000000E+00 0. -1.
         24    2    1    2    0    0 -0.50317395790E+02  0.72746368778E+02 -0.73385197898E+03  0.74333576725E+03  0.78647703944E+02 0.  0.
        -13    1    3    3    0    0 -0.92219481227E+01 -0.12171619544E+01 -0.71707946156E+01  0.11745046012E+02  0.00000000000E+00 0.  1.
         14    1    3    3    0    0 -0.41095447667E+02  0.73963530733E+02 -0.72668118436E+03  0.73159072124E+03  0.00000000000E+00 0. -1.
          1    1    1    2  501    0  0.50317395790E+02 -0.72746368778E+02 -0.12077350114E+02  0.89273382793E+02  0.00000000000E+00 0. -1.
<mgrwt>
<rscale>  1 0.11836104E+03</rscale>
<asrwt>0</asrwt>
<pdfrwt beam="1">  1       21 0.66676789E-02 0.11836104E+03</pdfrwt>
<pdfrwt beam="2">  1        2 0.12142603E+00 0.11836104E+03</pdfrwt>
<totfact> 0.74922956E+04</totfact>
</mgrwt>
</event>
<event>
 6    2  0.7993170E+000  0.9092972E+02  0.7546771E-02  0.1300616E+00
          2   -1    0    0  502    0 -0.00000000000E+00  0.00000000000E+00  0.60131010896E+02  0.60131010896E+02  0.00000000000E+00 0. -1.
         21   -1    0    0  501  502  0.00000000000E+00 -0.00000000000E+00 -0.77795194448E+02  0.77795194448E+02  0.00000000000E+00 0.  1.
         24    2    1    2    0    0  0.18791132978E+02  0.38516968904E+02  0.15894074279E+01  0.90943609228E+02  0.80196946771E+02 0.  0.
        -13    1    3    3    0    0  0.13316400749E+02  0.58168946299E+02 -0.18335785952E+02  0.62427188700E+02  0.00000000000E+00 0.  1.
         14    1    3    3    0    0  0.54747322293E+01 -0.19651977395E+02  0.19925193380E+02  0.28516420529E+02  0.00000000000E+00 0. -1.
          1    1    1    2  501    0 -0.18791132978E+02 -0.38516968904E+02 -0.19253590979E+02  0.46982596115E+02  0.00000000000E+00 0. -1.
<mgrwt>
<rscale>  1 0.90929719E+02</rscale>
<asrwt>0</asrwt>
<pdfrwt beam="1">  1       21 0.11968491E-01 0.90929719E+02</pdfrwt>
<pdfrwt beam="2">  1        2 0.92509248E-02 0.90929719E+02</pdfrwt>
<totfact> 0.47474611E+05</totfact>
</mgrwt>
</event>
<event>
 6    2  0.7993170E+000  0.1233807E+03  0.7546771E-02  0.1237622E+00
         21   -1    0    0  501  502  0.00000000000E+00  0.00000000000E+00  0.11523772228E+03  0.11523772228E+03  0.00000000000E+00 0.  1.
          2   -1    0    0  502    0 -0.00000000000E+00 -0.00000000000E+00 -0.21416165926E+03  0.21416165926E+03  0.00000000000E+00 0. -1.
         24    2    1    2    0    0 -0.82472663331E+02 -0.49334386530E+02  0.64944649414E+02  0.13942955368E+03  0.77376812173E+02 0.  0.
        -11    1    3    3    0    0 -0.67995597428E+02 -0.41214342262E+02  0.77650452824E+01  0.79889418610E+02  0.00000000000E+00 0.  1.
         12    1    3    3    0    0 -0.14477065903E+02 -0.81200442677E+01  0.57179604131E+02  0.59540135074E+02  0.00000000000E+00 0. -1.
          1    1    1    2  501    0  0.82472663331E+02  0.49334386530E+02 -0.16386858639E+03  0.18996982786E+03  0.00000000000E+00 0. -1.
<mgrwt>
<rscale>  1 0.12338068E+03</rscale>
<asrwt>0</asrwt>
<pdfrwt beam="1">  1       21 0.17728880E-01 0.12338068E+03</pdfrwt>
<pdfrwt beam="2">  1        2 0.32947948E-01 0.12338068E+03</pdfrwt>
<totfact> 0.55978260E+04</totfact>
</mgrwt>
</event>
<event>
 6    2  0.7993170E+000  0.8405991E+02  0.7546771E-02  0.1317909E+00
          4   -1    0    0  502    0 -0.00000000000E+00  0.00000000000E+00  0.26685283554E+03  0.26685283554E+03  0.00000000000E+00 0. -1.
         21   -1    0    0  501  502  0.00000000000E+00 -0.00000000000E+00 -0.10306300583E+02  0.10306300583E+02  0.00000000000E+00 0.  1.
         24    2    1    2    0    0 -0.19007853850E+02  0.65113470951E+01  0.19298840147E+03  0.21050080970E+03  0.81623352258E+02 0.  0.
        -11    1    3    3    0    0  0.75859450931E+00  0.31033311075E+02  0.25779396798E+02  0.40351197766E+02  0.00000000000E+00 0.  1.
         12    1    3    3    0    0 -0.19766448360E+02 -0.24521963980E+02  0.16720900467E+03  0.17014961193E+03  0.00000000000E+00 0. -1.
          3    1    1    2  501    0  0.19007853850E+02 -0.65113470951E+01  0.63558133488E+02  0.66658326422E+02  0.00000000000E+00 0. -1.
<mgrwt>
<rscale>  1 0.84059906E+02</rscale>
<asrwt>0</asrwt>
<pdfrwt beam="1">  1       21 0.15855849E-02 0.84059906E+02</pdfrwt>
<pdfrwt beam="2">  1        4 0.41054277E-01 0.84059906E+02</pdfrwt>
<totfact> 0.37531606E+05</totfact>
</mgrwt>
</event>
<event>
 6    2  0.7993170E+000  0.8416532E+02  0.7546771E-02  0.1317630E+00
         21   -1    0    0  501  502  0.00000000000E+00  0.00000000000E+00  0.22171548453E+01  0.22171548453E+01  0.00000000000E+00 0.  1.
          2   -1    0    0  502    0 -0.00000000000E+00 -0.00000000000E+00 -0.21783792773E+04  0.21783792773E+04  0.00000000000E+00 0. -1.
         24    2    1    2    0    0  0.23383331737E+02 -0.10707796682E+02 -0.20555697713E+04  0.20572921245E+04  0.80139652887E+02 0.  0.
        -13    1    3    3    0    0  0.75500963026E+01  0.25788763279E+02 -0.28226829323E+03  0.28354444735E+03  0.00000000000E+00 0.  1.
         14    1    3    3    0    0  0.15833235434E+02 -0.36496559961E+02 -0.17733014781E+04  0.17737476772E+04  0.00000000000E+00 0. -1.
          1    1    1    2  501    0 -0.23383331737E+02  0.10707796682E+02 -0.12059235112E+03  0.12330430756E+03  0.00000000000E+00 0. -1.
<mgrwt>
<rscale>  1 0.84165320E+02</rscale>
<asrwt>0</asrwt>
<pdfrwt beam="1">  1       21 0.34109967E-03 0.84165320E+02</pdfrwt>
<pdfrwt beam="2">  1        2 0.33513633E+00 0.84165320E+02</pdfrwt>
<totfact> 0.15189920E+06</totfact>
</mgrwt>
</event>
<event>
 6    2  0.7993170E+000  0.8774303E+02  0.7546771E-02  0.1308411E+00
          2   -1    0    0  502    0 -0.00000000000E+00  0.00000000000E+00  0.14963266770E+04  0.14963266770E+04  0.00000000000E+00 0. -1.
         21   -1    0    0  501  502  0.00000000000E+00 -0.00000000000E+00 -0.31258780959E+01  0.31258780959E+01  0.00000000000E+00 0.  1.
         24    2    1    2    0    0 -0.19706337385E+02  0.20218078767E+02  0.13799084962E+04  0.13826953014E+04  0.83076640195E+02 0.  0.
        -13    1    3    3    0    0 -0.92199158032E+01  0.30796259433E+02  0.19048534178E+03  0.19317888569E+03  0.00000000000E+00 0.  1.
         14    1    3    3    0    0 -0.10486421582E+02 -0.10578180667E+02  0.11894231544E+04  0.11895164157E+04  0.00000000000E+00 0. -1.
          1    1    1    2  501    0  0.19706337385E+02 -0.20218078767E+02  0.11329230272E+03  0.11675725373E+03  0.00000000000E+00 0. -1.
<mgrwt>
<rscale>  1 0.87743026E+02</rscale>
<asrwt>0</asrwt>
<pdfrwt beam="1">  1       21 0.48090552E-03 0.87743026E+02</pdfrwt>
<pdfrwt beam="2">  1        2 0.23020353E+00 0.87743026E+02</pdfrwt>
<totfact> 0.19882215E+06</totfact>
</mgrwt>
</event>
<event>
 6    2  0.7993170E+000  0.7977794E+02  0.7546771E-02  0.1329683E+00
          2   -1    0    0  502    0 -0.00000000000E+00  0.00000000000E+00  0.97351522936E+03  0.97351522936E+03  0.00000000000E+00 0. -1.
         21   -1    0    0  501  502  0.00000000000E+00 -0.00000000000E+00 -0.68244348420E+01  0.68244348420E+01  0.00000000000E+00 0. -1.
         24    2    1    2    0    0  0.30901160598E+02 -0.17375983579E+02  0.90990837677E+03  0.91339902261E+03  0.71468271676E+02 0.  0.
        -13    1    3    3    0    0  0.87405805676E+01 -0.30997271035E+01  0.12303846116E+02  0.15407487986E+02  0.00000000000E+00 0.  1.
         14    1    3    3    0    0  0.22160580030E+02 -0.14276256475E+02  0.89760453065E+03  0.89799153462E+03  0.00000000000E+00 0. -1.
          1    1    1    2  501    0 -0.30901160598E+02  0.17375983579E+02  0.56782417753E+02  0.66940641598E+02  0.00000000000E+00 0. -1.
<mgrwt>
<rscale>  1 0.79777944E+02</rscale>
<asrwt>0</asrwt>
<pdfrwt beam="1">  1       21 0.10499138E-02 0.79777944E+02</pdfrwt>
<pdfrwt beam="2">  1        2 0.14977146E+00 0.79777944E+02</pdfrwt>
<totfact> 0.11315770E+06</totfact>
</mgrwt>
</event>
<event>
 6    2  0.7993170E+000  0.8739838E+02  0.7546771E-02  0.1309277E+00
          2   -1    0    0  502    0 -0.00000000000E+00  0.00000000000E+00  0.16563758122E+04  0.16563758122E+04  0.00000000000E+00 0. -1.
         21   -1    0    0  501  502  0.00000000000E+00 -0.00000000000E+00 -0.45399086522E+01  0.45399086522E+01  0.00000000000E+00 0. -1.
         24    2    1    2    0    0 -0.47844929581E+01 -0.25009185112E+02  0.16068378401E+04  0.16092129508E+04  0.83606973737E+02 0.  0.
        -13    1    3    3    0    0  0.34524135057E+02 -0.19003408447E+02  0.45969823830E+03  0.46138434708E+03  0.00000000000E+00 0.  1.
         14    1    3    3    0    0 -0.39308628016E+02 -0.60057766648E+01  0.11471396018E+04  0.11478286037E+04  0.00000000000E+00 0. -1.
          1    1    1    2  501    0  0.47844929581E+01  0.25009185112E+02  0.44998063434E+02  0.51702770000E+02  0.00000000000E+00 0. -1.
<mgrwt>
<rscale>  1 0.87398380E+02</rscale>
<asrwt>0</asrwt>
<pdfrwt beam="1">  1       21 0.69844881E-03 0.87398380E+02</pdfrwt>
<pdfrwt beam="2">  1        2 0.25482657E+00 0.87398380E+02</pdfrwt>
<totfact> 0.92930221E+05</totfact>
</mgrwt>
</event>
<event>
 6    2  0.7993170E+000  0.9070321E+02  0.7546771E-02  0.1301158E+00
         21   -1    0    0  501  502  0.00000000000E+00  0.00000000000E+00  0.69691801632E+03  0.69691801632E+03  0.00000000000E+00 0. -1.
         -3   -1    0    0    0  501 -0.00000000000E+00 -0.00000000000E+00 -0.69226659540E+01  0.69226659540E+01  0.00000000000E+00 0.  1.
         24    2    1    2    0    0  0.41898498669E+02 -0.15062489394E+02  0.53263452481E+03  0.54030233143E+03  0.79023474680E+02 0.  0.
        -13    1    3    3    0    0 -0.22164233948E+02 -0.99462830802E+01  0.99323178158E+02  0.10225104172E+03  0.00000000000E+00 0.  1.
         14    1    3    3    0    0  0.64062732617E+02 -0.51162063137E+01  0.43331134665E+03  0.43805128971E+03  0.00000000000E+00 0. -1.
         -4    1    1    2    0  502 -0.41898498669E+02  0.15062489394E+02  0.15736082556E+03  0.16353835085E+03  0.00000000000E+00 0.  1.
<mgrwt>
<rscale>  1 0.90703210E+02</rscale>
<asrwt>0</asrwt>
<pdfrwt beam="1">  1       21 0.10721810E+00 0.90703210E+02</pdfrwt>
<pdfrwt beam="2">  1       -3 0.10650261E-02 0.90703210E+02</pdfrwt>
<totfact> 0.79889777E+04</totfact>
</mgrwt>
</event>
<event>
 6    2  0.7993170E+000  0.8559655E+02  0.7546771E-02  0.1313880E+00
         21   -1    0    0  501  502  0.00000000000E+00  0.00000000000E+00  0.28061982020E+02  0.28061982020E+02  0.00000000000E+00 0.  1.
          2   -1    0    0  502    0 -0.00000000000E+00 -0.00000000000E+00 -0.12711230950E+03  0.12711230950E+03  0.00000000000E+00 0. -1.
         24    2    1    2    0    0 -0.56870939983E+01 -0.29934347748E+02 -0.87998758719E+02  0.12276217364E+03  0.79989758897E+02 0.  0.
        -11    1    3    3    0    0  0.98138137212E+01 -0.55125271311E+02 -0.59025121950E+02  0.81357676331E+02  0.00000000000E+00 0.  1.
         12    1    3    3    0    0 -0.15500907719E+02  0.25190923563E+02 -0.28973636769E+02  0.41404497313E+02  0.00000000000E+00 0. -1.
          1    1    1    2  501    0  0.56870939983E+01  0.29934347748E+02 -0.11051568764E+02  0.32412117879E+02  0.00000000000E+00 0. -1.
<mgrwt>
<rscale>  1 0.85596552E+02</rscale>
<asrwt>0</asrwt>
<pdfrwt beam="1">  1       21 0.43172280E-02 0.85596552E+02</pdfrwt>
<pdfrwt beam="2">  1        2 0.19555740E-01 0.85596552E+02</pdfrwt>
<totfact> 0.11098735E+06</totfact>
</mgrwt>
</event>
<event>
 6    2  0.7993170E+000  0.8316114E+02  0.7546771E-02  0.1320313E+00
          2   -1    0    0  502    0 -0.00000000000E+00  0.00000000000E+00  0.18507707865E+04  0.18507707865E+04  0.00000000000E+00 0. -1.
         21   -1    0    0  501  502  0.00000000000E+00 -0.00000000000E+00 -0.14796360382E+01  0.14796360382E+01  0.00000000000E+00 0.  1.
         24    2    1    2    0    0  0.15937941302E+02  0.14349736165E+02  0.14935243337E+04  0.14958377954E+04  0.80348253138E+02 0.  0.
        -13    1    3    3    0    0  0.25776901081E+02  0.38673456030E+02  0.55366758088E+03  0.55561486206E+03  0.00000000000E+00 0.  1.
         14    1    3    3    0    0 -0.98389597788E+01 -0.24323719864E+02  0.93985675285E+03  0.94022293333E+03  0.00000000000E+00 0. -1.
          1    1    1    2  501    0 -0.15937941302E+02 -0.14349736165E+02  0.35576681678E+03  0.35641262720E+03  0.00000000000E+00 0. -1.
<mgrwt>
<rscale>  1 0.83161137E+02</rscale>
<asrwt>0</asrwt>
<pdfrwt beam="1">  1       21 0.22763780E-03 0.83161137E+02</pdfrwt>
<pdfrwt beam="2">  1        2 0.28473211E+00 0.83161137E+02</pdfrwt>
<totfact> 0.40761215E+06</totfact>
</mgrwt>
</event>
<event>
 6    2  0.7993170E+000  0.1527868E+03  0.7546771E-02  0.1197090E+00
         -3   -1    0    0    0  501 -0.00000000000E+00  0.00000000000E+00  0.52510351290E+02  0.52510351290E+02  0.00000000000E+00 0.  1.
         21   -1    0    0  501  502  0.00000000000E+00 -0.00000000000E+00 -0.39702738842E+03  0.39702738842E+03  0.00000000000E+00 0. -1.
         24    2    1    2    0    0 -0.95100910247E+02 -0.88748319955E+02 -0.23063380484E+03  0.27665096167E+03  0.80145837273E+02 0.  0.
        -11    1    3    3    0    0  0.12598050109E+02 -0.16758038468E+02 -0.17847586251E+02  0.27533235459E+02  0.00000000000E+00 0.  1.
         12    1    3    3    0    0 -0.10769896036E+03 -0.71990281487E+02 -0.21278621859E+03  0.24911772621E+03  0.00000000000E+00 0. -1.
         -4    1    1    2    0  502  0.95100910247E+02  0.88748319955E+02 -0.11388323229E+03  0.17288677804E+03  0.00000000000E+00 0.  1.
<mgrwt>
<rscale>  1 0.15278679E+03</rscale>
<asrwt>0</asrwt>
<pdfrwt beam="1">  1       21 0.61081134E-01 0.15278679E+03</pdfrwt>
<pdfrwt beam="2">  1       -3 0.80785159E-02 0.15278679E+03</pdfrwt>
<totfact> 0.12773330E+04</totfact>
</mgrwt>
</event>
<event>
 6    2  0.7993170E+000  0.9255557E+02  0.7546771E-02  0.1296778E+00
         21   -1    0    0  501  502  0.00000000000E+00  0.00000000000E+00  0.63083826394E+01  0.63083826394E+01  0.00000000000E+00 0.  1.
          2   -1    0    0  502    0 -0.00000000000E+00 -0.00000000000E+00 -0.73769290589E+03  0.73769290589E+03  0.00000000000E+00 0. -1.
         24    2    1    2    0    0  0.31228271002E+02  0.45675170672E+01 -0.65259491848E+03  0.65912567989E+03  0.87008431449E+02 0.  0.
        -13    1    3    3    0    0  0.28919822268E+02 -0.13318868609E+02 -0.78004502260E+02  0.84252304146E+02  0.00000000000E+00 0.  1.
         14    1    3    3    0    0  0.23084487341E+01  0.17886385677E+02 -0.57459041622E+03  0.57487337575E+03  0.00000000000E+00 0. -1.
          1    1    1    2  501    0 -0.31228271002E+02 -0.45675170672E+01 -0.78789604773E+02  0.84875608641E+02  0.00000000000E+00 0. -1.
<mgrwt>
<rscale>  1 0.92555574E+02</rscale>
<asrwt>0</asrwt>
<pdfrwt beam="1">  1       21 0.97052071E-03 0.92555574E+02</pdfrwt>
<pdfrwt beam="2">  1        2 0.11349118E+00 0.92555574E+02</pdfrwt>
<totfact> 0.18350172E+06</totfact>
</mgrwt>
</event>
<event>
 6    2  0.7993170E+000  0.9355540E+02  0.7546771E-02  0.1294463E+00
          4   -1    0    0  502    0 -0.00000000000E+00  0.00000000000E+00  0.58441670692E+02  0.58441670692E+02  0.00000000000E+00 0. -1.
         21   -1    0    0  501  502  0.00000000000E+00 -0.00000000000E+00 -0.11264082642E+03  0.11264082642E+03  0.00000000000E+00 0. -1.
         24    2    1    2    0    0  0.40494546693E+02  0.14154431631E+02  0.97673304911E+01  0.94063878545E+02  0.83141182668E+02 0.  0.
        -13    1    3    3    0    0  0.51657775984E+01  0.48715329248E+01 -0.35325679297E+02  0.36032217653E+02  0.00000000000E+00 0.  1.
         14    1    3    3    0    0  0.35328769095E+02  0.92828987062E+01  0.45093009788E+02  0.58031660892E+02  0.00000000000E+00 0. -1.
          3    1    1    2  501    0 -0.40494546693E+02 -0.14154431631E+02 -0.63966486217E+02  0.77018618565E+02  0.00000000000E+00 0. -1.
<mgrwt>
<rscale>  1 0.93555398E+02</rscale>
<asrwt>0</asrwt>
<pdfrwt beam="1">  1       21 0.17329358E-01 0.93555398E+02</pdfrwt>
<pdfrwt beam="2">  1        4 0.89910263E-02 0.93555398E+02</pdfrwt>
<totfact> 0.10443471E+05</totfact>
</mgrwt>
</event>
<event>
 6    2  0.7993170E+000  0.8411364E+02  0.7546771E-02  0.1317767E+00
         21   -1    0    0  501  502  0.00000000000E+00  0.00000000000E+00  0.57171676871E+01  0.57171676871E+01  0.00000000000E+00 0. -1.
         -1   -1    0    0    0  501 -0.00000000000E+00 -0.00000000000E+00 -0.49838046226E+03  0.49838046226E+03  0.00000000000E+00 0.  1.
         24    2    1    2    0    0  0.22362019081E+02  0.34941216442E+01 -0.39115123895E+03  0.40009298476E+03  0.81011332168E+02 0.  0.
        -11    1    3    3    0    0  0.18046904657E+02  0.96123404551E+01 -0.39202271060E+03  0.39255559285E+03  0.00000000000E+00 0.  1.
         12    1    3    3    0    0  0.43151144244E+01 -0.61182188108E+01  0.87147164871E+00  0.75373919062E+01  0.00000000000E+00 0. -1.
         -2    1    1    2    0  502 -0.22362019081E+02 -0.34941216442E+01 -0.10151205563E+03  0.10400464519E+03  0.00000000000E+00 0.  1.
<mgrwt>
<rscale>  1 0.84113642E+02</rscale>
<asrwt>0</asrwt>
<pdfrwt beam="1">  1       21 0.87956389E-03 0.84113642E+02</pdfrwt>
<pdfrwt beam="2">  1       -1 0.76673949E-01 0.84113642E+02</pdfrwt>
<totfact> 0.70653654E+05</totfact>
</mgrwt>
</event>
<event>
 6    2  0.7993170E+000  0.8663416E+02  0.7546771E-02  0.1311214E+00
         21   -1    0    0  501  502  0.00000000000E+00  0.00000000000E+00  0.60588815048E+02  0.60588815048E+02  0.00000000000E+00 0. -1.
          2   -1    0    0  502    0 -0.00000000000E+00 -0.00000000000E+00 -0.83634939334E+02  0.83634939334E+02  0.00000000000E+00 0. -1.
         24    2    1    2    0    0 -0.14808283342E+02 -0.26338728964E+02 -0.53094984066E+02  0.10160981449E+03  0.81193984808E+02 0.  0.
        -11    1    3    3    0    0 -0.17895790734E+02 -0.52829704954E+02 -0.49729703363E+02  0.74728043251E+02  0.00000000000E+00 0.  1.
         12    1    3    3    0    0  0.30875073920E+01  0.26490975990E+02 -0.33652807029E+01  0.26881771241E+02  0.00000000000E+00 0. -1.
          1    1    1    2  501    0  0.14808283342E+02  0.26338728964E+02  0.30048859779E+02  0.42613939891E+02  0.00000000000E+00 0. -1.
<mgrwt>
<rscale>  1 0.86634156E+02</rscale>
<asrwt>0</asrwt>
<pdfrwt beam="1">  1       21 0.93213562E-02 0.86634156E+02</pdfrwt>
<pdfrwt beam="2">  1        2 0.12866914E-01 0.86634156E+02</pdfrwt>
<totfact> 0.49126710E+05</totfact>
</mgrwt>
</event>
<event>
 6    2  0.7993170E+000  0.1461872E+03  0.7546771E-02  0.1205238E+00
         21   -1    0    0  501  502  0.00000000000E+00  0.00000000000E+00  0.42649449098E+02  0.42649449098E+02  0.00000000000E+00 0. -1.
          4   -1    0    0  502    0 -0.00000000000E+00 -0.00000000000E+00 -0.87715732720E+03  0.87715732720E+03  0.00000000000E+00 0. -1.
         24    2    1    2    0    0 -0.12471468637E+03  0.10326982081E+02 -0.76049186596E+03  0.77441499658E+03  0.75566587734E+02 0.  0.
        -13    1    3    3    0    0 -0.19167776735E+02 -0.39481608485E+01 -0.27656276482E+02  0.33880101356E+02  0.00000000000E+00 0.  1.
         14    1    3    3    0    0 -0.10554690964E+03  0.14275142929E+02 -0.73283558948E+03  0.74053489522E+03  0.00000000000E+00 0. -1.
          3    1    1    2  501    0  0.12471468637E+03 -0.10326982081E+02 -0.74016012143E+02  0.14539177972E+03  0.00000000000E+00 0. -1.
<mgrwt>
<rscale>  1 0.14618724E+03</rscale>
<asrwt>0</asrwt>
<pdfrwt beam="1">  1       21 0.65614540E-02 0.14618724E+03</pdfrwt>
<pdfrwt beam="2">  1        4 0.13494728E+00 0.14618724E+03</pdfrwt>
<totfact> 0.29157617E+03</totfact>
</mgrwt>
</event>
<event>
 6    2  0.7993170E+000  0.8411275E+02  0.7546771E-02  0.1317769E+00
         21   -1    0    0  501  502  0.00000000000E+00  0.00000000000E+00  0.10569894959E+04  0.10569894959E+04  0.00000000000E+00 0. -1.
         -1   -1    0    0    0  501 -0.00000000000E+00 -0.00000000000E+00 -0.35079364680E+01  0.35079364680E+01  0.00000000000E+00 0.  1.
         24    2    1    2    0    0 -0.21351545921E+02  0.24549582717E+02  0.60239065115E+03  0.60823470114E+03  0.77565356642E+02 0.  0.
        -11    1    3    3    0    0 -0.10393606264E+02  0.47858654988E+02  0.24090706124E+03  0.24583468035E+03  0.00000000000E+00 0.  1.
         12    1    3    3    0    0 -0.10957939657E+02 -0.23309072272E+02  0.36148358991E+03  0.36240002078E+03  0.00000000000E+00 0. -1.
         -2    1    1    2    0  502  0.21351545921E+02 -0.24549582717E+02  0.45109090833E+03  0.45226273127E+03  0.00000000000E+00 0.  1.
<mgrwt>
<rscale>  1 0.84112752E+02</rscale>
<asrwt>0</asrwt>
<pdfrwt beam="1">  1       21 0.16261351E+00 0.84112752E+02</pdfrwt>
<pdfrwt beam="2">  1       -1 0.53968338E-03 0.84112752E+02</pdfrwt>
<totfact> 0.93041185E+04</totfact>
</mgrwt>
</event>
<event>
 6    2  0.7993170E+000  0.8093387E+02  0.7546771E-02  0.1326422E+00
         -1   -1    0    0    0  501 -0.00000000000E+00  0.00000000000E+00  0.31125743425E+02  0.31125743425E+02  0.00000000000E+00 0.  1.
         21   -1    0    0  501  502  0.00000000000E+00 -0.00000000000E+00 -0.95430559785E+02  0.95430559785E+02  0.00000000000E+00 0. -1.
         24    2    1    2    0    0  0.24684631746E+02  0.13012656939E+02 -0.44744870298E+02  0.92479158743E+02  0.75971251792E+02 0.  0.
        -13    1    3    3    0    0 -0.15132257507E+02 -0.22423735392E+02 -0.20393948499E+02  0.33878049849E+02  0.00000000000E+00 0.  1.
         14    1    3    3    0    0  0.39816889253E+02  0.35436392331E+02 -0.24350921798E+02  0.58601108894E+02  0.00000000000E+00 0. -1.
         -2    1    1    2    0  502 -0.24684631746E+02 -0.13012656939E+02 -0.19559946062E+02  0.34077144467E+02  0.00000000000E+00 0.  1.
<mgrwt>
<rscale>  1 0.80933870E+02</rscale>
<asrwt>0</asrwt>
<pdfrwt beam="1">  1       21 0.14681624E-01 0.80933870E+02</pdfrwt>
<pdfrwt beam="2">  1       -1 0.47885760E-02 0.80933870E+02</pdfrwt>
<totfact> 0.62015535E+05</totfact>
</mgrwt>
</event>
<event>
 6    2  0.7993170E+000  0.8270758E+02  0.7546771E-02  0.1321539E+00
         21   -1    0    0  501  502  0.00000000000E+00  0.00000000000E+00  0.27933571859E+02  0.27933571859E+02  0.00000000000E+00 0. -1.
          2   -1    0    0  502    0 -0.00000000000E+00 -0.00000000000E+00 -0.11729502258E+03  0.11729502258E+03  0.00000000000E+00 0. -1.
         24    2    1    2    0    0  0.20377094725E+02 -0.10133259081E+02 -0.90298789823E+02  0.12245168653E+03  0.79514999604E+02 0.  0.
        -11    1    3    3    0    0 -0.11073926496E+01  0.23701580141E+02 -0.76432331712E-01  0.23727559115E+02  0.00000000000E+00 0.  1.
         12    1    3    3    0    0  0.21484487375E+02 -0.33834839222E+02 -0.90222357492E+02  0.98724127417E+02  0.00000000000E+00 0. -1.
          1    1    1    2  501    0 -0.20377094725E+02  0.10133259081E+02  0.93733910625E+00  0.22776907903E+02  0.00000000000E+00 0. -1.
<mgrwt>
<rscale>  1 0.82707582E+02</rscale>
<asrwt>0</asrwt>
<pdfrwt beam="1">  1       21 0.42974726E-02 0.82707582E+02</pdfrwt>
<pdfrwt beam="2">  1        2 0.18045388E-01 0.82707582E+02</pdfrwt>
<totfact> 0.12189410E+06</totfact>
</mgrwt>
</event>
<event>
 6    2  0.7993170E+000  0.8367436E+02  0.7546771E-02  0.1318936E+00
          2   -1    0    0  502    0 -0.00000000000E+00  0.00000000000E+00  0.76962867360E+03  0.76962867360E+03  0.00000000000E+00 0. -1.
         21   -1    0    0  501  502  0.00000000000E+00 -0.00000000000E+00 -0.39414801982E+01  0.39414801982E+01  0.00000000000E+00 0. -1.
         24    2    1    2    0    0  0.82090825162E+01 -0.25167043095E+02  0.58552086581E+03  0.59146942702E+03  0.79376506038E+02 0.  0.
        -13    1    3    3    0    0  0.30359258891E+02  0.17564061595E+02  0.21642906959E+03  0.21925264656E+03  0.00000000000E+00 0.  1.
         14    1    3    3    0    0 -0.22150176375E+02 -0.42731104690E+02  0.36909179621E+03  0.37221678046E+03  0.00000000000E+00 0. -1.
          1    1    1    2  501    0 -0.82090825162E+01  0.25167043095E+02  0.18016632759E+03  0.18210072677E+03  0.00000000000E+00 0. -1.
<mgrwt>
<rscale>  1 0.83674362E+02</rscale>
<asrwt>0</asrwt>
<pdfrwt beam="1">  1       21 0.60638218E-03 0.83674362E+02</pdfrwt>
<pdfrwt beam="2">  1        2 0.11840429E+00 0.83674362E+02</pdfrwt>
<totfact> 0.35756107E+06</totfact>
</mgrwt>
</event>
<event>
 6    2  0.7993170E+000  0.1059243E+03  0.7546771E-02  0.1268309E+00
          2   -1    0    0  502    0 -0.00000000000E+00  0.00000000000E+00  0.63792829770E+02  0.63792829770E+02  0.00000000000E+00 0. -1.
         21   -1    0    0  501  502  0.00000000000E+00 -0.00000000000E+00 -0.26743712269E+03  0.26743712269E+03  0.00000000000E+00 0. -1.
         24    2    1    2    0    0 -0.70374543693E+02  0.10507879676E+02  0.96665232073E+01  0.10636444552E+03  0.78466309104E+02 0.  0.
        -13    1    3    3    0    0  0.10227596397E+02  0.49810241111E+01 -0.17720124903E+02  0.21057472684E+02  0.00000000000E+00 0.  1.
         14    1    3    3    0    0 -0.80602140090E+02  0.55268555645E+01  0.27386648110E+02  0.85306972835E+02  0.00000000000E+00 0. -1.
          1    1    1    2  501    0  0.70374543693E+02 -0.10507879676E+02 -0.21331081613E+03  0.22486550695E+03  0.00000000000E+00 0. -1.
<mgrwt>
<rscale>  1 0.10592428E+03</rscale>
<asrwt>0</asrwt>
<pdfrwt beam="1">  1       21 0.41144173E-01 0.10592428E+03</pdfrwt>
<pdfrwt beam="2">  1        2 0.98142816E-02 0.10592428E+03</pdfrwt>
<totfact> 0.44787391E+04</totfact>
</mgrwt>
</event>
<event>
 6    2  0.7993170E+000  0.9069514E+02  0.7546771E-02  0.1301177E+00
          2   -1    0    0  502    0 -0.00000000000E+00  0.00000000000E+00  0.64543129485E+03  0.64543129485E+03  0.00000000000E+00 0. -1.
         21   -1    0    0  501  502  0.00000000000E+00 -0.00000000000E+00 -0.70640996986E+01  0.70640996986E+01  0.00000000000E+00 0. -1.
         24    2    1    2    0    0  0.41897398669E+02 -0.11340085963E+02  0.46628677550E+03  0.47502522694E+03  0.79634286929E+02 0.  0.
        -11    1    3    3    0    0  0.30679256745E+01  0.31064903068E+02  0.11979630606E+03  0.12379658846E+03  0.00000000000E+00 0.  1.
         12    1    3    3    0    0  0.38829472995E+02 -0.42404989031E+02  0.34649046945E+03  0.35122863847E+03  0.00000000000E+00 0. -1.
          1    1    1    2  501    0 -0.41897398669E+02  0.11340085963E+02  0.17208041965E+03  0.17747016761E+03  0.00000000000E+00 0. -1.
<mgrwt>
<rscale>  1 0.90695144E+02</rscale>
<asrwt>0</asrwt>
<pdfrwt beam="1">  1       21 0.10867851E-02 0.90695144E+02</pdfrwt>
<pdfrwt beam="2">  1        2 0.99297076E-01 0.90695144E+02</pdfrwt>
<totfact> 0.17918942E+06</totfact>
</mgrwt>
</event>
<event>
 6    2  0.7993170E+000  0.9816646E+02  0.7546771E-02  0.1284200E+00
          2   -1    0    0  502    0 -0.00000000000E+00  0.00000000000E+00  0.10593955765E+03  0.10593955765E+03  0.00000000000E+00 0. -1.
         21   -1    0    0  501  502  0.00000000000E+00 -0.00000000000E+00 -0.67883086494E+02  0.67883086494E+02  0.00000000000E+00 0.  1.
         24    2    1    2    0    0 -0.52912849955E+01  0.56012484318E+02 -0.11512799275E+02  0.98839254866E+02  0.80444127561E+02 0.  0.
        -13    1    3    3    0    0  0.32251567214E+01  0.10132275692E+02 -0.41850688951E+02  0.43180375314E+02  0.00000000000E+00 0.  1.
         14    1    3    3    0    0 -0.85164417169E+01  0.45880208625E+02  0.30337889676E+02  0.55658879552E+02  0.00000000000E+00 0. -1.
          1    1    1    2  501    0  0.52912849955E+01 -0.56012484318E+02  0.49569270426E+02  0.74983389273E+02  0.00000000000E+00 0. -1.
<mgrwt>
<rscale>  1 0.98166459E+02</rscale>
<asrwt>0</asrwt>
<pdfrwt beam="1">  1       21 0.10443552E-01 0.98166459E+02</pdfrwt>
<pdfrwt beam="2">  1        2 0.16298393E-01 0.98166459E+02</pdfrwt>
<totfact> 0.30982573E+05</totfact>
</mgrwt>
</event>
<event>
 6    2  0.7993170E+000  0.7186408E+02  0.7546771E-02  0.1353866E+00
         -1   -1    0    0    0  501 -0.00000000000E+00  0.00000000000E+00  0.24226774372E+01  0.24226774372E+01  0.00000000000E+00 0.  1.
         21   -1    0    0  501  502  0.00000000000E+00 -0.00000000000E+00 -0.10941551992E+04  0.10941551992E+04  0.00000000000E+00 0. -1.
         24    2    1    2    0    0 -0.18848761363E+00  0.30209886396E+02 -0.69871349063E+03  0.70239945054E+03  0.65205623795E+02 0.  0.
        -13    1    3    3    0    0  0.20208919330E+02  0.23744436712E+02 -0.14696398064E+03  0.15023518330E+03  0.00000000000E+00 0.  1.
         14    1    3    3    0    0 -0.20397406944E+02  0.64654496833E+01 -0.55174950999E+03  0.55216426725E+03  0.00000000000E+00 0. -1.
         -2    1    1    2    0  502  0.18848761363E+00 -0.30209886396E+02 -0.39301903109E+03  0.39417842605E+03  0.00000000000E+00 0.  1.
<mgrwt>
<rscale>  1 0.71864081E+02</rscale>
<asrwt>0</asrwt>
<pdfrwt beam="1">  1       21 0.16833191E+00 0.71864081E+02</pdfrwt>
<pdfrwt beam="2">  1       -1 0.37271886E-03 0.71864081E+02</pdfrwt>
<totfact> 0.14118728E+05</totfact>
</mgrwt>
</event>
<event>
 6    2  0.7993170E+000  0.8712202E+02  0.7546771E-02  0.1309975E+00
          2   -1    0    0  502    0 -0.00000000000E+00  0.00000000000E+00  0.12115914219E+04  0.12115914219E+04  0.00000000000E+00 0. -1.
         21   -1    0    0  501  502  0.00000000000E+00 -0.00000000000E+00 -0.31981726547E+02  0.31981726547E+02  0.00000000000E+00 0. -1.
         24    2    1    2    0    0  0.95302415382E+01  0.31464747498E+02  0.12011262224E+04  0.12042817145E+04  0.80680790743E+02 0.  0.
        -13    1    3    3    0    0  0.14700928033E+02  0.15472845334E+02  0.73648532001E+02  0.76678761685E+02  0.00000000000E+00 0.  1.
         14    1    3    3    0    0 -0.51706864949E+01  0.15991902164E+02  0.11274776904E+04  0.11276029528E+04  0.00000000000E+00 0. -1.
          1    1    1    2  501    0 -0.95302415382E+01 -0.31464747498E+02 -0.21516527077E+02  0.39291433880E+02  0.00000000000E+00 0. -1.
<mgrwt>
<rscale>  1 0.87122017E+02</rscale>
<asrwt>0</asrwt>
<pdfrwt beam="1">  1       21 0.49202666E-02 0.87122017E+02</pdfrwt>
<pdfrwt beam="2">  1        2 0.18639864E+00 0.87122017E+02</pdfrwt>
<totfact> 0.69819352E+04</totfact>
</mgrwt>
</event>
<event>
 6    2  0.7993170E+000  0.1179942E+03  0.7546771E-02  0.1246443E+00
          2   -1    0    0  502    0 -0.00000000000E+00  0.00000000000E+00  0.63667892611E+03  0.63667892611E+03  0.00000000000E+00 0. -1.
         21   -1    0    0  501  502  0.00000000000E+00 -0.00000000000E+00 -0.17609352219E+02  0.17609352219E+02  0.00000000000E+00 0. -1.
         24    2    1    2    0    0 -0.17847527421E+02 -0.83474005425E+02  0.26513100822E+03  0.29020181595E+03  0.81462866669E+02 0.  0.
        -11    1    3    3    0    0  0.38371724094E+00 -0.41222910346E+01 -0.58988121146E+01  0.72066987351E+01  0.00000000000E+00 0.  1.
         12    1    3    3    0    0 -0.18231244662E+02 -0.79351714390E+02  0.27102982033E+03  0.28299511721E+03  0.00000000000E+00 0. -1.
          1    1    1    2  501    0  0.17847527421E+02  0.83474005425E+02  0.35393856568E+03  0.36408646238E+03  0.00000000000E+00 0. -1.
<mgrwt>
<rscale>  1 0.11799425E+03</rscale>
<asrwt>0</asrwt>
<pdfrwt beam="1">  1       21 0.27091316E-02 0.11799425E+03</pdfrwt>
<pdfrwt beam="2">  1        2 0.97950586E-01 0.11799425E+03</pdfrwt>
<totfact> 0.43246440E+05</totfact>
</mgrwt>
</event>
<event>
 6    2  0.7993170E+000  0.9190157E+02  0.7546771E-02  0.1298311E+00
         21   -1    0    0  501  502  0.00000000000E+00  0.00000000000E+00  0.11159993329E+03  0.11159993329E+03  0.00000000000E+00 0. -1.
         -3   -1    0    0    0  501 -0.00000000000E+00 -0.00000000000E+00 -0.49320413774E+02  0.49320413774E+02  0.00000000000E+00 0.  1.
         24    2    1    2    0    0  0.34267808536E+02  0.21935392307E+02  0.68441357289E+01  0.92156069179E+02  0.82404215639E+02 0.  0.
        -11    1    3    3    0    0 -0.14562841668E+02 -0.50570750593E+01 -0.23908600676E+02  0.28447698534E+02  0.00000000000E+00 0.  1.
         12    1    3    3    0    0  0.48830650204E+02  0.26992467367E+02  0.30752736404E+02  0.63708370645E+02  0.00000000000E+00 0. -1.
         -4    1    1    2    0  502 -0.34267808536E+02 -0.21935392307E+02  0.55435383787E+02  0.68764277886E+02  0.00000000000E+00 0.  1.
<mgrwt>
<rscale>  1 0.91901572E+02</rscale>
<asrwt>0</asrwt>
<pdfrwt beam="1">  1       21 0.17169220E-01 0.91901572E+02</pdfrwt>
<pdfrwt beam="2">  1       -3 0.75877560E-02 0.91901572E+02</pdfrwt>
<totfact> 0.16051990E+05</totfact>
</mgrwt>
</event>
<event>
 6    2  0.7993170E+000  0.8760853E+02  0.7546771E-02  0.1308749E+00
         21   -1    0    0  501  502  0.00000000000E+00  0.00000000000E+00  0.59668891726E+03  0.59668891726E+03  0.00000000000E+00 0.  1.
         -1   -1    0    0    0  501 -0.00000000000E+00 -0.00000000000E+00 -0.82804422299E+01  0.82804422299E+01  0.00000000000E+00 0.  1.
         24    2    1    2    0    0  0.30182242266E+02 -0.22647523430E+02  0.25919999584E+03  0.27360535898E+03  0.79065647101E+02 0.  0.
        -11    1    3    3    0    0  0.46828920855E+02 -0.64967954520E+01  0.80114362255E+02  0.93024014207E+02  0.00000000000E+00 0.  1.
         12    1    3    3    0    0 -0.16646678589E+02 -0.16150727978E+02  0.17908563359E+03  0.18058134477E+03  0.00000000000E+00 0. -1.
         -2    1    1    2    0  502 -0.30182242266E+02  0.22647523430E+02  0.32920847919E+03  0.33136400051E+03  0.00000000000E+00 0.  1.
<mgrwt>
<rscale>  1 0.87608531E+02</rscale>
<asrwt>0</asrwt>
<pdfrwt beam="1">  1       21 0.91798261E-01 0.87608531E+02</pdfrwt>
<pdfrwt beam="2">  1       -1 0.12739147E-02 0.87608531E+02</pdfrwt>
<totfact> 0.11133809E+05</totfact>
</mgrwt>
</event>
<event>
 6    2  0.7993170E+000  0.8974264E+02  0.7546771E-02  0.1303476E+00
         -1   -1    0    0    0  501 -0.00000000000E+00  0.00000000000E+00  0.60991390892E+03  0.60991390892E+03  0.00000000000E+00 0.  1.
         21   -1    0    0  501  502  0.00000000000E+00 -0.00000000000E+00 -0.11614098136E+02  0.11614098136E+02  0.00000000000E+00 0.  1.
         24    2    1    2    0    0  0.46069248309E+02 -0.10554778199E+02  0.18589264141E+03  0.20642145166E+03  0.76288679321E+02 0.  0.
        -13    1    3    3    0    0  0.60927292937E+02  0.88992894245E+01  0.10311416551E+03  0.12009939012E+03  0.00000000000E+00 0.  1.
         14    1    3    3    0    0 -0.14858044628E+02 -0.19454067624E+02  0.82778475901E+02  0.86322061547E+02  0.00000000000E+00 0. -1.
         -2    1    1    2    0  502 -0.46069248309E+02  0.10554778199E+02  0.41240716937E+03  0.41510655540E+03  0.00000000000E+00 0.  1.
<mgrwt>
<rscale>  1 0.89742641E+02</rscale>
<asrwt>0</asrwt>
<pdfrwt beam="1">  1       21 0.17867848E-02 0.89742641E+02</pdfrwt>
<pdfrwt beam="2">  1       -1 0.93832884E-01 0.89742641E+02</pdfrwt>
<totfact> 0.15380131E+05</totfact>
</mgrwt>
</event>
<event>
 6    2  0.7993170E+000  0.8401471E+02  0.7546771E-02  0.1318029E+00
         21   -1    0    0  501  502  0.00000000000E+00  0.00000000000E+00  0.17350872256E+03  0.17350872256E+03  0.00000000000E+00 0. -1.
          2   -1    0    0  502    0 -0.00000000000E+00 -0.00000000000E+00 -0.12827561615E+03  0.12827561615E+03  0.00000000000E+00 0. -1.
         24    2    1    2    0    0 -0.19689292022E+02 -0.27747458460E+02 -0.11250807768E+03  0.14041559691E+03  0.76817202775E+02 0.  0.
        -11    1    3    3    0    0  0.16914718470E+02 -0.73809152239E+01  0.19265937055E+01  0.18555251918E+02  0.00000000000E+00 0.  1.
         12    1    3    3    0    0 -0.36604010492E+02 -0.20366543236E+02 -0.11443467138E+03  0.12186034499E+03  0.00000000000E+00 0. -1.
          1    1    1    2  501    0  0.19689292022E+02  0.27747458460E+02  0.15774118409E+03  0.16136874179E+03  0.00000000000E+00 0. -1.
<mgrwt>
<rscale>  1 0.84014715E+02</rscale>
<asrwt>0</asrwt>
<pdfrwt beam="1">  1       21 0.26693650E-01 0.84014715E+02</pdfrwt>
<pdfrwt beam="2">  1        2 0.19734710E-01 0.84014715E+02</pdfrwt>
<totfact> 0.45512830E+04</totfact>
</mgrwt>
</event>
<event>
 6    2  0.7993170E+000  0.9458054E+02  0.7546771E-02  0.1292124E+00
          2   -1    0    0  502    0 -0.00000000000E+00  0.00000000000E+00  0.20002739602E+03  0.20002739602E+03  0.00000000000E+00 0. -1.
         21   -1    0    0  501  502  0.00000000000E+00 -0.00000000000E+00 -0.28691001863E+02  0.28691001863E+02  0.00000000000E+00 0.  1.
         24    2    1    2    0    0 -0.46001637865E+02 -0.21122086952E+02  0.78228741768E+02  0.12274043708E+03  0.79894840955E+02 0.  0.
        -11    1    3    3    0    0 -0.62593261300E+02 -0.77769450770E+00  0.33813286846E+02  0.71146746491E+02  0.00000000000E+00 0.  1.
         12    1    3    3    0    0  0.16591623435E+02 -0.20344392445E+02  0.44415454922E+02  0.51593690584E+02  0.00000000000E+00 0. -1.
          1    1    1    2  501    0  0.46001637865E+02  0.21122086952E+02  0.93107652385E+02  0.10597796080E+03  0.00000000000E+00 0. -1.
<mgrwt>
<rscale>  1 0.94580542E+02</rscale>
<asrwt>0</asrwt>
<pdfrwt beam="1">  1       21 0.44140004E-02 0.94580542E+02</pdfrwt>
<pdfrwt beam="2">  1        2 0.30773445E-01 0.94580542E+02</pdfrwt>
<totfact> 0.65911652E+05</totfact>
</mgrwt>
</event>
<event>
 6    2  0.7993170E+000  0.9032400E+02  0.7546771E-02  0.1302069E+00
         21   -1    0    0  501  502  0.00000000000E+00  0.00000000000E+00  0.24990210964E+03  0.24990210964E+03  0.00000000000E+00 0.  1.
         -1   -1    0    0    0  501 -0.00000000000E+00 -0.00000000000E+00 -0.25015768958E+03  0.25015768958E+03  0.00000000000E+00 0.  1.
         24    2    1    2    0    0  0.11654133707E+02 -0.38299407155E+02 -0.24029228039E+03  0.25670762441E+03  0.80967653999E+02 0.  0.
        -13    1    3    3    0    0  0.34337787134E+01 -0.46477047295E+02 -0.24063605195E+03  0.24510735660E+03  0.00000000000E+00 0.  1.
         14    1    3    3    0    0  0.82203549933E+01  0.81776401395E+01  0.34377155551E+00  0.11600267814E+02  0.00000000000E+00 0. -1.
         -2    1    1    2    0  502 -0.11654133707E+02  0.38299407155E+02  0.24003670045E+03  0.24335217481E+03  0.00000000000E+00 0.  1.
<mgrwt>
<rscale>  1 0.90323997E+02</rscale>
<asrwt>0</asrwt>
<pdfrwt beam="1">  1       21 0.38446478E-01 0.90323997E+02</pdfrwt>
<pdfrwt beam="2">  1       -1 0.38485799E-01 0.90323997E+02</pdfrwt>
<totfact> 0.40727767E+03</totfact>
</mgrwt>
</event>
<event>
 6    2  0.7993170E+000  0.8774785E+02  0.7546771E-02  0.1308399E+00
         21   -1    0    0  501  502  0.00000000000E+00  0.00000000000E+00  0.16794369406E+01  0.16794369406E+01  0.00000000000E+00 0.  1.
          2   -1    0    0  502    0 -0.00000000000E+00 -0.00000000000E+00 -0.22955581779E+04  0.22955581779E+04  0.00000000000E+00 0. -1.
         24    2    1    2    0    0 -0.10748365661E+01  0.36294972624E+02 -0.15751164542E+04  0.15775587245E+04  0.79882442960E+02 0.  0.
        -13    1    3    3    0    0 -0.57904097357E+01  0.91035415413E+01 -0.25398396091E+02  0.27594960364E+02  0.00000000000E+00 0.  1.
         14    1    3    3    0    0  0.47155731696E+01  0.27191431082E+02 -0.15497180581E+04  0.15499637641E+04  0.00000000000E+00 0. -1.
          1    1    1    2  501    0  0.10748365661E+01 -0.36294972624E+02 -0.71876228680E+03  0.71967889036E+03  0.00000000000E+00 0. -1.
<mgrwt>
<rscale>  1 0.87747849E+02</rscale>
<asrwt>0</asrwt>
<pdfrwt beam="1">  1       21 0.25837418E-03 0.87747849E+02</pdfrwt>
<pdfrwt beam="2">  1        2 0.35316380E+00 0.87747849E+02</pdfrwt>
<totfact> 0.20190811E+06</totfact>
</mgrwt>
</event>
<event>
 6    2  0.7993170E+000  0.2053091E+03  0.7546771E-02  0.1145335E+00
          2   -1    0    0  502    0 -0.00000000000E+00  0.00000000000E+00  0.45419617376E+03  0.45419617376E+03  0.00000000000E+00 0. -1.
         21   -1    0    0  501  502  0.00000000000E+00 -0.00000000000E+00 -0.13040621547E+03  0.13040621547E+03  0.00000000000E+00 0. -1.
         24    2    1    2    0    0  0.47393596290E+02  0.18384552910E+03 -0.45094441778E+01  0.20535862962E+03  0.78144098512E+02 0.  0.
        -13    1    3    3    0    0  0.31976228456E+02  0.78473718686E+02 -0.39187516915E+02  0.93360940402E+02  0.00000000000E+00 0.  1.
         14    1    3    3    0    0  0.15417367833E+02  0.10537181042E+03  0.34678072737E+02  0.11199768922E+03  0.00000000000E+00 0. -1.
          1    1    1    2  501    0 -0.47393596290E+02 -0.18384552910E+03  0.32829940246E+03  0.37924375961E+03  0.00000000000E+00 0. -1.
<mgrwt>
<rscale>  1 0.20530911E+03</rscale>
<asrwt>0</asrwt>
<pdfrwt beam="1">  1       21 0.20062495E-01 0.20530911E+03</pdfrwt>
<pdfrwt beam="2">  1        2 0.69876333E-01 0.20530911E+03</pdfrwt>
<totfact> 0.19851432E+04</totfact>
</mgrwt>
</event>
<event>
 6    2  0.7993170E+000  0.8457328E+02  0.7546771E-02  0.1316552E+00
         -3   -1    0    0    0  501 -0.00000000000E+00  0.00000000000E+00  0.22230400492E+02  0.22230400492E+02  0.00000000000E+00 0.  1.
         21   -1    0    0  501  502  0.00000000000E+00 -0.00000000000E+00 -0.15089359527E+03  0.15089359527E+03  0.00000000000E+00 0.  1.
         24    2    1    2    0    0  0.23838646250E+02  0.14518435042E+02 -0.76864666031E+02  0.11428392785E+03  0.79834662087E+02 0.  0.
        -13    1    3    3    0    0  0.13706062207E+02 -0.12249741638E+02  0.11308080119E+02  0.21582052437E+02  0.00000000000E+00 0.  1.
         14    1    3    3    0    0  0.10132584043E+02  0.26768176680E+02 -0.88172746150E+02  0.92701875416E+02  0.00000000000E+00 0. -1.
         -4    1    1    2    0  502 -0.23838646250E+02 -0.14518435042E+02 -0.51798528748E+02  0.58840067909E+02  0.00000000000E+00 0.  1.
<mgrwt>
<rscale>  1 0.84573278E+02</rscale>
<asrwt>0</asrwt>
<pdfrwt beam="1">  1       21 0.23214399E-01 0.84573278E+02</pdfrwt>
<pdfrwt beam="2">  1       -3 0.34200617E-02 0.84573278E+02</pdfrwt>
<totfact> 0.31865483E+05</totfact>
</mgrwt>
</event>
<event>
 6    2  0.7993170E+000  0.9495248E+02  0.7546771E-02  0.1291283E+00
          2   -1    0    0  502    0 -0.00000000000E+00  0.00000000000E+00  0.20018345768E+03  0.20018345768E+03  0.00000000000E+00 0. -1.
         21   -1    0    0  501  502  0.00000000000E+00 -0.00000000000E+00 -0.20951652934E+02  0.20951652934E+02  0.00000000000E+00 0.  1.
         24    2    1    2    0    0  0.26338809381E+02 -0.17844895148E+02  0.15218527794E+03  0.17937762296E+03  0.89463957191E+02 0.  0.
        -11    1    3    3    0    0  0.57729686124E+02 -0.13219380375E+02  0.72547296153E+02  0.93651368685E+02  0.00000000000E+00 0.  1.
         12    1    3    3    0    0 -0.31390876744E+02 -0.46255147725E+01  0.79637981786E+02  0.85726254278E+02  0.00000000000E+00 0. -1.
          1    1    1    2  501    0 -0.26338809381E+02  0.17844895148E+02  0.27046526804E+02  0.41757487647E+02  0.00000000000E+00 0. -1.
<mgrwt>
<rscale>  1 0.94952477E+02</rscale>
<asrwt>0</asrwt>
<pdfrwt beam="1">  1       21 0.32233314E-02 0.94952477E+02</pdfrwt>
<pdfrwt beam="2">  1        2 0.30797454E-01 0.94952477E+02</pdfrwt>
<totfact> 0.11046650E+06</totfact>
</mgrwt>
</event>
<event>
 6    2  0.7993170E+000  0.8473857E+02  0.7546771E-02  0.1316118E+00
         21   -1    0    0  501  502  0.00000000000E+00  0.00000000000E+00  0.10247338184E+02  0.10247338184E+02  0.00000000000E+00 0.  1.
          2   -1    0    0  502    0 -0.00000000000E+00 -0.00000000000E+00 -0.35448774687E+03  0.35448774687E+03  0.00000000000E+00 0. -1.
         24    2    1    2    0    0  0.10146331971E+02 -0.32488820991E+02 -0.27167763887E+03  0.28458630400E+03  0.77602534869E+02 0.  0.
        -13    1    3    3    0    0 -0.29958861061E+02 -0.32849154804E+02 -0.13373111910E+03  0.14092768551E+03  0.00000000000E+00 0.  1.
         14    1    3    3    0    0  0.40105193032E+02  0.36033381303E+00 -0.13794651977E+03  0.14365861849E+03  0.00000000000E+00 0. -1.
          1    1    1    2  501    0 -0.10146331971E+02  0.32488820991E+02 -0.72562769814E+02  0.80148781057E+02  0.00000000000E+00 0. -1.
<mgrwt>
<rscale>  1 0.84738568E+02</rscale>
<asrwt>0</asrwt>
<pdfrwt beam="1">  1       21 0.15765137E-02 0.84738568E+02</pdfrwt>
<pdfrwt beam="2">  1        2 0.54536572E-01 0.84738568E+02</pdfrwt>
<totfact> 0.18884539E+06</totfact>
</mgrwt>
</event>
<event>
 6    2  0.7993170E+000  0.8835125E+02  0.7546771E-02  0.1306894E+00
         -1   -1    0    0    0  501 -0.00000000000E+00  0.00000000000E+00  0.13838180552E+03  0.13838180552E+03  0.00000000000E+00 0.  1.
         21   -1    0    0  501  502  0.00000000000E+00 -0.00000000000E+00 -0.13112959125E+03  0.13112959125E+03  0.00000000000E+00 0.  1.
         24    2    1    2    0    0  0.30400655745E+02 -0.10159018787E+01  0.12209492213E+03  0.15070870540E+03  0.82950056945E+02 0.  0.
        -11    1    3    3    0    0 -0.34055909952E+01  0.25338289077E+02  0.98531008235E+02  0.10179384327E+03  0.00000000000E+00 0.  1.
         12    1    3    3    0    0  0.33806246740E+02 -0.26354190955E+02  0.23563913898E+02  0.48914862136E+02  0.00000000000E+00 0. -1.
         -2    1    1    2    0  502 -0.30400655745E+02  0.10159018787E+01 -0.11484270786E+03  0.11880269136E+03  0.00000000000E+00 0.  1.
<mgrwt>
<rscale>  1 0.88351253E+02</rscale>
<asrwt>0</asrwt>
<pdfrwt beam="1">  1       21 0.20173783E-01 0.88351253E+02</pdfrwt>
<pdfrwt beam="2">  1       -1 0.21289509E-01 0.88351253E+02</pdfrwt>
<totfact> 0.36800456E+04</totfact>
</mgrwt>
</event>
<event>
 6    2  0.7993170E+000  0.1537626E+03  0.7546771E-02  0.1195924E+00
         21   -1    0    0  501  502  0.00000000000E+00  0.00000000000E+00  0.26630986507E+03  0.26630986507E+03  0.00000000000E+00 0. -1.
          2   -1    0    0  502    0 -0.00000000000E+00 -0.00000000000E+00 -0.20793130705E+03  0.20793130705E+03  0.00000000000E+00 0. -1.
         24    2    1    2    0    0 -0.11736956275E+03 -0.60117970558E+02  0.21826567299E+03  0.26698849017E+03  0.79076957661E+02 0.  0.
        -11    1    3    3    0    0  0.58061317133E+01  0.10247230447E+02  0.19783266507E+02  0.23023781856E+02  0.00000000000E+00 0.  1.
         12    1    3    3    0    0 -0.12317569446E+03 -0.70365201005E+02  0.19848240649E+03  0.24396470831E+03  0.00000000000E+00 0. -1.
          1    1    1    2  501    0  0.11736956275E+03  0.60117970558E+02 -0.15988711498E+03  0.20725268196E+03  0.00000000000E+00 0. -1.
<mgrwt>
<rscale>  1 0.15376264E+03</rscale>
<asrwt>0</asrwt>
<pdfrwt beam="1">  1       21 0.40970748E-01 0.15376264E+03</pdfrwt>
<pdfrwt beam="2">  1        2 0.31989432E-01 0.15376264E+03</pdfrwt>
<totfact> 0.11635297E+04</totfact>
</mgrwt>
</event>
<event>
 6    2  0.7993170E+000  0.9616007E+02  0.7546771E-02  0.1288584E+00
          2   -1    0    0  502    0 -0.00000000000E+00  0.00000000000E+00  0.67701070805E+03  0.67701070805E+03  0.00000000000E+00 0. -1.
         21   -1    0    0  501  502  0.00000000000E+00 -0.00000000000E+00 -0.20474939984E+02  0.20474939984E+02  0.00000000000E+00 0. -1.
         24    2    1    2    0    0 -0.12251403518E+02  0.43141334945E+02  0.64369278480E+03  0.65083574033E+03  0.85061671908E+02 0.  0.
        -13    1    3    3    0    0  0.22412905141E+02 -0.52597693768E+01  0.62560986449E+02  0.66662437071E+02  0.00000000000E+00 0.  1.
         14    1    3    3    0    0 -0.34664308659E+02  0.48401104322E+02  0.58113179835E+03  0.58417330326E+03  0.00000000000E+00 0. -1.
          1    1    1    2  501    0  0.12251403518E+02 -0.43141334945E+02  0.12842983266E+02  0.46649907697E+02  0.00000000000E+00 0. -1.
<mgrwt>
<rscale>  1 0.96160073E+02</rscale>
<asrwt>0</asrwt>
<pdfrwt beam="1">  1       21 0.31499913E-02 0.96160073E+02</pdfrwt>
<pdfrwt beam="2">  1        2 0.10415548E+00 0.96160073E+02</pdfrwt>
<totfact> 0.31133025E+05</totfact>
</mgrwt>
</event>
<event>
 6    2  0.7993170E+000  0.9108161E+02  0.7546771E-02  0.1300253E+00
         21   -1    0    0  501  502  0.00000000000E+00  0.00000000000E+00  0.34973847262E+02  0.34973847262E+02  0.00000000000E+00 0.  1.
          4   -1    0    0  502    0 -0.00000000000E+00 -0.00000000000E+00 -0.16862246863E+03  0.16862246863E+03  0.00000000000E+00 0. -1.
         24    2    1    2    0    0  0.10571023868E+02 -0.40808320681E+02 -0.13329242243E+03  0.16143955534E+03  0.80739052303E+02 0.  0.
        -13    1    3    3    0    0 -0.14146886745E+02 -0.55812078555E+02 -0.62547683796E+02  0.85013735746E+02  0.00000000000E+00 0.  1.
         14    1    3    3    0    0  0.24717910613E+02  0.15003757873E+02 -0.70744738637E+02  0.76425819592E+02  0.00000000000E+00 0. -1.
          3    1    1    2  501    0 -0.10571023868E+02  0.40808320681E+02 -0.35619893126E+00  0.42156760551E+02  0.00000000000E+00 0. -1.
<mgrwt>
<rscale>  1 0.91081613E+02</rscale>
<asrwt>0</asrwt>
<pdfrwt beam="1">  1       21 0.53805918E-02 0.91081613E+02</pdfrwt>
<pdfrwt beam="2">  1        4 0.25941919E-01 0.91081613E+02</pdfrwt>
<totfact> 0.12504818E+05</totfact>
</mgrwt>
</event>
<event>
 6    2  0.7993170E+000  0.8079974E+02  0.7546771E-02  0.1326797E+00
         21   -1    0    0  501  502  0.00000000000E+00  0.00000000000E+00  0.59950446958E+02  0.59950446958E+02  0.00000000000E+00 0. -1.
          2   -1    0    0  502    0 -0.00000000000E+00 -0.00000000000E+00 -0.80531433349E+02  0.80531433349E+02  0.00000000000E+00 0. -1.
         24    2    1    2    0    0 -0.10080389498E+02  0.18786638827E+02 -0.56582022178E+02  0.98641390007E+02  0.77936169639E+02 0.  0.
        -11    1    3    3    0    0  0.36841873235E+01 -0.13306667890E+01  0.18910080894E+02  0.19311526863E+02  0.00000000000E+00 0.  1.
         12    1    3    3    0    0 -0.13764576821E+02  0.20117305616E+02 -0.75492103072E+02  0.79329863144E+02  0.00000000000E+00 0. -1.
          1    1    1    2  501    0  0.10080389498E+02 -0.18786638827E+02  0.36001035786E+02  0.41840490300E+02  0.00000000000E+00 0. -1.
<mgrwt>
<rscale>  1 0.80799744E+02</rscale>
<asrwt>0</asrwt>
<pdfrwt beam="1">  1       21 0.92231457E-02 0.80799744E+02</pdfrwt>
<pdfrwt beam="2">  1        2 0.12389451E-01 0.80799744E+02</pdfrwt>
<totfact> 0.51954739E+05</totfact>
</mgrwt>
</event>
<event>
 6    2  0.7993170E+000  0.9100173E+02  0.7546771E-02  0.1300444E+00
          4   -1    0    0  502    0 -0.00000000000E+00  0.00000000000E+00  0.75696017303E+01  0.75696017303E+01  0.00000000000E+00 0. -1.
         21   -1    0    0  501  502  0.00000000000E+00 -0.00000000000E+00 -0.59065592730E+03  0.59065592730E+03  0.00000000000E+00 0. -1.
         24    2    1    2    0    0 -0.14441334147E+02  0.39594829734E+02 -0.42357053992E+03  0.43323586709E+03  0.80653651976E+02 0.  0.
        -11    1    3    3    0    0 -0.20583367543E+01 -0.84954072901E+01 -0.29906113101E+03  0.29918885136E+03  0.00000000000E+00 0.  1.
         12    1    3    3    0    0 -0.12382997393E+02  0.48090237024E+02 -0.12450940890E+03  0.13404701573E+03  0.00000000000E+00 0. -1.
          3    1    1    2  501    0  0.14441334147E+02 -0.39594829734E+02 -0.15951578565E+03  0.16498966194E+03  0.00000000000E+00 0. -1.
<mgrwt>
<rscale>  1 0.91001727E+02</rscale>
<asrwt>0</asrwt>
<pdfrwt beam="1">  1       21 0.90870162E-01 0.91001727E+02</pdfrwt>
<pdfrwt beam="2">  1        4 0.11645539E-02 0.91001727E+02</pdfrwt>
<totfact> 0.93118492E+04</totfact>
</mgrwt>
</event>
<event>
 6    2  0.7993170E+000  0.9754957E+02  0.7546771E-02  0.1285535E+00
          2   -1    0    0  502    0 -0.00000000000E+00  0.00000000000E+00  0.11544890388E+04  0.11544890388E+04  0.00000000000E+00 0. -1.
         21   -1    0    0  501  502  0.00000000000E+00 -0.00000000000E+00 -0.68033455704E+01  0.68033455704E+01  0.00000000000E+00 0. -1.
         24    2    1    2    0    0  0.21655352206E+02  0.49009059470E+02  0.98912273959E+03  0.99392138193E+03  0.81517343580E+02 0.  0.
        -13    1    3    3    0    0 -0.28534099855E+02  0.83202541371E+01  0.20532580361E+03  0.20746591795E+03  0.00000000000E+00 0.  1.
         14    1    3    3    0    0  0.50189452061E+02  0.40688805333E+02  0.78379693598E+03  0.78645546398E+03  0.00000000000E+00 0. -1.
          1    1    1    2  501    0 -0.21655352206E+02 -0.49009059470E+02  0.15856295364E+03  0.16737100243E+03  0.00000000000E+00 0. -1.
<mgrwt>
<rscale>  1 0.97549575E+02</rscale>
<asrwt>0</asrwt>
<pdfrwt beam="1">  1       21 0.10466695E-02 0.97549575E+02</pdfrwt>
<pdfrwt beam="2">  1        2 0.17761354E+00 0.97549575E+02</pdfrwt>
<totfact> 0.91085011E+05</totfact>
</mgrwt>
</event>
<event>
 6    2  0.7993170E+000  0.8236739E+02  0.7546771E-02  0.1322464E+00
         -1   -1    0    0    0  501 -0.00000000000E+00  0.00000000000E+00  0.33151172115E+03  0.33151172115E+03  0.00000000000E+00 0.  1.
         21   -1    0    0  501  502  0.00000000000E+00 -0.00000000000E+00 -0.89747895781E+01  0.89747895781E+01  0.00000000000E+00 0.  1.
         24    2    1    2    0    0 -0.12970371196E+02  0.18954697616E+02  0.28320444384E+03  0.29493922012E+03  0.79100413798E+02 0.  0.
        -11    1    3    3    0    0 -0.38511482042E+02  0.23850409778E+02  0.24208094881E+03  0.24628268731E+03  0.00000000000E+00 0.  1.
         12    1    3    3    0    0  0.25541110845E+02 -0.48957121616E+01  0.41123495031E+02  0.48656532803E+02  0.00000000000E+00 0. -1.
         -2    1    1    2    0  502  0.12970371196E+02 -0.18954697616E+02  0.39332487735E+02  0.45547290613E+02  0.00000000000E+00 0.  1.
<mgrwt>
<rscale>  1 0.82367388E+02</rscale>
<asrwt>0</asrwt>
<pdfrwt beam="1">  1       21 0.13807371E-02 0.82367388E+02</pdfrwt>
<pdfrwt beam="2">  1       -1 0.51001794E-01 0.82367388E+02</pdfrwt>
<totfact> 0.75420565E+05</totfact>
</mgrwt>
</event>
<event>
 6    2  0.7993170E+000  0.8776548E+02  0.7546771E-02  0.1308355E+00
         -3   -1    0    0    0  501 -0.00000000000E+00  0.00000000000E+00  0.47124046033E+02  0.47124046033E+02  0.00000000000E+00 0.  1.
         21   -1    0    0  501  502  0.00000000000E+00 -0.00000000000E+00 -0.10638884732E+03  0.10638884732E+03  0.00000000000E+00 0. -1.
         24    2    1    2    0    0  0.13150586925E+02 -0.28209224039E+02 -0.13628782755E+01  0.87776062384E+02  0.82061449129E+02 0.  0.
        -11    1    3    3    0    0  0.15619553650E+02 -0.56208511312E+02  0.62041959039E+01  0.58667361002E+02  0.00000000000E+00 0.  1.
         12    1    3    3    0    0 -0.24689667251E+01  0.27999287273E+02 -0.75670741794E+01  0.29108701382E+02  0.00000000000E+00 0. -1.
         -4    1    1    2    0  502 -0.13150586925E+02  0.28209224039E+02 -0.57901923016E+02  0.65736830972E+02  0.00000000000E+00 0.  1.
<mgrwt>
<rscale>  1 0.87765481E+02</rscale>
<asrwt>0</asrwt>
<pdfrwt beam="1">  1       21 0.16367515E-01 0.87765481E+02</pdfrwt>
<pdfrwt beam="2">  1       -3 0.72498532E-02 0.87765481E+02</pdfrwt>
<totfact> 0.18694652E+05</totfact>
</mgrwt>
</event>
<event>
 6    2  0.7993170E+000  0.8354749E+02  0.7546771E-02  0.1319275E+00
         -1   -1    0    0    0  501 -0.00000000000E+00  0.00000000000E+00  0.46901680249E+02  0.46901680249E+02  0.00000000000E+00 0.  1.
         21   -1    0    0  501  502  0.00000000000E+00 -0.00000000000E+00 -0.60151380378E+02  0.60151380378E+02  0.00000000000E+00 0. -1.
         24    2    1    2    0    0  0.97543231645E+01  0.18051255566E+02 -0.19128566287E+02  0.85709309428E+02  0.80988820380E+02 0.  0.
        -13    1    3    3    0    0  0.70400699568E+01 -0.13029415679E+02  0.26545127961E+02  0.30396908994E+02  0.00000000000E+00 0.  1.
         14    1    3    3    0    0  0.27142532076E+01  0.31080671244E+02 -0.45673694248E+02  0.55312400434E+02  0.00000000000E+00 0. -1.
         -2    1    1    2    0  502 -0.97543231645E+01 -0.18051255566E+02  0.58788661576E+01  0.21343751198E+02  0.00000000000E+00 0.  1.
<mgrwt>
<rscale>  1 0.83547494E+02</rscale>
<asrwt>0</asrwt>
<pdfrwt beam="1">  1       21 0.92540586E-02 0.83547494E+02</pdfrwt>
<pdfrwt beam="2">  1       -1 0.72156431E-02 0.83547494E+02</pdfrwt>
<totfact> 0.76368664E+05</totfact>
</mgrwt>
</event>
<event>
 6    2  0.7993170E+000  0.6925367E+02  0.7546771E-02  0.1362650E+00
         -1   -1    0    0    0  501 -0.00000000000E+00  0.00000000000E+00  0.32385842907E+03  0.32385842907E+03  0.00000000000E+00 0.  1.
         21   -1    0    0  501  502  0.00000000000E+00 -0.00000000000E+00 -0.15602354662E+02  0.15602354662E+02  0.00000000000E+00 0.  1.
         24    2    1    2    0    0  0.57961224497E+01  0.21103987950E+02  0.30987128477E+03  0.31751580145E+03  0.65704624665E+02 0.  0.
        -13    1    3    3    0    0  0.20064095227E+02  0.38605220002E+02  0.24484663867E+03  0.24868214129E+03  0.00000000000E+00 0.  1.
         14    1    3    3    0    0 -0.14267972777E+02 -0.17501232052E+02  0.65024646103E+02  0.68833660162E+02  0.00000000000E+00 0. -1.
         -2    1    1    2    0  502 -0.57961224497E+01 -0.21103987950E+02 -0.16152103626E+01  0.21944982282E+02  0.00000000000E+00 0.  1.
<mgrwt>
<rscale>  1 0.69253672E+02</rscale>
<asrwt>0</asrwt>
<pdfrwt beam="1">  1       21 0.24003625E-02 0.69253672E+02</pdfrwt>
<pdfrwt beam="2">  1       -1 0.49824369E-01 0.69253672E+02</pdfrwt>
<totfact> 0.32065985E+05</totfact>
</mgrwt>
</event>
<event>
 6    2  0.7993170E+000  0.8998420E+02  0.7546771E-02  0.1302890E+00
         21   -1    0    0  501  502  0.00000000000E+00  0.00000000000E+00  0.98400673985E+01  0.98400673985E+01  0.00000000000E+00 0. -1.
         -3   -1    0    0    0  501 -0.00000000000E+00 -0.00000000000E+00 -0.61544144763E+03  0.61544144763E+03  0.00000000000E+00 0.  1.
         24    2    1    2    0    0 -0.30856232405E+02  0.19416062522E+02 -0.55858613895E+03  0.56578762059E+03  0.82268258945E+02 0.  0.
        -11    1    3    3    0    0  0.24332563356E+02 -0.10233805485E+02 -0.13065926322E+03  0.13329909032E+03  0.00000000000E+00 0.  1.
         12    1    3    3    0    0 -0.55188795760E+02  0.29649868007E+02 -0.42792687573E+03  0.43248853028E+03  0.00000000000E+00 0. -1.
         -4    1    1    2    0  502  0.30856232405E+02 -0.19416062522E+02 -0.47015241282E+02  0.59493894434E+02  0.00000000000E+00 0.  1.
<mgrwt>
<rscale>  1 0.89984204E+02</rscale>
<asrwt>0</asrwt>
<pdfrwt beam="1">  1       21 0.15138565E-02 0.89984204E+02</pdfrwt>
<pdfrwt beam="2">  1       -3 0.94683302E-01 0.89984204E+02</pdfrwt>
<totfact> 0.89575039E+04</totfact>
</mgrwt>
</event>
<event>
 6    2  0.7993170E+000  0.7284980E+02  0.7546771E-02  0.1350662E+00
          2   -1    0    0  502    0 -0.00000000000E+00  0.00000000000E+00  0.15183902298E+03  0.15183902298E+03  0.00000000000E+00 0. -1.
         21   -1    0    0  501  502  0.00000000000E+00 -0.00000000000E+00 -0.18393302530E+02  0.18393302530E+02  0.00000000000E+00 0.  1.
         24    2    1    2    0    0 -0.26912147014E+02  0.18081974023E+02  0.99162172668E+02  0.12304564211E+03  0.65237045559E+02 0.  0.
        -13    1    3    3    0    0 -0.13820806938E+02 -0.70698547277E+01 -0.40218229374E+01  0.16036602197E+02  0.00000000000E+00 0.  1.
         14    1    3    3    0    0 -0.13091340076E+02  0.25151828751E+02  0.10318399561E+03  0.10700903991E+03  0.00000000000E+00 0. -1.
          1    1    1    2  501    0  0.26912147014E+02 -0.18081974023E+02  0.34283547781E+02  0.47186683396E+02  0.00000000000E+00 0. -1.
<mgrwt>
<rscale>  1 0.72849801E+02</rscale>
<asrwt>0</asrwt>
<pdfrwt beam="1">  1       21 0.28297389E-02 0.72849801E+02</pdfrwt>
<pdfrwt beam="2">  1        2 0.23359849E-01 0.72849801E+02</pdfrwt>
<totfact> 0.17806235E+06</totfact>
</mgrwt>
</event>
<event>
 6    2  0.7993170E+000  0.9160891E+02  0.7546771E-02  0.1299002E+00
         21   -1    0    0  501  502  0.00000000000E+00  0.00000000000E+00  0.49441718325E+02  0.49441718325E+02  0.00000000000E+00 0. -1.
          2   -1    0    0  502    0 -0.00000000000E+00 -0.00000000000E+00 -0.10409264988E+03  0.10409264988E+03  0.00000000000E+00 0. -1.
         24    2    1    2    0    0  0.42280779271E+02 -0.17843974904E+02 -0.14884856256E+02  0.92810299826E+02  0.79285062098E+02 0.  0.
        -11    1    3    3    0    0 -0.22432954108E+01  0.22318110127E+02  0.13805209123E+02  0.26338455021E+02  0.00000000000E+00 0.  1.
         12    1    3    3    0    0  0.44524074681E+02 -0.40162085031E+02 -0.28690065380E+02  0.66471844805E+02  0.00000000000E+00 0. -1.
          1    1    1    2  501    0 -0.42280779271E+02  0.17843974904E+02 -0.39766075303E+02  0.60724068384E+02  0.00000000000E+00 0. -1.
<mgrwt>
<rscale>  1 0.91608912E+02</rscale>
<asrwt>0</asrwt>
<pdfrwt beam="1">  1       21 0.76064182E-02 0.91608912E+02</pdfrwt>
<pdfrwt beam="2">  1        2 0.16014254E-01 0.91608912E+02</pdfrwt>
<totfact> 0.54261103E+05</totfact>
</mgrwt>
</event>
<event>
 6    2  0.7993170E+000  0.1420162E+03  0.7546771E-02  0.1210642E+00
         21   -1    0    0  501  502  0.00000000000E+00  0.00000000000E+00  0.93769187292E+02  0.93769187292E+02  0.00000000000E+00 0.  1.
         -3   -1    0    0    0  501 -0.00000000000E+00 -0.00000000000E+00 -0.19195915818E+03  0.19195915818E+03  0.00000000000E+00 0.  1.
         24    2    1    2    0    0  0.11443099656E+03 -0.42946372193E+02 -0.77431234305E+02  0.16175347301E+03  0.72316983659E+02 0.  0.
        -11    1    3    3    0    0  0.81758743685E+02 -0.19625443178E+02 -0.86466951637E+02  0.12060756160E+03  0.00000000000E+00 0.  1.
         12    1    3    3    0    0  0.32672252873E+02 -0.23320929015E+02  0.90357173325E+01  0.41145911409E+02  0.00000000000E+00 0. -1.
         -4    1    1    2    0  502 -0.11443099656E+03  0.42946372193E+02 -0.20758736580E+02  0.12397487246E+03  0.00000000000E+00 0.  1.
<mgrwt>
<rscale>  1 0.14201616E+03</rscale>
<asrwt>0</asrwt>
<pdfrwt beam="1">  1       21 0.14426029E-01 0.14201616E+03</pdfrwt>
<pdfrwt beam="2">  1       -3 0.29532178E-01 0.14201616E+03</pdfrwt>
<totfact> 0.22509512E+04</totfact>
</mgrwt>
</event>
<event>
 6    2  0.7993170E+000  0.8767646E+02  0.7546771E-02  0.1308578E+00
         21   -1    0    0  501  502  0.00000000000E+00  0.00000000000E+00  0.39294048452E+02  0.39294048452E+02  0.00000000000E+00 0. -1.
          4   -1    0    0  502    0 -0.00000000000E+00 -0.00000000000E+00 -0.15507667052E+03  0.15507667052E+03  0.00000000000E+00 0. -1.
         24    2    1    2    0    0  0.11016889296E+02  0.29898302403E+02 -0.13211848333E+03  0.15856372664E+03  0.81681585633E+02 0.  0.
        -13    1    3    3    0    0  0.16776589596E+02 -0.10152634286E+02  0.79706764186E+00  0.19625627588E+02  0.00000000000E+00 0.  1.
         14    1    3    3    0    0 -0.57597002998E+01  0.40050936689E+02 -0.13291555098E+03  0.13893809905E+03  0.00000000000E+00 0. -1.
          3    1    1    2  501    0 -0.11016889296E+02 -0.29898302403E+02  0.16335861268E+02  0.35806992330E+02  0.00000000000E+00 0. -1.
<mgrwt>
<rscale>  1 0.87676461E+02</rscale>
<asrwt>0</asrwt>
<pdfrwt beam="1">  1       21 0.60452382E-02 0.87676461E+02</pdfrwt>
<pdfrwt beam="2">  1        4 0.23857949E-01 0.87676461E+02</pdfrwt>
<totfact> 0.11909266E+05</totfact>
</mgrwt>
</event>
<event>
 6    2  0.7993170E+000  0.1125364E+03  0.7546771E-02  0.1255944E+00
          2   -1    0    0  502    0 -0.00000000000E+00  0.00000000000E+00  0.13072597586E+04  0.13072597586E+04  0.00000000000E+00 0. -1.
         21   -1    0    0  501  502  0.00000000000E+00 -0.00000000000E+00 -0.32847612919E+02  0.32847612919E+02  0.00000000000E+00 0. -1.
         24    2    1    2    0    0 -0.52318239834E+02 -0.60776331695E+02  0.12517154434E+04  0.12567640994E+04  0.78952450681E+02 0.  0.
        -13    1    3    3    0    0  0.17585625955E+02 -0.16713177378E+02  0.14951690688E+03  0.15147240667E+03  0.00000000000E+00 0.  1.
         14    1    3    3    0    0 -0.69903865789E+02 -0.44063154317E+02  0.11021985366E+04  0.11052916927E+04  0.00000000000E+00 0. -1.
          1    1    1    2  501    0  0.52318239834E+02  0.60776331695E+02  0.22696702223E+02  0.83343272107E+02  0.00000000000E+00 0. -1.
<mgrwt>
<rscale>  1 0.11253644E+03</rscale>
<asrwt>0</asrwt>
<pdfrwt beam="1">  1       21 0.50534799E-02 0.11253644E+03</pdfrwt>
<pdfrwt beam="2">  1        2 0.20111685E+00 0.11253644E+03</pdfrwt>
<totfact> 0.59309931E+04</totfact>
</mgrwt>
</event>
<event>
 6    2  0.7993170E+000  0.9671177E+02  0.7546771E-02  0.1287367E+00
         -1   -1    0    0    0  501 -0.00000000000E+00  0.00000000000E+00  0.79770446580E+02  0.79770446580E+02  0.00000000000E+00 0.  1.
         21   -1    0    0  501  502  0.00000000000E+00 -0.00000000000E+00 -0.14089694580E+03  0.14089694580E+03  0.00000000000E+00 0.  1.
         24    2    1    2    0    0  0.42642945512E+02  0.32583759613E+02  0.41199777249E+02  0.10512177780E+03  0.80455231836E+02 0.  0.
        -11    1    3    3    0    0  0.65321626508E+02  0.12812232601E+02  0.26674464128E+02  0.71711890440E+02  0.00000000000E+00 0.  1.
         12    1    3    3    0    0 -0.22678680996E+02  0.19771527012E+02  0.14525313121E+02  0.33409887360E+02  0.00000000000E+00 0. -1.
         -2    1    1    2    0  502 -0.42642945512E+02 -0.32583759613E+02 -0.10232627647E+03  0.11554561458E+03  0.00000000000E+00 0.  1.
<mgrwt>
<rscale>  1 0.96711770E+02</rscale>
<asrwt>0</asrwt>
<pdfrwt beam="1">  1       21 0.21676453E-01 0.96711770E+02</pdfrwt>
<pdfrwt beam="2">  1       -1 0.12272377E-01 0.96711770E+02</pdfrwt>
<totfact> 0.76507699E+04</totfact>
</mgrwt>
</event>
<event>
 6    2  0.7993170E+000  0.9686121E+02  0.7546771E-02  0.1287038E+00
          2   -1    0    0  502    0 -0.00000000000E+00  0.00000000000E+00  0.18204058665E+04  0.18204058665E+04  0.00000000000E+00 0. -1.
         21   -1    0    0  501  502  0.00000000000E+00 -0.00000000000E+00 -0.33126787344E+01  0.33126787344E+01  0.00000000000E+00 0.  1.
         24    2    1    2    0    0  0.51296378894E+02  0.15545497008E+02  0.13708653204E+04  0.13742830208E+04  0.80679078803E+02 0.  0.
        -13    1    3    3    0    0  0.71984099672E+02  0.10505575194E+02  0.89943840689E+03  0.90237549030E+03  0.00000000000E+00 0.  1.
         14    1    3    3    0    0 -0.20687720778E+02  0.50399218142E+01  0.47142691348E+03  0.47190753052E+03  0.00000000000E+00 0. -1.
          1    1    1    2  501    0 -0.51296378894E+02 -0.15545497008E+02  0.44622786736E+03  0.44943552438E+03  0.00000000000E+00 0. -1.
<mgrwt>
<rscale>  1 0.96861214E+02</rscale>
<asrwt>0</asrwt>
<pdfrwt beam="1">  1       21 0.50964434E-03 0.96861214E+02</pdfrwt>
<pdfrwt beam="2">  1        2 0.28006164E+00 0.96861214E+02</pdfrwt>
<totfact> 0.12562471E+06</totfact>
</mgrwt>
</event>
<event>
 6    2  0.7993170E+000  0.1188726E+03  0.7546771E-02  0.1244969E+00
          2   -1    0    0  502    0 -0.00000000000E+00  0.00000000000E+00  0.27996137812E+02  0.27996137812E+02  0.00000000000E+00 0. -1.
         21   -1    0    0  501  502  0.00000000000E+00 -0.00000000000E+00 -0.66140004441E+03  0.66140004441E+03  0.00000000000E+00 0.  1.
         24    2    1    2    0    0  0.76358225722E+02  0.32625885938E+02 -0.11852919414E+03  0.16786862149E+03  0.85062783579E+02 0.  0.
        -13    1    3    3    0    0  0.61432579441E+02  0.52482676253E+02 -0.11801279431E+03  0.14302242043E+03  0.00000000000E+00 0.  1.
         14    1    3    3    0    0  0.14925646281E+02 -0.19856790315E+02 -0.51639982304E+00  0.24846201063E+02  0.00000000000E+00 0. -1.
          1    1    1    2  501    0 -0.76358225722E+02 -0.32625885938E+02 -0.51487471246E+03  0.52152756073E+03  0.00000000000E+00 0. -1.
<mgrwt>
<rscale>  1 0.11887264E+03</rscale>
<asrwt>0</asrwt>
<pdfrwt beam="1">  1       21 0.10175385E+00 0.11887264E+03</pdfrwt>
<pdfrwt beam="2">  1        2 0.43070984E-02 0.11887264E+03</pdfrwt>
<totfact> 0.18204706E+04</totfact>
</mgrwt>
</event>
<event>
 6    2  0.7993170E+000  0.1058348E+03  0.7546771E-02  0.1268484E+00
          2   -1    0    0  502    0 -0.00000000000E+00  0.00000000000E+00  0.30821670312E+02  0.30821670312E+02  0.00000000000E+00 0. -1.
         21   -1    0    0  501  502  0.00000000000E+00 -0.00000000000E+00 -0.37350610230E+03  0.37350610230E+03  0.00000000000E+00 0. -1.
         24    2    1    2    0    0  0.60181020872E+02 -0.30559621277E+02 -0.31333693730E+03  0.33072803640E+03  0.81519028822E+02 0.  0.
        -13    1    3    3    0    0 -0.18736571989E+02  0.33227811418E+01 -0.41678932150E+02  0.45817391781E+02  0.00000000000E+00 0.  1.
         14    1    3    3    0    0  0.78917592861E+02 -0.33882402419E+02 -0.27165800515E+03  0.28491064462E+03  0.00000000000E+00 0. -1.
          1    1    1    2  501    0 -0.60181020872E+02  0.30559621277E+02 -0.29347494689E+02  0.73599736211E+02  0.00000000000E+00 0. -1.
<mgrwt>
<rscale>  1 0.10583477E+03</rscale>
<asrwt>0</asrwt>
<pdfrwt beam="1">  1       21 0.57462473E-01 0.10583477E+03</pdfrwt>
<pdfrwt beam="2">  1        2 0.47417958E-02 0.10583477E+03</pdfrwt>
<totfact> 0.56702787E+04</totfact>
</mgrwt>
</event>
<event>
 6    2  0.7993170E+000  0.8472031E+02  0.7546771E-02  0.1316166E+00
          2   -1    0    0  502    0 -0.00000000000E+00  0.00000000000E+00  0.10662734613E+04  0.10662734613E+04  0.00000000000E+00 0. -1.
         21   -1    0    0  501  502  0.00000000000E+00 -0.00000000000E+00 -0.31508884750E+02  0.31508884750E+02  0.00000000000E+00 0. -1.
         24    2    1    2    0    0 -0.18283995236E+02 -0.20391871531E+02  0.10582909466E+04  0.10616766264E+04  0.80171058350E+02 0.  0.
        -11    1    3    3    0    0  0.27784304457E+02 -0.21552517213E+02  0.31454848785E+03  0.31650786685E+03  0.00000000000E+00 0.  1.
         12    1    3    3    0    0 -0.46068299693E+02  0.11606456817E+01  0.74374245875E+03  0.74516875960E+03  0.00000000000E+00 0. -1.
          1    1    1    2  501    0  0.18283995236E+02  0.20391871531E+02 -0.23526369996E+02  0.36105719651E+02  0.00000000000E+00 0. -1.
<mgrwt>
<rscale>  1 0.84720313E+02</rscale>
<asrwt>0</asrwt>
<pdfrwt beam="1">  1       21 0.48475216E-02 0.84720313E+02</pdfrwt>
<pdfrwt beam="2">  1        2 0.16404204E+00 0.84720313E+02</pdfrwt>
<totfact> 0.86078973E+04</totfact>
</mgrwt>
</event>
<event>
 6    2  0.7993170E+000  0.9141017E+02  0.7546771E-02  0.1299472E+00
          4   -1    0    0  502    0 -0.00000000000E+00  0.00000000000E+00  0.82785422447E+03  0.82785422447E+03  0.00000000000E+00 0. -1.
         21   -1    0    0  501  502  0.00000000000E+00 -0.00000000000E+00 -0.19193125587E+02  0.19193125587E+02  0.00000000000E+00 0. -1.
         24    2    1    2    0    0  0.42611700429E+02 -0.29268144722E+01  0.79774139525E+03  0.80296148856E+03  0.80817666160E+02 0.  0.
        -11    1    3    3    0    0  0.42520432262E+01 -0.23906182384E+02  0.73610674698E+02  0.77512043305E+02  0.00000000000E+00 0.  1.
         12    1    3    3    0    0  0.38359657203E+02  0.20979367912E+02  0.72413072055E+03  0.72544944526E+03  0.00000000000E+00 0. -1.
          3    1    1    2  501    0 -0.42611700429E+02  0.29268144722E+01  0.10919703636E+02  0.44085861497E+02  0.00000000000E+00 0. -1.
<mgrwt>
<rscale>  1 0.91410166E+02</rscale>
<asrwt>0</asrwt>
<pdfrwt beam="1">  1       21 0.29527892E-02 0.91410166E+02</pdfrwt>
<pdfrwt beam="2">  1        4 0.12736216E+00 0.91410166E+02</pdfrwt>
<totfact> 0.12190151E+04</totfact>
</mgrwt>
</event>
<event>
 6    2  0.7993170E+000  0.1268571E+03  0.7546771E-02  0.1232195E+00
          2   -1    0    0  502    0 -0.00000000000E+00  0.00000000000E+00  0.12866620304E+04  0.12866620304E+04  0.00000000000E+00 0. -1.
         21   -1    0    0  501  502  0.00000000000E+00 -0.00000000000E+00 -0.63855555377E+02  0.63855555377E+02  0.00000000000E+00 0. -1.
         24    2    1    2    0    0 -0.57468291002E+02  0.29188119852E+02  0.12663782557E+04  0.12727162305E+04  0.10926191388E+03 0.  0.
        -13    1    3    3    0    0 -0.50180364784E+02 -0.25591834837E+02  0.33523970463E+03  0.33993921601E+03  0.00000000000E+00 0.  1.
         14    1    3    3    0    0 -0.72879262185E+01  0.54779954689E+02  0.93113855112E+03  0.93277701445E+03  0.00000000000E+00 0. -1.
          1    1    1    2  501    0  0.57468291002E+02 -0.29188119852E+02 -0.43571780737E+02  0.77801355308E+02  0.00000000000E+00 0. -1.
<mgrwt>
<rscale>  1 0.12685707E+03</rscale>
<asrwt>0</asrwt>
<pdfrwt beam="1">  1       21 0.98239325E-02 0.12685707E+03</pdfrwt>
<pdfrwt beam="2">  1        2 0.19794799E+00 0.12685707E+03</pdfrwt>
<totfact> 0.19484465E+04</totfact>
</mgrwt>
</event>
<event>
 6    2  0.7993170E+000  0.8693310E+02  0.7546771E-02  0.1310453E+00
          2   -1    0    0  502    0 -0.00000000000E+00  0.00000000000E+00  0.30636058438E+02  0.30636058438E+02  0.00000000000E+00 0. -1.
         21   -1    0    0  501  502  0.00000000000E+00 -0.00000000000E+00 -0.13408520844E+03  0.13408520844E+03  0.00000000000E+00 0.  1.
         24    2    1    2    0    0 -0.14133643631E+02  0.28061694299E+02 -0.43894098631E+02  0.97386114744E+02  0.81056430226E+02 0.  0.
        -11    1    3    3    0    0 -0.39883989360E+02  0.35371208713E+02 -0.10070223169E+02  0.54251860869E+02  0.00000000000E+00 0.  1.
         12    1    3    3    0    0  0.25750345728E+02 -0.73095144137E+01 -0.33823875462E+02  0.43134253875E+02  0.00000000000E+00 0. -1.
          1    1    1    2  501    0  0.14133643631E+02 -0.28061694299E+02 -0.59555051371E+02  0.67335152135E+02  0.00000000000E+00 0. -1.
<mgrwt>
<rscale>  1 0.86933098E+02</rscale>
<asrwt>0</asrwt>
<pdfrwt beam="1">  1       21 0.20628494E-01 0.86933098E+02</pdfrwt>
<pdfrwt beam="2">  1        2 0.47132397E-02 0.86933098E+02</pdfrwt>
<totfact> 0.41667487E+05</totfact>
</mgrwt>
</event>
<event>
 6    2  0.7993170E+000  0.8438371E+02  0.7546771E-02  0.1317052E+00
         21   -1    0    0  501  502  0.00000000000E+00  0.00000000000E+00  0.93275592424E+02  0.93275592424E+02  0.00000000000E+00 0. -1.
          2   -1    0    0  502    0 -0.00000000000E+00 -0.00000000000E+00 -0.42015757267E+02  0.42015757267E+02  0.00000000000E+00 0. -1.
         24    2    1    2    0    0 -0.27124524714E+02  0.10447617429E+02  0.10219653815E+02  0.85000306397E+02  0.79219430777E+02 0.  0.
        -11    1    3    3    0    0  0.17697019222E+02  0.20445715446E+02 -0.16687034551E+02  0.31775287434E+02  0.00000000000E+00 0.  1.
         12    1    3    3    0    0 -0.44821543936E+02 -0.99980980167E+01  0.26906688366E+02  0.53225018963E+02  0.00000000000E+00 0. -1.
          1    1    1    2  501    0  0.27124524714E+02 -0.10447617429E+02  0.41040181343E+02  0.50291043293E+02  0.00000000000E+00 0. -1.
<mgrwt>
<rscale>  1 0.84383711E+02</rscale>
<asrwt>0</asrwt>
<pdfrwt beam="1">  1       21 0.14350091E-01 0.84383711E+02</pdfrwt>
<pdfrwt beam="2">  1        2 0.64639627E-02 0.84383711E+02</pdfrwt>
<totfact> 0.53398894E+05</totfact>
</mgrwt>
</event>
<event>
 6    2  0.7993170E+000  0.9416112E+02  0.7546771E-02  0.1293077E+00
          2   -1    0    0  502    0 -0.00000000000E+00  0.00000000000E+00  0.62036306782E+02  0.62036306782E+02  0.00000000000E+00 0. -1.
         21   -1    0    0  501  502  0.00000000000E+00 -0.00000000000E+00 -0.11078670912E+03  0.11078670912E+03  0.00000000000E+00 0. -1.
         24    2    1    2    0    0 -0.38414921566E+02  0.29784866371E+02  0.12106130669E+02  0.94936161599E+02  0.80644106515E+02 0.  0.
        -11    1    3    3    0    0 -0.57568134230E+01  0.42718286810E+02 -0.19844234954E+02  0.47452993474E+02  0.00000000000E+00 0.  1.
         12    1    3    3    0    0 -0.32658108143E+02 -0.12933420438E+02  0.31950365623E+02  0.47483168125E+02  0.00000000000E+00 0. -1.
          1    1    1    2  501    0  0.38414921566E+02 -0.29784866371E+02 -0.60856533010E+02  0.77886854306E+02  0.00000000000E+00 0. -1.
<mgrwt>
<rscale>  1 0.94161119E+02</rscale>
<asrwt>0</asrwt>
<pdfrwt beam="1">  1       21 0.17044109E-01 0.94161119E+02</pdfrwt>
<pdfrwt beam="2">  1        2 0.95440473E-02 0.94161119E+02</pdfrwt>
<totfact> 0.24427381E+05</totfact>
</mgrwt>
</event>
<event>
 6    2  0.7993170E+000  0.8024114E+02  0.7546771E-02  0.1328369E+00
         -1   -1    0    0    0  501 -0.00000000000E+00  0.00000000000E+00  0.13458628711E+03  0.13458628711E+03  0.00000000000E+00 0.  1.
         21   -1    0    0  501  502  0.00000000000E+00 -0.00000000000E+00 -0.26065724652E+02  0.26065724652E+02  0.00000000000E+00 0. -1.
         24    2    1    2    0    0  0.64432928484E+01  0.29650476490E+02  0.10171561592E+03  0.12955580498E+03  0.74283062025E+02 0.  0.
        -13    1    3    3    0    0 -0.38441405415E+01 -0.70465908222E+01  0.89025805559E+02  0.89386944876E+02  0.00000000000E+00 0.  1.
         14    1    3    3    0    0  0.10287433390E+02  0.36697067313E+02  0.12689810356E+02  0.40168860103E+02  0.00000000000E+00 0. -1.
         -2    1    1    2    0  502 -0.64432928484E+01 -0.29650476490E+02  0.68049465425E+01  0.31096206783E+02  0.00000000000E+00 0.  1.
<mgrwt>
<rscale>  1 0.80241137E+02</rscale>
<asrwt>0</asrwt>
<pdfrwt beam="1">  1       21 0.40101116E-02 0.80241137E+02</pdfrwt>
<pdfrwt beam="2">  1       -1 0.20705582E-01 0.80241137E+02</pdfrwt>
<totfact> 0.61808578E+05</totfact>
</mgrwt>
</event>
<event>
 6    2  0.7993170E+000  0.8747966E+02  0.7546771E-02  0.1309072E+00
         21   -1    0    0  501  502  0.00000000000E+00  0.00000000000E+00  0.35008958770E+01  0.35008958770E+01  0.00000000000E+00 0. -1.
          2   -1    0    0  502    0 -0.00000000000E+00 -0.00000000000E+00 -0.12804861592E+04  0.12804861592E+04  0.00000000000E+00 0. -1.
         24    2    1    2    0    0  0.33162288671E+02  0.14731661125E+02 -0.10905627864E+04  0.10940657579E+04  0.79598569337E+02 0.  0.
        -13    1    3    3    0    0 -0.37616642327E+01 -0.79899969551E+01 -0.13507511104E+02  0.16138247283E+02  0.00000000000E+00 0.  1.
         14    1    3    3    0    0  0.36923952904E+02  0.22721658080E+02 -0.10770552753E+04  0.10779275106E+04  0.00000000000E+00 0. -1.
          1    1    1    2  501    0 -0.33162288671E+02 -0.14731661125E+02 -0.18642247691E+03  0.18992129719E+03  0.00000000000E+00 0. -1.
<mgrwt>
<rscale>  1 0.87479663E+02</rscale>
<asrwt>0</asrwt>
<pdfrwt beam="1">  1       21 0.53859993E-03 0.87479663E+02</pdfrwt>
<pdfrwt beam="2">  1        2 0.19699767E+00 0.87479663E+02</pdfrwt>
<totfact> 0.21628459E+06</totfact>
</mgrwt>
</event>
<event>
 6    2  0.7993170E+000  0.8639124E+02  0.7546771E-02  0.1311834E+00
         21   -1    0    0  501  502  0.00000000000E+00  0.00000000000E+00  0.22699223613E+01  0.22699223613E+01  0.00000000000E+00 0.  1.
          2   -1    0    0  502    0 -0.00000000000E+00 -0.00000000000E+00 -0.14926307451E+04  0.14926307451E+04  0.00000000000E+00 0. -1.
         24    2    1    2    0    0 -0.24677509921E+02 -0.15430976541E+02 -0.11906007959E+04  0.11937310006E+04  0.81340962120E+02 0.  0.
        -11    1    3    3    0    0  0.62721898477E+01 -0.82732797826E+01 -0.18612475898E+02  0.21312244905E+02  0.00000000000E+00 0.  1.
         12    1    3    3    0    0 -0.30949699768E+02 -0.71576967583E+01 -0.11719883200E+04  0.11724187557E+04  0.00000000000E+00 0. -1.
          1    1    1    2  501    0  0.24677509921E+02  0.15430976541E+02 -0.29976002681E+03  0.30116966681E+03  0.00000000000E+00 0. -1.
<mgrwt>
<rscale>  1 0.86391242E+02</rscale>
<asrwt>0</asrwt>
<pdfrwt beam="1">  1       21 0.34921955E-03 0.86391242E+02</pdfrwt>
<pdfrwt beam="2">  1        2 0.22963502E+00 0.86391242E+02</pdfrwt>
<totfact> 0.32466442E+06</totfact>
</mgrwt>
</event>
<event>
 6    2  0.7993170E+000  0.8621446E+02  0.7546771E-02  0.1312287E+00
          2   -1    0    0  502    0 -0.00000000000E+00  0.00000000000E+00  0.41310171882E+02  0.41310171882E+02  0.00000000000E+00 0. -1.
         21   -1    0    0  501  502  0.00000000000E+00 -0.00000000000E+00 -0.12884901583E+03  0.12884901583E+03  0.00000000000E+00 0. -1.
         24    2    1    2    0    0 -0.32029132523E+02  0.79167464706E+01 -0.11128026266E+02  0.86929666125E+02  0.79651702300E+02 0.  0.
        -13    1    3    3    0    0  0.15570037350E+01  0.85791824958E+01 -0.41036175012E+02  0.41952285904E+02  0.00000000000E+00 0.  1.
         14    1    3    3    0    0 -0.33586136258E+02 -0.66243602516E+00  0.29908148746E+02  0.44977380222E+02  0.00000000000E+00 0. -1.
          1    1    1    2  501    0  0.32029132523E+02 -0.79167464706E+01 -0.76410817677E+02  0.83229521583E+02  0.00000000000E+00 0. -1.
<mgrwt>
<rscale>  1 0.86214464E+02</rscale>
<asrwt>0</asrwt>
<pdfrwt beam="1">  1       21 0.19822925E-01 0.86214464E+02</pdfrwt>
<pdfrwt beam="2">  1        2 0.63554112E-02 0.86214464E+02</pdfrwt>
<totfact> 0.30557085E+05</totfact>
</mgrwt>
</event>
<event>
 6    2  0.7993170E+000  0.8306032E+02  0.7546771E-02  0.1320584E+00
         21   -1    0    0  501  502  0.00000000000E+00  0.00000000000E+00  0.24765786030E+02  0.24765786030E+02  0.00000000000E+00 0. -1.
          2   -1    0    0  502    0 -0.00000000000E+00 -0.00000000000E+00 -0.21477770093E+03  0.21477770093E+03  0.00000000000E+00 0. -1.
         24    2    1    2    0    0  0.27047893729E+01 -0.20376281531E+02 -0.20009428317E+03  0.21664888313E+03  0.80476752336E+02 0.  0.
        -11    1    3    3    0    0  0.27350707890E+02 -0.30676666258E+02 -0.52585002517E+02  0.66740554122E+02  0.00000000000E+00 0.  1.
         12    1    3    3    0    0 -0.24645918517E+02  0.10300384727E+02 -0.14750928066E+03  0.14990832901E+03  0.00000000000E+00 0. -1.
          1    1    1    2  501    0 -0.27047893729E+01  0.20376281531E+02  0.10082368275E+02  0.22894603832E+02  0.00000000000E+00 0. -1.
<mgrwt>
<rscale>  1 0.83060318E+02</rscale>
<asrwt>0</asrwt>
<pdfrwt beam="1">  1       21 0.38101210E-02 0.83060318E+02</pdfrwt>
<pdfrwt beam="2">  1        2 0.33042722E-01 0.83060318E+02</pdfrwt>
<totfact> 0.76880851E+05</totfact>
</mgrwt>
</event>
<event>
 6    2  0.7993170E+000  0.1281673E+03  0.7546771E-02  0.1230201E+00
          2   -1    0    0  502    0 -0.00000000000E+00  0.00000000000E+00  0.35649983066E+03  0.35649983066E+03  0.00000000000E+00 0. -1.
         21   -1    0    0  501  502  0.00000000000E+00 -0.00000000000E+00 -0.11846898575E+03  0.11846898575E+03  0.00000000000E+00 0. -1.
         24    2    1    2    0    0  0.89135077558E+02 -0.44369767456E+02  0.32082272804E+03  0.34547659954E+03  0.80703901326E+02 0.  0.
        -11    1    3    3    0    0 -0.13078668922E+02 -0.83148455908E+01  0.17528184613E+02  0.23397125759E+02  0.00000000000E+00 0.  1.
         12    1    3    3    0    0  0.10221374648E+03 -0.36054921865E+02  0.30329454343E+03  0.32207947378E+03  0.00000000000E+00 0. -1.
          1    1    1    2  501    0 -0.89135077558E+02  0.44369767456E+02 -0.82791883133E+02  0.12949221686E+03  0.00000000000E+00 0. -1.
<mgrwt>
<rscale>  1 0.12816730E+03</rscale>
<asrwt>0</asrwt>
<pdfrwt beam="1">  1       21 0.18225998E-01 0.12816730E+03</pdfrwt>
<pdfrwt beam="2">  1        2 0.54846127E-01 0.12816730E+03</pdfrwt>
<totfact> 0.31002253E+04</totfact>
</mgrwt>
</event>
<event>
 6    2  0.7993170E+000  0.1309586E+03  0.7546771E-02  0.1226040E+00
          2   -1    0    0  502    0 -0.00000000000E+00  0.00000000000E+00  0.66073183855E+03  0.66073183855E+03  0.00000000000E+00 0. -1.
         21   -1    0    0  501  502  0.00000000000E+00 -0.00000000000E+00 -0.20649913437E+02  0.20649913437E+02  0.00000000000E+00 0. -1.
         24    2    1    2    0    0 -0.96673129091E+02  0.32297595059E+02  0.33296214458E+03  0.35779036130E+03  0.82227272713E+02 0.  0.
        -11    1    3    3    0    0  0.30554153249E+01 -0.35364260487E+01 -0.29717956009E+01  0.55383608675E+01  0.00000000000E+00 0.  1.
         12    1    3    3    0    0 -0.99728544416E+02  0.35834021107E+02  0.33593394018E+03  0.35225200043E+03  0.00000000000E+00 0. -1.
          1    1    1    2  501    0  0.96673129091E+02 -0.32297595059E+02  0.30711978053E+03  0.32359139069E+03  0.00000000000E+00 0. -1.
<mgrwt>
<rscale>  1 0.13095859E+03</rscale>
<asrwt>0</asrwt>
<pdfrwt beam="1">  1       21 0.31769103E-02 0.13095859E+03</pdfrwt>
<pdfrwt beam="2">  1        2 0.10165104E+00 0.13095859E+03</pdfrwt>
<totfact> 0.32104595E+05</totfact>
</mgrwt>
</event>
<event>
 6    2  0.7993170E+000  0.1099945E+03  0.7546771E-02  0.1260580E+00
          2   -1    0    0  502    0 -0.00000000000E+00  0.00000000000E+00  0.56105859271E+02  0.56105859271E+02  0.00000000000E+00 0. -1.
         21   -1    0    0  501  502  0.00000000000E+00 -0.00000000000E+00 -0.15860378370E+03  0.15860378370E+03  0.00000000000E+00 0. -1.
         24    2    1    2    0    0  0.69856530884E+01 -0.76642393366E+02 -0.74340412834E+02  0.13276026061E+03  0.78587110953E+02 0.  0.
        -13    1    3    3    0    0 -0.28553571041E+02 -0.46507784752E+02 -0.65633606193E+02  0.85358366453E+02  0.00000000000E+00 0.  1.
         14    1    3    3    0    0  0.35539224130E+02 -0.30134608614E+02 -0.87068066409E+01  0.47401894160E+02  0.00000000000E+00 0. -1.
          1    1    1    2  501    0 -0.69856530884E+01  0.76642393366E+02 -0.28157511597E+02  0.81949382360E+02  0.00000000000E+00 0. -1.
<mgrwt>
<rscale>  1 0.10999450E+03</rscale>
<asrwt>0</asrwt>
<pdfrwt beam="1">  1       21 0.24400582E-01 0.10999450E+03</pdfrwt>
<pdfrwt beam="2">  1        2 0.86316706E-02 0.10999450E+03</pdfrwt>
<totfact> 0.14419557E+05</totfact>
</mgrwt>
</event>
<event>
 6    2  0.7993170E+000  0.6674809E+02  0.7546771E-02  0.1371514E+00
          2   -1    0    0  502    0 -0.00000000000E+00  0.00000000000E+00  0.20532866496E+04  0.20532866496E+04  0.00000000000E+00 0. -1.
         21   -1    0    0  501  502  0.00000000000E+00 -0.00000000000E+00 -0.38516964905E+01  0.38516964905E+01  0.00000000000E+00 0. -1.
         24    2    1    2    0    0 -0.17105936469E+02  0.19612928294E+02  0.20013481931E+04  0.20024609604E+04  0.61465663973E+02 0.  0.
        -11    1    3    3    0    0 -0.21167854912E+02  0.18321039238E+02  0.35335694349E+03  0.35446419858E+03  0.00000000000E+00 0.  1.
         12    1    3    3    0    0  0.40619184425E+01  0.12918890566E+01  0.16479912496E+04  0.16479967618E+04  0.00000000000E+00 0. -1.
          1    1    1    2  501    0  0.17105936469E+02 -0.19612928294E+02  0.48086760014E+02  0.54677385704E+02  0.00000000000E+00 0. -1.
<mgrwt>
<rscale>  1 0.66748093E+02</rscale>
<asrwt>0</asrwt>
<pdfrwt beam="1">  1       21 0.59257033E-03 0.66748093E+02</pdfrwt>
<pdfrwt beam="2">  1        2 0.31588938E+00 0.66748093E+02</pdfrwt>
<totfact> 0.74802593E+05</totfact>
</mgrwt>
</event>
<event>
 6    2  0.7993170E+000  0.8438369E+02  0.7546771E-02  0.1317052E+00
         21   -1    0    0  501  502  0.00000000000E+00  0.00000000000E+00  0.43064574063E+01  0.43064574063E+01  0.00000000000E+00 0.  1.
          2   -1    0    0  502    0 -0.00000000000E+00 -0.00000000000E+00 -0.66544604244E+03  0.66544604244E+03  0.00000000000E+00 0. -1.
         24    2    1    2    0    0  0.20927857883E+02  0.76438322593E+01 -0.49801553274E+03  0.50511392647E+03  0.81389215839E+02 0.  0.
        -13    1    3    3    0    0  0.34562484974E+02  0.18878411768E+00 -0.84349601106E+02  0.91156218734E+02  0.00000000000E+00 0.  1.
         14    1    3    3    0    0 -0.13634627091E+02  0.74550481416E+01 -0.41366593163E+03  0.41395770773E+03  0.00000000000E+00 0. -1.
          1    1    1    2  501    0 -0.20927857883E+02 -0.76438322593E+01 -0.16312405230E+03  0.16463857338E+03  0.00000000000E+00 0. -1.
<mgrwt>
<rscale>  1 0.84383694E+02</rscale>
<asrwt>0</asrwt>
<pdfrwt beam="1">  1       21 0.66253191E-03 0.84383694E+02</pdfrwt>
<pdfrwt beam="2">  1        2 0.10237631E+00 0.84383694E+02</pdfrwt>
<totfact> 0.37031406E+06</totfact>
</mgrwt>
</event>
<event>
 6    2  0.7993170E+000  0.9703092E+02  0.7546771E-02  0.1286666E+00
         21   -1    0    0  501  502  0.00000000000E+00  0.00000000000E+00  0.61751607812E+02  0.61751607812E+02  0.00000000000E+00 0. -1.
          2   -1    0    0  502    0 -0.00000000000E+00 -0.00000000000E+00 -0.13925530336E+03  0.13925530336E+03  0.00000000000E+00 0. -1.
         24    2    1    2    0    0  0.24518249759E+02  0.40753082545E+02 -0.10747103877E+03  0.14479303416E+03  0.84575648140E+02 0.  0.
        -11    1    3    3    0    0 -0.25254540997E+02 -0.57374200687E+01 -0.14938722720E+02  0.29897746846E+02  0.00000000000E+00 0.  1.
         12    1    3    3    0    0  0.49772790756E+02  0.46490502614E+02 -0.92532316053E+02  0.11489528731E+03  0.00000000000E+00 0. -1.
          1    1    1    2  501    0 -0.24518249759E+02 -0.40753082545E+02  0.29967343228E+02  0.56213877008E+02  0.00000000000E+00 0. -1.
<mgrwt>
<rscale>  1 0.97030916E+02</rscale>
<asrwt>0</asrwt>
<pdfrwt beam="1">  1       21 0.95002473E-02 0.97030916E+02</pdfrwt>
<pdfrwt beam="2">  1        2 0.21423893E-01 0.97030916E+02</pdfrwt>
<totfact> 0.26797442E+05</totfact>
</mgrwt>
</event>
<event>
 6    2  0.7993170E+000  0.8272994E+02  0.7546771E-02  0.1321478E+00
          2   -1    0    0  502    0 -0.00000000000E+00  0.00000000000E+00  0.87128379435E+03  0.87128379435E+03  0.00000000000E+00 0. -1.
         21   -1    0    0  501  502  0.00000000000E+00 -0.00000000000E+00 -0.68795589886E+01  0.68795589886E+01  0.00000000000E+00 0. -1.
         24    2    1    2    0    0  0.19671185006E+01  0.20383420523E+02  0.84772476058E+03  0.85175202497E+03  0.80155404994E+02 0.  0.
        -11    1    3    3    0    0  0.12383988665E+02  0.20058620882E+02  0.68229403706E+02  0.72187000055E+02  0.00000000000E+00 0.  1.
         12    1    3    3    0    0 -0.10416870165E+02  0.32479964036E+00  0.77949535687E+03  0.77956502491E+03  0.00000000000E+00 0. -1.
          1    1    1    2  501    0 -0.19671185006E+01 -0.20383420523E+02  0.16679474786E+02  0.26411328375E+02  0.00000000000E+00 0. -1.
<mgrwt>
<rscale>  1 0.82729936E+02</rscale>
<asrwt>0</asrwt>
<pdfrwt beam="1">  1       21 0.10583944E-02 0.82729936E+02</pdfrwt>
<pdfrwt beam="2">  1        2 0.13404357E+00 0.82729936E+02</pdfrwt>
<totfact> 0.12935893E+06</totfact>
</mgrwt>
</event>
<event>
 6    2  0.7993170E+000  0.8604938E+02  0.7546771E-02  0.1312711E+00
         21   -1    0    0  501  502  0.00000000000E+00  0.00000000000E+00  0.24216582938E+02  0.24216582938E+02  0.00000000000E+00 0. -1.
          2   -1    0    0  502    0 -0.00000000000E+00 -0.00000000000E+00 -0.17996392345E+03  0.17996392345E+03  0.00000000000E+00 0. -1.
         24    2    1    2    0    0 -0.20876145885E+02  0.20150706170E+02 -0.15234457512E+03  0.17496675554E+03  0.81010070667E+02 0.  0.
        -13    1    3    3    0    0  0.23866395507E+02 -0.12269584872E+02 -0.27411679591E+02  0.38360757623E+02  0.00000000000E+00 0.  1.
         14    1    3    3    0    0 -0.44742541392E+02  0.32420291042E+02 -0.12493289553E+03  0.13660599792E+03  0.00000000000E+00 0. -1.
          1    1    1    2  501    0  0.20876145885E+02 -0.20150706170E+02 -0.34027653905E+01  0.29213750846E+02  0.00000000000E+00 0. -1.
<mgrwt>
<rscale>  1 0.86049381E+02</rscale>
<asrwt>0</asrwt>
<pdfrwt beam="1">  1       21 0.37256282E-02 0.86049381E+02</pdfrwt>
<pdfrwt beam="2">  1        2 0.27686757E-01 0.86049381E+02</pdfrwt>
<totfact> 0.96668841E+05</totfact>
</mgrwt>
</event>
<event>
 6    2  0.7993170E+000  0.1192692E+03  0.7546771E-02  0.1244307E+00
         21   -1    0    0  501  502  0.00000000000E+00  0.00000000000E+00  0.15202302651E+02  0.15202302651E+02  0.00000000000E+00 0. -1.
          2   -1    0    0  502    0 -0.00000000000E+00 -0.00000000000E+00 -0.98877097285E+03  0.98877097285E+03  0.00000000000E+00 0. -1.
         24    2    1    2    0    0  0.86455238415E+02 -0.16334939545E+02 -0.27320013248E+03  0.29809975487E+03  0.80522127197E+02 0.  0.
        -13    1    3    3    0    0  0.95677442198E+01 -0.38152230379E+02 -0.92158168711E+02  0.10020111014E+03  0.00000000000E+00 0.  1.
         14    1    3    3    0    0  0.76887494195E+02  0.21817290834E+02 -0.18104196377E+03  0.19789864474E+03  0.00000000000E+00 0. -1.
          1    1    1    2  501    0 -0.86455238415E+02  0.16334939545E+02 -0.70036853772E+03  0.70587352063E+03  0.00000000000E+00 0. -1.
<mgrwt>
<rscale>  1 0.11926924E+03</rscale>
<asrwt>0</asrwt>
<pdfrwt beam="1">  1       21 0.23388154E-02 0.11926924E+03</pdfrwt>
<pdfrwt beam="2">  1        2 0.15211864E+00 0.11926924E+03</pdfrwt>
<totfact> 0.31836299E+05</totfact>
</mgrwt>
</event>
<event>
 6    2  0.7993170E+000  0.8714482E+02  0.7546771E-02  0.1309917E+00
          2   -1    0    0  502    0 -0.00000000000E+00  0.00000000000E+00  0.73635621229E+03  0.73635621229E+03  0.00000000000E+00 0. -1.
         21   -1    0    0  501  502  0.00000000000E+00 -0.00000000000E+00 -0.59777701280E+01  0.59777701280E+01  0.00000000000E+00 0.  1.
         24    2    1    2    0    0 -0.31227277382E+02  0.14272203520E+02  0.36125911535E+03  0.37162126875E+03  0.80096069322E+02 0.  0.
        -13    1    3    3    0    0 -0.24951053121E+02  0.47213343328E+02  0.20915114678E+03  0.21586073529E+03  0.00000000000E+00 0.  1.
         14    1    3    3    0    0 -0.62762242604E+01 -0.32941139808E+02  0.15210796857E+03  0.15576053346E+03  0.00000000000E+00 0. -1.
          1    1    1    2  501    0  0.31227277382E+02 -0.14272203520E+02  0.36911932682E+03  0.37071271367E+03  0.00000000000E+00 0. -1.
<mgrwt>
<rscale>  1 0.87144816E+02</rscale>
<asrwt>0</asrwt>
<pdfrwt beam="1">  1       21 0.91965752E-03 0.87144816E+02</pdfrwt>
<pdfrwt beam="2">  1        2 0.11328550E+00 0.87144816E+02</pdfrwt>
<totfact> 0.19875951E+06</totfact>
</mgrwt>
</event>
<event>
 6    2  0.7993170E+000  0.9480383E+02  0.7546771E-02  0.1291619E+00
         -3   -1    0    0    0  501 -0.00000000000E+00  0.00000000000E+00  0.75935465801E+03  0.75935465801E+03  0.00000000000E+00 0.  1.
         21   -1    0    0  501  502  0.00000000000E+00 -0.00000000000E+00 -0.24519168181E+02  0.24519168181E+02  0.00000000000E+00 0.  1.
         24    2    1    2    0    0 -0.33206440227E+01  0.21862802893E+02  0.75069720671E+03  0.75665980610E+03  0.92188704208E+02 0.  0.
        -11    1    3    3    0    0  0.30977686738E+02  0.49721317454E+01  0.61159777546E+03  0.61240197429E+03  0.00000000000E+00 0.  1.
         12    1    3    3    0    0 -0.34298330761E+02  0.16890671147E+02  0.13909943125E+03  0.14425783181E+03  0.00000000000E+00 0. -1.
         -4    1    1    2    0  502  0.33206440227E+01 -0.21862802893E+02 -0.15861716879E+02  0.27214020089E+02  0.00000000000E+00 0.  1.
<mgrwt>
<rscale>  1 0.94803829E+02</rscale>
<asrwt>0</asrwt>
<pdfrwt beam="1">  1       21 0.37721803E-02 0.94803829E+02</pdfrwt>
<pdfrwt beam="2">  1       -3 0.11682378E+00 0.94803829E+02</pdfrwt>
<totfact> 0.12824728E+04</totfact>
</mgrwt>
</event>
<event>
 6    2  0.7993170E+000  0.9183245E+02  0.7546771E-02  0.1298474E+00
         21   -1    0    0  501  502  0.00000000000E+00  0.00000000000E+00  0.21877579087E+02  0.21877579087E+02  0.00000000000E+00 0.  1.
          2   -1    0    0  502    0 -0.00000000000E+00 -0.00000000000E+00 -0.26056832357E+03  0.26056832357E+03  0.00000000000E+00 0. -1.
         24    2    1    2    0    0  0.10592270924E+02  0.48163380267E+02 -0.19891410185E+03  0.21908906639E+03  0.77468004341E+02 0.  0.
        -11    1    3    3    0    0 -0.32795382294E+02  0.28300049027E+02 -0.80354025139E+02  0.91286358405E+02  0.00000000000E+00 0.  1.
         12    1    3    3    0    0  0.43387653218E+02  0.19863331240E+02 -0.11856007671E+03  0.12780270799E+03  0.00000000000E+00 0. -1.
          1    1    1    2  501    0 -0.10592270924E+02 -0.48163380267E+02 -0.39776642629E+02  0.63356836260E+02  0.00000000000E+00 0. -1.
<mgrwt>
<rscale>  1 0.91832451E+02</rscale>
<asrwt>0</asrwt>
<pdfrwt beam="1">  1       21 0.33657816E-02 0.91832451E+02</pdfrwt>
<pdfrwt beam="2">  1        2 0.40087432E-01 0.91832451E+02</pdfrwt>
<totfact> 0.77615501E+05</totfact>
</mgrwt>
</event>
<event>
 6    2  0.7993170E+000  0.1903464E+03  0.7546771E-02  0.1158149E+00
         21   -1    0    0  501  502  0.00000000000E+00  0.00000000000E+00  0.60705505351E+02  0.60705505351E+02  0.00000000000E+00 0. -1.
          2   -1    0    0  502    0 -0.00000000000E+00 -0.00000000000E+00 -0.74501502685E+03  0.74501502685E+03  0.00000000000E+00 0. -1.
         24    2    1    2    0    0  0.16647860205E+03 -0.47581680164E+02 -0.56300353837E+03  0.59431030830E+03  0.79073491817E+02 0.  0.
        -11    1    3    3    0    0  0.35635887446E+02  0.19848044610E+02 -0.87410636305E+02  0.96459736099E+02  0.00000000000E+00 0.  1.
         12    1    3    3    0    0  0.13084271460E+03 -0.67429724774E+02 -0.47559290207E+03  0.49785057220E+03  0.00000000000E+00 0. -1.
          1    1    1    2  501    0 -0.16647860205E+03  0.47581680164E+02 -0.12130598313E+03  0.21141022390E+03  0.00000000000E+00 0. -1.
<mgrwt>
<rscale>  1 0.19034642E+03</rscale>
<asrwt>0</asrwt>
<pdfrwt beam="1">  1       21 0.93393082E-02 0.19034642E+03</pdfrwt>
<pdfrwt beam="2">  1        2 0.11461770E+00 0.19034642E+03</pdfrwt>
<totfact> 0.44892426E+04</totfact>
</mgrwt>
</event>
<event>
 6    2  0.7993170E+000  0.9052529E+02  0.7546771E-02  0.1301585E+00
         21   -1    0    0  501  502  0.00000000000E+00  0.00000000000E+00  0.61686496731E+03  0.61686496731E+03  0.00000000000E+00 0. -1.
          4   -1    0    0  502    0 -0.00000000000E+00 -0.00000000000E+00 -0.10045689392E+02  0.10045689392E+02  0.00000000000E+00 0. -1.
         24    2    1    2    0    0  0.18818473257E+02  0.36040193238E+02  0.21908802410E+03  0.23705356025E+03  0.80881380180E+02 0.  0.
        -13    1    3    3    0    0 -0.12968475694E+02 -0.19806153756E+02  0.36666898333E+02  0.43645463932E+02  0.00000000000E+00 0.  1.
         14    1    3    3    0    0  0.31786948951E+02  0.55846346995E+02  0.18242112577E+03  0.19340809632E+03  0.00000000000E+00 0. -1.
          3    1    1    2  501    0 -0.18818473257E+02 -0.36040193238E+02  0.38773125382E+03  0.38985709645E+03  0.00000000000E+00 0. -1.
<mgrwt>
<rscale>  1 0.90525290E+02</rscale>
<asrwt>0</asrwt>
<pdfrwt beam="1">  1       21 0.94902273E-01 0.90525290E+02</pdfrwt>
<pdfrwt beam="2">  1        4 0.15454912E-02 0.90525290E+02</pdfrwt>
<totfact> 0.55043663E+04</totfact>
</mgrwt>
</event>
<event>
 6    2  0.7993170E+000  0.8292318E+02  0.7546771E-02  0.1320955E+00
         21   -1    0    0  501  502  0.00000000000E+00  0.00000000000E+00  0.32821399888E+01  0.32821399888E+01  0.00000000000E+00 0. -1.
          2   -1    0    0  502    0 -0.00000000000E+00 -0.00000000000E+00 -0.11275659633E+04  0.11275659633E+04  0.00000000000E+00 0. -1.
         24    2    1    2    0    0  0.21820339929E+02  0.93020360464E+01 -0.10396881615E+04  0.10429898020E+04  0.79458157477E+02 0.  0.
        -11    1    3    3    0    0 -0.72417475344E+01 -0.30679669466E+02 -0.52065887029E+03  0.52161225468E+03  0.00000000000E+00 0.  1.
         12    1    3    3    0    0  0.29062087463E+02  0.39981705512E+02 -0.51902929120E+03  0.52137754730E+03  0.00000000000E+00 0. -1.
          1    1    1    2  501    0 -0.21820339929E+02 -0.93020360464E+01 -0.84595661808E+02  0.87858301292E+02  0.00000000000E+00 0. -1.
<mgrwt>
<rscale>  1 0.82923181E+02</rscale>
<asrwt>0</asrwt>
<pdfrwt beam="1">  1       21 0.50494429E-03 0.82923181E+02</pdfrwt>
<pdfrwt beam="2">  1        2 0.17347180E+00 0.82923181E+02</pdfrwt>
<totfact> 0.28737584E+06</totfact>
</mgrwt>
</event>
<event>
 6    2  0.7993170E+000  0.8566520E+02  0.7546771E-02  0.1313702E+00
         21   -1    0    0  501  502  0.00000000000E+00  0.00000000000E+00  0.96910023060E+01  0.96910023060E+01  0.00000000000E+00 0. -1.
         -1   -1    0    0    0  501 -0.00000000000E+00 -0.00000000000E+00 -0.95224358962E+03  0.95224358962E+03  0.00000000000E+00 0.  1.
         24    2    1    2    0    0  0.63343064244E+01  0.28500429101E+02 -0.92260828705E+03  0.92657680622E+03  0.80536504778E+02 0.  0.
        -13    1    3    3    0    0  0.14924555523E+02  0.41804844788E+00 -0.81197452441E+03  0.81211178135E+03  0.00000000000E+00 0.  1.
         14    1    3    3    0    0 -0.85902490990E+01  0.28082380653E+02 -0.11063376264E+03  0.11446502487E+03  0.00000000000E+00 0. -1.
         -2    1    1    2    0  502 -0.63343064244E+01 -0.28500429101E+02 -0.19944300266E+02  0.35357785704E+02  0.00000000000E+00 0.  1.
<mgrwt>
<rscale>  1 0.85665200E+02</rscale>
<asrwt>0</asrwt>
<pdfrwt beam="1">  1       21 0.14909237E-02 0.85665200E+02</pdfrwt>
<pdfrwt beam="2">  1       -1 0.14649899E+00 0.85665200E+02</pdfrwt>
<totfact> 0.72928198E+04</totfact>
</mgrwt>
</event>
<event>
 6    2  0.7993170E+000  0.8397077E+02  0.7546771E-02  0.1318146E+00
         -1   -1    0    0    0  501 -0.00000000000E+00  0.00000000000E+00  0.85523323492E+03  0.85523323492E+03  0.00000000000E+00 0.  1.
         21   -1    0    0  501  502  0.00000000000E+00 -0.00000000000E+00 -0.13863909493E+02  0.13863909493E+02  0.00000000000E+00 0.  1.
         24    2    1    2    0    0  0.25936742990E+02 -0.34256157777E+01  0.83859482690E+03  0.84278845150E+03  0.79791232670E+02 0.  0.
        -11    1    3    3    0    0  0.27496254603E+02 -0.36685276351E+02  0.33910501769E+03  0.34219010293E+03  0.00000000000E+00 0.  1.
         12    1    3    3    0    0 -0.15595116129E+01  0.33259660573E+02  0.49948980921E+03  0.50059834858E+03  0.00000000000E+00 0. -1.
         -2    1    1    2    0  502 -0.25936742990E+02  0.34256157777E+01  0.27744985280E+01  0.26308692907E+02  0.00000000000E+00 0.  1.
<mgrwt>
<rscale>  1 0.83970770E+02</rscale>
<asrwt>0</asrwt>
<pdfrwt beam="1">  1       21 0.21329098E-02 0.83970770E+02</pdfrwt>
<pdfrwt beam="2">  1       -1 0.13157430E+00 0.83970770E+02</pdfrwt>
<totfact> 0.53742511E+04</totfact>
</mgrwt>
</event>
<event>
 6    2  0.7993170E+000  0.9295533E+02  0.7546771E-02  0.1295849E+00
          2   -1    0    0  502    0 -0.00000000000E+00  0.00000000000E+00  0.17640494913E+04  0.17640494913E+04  0.00000000000E+00 0. -1.
         21   -1    0    0  501  502  0.00000000000E+00 -0.00000000000E+00 -0.35223928402E+01  0.35223928402E+01  0.00000000000E+00 0. -1.
         24    2    1    2    0    0  0.19754166761E+02  0.40254326792E+02  0.15239826507E+04  0.15268149243E+04  0.81425153384E+02 0.  0.
        -11    1    3    3    0    0  0.45609437593E+01  0.38160256638E+01  0.64660404466E+01  0.87848698852E+01  0.00000000000E+00 0.  1.
         12    1    3    3    0    0  0.15193223002E+02  0.36438301129E+02  0.15175166102E+04  0.15180300544E+04  0.00000000000E+00 0. -1.
          1    1    1    2  501    0 -0.19754166761E+02 -0.40254326792E+02  0.23654444784E+03  0.24075695989E+03  0.00000000000E+00 0. -1.
<mgrwt>
<rscale>  1 0.92955331E+02</rscale>
<asrwt>0</asrwt>
<pdfrwt beam="1">  1       21 0.54190800E-03 0.92955331E+02</pdfrwt>
<pdfrwt beam="2">  1        2 0.27139152E+00 0.92955331E+02</pdfrwt>
<totfact> 0.12173830E+06</totfact>
</mgrwt>
</event>
<event>
 6    2  0.7993170E+000  0.1022053E+03  0.7546771E-02  0.1275726E+00
         -3   -1    0    0    0  501 -0.00000000000E+00  0.00000000000E+00  0.58675602526E+01  0.58675602526E+01  0.00000000000E+00 0.  1.
         21   -1    0    0  501  502  0.00000000000E+00 -0.00000000000E+00 -0.12167951386E+04  0.12167951386E+04  0.00000000000E+00 0.  1.
         24    2    1    2    0    0 -0.62128781942E+02 -0.45620138126E+00 -0.88354541612E+03  0.88943713890E+03  0.81152498615E+02 0.  0.
        -11    1    3    3    0    0 -0.80846195100E+02  0.97524498794E-01 -0.62371630592E+03  0.62893413570E+03  0.00000000000E+00 0.  1.
         12    1    3    3    0    0  0.18717413158E+02 -0.55372588006E+00 -0.25982911020E+03  0.26050300320E+03  0.00000000000E+00 0. -1.
         -4    1    1    2    0  502  0.62128781942E+02  0.45620138126E+00 -0.32738216224E+03  0.33322555997E+03  0.00000000000E+00 0.  1.
<mgrwt>
<rscale>  1 0.10220529E+03</rscale>
<asrwt>0</asrwt>
<pdfrwt beam="1">  1       21 0.18719937E+00 0.10220529E+03</pdfrwt>
<pdfrwt beam="2">  1       -3 0.90270100E-03 0.10220529E+03</pdfrwt>
<totfact> 0.25112845E+04</totfact>
</mgrwt>
</event>
<event>
 6    2  0.7993170E+000  0.8410201E+02  0.7546771E-02  0.1317798E+00
         21   -1    0    0  501  502  0.00000000000E+00  0.00000000000E+00  0.84786684467E+01  0.84786684467E+01  0.00000000000E+00 0.  1.
          2   -1    0    0  502    0 -0.00000000000E+00 -0.00000000000E+00 -0.33901687481E+03  0.33901687481E+03  0.00000000000E+00 0. -1.
         24    2    1    2    0    0 -0.20746478187E+02 -0.10005449611E+02 -0.25340126657E+03  0.26699316528E+03  0.80886482358E+02 0.  0.
        -13    1    3    3    0    0  0.12189200202E+02 -0.15725698026E+01 -0.10202371064E+01  0.12332496143E+02  0.00000000000E+00 0.  1.
         14    1    3    3    0    0 -0.32935678389E+02 -0.84328798085E+01 -0.25238102946E+03  0.25466066913E+03  0.00000000000E+00 0. -1.
          1    1    1    2  501    0  0.20746478187E+02  0.10005449611E+02 -0.77136939795E+02  0.80502377978E+02  0.00000000000E+00 0. -1.
<mgrwt>
<rscale>  1 0.84102012E+02</rscale>
<asrwt>0</asrwt>
<pdfrwt beam="1">  1       21 0.13044103E-02 0.84102012E+02</pdfrwt>
<pdfrwt beam="2">  1        2 0.52156450E-01 0.84102012E+02</pdfrwt>
<totfact> 0.26657125E+06</totfact>
</mgrwt>
</event>
<event>
 6    2  0.7993170E+000  0.9733603E+02  0.7546771E-02  0.1286000E+00
          2   -1    0    0  502    0 -0.00000000000E+00  0.00000000000E+00  0.19960315446E+04  0.19960315446E+04  0.00000000000E+00 0. -1.
         21   -1    0    0  501  502  0.00000000000E+00 -0.00000000000E+00 -0.31429499408E+01  0.31429499408E+01  0.00000000000E+00 0. -1.
         24    2    1    2    0    0 -0.59335541910E+02  0.11762751557E+02  0.13107387082E+04  0.13143478476E+04  0.76257683405E+02 0.  0.
        -13    1    3    3    0    0  0.17353514702E+02  0.10575337647E+02  0.32013660733E+03  0.32078096825E+03  0.00000000000E+00 0.  1.
         14    1    3    3    0    0 -0.76689056613E+02  0.11874139104E+01  0.99060210092E+03  0.99356687933E+03  0.00000000000E+00 0. -1.
          1    1    1    2  501    0  0.59335541910E+02 -0.11762751557E+02  0.68214988642E+03  0.68482664697E+03  0.00000000000E+00 0. -1.
<mgrwt>
<rscale>  1 0.97336032E+02</rscale>
<asrwt>0</asrwt>
<pdfrwt beam="1">  1       21 0.48353235E-03 0.97336032E+02</pdfrwt>
<pdfrwt beam="2">  1        2 0.30708076E+00 0.97336032E+02</pdfrwt>
<totfact> 0.11114097E+06</totfact>
</mgrwt>
</event>
<event>
 6    2  0.7993170E+000  0.8672964E+02  0.7546771E-02  0.1310970E+00
         -3   -1    0    0    0  501 -0.00000000000E+00  0.00000000000E+00  0.14186447101E+02  0.14186447101E+02  0.00000000000E+00 0.  1.
         21   -1    0    0  501  502  0.00000000000E+00 -0.00000000000E+00 -0.26910893293E+03  0.26910893293E+03  0.00000000000E+00 0. -1.
         24    2    1    2    0    0  0.33116497318E+02 -0.83350996160E+01 -0.15388153457E+03  0.17663962486E+03  0.79723610733E+02 0.  0.
        -13    1    3    3    0    0 -0.18776220982E+02  0.89261893689E+01 -0.10726233319E+02  0.23393918274E+02  0.00000000000E+00 0.  1.
         14    1    3    3    0    0  0.51892718300E+02 -0.17261288985E+02 -0.14315530125E+03  0.15324570659E+03  0.00000000000E+00 0. -1.
         -4    1    1    2    0  502 -0.33116497318E+02  0.83350996160E+01 -0.10104095126E+03  0.10665575517E+03  0.00000000000E+00 0.  1.
<mgrwt>
<rscale>  1 0.86729640E+02</rscale>
<asrwt>0</asrwt>
<pdfrwt beam="1">  1       21 0.41401375E-01 0.86729640E+02</pdfrwt>
<pdfrwt beam="2">  1       -3 0.21825303E-02 0.86729640E+02</pdfrwt>
<totfact> 0.20941641E+05</totfact>
</mgrwt>
</event>
<event>
 6    2  0.7993170E+000  0.8085647E+02  0.7546771E-02  0.1326638E+00
         21   -1    0    0  501  502  0.00000000000E+00  0.00000000000E+00  0.34109161633E+02  0.34109161633E+02  0.00000000000E+00 0.  1.
          2   -1    0    0  502    0 -0.00000000000E+00 -0.00000000000E+00 -0.99325378174E+02  0.99325378174E+02  0.00000000000E+00 0. -1.
         24    2    1    2    0    0  0.37776371017E+00 -0.33289235629E+02 -0.57622529321E+02  0.99288090507E+02  0.73684822839E+02 0.  0.
        -13    1    3    3    0    0  0.89120935925E+01 -0.90314440725E+01  0.16509841841E+02  0.20822278258E+02  0.00000000000E+00 0.  1.
         14    1    3    3    0    0 -0.85343298823E+01 -0.24257791556E+02 -0.74132371162E+02  0.78465812249E+02  0.00000000000E+00 0. -1.
          1    1    1    2  501    0 -0.37776371017E+00  0.33289235629E+02 -0.75936872200E+01  0.34146449300E+02  0.00000000000E+00 0. -1.
<mgrwt>
<rscale>  1 0.80856472E+02</rscale>
<asrwt>0</asrwt>
<pdfrwt beam="1">  1       21 0.52475634E-02 0.80856472E+02</pdfrwt>
<pdfrwt beam="2">  1        2 0.15280827E-01 0.80856472E+02</pdfrwt>
<totfact> 0.10553992E+06</totfact>
</mgrwt>
</event>
<event>
 6    2  0.7993170E+000  0.8368616E+02  0.7546771E-02  0.1318905E+00
          2   -1    0    0  502    0 -0.00000000000E+00  0.00000000000E+00  0.13179032739E+04  0.13179032739E+04  0.00000000000E+00 0. -1.
         21   -1    0    0  501  502  0.00000000000E+00 -0.00000000000E+00 -0.46341054192E+01  0.46341054192E+01  0.00000000000E+00 0.  1.
         24    2    1    2    0    0  0.67866849783E+00  0.26198467273E+02  0.12636888960E+04  0.12664568685E+04  0.79476748430E+02 0.  0.
        -13    1    3    3    0    0 -0.14994793278E+02  0.20755715645E+01  0.45971123021E+02  0.48399338576E+02  0.00000000000E+00 0.  1.
         14    1    3    3    0    0  0.15673461776E+02  0.24122895708E+02  0.12177177730E+04  0.12180575299E+04  0.00000000000E+00 0. -1.
          1    1    1    2  501    0 -0.67866849783E+00 -0.26198467273E+02  0.49580272515E+02  0.56080510884E+02  0.00000000000E+00 0. -1.
<mgrwt>
<rscale>  1 0.83686163E+02</rscale>
<asrwt>0</asrwt>
<pdfrwt beam="1">  1       21 0.71294035E-03 0.83686163E+02</pdfrwt>
<pdfrwt beam="2">  1        2 0.20275405E+00 0.83686163E+02</pdfrwt>
<totfact> 0.13372182E+06</totfact>
</mgrwt>
</event>
<event>
 6    2  0.7993170E+000  0.8226873E+02  0.7546771E-02  0.1322734E+00
         -1   -1    0    0    0  501 -0.00000000000E+00  0.00000000000E+00  0.58396159244E+03  0.58396159244E+03  0.00000000000E+00 0.  1.
         21   -1    0    0  501  502  0.00000000000E+00 -0.00000000000E+00 -0.46153692504E+01  0.46153692504E+01  0.00000000000E+00 0. -1.
         24    2    1    2    0    0  0.13453944225E+02  0.14823664534E+02  0.50121737776E+03  0.50792421138E+03  0.79795959083E+02 0.  0.
        -13    1    3    3    0    0 -0.11512743417E+02  0.22838179267E+02  0.44666991743E+03  0.44740154317E+03  0.00000000000E+00 0.  1.
         14    1    3    3    0    0  0.24966687641E+02 -0.80145147328E+01  0.54547460329E+02  0.60522668204E+02  0.00000000000E+00 0. -1.
         -2    1    1    2    0  502 -0.13453944225E+02 -0.14823664534E+02  0.78128845432E+02  0.80652750319E+02  0.00000000000E+00 0.  1.
<mgrwt>
<rscale>  1 0.82268735E+02</rscale>
<asrwt>0</asrwt>
<pdfrwt beam="1">  1       21 0.71005727E-03 0.82268735E+02</pdfrwt>
<pdfrwt beam="2">  1       -1 0.89840187E-01 0.82268735E+02</pdfrwt>
<totfact> 0.71017003E+05</totfact>
</mgrwt>
</event>
<event>
 6    2  0.7993170E+000  0.1167242E+03  0.7546771E-02  0.1248601E+00
         21   -1    0    0  501  502  0.00000000000E+00  0.00000000000E+00  0.37433597852E+03  0.37433597852E+03  0.00000000000E+00 0. -1.
          4   -1    0    0  502    0 -0.00000000000E+00 -0.00000000000E+00 -0.51787793331E+02  0.51787793331E+02  0.00000000000E+00 0. -1.
         24    2    1    2    0    0  0.61987118316E+02 -0.26401878855E+02  0.33749536929E+03  0.35711014742E+03  0.95315639077E+02 0.  0.
        -11    1    3    3    0    0 -0.11252515556E+02 -0.21147261711E+02  0.19823680680E+03  0.19967888560E+03  0.00000000000E+00 0.  1.
         12    1    3    3    0    0  0.73239633872E+02 -0.52546171441E+01  0.13925856249E+03  0.15743126182E+03  0.00000000000E+00 0. -1.
          3    1    1    2  501    0 -0.61987118316E+02  0.26401878855E+02 -0.14947184104E+02  0.69013624429E+02  0.00000000000E+00 0. -1.
<mgrwt>
<rscale>  1 0.11672418E+03</rscale>
<asrwt>0</asrwt>
<pdfrwt beam="1">  1       21 0.57590149E-01 0.11672418E+03</pdfrwt>
<pdfrwt beam="2">  1        4 0.79673530E-02 0.11672418E+03</pdfrwt>
<totfact> 0.12781151E+04</totfact>
</mgrwt>
</event>
<event>
 6    2  0.7993170E+000  0.8647260E+02  0.7546771E-02  0.1311626E+00
          2   -1    0    0  502    0 -0.00000000000E+00  0.00000000000E+00  0.60677772982E+02  0.60677772982E+02  0.00000000000E+00 0. -1.
         21   -1    0    0  501  502  0.00000000000E+00 -0.00000000000E+00 -0.60404554057E+02  0.60404554057E+02  0.00000000000E+00 0.  1.
         24    2    1    2    0    0  0.29132125974E+02 -0.16745057511E+02  0.72077658152E+01  0.86772479249E+02  0.79677057879E+02 0.  0.
        -13    1    3    3    0    0  0.15899400071E+02 -0.46508123344E+02 -0.96612844498E+01  0.50091285438E+02  0.00000000000E+00 0.  1.
         14    1    3    3    0    0  0.13232725903E+02  0.29763065833E+02  0.16869050265E+02  0.36681193812E+02  0.00000000000E+00 0. -1.
          1    1    1    2  501    0 -0.29132125974E+02  0.16745057511E+02 -0.69345468894E+01  0.34309847790E+02  0.00000000000E+00 0. -1.
<mgrwt>
<rscale>  1 0.86472604E+02</rscale>
<asrwt>0</asrwt>
<pdfrwt beam="1">  1       21 0.92930084E-02 0.86472604E+02</pdfrwt>
<pdfrwt beam="2">  1        2 0.93350419E-02 0.86472604E+02</pdfrwt>
<totfact> 0.72515341E+05</totfact>
</mgrwt>
</event>
<event>
 6    2  0.7993170E+000  0.1303426E+03  0.7546771E-02  0.1226948E+00
         21   -1    0    0  501  502  0.00000000000E+00  0.00000000000E+00  0.13527080330E+02  0.13527080330E+02  0.00000000000E+00 0. -1.
          2   -1    0    0  502    0 -0.00000000000E+00 -0.00000000000E+00 -0.10801091685E+04  0.10801091685E+04  0.00000000000E+00 0. -1.
         24    2    1    2    0    0  0.82499443067E+02 -0.68478417710E+02 -0.68432455028E+03  0.69662708386E+03  0.74119849245E+02 0.  0.
        -13    1    3    3    0    0  0.60249895144E+01  0.13417725258E+02 -0.39710995481E+02  0.42347361333E+02  0.00000000000E+00 0.  1.
         14    1    3    3    0    0  0.76474453552E+02 -0.81896142968E+02 -0.64461355479E+03  0.65427972252E+03  0.00000000000E+00 0. -1.
          1    1    1    2  501    0 -0.82499443067E+02  0.68478417710E+02 -0.38225753792E+03  0.39700916500E+03  0.00000000000E+00 0. -1.
<mgrwt>
<rscale>  1 0.13034264E+03</rscale>
<asrwt>0</asrwt>
<pdfrwt beam="1">  1       21 0.20810895E-02 0.13034264E+03</pdfrwt>
<pdfrwt beam="2">  1        2 0.16617063E+00 0.13034264E+03</pdfrwt>
<totfact> 0.34119939E+05</totfact>
</mgrwt>
</event>
<event>
 6    2  0.7993170E+000  0.8539008E+02  0.7546771E-02  0.1314416E+00
         21   -1    0    0  501  502  0.00000000000E+00  0.00000000000E+00  0.42878693594E+01  0.42878693594E+01  0.00000000000E+00 0. -1.
          2   -1    0    0  502    0 -0.00000000000E+00 -0.00000000000E+00 -0.10375426284E+04  0.10375426284E+04  0.00000000000E+00 0. -1.
         24    2    1    2    0    0  0.29546129409E+02  0.11232478457E+01 -0.94295137862E+03  0.94680978441E+03  0.80107614958E+02 0.  0.
        -13    1    3    3    0    0 -0.18212590014E+02  0.11134902495E+02 -0.60261841070E+03  0.60299637926E+03  0.00000000000E+00 0.  1.
         14    1    3    3    0    0  0.47758719423E+02 -0.10011654650E+02 -0.34033296791E+03  0.34381340515E+03  0.00000000000E+00 0. -1.
          1    1    1    2  501    0 -0.29546129409E+02 -0.11232478457E+01 -0.90303380391E+02  0.95020713314E+02  0.00000000000E+00 0. -1.
<mgrwt>
<rscale>  1 0.85390078E+02</rscale>
<asrwt>0</asrwt>
<pdfrwt beam="1">  1       21 0.65967228E-03 0.85390078E+02</pdfrwt>
<pdfrwt beam="2">  1        2 0.15962193E+00 0.85390078E+02</pdfrwt>
<totfact> 0.21487642E+06</totfact>
</mgrwt>
</event>
<event>
 6    2  0.7993170E+000  0.8241955E+02  0.7546771E-02  0.1322322E+00
          2   -1    0    0  502    0 -0.00000000000E+00  0.00000000000E+00  0.15666006837E+04  0.15666006837E+04  0.00000000000E+00 0. -1.
         21   -1    0    0  501  502  0.00000000000E+00 -0.00000000000E+00 -0.35879606833E+01  0.35879606833E+01  0.00000000000E+00 0. -1.
         24    2    1    2    0    0  0.21336474552E+02  0.11484921282E+02  0.15058289774E+04  0.15080828530E+04  0.78777114150E+02 0.  0.
        -13    1    3    3    0    0  0.37427106340E+02 -0.56082371547E+01  0.35446093222E+03  0.35647551540E+03  0.00000000000E+00 0.  1.
         14    1    3    3    0    0 -0.16090631788E+02  0.17093158437E+02  0.11513680452E+04  0.11516073376E+04  0.00000000000E+00 0. -1.
          1    1    1    2  501    0 -0.21336474552E+02 -0.11484921282E+02  0.57183745635E+02  0.62105791420E+02  0.00000000000E+00 0. -1.
<mgrwt>
<rscale>  1 0.82419550E+02</rscale>
<asrwt>0</asrwt>
<pdfrwt beam="1">  1       21 0.55199520E-03 0.82419550E+02</pdfrwt>
<pdfrwt beam="2">  1        2 0.24101494E+00 0.82419550E+02</pdfrwt>
<totfact> 0.14757436E+06</totfact>
</mgrwt>
</event>
<event>
 6    2  0.7993170E+000  0.1812387E+03  0.7546771E-02  0.1166610E+00
          2   -1    0    0  502    0 -0.00000000000E+00  0.00000000000E+00  0.20395596449E+04  0.20395596449E+04  0.00000000000E+00 0. -1.
         21   -1    0    0  501  502  0.00000000000E+00 -0.00000000000E+00 -0.21023133068E+02  0.21023133068E+02  0.00000000000E+00 0. -1.
         24    2    1    2    0    0 -0.97669730720E+02  0.12571795210E+03  0.16392733205E+04  0.16492617986E+04  0.86620327894E+02 0.  0.
        -13    1    3    3    0    0 -0.38983428102E+02 -0.35299633586E+01  0.32763141007E+03  0.32996137527E+03  0.00000000000E+00 0.  1.
         14    1    3    3    0    0 -0.58686302618E+02  0.12924791546E+03  0.13116419104E+04  0.13193004233E+04  0.00000000000E+00 0. -1.
          1    1    1    2  501    0  0.97669730720E+02 -0.12571795210E+03  0.37926319136E+03  0.41132097940E+03  0.00000000000E+00 0. -1.
<mgrwt>
<rscale>  1 0.18123869E+03</rscale>
<asrwt>0</asrwt>
<pdfrwt beam="1">  1       21 0.32343298E-02 0.18123869E+03</pdfrwt>
<pdfrwt beam="2">  1        2 0.31377825E+00 0.18123869E+03</pdfrwt>
<totfact> 0.51471301E+04</totfact>
</mgrwt>
</event>
<event>
 6    2  0.7993170E+000  0.8399131E+02  0.7546771E-02  0.1318092E+00
         -1   -1    0    0    0  501 -0.00000000000E+00  0.00000000000E+00  0.29664660158E+02  0.29664660158E+02  0.00000000000E+00 0.  1.
         21   -1    0    0  501  502  0.00000000000E+00 -0.00000000000E+00 -0.22226889042E+03  0.22226889042E+03  0.00000000000E+00 0.  1.
         24    2    1    2    0    0 -0.83681233430E+01 -0.26324561694E+02 -0.33461480933E+02  0.90411345601E+02  0.79319182235E+02 0.  0.
        -13    1    3    3    0    0 -0.19595535009E+02  0.16864737592E+02  0.10374744336E+02  0.27857488874E+02  0.00000000000E+00 0.  1.
         14    1    3    3    0    0  0.11227411666E+02 -0.43189299286E+02 -0.43836225269E+02  0.62553856727E+02  0.00000000000E+00 0. -1.
         -2    1    1    2    0  502  0.83681233430E+01  0.26324561694E+02 -0.15914274932E+03  0.16152220497E+03  0.00000000000E+00 0.  1.
<mgrwt>
<rscale>  1 0.83991313E+02</rscale>
<asrwt>0</asrwt>
<pdfrwt beam="1">  1       21 0.34195213E-01 0.83991313E+02</pdfrwt>
<pdfrwt beam="2">  1       -1 0.45637939E-02 0.83991313E+02</pdfrwt>
<totfact> 0.13979689E+05</totfact>
</mgrwt>
</event>
<event>
 6    2  0.7993170E+000  0.8569431E+02  0.7546771E-02  0.1313627E+00
         21   -1    0    0  501  502  0.00000000000E+00  0.00000000000E+00  0.15509522935E+01  0.15509522935E+01  0.00000000000E+00 0. -1.
          2   -1    0    0  502    0 -0.00000000000E+00 -0.00000000000E+00 -0.29024788045E+04  0.29024788045E+04  0.00000000000E+00 0. -1.
         24    2    1    2    0    0 -0.25287726501E+02 -0.10160740596E+02 -0.26879094879E+04  0.26892751682E+04  0.81245342994E+02 0.  0.
        -13    1    3    3    0    0 -0.98615593815E+01  0.12589481424E+02 -0.10424954085E+03  0.10546901044E+03  0.00000000000E+00 0.  1.
         14    1    3    3    0    0 -0.15426167120E+02 -0.22750222020E+02 -0.25836599470E+04  0.25838061578E+04  0.00000000000E+00 0. -1.
          1    1    1    2  501    0  0.25287726501E+02  0.10160740596E+02 -0.21301836433E+03  0.21475458855E+03  0.00000000000E+00 0. -1.
<mgrwt>
<rscale>  1 0.85694314E+02</rscale>
<asrwt>0</asrwt>
<pdfrwt beam="1">  1       21 0.23860843E-03 0.85694314E+02</pdfrwt>
<pdfrwt beam="2">  1        2 0.44653448E+00 0.85694314E+02</pdfrwt>
<totfact> 0.10806804E+06</totfact>
</mgrwt>
</event>
<event>
 6    2  0.7993170E+000  0.9391100E+02  0.7546771E-02  0.1293648E+00
         -1   -1    0    0    0  501 -0.00000000000E+00  0.00000000000E+00  0.60695257882E+01  0.60695257882E+01  0.00000000000E+00 0.  1.
         21   -1    0    0  501  502  0.00000000000E+00 -0.00000000000E+00 -0.89229115416E+03  0.89229115416E+03  0.00000000000E+00 0.  1.
         24    2    1    2    0    0  0.51077637641E+02  0.10247297687E+02 -0.51362309213E+03  0.52213787178E+03  0.78136702006E+02 0.  0.
        -11    1    3    3    0    0  0.37605994646E+02  0.33549561269E+02 -0.16617649898E+03  0.17365025974E+03  0.00000000000E+00 0.  1.
         12    1    3    3    0    0  0.13471642995E+02 -0.23302263582E+02 -0.34744659316E+03  0.34848761204E+03  0.00000000000E+00 0. -1.
         -2    1    1    2    0  502 -0.51077637641E+02 -0.10247297687E+02 -0.37259853624E+03  0.37622280817E+03  0.00000000000E+00 0.  1.
<mgrwt>
<rscale>  1 0.93911002E+02</rscale>
<asrwt>0</asrwt>
<pdfrwt beam="1">  1       21 0.13727558E+00 0.93911002E+02</pdfrwt>
<pdfrwt beam="2">  1       -1 0.93377311E-03 0.93911002E+02</pdfrwt>
<totfact> 0.66651229E+04</totfact>
</mgrwt>
</event>
<event>
 6    2  0.7993170E+000  0.6993042E+02  0.7546771E-02  0.1360330E+00
         21   -1    0    0  501  502  0.00000000000E+00  0.00000000000E+00  0.33804476494E+02  0.33804476494E+02  0.00000000000E+00 0. -1.
          2   -1    0    0  502    0 -0.00000000000E+00 -0.00000000000E+00 -0.62143191500E+02  0.62143191500E+02  0.00000000000E+00 0. -1.
         24    2    1    2    0    0 -0.14324670870E+02 -0.14957083823E+02 -0.27732359397E+02  0.75228637631E+02  0.66793365016E+02 0.  0.
        -13    1    3    3    0    0  0.21281933372E+02  0.12432860988E+02 -0.62166586355E+01  0.25419354142E+02  0.00000000000E+00 0.  1.
         14    1    3    3    0    0 -0.35606604242E+02 -0.27389944812E+02 -0.21515700761E+02  0.49809283489E+02  0.00000000000E+00 0. -1.
          1    1    1    2  501    0  0.14324670870E+02  0.14957083823E+02 -0.60635560917E+00  0.20719030362E+02  0.00000000000E+00 0. -1.
<mgrwt>
<rscale>  1 0.69930424E+02</rscale>
<asrwt>0</asrwt>
<pdfrwt beam="1">  1       21 0.52006887E-02 0.69930424E+02</pdfrwt>
<pdfrwt beam="2">  1        2 0.95604909E-02 0.69930424E+02</pdfrwt>
<totfact> 0.18269337E+06</totfact>
</mgrwt>
</event>
<event>
 6    2  0.7993170E+000  0.9952872E+02  0.7546771E-02  0.1281290E+00
         21   -1    0    0  501  502  0.00000000000E+00  0.00000000000E+00  0.98901631677E+02  0.98901631677E+02  0.00000000000E+00 0. -1.
          4   -1    0    0  502    0 -0.00000000000E+00 -0.00000000000E+00 -0.64741050717E+02  0.64741050717E+02  0.00000000000E+00 0. -1.
         24    2    1    2    0    0  0.17712247752E+02  0.57472155666E+02  0.15891428525E+02  0.10078940620E+03  0.79304441898E+02 0.  0.
        -13    1    3    3    0    0  0.47792947652E+02  0.21267291429E+02  0.11096809132E+02  0.53475253182E+02  0.00000000000E+00 0.  1.
         14    1    3    3    0    0 -0.30080699900E+02  0.36204864237E+02  0.47946193926E+01  0.47314153020E+02  0.00000000000E+00 0. -1.
          3    1    1    2  501    0 -0.17712247752E+02 -0.57472155666E+02  0.18269152435E+02  0.62853276191E+02  0.00000000000E+00 0. -1.
<mgrwt>
<rscale>  1 0.99528724E+02</rscale>
<asrwt>0</asrwt>
<pdfrwt beam="1">  1       21 0.15215636E-01 0.99528724E+02</pdfrwt>
<pdfrwt beam="2">  1        4 0.99601617E-02 0.99528724E+02</pdfrwt>
<totfact> 0.11238244E+05</totfact>
</mgrwt>
</event>
<event>
 6    2  0.7993170E+000  0.8768114E+02  0.7546771E-02  0.1308566E+00
         21   -1    0    0  501  502  0.00000000000E+00  0.00000000000E+00  0.55607819626E+03  0.55607819626E+03  0.00000000000E+00 0. -1.
         -1   -1    0    0    0  501 -0.00000000000E+00 -0.00000000000E+00 -0.72254882778E+01  0.72254882778E+01  0.00000000000E+00 0.  1.
         24    2    1    2    0    0 -0.46371002560E+01  0.33770593147E+02  0.31484149017E+03  0.32682280640E+03  0.80783830028E+02 0.  0.
        -13    1    3    3    0    0 -0.19952466758E+02  0.63720777758E+01  0.16051275559E+02  0.26388401846E+02  0.00000000000E+00 0.  1.
         14    1    3    3    0    0  0.15315366502E+02  0.27398515371E+02  0.29879021461E+03  0.30043440456E+03  0.00000000000E+00 0. -1.
         -2    1    1    2    0  502  0.46371002560E+01 -0.33770593147E+02  0.23401121781E+03  0.23648087813E+03  0.00000000000E+00 0.  1.
<mgrwt>
<rscale>  1 0.87681143E+02</rscale>
<asrwt>0</asrwt>
<pdfrwt beam="1">  1       21 0.85550458E-01 0.87681143E+02</pdfrwt>
<pdfrwt beam="2">  1       -1 0.11116140E-02 0.87681143E+02</pdfrwt>
<totfact> 0.15819071E+05</totfact>
</mgrwt>
</event>
<event>
 6    2  0.7993170E+000  0.9788782E+02  0.7546771E-02  0.1284801E+00
          4   -1    0    0  502    0 -0.00000000000E+00  0.00000000000E+00  0.16115237767E+03  0.16115237767E+03  0.00000000000E+00 0. -1.
         21   -1    0    0  501  502  0.00000000000E+00 -0.00000000000E+00 -0.23855006799E+02  0.23855006799E+02  0.00000000000E+00 0.  1.
         24    2    1    2    0    0  0.20548613620E+02 -0.62449233666E+01  0.89623212575E+02  0.13271904964E+03  0.95502781722E+02 0.  0.
        -11    1    3    3    0    0 -0.24249188032E+02 -0.34489204468E+02  0.55584101638E+02  0.69764752561E+02  0.00000000000E+00 0.  1.
         12    1    3    3    0    0  0.44797801652E+02  0.28244281101E+02  0.34039110936E+02  0.62954297082E+02  0.00000000000E+00 0. -1.
          3    1    1    2  501    0 -0.20548613620E+02  0.62449233666E+01  0.47674158291E+02  0.52288334821E+02  0.00000000000E+00 0. -1.
<mgrwt>
<rscale>  1 0.97887823E+02</rscale>
<asrwt>0</asrwt>
<pdfrwt beam="1">  1       21 0.36700012E-02 0.97887823E+02</pdfrwt>
<pdfrwt beam="2">  1        4 0.24792673E-01 0.97887823E+02</pdfrwt>
<totfact> 0.25942379E+05</totfact>
</mgrwt>
</event>
<event>
 6    2  0.7993170E+000  0.8508128E+02  0.7546771E-02  0.1315220E+00
          2   -1    0    0  502    0 -0.00000000000E+00  0.00000000000E+00  0.16229935097E+03  0.16229935097E+03  0.00000000000E+00 0. -1.
         21   -1    0    0  501  502  0.00000000000E+00 -0.00000000000E+00 -0.21102788889E+02  0.21102788889E+02  0.00000000000E+00 0.  1.
         24    2    1    2    0    0 -0.45594632372E+01  0.27671155604E+02  0.83295947876E+02  0.11906736946E+03  0.80326471224E+02 0.  0.
        -11    1    3    3    0    0 -0.30238094495E+02  0.40587128204E+02  0.30885620600E+02  0.59292317331E+02  0.00000000000E+00 0.  1.
         12    1    3    3    0    0  0.25678631258E+02 -0.12915972601E+02  0.52410327276E+02  0.59775052127E+02  0.00000000000E+00 0. -1.
          1    1    1    2  501    0  0.45594632372E+01 -0.27671155604E+02  0.57900614204E+02  0.64334770402E+02  0.00000000000E+00 0. -1.
<mgrwt>
<rscale>  1 0.85081276E+02</rscale>
<asrwt>0</asrwt>
<pdfrwt beam="1">  1       21 0.32465830E-02 0.85081276E+02</pdfrwt>
<pdfrwt beam="2">  1        2 0.24969130E-01 0.85081276E+02</pdfrwt>
<totfact> 0.13517410E+06</totfact>
</mgrwt>
</event>
<event>
 6    2  0.7993170E+000  0.8452359E+02  0.7546771E-02  0.1316683E+00
         21   -1    0    0  501  502  0.00000000000E+00  0.00000000000E+00  0.22801933235E+01  0.22801933235E+01  0.00000000000E+00 0.  1.
          2   -1    0    0  502    0 -0.00000000000E+00 -0.00000000000E+00 -0.15134229939E+04  0.15134229939E+04  0.00000000000E+00 0. -1.
         24    2    1    2    0    0  0.21303856183E+02 -0.57572934988E+01 -0.84999249537E+03  0.85418468651E+03  0.81591885379E+02 0.  0.
        -11    1    3    3    0    0  0.23707741898E+02  0.35665734994E+02 -0.40200184819E+03  0.40427662265E+03  0.00000000000E+00 0.  1.
         12    1    3    3    0    0 -0.24038857154E+01 -0.41423028492E+02 -0.44799064719E+03  0.44990806385E+03  0.00000000000E+00 0. -1.
          1    1    1    2  501    0 -0.21303856183E+02  0.57572934988E+01 -0.66115030517E+03  0.66151850068E+03  0.00000000000E+00 0. -1.
<mgrwt>
<rscale>  1 0.84523585E+02</rscale>
<asrwt>0</asrwt>
<pdfrwt beam="1">  1       21 0.35079968E-03 0.84523585E+02</pdfrwt>
<pdfrwt beam="2">  1        2 0.23283384E+00 0.84523585E+02</pdfrwt>
<totfact> 0.31405024E+06</totfact>
</mgrwt>
</event>
<event>
 6    2  0.7993170E+000  0.1194117E+03  0.7546771E-02  0.1244071E+00
         21   -1    0    0  501  502  0.00000000000E+00  0.00000000000E+00  0.78003641533E+01  0.78003641533E+01  0.00000000000E+00 0. -1.
          2   -1    0    0  502    0 -0.00000000000E+00 -0.00000000000E+00 -0.18893749944E+04  0.18893749944E+04  0.00000000000E+00 0. -1.
         24    2    1    2    0    0  0.84951996327E+02  0.34215981367E+02 -0.15007477372E+04  0.15054909224E+04  0.76626181179E+02 0.  0.
        -13    1    3    3    0    0  0.74766079909E+02 -0.56074408344E+01 -0.78799706470E+03  0.79155592606E+03  0.00000000000E+00 0.  1.
         14    1    3    3    0    0  0.10185916417E+02  0.39823422202E+02 -0.71275067251E+03  0.71393499635E+03  0.00000000000E+00 0. -1.
          1    1    1    2  501    0 -0.84951996327E+02 -0.34215981367E+02 -0.38082689303E+03  0.39168443615E+03  0.00000000000E+00 0. -1.
<mgrwt>
<rscale>  1 0.11941167E+03</rscale>
<asrwt>0</asrwt>
<pdfrwt beam="1">  1       21 0.12000544E-02 0.11941167E+03</pdfrwt>
<pdfrwt beam="2">  1        2 0.29067347E+00 0.11941167E+03</pdfrwt>
<totfact> 0.30753137E+05</totfact>
</mgrwt>
</event>
<event>
 6    2  0.7993170E+000  0.8502007E+02  0.7546771E-02  0.1315380E+00
          2   -1    0    0  502    0 -0.00000000000E+00  0.00000000000E+00  0.31799553881E+04  0.31799553881E+04  0.00000000000E+00 0. -1.
         21   -1    0    0  501  502  0.00000000000E+00 -0.00000000000E+00 -0.10611677292E+01  0.10611677292E+01  0.00000000000E+00 0. -1.
         24    2    1    2    0    0 -0.22795725864E+02  0.15653876476E+02  0.20133154992E+04  0.20151098510E+04  0.80397285880E+02 0.  0.
        -13    1    3    3    0    0  0.14024347209E+02 -0.23295926018E+02  0.41122307193E+03  0.41212109552E+03  0.00000000000E+00 0.  1.
         14    1    3    3    0    0 -0.36820073074E+02  0.38949802495E+02  0.16020924272E+04  0.16029887555E+04  0.00000000000E+00 0. -1.
          1    1    1    2  501    0  0.22795725864E+02 -0.15653876476E+02  0.11655787212E+04  0.11659067048E+04  0.00000000000E+00 0. -1.
<mgrwt>
<rscale>  1 0.85020071E+02</rscale>
<asrwt>0</asrwt>
<pdfrwt beam="1">  1       21 0.16325912E-03 0.85020071E+02</pdfrwt>
<pdfrwt beam="2">  1        2 0.48921628E+00 0.85020071E+02</pdfrwt>
<totfact> 0.13220274E+06</totfact>
</mgrwt>
</event>
<event>
 6    2  0.7993170E+000  0.8336297E+02  0.7546771E-02  0.1319770E+00
          2   -1    0    0  502    0 -0.00000000000E+00  0.00000000000E+00  0.40998992285E+03  0.40998992285E+03  0.00000000000E+00 0. -1.
         21   -1    0    0  501  502  0.00000000000E+00 -0.00000000000E+00 -0.11315037881E+02  0.11315037881E+02  0.00000000000E+00 0. -1.
         24    2    1    2    0    0  0.63497774508E+01  0.26646390138E+02  0.37773816777E+03  0.38682749116E+03  0.78733949128E+02 0.  0.
        -11    1    3    3    0    0  0.17017543568E+02  0.19878533539E+02  0.34227102546E+02  0.43084190063E+02  0.00000000000E+00 0.  1.
         12    1    3    3    0    0 -0.10667766117E+02  0.67678565995E+01  0.34351106522E+03  0.34374330110E+03  0.00000000000E+00 0. -1.
          1    1    1    2  501    0 -0.63497774508E+01 -0.26646390138E+02  0.20936717204E+02  0.34477469576E+02  0.00000000000E+00 0. -1.
<mgrwt>
<rscale>  1 0.83362969E+02</rscale>
<asrwt>0</asrwt>
<pdfrwt beam="1">  1       21 0.17407754E-02 0.83362969E+02</pdfrwt>
<pdfrwt beam="2">  1        2 0.63075361E-01 0.83362969E+02</pdfrwt>
<totfact> 0.13831186E+06</totfact>
</mgrwt>
</event>
<event>
 6    2  0.7993170E+000  0.8553755E+02  0.7546771E-02  0.1314033E+00
         -3   -1    0    0    0  501 -0.00000000000E+00  0.00000000000E+00  0.44456831984E+03  0.44456831984E+03  0.00000000000E+00 0.  1.
         21   -1    0    0  501  502  0.00000000000E+00 -0.00000000000E+00 -0.18887481530E+02  0.18887481530E+02  0.00000000000E+00 0.  1.
         24    2    1    2    0    0  0.27794143174E+02 -0.23129732843E+01  0.42704971708E+03  0.43553201099E+03  0.80862893211E+02 0.  0.
        -13    1    3    3    0    0  0.17189743444E+02 -0.78864839456E+01  0.42217486964E+03  0.42259827788E+03  0.00000000000E+00 0.  1.
         14    1    3    3    0    0  0.10604399730E+02  0.55735106613E+01  0.48748474431E+01  0.12933733116E+02  0.00000000000E+00 0. -1.
         -4    1    1    2    0  502 -0.27794143174E+02  0.23129732843E+01 -0.13688787693E+01  0.27923790382E+02  0.00000000000E+00 0.  1.
<mgrwt>
<rscale>  1 0.85537546E+02</rscale>
<asrwt>0</asrwt>
<pdfrwt beam="1">  1       21 0.29057667E-02 0.85537546E+02</pdfrwt>
<pdfrwt beam="2">  1       -3 0.68395118E-01 0.85537546E+02</pdfrwt>
<totfact> 0.63025544E+04</totfact>
</mgrwt>
</event>
<event>
 6    2  0.7993170E+000  0.8632996E+02  0.7546771E-02  0.1311991E+00
         21   -1    0    0  501  502  0.00000000000E+00  0.00000000000E+00  0.23111255604E+02  0.23111255604E+02  0.00000000000E+00 0. -1.
         -1   -1    0    0    0  501 -0.00000000000E+00 -0.00000000000E+00 -0.13926131286E+03  0.13926131286E+03  0.00000000000E+00 0.  1.
         24    2    1    2    0    0 -0.13273301549E+02  0.23506233911E+02 -0.91830598733E+02  0.12603856745E+03  0.82000841795E+02 0.  0.
        -13    1    3    3    0    0  0.14774047735E+02  0.46291514403E+02 -0.40459979010E+02  0.63231216133E+02  0.00000000000E+00 0.  1.
         14    1    3    3    0    0 -0.28047349284E+02 -0.22785280492E+02 -0.51370619722E+02  0.62807351318E+02  0.00000000000E+00 0. -1.
         -2    1    1    2    0  502  0.13273301549E+02 -0.23506233911E+02 -0.24319458524E+02  0.36334001013E+02  0.00000000000E+00 0.  1.
<mgrwt>
<rscale>  1 0.86329958E+02</rscale>
<asrwt>0</asrwt>
<pdfrwt beam="1">  1       21 0.35555778E-02 0.86329958E+02</pdfrwt>
<pdfrwt beam="2">  1       -1 0.21424817E-01 0.86329958E+02</pdfrwt>
<totfact> 0.71913718E+05</totfact>
</mgrwt>
</event>
<event>
 6    2  0.7993170E+000  0.9924008E+02  0.7546771E-02  0.1281902E+00
          2   -1    0    0  502    0 -0.00000000000E+00  0.00000000000E+00  0.35917391785E+04  0.35917391785E+04  0.00000000000E+00 0. -1.
         21   -1    0    0  501  502  0.00000000000E+00 -0.00000000000E+00 -0.26541800048E+01  0.26541800048E+01  0.00000000000E+00 0. -1.
         24    2    1    2    0    0  0.30716120577E+02 -0.15664298538E+02  0.34376708174E+04  0.34391029707E+04  0.93057744862E+02 0.  0.
        -11    1    3    3    0    0  0.16698368292E+02  0.11282661895E+02  0.15658068217E+03  0.15787223946E+03  0.00000000000E+00 0.  1.
         12    1    3    3    0    0  0.14017752285E+02 -0.26946960433E+02  0.32810901352E+04  0.32812307312E+04  0.00000000000E+00 0. -1.
          1    1    1    2  501    0 -0.30716120577E+02  0.15664298538E+02  0.15141418115E+03  0.15529038787E+03  0.00000000000E+00 0. -1.
<mgrwt>
<rscale>  1 0.99240084E+02</rscale>
<asrwt>0</asrwt>
<pdfrwt beam="1">  1       21 0.40833826E-03 0.99240084E+02</pdfrwt>
<pdfrwt beam="2">  1        2 0.55257137E+00 0.99240084E+02</pdfrwt>
<totfact> 0.18406235E+05</totfact>
</mgrwt>
</event>
<event>
 6    2  0.7993170E+000  0.8304414E+02  0.7546771E-02  0.1320628E+00
          2   -1    0    0  502    0 -0.00000000000E+00  0.00000000000E+00  0.79883241339E+02  0.79883241339E+02  0.00000000000E+00 0. -1.
         21   -1    0    0  501  502  0.00000000000E+00 -0.00000000000E+00 -0.41487969503E+02  0.41487969503E+02  0.00000000000E+00 0.  1.
         24    2    1    2    0    0  0.15305682167E+02  0.19013263325E+02  0.95603510280E+01  0.83592635605E+02  0.79376068981E+02 0.  0.
        -11    1    3    3    0    0  0.29938950826E+02 -0.42383517636E+00 -0.26572119656E+02  0.40032461277E+02  0.00000000000E+00 0.  1.
         12    1    3    3    0    0 -0.14633268659E+02  0.19437098501E+02  0.36132470684E+02  0.43560174329E+02  0.00000000000E+00 0. -1.
          1    1    1    2  501    0 -0.15305682167E+02 -0.19013263325E+02  0.28834920808E+02  0.37778575236E+02  0.00000000000E+00 0. -1.
<mgrwt>
<rscale>  1 0.83044135E+02</rscale>
<asrwt>0</asrwt>
<pdfrwt beam="1">  1       21 0.63827646E-02 0.83044135E+02</pdfrwt>
<pdfrwt beam="2">  1        2 0.12289729E-01 0.83044135E+02</pdfrwt>
<totfact> 0.98342326E+05</totfact>
</mgrwt>
</event>
<event>
 6    2  0.7993170E+000  0.8830792E+02  0.7546771E-02  0.1307002E+00
         21   -1    0    0  501  502  0.00000000000E+00  0.00000000000E+00  0.29767928242E+01  0.29767928242E+01  0.00000000000E+00 0. -1.
          2   -1    0    0  502    0 -0.00000000000E+00 -0.00000000000E+00 -0.23664348042E+04  0.23664348042E+04  0.00000000000E+00 0. -1.
         24    2    1    2    0    0 -0.36607531000E+02  0.11063145223E+02 -0.21903600158E+04  0.21921394318E+04  0.79597643898E+02 0.  0.
        -11    1    3    3    0    0  0.24854713691E+02  0.70645646368E+00 -0.47923269276E+03  0.47987730691E+03  0.00000000000E+00 0.  1.
         12    1    3    3    0    0 -0.61462244691E+02  0.10356688759E+02 -0.17111273231E+04  0.17122621249E+04  0.00000000000E+00 0. -1.
          1    1    1    2  501    0  0.36607531000E+02 -0.11063145223E+02 -0.17309799556E+03  0.17727216526E+03  0.00000000000E+00 0. -1.
<mgrwt>
<rscale>  1 0.88307924E+02</rscale>
<asrwt>0</asrwt>
<pdfrwt beam="1">  1       21 0.45796752E-03 0.88307924E+02</pdfrwt>
<pdfrwt beam="2">  1        2 0.36406738E+00 0.88307924E+02</pdfrwt>
<totfact> 0.77937557E+05</totfact>
</mgrwt>
</event>
<event>
 6    2  0.7993170E+000  0.9564657E+02  0.7546771E-02  0.1289726E+00
         -1   -1    0    0    0  501 -0.00000000000E+00  0.00000000000E+00  0.88432818852E+02  0.88432818852E+02  0.00000000000E+00 0.  1.
         21   -1    0    0  501  502  0.00000000000E+00 -0.00000000000E+00 -0.59117249965E+02  0.59117249965E+02  0.00000000000E+00 0. -1.
         24    2    1    2    0    0 -0.23283095695E+02 -0.43066984311E+02  0.18862917491E+02  0.97488850255E+02  0.82166894702E+02 0.  0.
        -13    1    3    3    0    0 -0.10006814420E+02 -0.42384004882E+02  0.48393750437E+02  0.65103727129E+02  0.00000000000E+00 0.  1.
         14    1    3    3    0    0 -0.13276281275E+02 -0.68297942818E+00 -0.29530832946E+02  0.32385123126E+02  0.00000000000E+00 0. -1.
         -2    1    1    2    0  502  0.23283095695E+02  0.43066984311E+02  0.10452651396E+02  0.50061218562E+02  0.00000000000E+00 0.  1.
<mgrwt>
<rscale>  1 0.95646570E+02</rscale>
<asrwt>0</asrwt>
<pdfrwt beam="1">  1       21 0.90949615E-02 0.95646570E+02</pdfrwt>
<pdfrwt beam="2">  1       -1 0.13605049E-01 0.95646570E+02</pdfrwt>
<totfact> 0.30657041E+05</totfact>
</mgrwt>
</event>
<event>
 6    2  0.7993170E+000  0.9276157E+02  0.7546771E-02  0.1296299E+00
         21   -1    0    0  501  502  0.00000000000E+00  0.00000000000E+00  0.44701635899E+01  0.44701635899E+01  0.00000000000E+00 0.  1.
          2   -1    0    0  502    0 -0.00000000000E+00 -0.00000000000E+00 -0.99399685220E+03  0.99399685220E+03  0.00000000000E+00 0. -1.
         24    2    1    2    0    0 -0.32065275501E+02 -0.24651727755E+02 -0.70731264295E+03  0.71336938840E+03  0.83479457702E+02 0.  0.
        -11    1    3    3    0    0 -0.26858864968E+02 -0.55378734327E+02 -0.45856873275E+03  0.46268075981E+03  0.00000000000E+00 0.  1.
         12    1    3    3    0    0 -0.52064105324E+01  0.30727006572E+02 -0.24874391020E+03  0.25068862859E+03  0.00000000000E+00 0. -1.
          1    1    1    2  501    0  0.32065275501E+02  0.24651727755E+02 -0.28221404566E+03  0.28509762739E+03  0.00000000000E+00 0. -1.
<mgrwt>
<rscale>  1 0.92761573E+02</rscale>
<asrwt>0</asrwt>
<pdfrwt beam="1">  1       21 0.68771739E-03 0.92761573E+02</pdfrwt>
<pdfrwt beam="2">  1        2 0.15292261E+00 0.92761573E+02</pdfrwt>
<totfact> 0.21531520E+06</totfact>
</mgrwt>
</event>
<event>
 6    2  0.7993170E+000  0.8664501E+02  0.7546771E-02  0.1311186E+00
         -1   -1    0    0    0  501 -0.00000000000E+00  0.00000000000E+00  0.63561435789E+02  0.63561435789E+02  0.00000000000E+00 0.  1.
         21   -1    0    0  501  502  0.00000000000E+00 -0.00000000000E+00 -0.74696435593E+02  0.74696435593E+02  0.00000000000E+00 0. -1.
         24    2    1    2    0    0 -0.14417854134E+01 -0.35850578885E+02 -0.36808148899E+02  0.94139243388E+02  0.78867068975E+02 0.  0.
        -11    1    3    3    0    0  0.27486315063E+02  0.12494573081E+02 -0.10566092974E+02  0.31988344642E+02  0.00000000000E+00 0.  1.
         12    1    3    3    0    0 -0.28928100476E+02 -0.48345151966E+02 -0.26242055925E+02  0.62150898746E+02  0.00000000000E+00 0. -1.
         -2    1    1    2    0  502  0.14417854134E+01  0.35850578885E+02  0.25673149095E+02  0.44118627993E+02  0.00000000000E+00 0.  1.
<mgrwt>
<rscale>  1 0.86645007E+02</rscale>
<asrwt>0</asrwt>
<pdfrwt beam="1">  1       21 0.11491759E-01 0.86645007E+02</pdfrwt>
<pdfrwt beam="2">  1       -1 0.97786825E-02 0.86645007E+02</pdfrwt>
<totfact> 0.33459576E+05</totfact>
</mgrwt>
</event>
<event>
 6    2  0.7993170E+000  0.8022610E+02  0.7546771E-02  0.1328411E+00
          2   -1    0    0  502    0 -0.00000000000E+00  0.00000000000E+00  0.11253269586E+04  0.11253269586E+04  0.00000000000E+00 0. -1.
         21   -1    0    0  501  502  0.00000000000E+00 -0.00000000000E+00 -0.32561315466E+01  0.32561315466E+01  0.00000000000E+00 0. -1.
         24    2    1    2    0    0  0.68347430205E+01  0.21275431110E+02  0.10515620561E+04  0.10546179331E+04  0.77051081901E+02 0.  0.
        -11    1    3    3    0    0 -0.17256774833E+02  0.37510072304E+02  0.34548904125E+03  0.34794752396E+03  0.00000000000E+00 0.  1.
         12    1    3    3    0    0  0.24091517853E+02 -0.16234641194E+02  0.70607301488E+03  0.70667040913E+03  0.00000000000E+00 0. -1.
          1    1    1    2  501    0 -0.68347430205E+01 -0.21275431110E+02  0.70508770899E+02  0.73965157032E+02  0.00000000000E+00 0. -1.
<mgrwt>
<rscale>  1 0.80226099E+02</rscale>
<asrwt>0</asrwt>
<pdfrwt beam="1">  1       21 0.50094421E-03 0.80226099E+02</pdfrwt>
<pdfrwt beam="2">  1        2 0.17312691E+00 0.80226099E+02</pdfrwt>
<totfact> 0.29072386E+06</totfact>
</mgrwt>
</event>
<event>
 6    2  0.7993170E+000  0.8199407E+02  0.7546771E-02  0.1323486E+00
         -1   -1    0    0    0  501 -0.00000000000E+00  0.00000000000E+00  0.35106144524E+03  0.35106144524E+03  0.00000000000E+00 0.  1.
         21   -1    0    0  501  502  0.00000000000E+00 -0.00000000000E+00 -0.16525547487E+02  0.16525547487E+02  0.00000000000E+00 0.  1.
         24    2    1    2    0    0  0.24717138782E+02 -0.35711585420E+01  0.33257824591E+03  0.34253659305E+03  0.78098257389E+02 0.  0.
        -11    1    3    3    0    0  0.34311556729E+02 -0.60959050766E+01  0.33058570080E+03  0.33241743119E+03  0.00000000000E+00 0.  1.
         12    1    3    3    0    0 -0.95944179476E+01  0.25247465346E+01  0.19925451041E+01  0.10119161863E+02  0.00000000000E+00 0. -1.
         -2    1    1    2    0  502 -0.24717138782E+02  0.35711585420E+01  0.19576518421E+01  0.25050399670E+02  0.00000000000E+00 0.  1.
<mgrwt>
<rscale>  1 0.81994073E+02</rscale>
<asrwt>0</asrwt>
<pdfrwt beam="1">  1       21 0.25423922E-02 0.81994073E+02</pdfrwt>
<pdfrwt beam="2">  1       -1 0.54009447E-01 0.81994073E+02</pdfrwt>
<totfact> 0.25692836E+05</totfact>
</mgrwt>
</event>
<event>
 6    2  0.7993170E+000  0.8229744E+02  0.7546771E-02  0.1322655E+00
         -1   -1    0    0    0  501 -0.00000000000E+00  0.00000000000E+00  0.29742617649E+02  0.29742617649E+02  0.00000000000E+00 0.  1.
         21   -1    0    0  501  502  0.00000000000E+00 -0.00000000000E+00 -0.19156015879E+03  0.19156015879E+03  0.00000000000E+00 0.  1.
         24    2    1    2    0    0  0.21846383685E+02 -0.99210555158E+01 -0.30431132250E+02  0.87743500221E+02  0.78722145539E+02 0.  0.
        -11    1    3    3    0    0 -0.61870058766E+00  0.12232423145E+02  0.22790206500E+02  0.25872929458E+02  0.00000000000E+00 0.  1.
         12    1    3    3    0    0  0.22465084273E+02 -0.22153478660E+02 -0.53221338750E+02  0.61870570763E+02  0.00000000000E+00 0. -1.
         -2    1    1    2    0  502 -0.21846383685E+02  0.99210555158E+01 -0.13138640889E+03  0.13355927622E+03  0.00000000000E+00 0.  1.
<mgrwt>
<rscale>  1 0.82297436E+02</rscale>
<asrwt>0</asrwt>
<pdfrwt beam="1">  1       21 0.29470792E-01 0.82297436E+02</pdfrwt>
<pdfrwt beam="2">  1       -1 0.45757876E-02 0.82297436E+02</pdfrwt>
<totfact> 0.18491245E+05</totfact>
</mgrwt>
</event>
<event>
 6    2  0.7993170E+000  0.8265615E+02  0.7546771E-02  0.1321678E+00
         -1   -1    0    0    0  501 -0.00000000000E+00  0.00000000000E+00  0.21499777675E+03  0.21499777675E+03  0.00000000000E+00 0.  1.
         21   -1    0    0  501  502  0.00000000000E+00 -0.00000000000E+00 -0.23413675870E+02  0.23413675870E+02  0.00000000000E+00 0.  1.
         24    2    1    2    0    0  0.15892862481E+02  0.13745006312E+02  0.19950988660E+03  0.21595424096E+03  0.79940797241E+02 0.  0.
        -13    1    3    3    0    0 -0.48711488880E+01  0.30615466874E+02  0.18047967823E+03  0.18312277072E+03  0.00000000000E+00 0.  1.
         14    1    3    3    0    0  0.20764011369E+02 -0.16870460562E+02  0.19030208371E+02  0.32831470243E+02  0.00000000000E+00 0. -1.
         -2    1    1    2    0  502 -0.15892862481E+02 -0.13745006312E+02 -0.79257857141E+01  0.22457211660E+02  0.00000000000E+00 0.  1.
<mgrwt>
<rscale>  1 0.82656151E+02</rscale>
<asrwt>0</asrwt>
<pdfrwt beam="1">  1       21 0.36021041E-02 0.82656151E+02</pdfrwt>
<pdfrwt beam="2">  1       -1 0.33076580E-01 0.82656151E+02</pdfrwt>
<totfact> 0.34440078E+05</totfact>
</mgrwt>
</event>
<event>
 6    2  0.7993170E+000  0.8789843E+02  0.7546771E-02  0.1308022E+00
          2   -1    0    0  502    0 -0.00000000000E+00  0.00000000000E+00  0.75068238438E+03  0.75068238438E+03  0.00000000000E+00 0. -1.
         21   -1    0    0  501  502  0.00000000000E+00 -0.00000000000E+00 -0.62317251151E+01  0.62317251151E+01  0.00000000000E+00 0. -1.
         24    2    1    2    0    0  0.21819492059E+02  0.36892917039E+02  0.59431579591E+03  0.60078065775E+03  0.76739532760E+02 0.  0.
        -11    1    3    3    0    0  0.25892642382E+02 -0.16068011089E+02  0.13460367498E+03  0.13800999684E+03  0.00000000000E+00 0.  1.
         12    1    3    3    0    0 -0.40731503224E+01  0.52960928128E+02  0.45971212093E+03  0.46277066090E+03  0.00000000000E+00 0. -1.
          1    1    1    2  501    0 -0.21819492059E+02 -0.36892917039E+02  0.15013486335E+03  0.15613345174E+03  0.00000000000E+00 0. -1.
<mgrwt>
<rscale>  1 0.87898427E+02</rscale>
<asrwt>0</asrwt>
<pdfrwt beam="1">  1       21 0.95872753E-03 0.87898427E+02</pdfrwt>
<pdfrwt beam="2">  1        2 0.11548953E+00 0.87898427E+02</pdfrwt>
<totfact> 0.18223079E+06</totfact>
</mgrwt>
</event>
<event>
 6    2  0.7993170E+000  0.9061099E+02  0.7546771E-02  0.1301379E+00
         21   -1    0    0  501  502  0.00000000000E+00  0.00000000000E+00  0.17203221197E+03  0.17203221197E+03  0.00000000000E+00 0. -1.
         -1   -1    0    0    0  501 -0.00000000000E+00 -0.00000000000E+00 -0.23326236648E+02  0.23326236648E+02  0.00000000000E+00 0.  1.
         24    2    1    2    0    0  0.26680572989E+02  0.18530536364E+02  0.86956647247E+02  0.12558586610E+03  0.84587927696E+02 0.  0.
        -11    1    3    3    0    0  0.60932346141E+01 -0.24721198197E+02 -0.94618738166E+00  0.25478626708E+02  0.00000000000E+00 0.  1.
         12    1    3    3    0    0  0.20587338375E+02  0.43251734561E+02  0.87902834629E+02  0.10010723940E+03  0.00000000000E+00 0. -1.
         -2    1    1    2    0  502 -0.26680572989E+02 -0.18530536364E+02  0.61749328073E+02  0.69772582512E+02  0.00000000000E+00 0.  1.
<mgrwt>
<rscale>  1 0.90610989E+02</rscale>
<asrwt>0</asrwt>
<pdfrwt beam="1">  1       21 0.26466493E-01 0.90610989E+02</pdfrwt>
<pdfrwt beam="2">  1       -1 0.35886519E-02 0.90610989E+02</pdfrwt>
<totfact> 0.32523638E+05</totfact>
</mgrwt>
</event>
<event>
 6    2  0.7993170E+000  0.9164950E+02  0.7546771E-02  0.1298906E+00
         21   -1    0    0  501  502  0.00000000000E+00  0.00000000000E+00  0.19054040926E+01  0.19054040926E+01  0.00000000000E+00 0.  1.
          2   -1    0    0  502    0 -0.00000000000E+00 -0.00000000000E+00 -0.24381504521E+04  0.24381504521E+04  0.00000000000E+00 0. -1.
         24    2    1    2    0    0  0.10854696745E+02  0.42827498903E+02 -0.17373623689E+04  0.17397780411E+04  0.80297026385E+02 0.  0.
        -13    1    3    3    0    0 -0.68996224446E+01  0.20447184892E+02 -0.10644272488E+03  0.10860822179E+03  0.00000000000E+00 0.  1.
         14    1    3    3    0    0  0.17754319189E+02  0.22380314011E+02 -0.16309196440E+04  0.16311698193E+04  0.00000000000E+00 0. -1.
          1    1    1    2  501    0 -0.10854696745E+02 -0.42827498903E+02 -0.69888267912E+03  0.70027781506E+03  0.00000000000E+00 0. -1.
<mgrwt>
<rscale>  1 0.91649504E+02</rscale>
<asrwt>0</asrwt>
<pdfrwt beam="1">  1       21 0.29313957E-03 0.91649504E+02</pdfrwt>
<pdfrwt beam="2">  1        2 0.37509946E+00 0.91649504E+02</pdfrwt>
<totfact> 0.14115540E+06</totfact>
</mgrwt>
</event>
<event>
 6    2  0.7993170E+000  0.8343920E+02  0.7546771E-02  0.1319565E+00
         21   -1    0    0  501  502  0.00000000000E+00  0.00000000000E+00  0.37821898713E+01  0.37821898713E+01  0.00000000000E+00 0.  1.
          2   -1    0    0  502    0 -0.00000000000E+00 -0.00000000000E+00 -0.92153603301E+03  0.92153603301E+03  0.00000000000E+00 0. -1.
         24    2    1    2    0    0 -0.18507172661E+02  0.12701379872E+02 -0.49614444579E+03  0.50311172788E+03  0.80363294788E+02 0.  0.
        -11    1    3    3    0    0 -0.47705557455E+02 -0.38455062839E+00 -0.36578339042E+03  0.36888135871E+03  0.00000000000E+00 0.  1.
         12    1    3    3    0    0  0.29198384794E+02  0.13085930500E+02 -0.13036105537E+03  0.13423036917E+03  0.00000000000E+00 0. -1.
          1    1    1    2  501    0  0.18507172661E+02 -0.12701379872E+02 -0.42160939735E+03  0.42220649500E+03  0.00000000000E+00 0. -1.
<mgrwt>
<rscale>  1 0.83439197E+02</rscale>
<asrwt>0</asrwt>
<pdfrwt beam="1">  1       21 0.58187487E-03 0.83439197E+02</pdfrwt>
<pdfrwt beam="2">  1        2 0.14177490E+00 0.83439197E+02</pdfrwt>
<totfact> 0.30444107E+06</totfact>
</mgrwt>
</event>
<event>
 6    2  0.7993170E+000  0.8807549E+02  0.7546771E-02  0.1307580E+00
         21   -1    0    0  501  502  0.00000000000E+00  0.00000000000E+00  0.41383509709E+02  0.41383509709E+02  0.00000000000E+00 0. -1.
         -1   -1    0    0    0  501 -0.00000000000E+00 -0.00000000000E+00 -0.21265686299E+03  0.21265686299E+03  0.00000000000E+00 0.  1.
         24    2    1    2    0    0  0.20469150798E+02 -0.33141117207E+02 -0.19103553117E+03  0.21036127634E+03  0.78993497384E+02 0.  0.
        -11    1    3    3    0    0  0.14956281312E+02  0.26570580893E+01 -0.16513771256E+03  0.16583490108E+03  0.00000000000E+00 0.  1.
         12    1    3    3    0    0  0.55128694868E+01 -0.35798175296E+02 -0.25897818613E+02  0.44526375256E+02  0.00000000000E+00 0. -1.
         -2    1    1    2    0  502 -0.20469150798E+02  0.33141117207E+02  0.19762177889E+02  0.43679096362E+02  0.00000000000E+00 0.  1.
<mgrwt>
<rscale>  1 0.88075493E+02</rscale>
<asrwt>0</asrwt>
<pdfrwt beam="1">  1       21 0.63666938E-02 0.88075493E+02</pdfrwt>
<pdfrwt beam="2">  1       -1 0.32716441E-01 0.88075493E+02</pdfrwt>
<totfact> 0.13715224E+05</totfact>
</mgrwt>
</event>
<event>
 6    2  0.7993170E+000  0.1045055E+03  0.7546771E-02  0.1271097E+00
         21   -1    0    0  501  502  0.00000000000E+00  0.00000000000E+00  0.38542605419E+01  0.38542605419E+01  0.00000000000E+00 0.  1.
          2   -1    0    0  502    0 -0.00000000000E+00 -0.00000000000E+00 -0.19560088970E+04  0.19560088970E+04  0.00000000000E+00 0. -1.
         24    2    1    2    0    0  0.71524973319E+01 -0.66983462136E+02 -0.10458067088E+04  0.10510152559E+04  0.79896517231E+02 0.  0.
        -11    1    3    3    0    0 -0.30329661282E+02 -0.55718785067E+02 -0.54451453847E+03  0.54819755013E+03  0.00000000000E+00 0.  1.
         12    1    3    3    0    0  0.37482158614E+02 -0.11264677070E+02 -0.50129217037E+03  0.50281770578E+03  0.00000000000E+00 0. -1.
          1    1    1    2  501    0 -0.71524973319E+01  0.66983462136E+02 -0.90634792758E+03  0.90884790161E+03  0.00000000000E+00 0. -1.
<mgrwt>
<rscale>  1 0.10450548E+03</rscale>
<asrwt>0</asrwt>
<pdfrwt beam="1">  1       21 0.59296274E-03 0.10450548E+03</pdfrwt>
<pdfrwt beam="2">  1        2 0.30092466E+00 0.10450548E+03</pdfrwt>
<totfact> 0.85321440E+05</totfact>
</mgrwt>
</event>
<event>
 6    2  0.7993170E+000  0.8784501E+02  0.7546771E-02  0.1308156E+00
          2   -1    0    0  502    0 -0.00000000000E+00  0.00000000000E+00  0.20337228391E+03  0.20337228391E+03  0.00000000000E+00 0. -1.
         21   -1    0    0  501  502  0.00000000000E+00 -0.00000000000E+00 -0.86141424746E+02  0.86141424746E+02  0.00000000000E+00 0. -1.
         24    2    1    2    0    0 -0.31637436906E+02 -0.24658823153E+02  0.18836943278E+03  0.20784558984E+03  0.78152165924E+02 0.  0.
        -11    1    3    3    0    0 -0.52988839169E+01 -0.36326612835E+02  0.31560260713E+02  0.48412302436E+02  0.00000000000E+00 0.  1.
         12    1    3    3    0    0 -0.26338552989E+02  0.11667789683E+02  0.15680917207E+03  0.15943328741E+03  0.00000000000E+00 0. -1.
          1    1    1    2  501    0  0.31637436906E+02  0.24658823153E+02 -0.71138573619E+02  0.81668118809E+02  0.00000000000E+00 0. -1.
<mgrwt>
<rscale>  1 0.87845011E+02</rscale>
<asrwt>0</asrwt>
<pdfrwt beam="1">  1       21 0.13252527E-01 0.87845011E+02</pdfrwt>
<pdfrwt beam="2">  1        2 0.31288044E-01 0.87845011E+02</pdfrwt>
<totfact> 0.98699571E+04</totfact>
</mgrwt>
</event>
<event>
 6    2  0.7993170E+000  0.1011001E+03  0.7546771E-02  0.1278000E+00
          2   -1    0    0  502    0 -0.00000000000E+00  0.00000000000E+00  0.39920144422E+03  0.39920144422E+03  0.00000000000E+00 0. -1.
         21   -1    0    0  501  502  0.00000000000E+00 -0.00000000000E+00 -0.16562048779E+02  0.16562048779E+02  0.00000000000E+00 0.  1.
         24    2    1    2    0    0  0.55392389897E+02 -0.26721859469E+02  0.24124168104E+03  0.26156982169E+03  0.80242434651E+02 0.  0.
        -11    1    3    3    0    0  0.74515091802E+02 -0.31754477399E+02  0.20179735704E+03  0.21744658896E+03  0.00000000000E+00 0.  1.
         12    1    3    3    0    0 -0.19122701905E+02  0.50326179305E+01  0.39444323998E+02  0.44123232735E+02  0.00000000000E+00 0. -1.
          1    1    1    2  501    0 -0.55392389897E+02  0.26721859469E+02  0.14139771440E+03  0.15419367130E+03  0.00000000000E+00 0. -1.
<mgrwt>
<rscale>  1 0.10110006E+03</rscale>
<asrwt>0</asrwt>
<pdfrwt beam="1">  1       21 0.25480078E-02 0.10110006E+03</pdfrwt>
<pdfrwt beam="2">  1        2 0.61415599E-01 0.10110006E+03</pdfrwt>
<totfact> 0.78712708E+05</totfact>
</mgrwt>
</event>
<event>
 6    2  0.7993170E+000  0.9081950E+02  0.7546771E-02  0.1300879E+00
         21   -1    0    0  501  502  0.00000000000E+00  0.00000000000E+00  0.16403498164E+03  0.16403498164E+03  0.00000000000E+00 0.  1.
          4   -1    0    0  502    0 -0.00000000000E+00 -0.00000000000E+00 -0.35830519177E+02  0.35830519177E+02  0.00000000000E+00 0. -1.
         24    2    1    2    0    0  0.21378380652E+02  0.37417322472E+02  0.12778295052E+03  0.15676945863E+03  0.79944290187E+02 0.  0.
        -11    1    3    3    0    0 -0.24976000138E+02  0.17954147957E+02  0.86208062134E+02  0.91531316983E+02  0.00000000000E+00 0.  1.
         12    1    3    3    0    0  0.46354380789E+02  0.19463174516E+02  0.41574888390E+02  0.65238141645E+02  0.00000000000E+00 0. -1.
          3    1    1    2  501    0 -0.21378380652E+02 -0.37417322472E+02  0.42151194109E+00  0.43096042192E+02  0.00000000000E+00 0. -1.
<mgrwt>
<rscale>  1 0.90819495E+02</rscale>
<asrwt>0</asrwt>
<pdfrwt beam="1">  1       21 0.25236151E-01 0.90819495E+02</pdfrwt>
<pdfrwt beam="2">  1        4 0.55123877E-02 0.90819495E+02</pdfrwt>
<totfact> 0.11548829E+05</totfact>
</mgrwt>
</event>
<event>
 6    2  0.7993170E+000  0.8040961E+02  0.7546771E-02  0.1327893E+00
         -1   -1    0    0    0  501 -0.00000000000E+00  0.00000000000E+00  0.35592758606E+02  0.35592758606E+02  0.00000000000E+00 0.  1.
         21   -1    0    0  501  502  0.00000000000E+00 -0.00000000000E+00 -0.12323652670E+03  0.12323652670E+03  0.00000000000E+00 0.  1.
         24    2    1    2    0    0  0.39691934069E+02  0.26991748041E+02 -0.73109409934E+02  0.10867700061E+03  0.64511243587E+02 0.  0.
        -11    1    3    3    0    0 -0.27757935243E+01  0.12254177139E+02 -0.60779246759E+02  0.62064375641E+02  0.00000000000E+00 0.  1.
         12    1    3    3    0    0  0.42467727593E+02  0.14737570902E+02 -0.12330163175E+02  0.46612624973E+02  0.00000000000E+00 0. -1.
         -2    1    1    2    0  502 -0.39691934069E+02 -0.26991748041E+02 -0.14534358156E+02  0.50152284688E+02  0.00000000000E+00 0.  1.
<mgrwt>
<rscale>  1 0.80409605E+02</rscale>
<asrwt>0</asrwt>
<pdfrwt beam="1">  1       21 0.18959465E-01 0.80409605E+02</pdfrwt>
<pdfrwt beam="2">  1       -1 0.54758092E-02 0.80409605E+02</pdfrwt>
<totfact> 0.32196902E+05</totfact>
</mgrwt>
</event>
<event>
 6    2  0.7993170E+000  0.9618353E+02  0.7546771E-02  0.1288533E+00
         21   -1    0    0  501  502  0.00000000000E+00  0.00000000000E+00  0.52659197832E+01  0.52659197832E+01  0.00000000000E+00 0.  1.
          2   -1    0    0  502    0 -0.00000000000E+00 -0.00000000000E+00 -0.11006357612E+04  0.11006357612E+04  0.00000000000E+00 0. -1.
         24    2    1    2    0    0  0.15696381456E+02 -0.53370827208E+02 -0.65234077309E+03  0.65939347617E+03  0.78463052356E+02 0.  0.
        -11    1    3    3    0    0  0.40745093344E+02 -0.46907284807E+01 -0.24924648465E+03  0.25259844749E+03  0.00000000000E+00 0.  1.
         12    1    3    3    0    0 -0.25048711888E+02 -0.48680098727E+02 -0.40309428844E+03  0.40679502867E+03  0.00000000000E+00 0. -1.
          1    1    1    2  501    0 -0.15696381456E+02  0.53370827208E+02 -0.44302906831E+03  0.44650820480E+03  0.00000000000E+00 0. -1.
<mgrwt>
<rscale>  1 0.96183534E+02</rscale>
<asrwt>0</asrwt>
<pdfrwt beam="1">  1       21 0.81014119E-03 0.96183534E+02</pdfrwt>
<pdfrwt beam="2">  1        2 0.16932864E+00 0.96183534E+02</pdfrwt>
<totfact> 0.14546320E+06</totfact>
</mgrwt>
</event>
<event>
 6    2  0.7993170E+000  0.8800443E+02  0.7546771E-02  0.1307757E+00
         21   -1    0    0  501  502  0.00000000000E+00  0.00000000000E+00  0.39405245785E+02  0.39405245785E+02  0.00000000000E+00 0. -1.
          2   -1    0    0  502    0 -0.00000000000E+00 -0.00000000000E+00 -0.10206271702E+03  0.10206271702E+03  0.00000000000E+00 0. -1.
         24    2    1    2    0    0  0.35179917452E+02 -0.10443590564E+02 -0.55603950529E+02  0.10409889364E+03  0.79988031404E+02 0.  0.
        -11    1    3    3    0    0  0.95452121231E+01 -0.44408415868E+02 -0.30041159481E+02  0.54458146657E+02  0.00000000000E+00 0.  1.
         12    1    3    3    0    0  0.25634705329E+02  0.33964825305E+02 -0.25562791048E+02  0.49640746987E+02  0.00000000000E+00 0. -1.
          1    1    1    2  501    0 -0.35179917452E+02  0.10443590564E+02 -0.70535207103E+01  0.37369069164E+02  0.00000000000E+00 0. -1.
<mgrwt>
<rscale>  1 0.88004434E+02</rscale>
<asrwt>0</asrwt>
<pdfrwt beam="1">  1       21 0.60623456E-02 0.88004434E+02</pdfrwt>
<pdfrwt beam="2">  1        2 0.15701956E-01 0.88004434E+02</pdfrwt>
<totfact> 0.81139557E+05</totfact>
</mgrwt>
</event>
<event>
 6    2  0.7993170E+000  0.9149959E+02  0.7546771E-02  0.1299260E+00
          2   -1    0    0  502    0 -0.00000000000E+00  0.00000000000E+00  0.73986231804E+03  0.73986231804E+03  0.00000000000E+00 0. -1.
         21   -1    0    0  501  502  0.00000000000E+00 -0.00000000000E+00 -0.72216950998E+01  0.72216950998E+01  0.00000000000E+00 0. -1.
         24    2    1    2    0    0  0.20745914228E+02  0.76343129040E+00  0.71183882562E+03  0.71769540045E+03  0.89113401751E+02 0.  0.
        -13    1    3    3    0    0  0.36909299194E+02  0.22328362565E+02  0.17710341431E+03  0.18228129773E+03  0.00000000000E+00 0.  1.
         14    1    3    3    0    0 -0.16163384966E+02 -0.21564931275E+02  0.53473541132E+03  0.53541410272E+03  0.00000000000E+00 0. -1.
          1    1    1    2  501    0 -0.20745914228E+02 -0.76343129040E+00  0.20801797317E+02  0.29388612695E+02  0.00000000000E+00 0. -1.
<mgrwt>
<rscale>  1 0.91499586E+02</rscale>
<asrwt>0</asrwt>
<pdfrwt beam="1">  1       21 0.11110306E-02 0.91499586E+02</pdfrwt>
<pdfrwt beam="2">  1        2 0.11382491E+00 0.91499586E+02</pdfrwt>
<totfact> 0.14781471E+06</totfact>
</mgrwt>
</event>
<event>
 6    2  0.7993170E+000  0.9726634E+02  0.7546771E-02  0.1286152E+00
          2   -1    0    0  502    0 -0.00000000000E+00  0.00000000000E+00  0.80248771723E+03  0.80248771723E+03  0.00000000000E+00 0. -1.
         21   -1    0    0  501  502  0.00000000000E+00 -0.00000000000E+00 -0.77335420660E+01  0.77335420660E+01  0.00000000000E+00 0.  1.
         24    2    1    2    0    0 -0.25394973053E+02  0.48411801817E+02  0.39771568632E+03  0.40943681744E+03  0.80449568784E+02 0.  0.
        -11    1    3    3    0    0 -0.16822313916E+02  0.62307512557E+02  0.37960777346E+03  0.38505490263E+03  0.00000000000E+00 0.  1.
         12    1    3    3    0    0 -0.85726591370E+01 -0.13895710740E+02  0.18107912858E+02  0.24381914808E+02  0.00000000000E+00 0. -1.
          1    1    1    2  501    0  0.25394973053E+02 -0.48411801817E+02  0.39703848885E+03  0.40078444186E+03  0.00000000000E+00 0. -1.
<mgrwt>
<rscale>  1 0.97266337E+02</rscale>
<asrwt>0</asrwt>
<pdfrwt beam="1">  1       21 0.11897763E-02 0.97266337E+02</pdfrwt>
<pdfrwt beam="2">  1        2 0.12345958E+00 0.97266337E+02</pdfrwt>
<totfact> 0.12099751E+06</totfact>
</mgrwt>
</event>
<event>
 6    2  0.7993170E+000  0.9211754E+02  0.7546771E-02  0.1297803E+00
         21   -1    0    0  501  502  0.00000000000E+00  0.00000000000E+00  0.77429547431E+01  0.77429547431E+01  0.00000000000E+00 0.  1.
          2   -1    0    0  502    0 -0.00000000000E+00 -0.00000000000E+00 -0.55733397837E+03  0.55733397837E+03  0.00000000000E+00 0. -1.
         24    2    1    2    0    0 -0.60640902699E+01 -0.37935015790E+02 -0.35711366453E+03  0.36880321511E+03  0.83724569081E+02 0.  0.
        -11    1    3    3    0    0 -0.57055157255E+01 -0.28784650746E+02 -0.31462140216E+02  0.43022962418E+02  0.00000000000E+00 0.  1.
         12    1    3    3    0    0 -0.35857454437E+00 -0.91503650438E+01 -0.32565152432E+03  0.32578025269E+03  0.00000000000E+00 0. -1.
          1    1    1    2  501    0  0.60640902699E+01  0.37935015790E+02 -0.19247735910E+03  0.19627371800E+03  0.00000000000E+00 0. -1.
<mgrwt>
<rscale>  1 0.92117545E+02</rscale>
<asrwt>0</asrwt>
<pdfrwt beam="1">  1       21 0.11912242E-02 0.92117545E+02</pdfrwt>
<pdfrwt beam="2">  1        2 0.85743662E-01 0.92117545E+02</pdfrwt>
<totfact> 0.18315875E+06</totfact>
</mgrwt>
</event>
<event>
 6    2  0.7993170E+000  0.1409611E+03  0.7546771E-02  0.1212042E+00
         -1   -1    0    0    0  501 -0.00000000000E+00  0.00000000000E+00  0.19243535462E+03  0.19243535462E+03  0.00000000000E+00 0.  1.
         21   -1    0    0  501  502  0.00000000000E+00 -0.00000000000E+00 -0.85976172026E+02  0.85976172026E+02  0.00000000000E+00 0.  1.
         24    2    1    2    0    0  0.67397697986E+02  0.94740704240E+02  0.56425526125E+02  0.15183499836E+03  0.79698030046E+02 0.  0.
        -11    1    3    3    0    0  0.36404388015E+02  0.98458393577E+02  0.59167196730E+02  0.12049934399E+03  0.00000000000E+00 0.  1.
         12    1    3    3    0    0  0.30993309971E+02 -0.37176893361E+01 -0.27416706054E+01  0.31335654368E+02  0.00000000000E+00 0. -1.
         -2    1    1    2    0  502 -0.67397697986E+02 -0.94740704240E+02  0.50033656465E+02  0.12657652829E+03  0.00000000000E+00 0.  1.
<mgrwt>
<rscale>  1 0.14096108E+03</rscale>
<asrwt>0</asrwt>
<pdfrwt beam="1">  1       21 0.13227103E-01 0.14096108E+03</pdfrwt>
<pdfrwt beam="2">  1       -1 0.29605439E-01 0.14096108E+03</pdfrwt>
<totfact> 0.46748782E+04</totfact>
</mgrwt>
</event>
<event>
 6    2  0.7993170E+000  0.8831599E+02  0.7546771E-02  0.1306982E+00
         -3   -1    0    0    0  501 -0.00000000000E+00  0.00000000000E+00  0.16968996900E+04  0.16968996900E+04  0.00000000000E+00 0.  1.
         21   -1    0    0  501  502  0.00000000000E+00 -0.00000000000E+00 -0.82050708244E+01  0.82050708244E+01  0.00000000000E+00 0.  1.
         24    2    1    2    0    0  0.13975926903E+02  0.32446361975E+02  0.16513040315E+04  0.16536640280E+04  0.80942080551E+02 0.  0.
        -11    1    3    3    0    0  0.39879908097E+02  0.44285910103E+02  0.11726212866E+04  0.11741347157E+04  0.00000000000E+00 0.  1.
         12    1    3    3    0    0 -0.25903981194E+02 -0.11839548127E+02  0.47868274487E+03  0.47952931233E+03  0.00000000000E+00 0. -1.
         -4    1    1    2    0  502 -0.13975926903E+02 -0.32446361975E+02  0.37390587692E+02  0.51440732754E+02  0.00000000000E+00 0.  1.
<mgrwt>
<rscale>  1 0.88315986E+02</rscale>
<asrwt>0</asrwt>
<pdfrwt beam="1">  1       21 0.12623199E-02 0.88315986E+02</pdfrwt>
<pdfrwt beam="2">  1       -3 0.26106121E+00 0.88315986E+02</pdfrwt>
<totfact> 0.89199503E+03</totfact>
</mgrwt>
</event>
<event>
 6    2  0.7993170E+000  0.8540179E+02  0.7546771E-02  0.1314385E+00
         21   -1    0    0  501  502  0.00000000000E+00  0.00000000000E+00  0.16029546740E+02  0.16029546740E+02  0.00000000000E+00 0.  1.
          2   -1    0    0  502    0 -0.00000000000E+00 -0.00000000000E+00 -0.22197896804E+03  0.22197896804E+03  0.00000000000E+00 0. -1.
         24    2    1    2    0    0  0.32172259776E+02 -0.10292373914E+02 -0.15232605471E+03  0.17463302500E+03  0.78437741035E+02 0.  0.
        -13    1    3    3    0    0 -0.22457626351E+01  0.14404759964E+02  0.18933917681E+01  0.14701207155E+02  0.00000000000E+00 0.  1.
         14    1    3    3    0    0  0.34418022412E+02 -0.24697133878E+02 -0.15421944647E+03  0.15993181785E+03  0.00000000000E+00 0. -1.
          1    1    1    2  501    0 -0.32172259776E+02  0.10292373914E+02 -0.53623366594E+02  0.63375489779E+02  0.00000000000E+00 0. -1.
<mgrwt>
<rscale>  1 0.85401794E+02</rscale>
<asrwt>0</asrwt>
<pdfrwt beam="1">  1       21 0.24660844E-02 0.85401794E+02</pdfrwt>
<pdfrwt beam="2">  1        2 0.34150606E-01 0.85401794E+02</pdfrwt>
<totfact> 0.15097136E+06</totfact>
</mgrwt>
</event>
<event>
 6    2  0.7993170E+000  0.8401107E+02  0.7546771E-02  0.1318039E+00
          2   -1    0    0  502    0 -0.00000000000E+00  0.00000000000E+00  0.69421617547E+03  0.69421617547E+03  0.00000000000E+00 0. -1.
         21   -1    0    0  501  502  0.00000000000E+00 -0.00000000000E+00 -0.10147956157E+02  0.10147956157E+02  0.00000000000E+00 0. -1.
         24    2    1    2    0    0 -0.80034896554E+01  0.19577747899E+02  0.67680811750E+03  0.68200226369E+03  0.81305077965E+02 0.  0.
        -13    1    3    3    0    0 -0.35917393243E+01 -0.28714480600E+02  0.39445907858E+03  0.39551913565E+03  0.00000000000E+00 0.  1.
         14    1    3    3    0    0 -0.44117503311E+01  0.48292228498E+02  0.28234903892E+03  0.28648312804E+03  0.00000000000E+00 0. -1.
          1    1    1    2  501    0  0.80034896554E+01 -0.19577747899E+02  0.72601018158E+01  0.22361867941E+02  0.00000000000E+00 0. -1.
<mgrwt>
<rscale>  1 0.84011069E+02</rscale>
<asrwt>0</asrwt>
<pdfrwt beam="1">  1       21 0.15612246E-02 0.84011069E+02</pdfrwt>
<pdfrwt beam="2">  1        2 0.10680245E+00 0.84011069E+02</pdfrwt>
<totfact> 0.92452783E+05</totfact>
</mgrwt>
</event>
<event>
 6    2  0.7993170E+000  0.8382791E+02  0.7546771E-02  0.1318526E+00
          2   -1    0    0  502    0 -0.00000000000E+00  0.00000000000E+00  0.16025423628E+02  0.16025423628E+02  0.00000000000E+00 0. -1.
         21   -1    0    0  501  502  0.00000000000E+00 -0.00000000000E+00 -0.45219415494E+03  0.45219415494E+03  0.00000000000E+00 0. -1.
         24    2    1    2    0    0 -0.12709116007E+02 -0.25483335227E+02 -0.98456819951E+02  0.12930918174E+03  0.78842863234E+02 0.  0.
        -13    1    3    3    0    0 -0.62561837587E+01 -0.20983151265E+02 -0.11174325122E+03  0.11386828648E+03  0.00000000000E+00 0.  1.
         14    1    3    3    0    0 -0.64529322487E+01 -0.45001839622E+01  0.13286431274E+02  0.15440895255E+02  0.00000000000E+00 0. -1.
          1    1    1    2  501    0  0.12709116007E+02  0.25483335227E+02 -0.33771191136E+03  0.33891039683E+03  0.00000000000E+00 0. -1.
<mgrwt>
<rscale>  1 0.83827914E+02</rscale>
<asrwt>0</asrwt>
<pdfrwt beam="1">  1       21 0.69568328E-01 0.83827914E+02</pdfrwt>
<pdfrwt beam="2">  1        2 0.24654499E-02 0.83827914E+02</pdfrwt>
<totfact> 0.88758702E+04</totfact>
</mgrwt>
</event>
<event>
 6    2  0.7993170E+000  0.9119447E+02  0.7546771E-02  0.1299985E+00
         -3   -1    0    0    0  501 -0.00000000000E+00  0.00000000000E+00  0.49777030489E+03  0.49777030489E+03  0.00000000000E+00 0.  1.
         21   -1    0    0  501  502  0.00000000000E+00 -0.00000000000E+00 -0.41158387367E+02  0.41158387367E+02  0.00000000000E+00 0.  1.
         24    2    1    2    0    0 -0.22130505010E+02 -0.37760557896E+02  0.48049241118E+03  0.48906992209E+03  0.80005077997E+02 0.  0.
        -11    1    3    3    0    0 -0.69955440321E+01 -0.29248339190E+02  0.46447061554E+03  0.46544318202E+03  0.00000000000E+00 0.  1.
         12    1    3    3    0    0 -0.15134960978E+02 -0.85122187059E+01  0.16021795641E+02  0.23626740076E+02  0.00000000000E+00 0. -1.
         -4    1    1    2    0  502  0.22130505010E+02  0.37760557896E+02 -0.23880493663E+02  0.49858770163E+02  0.00000000000E+00 0.  1.
<mgrwt>
<rscale>  1 0.91194471E+02</rscale>
<asrwt>0</asrwt>
<pdfrwt beam="1">  1       21 0.63320600E-02 0.91194471E+02</pdfrwt>
<pdfrwt beam="2">  1       -3 0.76580042E-01 0.91194471E+02</pdfrwt>
<totfact> 0.13815752E+04</totfact>
</mgrwt>
</event>
<event>
 6    2  0.7993170E+000  0.9092941E+02  0.7546771E-02  0.1300616E+00
         -3   -1    0    0    0  501 -0.00000000000E+00  0.00000000000E+00  0.10812021086E+04  0.10812021086E+04  0.00000000000E+00 0.  1.
         21   -1    0    0  501  502  0.00000000000E+00 -0.00000000000E+00 -0.41642393521E+01  0.41642393521E+01  0.00000000000E+00 0. -1.
         24    2    1    2    0    0  0.39766292360E+02  0.10618505004E+02  0.64606293596E+03  0.65243043609E+03  0.81080491242E+02 0.  0.
        -11    1    3    3    0    0  0.41650947159E+02  0.68144851241E+00  0.63835809646E+03  0.63971581588E+03  0.00000000000E+00 0.  1.
         12    1    3    3    0    0 -0.18846547988E+01  0.99370564916E+01  0.77048395046E+01  0.12714620215E+02  0.00000000000E+00 0. -1.
         -4    1    1    2    0  502 -0.39766292360E+02 -0.10618505004E+02  0.43097493331E+03  0.43293591188E+03  0.00000000000E+00 0.  1.
<mgrwt>
<rscale>  1 0.90929405E+02</rscale>
<asrwt>0</asrwt>
<pdfrwt beam="1">  1       21 0.64065307E-03 0.90929405E+02</pdfrwt>
<pdfrwt beam="2">  1       -3 0.16633856E+00 0.90929405E+02</pdfrwt>
<totfact> 0.90715547E+04</totfact>
</mgrwt>
</event>
<event>
 6    2  0.7993170E+000  0.8784835E+02  0.7546771E-02  0.1308147E+00
         21   -1    0    0  501  502  0.00000000000E+00  0.00000000000E+00  0.64703555668E+01  0.64703555668E+01  0.00000000000E+00 0.  1.
          2   -1    0    0  502    0 -0.00000000000E+00 -0.00000000000E+00 -0.62592427668E+03  0.62592427668E+03  0.00000000000E+00 0. -1.
         24    2    1    2    0    0  0.20573742914E+02  0.20097300515E+02 -0.32921792592E+03  0.34073710484E+03  0.83006936362E+02 0.  0.
        -13    1    3    3    0    0  0.24591435455E+02  0.23525283280E+02 -0.44751489245E+02  0.56221645661E+02  0.00000000000E+00 0.  1.
         14    1    3    3    0    0 -0.40176925403E+01 -0.34279827659E+01 -0.28446643667E+03  0.28451545918E+03  0.00000000000E+00 0. -1.
          1    1    1    2  501    0 -0.20573742914E+02 -0.20097300515E+02 -0.29023599519E+03  0.29165752740E+03  0.00000000000E+00 0. -1.
<mgrwt>
<rscale>  1 0.87848346E+02</rscale>
<asrwt>0</asrwt>
<pdfrwt beam="1">  1       21 0.99543965E-03 0.87848346E+02</pdfrwt>
<pdfrwt beam="2">  1        2 0.96296011E-01 0.87848346E+02</pdfrwt>
<totfact> 0.21211146E+06</totfact>
</mgrwt>
</event>
<event>
 6    2  0.7993170E+000  0.8593231E+02  0.7546771E-02  0.1313012E+00
         21   -1    0    0  501  502  0.00000000000E+00  0.00000000000E+00  0.30126107895E+02  0.30126107895E+02  0.00000000000E+00 0. -1.
         -1   -1    0    0    0  501 -0.00000000000E+00 -0.00000000000E+00 -0.18100284879E+03  0.18100284879E+03  0.00000000000E+00 0.  1.
         24    2    1    2    0    0 -0.27831880519E+02 -0.86232148222E+01 -0.15912607594E+03  0.18084653710E+03  0.80841749927E+02 0.  0.
        -13    1    3    3    0    0  0.21874959143E+02 -0.62282556263E+01 -0.10451992650E+03  0.10696597609E+03  0.00000000000E+00 0.  1.
         14    1    3    3    0    0 -0.49706839662E+02 -0.23949591959E+01 -0.54606149436E+02  0.73880561009E+02  0.00000000000E+00 0. -1.
         -2    1    1    2    0  502  0.27831880519E+02  0.86232148222E+01  0.82493350432E+01  0.30282419582E+02  0.00000000000E+00 0.  1.
<mgrwt>
<rscale>  1 0.85932310E+02</rscale>
<asrwt>0</asrwt>
<pdfrwt beam="1">  1       21 0.46347859E-02 0.85932310E+02</pdfrwt>
<pdfrwt beam="2">  1       -1 0.27846592E-01 0.85932310E+02</pdfrwt>
<totfact> 0.30396108E+05</totfact>
</mgrwt>
</event>
<event>
 6    2  0.7993170E+000  0.8592780E+02  0.7546771E-02  0.1313024E+00
         -3   -1    0    0    0  501 -0.00000000000E+00  0.00000000000E+00  0.23370497637E+02  0.23370497637E+02  0.00000000000E+00 0.  1.
         21   -1    0    0  501  502  0.00000000000E+00 -0.00000000000E+00 -0.16955318550E+03  0.16955318550E+03  0.00000000000E+00 0.  1.
         24    2    1    2    0    0 -0.19456313122E+02  0.64582146135E+01 -0.61176663995E+02  0.10548066884E+03  0.83446573472E+02 0.  0.
        -11    1    3    3    0    0 -0.46006578112E+02  0.74069473379E+01 -0.63554086077E+02  0.78807296334E+02  0.00000000000E+00 0.  1.
         12    1    3    3    0    0  0.26550264991E+02 -0.94873272435E+00  0.23774220818E+01  0.26673372502E+02  0.00000000000E+00 0. -1.
         -4    1    1    2    0  502  0.19456313122E+02 -0.64582146135E+01 -0.85006023871E+02  0.87443014304E+02  0.00000000000E+00 0.  1.
<mgrwt>
<rscale>  1 0.85927803E+02</rscale>
<asrwt>0</asrwt>
<pdfrwt beam="1">  1       21 0.26085105E-01 0.85927803E+02</pdfrwt>
<pdfrwt beam="2">  1       -3 0.35954612E-02 0.85927803E+02</pdfrwt>
<totfact> 0.23798355E+05</totfact>
</mgrwt>
</event>
<event>
 6    2  0.7993170E+000  0.8310191E+02  0.7546771E-02  0.1320472E+00
          2   -1    0    0  502    0 -0.00000000000E+00  0.00000000000E+00  0.17056414195E+04  0.17056414195E+04  0.00000000000E+00 0. -1.
         21   -1    0    0  501  502  0.00000000000E+00 -0.00000000000E+00 -0.24121143065E+01  0.24121143065E+01  0.00000000000E+00 0.  1.
         24    2    1    2    0    0  0.18646436226E+02 -0.72716421778E+01  0.16306243234E+04  0.16327405221E+04  0.80655823108E+02 0.  0.
        -11    1    3    3    0    0 -0.27421521856E+02  0.11500651338E+02  0.39621839592E+03  0.39733263408E+03  0.00000000000E+00 0.  1.
         12    1    3    3    0    0  0.46067958081E+02 -0.18772293515E+02  0.12344059275E+04  0.12354078880E+04  0.00000000000E+00 0. -1.
          1    1    1    2  501    0 -0.18646436226E+02  0.72716421778E+01  0.72604981788E+02  0.75313011786E+02  0.00000000000E+00 0. -1.
<mgrwt>
<rscale>  1 0.83101914E+02</rscale>
<asrwt>0</asrwt>
<pdfrwt beam="1">  1       21 0.37109587E-03 0.83101914E+02</pdfrwt>
<pdfrwt beam="2">  1        2 0.26240541E+00 0.83101914E+02</pdfrwt>
<totfact> 0.23039884E+06</totfact>
</mgrwt>
</event>
<event>
 6    2  0.7993170E+000  0.6024643E+02  0.7546771E-02  0.1396800E+00
         -3   -1    0    0    0  501 -0.00000000000E+00  0.00000000000E+00  0.15348575784E+02  0.15348575784E+02  0.00000000000E+00 0.  1.
         21   -1    0    0  501  502  0.00000000000E+00 -0.00000000000E+00 -0.12762149439E+03  0.12762149439E+03  0.00000000000E+00 0.  1.
         24    2    1    2    0    0  0.14812252436E+02 -0.14482213863E+02 -0.53211220022E+02  0.80380761340E+02  0.56572922117E+02 0.  0.
        -13    1    3    3    0    0  0.51001503296E+01 -0.33449189286E+02 -0.47501250951E+02  0.58320053491E+02  0.00000000000E+00 0.  1.
         14    1    3    3    0    0  0.97121021063E+01  0.18966975423E+02 -0.57099690707E+01  0.22060707849E+02  0.00000000000E+00 0. -1.
         -4    1    1    2    0  502 -0.14812252436E+02  0.14482213863E+02 -0.59061698582E+02  0.62589308832E+02  0.00000000000E+00 0.  1.
<mgrwt>
<rscale>  1 0.60246434E+02</rscale>
<asrwt>0</asrwt>
<pdfrwt beam="1">  1       21 0.19634075E-01 0.60246434E+02</pdfrwt>
<pdfrwt beam="2">  1       -3 0.23613195E-02 0.60246434E+02</pdfrwt>
<totfact> 0.71394065E+05</totfact>
</mgrwt>
</event>
<event>
 6    2  0.7993170E+000  0.7906035E+02  0.7546771E-02  0.1331739E+00
          2   -1    0    0  502    0 -0.00000000000E+00  0.00000000000E+00  0.18064329437E+04  0.18064329437E+04  0.00000000000E+00 0. -1.
         21   -1    0    0  501  502  0.00000000000E+00 -0.00000000000E+00 -0.14717421891E+01  0.14717421891E+01  0.00000000000E+00 0.  1.
         24    2    1    2    0    0 -0.19789521776E+02  0.65100791071E+01  0.15813617718E+04  0.15833368537E+04  0.76266195435E+02 0.  0.
        -13    1    3    3    0    0  0.24695131382E+02 -0.48540769383E+01  0.26969664910E+03  0.27086840737E+03  0.00000000000E+00 0.  1.
         14    1    3    3    0    0 -0.44484653158E+02  0.11364156045E+02  0.13116651227E+04  0.13124684463E+04  0.00000000000E+00 0. -1.
          1    1    1    2  501    0  0.19789521776E+02 -0.65100791071E+01  0.22359942970E+03  0.22456783221E+03  0.00000000000E+00 0. -1.
<mgrwt>
<rscale>  1 0.79060350E+02</rscale>
<asrwt>0</asrwt>
<pdfrwt beam="1">  1       21 0.22642332E-03 0.79060350E+02</pdfrwt>
<pdfrwt beam="2">  1        2 0.27791099E+00 0.79060350E+02</pdfrwt>
<totfact> 0.43036761E+06</totfact>
</mgrwt>
</event>
<event>
 6    2  0.7993170E+000  0.9086580E+02  0.7546771E-02  0.1300768E+00
         21   -1    0    0  501  502  0.00000000000E+00  0.00000000000E+00  0.24675446709E+01  0.24675446709E+01  0.00000000000E+00 0.  1.
          2   -1    0    0  502    0 -0.00000000000E+00 -0.00000000000E+00 -0.19138750431E+04  0.19138750431E+04  0.00000000000E+00 0. -1.
         24    2    1    2    0    0 -0.20104766204E+02 -0.28437551237E+02 -0.16660107513E+04  0.16684868648E+04  0.83926744076E+02 0.  0.
        -11    1    3    3    0    0 -0.24541340235E+02 -0.56068853999E+02 -0.98347119619E+03  0.98537383134E+03  0.00000000000E+00 0.  1.
         12    1    3    3    0    0  0.44365740310E+01  0.27631302762E+02 -0.68253955514E+03  0.68311303341E+03  0.00000000000E+00 0. -1.
          1    1    1    2  501    0  0.20104766204E+02  0.28437551237E+02 -0.24539674710E+03  0.24785572301E+03  0.00000000000E+00 0. -1.
<mgrwt>
<rscale>  1 0.90865804E+02</rscale>
<asrwt>0</asrwt>
<pdfrwt beam="1">  1       21 0.37962157E-03 0.90865804E+02</pdfrwt>
<pdfrwt beam="2">  1        2 0.29444285E+00 0.90865804E+02</pdfrwt>
<totfact> 0.17621277E+06</totfact>
</mgrwt>
</event>
<event>
 6    2  0.7993170E+000  0.8497021E+02  0.7546771E-02  0.1315510E+00
         21   -1    0    0  501  502  0.00000000000E+00  0.00000000000E+00  0.49943663208E+01  0.49943663208E+01  0.00000000000E+00 0. -1.
          4   -1    0    0  502    0 -0.00000000000E+00 -0.00000000000E+00 -0.42037713249E+04  0.42037713249E+04  0.00000000000E+00 0. -1.
         24    2    1    2    0    0  0.25256768033E+02 -0.46578923195E+00 -0.41683643029E+04  0.41692302525E+04  0.81128387070E+02 0.  0.
        -13    1    3    3    0    0  0.44320109101E+01 -0.37440082447E+02 -0.12827011410E+04  0.12832550876E+04  0.00000000000E+00 0.  1.
         14    1    3    3    0    0  0.20824757123E+02  0.36974293215E+02 -0.28856631619E+04  0.28859751650E+04  0.00000000000E+00 0. -1.
          3    1    1    2  501    0 -0.25256768033E+02  0.46578923195E+00 -0.30412655674E+02  0.39535438739E+02  0.00000000000E+00 0. -1.
<mgrwt>
<rscale>  1 0.84970209E+02</rscale>
<asrwt>0</asrwt>
<pdfrwt beam="1">  1       21 0.76836250E-03 0.84970209E+02</pdfrwt>
<pdfrwt beam="2">  1        4 0.64673535E+00 0.84970209E+02</pdfrwt>
<totfact> 0.24204894E+01</totfact>
</mgrwt>
</event>
<event>
 6    2  0.7993170E+000  0.8856768E+02  0.7546771E-02  0.1306358E+00
          2   -1    0    0  502    0 -0.00000000000E+00  0.00000000000E+00  0.14348396863E+04  0.14348396863E+04  0.00000000000E+00 0. -1.
         21   -1    0    0  501  502  0.00000000000E+00 -0.00000000000E+00 -0.35327815945E+01  0.35327815945E+01  0.00000000000E+00 0. -1.
         24    2    1    2    0    0 -0.13397336229E+02 -0.28604062913E+02  0.13109987736E+04  0.13139870690E+04  0.82743895518E+02 0.  0.
        -13    1    3    3    0    0  0.32575873705E+02 -0.26340529789E+01  0.34440625107E+03  0.34595345288E+03  0.00000000000E+00 0.  1.
         14    1    3    3    0    0 -0.45973209934E+02 -0.25970009935E+02  0.96659252250E+03  0.96803361615E+03  0.00000000000E+00 0. -1.
          1    1    1    2  501    0  0.13397336229E+02  0.28604062913E+02  0.12030813115E+03  0.12438539887E+03  0.00000000000E+00 0. -1.
<mgrwt>
<rscale>  1 0.88567676E+02</rscale>
<asrwt>0</asrwt>
<pdfrwt beam="1">  1       21 0.54350601E-03 0.88567676E+02</pdfrwt>
<pdfrwt beam="2">  1        2 0.22074410E+00 0.88567676E+02</pdfrwt>
<totfact> 0.17736262E+06</totfact>
</mgrwt>
</event>
<event>
 6    2  0.7993170E+000  0.8447820E+02  0.7546771E-02  0.1316803E+00
         -3   -1    0    0    0  501 -0.00000000000E+00  0.00000000000E+00  0.16031384660E+03  0.16031384660E+03  0.00000000000E+00 0.  1.
         21   -1    0    0  501  502  0.00000000000E+00 -0.00000000000E+00 -0.20825479046E+02  0.20825479046E+02  0.00000000000E+00 0. -1.
         24    2    1    2    0    0 -0.30496825204E+02  0.15695122119E+01  0.94367560313E+02  0.12665623687E+03  0.78765767840E+02 0.  0.
        -13    1    3    3    0    0  0.18456085328E+02  0.23808733887E+02  0.26921267078E+02  0.40400959346E+02  0.00000000000E+00 0.  1.
         14    1    3    3    0    0 -0.48952910532E+02 -0.22239221675E+02  0.67446293234E+02  0.86255277528E+02  0.00000000000E+00 0. -1.
         -4    1    1    2    0  502  0.30496825204E+02 -0.15695122119E+01  0.45120807240E+02  0.54483088772E+02  0.00000000000E+00 0.  1.
<mgrwt>
<rscale>  1 0.84478198E+02</rscale>
<asrwt>0</asrwt>
<pdfrwt beam="1">  1       21 0.32039199E-02 0.84478198E+02</pdfrwt>
<pdfrwt beam="2">  1       -3 0.24663668E-01 0.84478198E+02</pdfrwt>
<totfact> 0.38068747E+05</totfact>
</mgrwt>
</event>
<event>
 6    2  0.7993170E+000  0.8661005E+02  0.7546771E-02  0.1311275E+00
         -1   -1    0    0    0  501 -0.00000000000E+00  0.00000000000E+00  0.88624704310E+02  0.88624704310E+02  0.00000000000E+00 0.  1.
         21   -1    0    0  501  502  0.00000000000E+00 -0.00000000000E+00 -0.51422688878E+02  0.51422688878E+02  0.00000000000E+00 0.  1.
         24    2    1    2    0    0 -0.11081719263E+02  0.36107402630E+02  0.50196462200E+02  0.10010487607E+03  0.77940697777E+02 0.  0.
        -11    1    3    3    0    0 -0.66862440452E+01  0.47333214462E+02  0.65207114380E+02  0.80852376690E+02  0.00000000000E+00 0.  1.
         12    1    3    3    0    0 -0.43954752174E+01 -0.11225811831E+02 -0.15010652180E+02  0.19252499384E+02  0.00000000000E+00 0. -1.
         -2    1    1    2    0  502  0.11081719263E+02 -0.36107402630E+02 -0.12994446768E+02  0.39942517113E+02  0.00000000000E+00 0.  1.
<mgrwt>
<rscale>  1 0.86610054E+02</rscale>
<asrwt>0</asrwt>
<pdfrwt beam="1">  1       21 0.79111829E-02 0.86610054E+02</pdfrwt>
<pdfrwt beam="2">  1       -1 0.13634570E-01 0.86610054E+02</pdfrwt>
<totfact> 0.38434258E+05</totfact>
</mgrwt>
</event>
<event>
 6    2  0.7993170E+000  0.8210997E+02  0.7546771E-02  0.1323168E+00
         21   -1    0    0  501  502  0.00000000000E+00  0.00000000000E+00  0.20811705008E+01  0.20811705008E+01  0.00000000000E+00 0.  1.
          2   -1    0    0  502    0 -0.00000000000E+00 -0.00000000000E+00 -0.15321793962E+04  0.15321793962E+04  0.00000000000E+00 0. -1.
         24    2    1    2    0    0  0.23704127092E+02 -0.91978313959E+01 -0.13334087659E+04  0.13359344984E+04  0.78074076887E+02 0.  0.
        -11    1    3    3    0    0  0.30108885016E+02 -0.33518568505E+02 -0.46883388223E+03  0.47099389436E+03  0.00000000000E+00 0.  1.
         12    1    3    3    0    0 -0.64047579243E+01  0.24320737109E+02 -0.86457488363E+03  0.86494060408E+03  0.00000000000E+00 0. -1.
          1    1    1    2  501    0 -0.23704127092E+02  0.91978313959E+01 -0.19668945983E+03  0.19832606826E+03  0.00000000000E+00 0. -1.
<mgrwt>
<rscale>  1 0.82109970E+02</rscale>
<asrwt>0</asrwt>
<pdfrwt beam="1">  1       21 0.32018019E-03 0.82109970E+02</pdfrwt>
<pdfrwt beam="2">  1        2 0.23571982E+00 0.82109970E+02</pdfrwt>
<totfact> 0.35185252E+06</totfact>
</mgrwt>
</event>
<event>
 6    2  0.7993170E+000  0.8766954E+02  0.7546771E-02  0.1308595E+00
         21   -1    0    0  501  502  0.00000000000E+00  0.00000000000E+00  0.40629624818E+02  0.40629624818E+02  0.00000000000E+00 0.  1.
         -3   -1    0    0    0  501 -0.00000000000E+00 -0.00000000000E+00 -0.10881505157E+03  0.10881505157E+03  0.00000000000E+00 0.  1.
         24    2    1    2    0    0  0.65174949765E+01 -0.28864446665E+02 -0.78927636814E+02  0.11796406174E+03  0.82524626548E+02 0.  0.
        -11    1    3    3    0    0  0.69471003489E+01 -0.35376390192E+02 -0.94465541586E+02  0.10111127402E+03  0.00000000000E+00 0.  1.
         12    1    3    3    0    0 -0.42960537237E+00  0.65119435277E+01  0.15537904772E+02  0.16852787722E+02  0.00000000000E+00 0. -1.
         -4    1    1    2    0  502 -0.65174949765E+01  0.28864446665E+02  0.10742210057E+02  0.31480614653E+02  0.00000000000E+00 0.  1.
<mgrwt>
<rscale>  1 0.87669539E+02</rscale>
<asrwt>0</asrwt>
<pdfrwt beam="1">  1       21 0.62507116E-02 0.87669539E+02</pdfrwt>
<pdfrwt beam="2">  1       -3 0.16740777E-01 0.87669539E+02</pdfrwt>
<totfact> 0.24953581E+05</totfact>
</mgrwt>
</event>
<event>
 6    2  0.7993170E+000  0.9040878E+02  0.7546771E-02  0.1301865E+00
          2   -1    0    0  502    0 -0.00000000000E+00  0.00000000000E+00  0.74323353515E+03  0.74323353515E+03  0.00000000000E+00 0. -1.
         21   -1    0    0  501  502  0.00000000000E+00 -0.00000000000E+00 -0.90760626355E+01  0.90760626355E+01  0.00000000000E+00 0. -1.
         24    2    1    2    0    0  0.13034212520E+02  0.35643654277E+02  0.68110864746E+03  0.68708277335E+03  0.82057217862E+02 0.  0.
        -11    1    3    3    0    0  0.72462438173E+01 -0.22956678477E+02  0.94194709892E+02  0.97222222294E+02  0.00000000000E+00 0.  1.
         12    1    3    3    0    0  0.57879687024E+01  0.58600332753E+02  0.58691393757E+03  0.58986055106E+03  0.00000000000E+00 0. -1.
          1    1    1    2  501    0 -0.13034212520E+02 -0.35643654277E+02  0.53048825051E+02  0.65226824432E+02  0.00000000000E+00 0. -1.
<mgrwt>
<rscale>  1 0.90408782E+02</rscale>
<asrwt>0</asrwt>
<pdfrwt beam="1">  1       21 0.13963179E-02 0.90408782E+02</pdfrwt>
<pdfrwt beam="2">  1        2 0.11434357E+00 0.90408782E+02</pdfrwt>
<totfact> 0.10248572E+06</totfact>
</mgrwt>
</event>
<event>
 6    2  0.7993170E+000  0.9511626E+02  0.7546771E-02  0.1290914E+00
         -3   -1    0    0    0  501 -0.00000000000E+00  0.00000000000E+00  0.14367468302E+03  0.14367468302E+03  0.00000000000E+00 0.  1.
         21   -1    0    0  501  502  0.00000000000E+00 -0.00000000000E+00 -0.38658906738E+02  0.38658906738E+02  0.00000000000E+00 0. -1.
         24    2    1    2    0    0 -0.32380448597E+02  0.38946112304E+02  0.49647050236E+02  0.10729367412E+03  0.80509687580E+02 0.  0.
        -11    1    3    3    0    0  0.23148703150E+01  0.54790686752E-01  0.54866042067E+02  0.54914881396E+02  0.00000000000E+00 0.  1.
         12    1    3    3    0    0 -0.34695318912E+02  0.38891321618E+02 -0.52189918313E+01  0.52378792725E+02  0.00000000000E+00 0. -1.
         -4    1    1    2    0  502  0.32380448597E+02 -0.38946112304E+02  0.55368726049E+02  0.75039915640E+02  0.00000000000E+00 0.  1.
<mgrwt>
<rscale>  1 0.95116260E+02</rscale>
<asrwt>0</asrwt>
<pdfrwt beam="1">  1       21 0.59475242E-02 0.95116260E+02</pdfrwt>
<pdfrwt beam="2">  1       -3 0.22103797E-01 0.95116260E+02</pdfrwt>
<totfact> 0.16950271E+05</totfact>
</mgrwt>
</event>
<event>
 6    2  0.7993170E+000  0.9883457E+02  0.7546771E-02  0.1282766E+00
          2   -1    0    0  502    0 -0.00000000000E+00  0.00000000000E+00  0.16171748157E+02  0.16171748157E+02  0.00000000000E+00 0. -1.
         21   -1    0    0  501  502  0.00000000000E+00 -0.00000000000E+00 -0.47373238067E+03  0.47373238067E+03  0.00000000000E+00 0.  1.
         24    2    1    2    0    0  0.38054001773E+01 -0.56384740627E+02 -0.16829992425E+03  0.19517463015E+03  0.81083609349E+02 0.  0.
        -13    1    3    3    0    0  0.24399416343E+02 -0.61043784619E+02 -0.15909283752E+03  0.17214007700E+03  0.00000000000E+00 0.  1.
         14    1    3    3    0    0 -0.20594016166E+02  0.46590439919E+01 -0.92070867258E+01  0.23034553148E+02  0.00000000000E+00 0. -1.
          1    1    1    2  501    0 -0.38054001773E+01  0.56384740627E+02 -0.28926070827E+03  0.29472949869E+03  0.00000000000E+00 0. -1.
<mgrwt>
<rscale>  1 0.98834568E+02</rscale>
<asrwt>0</asrwt>
<pdfrwt beam="1">  1       21 0.72881919E-01 0.98834568E+02</pdfrwt>
<pdfrwt beam="2">  1        2 0.24879608E-02 0.98834568E+02</pdfrwt>
<totfact> 0.79897373E+04</totfact>
</mgrwt>
</event>
<event>
 6    2  0.7993170E+000  0.9127213E+02  0.7546771E-02  0.1299800E+00
         -1   -1    0    0    0  501 -0.00000000000E+00  0.00000000000E+00  0.27860338309E+01  0.27860338309E+01  0.00000000000E+00 0.  1.
         21   -1    0    0  501  502  0.00000000000E+00 -0.00000000000E+00 -0.15930002148E+04  0.15930002148E+04  0.00000000000E+00 0.  1.
         24    2    1    2    0    0 -0.84525394840E+00 -0.41518686331E+02 -0.11510530645E+04  0.11546660814E+04  0.81277834262E+02 0.  0.
        -13    1    3    3    0    0 -0.12407702932E+02 -0.56305821843E+02 -0.49532188840E+03  0.49866629101E+03  0.00000000000E+00 0.  1.
         14    1    3    3    0    0  0.11562448984E+02  0.14787135512E+02 -0.65573117614E+03  0.65599979037E+03  0.00000000000E+00 0. -1.
         -2    1    1    2    0  502  0.84525394840E+00  0.41518686331E+02 -0.43916111644E+03  0.44112016725E+03  0.00000000000E+00 0.  1.
<mgrwt>
<rscale>  1 0.91272132E+02</rscale>
<asrwt>0</asrwt>
<pdfrwt beam="1">  1       21 0.24507747E+00 0.91272132E+02</pdfrwt>
<pdfrwt beam="2">  1       -1 0.42861970E-03 0.91272132E+02</pdfrwt>
<totfact> 0.39899307E+04</totfact>
</mgrwt>
</event>
<event>
 6    2  0.7993170E+000  0.8822190E+02  0.7546771E-02  0.1307216E+00
          2   -1    0    0  502    0 -0.00000000000E+00  0.00000000000E+00  0.36654600821E+03  0.36654600821E+03  0.00000000000E+00 0. -1.
         21   -1    0    0  501  502  0.00000000000E+00 -0.00000000000E+00 -0.14634421176E+02  0.14634421176E+02  0.00000000000E+00 0.  1.
         24    2    1    2    0    0  0.21301152100E+02 -0.28410784276E+02  0.13426064114E+03  0.16065186889E+03  0.80760085908E+02 0.  0.
        -11    1    3    3    0    0 -0.36421994950E+00 -0.31930796795E+02  0.85752012052E+01  0.33064218058E+02  0.00000000000E+00 0.  1.
         12    1    3    3    0    0  0.21665372049E+02  0.35200125190E+01  0.12568543994E+03  0.12758765084E+03  0.00000000000E+00 0. -1.
          1    1    1    2  501    0 -0.21301152100E+02  0.28410784276E+02  0.21765094590E+03  0.22052856049E+03  0.00000000000E+00 0. -1.
<mgrwt>
<rscale>  1 0.88221898E+02</rscale>
<asrwt>0</asrwt>
<pdfrwt beam="1">  1       21 0.22514497E-02 0.88221898E+02</pdfrwt>
<pdfrwt beam="2">  1        2 0.56391686E-01 0.88221898E+02</pdfrwt>
<totfact> 0.10377221E+06</totfact>
</mgrwt>
</event>
<event>
 6    2  0.7993170E+000  0.8839748E+02  0.7546771E-02  0.1306779E+00
         -3   -1    0    0    0  501 -0.00000000000E+00  0.00000000000E+00  0.17780340597E+02  0.17780340597E+02  0.00000000000E+00 0.  1.
         21   -1    0    0  501  502  0.00000000000E+00 -0.00000000000E+00 -0.19447619722E+03  0.19447619722E+03  0.00000000000E+00 0. -1.
         24    2    1    2    0    0 -0.17890808018E+02 -0.21766188987E+02 -0.14525261971E+03  0.17003657640E+03  0.83787026363E+02 0.  0.
        -13    1    3    3    0    0  0.24856160731E+02  0.75804889002E+01 -0.15381873846E+02  0.30197592309E+02  0.00000000000E+00 0.  1.
         14    1    3    3    0    0 -0.42746968749E+02 -0.29346677887E+02 -0.12987074587E+03  0.13983898409E+03  0.00000000000E+00 0. -1.
         -4    1    1    2    0  502  0.17890808018E+02  0.21766188987E+02 -0.31443236913E+02  0.42219961418E+02  0.00000000000E+00 0.  1.
<mgrwt>
<rscale>  1 0.88397476E+02</rscale>
<asrwt>0</asrwt>
<pdfrwt beam="1">  1       21 0.29919416E-01 0.88397476E+02</pdfrwt>
<pdfrwt beam="2">  1       -3 0.27354369E-02 0.88397476E+02</pdfrwt>
<totfact> 0.28036165E+05</totfact>
</mgrwt>
</event>
<event>
 6    2  0.7993170E+000  0.8875802E+02  0.7546771E-02  0.1305888E+00
          2   -1    0    0  502    0 -0.00000000000E+00  0.00000000000E+00  0.16956379766E+04  0.16956379766E+04  0.00000000000E+00 0. -1.
         21   -1    0    0  501  502  0.00000000000E+00 -0.00000000000E+00 -0.29860993507E+01  0.29860993507E+01  0.00000000000E+00 0.  1.
         24    2    1    2    0    0 -0.15843181619E+02  0.34070551564E+02  0.14814074915E+04  0.14840640624E+04  0.80412540465E+02 0.  0.
        -13    1    3    3    0    0 -0.28846936399E+01  0.20022651224E+02  0.79731023332E+02  0.82257304241E+02  0.00000000000E+00 0.  1.
         14    1    3    3    0    0 -0.12958487979E+02  0.14047900340E+02  0.14016764682E+04  0.14018067582E+04  0.00000000000E+00 0. -1.
          1    1    1    2  501    0  0.15843181619E+02 -0.34070551564E+02  0.21124438580E+03  0.21456001356E+03  0.00000000000E+00 0. -1.
<mgrwt>
<rscale>  1 0.88758017E+02</rscale>
<asrwt>0</asrwt>
<pdfrwt beam="1">  1       21 0.45940126E-03 0.88758017E+02</pdfrwt>
<pdfrwt beam="2">  1        2 0.26086661E+00 0.88758017E+02</pdfrwt>
<totfact> 0.16921539E+06</totfact>
</mgrwt>
</event>
<event>
 6    2  0.7993170E+000  0.8983011E+02  0.7546771E-02  0.1303264E+00
          2   -1    0    0  502    0 -0.00000000000E+00  0.00000000000E+00  0.37594377763E+03  0.37594377763E+03  0.00000000000E+00 0. -1.
         21   -1    0    0  501  502  0.00000000000E+00 -0.00000000000E+00 -0.19824106440E+02  0.19824106440E+02  0.00000000000E+00 0.  1.
         24    2    1    2    0    0  0.37404975833E+02  0.16411776322E+02  0.34031274802E+03  0.35196905487E+03  0.80006065421E+02 0.  0.
        -11    1    3    3    0    0  0.58854691461E+02  0.22198408373E+02  0.29332724002E+03  0.29999585627E+03  0.00000000000E+00 0.  1.
         12    1    3    3    0    0 -0.21449715628E+02 -0.57866320516E+01  0.46985507999E+02  0.51973198602E+02  0.00000000000E+00 0. -1.
          1    1    1    2  501    0 -0.37404975833E+02 -0.16411776322E+02  0.15806923174E+02  0.43798829201E+02  0.00000000000E+00 0. -1.
<mgrwt>
<rscale>  1 0.89830113E+02</rscale>
<asrwt>0</asrwt>
<pdfrwt beam="1">  1       21 0.30498628E-02 0.89830113E+02</pdfrwt>
<pdfrwt beam="2">  1        2 0.57837499E-01 0.89830113E+02</pdfrwt>
<totfact> 0.61987414E+05</totfact>
</mgrwt>
</event>
<event>
 6    2  0.7993170E+000  0.8455930E+02  0.7546771E-02  0.1316589E+00
          2   -1    0    0  502    0 -0.00000000000E+00  0.00000000000E+00  0.88024727303E+03  0.88024727303E+03  0.00000000000E+00 0. -1.
         21   -1    0    0  501  502  0.00000000000E+00 -0.00000000000E+00 -0.41181021397E+01  0.41181021397E+01  0.00000000000E+00 0.  1.
         24    2    1    2    0    0  0.15733235728E+02 -0.29653902831E+02  0.54234716701E+03  0.54889955757E+03  0.77610476636E+02 0.  0.
        -11    1    3    3    0    0  0.29298579147E+02 -0.26380881216E+02  0.11977055174E+03  0.12609259573E+03  0.00000000000E+00 0.  1.
         12    1    3    3    0    0 -0.13565343419E+02 -0.32730216149E+01  0.42257661527E+03  0.42280696184E+03  0.00000000000E+00 0. -1.
          1    1    1    2  501    0 -0.15733235728E+02  0.29653902831E+02  0.33378200388E+03  0.33546581760E+03  0.00000000000E+00 0. -1.
<mgrwt>
<rscale>  1 0.84559297E+02</rscale>
<asrwt>0</asrwt>
<pdfrwt beam="1">  1       21 0.63355487E-03 0.84559297E+02</pdfrwt>
<pdfrwt beam="2">  1        2 0.13542251E+00 0.84559297E+02</pdfrwt>
<totfact> 0.28364371E+06</totfact>
</mgrwt>
</event>
<event>
 6    2  0.7993170E+000  0.8416989E+02  0.7546771E-02  0.1317618E+00
          4   -1    0    0  502    0 -0.00000000000E+00  0.00000000000E+00  0.28895867725E+03  0.28895867725E+03  0.00000000000E+00 0. -1.
         21   -1    0    0  501  502  0.00000000000E+00 -0.00000000000E+00 -0.11308231767E+02  0.11308231767E+02  0.00000000000E+00 0.  1.
         24    2    1    2    0    0 -0.17428802612E+02 -0.10422008539E+02  0.26025616511E+03  0.27352850196E+03  0.81683465176E+02 0.  0.
        -13    1    3    3    0    0 -0.18296581859E+02 -0.44470157701E+02  0.12190134412E+03  0.13104311326E+03  0.00000000000E+00 0.  1.
         14    1    3    3    0    0  0.86777924665E+00  0.34048149163E+02  0.13835482099E+03  0.14248538870E+03  0.00000000000E+00 0. -1.
          3    1    1    2  501    0  0.17428802612E+02  0.10422008539E+02  0.17394280379E+02  0.26738407065E+02  0.00000000000E+00 0. -1.
<mgrwt>
<rscale>  1 0.84169887E+02</rscale>
<asrwt>0</asrwt>
<pdfrwt beam="1">  1       21 0.17397282E-02 0.84169887E+02</pdfrwt>
<pdfrwt beam="2">  1        4 0.44455176E-01 0.84169887E+02</pdfrwt>
<totfact> 0.27709894E+05</totfact>
</mgrwt>
</event>
<event>
 6    2  0.7993170E+000  0.8493800E+02  0.7546771E-02  0.1315595E+00
         21   -1    0    0  501  502  0.00000000000E+00  0.00000000000E+00  0.66637336427E+01  0.66637336427E+01  0.00000000000E+00 0.  1.
          2   -1    0    0  502    0 -0.00000000000E+00 -0.00000000000E+00 -0.79458433070E+03  0.79458433070E+03  0.00000000000E+00 0. -1.
         24    2    1    2    0    0 -0.16565021196E+02  0.18580730203E+02 -0.27720031476E+03  0.28992150508E+03  0.81208504112E+02 0.  0.
        -13    1    3    3    0    0  0.15363328621E+02 -0.15451948384E+02 -0.23832540636E+02  0.32292175033E+02  0.00000000000E+00 0.  1.
         14    1    3    3    0    0 -0.31928349817E+02  0.34032678587E+02 -0.25336777412E+03  0.25762933004E+03  0.00000000000E+00 0. -1.
          1    1    1    2  501    0  0.16565021196E+02 -0.18580730203E+02 -0.51072028229E+03  0.51132655926E+03  0.00000000000E+00 0. -1.
<mgrwt>
<rscale>  1 0.84938004E+02</rscale>
<asrwt>0</asrwt>
<pdfrwt beam="1">  1       21 0.10251891E-02 0.84938004E+02</pdfrwt>
<pdfrwt beam="2">  1        2 0.12224383E+00 0.84938004E+02</pdfrwt>
<totfact> 0.15275085E+06</totfact>
</mgrwt>
</event>
<event>
 6    2  0.7993170E+000  0.1000924E+03  0.7546771E-02  0.1280102E+00
         21   -1    0    0  501  502  0.00000000000E+00  0.00000000000E+00  0.93367994225E+03  0.93367994225E+03  0.00000000000E+00 0. -1.
          2   -1    0    0  502    0 -0.00000000000E+00 -0.00000000000E+00 -0.94396390900E+01  0.94396390900E+01  0.00000000000E+00 0. -1.
         24    2    1    2    0    0  0.37291000205E+02 -0.45880020785E+02  0.30369756982E+03  0.31976664848E+03  0.80764475869E+02 0.  0.
        -13    1    3    3    0    0  0.66020999047E+01  0.23376005327E+02  0.69439249882E+02  0.73565173638E+02  0.00000000000E+00 0.  1.
         14    1    3    3    0    0  0.30688900301E+02 -0.69256026112E+02  0.23425831994E+03  0.24620147485E+03  0.00000000000E+00 0. -1.
          1    1    1    2  501    0 -0.37291000205E+02  0.45880020785E+02  0.62054273334E+03  0.62335293286E+03  0.00000000000E+00 0. -1.
<mgrwt>
<rscale>  1 0.10009244E+03</rscale>
<asrwt>0</asrwt>
<pdfrwt beam="1">  1       21 0.14364300E+00 0.10009244E+03</pdfrwt>
<pdfrwt beam="2">  1        2 0.14522529E-02 0.10009244E+03</pdfrwt>
<totfact> 0.33906559E+04</totfact>
</mgrwt>
</event>
<event>
 6    2  0.7993170E+000  0.6992267E+02  0.7546771E-02  0.1360356E+00
         21   -1    0    0  501  502  0.00000000000E+00  0.00000000000E+00  0.11412021115E+02  0.11412021115E+02  0.00000000000E+00 0. -1.
          2   -1    0    0  502    0 -0.00000000000E+00 -0.00000000000E+00 -0.33043234779E+03  0.33043234779E+03  0.00000000000E+00 0. -1.
         24    2    1    2    0    0  0.28855188226E+02  0.15385303260E+02 -0.28938580310E+03  0.29771349047E+03  0.61804934501E+02 0.  0.
        -13    1    3    3    0    0 -0.23143655193E+01  0.40378643641E+01  0.15403699947E+01  0.49023847361E+01  0.00000000000E+00 0.  1.
         14    1    3    3    0    0  0.31169553745E+02  0.11347438896E+02 -0.29092617309E+03  0.29281110573E+03  0.00000000000E+00 0. -1.
          1    1    1    2  501    0 -0.28855188226E+02 -0.15385303260E+02 -0.29634523578E+02  0.44130878438E+02  0.00000000000E+00 0. -1.
<mgrwt>
<rscale>  1 0.69922667E+02</rscale>
<asrwt>0</asrwt>
<pdfrwt beam="1">  1       21 0.17556957E-02 0.69922667E+02</pdfrwt>
<pdfrwt beam="2">  1        2 0.50835742E-01 0.69922667E+02</pdfrwt>
<totfact> 0.16731500E+06</totfact>
</mgrwt>
</event>
<event>
 6    2  0.7993170E+000  0.9047691E+02  0.7546771E-02  0.1301701E+00
         21   -1    0    0  501  502  0.00000000000E+00  0.00000000000E+00  0.34481337520E+01  0.34481337520E+01  0.00000000000E+00 0.  1.
         -3   -1    0    0    0  501 -0.00000000000E+00 -0.00000000000E+00 -0.14033821053E+04  0.14033821053E+04  0.00000000000E+00 0.  1.
         24    2    1    2    0    0  0.34039218392E+02 -0.19914943162E+02 -0.11739142000E+04  0.11773956939E+04  0.81429711114E+02 0.  0.
        -11    1    3    3    0    0  0.51143998510E+02 -0.12908283671E+02 -0.10978998509E+04  0.10991662363E+04  0.00000000000E+00 0.  1.
         12    1    3    3    0    0 -0.17104780118E+02 -0.70066594913E+01 -0.76014349028E+02  0.78229457612E+02  0.00000000000E+00 0. -1.
         -4    1    1    2    0  502 -0.34039218392E+02  0.19914943162E+02 -0.22601977162E+03  0.22943454516E+03  0.00000000000E+00 0.  1.
<mgrwt>
<rscale>  1 0.90476910E+02</rscale>
<asrwt>0</asrwt>
<pdfrwt beam="1">  1       21 0.53048087E-03 0.90476910E+02</pdfrwt>
<pdfrwt beam="2">  1       -3 0.21590545E+00 0.90476910E+02</pdfrwt>
<totfact> 0.60490520E+04</totfact>
</mgrwt>
</event>
<event>
 6    2  0.7993170E+000  0.8529002E+02  0.7546771E-02  0.1314676E+00
         21   -1    0    0  501  502  0.00000000000E+00  0.00000000000E+00  0.32654835908E+02  0.32654835908E+02  0.00000000000E+00 0.  1.
          2   -1    0    0  502    0 -0.00000000000E+00 -0.00000000000E+00 -0.11893404183E+03  0.11893404183E+03  0.00000000000E+00 0. -1.
         24    2    1    2    0    0  0.21908356659E+02 -0.17621981336E+02 -0.89087741915E+02  0.12333293691E+03  0.80522526343E+02 0.  0.
        -13    1    3    3    0    0  0.43586876576E+02 -0.26957860779E+02 -0.29252677537E+02  0.59010687257E+02  0.00000000000E+00 0.  1.
         14    1    3    3    0    0 -0.21678519918E+02  0.93358794422E+01 -0.59835064378E+02  0.64322249649E+02  0.00000000000E+00 0. -1.
          1    1    1    2  501    0 -0.21908356659E+02  0.17621981336E+02  0.28085359952E+01  0.28255940829E+02  0.00000000000E+00 0. -1.
<mgrwt>
<rscale>  1 0.85290020E+02</rscale>
<asrwt>0</asrwt>
<pdfrwt beam="1">  1       21 0.50238209E-02 0.85290020E+02</pdfrwt>
<pdfrwt beam="2">  1        2 0.18297545E-01 0.85290020E+02</pdfrwt>
<totfact> 0.92999374E+05</totfact>
</mgrwt>
</event>
<event>
 6    2  0.7993170E+000  0.1398906E+03  0.7546771E-02  0.1213476E+00
         21   -1    0    0  501  502  0.00000000000E+00  0.00000000000E+00  0.26293445199E+03  0.26293445199E+03  0.00000000000E+00 0. -1.
          4   -1    0    0  502    0 -0.00000000000E+00 -0.00000000000E+00 -0.71693380434E+02  0.71693380434E+02  0.00000000000E+00 0. -1.
         24    2    1    2    0    0 -0.68253751217E+02 -0.91580748923E+02  0.16703028629E+03  0.21787266015E+03  0.80769866752E+02 0.  0.
        -11    1    3    3    0    0 -0.27079004515E+02  0.11080454815E+02  0.36519124540E+02  0.46794181493E+02  0.00000000000E+00 0.  1.
         12    1    3    3    0    0 -0.41174746702E+02 -0.10266120374E+03  0.13051116175E+03  0.17107847866E+03  0.00000000000E+00 0. -1.
          3    1    1    2  501    0  0.68253751217E+02  0.91580748923E+02  0.24210785264E+02  0.11675517227E+03  0.00000000000E+00 0. -1.
<mgrwt>
<rscale>  1 0.13989060E+03</rscale>
<asrwt>0</asrwt>
<pdfrwt beam="1">  1       21 0.40451454E-01 0.13989060E+03</pdfrwt>
<pdfrwt beam="2">  1        4 0.11029751E-01 0.13989060E+03</pdfrwt>
<totfact> 0.15542554E+04</totfact>
</mgrwt>
</event>
<event>
 6    2  0.7993170E+000  0.9384488E+02  0.7546771E-02  0.1293799E+00
          2   -1    0    0  502    0 -0.00000000000E+00  0.00000000000E+00  0.24126306897E+03  0.24126306897E+03  0.00000000000E+00 0. -1.
         21   -1    0    0  501  502  0.00000000000E+00 -0.00000000000E+00 -0.30065500630E+02  0.30065500630E+02  0.00000000000E+00 0. -1.
         24    2    1    2    0    0  0.64487672297E+02  0.95476111753E+01  0.74283665627E+02  0.11968677617E+03  0.67505886071E+02 0.  0.
        -11    1    3    3    0    0  0.21041813580E+02 -0.15041131348E+02 -0.46616916292E+01  0.26281646063E+02  0.00000000000E+00 0.  1.
         12    1    3    3    0    0  0.43445858717E+02  0.24588742523E+02  0.78945357256E+02  0.93405130110E+02  0.00000000000E+00 0. -1.
          1    1    1    2  501    0 -0.64487672297E+02 -0.95476111753E+01  0.13691390272E+03  0.15164179343E+03  0.00000000000E+00 0. -1.
<mgrwt>
<rscale>  1 0.93844880E+02</rscale>
<asrwt>0</asrwt>
<pdfrwt beam="1">  1       21 0.46254618E-02 0.93844880E+02</pdfrwt>
<pdfrwt beam="2">  1        2 0.37117394E-01 0.93844880E+02</pdfrwt>
<totfact> 0.49957414E+05</totfact>
</mgrwt>
</event>
<event>
 6    2  0.7993170E+000  0.8787607E+02  0.7546771E-02  0.1308078E+00
         21   -1    0    0  501  502  0.00000000000E+00  0.00000000000E+00  0.96115478516E+01  0.96115478516E+01  0.00000000000E+00 0.  1.
          2   -1    0    0  502    0 -0.00000000000E+00 -0.00000000000E+00 -0.41662637203E+03  0.41662637203E+03  0.00000000000E+00 0. -1.
         24    2    1    2    0    0 -0.16911121645E+02 -0.32814929833E+02 -0.25180407907E+03  0.26669738882E+03  0.79745829423E+02 0.  0.
        -13    1    3    3    0    0 -0.12895195290E+02 -0.18051069284E+02 -0.98709194945E+01  0.24280902280E+02  0.00000000000E+00 0.  1.
         14    1    3    3    0    0 -0.40159263550E+01 -0.14763860549E+02 -0.24193315958E+03  0.24241648654E+03  0.00000000000E+00 0. -1.
          1    1    1    2  501    0  0.16911121645E+02  0.32814929833E+02 -0.15521074511E+03  0.15954053107E+03  0.00000000000E+00 0. -1.
<mgrwt>
<rscale>  1 0.87876066E+02</rscale>
<asrwt>0</asrwt>
<pdfrwt beam="1">  1       21 0.14786993E-02 0.87876066E+02</pdfrwt>
<pdfrwt beam="2">  1        2 0.64096381E-01 0.87876066E+02</pdfrwt>
<totfact> 0.17718664E+06</totfact>
</mgrwt>
</event>
<event>
 6    2  0.7993170E+000  0.8484946E+02  0.7546771E-02  0.1315827E+00
         -1   -1    0    0    0  501 -0.00000000000E+00  0.00000000000E+00  0.14233568812E+02  0.14233568812E+02  0.00000000000E+00 0.  1.
         21   -1    0    0  501  502  0.00000000000E+00 -0.00000000000E+00 -0.20480721333E+03  0.20480721333E+03  0.00000000000E+00 0. -1.
         24    2    1    2    0    0  0.22524320311E+02 -0.50898349728E+01 -0.15227644950E+03  0.17432024355E+03  0.81646670563E+02 0.  0.
        -11    1    3    3    0    0 -0.10073855926E+02  0.32103239563E+02 -0.44960394506E+02  0.56156367741E+02  0.00000000000E+00 0.  1.
         12    1    3    3    0    0  0.32598176237E+02 -0.37193074536E+02 -0.10731605499E+03  0.11816387581E+03  0.00000000000E+00 0. -1.
         -2    1    1    2    0  502 -0.22524320311E+02  0.50898349728E+01 -0.38297195022E+02  0.44720538593E+02  0.00000000000E+00 0.  1.
<mgrwt>
<rscale>  1 0.84849456E+02</rscale>
<asrwt>0</asrwt>
<pdfrwt beam="1">  1       21 0.31508801E-01 0.84849456E+02</pdfrwt>
<pdfrwt beam="2">  1       -1 0.21897799E-02 0.84849456E+02</pdfrwt>
<totfact> 0.47157154E+05</totfact>
</mgrwt>
</event>
<event>
 6    2  0.7993170E+000  0.6758089E+02  0.7546771E-02  0.1368518E+00
         21   -1    0    0  501  502  0.00000000000E+00  0.00000000000E+00  0.28803406541E+02  0.28803406541E+02  0.00000000000E+00 0. -1.
          2   -1    0    0  502    0 -0.00000000000E+00 -0.00000000000E+00 -0.26965602768E+03  0.26965602768E+03  0.00000000000E+00 0. -1.
         24    2    1    2    0    0 -0.86123717354E+01 -0.27737470208E+02 -0.25664920065E+03  0.26539779293E+03  0.61021603529E+02 0.  0.
        -11    1    3    3    0    0  0.15820484890E+02  0.83463781403E+01 -0.32935136416E+02  0.37478967181E+02  0.00000000000E+00 0.  1.
         12    1    3    3    0    0 -0.24432856626E+02 -0.36083848348E+02 -0.22371406424E+03  0.22791882575E+03  0.00000000000E+00 0. -1.
          1    1    1    2  501    0  0.86123717354E+01  0.27737470208E+02  0.15796579513E+02  0.33061641289E+02  0.00000000000E+00 0. -1.
<mgrwt>
<rscale>  1 0.67580887E+02</rscale>
<asrwt>0</asrwt>
<pdfrwt beam="1">  1       21 0.44312934E-02 0.67580887E+02</pdfrwt>
<pdfrwt beam="2">  1        2 0.41485542E-01 0.67580887E+02</pdfrwt>
<totfact> 0.46336344E+05</totfact>
</mgrwt>
</event>
<event>
 6    2  0.7993170E+000  0.9926762E+02  0.7546771E-02  0.1281844E+00
         21   -1    0    0  501  502  0.00000000000E+00  0.00000000000E+00  0.50925848996E+03  0.50925848996E+03  0.00000000000E+00 0.  1.
         -1   -1    0    0    0  501 -0.00000000000E+00 -0.00000000000E+00 -0.12169404949E+02  0.12169404949E+02  0.00000000000E+00 0.  1.
         24    2    1    2    0    0  0.36666503663E+02 -0.45149309558E+02  0.30977932847E+03  0.32529570087E+03  0.80443570350E+02 0.  0.
        -11    1    3    3    0    0  0.30695124657E+02 -0.24262069020E+02  0.45017236038E+02  0.59643861473E+02  0.00000000000E+00 0.  1.
         12    1    3    3    0    0  0.59713790058E+01 -0.20887240538E+02  0.26476209243E+03  0.26565183940E+03  0.00000000000E+00 0. -1.
         -2    1    1    2    0  502 -0.36666503663E+02  0.45149309558E+02  0.18730975654E+03  0.19613219404E+03  0.00000000000E+00 0.  1.
<mgrwt>
<rscale>  1 0.99267621E+02</rscale>
<asrwt>0</asrwt>
<pdfrwt beam="1">  1       21 0.78347444E-01 0.99267621E+02</pdfrwt>
<pdfrwt beam="2">  1       -1 0.18722165E-02 0.99267621E+02</pdfrwt>
<totfact> 0.92474660E+04</totfact>
</mgrwt>
</event>
<event>
 6    2  0.7993170E+000  0.8286657E+02  0.7546771E-02  0.1321108E+00
         -1   -1    0    0    0  501 -0.00000000000E+00  0.00000000000E+00  0.66110977799E+01  0.66110977799E+01  0.00000000000E+00 0.  1.
         21   -1    0    0  501  502  0.00000000000E+00 -0.00000000000E+00 -0.89034136635E+03  0.89034136635E+03  0.00000000000E+00 0.  1.
         24    2    1    2    0    0 -0.16287454497E+02  0.12057471777E+02 -0.25985230906E+03  0.27274546949E+03  0.80350512144E+02 0.  0.
        -13    1    3    3    0    0 -0.24681137187E+02  0.20263885796E+02 -0.34212123796E+02  0.46800139049E+02  0.00000000000E+00 0.  1.
         14    1    3    3    0    0  0.83936826898E+01 -0.82064140199E+01 -0.22564018527E+03  0.22594533044E+03  0.00000000000E+00 0. -1.
         -2    1    1    2    0  502  0.16287454497E+02 -0.12057471777E+02 -0.62387795950E+03  0.62420699464E+03  0.00000000000E+00 0.  1.
<mgrwt>
<rscale>  1 0.82866571E+02</rscale>
<asrwt>0</asrwt>
<pdfrwt beam="1">  1       21 0.13697558E+00 0.82866571E+02</pdfrwt>
<pdfrwt beam="2">  1       -1 0.10170921E-02 0.82866571E+02</pdfrwt>
<totfact> 0.59149073E+04</totfact>
</mgrwt>
</event>
<event>
 6    2  0.7993170E+000  0.8824920E+02  0.7546771E-02  0.1307148E+00
         21   -1    0    0  501  502  0.00000000000E+00  0.00000000000E+00  0.24416477458E+02  0.24416477458E+02  0.00000000000E+00 0. -1.
          2   -1    0    0  502    0 -0.00000000000E+00 -0.00000000000E+00 -0.19861633618E+03  0.19861633618E+03  0.00000000000E+00 0. -1.
         24    2    1    2    0    0  0.22308234156E+02 -0.36175748368E+02 -0.15024577425E+03  0.17424613263E+03  0.77340674767E+02 0.  0.
        -11    1    3    3    0    0  0.12352158323E+02 -0.13622223446E+01  0.60424661278E+01  0.13818207621E+02  0.00000000000E+00 0.  1.
         12    1    3    3    0    0  0.99560758326E+01 -0.34813526023E+02 -0.15628824038E+03  0.16042792501E+03  0.00000000000E+00 0. -1.
          1    1    1    2  501    0 -0.22308234156E+02  0.36175748368E+02 -0.23954084466E+02  0.48786681007E+02  0.00000000000E+00 0. -1.
<mgrwt>
<rscale>  1 0.88249204E+02</rscale>
<asrwt>0</asrwt>
<pdfrwt beam="1">  1       21 0.37563810E-02 0.88249204E+02</pdfrwt>
<pdfrwt beam="2">  1        2 0.30556361E-01 0.88249204E+02</pdfrwt>
<totfact> 0.86052219E+05</totfact>
</mgrwt>
</event>
<event>
 6    2  0.7993170E+000  0.1045764E+03  0.7546771E-02  0.1270957E+00
         21   -1    0    0  501  502  0.00000000000E+00  0.00000000000E+00  0.18788005417E+03  0.18788005417E+03  0.00000000000E+00 0. -1.
         -3   -1    0    0    0  501 -0.00000000000E+00 -0.00000000000E+00 -0.53278064911E+02  0.53278064911E+02  0.00000000000E+00 0.  1.
         24    2    1    2    0    0  0.48679948050E+01 -0.64176159462E+02  0.15418241324E+02  0.10570686368E+03  0.82425372596E+02 0.  0.
        -13    1    3    3    0    0 -0.16025681689E+02  0.46084162303E+01 -0.19608216338E+02  0.25739893584E+02  0.00000000000E+00 0.  1.
         14    1    3    3    0    0  0.20893676494E+02 -0.68784575692E+02  0.35026457662E+02  0.79966970099E+02  0.00000000000E+00 0. -1.
         -4    1    1    2    0  502 -0.48679948050E+01  0.64176159462E+02  0.11918374794E+03  0.13545125540E+03  0.00000000000E+00 0.  1.
<mgrwt>
<rscale>  1 0.10457638E+03</rscale>
<asrwt>0</asrwt>
<pdfrwt beam="1">  1       21 0.28904623E-01 0.10457638E+03</pdfrwt>
<pdfrwt beam="2">  1       -3 0.81966255E-02 0.10457638E+03</pdfrwt>
<totfact> 0.54779387E+04</totfact>
</mgrwt>
</event>
<event>
 6    2  0.7993170E+000  0.8581115E+02  0.7546771E-02  0.1313325E+00
          4   -1    0    0  502    0 -0.00000000000E+00  0.00000000000E+00  0.14639137156E+03  0.14639137156E+03  0.00000000000E+00 0. -1.
         21   -1    0    0  501  502  0.00000000000E+00 -0.00000000000E+00 -0.23650185149E+02  0.23650185149E+02  0.00000000000E+00 0.  1.
         24    2    1    2    0    0 -0.29367984644E+02  0.12289503036E+02  0.91321565005E+02  0.12531233789E+03  0.79687159477E+02 0.  0.
        -13    1    3    3    0    0 -0.14110215855E+02  0.45546408044E+02  0.39742024518E+02  0.62072554241E+02  0.00000000000E+00 0.  1.
         14    1    3    3    0    0 -0.15257768789E+02 -0.33256905008E+02  0.51579540487E+02  0.63239783649E+02  0.00000000000E+00 0. -1.
          3    1    1    2  501    0  0.29367984644E+02 -0.12289503036E+02  0.31419621407E+02  0.44729218821E+02  0.00000000000E+00 0. -1.
<mgrwt>
<rscale>  1 0.85811152E+02</rscale>
<asrwt>0</asrwt>
<pdfrwt beam="1">  1       21 0.36384901E-02 0.85811152E+02</pdfrwt>
<pdfrwt beam="2">  1        4 0.22521749E-01 0.85811152E+02</pdfrwt>
<totfact> 0.30542901E+05</totfact>
</mgrwt>
</event>
<event>
 6    2  0.7993170E+000  0.8316239E+02  0.7546771E-02  0.1320309E+00
         21   -1    0    0  501  502  0.00000000000E+00  0.00000000000E+00  0.27780672577E+03  0.27780672577E+03  0.00000000000E+00 0. -1.
         -1   -1    0    0    0  501 -0.00000000000E+00 -0.00000000000E+00 -0.12127717937E+02  0.12127717937E+02  0.00000000000E+00 0.  1.
         24    2    1    2    0    0 -0.23286353442E+02 -0.21290924281E+02  0.17127697725E+03  0.19039901739E+03  0.76944299170E+02 0.  0.
        -13    1    3    3    0    0 -0.48678843019E+02  0.19801184397E+01  0.10009034069E+03  0.11131768470E+03  0.00000000000E+00 0.  1.
         14    1    3    3    0    0  0.25392489577E+02 -0.23271042721E+02  0.71186636559E+02  0.79081332695E+02  0.00000000000E+00 0. -1.
         -2    1    1    2    0  502  0.23286353442E+02  0.21290924281E+02  0.94402030586E+02  0.99535426317E+02  0.00000000000E+00 0.  1.
<mgrwt>
<rscale>  1 0.83162389E+02</rscale>
<asrwt>0</asrwt>
<pdfrwt beam="1">  1       21 0.42739491E-01 0.83162389E+02</pdfrwt>
<pdfrwt beam="2">  1       -1 0.18658030E-02 0.83162389E+02</pdfrwt>
<totfact> 0.32590824E+05</totfact>
</mgrwt>
</event>
<event>
 6    2  0.7993170E+000  0.9032402E+02  0.7546771E-02  0.1302069E+00
         21   -1    0    0  501  502  0.00000000000E+00  0.00000000000E+00  0.24261848047E+02  0.24261848047E+02  0.00000000000E+00 0. -1.
          2   -1    0    0  502    0 -0.00000000000E+00 -0.00000000000E+00 -0.51398188743E+03  0.51398188743E+03  0.00000000000E+00 0. -1.
         24    2    1    2    0    0  0.10696651614E+02  0.40798303621E+02 -0.48772615742E+03  0.49601938824E+03  0.79871828197E+02 0.  0.
        -11    1    3    3    0    0 -0.27743984903E+02 -0.69735513081E+01 -0.17766020697E+03  0.17994862672E+03  0.00000000000E+00 0.  1.
         12    1    3    3    0    0  0.38440636517E+02  0.47771854929E+02 -0.31006595045E+03  0.31607076152E+03  0.00000000000E+00 0. -1.
          1    1    1    2  501    0 -0.10696651614E+02 -0.40798303621E+02 -0.19938819556E+01  0.42224347235E+02  0.00000000000E+00 0. -1.
<mgrwt>
<rscale>  1 0.90324022E+02</rscale>
<asrwt>0</asrwt>
<pdfrwt beam="1">  1       21 0.37325922E-02 0.90324022E+02</pdfrwt>
<pdfrwt beam="2">  1        2 0.79074132E-01 0.90324022E+02</pdfrwt>
<totfact> 0.31967641E+05</totfact>
</mgrwt>
</event>
<event>
 6    2  0.7993170E+000  0.9393414E+02  0.7546771E-02  0.1293595E+00
          2   -1    0    0  502    0 -0.00000000000E+00  0.00000000000E+00  0.52927553341E+02  0.52927553341E+02  0.00000000000E+00 0. -1.
         21   -1    0    0  501  502  0.00000000000E+00 -0.00000000000E+00 -0.98988350628E+02  0.98988350628E+02  0.00000000000E+00 0.  1.
         24    2    1    2    0    0  0.36929652543E+02  0.32838633620E+02 -0.19971954433E+02  0.96033860194E+02  0.79883967383E+02 0.  0.
        -13    1    3    3    0    0  0.60175686482E+02  0.30997104816E+02 -0.40763755949E+01  0.67812613786E+02  0.00000000000E+00 0.  1.
         14    1    3    3    0    0 -0.23246033939E+02  0.18415288042E+01 -0.15895578838E+02  0.28221246408E+02  0.00000000000E+00 0. -1.
          1    1    1    2  501    0 -0.36929652543E+02 -0.32838633620E+02 -0.26088842854E+02  0.55882043775E+02  0.00000000000E+00 0. -1.
<mgrwt>
<rscale>  1 0.93934144E+02</rscale>
<asrwt>0</asrwt>
<pdfrwt beam="1">  1       21 0.15228977E-01 0.93934144E+02</pdfrwt>
<pdfrwt beam="2">  1        2 0.81427007E-02 0.93934144E+02</pdfrwt>
<totfact> 0.36349072E+05</totfact>
</mgrwt>
</event>
<event>
 6    2  0.7993170E+000  0.9346977E+02  0.7546771E-02  0.1294660E+00
         21   -1    0    0  501  502  0.00000000000E+00  0.00000000000E+00  0.13544845352E+02  0.13544845352E+02  0.00000000000E+00 0. -1.
          2   -1    0    0  502    0 -0.00000000000E+00 -0.00000000000E+00 -0.53540258771E+03  0.53540258771E+03  0.00000000000E+00 0. -1.
         24    2    1    2    0    0  0.23537923572E+02  0.82837863282E+01 -0.51451534810E+03  0.52293655619E+03  0.90077430075E+02 0.  0.
        -13    1    3    3    0    0  0.36458032636E+01 -0.10240629201E+02 -0.38253727220E+01  0.11523707924E+02  0.00000000000E+00 0.  1.
         14    1    3    3    0    0  0.19892120309E+02  0.18524415529E+02 -0.51068997538E+03  0.51141284827E+03  0.00000000000E+00 0. -1.
          1    1    1    2  501    0 -0.23537923572E+02 -0.82837863282E+01 -0.73423942560E+01  0.26010876868E+02  0.00000000000E+00 0. -1.
<mgrwt>
<rscale>  1 0.93469772E+02</rscale>
<asrwt>0</asrwt>
<pdfrwt beam="1">  1       21 0.20838223E-02 0.93469772E+02</pdfrwt>
<pdfrwt beam="2">  1        2 0.82369631E-01 0.93469772E+02</pdfrwt>
<totfact> 0.78892372E+05</totfact>
</mgrwt>
</event>
<event>
 6    2  0.7993170E+000  0.8671426E+02  0.7546771E-02  0.1311009E+00
         -3   -1    0    0    0  501 -0.00000000000E+00  0.00000000000E+00  0.10046550834E+02  0.10046550834E+02  0.00000000000E+00 0.  1.
         21   -1    0    0  501  502  0.00000000000E+00 -0.00000000000E+00 -0.34025538718E+03  0.34025538718E+03  0.00000000000E+00 0. -1.
         24    2    1    2    0    0 -0.23677147772E+02 -0.17587719571E+02 -0.22840982382E+03  0.24431621182E+03  0.81544028184E+02 0.  0.
        -13    1    3    3    0    0 -0.22423814523E+02 -0.33863281730E+02 -0.46765906487E+02  0.61940288318E+02  0.00000000000E+00 0.  1.
         14    1    3    3    0    0 -0.12533332485E+01  0.16275562159E+02 -0.18164391734E+03  0.18237592350E+03  0.00000000000E+00 0. -1.
         -4    1    1    2    0  502  0.23677147772E+02  0.17587719571E+02 -0.10179901252E+03  0.10598572619E+03  0.00000000000E+00 0.  1.
<mgrwt>
<rscale>  1 0.86714265E+02</rscale>
<asrwt>0</asrwt>
<pdfrwt beam="1">  1       21 0.52346978E-01 0.86714265E+02</pdfrwt>
<pdfrwt beam="2">  1       -3 0.15456233E-02 0.86714265E+02</pdfrwt>
<totfact> 0.21911666E+05</totfact>
</mgrwt>
</event>
<event>
 6    2  0.7993170E+000  0.8650177E+02  0.7546771E-02  0.1311551E+00
         21   -1    0    0  501  502  0.00000000000E+00  0.00000000000E+00  0.26461126997E+02  0.26461126997E+02  0.00000000000E+00 0. -1.
          2   -1    0    0  502    0 -0.00000000000E+00 -0.00000000000E+00 -0.26350599353E+04  0.26350599353E+04  0.00000000000E+00 0. -1.
         24    2    1    2    0    0  0.33186766760E+02  0.26158715359E+01 -0.26235871508E+04  0.26250127799E+04  0.79839543197E+02 0.  0.
        -11    1    3    3    0    0 -0.22474098774E+00 -0.34259243586E+02 -0.77641310887E+03  0.77716861870E+03  0.00000000000E+00 0.  1.
         12    1    3    3    0    0  0.33411507748E+02  0.36875115122E+02 -0.18471740419E+04  0.18478441612E+04  0.00000000000E+00 0. -1.
          1    1    1    2  501    0 -0.33186766760E+02 -0.26158715359E+01  0.14988342488E+02  0.36508282381E+02  0.00000000000E+00 0. -1.
<mgrwt>
<rscale>  1 0.86501774E+02</rscale>
<asrwt>0</asrwt>
<pdfrwt beam="1">  1       21 0.40709423E-02 0.86501774E+02</pdfrwt>
<pdfrwt beam="2">  1        2 0.40539387E+00 0.86501774E+02</pdfrwt>
<totfact> 0.17842427E+04</totfact>
</mgrwt>
</event>
<event>
 6    2  0.7993170E+000  0.8558982E+02  0.7546771E-02  0.1313897E+00
         -1   -1    0    0    0  501 -0.00000000000E+00  0.00000000000E+00  0.16977892494E+03  0.16977892494E+03  0.00000000000E+00 0.  1.
         21   -1    0    0  501  502  0.00000000000E+00 -0.00000000000E+00 -0.20827687412E+02  0.20827687412E+02  0.00000000000E+00 0. -1.
         24    2    1    2    0    0 -0.19836554407E+02  0.23512551633E+02  0.90551589770E+02  0.12460018969E+03  0.79870444376E+02 0.  0.
        -13    1    3    3    0    0  0.63274806583E+01  0.30018753661E+01  0.91081884917E+02  0.91350741799E+02  0.00000000000E+00 0.  1.
         14    1    3    3    0    0 -0.26164035066E+02  0.20510676267E+02 -0.53029514674E+00  0.33249447887E+02  0.00000000000E+00 0. -1.
         -2    1    1    2    0  502  0.19836554407E+02 -0.23512551633E+02  0.58399647759E+02  0.66006422668E+02  0.00000000000E+00 0.  1.
<mgrwt>
<rscale>  1 0.85589818E+02</rscale>
<asrwt>0</asrwt>
<pdfrwt beam="1">  1       21 0.32042597E-02 0.85589818E+02</pdfrwt>
<pdfrwt beam="2">  1       -1 0.26119834E-01 0.85589818E+02</pdfrwt>
<totfact> 0.61841218E+05</totfact>
</mgrwt>
</event>
<event>
 6    2  0.7993170E+000  0.9548027E+02  0.7546771E-02  0.1290098E+00
          2   -1    0    0  502    0 -0.00000000000E+00  0.00000000000E+00  0.18420750923E+04  0.18420750923E+04  0.00000000000E+00 0. -1.
         21   -1    0    0  501  502  0.00000000000E+00 -0.00000000000E+00 -0.39380564645E+01  0.39380564645E+01  0.00000000000E+00 0.  1.
         24    2    1    2    0    0 -0.34184086545E+02 -0.37467105812E+02  0.66929009185E+03  0.67606634901E+03  0.80895892510E+02 0.  0.
        -13    1    3    3    0    0 -0.16420137858E+02 -0.51373127625E+02  0.23166767612E+03  0.23786284142E+03  0.00000000000E+00 0.  1.
         14    1    3    3    0    0 -0.17763948687E+02  0.13906021813E+02  0.43762241574E+03  0.43820350760E+03  0.00000000000E+00 0. -1.
          1    1    1    2  501    0  0.34184086545E+02  0.37467105812E+02  0.11688469440E+04  0.11699467998E+04  0.00000000000E+00 0. -1.
<mgrwt>
<rscale>  1 0.95480266E+02</rscale>
<asrwt>0</asrwt>
<pdfrwt beam="1">  1       21 0.60585631E-03 0.95480266E+02</pdfrwt>
<pdfrwt beam="2">  1        2 0.28339548E+00 0.95480266E+02</pdfrwt>
<totfact> 0.93817109E+05</totfact>
</mgrwt>
</event>
<event>
 6    2  0.7993170E+000  0.8303187E+02  0.7546771E-02  0.1320661E+00
         -1   -1    0    0    0  501 -0.00000000000E+00  0.00000000000E+00  0.37684712109E+02  0.37684712109E+02  0.00000000000E+00 0.  1.
         21   -1    0    0  501  502  0.00000000000E+00 -0.00000000000E+00 -0.17089675884E+03  0.17089675884E+03  0.00000000000E+00 0.  1.
         24    2    1    2    0    0  0.19490119196E+02 -0.14353931946E+02 -0.10720326866E+02  0.83721062716E+02  0.79425378977E+02 0.  0.
        -11    1    3    3    0    0  0.21992634141E+02 -0.25975315588E+02  0.27460854662E+02  0.43732042202E+02  0.00000000000E+00 0.  1.
         12    1    3    3    0    0 -0.25025149454E+01  0.11621383642E+02 -0.38181181528E+02  0.39989020514E+02  0.00000000000E+00 0. -1.
         -2    1    1    2    0  502 -0.19490119196E+02  0.14353931946E+02 -0.12249171987E+03  0.12486040824E+03  0.00000000000E+00 0.  1.
<mgrwt>
<rscale>  1 0.83031867E+02</rscale>
<asrwt>0</asrwt>
<pdfrwt beam="1">  1       21 0.26291809E-01 0.83031867E+02</pdfrwt>
<pdfrwt beam="2">  1       -1 0.57976481E-02 0.83031867E+02</pdfrwt>
<totfact> 0.16245284E+05</totfact>
</mgrwt>
</event>
<event>
 6    2  0.7993170E+000  0.8382228E+02  0.7546771E-02  0.1318541E+00
          2   -1    0    0  502    0 -0.00000000000E+00  0.00000000000E+00  0.14121056133E+03  0.14121056133E+03  0.00000000000E+00 0. -1.
         21   -1    0    0  501  502  0.00000000000E+00 -0.00000000000E+00 -0.31034893326E+02  0.31034893326E+02  0.00000000000E+00 0. -1.
         24    2    1    2    0    0  0.12958104776E+02  0.25679833993E+02  0.11578290220E+03  0.14294003829E+03  0.78732507583E+02 0.  0.
        -13    1    3    3    0    0 -0.70499020797E+01 -0.21626450220E+02  0.90302634702E+01  0.24473457598E+02  0.00000000000E+00 0.  1.
         14    1    3    3    0    0  0.20008006856E+02  0.47306284213E+02  0.10675263873E+03  0.11846658069E+03  0.00000000000E+00 0. -1.
          1    1    1    2  501    0 -0.12958104776E+02 -0.25679833993E+02 -0.56072341954E+01  0.29305416370E+02  0.00000000000E+00 0. -1.
<mgrwt>
<rscale>  1 0.83822277E+02</rscale>
<asrwt>0</asrwt>
<pdfrwt beam="1">  1       21 0.47745991E-02 0.83822277E+02</pdfrwt>
<pdfrwt beam="2">  1        2 0.21724701E-01 0.83822277E+02</pdfrwt>
<totfact> 0.83411018E+05</totfact>
</mgrwt>
</event>
<event>
 6    2  0.7993170E+000  0.8200249E+02  0.7546771E-02  0.1323463E+00
         21   -1    0    0  501  502  0.00000000000E+00  0.00000000000E+00  0.16826850854E+02  0.16826850854E+02  0.00000000000E+00 0.  1.
          2   -1    0    0  502    0 -0.00000000000E+00 -0.00000000000E+00 -0.26508493492E+03  0.26508493492E+03  0.00000000000E+00 0. -1.
         24    2    1    2    0    0 -0.89125776332E+01  0.40285446864E+02 -0.21078866606E+03  0.22617751845E+03  0.70866471914E+02 0.  0.
        -11    1    3    3    0    0 -0.12465862996E+00  0.60118863402E+02 -0.16147022241E+03  0.17229894371E+03  0.00000000000E+00 0.  1.
         12    1    3    3    0    0 -0.87879190032E+01 -0.19833416539E+02 -0.49318443649E+02  0.53878574739E+02  0.00000000000E+00 0. -1.
          1    1    1    2  501    0  0.89125776332E+01 -0.40285446864E+02 -0.37469418008E+02  0.55734267331E+02  0.00000000000E+00 0. -1.
<mgrwt>
<rscale>  1 0.82002488E+02</rscale>
<asrwt>0</asrwt>
<pdfrwt beam="1">  1       21 0.25887463E-02 0.82002488E+02</pdfrwt>
<pdfrwt beam="2">  1        2 0.40782297E-01 0.82002488E+02</pdfrwt>
<totfact> 0.11533413E+06</totfact>
</mgrwt>
</event>
<event>
 6    2  0.7993170E+000  0.8301508E+02  0.7546771E-02  0.1320706E+00
         21   -1    0    0  501  502  0.00000000000E+00  0.00000000000E+00  0.30167041172E+02  0.30167041172E+02  0.00000000000E+00 0.  1.
         -3   -1    0    0    0  501 -0.00000000000E+00 -0.00000000000E+00 -0.14461358325E+03  0.14461358325E+03  0.00000000000E+00 0.  1.
         24    2    1    2    0    0 -0.16604135904E+02 -0.11790604598E+02 -0.12635812423E+03  0.15118822151E+03  0.80478488290E+02 0.  0.
        -11    1    3    3    0    0  0.23059012396E+02  0.24218952312E+01 -0.97256667376E+02  0.99982213310E+02  0.00000000000E+00 0.  1.
         12    1    3    3    0    0 -0.39663148300E+02 -0.14212499829E+02 -0.29101456855E+02  0.51206008198E+02  0.00000000000E+00 0. -1.
         -4    1    1    2    0  502  0.16604135904E+02  0.11790604598E+02  0.11911582153E+02  0.23592402915E+02  0.00000000000E+00 0.  1.
<mgrwt>
<rscale>  1 0.83015076E+02</rscale>
<asrwt>0</asrwt>
<pdfrwt beam="1">  1       21 0.46410832E-02 0.83015076E+02</pdfrwt>
<pdfrwt beam="2">  1       -3 0.22248244E-01 0.83015076E+02</pdfrwt>
<totfact> 0.24807791E+05</totfact>
</mgrwt>
</event>
<event>
 6    2  0.7993170E+000  0.8962229E+02  0.7546771E-02  0.1303769E+00
         21   -1    0    0  501  502  0.00000000000E+00  0.00000000000E+00  0.28123539122E+02  0.28123539122E+02  0.00000000000E+00 0.  1.
          2   -1    0    0  502    0 -0.00000000000E+00 -0.00000000000E+00 -0.13965335037E+03  0.13965335037E+03  0.00000000000E+00 0. -1.
         24    2    1    2    0    0 -0.26337374119E+02 -0.23582931203E+02 -0.74070454003E+02  0.11626945930E+03  0.82354982185E+02 0.  0.
        -13    1    3    3    0    0 -0.18028923634E+02  0.15397496874E+02  0.80087446925E+01  0.25025286990E+02  0.00000000000E+00 0.  1.
         14    1    3    3    0    0 -0.83084504853E+01 -0.38980428077E+02 -0.82079198695E+02  0.91244172313E+02  0.00000000000E+00 0. -1.
          1    1    1    2  501    0  0.26337374119E+02  0.23582931203E+02 -0.37459357249E+02  0.51507430193E+02  0.00000000000E+00 0. -1.
<mgrwt>
<rscale>  1 0.89622291E+02</rscale>
<asrwt>0</asrwt>
<pdfrwt beam="1">  1       21 0.43266984E-02 0.89622291E+02</pdfrwt>
<pdfrwt beam="2">  1        2 0.21485131E-01 0.89622291E+02</pdfrwt>
<totfact> 0.10012394E+06</totfact>
</mgrwt>
</event>
<event>
 6    2  0.7993170E+000  0.1317890E+03  0.7546771E-02  0.1224825E+00
         21   -1    0    0  501  502  0.00000000000E+00  0.00000000000E+00  0.19474535552E+02  0.19474535552E+02  0.00000000000E+00 0. -1.
          2   -1    0    0  502    0 -0.00000000000E+00 -0.00000000000E+00 -0.71157565547E+03  0.71157565547E+03  0.00000000000E+00 0. -1.
         24    2    1    2    0    0 -0.43637373062E+02 -0.94012406952E+02 -0.38619357497E+03  0.40806105956E+03  0.81399004848E+02 0.  0.
        -13    1    3    3    0    0 -0.39329962681E+02 -0.18511133465E+02 -0.65786205673E+02  0.78850065843E+02  0.00000000000E+00 0.  1.
         14    1    3    3    0    0 -0.43074103808E+01 -0.75501273487E+02 -0.32040736930E+03  0.32921099371E+03  0.00000000000E+00 0. -1.
          1    1    1    2  501    0  0.43637373062E+02  0.94012406952E+02 -0.30590754495E+03  0.32298913146E+03  0.00000000000E+00 0. -1.
<mgrwt>
<rscale>  1 0.13178904E+03</rscale>
<asrwt>0</asrwt>
<pdfrwt beam="1">  1       21 0.29960830E-02 0.13178904E+03</pdfrwt>
<pdfrwt beam="2">  1        2 0.10947316E+00 0.13178904E+03</pdfrwt>
<totfact> 0.32402719E+05</totfact>
</mgrwt>
</event>
<event>
 6    2  0.7993170E+000  0.7515168E+02  0.7546771E-02  0.1343402E+00
         -3   -1    0    0    0  501 -0.00000000000E+00  0.00000000000E+00  0.41926109148E+02  0.41926109148E+02  0.00000000000E+00 0.  1.
         21   -1    0    0  501  502  0.00000000000E+00 -0.00000000000E+00 -0.98824914374E+02  0.98824914374E+02  0.00000000000E+00 0.  1.
         24    2    1    2    0    0 -0.24850954719E+02  0.37107679800E+01  0.36041585286E+01  0.75238060129E+02  0.70826802723E+02 0.  0.
        -13    1    3    3    0    0 -0.38962331032E+02  0.17687137654E+02  0.22046565926E+02  0.48134697952E+02  0.00000000000E+00 0.  1.
         14    1    3    3    0    0  0.14111376313E+02 -0.13976369674E+02 -0.18442407397E+02  0.27103362177E+02  0.00000000000E+00 0. -1.
         -4    1    1    2    0  502  0.24850954719E+02 -0.37107679800E+01 -0.60502963755E+02  0.65512963393E+02  0.00000000000E+00 0.  1.
<mgrwt>
<rscale>  1 0.75151685E+02</rscale>
<asrwt>0</asrwt>
<pdfrwt beam="1">  1       21 0.15203833E-01 0.75151685E+02</pdfrwt>
<pdfrwt beam="2">  1       -3 0.64501707E-02 0.75151685E+02</pdfrwt>
<totfact> 0.25068949E+05</totfact>
</mgrwt>
</event>
<event>
 6    2  0.7993170E+000  0.8290259E+02  0.7546771E-02  0.1321010E+00
          2   -1    0    0  502    0 -0.00000000000E+00  0.00000000000E+00  0.24962587693E+03  0.24962587693E+03  0.00000000000E+00 0. -1.
         21   -1    0    0  501  502  0.00000000000E+00 -0.00000000000E+00 -0.10652864968E+02  0.10652864968E+02  0.00000000000E+00 0.  1.
         24    2    1    2    0    0  0.19896829180E+02  0.27412421643E+01  0.19768818727E+03  0.21436757801E+03  0.80432834675E+02 0.  0.
        -13    1    3    3    0    0  0.30614507352E+02 -0.28756352985E+02  0.63632372092E+02  0.76244702606E+02  0.00000000000E+00 0.  1.
         14    1    3    3    0    0 -0.10717678172E+02  0.31497595149E+02  0.13405581518E+03  0.13812287540E+03  0.00000000000E+00 0. -1.
          1    1    1    2  501    0 -0.19896829180E+02 -0.27412421643E+01  0.41284824687E+02  0.45911163887E+02  0.00000000000E+00 0. -1.
<mgrwt>
<rscale>  1 0.82902588E+02</rscale>
<asrwt>0</asrwt>
<pdfrwt beam="1">  1       21 0.16389025E-02 0.82902588E+02</pdfrwt>
<pdfrwt beam="2">  1        2 0.38403977E-01 0.82902588E+02</pdfrwt>
<totfact> 0.25531507E+06</totfact>
</mgrwt>
</event>
<event>
 6    2  0.7993170E+000  0.9810296E+02  0.7546771E-02  0.1284336E+00
          2   -1    0    0  502    0 -0.00000000000E+00  0.00000000000E+00  0.79852860940E+02  0.79852860940E+02  0.00000000000E+00 0. -1.
         21   -1    0    0  501  502  0.00000000000E+00 -0.00000000000E+00 -0.12804169081E+03  0.12804169081E+03  0.00000000000E+00 0. -1.
         24    2    1    2    0    0  0.73196228258E+01 -0.27924751523E+02  0.46743564158E+02  0.10866991740E+03  0.93759381033E+02 0.  0.
        -11    1    3    3    0    0 -0.14578168373E+01  0.31426195376E+02 -0.17751867095E+01  0.31510034491E+02  0.00000000000E+00 0.  1.
         12    1    3    3    0    0  0.87774396631E+01 -0.59350946899E+02  0.48518750867E+02  0.77159882909E+02  0.00000000000E+00 0. -1.
          1    1    1    2  501    0 -0.73196228258E+01  0.27924751523E+02 -0.94932394023E+02  0.99224634345E+02  0.00000000000E+00 0. -1.
<mgrwt>
<rscale>  1 0.98102957E+02</rscale>
<asrwt>0</asrwt>
<pdfrwt beam="1">  1       21 0.19698722E-01 0.98102957E+02</pdfrwt>
<pdfrwt beam="2">  1        2 0.12285056E-01 0.98102957E+02</pdfrwt>
<totfact> 0.13889580E+05</totfact>
</mgrwt>
</event>
<event>
 6    2  0.7993170E+000  0.8345579E+02  0.7546771E-02  0.1319521E+00
         21   -1    0    0  501  502  0.00000000000E+00  0.00000000000E+00  0.85472747732E+01  0.85472747732E+01  0.00000000000E+00 0.  1.
         -1   -1    0    0    0  501 -0.00000000000E+00 -0.00000000000E+00 -0.39541916692E+03  0.39541916692E+03  0.00000000000E+00 0.  1.
         24    2    1    2    0    0 -0.14621467486E+02 -0.15621753510E+02 -0.36035868173E+03  0.36989626675E+03  0.80666239288E+02 0.  0.
        -11    1    3    3    0    0 -0.11834910909E+02 -0.48749030305E+02 -0.21064822263E+03  0.21653915759E+03  0.00000000000E+00 0.  1.
         12    1    3    3    0    0 -0.27865565762E+01  0.33127276796E+02 -0.14971045911E+03  0.15335710916E+03  0.00000000000E+00 0. -1.
         -2    1    1    2    0  502  0.14621467486E+02  0.15621753510E+02 -0.26513210409E+02  0.34070174939E+02  0.00000000000E+00 0.  1.
<mgrwt>
<rscale>  1 0.83455789E+02</rscale>
<asrwt>0</asrwt>
<pdfrwt beam="1">  1       21 0.13149653E-02 0.83455789E+02</pdfrwt>
<pdfrwt beam="2">  1       -1 0.60833720E-01 0.83455789E+02</pdfrwt>
<totfact> 0.58933678E+05</totfact>
</mgrwt>
</event>
<event>
 6    2  0.7993170E+000  0.8932948E+02  0.7546771E-02  0.1304484E+00
         21   -1    0    0  501  502  0.00000000000E+00  0.00000000000E+00  0.62346952576E+03  0.62346952576E+03  0.00000000000E+00 0. -1.
          4   -1    0    0  502    0 -0.00000000000E+00 -0.00000000000E+00 -0.12198174298E+02  0.12198174298E+02  0.00000000000E+00 0. -1.
         24    2    1    2    0    0  0.18099545790E+02  0.26576570024E+02  0.15996421366E+03  0.18321655323E+03  0.83341754809E+02 0.  0.
        -13    1    3    3    0    0 -0.26295574663E+02 -0.11508013997E+02  0.35184580174E+02  0.45407557906E+02  0.00000000000E+00 0.  1.
         14    1    3    3    0    0  0.44395120454E+02  0.38084584020E+02  0.12477963348E+03  0.13780899532E+03  0.00000000000E+00 0. -1.
          3    1    1    2  501    0 -0.18099545790E+02 -0.26576570024E+02  0.45130713781E+03  0.45245114683E+03  0.00000000000E+00 0. -1.
<mgrwt>
<rscale>  1 0.89329478E+02</rscale>
<asrwt>0</asrwt>
<pdfrwt beam="1">  1       21 0.95918364E-01 0.89329478E+02</pdfrwt>
<pdfrwt beam="2">  1        4 0.18766427E-02 0.89329478E+02</pdfrwt>
<totfact> 0.39944138E+04</totfact>
</mgrwt>
</event>
<event>
 6    2  0.7993170E+000  0.8685543E+02  0.7546771E-02  0.1310650E+00
         -1   -1    0    0    0  501 -0.00000000000E+00  0.00000000000E+00  0.28040656937E+02  0.28040656937E+02  0.00000000000E+00 0.  1.
         21   -1    0    0  501  502  0.00000000000E+00 -0.00000000000E+00 -0.12397403451E+03  0.12397403451E+03  0.00000000000E+00 0. -1.
         24    2    1    2    0    0 -0.29979441273E+02  0.45773347774E+01 -0.63364562327E+02  0.10751248230E+03  0.81388864094E+02 0.  0.
        -11    1    3    3    0    0 -0.46760927520E+02  0.20202719569E+02 -0.13605247667E+02  0.52724159402E+02  0.00000000000E+00 0.  1.
         12    1    3    3    0    0  0.16781486247E+02 -0.15625384792E+02 -0.49759314660E+02  0.54788322898E+02  0.00000000000E+00 0. -1.
         -2    1    1    2    0  502  0.29979441273E+02 -0.45773347774E+01 -0.32568815250E+02  0.44502209153E+02  0.00000000000E+00 0.  1.
<mgrwt>
<rscale>  1 0.86855432E+02</rscale>
<asrwt>0</asrwt>
<pdfrwt beam="1">  1       21 0.19072928E-01 0.86855432E+02</pdfrwt>
<pdfrwt beam="2">  1       -1 0.43139473E-02 0.86855432E+02</pdfrwt>
<totfact> 0.45462254E+05</totfact>
</mgrwt>
</event>
<event>
 6    2  0.7993170E+000  0.8444551E+02  0.7546771E-02  0.1316889E+00
          2   -1    0    0  502    0 -0.00000000000E+00  0.00000000000E+00  0.16875659213E+04  0.16875659213E+04  0.00000000000E+00 0. -1.
         21   -1    0    0  501  502  0.00000000000E+00 -0.00000000000E+00 -0.20024890708E+01  0.20024890708E+01  0.00000000000E+00 0.  1.
         24    2    1    2    0    0 -0.27512860096E+02  0.40798833071E+01  0.14311319757E+04  0.14336212108E+04  0.79733563477E+02 0.  0.
        -13    1    3    3    0    0 -0.20904267314E+02 -0.12063462864E+02  0.12154828829E+03  0.12392135375E+03  0.00000000000E+00 0.  1.
         14    1    3    3    0    0 -0.66085927820E+01  0.16143346171E+02  0.13095836874E+04  0.13096998570E+04  0.00000000000E+00 0. -1.
          1    1    1    2  501    0  0.27512860096E+02 -0.40798833071E+01  0.25443145658E+03  0.25594719966E+03  0.00000000000E+00 0. -1.
<mgrwt>
<rscale>  1 0.84445509E+02</rscale>
<asrwt>0</asrwt>
<pdfrwt beam="1">  1       21 0.30807659E-03 0.84445509E+02</pdfrwt>
<pdfrwt beam="2">  1        2 0.25962439E+00 0.84445509E+02</pdfrwt>
<totfact> 0.31226993E+06</totfact>
</mgrwt>
</event>
<event>
 6    2  0.7993170E+000  0.9032344E+02  0.7546771E-02  0.1302070E+00
         21   -1    0    0  501  502  0.00000000000E+00  0.00000000000E+00  0.15130750157E+02  0.15130750157E+02  0.00000000000E+00 0.  1.
          2   -1    0    0  502    0 -0.00000000000E+00 -0.00000000000E+00 -0.29440876793E+03  0.29440876793E+03  0.00000000000E+00 0. -1.
         24    2    1    2    0    0 -0.15078179921E+02  0.33281381601E+02 -0.23718182420E+03  0.25379822832E+03  0.82603396414E+02 0.  0.
        -13    1    3    3    0    0  0.35920774965E+01 -0.27142412284E+01  0.58639939996E+01  0.73930069535E+01  0.00000000000E+00 0.  1.
         14    1    3    3    0    0 -0.18670257417E+02  0.35995622830E+02 -0.24304581820E+03  0.24640522137E+03  0.00000000000E+00 0. -1.
          1    1    1    2  501    0  0.15078179921E+02 -0.33281381601E+02 -0.42096193577E+02  0.55741289765E+02  0.00000000000E+00 0. -1.
<mgrwt>
<rscale>  1 0.90323435E+02</rscale>
<asrwt>0</asrwt>
<pdfrwt beam="1">  1       21 0.23278076E-02 0.90323435E+02</pdfrwt>
<pdfrwt beam="2">  1        2 0.45293658E-01 0.90323435E+02</pdfrwt>
<totfact> 0.12398887E+06</totfact>
</mgrwt>
</event>
<event>
 6    2  0.7993170E+000  0.1224891E+03  0.7546771E-02  0.1239046E+00
         21   -1    0    0  501  502  0.00000000000E+00  0.00000000000E+00  0.37295499415E+02  0.37295499415E+02  0.00000000000E+00 0. -1.
          2   -1    0    0  502    0 -0.00000000000E+00 -0.00000000000E+00 -0.31015490650E+03  0.31015490650E+03  0.00000000000E+00 0. -1.
         24    2    1    2    0    0 -0.25402960320E+02 -0.87884871136E+02 -0.13837957996E+03  0.18480390312E+03  0.81452522928E+02 0.  0.
        -11    1    3    3    0    0  0.10138540756E+02  0.38407618339E+01  0.41624105401E+01  0.11613230456E+02  0.00000000000E+00 0.  1.
         12    1    3    3    0    0 -0.35541501075E+02 -0.91725632970E+02 -0.14254199050E+03  0.17319067267E+03  0.00000000000E+00 0. -1.
          1    1    1    2  501    0  0.25402960320E+02  0.87884871136E+02 -0.13447982712E+03  0.16264650279E+03  0.00000000000E+00 0. -1.
<mgrwt>
<rscale>  1 0.12248908E+03</rscale>
<asrwt>0</asrwt>
<pdfrwt beam="1">  1       21 0.57377690E-02 0.12248908E+03</pdfrwt>
<pdfrwt beam="2">  1        2 0.47716140E-01 0.12248908E+03</pdfrwt>
<totfact> 0.27239601E+05</totfact>
</mgrwt>
</event>
<event>
 6    2  0.7993170E+000  0.8474078E+02  0.7546771E-02  0.1316112E+00
         -1   -1    0    0    0  501 -0.00000000000E+00  0.00000000000E+00  0.22558737768E+03  0.22558737768E+03  0.00000000000E+00 0.  1.
         21   -1    0    0  501  502  0.00000000000E+00 -0.00000000000E+00 -0.28558405264E+02  0.28558405264E+02  0.00000000000E+00 0.  1.
         24    2    1    2    0    0 -0.28028078812E+02  0.25079631526E+01  0.20748746267E+03  0.22412507177E+03  0.79932080857E+02 0.  0.
        -13    1    3    3    0    0 -0.45055963938E+02  0.15106671374E+02  0.19223887974E+03  0.19802534760E+03  0.00000000000E+00 0.  1.
         14    1    3    3    0    0  0.17027885125E+02 -0.12598708222E+02  0.15248582930E+02  0.26099724176E+02  0.00000000000E+00 0. -1.
         -2    1    1    2    0  502  0.28028078812E+02 -0.25079631526E+01 -0.10458490252E+02  0.30020711175E+02  0.00000000000E+00 0.  1.
<mgrwt>
<rscale>  1 0.84740785E+02</rscale>
<asrwt>0</asrwt>
<pdfrwt beam="1">  1       21 0.43936010E-02 0.84740785E+02</pdfrwt>
<pdfrwt beam="2">  1       -1 0.34705749E-01 0.84740785E+02</pdfrwt>
<totfact> 0.22971351E+05</totfact>
</mgrwt>
</event>
<event>
 6    2  0.7993170E+000  0.9571741E+02  0.7546771E-02  0.1289568E+00
         21   -1    0    0  501  502  0.00000000000E+00  0.00000000000E+00  0.12180258138E+02  0.12180258138E+02  0.00000000000E+00 0. -1.
          2   -1    0    0  502    0 -0.00000000000E+00 -0.00000000000E+00 -0.45841900597E+03  0.45841900597E+03  0.00000000000E+00 0. -1.
         24    2    1    2    0    0 -0.73417001907E+01  0.53052667483E+02 -0.29682094334E+03  0.31187256066E+03  0.79330546435E+02 0.  0.
        -11    1    3    3    0    0  0.63659011536E+01  0.60490133661E+00  0.30898166100E+01  0.71019412704E+01  0.00000000000E+00 0.  1.
         12    1    3    3    0    0 -0.13707601344E+02  0.52447766147E+02 -0.29991075995E+03  0.30477061939E+03  0.00000000000E+00 0. -1.
          1    1    1    2  501    0  0.73417001907E+01 -0.53052667483E+02 -0.14941780449E+03  0.15872670345E+03  0.00000000000E+00 0. -1.
<mgrwt>
<rscale>  1 0.95717405E+02</rscale>
<asrwt>0</asrwt>
<pdfrwt beam="1">  1       21 0.18738859E-02 0.95717405E+02</pdfrwt>
<pdfrwt beam="2">  1        2 0.70526001E-01 0.95717405E+02</pdfrwt>
<totfact> 0.11084061E+06</totfact>
</mgrwt>
</event>
<event>
 6    2  0.7993170E+000  0.8288985E+02  0.7546771E-02  0.1321045E+00
          2   -1    0    0  502    0 -0.00000000000E+00  0.00000000000E+00  0.12282145269E+04  0.12282145269E+04  0.00000000000E+00 0. -1.
         21   -1    0    0  501  502  0.00000000000E+00 -0.00000000000E+00 -0.44394779900E+01  0.44394779900E+01  0.00000000000E+00 0. -1.
         24    2    1    2    0    0  0.10716761841E+02 -0.18364433731E+02  0.11890544749E+04  0.11919401292E+04  0.80116328102E+02 0.  0.
        -11    1    3    3    0    0 -0.15164016552E+02 -0.36392861454E+02  0.33639525126E+03  0.33869773078E+03  0.00000000000E+00 0.  1.
         12    1    3    3    0    0  0.25880778393E+02  0.18028427723E+02  0.85265922363E+03  0.85324239847E+03  0.00000000000E+00 0. -1.
          1    1    1    2  501    0 -0.10716761841E+02  0.18364433731E+02  0.34720574064E+02  0.40713875693E+02  0.00000000000E+00 0. -1.
<mgrwt>
<rscale>  1 0.82889851E+02</rscale>
<asrwt>0</asrwt>
<pdfrwt beam="1">  1       21 0.68299759E-03 0.82889851E+02</pdfrwt>
<pdfrwt beam="2">  1        2 0.18895581E+00 0.82889851E+02</pdfrwt>
<totfact> 0.15928308E+06</totfact>
</mgrwt>
</event>
<event>
 6    2  0.7993170E+000  0.8617523E+02  0.7546771E-02  0.1312387E+00
          2   -1    0    0  502    0 -0.00000000000E+00  0.00000000000E+00  0.47149093662E+03  0.47149093662E+03  0.00000000000E+00 0. -1.
         21   -1    0    0  501  502  0.00000000000E+00 -0.00000000000E+00 -0.76938162697E+01  0.76938162697E+01  0.00000000000E+00 0.  1.
         24    2    1    2    0    0 -0.81618123021E+01  0.23841261141E+02  0.41915037228E+03  0.42791728731E+03  0.82408429729E+02 0.  0.
        -13    1    3    3    0    0 -0.28993540043E+02  0.31364714360E+02  0.11041596593E+03  0.11838942606E+03  0.00000000000E+00 0.  1.
         14    1    3    3    0    0  0.20831727741E+02 -0.75234532188E+01  0.30873440635E+03  0.30952786126E+03  0.00000000000E+00 0. -1.
          1    1    1    2  501    0  0.81618123021E+01 -0.23841261141E+02  0.44646748070E+02  0.51267465571E+02  0.00000000000E+00 0. -1.
<mgrwt>
<rscale>  1 0.86175230E+02</rscale>
<asrwt>0</asrwt>
<pdfrwt beam="1">  1       21 0.11836644E-02 0.86175230E+02</pdfrwt>
<pdfrwt beam="2">  1        2 0.72537044E-01 0.86175230E+02</pdfrwt>
<totfact> 0.22011970E+06</totfact>
</mgrwt>
</event>
<event>
 6    2  0.7993170E+000  0.8363966E+02  0.7546771E-02  0.1319029E+00
          2   -1    0    0  502    0 -0.00000000000E+00  0.00000000000E+00  0.13581605156E+03  0.13581605156E+03  0.00000000000E+00 0. -1.
         21   -1    0    0  501  502  0.00000000000E+00 -0.00000000000E+00 -0.21665523830E+02  0.21665523830E+02  0.00000000000E+00 0.  1.
         24    2    1    2    0    0  0.25148929832E+01  0.23242119290E+02  0.99099646501E+02  0.12967780188E+03  0.80306111646E+02 0.  0.
        -11    1    3    3    0    0 -0.17881180940E+02 -0.15053633713E+02  0.21631333891E+01  0.23473978483E+02  0.00000000000E+00 0.  1.
         12    1    3    3    0    0  0.20396073923E+02  0.38295753003E+02  0.96936513112E+02  0.10620382340E+03  0.00000000000E+00 0. -1.
          1    1    1    2  501    0 -0.25148929832E+01 -0.23242119290E+02  0.15050881233E+02  0.27803773516E+02  0.00000000000E+00 0. -1.
<mgrwt>
<rscale>  1 0.83639658E+02</rscale>
<asrwt>0</asrwt>
<pdfrwt beam="1">  1       21 0.33331576E-02 0.83639658E+02</pdfrwt>
<pdfrwt beam="2">  1        2 0.20894777E-01 0.83639658E+02</pdfrwt>
<totfact> 0.15712998E+06</totfact>
</mgrwt>
</event>
<event>
 6    2  0.7993170E+000  0.8487703E+02  0.7546771E-02  0.1315754E+00
         -1   -1    0    0    0  501 -0.00000000000E+00  0.00000000000E+00  0.21653410774E+04  0.21653410774E+04  0.00000000000E+00 0.  1.
         21   -1    0    0  501  502  0.00000000000E+00 -0.00000000000E+00 -0.24262685877E+01  0.24262685877E+01  0.00000000000E+00 0. -1.
         24    2    1    2    0    0 -0.18976899917E+02 -0.18972528382E+02  0.20481166581E+04  0.20498746195E+04  0.80523479202E+02 0.  0.
        -13    1    3    3    0    0  0.95148987212E+01  0.27825704161E+02  0.59669743017E+03  0.59742164866E+03  0.00000000000E+00 0.  1.
         14    1    3    3    0    0 -0.28491798638E+02 -0.46798232543E+02  0.14514192280E+04  0.14524529708E+04  0.00000000000E+00 0. -1.
         -2    1    1    2    0  502  0.18976899917E+02  0.18972528382E+02  0.11479815062E+03  0.11789272645E+03  0.00000000000E+00 0.  1.
<mgrwt>
<rscale>  1 0.84877030E+02</rscale>
<asrwt>0</asrwt>
<pdfrwt beam="1">  1       21 0.37327382E-03 0.84877030E+02</pdfrwt>
<pdfrwt beam="2">  1       -1 0.33312785E+00 0.84877030E+02</pdfrwt>
<totfact> 0.40155519E+04</totfact>
</mgrwt>
</event>
<event>
 6    2  0.7993170E+000  0.9780438E+02  0.7546771E-02  0.1284982E+00
         21   -1    0    0  501  502  0.00000000000E+00  0.00000000000E+00  0.12034241284E+03  0.12034241284E+03  0.00000000000E+00 0.  1.
          4   -1    0    0  502    0 -0.00000000000E+00 -0.00000000000E+00 -0.39579294471E+02  0.39579294471E+02  0.00000000000E+00 0. -1.
         24    2    1    2    0    0  0.96959312915E+01  0.39034838250E+02  0.57818980341E+02  0.11361659797E+03  0.89151372207E+02 0.  0.
        -11    1    3    3    0    0  0.23914890295E+01  0.66869542269E+02  0.29117998862E+02  0.72973370216E+02  0.00000000000E+00 0.  1.
         12    1    3    3    0    0  0.73044422620E+01 -0.27834704019E+02  0.28700981479E+02  0.40643227757E+02  0.00000000000E+00 0. -1.
          3    1    1    2  501    0 -0.96959312915E+01 -0.39034838250E+02  0.22944138026E+02  0.46305109335E+02  0.00000000000E+00 0. -1.
<mgrwt>
<rscale>  1 0.97804381E+02</rscale>
<asrwt>0</asrwt>
<pdfrwt beam="1">  1       21 0.18514217E-01 0.97804381E+02</pdfrwt>
<pdfrwt beam="2">  1        4 0.60891223E-02 0.97804381E+02</pdfrwt>
<totfact> 0.17644865E+05</totfact>
</mgrwt>
</event>
<event>
 6    2  0.7993170E+000  0.8347081E+02  0.7546771E-02  0.1319481E+00
         21   -1    0    0  501  502  0.00000000000E+00  0.00000000000E+00  0.22723241798E+03  0.22723241798E+03  0.00000000000E+00 0. -1.
         -1   -1    0    0    0  501 -0.00000000000E+00 -0.00000000000E+00 -0.16283394800E+02  0.16283394800E+02  0.00000000000E+00 0.  1.
         24    2    1    2    0    0 -0.23441734871E+02  0.73250848075E+01  0.10183936383E+03  0.13167624212E+03  0.79775967015E+02 0.  0.
        -11    1    3    3    0    0 -0.32876550433E+01 -0.29957491397E+02  0.12181501096E+02  0.32506136889E+02  0.00000000000E+00 0.  1.
         12    1    3    3    0    0 -0.20154079828E+02  0.37282576205E+02  0.89657862732E+02  0.99170105232E+02  0.00000000000E+00 0. -1.
         -2    1    1    2    0  502  0.23441734871E+02 -0.73250848075E+01  0.10910965935E+03  0.11183957066E+03  0.00000000000E+00 0.  1.
<mgrwt>
<rscale>  1 0.83470814E+02</rscale>
<asrwt>0</asrwt>
<pdfrwt beam="1">  1       21 0.34958831E-01 0.83470814E+02</pdfrwt>
<pdfrwt beam="2">  1       -1 0.25051378E-02 0.83470814E+02</pdfrwt>
<totfact> 0.31792478E+05</totfact>
</mgrwt>
</event>
<event>
 6    2  0.7993170E+000  0.8313875E+02  0.7546771E-02  0.1320373E+00
          2   -1    0    0  502    0 -0.00000000000E+00  0.00000000000E+00  0.70302070667E+02  0.70302070667E+02  0.00000000000E+00 0. -1.
         21   -1    0    0  501  502  0.00000000000E+00 -0.00000000000E+00 -0.44776434247E+02  0.44776434247E+02  0.00000000000E+00 0.  1.
         24    2    1    2    0    0  0.12543851984E+02  0.15984687070E+02  0.37812327367E+02  0.91333585084E+02  0.80617573891E+02 0.  0.
        -13    1    3    3    0    0  0.42686432042E+02  0.11951658347E+01  0.27554656243E+01  0.42791967618E+02  0.00000000000E+00 0.  1.
         14    1    3    3    0    0 -0.30142580058E+02  0.14789521235E+02  0.35056861743E+02  0.48541617466E+02  0.00000000000E+00 0. -1.
          1    1    1    2  501    0 -0.12543851984E+02 -0.15984687070E+02 -0.12286690947E+02  0.23744919830E+02  0.00000000000E+00 0. -1.
<mgrwt>
<rscale>  1 0.83138749E+02</rscale>
<asrwt>0</asrwt>
<pdfrwt beam="1">  1       21 0.68886822E-02 0.83138749E+02</pdfrwt>
<pdfrwt beam="2">  1        2 0.10815703E-01 0.83138749E+02</pdfrwt>
<totfact> 0.10068248E+06</totfact>
</mgrwt>
</event>
<event>
 6    2  0.7993170E+000  0.8576329E+02  0.7546771E-02  0.1313448E+00
         21   -1    0    0  501  502  0.00000000000E+00  0.00000000000E+00  0.35052802196E+01  0.35052802196E+01  0.00000000000E+00 0. -1.
          2   -1    0    0  502    0 -0.00000000000E+00 -0.00000000000E+00 -0.11612353713E+04  0.11612353713E+04  0.00000000000E+00 0. -1.
         24    2    1    2    0    0  0.28274713982E+02 -0.10920973792E+02 -0.10255499429E+04  0.10291297423E+04  0.80228511383E+02 0.  0.
        -11    1    3    3    0    0 -0.24600704676E+02  0.10827411457E+02 -0.43095615755E+03  0.43179351227E+03  0.00000000000E+00 0.  1.
         12    1    3    3    0    0  0.52875418658E+02 -0.21748385249E+02 -0.59459378536E+03  0.59733623007E+03  0.00000000000E+00 0. -1.
          1    1    1    2  501    0 -0.28274713982E+02  0.10920973792E+02 -0.13218014818E+03  0.13561090919E+03  0.00000000000E+00 0. -1.
<mgrwt>
<rscale>  1 0.85763286E+02</rscale>
<asrwt>0</asrwt>
<pdfrwt beam="1">  1       21 0.53927331E-03 0.85763286E+02</pdfrwt>
<pdfrwt beam="2">  1        2 0.17865178E+00 0.85763286E+02</pdfrwt>
<totfact> 0.24981807E+06</totfact>
</mgrwt>
</event>
<event>
 6    2  0.7993170E+000  0.8263560E+02  0.7546771E-02  0.1321734E+00
         21   -1    0    0  501  502  0.00000000000E+00  0.00000000000E+00  0.92737763308E+01  0.92737763308E+01  0.00000000000E+00 0. -1.
         -1   -1    0    0    0  501 -0.00000000000E+00 -0.00000000000E+00 -0.45292538852E+03  0.45292538852E+03  0.00000000000E+00 0.  1.
         24    2    1    2    0    0  0.40150501492E+01 -0.27451187307E+02 -0.19206570378E+03  0.20908820574E+03  0.77839288913E+02 0.  0.
        -13    1    3    3    0    0  0.48036874790E+01 -0.48738990444E+01 -0.18541120090E+03  0.18553744561E+03  0.00000000000E+00 0.  1.
         14    1    3    3    0    0 -0.78863732981E+00 -0.22577288263E+02 -0.66545028855E+01  0.23550760132E+02  0.00000000000E+00 0. -1.
         -2    1    1    2    0  502 -0.40150501492E+01  0.27451187307E+02 -0.25158590841E+03  0.25311095911E+03  0.00000000000E+00 0.  1.
<mgrwt>
<rscale>  1 0.82635605E+02</rscale>
<asrwt>0</asrwt>
<pdfrwt beam="1">  1       21 0.14267354E-02 0.82635605E+02</pdfrwt>
<pdfrwt beam="2">  1       -1 0.69680802E-01 0.82635605E+02</pdfrwt>
<totfact> 0.39929487E+05</totfact>
</mgrwt>
</event>
<event>
 6    2  0.7993170E+000  0.1339589E+03  0.7546771E-02  0.1221697E+00
         21   -1    0    0  501  502  0.00000000000E+00  0.00000000000E+00  0.58214956371E+01  0.58214956371E+01  0.00000000000E+00 0. -1.
          2   -1    0    0  502    0 -0.00000000000E+00 -0.00000000000E+00 -0.25103750830E+04  0.25103750830E+04  0.00000000000E+00 0. -1.
         24    2    1    2    0    0  0.99167803428E+02  0.39973385047E+02 -0.14994443925E+04  0.15054163759E+04  0.80702253550E+02 0.  0.
        -11    1    3    3    0    0  0.13452953223E+02  0.45465031052E+02 -0.60662477555E+03  0.60847487155E+03  0.00000000000E+00 0.  1.
         12    1    3    3    0    0  0.85714850205E+02 -0.54916460046E+01 -0.89281961697E+03  0.89694150432E+03  0.00000000000E+00 0. -1.
          1    1    1    2  501    0 -0.99167803428E+02 -0.39973385047E+02 -0.10051091949E+04  0.10107802028E+04  0.00000000000E+00 0. -1.
<mgrwt>
<rscale>  1 0.13395887E+03</rscale>
<asrwt>0</asrwt>
<pdfrwt beam="1">  1       21 0.89561570E-03 0.13395887E+03</pdfrwt>
<pdfrwt beam="2">  1        2 0.38621113E+00 0.13395887E+03</pdfrwt>
<totfact> 0.23273297E+05</totfact>
</mgrwt>
</event>
<event>
 6    2  0.7993170E+000  0.8720490E+02  0.7546771E-02  0.1309765E+00
          2   -1    0    0  502    0 -0.00000000000E+00  0.00000000000E+00  0.93888018050E+03  0.93888018050E+03  0.00000000000E+00 0. -1.
         21   -1    0    0  501  502  0.00000000000E+00 -0.00000000000E+00 -0.41743176805E+01  0.41743176805E+01  0.00000000000E+00 0.  1.
         24    2    1    2    0    0  0.11129888268E+02 -0.34986480541E+02  0.59215355333E+03  0.59854032870E+03  0.79099722694E+02 0.  0.
        -11    1    3    3    0    0  0.74791321490E+01 -0.43907900815E+02  0.15479477525E+03  0.16107533522E+03  0.00000000000E+00 0.  1.
         12    1    3    3    0    0  0.36507561186E+01  0.89214202748E+01  0.43735877807E+03  0.43746499348E+03  0.00000000000E+00 0. -1.
          1    1    1    2  501    0 -0.11129888268E+02  0.34986480541E+02  0.34255230949E+03  0.34451416948E+03  0.00000000000E+00 0. -1.
<mgrwt>
<rscale>  1 0.87204899E+02</rscale>
<asrwt>0</asrwt>
<pdfrwt beam="1">  1       21 0.64220347E-03 0.87204899E+02</pdfrwt>
<pdfrwt beam="2">  1        2 0.14444294E+00 0.87204899E+02</pdfrwt>
<totfact> 0.25653825E+06</totfact>
</mgrwt>
</event>
<event>
 6    2  0.7993170E+000  0.8917680E+02  0.7546771E-02  0.1304858E+00
          2   -1    0    0  502    0 -0.00000000000E+00  0.00000000000E+00  0.32334973502E+02  0.32334973502E+02  0.00000000000E+00 0. -1.
         21   -1    0    0  501  502  0.00000000000E+00 -0.00000000000E+00 -0.12096694104E+03  0.12096694104E+03  0.00000000000E+00 0.  1.
         24    2    1    2    0    0  0.30446435585E+02  0.31989211863E+01 -0.44692795840E+02  0.99749423041E+02  0.83757285418E+02 0.  0.
        -13    1    3    3    0    0  0.26918097140E+02  0.31310193438E+02 -0.55716356590E+02  0.69348572865E+02  0.00000000000E+00 0.  1.
         14    1    3    3    0    0  0.35283384451E+01 -0.28111272252E+02  0.11023560750E+02  0.30400850176E+02  0.00000000000E+00 0. -1.
          1    1    1    2  501    0 -0.30446435585E+02 -0.31989211863E+01 -0.43939171702E+02  0.53552491505E+02  0.00000000000E+00 0. -1.
<mgrwt>
<rscale>  1 0.89176799E+02</rscale>
<asrwt>0</asrwt>
<pdfrwt beam="1">  1       21 0.18610299E-01 0.89176799E+02</pdfrwt>
<pdfrwt beam="2">  1        2 0.49746112E-02 0.89176799E+02</pdfrwt>
<totfact> 0.47017537E+05</totfact>
</mgrwt>
</event>
<event>
 6    2  0.7993170E+000  0.1083287E+03  0.7546771E-02  0.1263696E+00
         21   -1    0    0  501  502  0.00000000000E+00  0.00000000000E+00  0.18689036618E+03  0.18689036618E+03  0.00000000000E+00 0.  1.
         -1   -1    0    0    0  501 -0.00000000000E+00 -0.00000000000E+00 -0.41584754068E+02  0.41584754068E+02  0.00000000000E+00 0.  1.
         24    2    1    2    0    0 -0.31113886553E+02  0.18813193793E+02  0.37391515754E+02  0.11460035399E+03  0.10204462498E+03 0.  0.
        -13    1    3    3    0    0 -0.59829336090E+02 -0.15537886225E+02  0.31697375521E+02  0.69467251135E+02  0.00000000000E+00 0.  1.
         14    1    3    3    0    0  0.28715449537E+02  0.34351080018E+02  0.56941402328E+01  0.45133102857E+02  0.00000000000E+00 0. -1.
         -2    1    1    2    0  502  0.31113886553E+02 -0.18813193793E+02  0.10791409635E+03  0.11387476625E+03  0.00000000000E+00 0.  1.
<mgrwt>
<rscale>  1 0.10832874E+03</rscale>
<asrwt>0</asrwt>
<pdfrwt beam="1">  1       21 0.28752364E-01 0.10832874E+03</pdfrwt>
<pdfrwt beam="2">  1       -1 0.63976546E-02 0.10832874E+03</pdfrwt>
<totfact> 0.12082572E+05</totfact>
</mgrwt>
</event>
<event>
 6    2  0.7993170E+000  0.9202185E+02  0.7546771E-02  0.1298028E+00
          2   -1    0    0  502    0 -0.00000000000E+00  0.00000000000E+00  0.86582068083E+03  0.86582068083E+03  0.00000000000E+00 0. -1.
         21   -1    0    0  501  502  0.00000000000E+00 -0.00000000000E+00 -0.66812975003E+01  0.66812975003E+01  0.00000000000E+00 0.  1.
         24    2    1    2    0    0 -0.20120102404E+02  0.41321782538E+02  0.72257953393E+03  0.72841554350E+03  0.79722725310E+02 0.  0.
        -11    1    3    3    0    0 -0.16633757213E+02  0.30942407712E+02  0.10465028253E+03  0.11038929345E+03  0.00000000000E+00 0.  1.
         12    1    3    3    0    0 -0.34863451909E+01  0.10379374827E+02  0.61792925140E+03  0.61802625006E+03  0.00000000000E+00 0. -1.
          1    1    1    2  501    0  0.20120102404E+02 -0.41321782538E+02  0.13655984940E+03  0.14408643482E+03  0.00000000000E+00 0. -1.
<mgrwt>
<rscale>  1 0.92021852E+02</rscale>
<asrwt>0</asrwt>
<pdfrwt beam="1">  1       21 0.10278926E-02 0.92021852E+02</pdfrwt>
<pdfrwt beam="2">  1        2 0.13320309E+00 0.92021852E+02</pdfrwt>
<totfact> 0.13783087E+06</totfact>
</mgrwt>
</event>
<event>
 6    2  0.7993170E+000  0.1006557E+03  0.7546771E-02  0.1278923E+00
          2   -1    0    0  502    0 -0.00000000000E+00  0.00000000000E+00  0.11730271450E+03  0.11730271450E+03  0.00000000000E+00 0. -1.
         21   -1    0    0  501  502  0.00000000000E+00 -0.00000000000E+00 -0.14947451216E+03  0.14947451216E+03  0.00000000000E+00 0. -1.
         24    2    1    2    0    0 -0.21914047594E+02  0.58327749519E+02  0.86516469168E+02  0.13272777113E+03  0.79051944611E+02 0.  0.
        -11    1    3    3    0    0 -0.42860181960E+02  0.73013441112E+01  0.25200616917E+02  0.50253118476E+02  0.00000000000E+00 0.  1.
         12    1    3    3    0    0  0.20946134367E+02  0.51026405407E+02  0.61315852251E+02  0.82474652658E+02  0.00000000000E+00 0. -1.
          1    1    1    2  501    0  0.21914047594E+02 -0.58327749519E+02 -0.11868826683E+03  0.13404945553E+03  0.00000000000E+00 0. -1.
<mgrwt>
<rscale>  1 0.10065566E+03</rscale>
<asrwt>0</asrwt>
<pdfrwt beam="1">  1       21 0.22996079E-01 0.10065566E+03</pdfrwt>
<pdfrwt beam="2">  1        2 0.18046572E-01 0.10065566E+03</pdfrwt>
<totfact> 0.66861489E+04</totfact>
</mgrwt>
</event>
<event>
 6    2  0.7993170E+000  0.8852145E+02  0.7546771E-02  0.1306472E+00
          2   -1    0    0  502    0 -0.00000000000E+00  0.00000000000E+00  0.14337030951E+04  0.14337030951E+04  0.00000000000E+00 0. -1.
         21   -1    0    0  501  502  0.00000000000E+00 -0.00000000000E+00 -0.31547457275E+01  0.31547457275E+01  0.00000000000E+00 0.  1.
         24    2    1    2    0    0  0.12252370593E+02 -0.39044595115E+02  0.77625482742E+03  0.78128586624E+03  0.78494883299E+02 0.  0.
        -13    1    3    3    0    0  0.11270001663E+02 -0.37797405722E+02  0.15215349437E+03  0.15718251387E+03  0.00000000000E+00 0.  1.
         14    1    3    3    0    0  0.98236892960E+00 -0.12471893926E+01  0.62410133305E+03  0.62410335237E+03  0.00000000000E+00 0. -1.
          1    1    1    2  501    0 -0.12252370593E+02  0.39044595115E+02  0.65429352199E+03  0.65557197462E+03  0.00000000000E+00 0. -1.
<mgrwt>
<rscale>  1 0.88521453E+02</rscale>
<asrwt>0</asrwt>
<pdfrwt beam="1">  1       21 0.48534664E-03 0.88521453E+02</pdfrwt>
<pdfrwt beam="2">  1        2 0.22056919E+00 0.88521453E+02</pdfrwt>
<totfact> 0.21123728E+06</totfact>
</mgrwt>
</event>
<event>
 6    2  0.7993170E+000  0.8431706E+02  0.7546771E-02  0.1317228E+00
          4   -1    0    0  502    0 -0.00000000000E+00  0.00000000000E+00  0.68734564026E+02  0.68734564026E+02  0.00000000000E+00 0. -1.
         21   -1    0    0  501  502  0.00000000000E+00 -0.00000000000E+00 -0.47958790366E+02  0.47958790366E+02  0.00000000000E+00 0.  1.
         24    2    1    2    0    0 -0.93458212414E+01  0.26133010333E+02  0.26443970102E+02  0.88366563986E+02  0.79618386521E+02 0.  0.
        -11    1    3    3    0    0 -0.21024696607E+02  0.35274041268E+02 -0.15488696454E+02  0.43888444637E+02  0.00000000000E+00 0.  1.
         12    1    3    3    0    0  0.11678875365E+02 -0.91410309351E+01  0.41932666557E+02  0.44478119350E+02  0.00000000000E+00 0. -1.
          3    1    1    2  501    0  0.93458212414E+01 -0.26133010333E+02 -0.56681964420E+01  0.28326790405E+02  0.00000000000E+00 0. -1.
<mgrwt>
<rscale>  1 0.84317057E+02</rscale>
<asrwt>0</asrwt>
<pdfrwt beam="1">  1       21 0.73782754E-02 0.84317057E+02</pdfrwt>
<pdfrwt beam="2">  1        4 0.10574548E-01 0.84317057E+02</pdfrwt>
<totfact> 0.34811277E+05</totfact>
</mgrwt>
</event>
<event>
 6    2  0.7993170E+000  0.7107682E+02  0.7546771E-02  0.1356469E+00
         21   -1    0    0  501  502  0.00000000000E+00  0.00000000000E+00  0.33988875355E+01  0.33988875355E+01  0.00000000000E+00 0.  1.
          2   -1    0    0  502    0 -0.00000000000E+00 -0.00000000000E+00 -0.10499981932E+04  0.10499981932E+04  0.00000000000E+00 0. -1.
         24    2    1    2    0    0 -0.21911463768E+02  0.25049175967E+02 -0.91119252132E+03  0.91396046177E+03  0.62803991236E+02 0.  0.
        -11    1    3    3    0    0 -0.17167650815E+02  0.44717409062E+02 -0.50568203877E+03  0.50794556720E+03  0.00000000000E+00 0.  1.
         12    1    3    3    0    0 -0.47438129523E+01 -0.19668233096E+02 -0.40551048255E+03  0.40601489457E+03  0.00000000000E+00 0. -1.
          1    1    1    2  501    0  0.21911463768E+02 -0.25049175967E+02 -0.13540678436E+03  0.13943661897E+03  0.00000000000E+00 0. -1.
<mgrwt>
<rscale>  1 0.71076823E+02</rscale>
<asrwt>0</asrwt>
<pdfrwt beam="1">  1       21 0.52290582E-03 0.71076823E+02</pdfrwt>
<pdfrwt beam="2">  1        2 0.16153817E+00 0.71076823E+02</pdfrwt>
<totfact> 0.29606230E+06</totfact>
</mgrwt>
</event>
<event>
 6    2  0.7993170E+000  0.8493389E+02  0.7546771E-02  0.1315606E+00
         -1   -1    0    0    0  501 -0.00000000000E+00  0.00000000000E+00  0.83679654728E+02  0.83679654728E+02  0.00000000000E+00 0.  1.
         21   -1    0    0  501  502  0.00000000000E+00 -0.00000000000E+00 -0.34934017252E+02  0.34934017252E+02  0.00000000000E+00 0. -1.
         24    2    1    2    0    0 -0.19504969691E+02  0.12217897762E+02  0.41147262626E+02  0.94376176880E+02  0.81756006951E+02 0.  0.
        -13    1    3    3    0    0 -0.24104785127E+02 -0.22831708982E+02  0.48004132934E+02  0.58367151548E+02  0.00000000000E+00 0.  1.
         14    1    3    3    0    0  0.45998154355E+01  0.35049606744E+02 -0.68568703081E+01  0.36009025332E+02  0.00000000000E+00 0. -1.
         -2    1    1    2    0  502  0.19504969691E+02 -0.12217897762E+02  0.75983748500E+01  0.24237495101E+02  0.00000000000E+00 0.  1.
<mgrwt>
<rscale>  1 0.84933889E+02</rscale>
<asrwt>0</asrwt>
<pdfrwt beam="1">  1       21 0.53744642E-02 0.84933889E+02</pdfrwt>
<pdfrwt beam="2">  1       -1 0.12873793E-01 0.84933889E+02</pdfrwt>
<totfact> 0.80361953E+05</totfact>
</mgrwt>
</event>
<event>
 6    2  0.7993170E+000  0.8183909E+02  0.7546771E-02  0.1323912E+00
         21   -1    0    0  501  502  0.00000000000E+00  0.00000000000E+00  0.11269297659E+03  0.11269297659E+03  0.00000000000E+00 0.  1.
         -1   -1    0    0    0  501 -0.00000000000E+00 -0.00000000000E+00 -0.10462552358E+03  0.10462552358E+03  0.00000000000E+00 0.  1.
         24    2    1    2    0    0  0.14598202411E+02  0.15485741511E+02 -0.87266926471E+02  0.11963759305E+03  0.79023550366E+02 0.  0.
        -13    1    3    3    0    0  0.19893324274E+02  0.36541317886E+02 -0.88603185236E+02  0.97885324219E+02  0.00000000000E+00 0.  1.
         14    1    3    3    0    0 -0.52951218631E+01 -0.21055576375E+02  0.13362587648E+01  0.21752268836E+02  0.00000000000E+00 0. -1.
         -2    1    1    2    0  502 -0.14598202411E+02 -0.15485741511E+02  0.95334379479E+02  0.97680907113E+02  0.00000000000E+00 0.  1.
<mgrwt>
<rscale>  1 0.81839093E+02</rscale>
<asrwt>0</asrwt>
<pdfrwt beam="1">  1       21 0.17337381E-01 0.81839093E+02</pdfrwt>
<pdfrwt beam="2">  1       -1 0.16096234E-01 0.81839093E+02</pdfrwt>
<totfact> 0.74990726E+04</totfact>
</mgrwt>
</event>
<event>
 6    2  0.7993170E+000  0.8488497E+02  0.7546771E-02  0.1315734E+00
         21   -1    0    0  501  502  0.00000000000E+00  0.00000000000E+00  0.48726153072E+01  0.48726153072E+01  0.00000000000E+00 0. -1.
          2   -1    0    0  502    0 -0.00000000000E+00 -0.00000000000E+00 -0.11674894639E+04  0.11674894639E+04  0.00000000000E+00 0. -1.
         24    2    1    2    0    0  0.24621877909E+02  0.13474360121E+02 -0.38534441162E+03  0.39458303827E+03  0.80110319352E+02 0.  0.
        -11    1    3    3    0    0 -0.20859261864E+01 -0.31980771755E+02 -0.13583541757E+03  0.13956497238E+03  0.00000000000E+00 0.  1.
         12    1    3    3    0    0  0.26707804096E+02  0.45455131876E+02 -0.24950899405E+03  0.25501806588E+03  0.00000000000E+00 0. -1.
          1    1    1    2  501    0 -0.24621877909E+02 -0.13474360121E+02 -0.77727243697E+03  0.77777904095E+03  0.00000000000E+00 0. -1.
<mgrwt>
<rscale>  1 0.84884972E+02</rscale>
<asrwt>0</asrwt>
<pdfrwt beam="1">  1       21 0.74963199E-03 0.84884972E+02</pdfrwt>
<pdfrwt beam="2">  1        2 0.17961404E+00 0.84884972E+02</pdfrwt>
<totfact> 0.14909396E+06</totfact>
</mgrwt>
</event>
<event>
 6    2  0.7993170E+000  0.1035139E+03  0.7546771E-02  0.1273076E+00
          2   -1    0    0  502    0 -0.00000000000E+00  0.00000000000E+00  0.28157683587E+03  0.28157683587E+03  0.00000000000E+00 0. -1.
         21   -1    0    0  501  502  0.00000000000E+00 -0.00000000000E+00 -0.19520307825E+02  0.19520307825E+02  0.00000000000E+00 0.  1.
         24    2    1    2    0    0  0.42183749726E+02 -0.14970055121E+02  0.18350084217E+03  0.21068383121E+03  0.93335665018E+02 0.  0.
        -11    1    3    3    0    0  0.32312057719E+02 -0.48695054381E+01  0.67464643990E+01  0.33366089659E+02  0.00000000000E+00 0.  1.
         12    1    3    3    0    0  0.98716920066E+01 -0.10100549683E+02  0.17675437777E+03  0.17731774155E+03  0.00000000000E+00 0. -1.
          1    1    1    2  501    0 -0.42183749726E+02  0.14970055121E+02  0.78555685873E+02  0.90413312483E+02  0.00000000000E+00 0. -1.
<mgrwt>
<rscale>  1 0.10351385E+03</rscale>
<asrwt>0</asrwt>
<pdfrwt beam="1">  1       21 0.30031245E-02 0.10351385E+03</pdfrwt>
<pdfrwt beam="2">  1        2 0.43319510E-01 0.10351385E+03</pdfrwt>
<totfact> 0.87173058E+05</totfact>
</mgrwt>
</event>
<event>
 6    2  0.7993170E+000  0.8484130E+02  0.7546771E-02  0.1315848E+00
          2   -1    0    0  502    0 -0.00000000000E+00  0.00000000000E+00  0.13400754060E+03  0.13400754060E+03  0.00000000000E+00 0. -1.
         21   -1    0    0  501  502  0.00000000000E+00 -0.00000000000E+00 -0.24727919841E+02  0.24727919841E+02  0.00000000000E+00 0. -1.
         24    2    1    2    0    0  0.28085074262E+02  0.78506647552E+01  0.71110041318E+02  0.11070087781E+03  0.79672090717E+02 0.  0.
        -13    1    3    3    0    0 -0.86557920724E+01  0.34807581800E+02  0.47072424504E+02  0.59180263905E+02  0.00000000000E+00 0.  1.
         14    1    3    3    0    0  0.36740866334E+02 -0.26956917045E+02  0.24037616813E+02  0.51520613909E+02  0.00000000000E+00 0. -1.
          1    1    1    2  501    0 -0.28085074262E+02 -0.78506647552E+01  0.38169579446E+02  0.48034582630E+02  0.00000000000E+00 0. -1.
<mgrwt>
<rscale>  1 0.84841301E+02</rscale>
<asrwt>0</asrwt>
<pdfrwt beam="1">  1       21 0.38042954E-02 0.84841301E+02</pdfrwt>
<pdfrwt beam="2">  1        2 0.20616544E-01 0.84841301E+02</pdfrwt>
<totfact> 0.12871064E+06</totfact>
</mgrwt>
</event>
<event>
 6    2  0.7993170E+000  0.9301039E+02  0.7546771E-02  0.1295721E+00
         21   -1    0    0  501  502  0.00000000000E+00  0.00000000000E+00  0.32458511454E+02  0.32458511454E+02  0.00000000000E+00 0. -1.
          2   -1    0    0  502    0 -0.00000000000E+00 -0.00000000000E+00 -0.17895166685E+03  0.17895166685E+03  0.00000000000E+00 0. -1.
         24    2    1    2    0    0  0.79221647090E+01 -0.43145544721E+02 -0.13848196057E+03  0.16681782509E+03  0.82016063303E+02 0.  0.
        -11    1    3    3    0    0  0.35391118023E+02  0.66016171664E+01 -0.48689134316E+02  0.60553648813E+02  0.00000000000E+00 0.  1.
         12    1    3    3    0    0 -0.27468953314E+02 -0.49747161888E+02 -0.89792826255E+02  0.10626417627E+03  0.00000000000E+00 0. -1.
          1    1    1    2  501    0 -0.79221647090E+01  0.43145544721E+02 -0.80111948251E+01  0.44592353218E+02  0.00000000000E+00 0. -1.
<mgrwt>
<rscale>  1 0.93010394E+02</rscale>
<asrwt>0</asrwt>
<pdfrwt beam="1">  1       21 0.49936171E-02 0.93010394E+02</pdfrwt>
<pdfrwt beam="2">  1        2 0.27531026E-01 0.93010394E+02</pdfrwt>
<totfact> 0.60422560E+05</totfact>
</mgrwt>
</event>
<event>
 6    2  0.7993170E+000  0.7178531E+02  0.7546771E-02  0.1354125E+00
          2   -1    0    0  502    0 -0.00000000000E+00  0.00000000000E+00  0.36628024721E+03  0.36628024721E+03  0.00000000000E+00 0. -1.
         21   -1    0    0  501  502  0.00000000000E+00 -0.00000000000E+00 -0.90984955464E+01  0.90984955464E+01  0.00000000000E+00 0. -1.
         24    2    1    2    0    0  0.19761343948E+02 -0.50952577976E+01  0.34323325871E+03  0.35065966465E+03  0.68823383841E+02 0.  0.
        -13    1    3    3    0    0 -0.11500891937E+02 -0.59427801998E+01  0.11086922952E+02  0.17044266261E+02  0.00000000000E+00 0.  1.
         14    1    3    3    0    0  0.31262235884E+02  0.84752240223E+00  0.33214633575E+03  0.33361539839E+03  0.00000000000E+00 0. -1.
          1    1    1    2  501    0 -0.19761343948E+02  0.50952577976E+01  0.13948492956E+02  0.24719078106E+02  0.00000000000E+00 0. -1.
<mgrwt>
<rscale>  1 0.71785309E+02</rscale>
<asrwt>0</asrwt>
<pdfrwt beam="1">  1       21 0.13997688E-02 0.71785309E+02</pdfrwt>
<pdfrwt beam="2">  1        2 0.56350796E-01 0.71785309E+02</pdfrwt>
<totfact> 0.21563455E+06</totfact>
</mgrwt>
</event>
<event>
 6    2  0.7993170E+000  0.8642124E+02  0.7546771E-02  0.1311757E+00
         21   -1    0    0  501  502  0.00000000000E+00  0.00000000000E+00  0.15194402523E+01  0.15194402523E+01  0.00000000000E+00 0. -1.
          2   -1    0    0  502    0 -0.00000000000E+00 -0.00000000000E+00 -0.29612673759E+04  0.29612673759E+04  0.00000000000E+00 0. -1.
         24    2    1    2    0    0 -0.29419130750E+02 -0.11780212363E+02 -0.26528050224E+04  0.26542123347E+04  0.80401316785E+02 0.  0.
        -13    1    3    3    0    0 -0.22291690054E+02 -0.13273473678E+02 -0.24032963652E+03  0.24172595793E+03  0.00000000000E+00 0.  1.
         14    1    3    3    0    0 -0.71274406967E+01  0.14932613148E+01 -0.24124753859E+04  0.24124863767E+04  0.00000000000E+00 0. -1.
          1    1    1    2  501    0  0.29419130750E+02  0.11780212363E+02 -0.30694291317E+03  0.30857448145E+03  0.00000000000E+00 0. -1.
<mgrwt>
<rscale>  1 0.86421238E+02</rscale>
<asrwt>0</asrwt>
<pdfrwt beam="1">  1       21 0.23376212E-03 0.86421238E+02</pdfrwt>
<pdfrwt beam="2">  1        2 0.45557554E+00 0.86421238E+02</pdfrwt>
<totfact> 0.10333044E+06</totfact>
</mgrwt>
</event>
<event>
 6    2  0.7993170E+000  0.8155145E+02  0.7546771E-02  0.1324705E+00
         21   -1    0    0  501  502  0.00000000000E+00  0.00000000000E+00  0.37103907931E+01  0.37103907931E+01  0.00000000000E+00 0.  1.
          2   -1    0    0  502    0 -0.00000000000E+00 -0.00000000000E+00 -0.76603912868E+03  0.76603912868E+03  0.00000000000E+00 0. -1.
         24    2    1    2    0    0 -0.19279356166E+02 -0.13884196704E+02 -0.53453863617E+03  0.54072376779E+03  0.78013941098E+02 0.  0.
        -13    1    3    3    0    0 -0.57786537714E+01 -0.17198794554E+02 -0.24454276487E+02  0.30450008408E+02  0.00000000000E+00 0.  1.
         14    1    3    3    0    0 -0.13500702395E+02  0.33145978505E+01 -0.51008435968E+03  0.51027375938E+03  0.00000000000E+00 0. -1.
          1    1    1    2  501    0  0.19279356166E+02  0.13884196704E+02 -0.22779010171E+03  0.22902575168E+03  0.00000000000E+00 0. -1.
<mgrwt>
<rscale>  1 0.81551453E+02</rscale>
<asrwt>0</asrwt>
<pdfrwt beam="1">  1       21 0.57082930E-03 0.81551453E+02</pdfrwt>
<pdfrwt beam="2">  1        2 0.11785218E+00 0.81551453E+02</pdfrwt>
<totfact> 0.39329415E+06</totfact>
</mgrwt>
</event>
<event>
 6    2  0.7993170E+000  0.8481164E+02  0.7546771E-02  0.1315926E+00
         21   -1    0    0  501  502  0.00000000000E+00  0.00000000000E+00  0.56461109619E+01  0.56461109619E+01  0.00000000000E+00 0. -1.
         -1   -1    0    0    0  501 -0.00000000000E+00 -0.00000000000E+00 -0.57362931196E+03  0.57362931196E+03  0.00000000000E+00 0.  1.
         24    2    1    2    0    0  0.11338850812E+02 -0.21855666113E+02 -0.49597242806E+03  0.50317160503E+03  0.81158949177E+02 0.  0.
        -11    1    3    3    0    0  0.29287177618E+02  0.19983322525E+02 -0.14564577033E+03  0.14989917401E+03  0.00000000000E+00 0.  1.
         12    1    3    3    0    0 -0.17948326806E+02 -0.41838988638E+02 -0.35032665773E+03  0.35327243102E+03  0.00000000000E+00 0. -1.
         -2    1    1    2    0  502 -0.11338850812E+02  0.21855666113E+02 -0.72010772941E+02  0.76103817897E+02  0.00000000000E+00 0.  1.
<mgrwt>
<rscale>  1 0.84811643E+02</rscale>
<asrwt>0</asrwt>
<pdfrwt beam="1">  1       21 0.86863243E-03 0.84811643E+02</pdfrwt>
<pdfrwt beam="2">  1       -1 0.88250666E-01 0.84811643E+02</pdfrwt>
<totfact> 0.54130190E+05</totfact>
</mgrwt>
</event>
<event>
 6    2  0.7993170E+000  0.8760701E+02  0.7546771E-02  0.1308752E+00
         21   -1    0    0  501  502  0.00000000000E+00  0.00000000000E+00  0.46286604412E+01  0.46286604412E+01  0.00000000000E+00 0. -1.
          2   -1    0    0  502    0 -0.00000000000E+00 -0.00000000000E+00 -0.10957144050E+04  0.10957144050E+04  0.00000000000E+00 0. -1.
         24    2    1    2    0    0 -0.22182482089E+02  0.50698347388E+01 -0.10476636221E+04  0.10513201478E+04  0.84600368523E+02 0.  0.
        -13    1    3    3    0    0  0.47230304485E+01  0.19839986005E+02 -0.63853257250E+02  0.67031116078E+02  0.00000000000E+00 0.  1.
         14    1    3    3    0    0 -0.26905512538E+02 -0.14770151266E+02 -0.98381036484E+03  0.98428903170E+03  0.00000000000E+00 0. -1.
          1    1    1    2  501    0  0.22182482089E+02 -0.50698347388E+01 -0.43422122485E+02  0.49022917672E+02  0.00000000000E+00 0. -1.
<mgrwt>
<rscale>  1 0.87607009E+02</rscale>
<asrwt>0</asrwt>
<pdfrwt beam="1">  1       21 0.71210063E-03 0.87607009E+02</pdfrwt>
<pdfrwt beam="2">  1        2 0.16857168E+00 0.87607009E+02</pdfrwt>
<totfact> 0.17738887E+06</totfact>
</mgrwt>
</event>
<event>
 6    2  0.7993170E+000  0.1170093E+03  0.7546771E-02  0.1248114E+00
         21   -1    0    0  501  502  0.00000000000E+00  0.00000000000E+00  0.20923043629E+03  0.20923043629E+03  0.00000000000E+00 0. -1.
          2   -1    0    0  502    0 -0.00000000000E+00 -0.00000000000E+00 -0.34566457177E+03  0.34566457177E+03  0.00000000000E+00 0. -1.
         24    2    1    2    0    0  0.48677204740E+02 -0.69845938888E+02 -0.32639203695E+03  0.34673177939E+03  0.80269792680E+02 0.  0.
        -11    1    3    3    0    0  0.52246068940E+01  0.18134818729E+02 -0.50945514698E+02  0.54328755143E+02  0.00000000000E+00 0.  1.
         12    1    3    3    0    0  0.43452597846E+02 -0.87980757617E+02 -0.27544652225E+03  0.29240302425E+03  0.00000000000E+00 0. -1.
          1    1    1    2  501    0 -0.48677204740E+02  0.69845938888E+02  0.18995790147E+03  0.20816322867E+03  0.00000000000E+00 0. -1.
<mgrwt>
<rscale>  1 0.11700925E+03</rscale>
<asrwt>0</asrwt>
<pdfrwt beam="1">  1       21 0.32189298E-01 0.11700925E+03</pdfrwt>
<pdfrwt beam="2">  1        2 0.53179165E-01 0.11700925E+03</pdfrwt>
<totfact> 0.10989915E+04</totfact>
</mgrwt>
</event>
<event>
 6    2  0.7993170E+000  0.8068572E+02  0.7546771E-02  0.1327117E+00
          2   -1    0    0  502    0 -0.00000000000E+00  0.00000000000E+00  0.35838864243E+03  0.35838864243E+03  0.00000000000E+00 0. -1.
         21   -1    0    0  501  502  0.00000000000E+00 -0.00000000000E+00 -0.29956407800E+02  0.29956407800E+02  0.00000000000E+00 0. -1.
         24    2    1    2    0    0  0.33713669527E+02 -0.21201395010E+02  0.33790778286E+03  0.34740733317E+03  0.70171751873E+02 0.  0.
        -11    1    3    3    0    0  0.28448005245E+02  0.20118794172E+02  0.10039306252E+03  0.10626768975E+03  0.00000000000E+00 0.  1.
         12    1    3    3    0    0  0.52656642817E+01 -0.41320189182E+02  0.23751472034E+03  0.24113964343E+03  0.00000000000E+00 0. -1.
          1    1    1    2  501    0 -0.33713669527E+02  0.21201395010E+02 -0.94755482328E+01  0.40937717055E+02  0.00000000000E+00 0. -1.
<mgrwt>
<rscale>  1 0.80685720E+02</rscale>
<asrwt>0</asrwt>
<pdfrwt beam="1">  1       21 0.46086784E-02 0.80685720E+02</pdfrwt>
<pdfrwt beam="2">  1        2 0.55136711E-01 0.80685720E+02</pdfrwt>
<totfact> 0.32831222E+05</totfact>
</mgrwt>
</event>
<event>
 6    2  0.7993170E+000  0.8246983E+02  0.7546771E-02  0.1322185E+00
         21   -1    0    0  501  502  0.00000000000E+00  0.00000000000E+00  0.58841492532E+02  0.58841492532E+02  0.00000000000E+00 0. -1.
         -1   -1    0    0    0  501 -0.00000000000E+00 -0.00000000000E+00 -0.47467891820E+02  0.47467891820E+02  0.00000000000E+00 0.  1.
         24    2    1    2    0    0  0.21071876535E+02  0.27487388489E+00  0.17616650821E+02  0.84330412333E+02  0.79731878955E+02 0.  0.
        -13    1    3    3    0    0 -0.27373186453E+00 -0.12728895384E+02 -0.28868622883E+02  0.31551499077E+02  0.00000000000E+00 0.  1.
         14    1    3    3    0    0  0.21345608399E+02  0.13003769269E+02  0.46485273704E+02  0.52778913256E+02  0.00000000000E+00 0. -1.
         -2    1    1    2    0  502 -0.21071876535E+02 -0.27487388489E+00 -0.62430501098E+01  0.21978972019E+02  0.00000000000E+00 0.  1.
<mgrwt>
<rscale>  1 0.82469825E+02</rscale>
<asrwt>0</asrwt>
<pdfrwt beam="1">  1       21 0.90525373E-02 0.82469825E+02</pdfrwt>
<pdfrwt beam="2">  1       -1 0.73027526E-02 0.82469825E+02</pdfrwt>
<totfact> 0.77790274E+05</totfact>
</mgrwt>
</event>
<event>
 6    2  0.7993170E+000  0.8353242E+02  0.7546771E-02  0.1319316E+00
          2   -1    0    0  502    0 -0.00000000000E+00  0.00000000000E+00  0.16449052816E+04  0.16449052816E+04  0.00000000000E+00 0. -1.
         21   -1    0    0  501  502  0.00000000000E+00 -0.00000000000E+00 -0.31693085770E+01  0.31693085770E+01  0.00000000000E+00 0. -1.
         24    2    1    2    0    0 -0.75795443709E+01 -0.18880403763E+02  0.15939578637E+04  0.15961451489E+04  0.81016948938E+02 0.  0.
        -13    1    3    3    0    0  0.70832351116E+01  0.29886291419E+02  0.44453804597E+03  0.44559784218E+03  0.00000000000E+00 0.  1.
         14    1    3    3    0    0 -0.14662779483E+02 -0.48766695183E+02  0.11494198177E+04  0.11505473067E+04  0.00000000000E+00 0. -1.
          1    1    1    2  501    0  0.75795443709E+01  0.18880403763E+02  0.47778109305E+02  0.51929441244E+02  0.00000000000E+00 0. -1.
<mgrwt>
<rscale>  1 0.83532420E+02</rscale>
<asrwt>0</asrwt>
<pdfrwt beam="1">  1       21 0.48758725E-03 0.83532420E+02</pdfrwt>
<pdfrwt beam="2">  1        2 0.25306167E+00 0.83532420E+02</pdfrwt>
<totfact> 0.16311966E+06</totfact>
</mgrwt>
</event>
<event>
 6    2  0.7993170E+000  0.1026864E+03  0.7546771E-02  0.1274746E+00
         21   -1    0    0  501  502  0.00000000000E+00  0.00000000000E+00  0.85321290798E+03  0.85321290798E+03  0.00000000000E+00 0. -1.
          2   -1    0    0  502    0 -0.00000000000E+00 -0.00000000000E+00 -0.83167754511E+01  0.83167754511E+01  0.00000000000E+00 0. -1.
         24    2    1    2    0    0  0.60741082375E+02 -0.82435177081E+01  0.42769274270E+03  0.43984721622E+03  0.82383595346E+02 0.  0.
        -11    1    3    3    0    0 -0.18613068996E+02  0.63383253822E+01  0.52114546779E+02  0.55700508903E+02  0.00000000000E+00 0.  1.
         12    1    3    3    0    0  0.79354151370E+02 -0.14581843090E+02  0.37557819592E+03  0.38414670731E+03  0.00000000000E+00 0. -1.
          1    1    1    2  501    0 -0.60741082375E+02  0.82435177081E+01  0.41720338982E+03  0.42168246721E+03  0.00000000000E+00 0. -1.
<mgrwt>
<rscale>  1 0.10268637E+03</rscale>
<asrwt>0</asrwt>
<pdfrwt beam="1">  1       21 0.13126346E+00 0.10268637E+03</pdfrwt>
<pdfrwt beam="2">  1        2 0.12795046E-02 0.10268637E+03</pdfrwt>
<totfact> 0.50521335E+04</totfact>
</mgrwt>
</event>
<event>
 6    2  0.7993170E+000  0.8841752E+02  0.7546771E-02  0.1306730E+00
         -1   -1    0    0    0  501 -0.00000000000E+00  0.00000000000E+00  0.57622338450E+02  0.57622338450E+02  0.00000000000E+00 0.  1.
         21   -1    0    0  501  502  0.00000000000E+00 -0.00000000000E+00 -0.70069094046E+02  0.70069094046E+02  0.00000000000E+00 0.  1.
         24    2    1    2    0    0  0.29701695388E+02  0.23810681516E+02 -0.14358957237E+02  0.89575874278E+02  0.79802997040E+02 0.  0.
        -11    1    3    3    0    0  0.20181924565E+02 -0.26539172546E+02 -0.18565298113E+02  0.38161604429E+02  0.00000000000E+00 0.  1.
         12    1    3    3    0    0  0.95197708232E+01  0.50349854061E+02  0.42063408761E+01  0.51414269849E+02  0.00000000000E+00 0. -1.
         -2    1    1    2    0  502 -0.29701695388E+02 -0.23810681516E+02  0.19122016418E+01  0.38115558218E+02  0.00000000000E+00 0.  1.
<mgrwt>
<rscale>  1 0.88417519E+02</rscale>
<asrwt>0</asrwt>
<pdfrwt beam="1">  1       21 0.10779861E-01 0.88417519E+02</pdfrwt>
<pdfrwt beam="2">  1       -1 0.88649751E-02 0.88417519E+02</pdfrwt>
<totfact> 0.43438348E+05</totfact>
</mgrwt>
</event>
<event>
 6    2  0.7993170E+000  0.9514954E+02  0.7546771E-02  0.1290840E+00
         21   -1    0    0  501  502  0.00000000000E+00  0.00000000000E+00  0.46205334128E+02  0.46205334128E+02  0.00000000000E+00 0.  1.
         -1   -1    0    0    0  501 -0.00000000000E+00 -0.00000000000E+00 -0.29018419928E+03  0.29018419928E+03  0.00000000000E+00 0.  1.
         24    2    1    2    0    0  0.40532145514E+02 -0.28323693824E+02 -0.26581756444E+03  0.28233386544E+03  0.81291743488E+02 0.  0.
        -13    1    3    3    0    0  0.95222219356E+01 -0.10288013745E+02 -0.23389148066E+03  0.23431120473E+03  0.00000000000E+00 0.  1.
         14    1    3    3    0    0  0.31009923578E+02 -0.18035680079E+02 -0.31926083780E+02  0.48022660711E+02  0.00000000000E+00 0. -1.
         -2    1    1    2    0  502 -0.40532145514E+02  0.28323693824E+02  0.21838699293E+02  0.54055667960E+02  0.00000000000E+00 0.  1.
<mgrwt>
<rscale>  1 0.95149535E+02</rscale>
<asrwt>0</asrwt>
<pdfrwt beam="1">  1       21 0.71085129E-02 0.95149535E+02</pdfrwt>
<pdfrwt beam="2">  1       -1 0.44643723E-01 0.95149535E+02</pdfrwt>
<totfact> 0.66946094E+04</totfact>
</mgrwt>
</event>
<event>
 6    2  0.7993170E+000  0.1297393E+03  0.7546771E-02  0.1227843E+00
         21   -1    0    0  501  502  0.00000000000E+00  0.00000000000E+00  0.29794585221E+02  0.29794585221E+02  0.00000000000E+00 0.  1.
          2   -1    0    0  502    0 -0.00000000000E+00 -0.00000000000E+00 -0.46422579155E+03  0.46422579155E+03  0.00000000000E+00 0. -1.
         24    2    1    2    0    0 -0.95714151153E+02  0.36312977762E+02 -0.28187908566E+03  0.31030325562E+03  0.79702323860E+02 0.  0.
        -11    1    3    3    0    0 -0.49580880601E+02  0.19444871551E+02 -0.49231300833E+02  0.72526462292E+02  0.00000000000E+00 0.  1.
         12    1    3    3    0    0 -0.46133270552E+02  0.16868106212E+02 -0.23264778483E+03  0.23777679333E+03  0.00000000000E+00 0. -1.
          1    1    1    2  501    0  0.95714151153E+02 -0.36312977762E+02 -0.15255212067E+03  0.18371712116E+03  0.00000000000E+00 0. -1.
<mgrwt>
<rscale>  1 0.12973932E+03</rscale>
<asrwt>0</asrwt>
<pdfrwt beam="1">  1       21 0.45837823E-02 0.12973932E+03</pdfrwt>
<pdfrwt beam="2">  1        2 0.71419354E-01 0.12973932E+03</pdfrwt>
<totfact> 0.25936633E+05</totfact>
</mgrwt>
</event>
<event>
 6    2  0.7993170E+000  0.1053638E+03  0.7546771E-02  0.1269405E+00
          2   -1    0    0  502    0 -0.00000000000E+00  0.00000000000E+00  0.24751450922E+03  0.24751450922E+03  0.00000000000E+00 0. -1.
         21   -1    0    0  501  502  0.00000000000E+00 -0.00000000000E+00 -0.33171530037E+02  0.33171530037E+02  0.00000000000E+00 0.  1.
         24    2    1    2    0    0  0.68293364015E+02 -0.94235657291E+01  0.16551366298E+03  0.19620474381E+03  0.79678991596E+02 0.  0.
        -11    1    3    3    0    0  0.22094519605E+02 -0.40101156452E+02  0.48400674485E+02  0.66625039106E+02  0.00000000000E+00 0.  1.
         12    1    3    3    0    0  0.46198844409E+02  0.30677590723E+02  0.11711298849E+03  0.12957970470E+03  0.00000000000E+00 0. -1.
          1    1    1    2  501    0 -0.68293364015E+02  0.94235657291E+01  0.48829316206E+02  0.84481295448E+02  0.00000000000E+00 0. -1.
<mgrwt>
<rscale>  1 0.10536379E+03</rscale>
<asrwt>0</asrwt>
<pdfrwt beam="1">  1       21 0.51033125E-02 0.10536379E+03</pdfrwt>
<pdfrwt beam="2">  1        2 0.38079154E-01 0.10536379E+03</pdfrwt>
<totfact> 0.41663226E+05</totfact>
</mgrwt>
</event>
<event>
 6    2  0.7993170E+000  0.9119620E+02  0.7546771E-02  0.1299981E+00
         -3   -1    0    0    0  501 -0.00000000000E+00  0.00000000000E+00  0.45803035333E+03  0.45803035333E+03  0.00000000000E+00 0.  1.
         21   -1    0    0  501  502  0.00000000000E+00 -0.00000000000E+00 -0.11252776438E+02  0.11252776438E+02  0.00000000000E+00 0.  1.
         24    2    1    2    0    0 -0.33019333130E+02 -0.28943671560E+02  0.36762040707E+03  0.37876313188E+03  0.79929555808E+02 0.  0.
        -13    1    3    3    0    0 -0.24771269707E+02 -0.78540496017E+01  0.34750109096E+03  0.34847139067E+03  0.00000000000E+00 0.  1.
         14    1    3    3    0    0 -0.82480634230E+01 -0.21089621958E+02  0.20119316110E+02  0.30291741206E+02  0.00000000000E+00 0. -1.
         -4    1    1    2    0  502  0.33019333130E+02  0.28943671560E+02  0.79157169815E+02  0.90519997883E+02  0.00000000000E+00 0.  1.
<mgrwt>
<rscale>  1 0.91196197E+02</rscale>
<asrwt>0</asrwt>
<pdfrwt beam="1">  1       21 0.17311967E-02 0.91196197E+02</pdfrwt>
<pdfrwt beam="2">  1       -3 0.70466194E-01 0.91196197E+02</pdfrwt>
<totfact> 0.13727164E+05</totfact>
</mgrwt>
</event>
<event>
 6    2  0.7993170E+000  0.8388715E+02  0.7546771E-02  0.1318369E+00
         21   -1    0    0  501  502  0.00000000000E+00  0.00000000000E+00  0.14572973572E+01  0.14572973572E+01  0.00000000000E+00 0.  1.
          2   -1    0    0  502    0 -0.00000000000E+00 -0.00000000000E+00 -0.22180160679E+04  0.22180160679E+04  0.00000000000E+00 0. -1.
         24    2    1    2    0    0  0.21438697624E+02  0.90322053881E+01 -0.19792830731E+04  0.19810599531E+04  0.80596872797E+02 0.  0.
        -13    1    3    3    0    0  0.13360803515E+02  0.39067547255E+02 -0.59657028916E+03  0.59799740320E+03  0.00000000000E+00 0.  1.
         14    1    3    3    0    0  0.80778941090E+01 -0.30035341867E+02 -0.13827127839E+04  0.13830625499E+04  0.00000000000E+00 0. -1.
          1    1    1    2  501    0 -0.21438697624E+02 -0.90322053881E+01 -0.23727569740E+03  0.23841341209E+03  0.00000000000E+00 0. -1.
<mgrwt>
<rscale>  1 0.83887153E+02</rscale>
<asrwt>0</asrwt>
<pdfrwt beam="1">  1       21 0.22420110E-03 0.83887153E+02</pdfrwt>
<pdfrwt beam="2">  1        2 0.34123095E+00 0.83887153E+02</pdfrwt>
<totfact> 0.27295458E+06</totfact>
</mgrwt>
</event>
<event>
 6    2  0.7993170E+000  0.8802274E+02  0.7546771E-02  0.1307712E+00
         -1   -1    0    0    0  501 -0.00000000000E+00  0.00000000000E+00  0.25252850643E+02  0.25252850643E+02  0.00000000000E+00 0.  1.
         21   -1    0    0  501  502  0.00000000000E+00 -0.00000000000E+00 -0.20120176928E+03  0.20120176928E+03  0.00000000000E+00 0.  1.
         24    2    1    2    0    0  0.35019760747E+02  0.11349095053E+02 -0.64616530461E+02  0.10919385812E+03  0.79955093904E+02 0.  0.
        -11    1    3    3    0    0 -0.89189614152E+01  0.21005629644E+02  0.76498244802E+01  0.24068738314E+02  0.00000000000E+00 0.  1.
         12    1    3    3    0    0  0.43938722163E+02 -0.96565345911E+01 -0.72266354941E+02  0.85125119807E+02  0.00000000000E+00 0. -1.
         -2    1    1    2    0  502 -0.35019760747E+02 -0.11349095053E+02 -0.11133238818E+03  0.11726076181E+03  0.00000000000E+00 0.  1.
<mgrwt>
<rscale>  1 0.88022739E+02</rscale>
<asrwt>0</asrwt>
<pdfrwt beam="1">  1       21 0.30954119E-01 0.88022739E+02</pdfrwt>
<pdfrwt beam="2">  1       -1 0.38850538E-02 0.88022739E+02</pdfrwt>
<totfact> 0.21475702E+05</totfact>
</mgrwt>
</event>
<event>
 6    2  0.7993170E+000  0.8682540E+02  0.7546771E-02  0.1310727E+00
          2   -1    0    0  502    0 -0.00000000000E+00  0.00000000000E+00  0.17403902704E+04  0.17403902704E+04  0.00000000000E+00 0. -1.
         21   -1    0    0  501  502  0.00000000000E+00 -0.00000000000E+00 -0.73627499262E+01  0.73627499262E+01  0.00000000000E+00 0. -1.
         24    2    1    2    0    0 -0.42280206608E+01  0.31940162476E+02  0.16977815000E+04  0.17000001974E+04  0.80626294001E+02 0.  0.
        -13    1    3    3    0    0 -0.83295469703E+01  0.40202214293E+02  0.38439700002E+03  0.38658330669E+03  0.00000000000E+00 0.  1.
         14    1    3    3    0    0  0.41015263095E+01 -0.82620518170E+01  0.13133845000E+04  0.13134168908E+04  0.00000000000E+00 0. -1.
          1    1    1    2  501    0  0.42280206608E+01 -0.31940162476E+02  0.35246020460E+02  0.47752822911E+02  0.00000000000E+00 0. -1.
<mgrwt>
<rscale>  1 0.86825396E+02</rscale>
<asrwt>0</asrwt>
<pdfrwt beam="1">  1       21 0.11327321E-02 0.86825396E+02</pdfrwt>
<pdfrwt beam="2">  1        2 0.26775202E+00 0.86825396E+02</pdfrwt>
<totfact> 0.39727304E+05</totfact>
</mgrwt>
</event>
<event>
 6    2  0.7993170E+000  0.8588643E+02  0.7546771E-02  0.1313131E+00
         21   -1    0    0  501  502  0.00000000000E+00  0.00000000000E+00  0.27660669664E+01  0.27660669664E+01  0.00000000000E+00 0. -1.
         -1   -1    0    0    0  501 -0.00000000000E+00 -0.00000000000E+00 -0.12919958744E+04  0.12919958744E+04  0.00000000000E+00 0.  1.
         24    2    1    2    0    0 -0.28773277532E+02 -0.22196304061E+01 -0.77982076631E+03  0.78453610956E+03  0.80892838891E+02 0.  0.
        -13    1    3    3    0    0  0.21003582669E+02 -0.16471428876E+02 -0.43838149621E+03  0.43919334544E+03  0.00000000000E+00 0.  1.
         14    1    3    3    0    0 -0.49776860201E+02  0.14251798470E+02 -0.34143927009E+03  0.34534276413E+03  0.00000000000E+00 0. -1.
         -2    1    1    2    0  502  0.28773277532E+02  0.22196304061E+01 -0.50940904111E+03  0.51022583178E+03  0.00000000000E+00 0.  1.
<mgrwt>
<rscale>  1 0.85886435E+02</rscale>
<asrwt>0</asrwt>
<pdfrwt beam="1">  1       21 0.42554932E-03 0.85886435E+02</pdfrwt>
<pdfrwt beam="2">  1       -1 0.19876834E+00 0.85886435E+02</pdfrwt>
<totfact> 0.22107418E+05</totfact>
</mgrwt>
</event>
<event>
 6    2  0.7993170E+000  0.8166956E+02  0.7546771E-02  0.1324379E+00
         -3   -1    0    0    0  501 -0.00000000000E+00  0.00000000000E+00  0.98736595182E+01  0.98736595182E+01  0.00000000000E+00 0.  1.
         21   -1    0    0  501  502  0.00000000000E+00 -0.00000000000E+00 -0.33614741308E+03  0.33614741308E+03  0.00000000000E+00 0. -1.
         24    2    1    2    0    0  0.23787803614E+02 -0.18475968893E+02 -0.27143231167E+03  0.28345267182E+03  0.75912425302E+02 0.  0.
        -13    1    3    3    0    0  0.47748853723E+02 -0.23143056116E+02 -0.13888442626E+03  0.14867561312E+03  0.00000000000E+00 0.  1.
         14    1    3    3    0    0 -0.23961050109E+02  0.46670872232E+01 -0.13254788540E+03  0.13477705870E+03  0.00000000000E+00 0. -1.
         -4    1    1    2    0  502 -0.23787803614E+02  0.18475968893E+02 -0.54841441888E+02  0.62568400776E+02  0.00000000000E+00 0.  1.
<mgrwt>
<rscale>  1 0.81669562E+02</rscale>
<asrwt>0</asrwt>
<pdfrwt beam="1">  1       21 0.51714985E-01 0.81669562E+02</pdfrwt>
<pdfrwt beam="2">  1       -3 0.15190246E-02 0.81669562E+02</pdfrwt>
<totfact> 0.22857116E+05</totfact>
</mgrwt>
</event>
<event>
 6    2  0.7993170E+000  0.8300296E+02  0.7546771E-02  0.1320739E+00
          2   -1    0    0  502    0 -0.00000000000E+00  0.00000000000E+00  0.21219610150E+04  0.21219610150E+04  0.00000000000E+00 0. -1.
         21   -1    0    0  501  502  0.00000000000E+00 -0.00000000000E+00 -0.16616383636E+01  0.16616383636E+01  0.00000000000E+00 0. -1.
         24    2    1    2    0    0 -0.97664004073E+01 -0.29210086049E+02  0.17793720184E+04  0.17813068996E+04  0.77077096941E+02 0.  0.
        -13    1    3    3    0    0  0.49125634027E+01  0.25144104648E+02  0.69829208815E+03  0.69876190484E+03  0.00000000000E+00 0.  1.
         14    1    3    3    0    0 -0.14678963810E+02 -0.54354190697E+02  0.10810799302E+04  0.10825449947E+04  0.00000000000E+00 0. -1.
          1    1    1    2  501    0  0.97664004073E+01  0.29210086049E+02  0.34092735824E+03  0.34231575380E+03  0.00000000000E+00 0. -1.
<mgrwt>
<rscale>  1 0.83002955E+02</rscale>
<asrwt>0</asrwt>
<pdfrwt beam="1">  1       21 0.25563837E-03 0.83002955E+02</pdfrwt>
<pdfrwt beam="2">  1        2 0.32645337E+00 0.83002955E+02</pdfrwt>
<totfact> 0.25046138E+06</totfact>
</mgrwt>
</event>
<event>
 6    2  0.7993170E+000  0.1075965E+03  0.7546771E-02  0.1265087E+00
         21   -1    0    0  501  502  0.00000000000E+00  0.00000000000E+00  0.41855564208E+02  0.41855564208E+02  0.00000000000E+00 0. -1.
          2   -1    0    0  502    0 -0.00000000000E+00 -0.00000000000E+00 -0.24387650398E+03  0.24387650398E+03  0.00000000000E+00 0. -1.
         24    2    1    2    0    0 -0.62549197136E+02 -0.31282460340E+02 -0.18458541061E+03  0.21365577483E+03  0.81768098427E+02 0.  0.
        -13    1    3    3    0    0  0.53470766015E+01 -0.16507034819E+02 -0.10224865567E+01  0.17381567981E+02  0.00000000000E+00 0.  1.
         14    1    3    3    0    0 -0.67896273737E+02 -0.14775425520E+02 -0.18356292406E+03  0.19627420685E+03  0.00000000000E+00 0. -1.
          1    1    1    2  501    0  0.62549197136E+02  0.31282460340E+02 -0.17435529162E+02  0.72076293359E+02  0.00000000000E+00 0. -1.
<mgrwt>
<rscale>  1 0.10759654E+03</rscale>
<asrwt>0</asrwt>
<pdfrwt beam="1">  1       21 0.64393175E-02 0.10759654E+03</pdfrwt>
<pdfrwt beam="2">  1        2 0.37519463E-01 0.10759654E+03</pdfrwt>
<totfact> 0.28656021E+05</totfact>
</mgrwt>
</event>
<event>
 6    2  0.7993170E+000  0.8547109E+02  0.7546771E-02  0.1314205E+00
          2   -1    0    0  502    0 -0.00000000000E+00  0.00000000000E+00  0.10559445858E+04  0.10559445858E+04  0.00000000000E+00 0. -1.
         21   -1    0    0  501  502  0.00000000000E+00 -0.00000000000E+00 -0.30047205069E+01  0.30047205069E+01  0.00000000000E+00 0.  1.
         24    2    1    2    0    0 -0.53522200569E+01  0.26226241272E+02  0.83867071794E+03  0.84301475720E+03  0.81171705264E+02 0.  0.
        -11    1    3    3    0    0  0.22127514775E+02  0.35886603826E+02  0.24284949401E+03  0.24648195063E+03  0.00000000000E+00 0.  1.
         12    1    3    3    0    0 -0.27479734832E+02 -0.96603625541E+01  0.59582122393E+03  0.59653280657E+03  0.00000000000E+00 0. -1.
          1    1    1    2  501    0  0.53522200569E+01 -0.26226241272E+02  0.21426914735E+03  0.21593454910E+03  0.00000000000E+00 0. -1.
<mgrwt>
<rscale>  1 0.85471093E+02</rscale>
<asrwt>0</asrwt>
<pdfrwt beam="1">  1       21 0.46226554E-03 0.85471093E+02</pdfrwt>
<pdfrwt beam="2">  1        2 0.16245272E+00 0.85471093E+02</pdfrwt>
<totfact> 0.36198090E+06</totfact>
</mgrwt>
</event>
<event>
 6    2  0.7993170E+000  0.9184126E+02  0.7546771E-02  0.1298453E+00
         21   -1    0    0  501  502  0.00000000000E+00  0.00000000000E+00  0.12379194148E+02  0.12379194148E+02  0.00000000000E+00 0. -1.
          4   -1    0    0  502    0 -0.00000000000E+00 -0.00000000000E+00 -0.55827676477E+03  0.55827676477E+03  0.00000000000E+00 0. -1.
         24    2    1    2    0    0 -0.70089201408E+01 -0.42066021051E+02 -0.49853081343E+03  0.50691990338E+03  0.81339666930E+02 0.  0.
        -13    1    3    3    0    0 -0.11770290084E+01 -0.17678888785E+02 -0.16417545408E+02  0.24155005758E+02  0.00000000000E+00 0.  1.
         14    1    3    3    0    0 -0.58318911324E+01 -0.24387132267E+02 -0.48211326802E+03  0.48276489763E+03  0.00000000000E+00 0. -1.
          3    1    1    2  501    0  0.70089201408E+01  0.42066021051E+02 -0.47366757193E+02  0.63736055539E+02  0.00000000000E+00 0. -1.
<mgrwt>
<rscale>  1 0.91841257E+02</rscale>
<asrwt>0</asrwt>
<pdfrwt beam="1">  1       21 0.19044911E-02 0.91841257E+02</pdfrwt>
<pdfrwt beam="2">  1        4 0.85888745E-01 0.91841257E+02</pdfrwt>
<totfact> 0.61436583E+04</totfact>
</mgrwt>
</event>
<event>
 6    2  0.7993170E+000  0.9249211E+02  0.7546771E-02  0.1296926E+00
         21   -1    0    0  501  502  0.00000000000E+00  0.00000000000E+00  0.12506804936E+01  0.12506804936E+01  0.00000000000E+00 0. -1.
          2   -1    0    0  502    0 -0.00000000000E+00 -0.00000000000E+00 -0.44115911482E+04  0.44115911482E+04  0.00000000000E+00 0. -1.
         24    2    1    2    0    0  0.41319267035E+02  0.11818451366E+02 -0.37292595974E+04  0.37304064035E+04  0.81901361876E+02 0.  0.
        -11    1    3    3    0    0 -0.23478275396E+02 -0.36316934430E+01 -0.66854554956E+03  0.66896754065E+03  0.00000000000E+00 0.  1.
         12    1    3    3    0    0  0.64797542431E+02  0.15450144809E+02 -0.30607140478E+04  0.30614388629E+04  0.00000000000E+00 0. -1.
          1    1    1    2  501    0 -0.41319267035E+02 -0.11818451366E+02 -0.68108087036E+03  0.68243542522E+03  0.00000000000E+00 0. -1.
<mgrwt>
<rscale>  1 0.92492112E+02</rscale>
<asrwt>0</asrwt>
<pdfrwt beam="1">  1       21 0.19241143E-03 0.92492112E+02</pdfrwt>
<pdfrwt beam="2">  1        2 0.67870969E+00 0.92492112E+02</pdfrwt>
<totfact> 0.14045767E+05</totfact>
</mgrwt>
</event>
<event>
 6    2  0.7993170E+000  0.8380032E+02  0.7546771E-02  0.1318600E+00
         21   -1    0    0  501  502  0.00000000000E+00  0.00000000000E+00  0.72950376835E+02  0.72950376835E+02  0.00000000000E+00 0. -1.
         -1   -1    0    0    0  501 -0.00000000000E+00 -0.00000000000E+00 -0.41938714981E+02  0.41938714981E+02  0.00000000000E+00 0.  1.
         24    2    1    2    0    0 -0.57039750952E+01 -0.20535233864E+02  0.90524900180E+01  0.84287843648E+02  0.81044813835E+02 0.  0.
        -13    1    3    3    0    0 -0.56593681213E+01  0.19996707422E+02 -0.24172857065E+02  0.31878264915E+02  0.00000000000E+00 0.  1.
         14    1    3    3    0    0 -0.44606973905E-01 -0.40531941286E+02  0.33225347083E+02  0.52409578734E+02  0.00000000000E+00 0. -1.
         -2    1    1    2    0  502  0.57039750952E+01  0.20535233864E+02  0.21959171835E+02  0.30601248168E+02  0.00000000000E+00 0.  1.
<mgrwt>
<rscale>  1 0.83800316E+02</rscale>
<asrwt>0</asrwt>
<pdfrwt beam="1">  1       21 0.11223135E-01 0.83800316E+02</pdfrwt>
<pdfrwt beam="2">  1       -1 0.64521100E-02 0.83800316E+02</pdfrwt>
<totfact> 0.64537669E+05</totfact>
</mgrwt>
</event>
<event>
 6    2  0.7993170E+000  0.9207141E+02  0.7546771E-02  0.1297912E+00
         21   -1    0    0  501  502  0.00000000000E+00  0.00000000000E+00  0.65809314104E+01  0.65809314104E+01  0.00000000000E+00 0. -1.
          2   -1    0    0  502    0 -0.00000000000E+00 -0.00000000000E+00 -0.74675418958E+03  0.74675418958E+03  0.00000000000E+00 0. -1.
         24    2    1    2    0    0  0.39119741221E+02  0.26877930786E+02 -0.52213650815E+03  0.53019211376E+03  0.78894657829E+02 0.  0.
        -13    1    3    3    0    0  0.35877233158E+02 -0.71615664713E+01 -0.96791706935E+02  0.10347511017E+03  0.00000000000E+00 0.  1.
         14    1    3    3    0    0  0.32425080632E+01  0.34039497257E+02 -0.42534480121E+03  0.42671700359E+03  0.00000000000E+00 0. -1.
          1    1    1    2  501    0 -0.39119741221E+02 -0.26877930786E+02 -0.21803675002E+03  0.22314300723E+03  0.00000000000E+00 0. -1.
<mgrwt>
<rscale>  1 0.92071409E+02</rscale>
<asrwt>0</asrwt>
<pdfrwt beam="1">  1       21 0.10124515E-02 0.92071409E+02</pdfrwt>
<pdfrwt beam="2">  1        2 0.11488520E+00 0.92071409E+02</pdfrwt>
<totfact> 0.16919616E+06</totfact>
</mgrwt>
</event>
<event>
 6    2  0.7993170E+000  0.9452577E+02  0.7546771E-02  0.1292248E+00
         21   -1    0    0  501  502  0.00000000000E+00  0.00000000000E+00  0.37932167625E+02  0.37932167625E+02  0.00000000000E+00 0. -1.
          2   -1    0    0  502    0 -0.00000000000E+00 -0.00000000000E+00 -0.17945278695E+03  0.17945278695E+03  0.00000000000E+00 0. -1.
         24    2    1    2    0    0  0.44350109681E+02  0.50088061420E+00 -0.14478741357E+03  0.17291187221E+03  0.83474171533E+02 0.  0.
        -13    1    3    3    0    0  0.25159105697E+02 -0.12817436506E+02 -0.20878726542E+01  0.28313009206E+02  0.00000000000E+00 0.  1.
         14    1    3    3    0    0  0.19191003984E+02  0.13318317121E+02 -0.14269954092E+03  0.14459886301E+03  0.00000000000E+00 0. -1.
          1    1    1    2  501    0 -0.44350109681E+02 -0.50088061420E+00  0.32667942474E+01  0.44473082362E+02  0.00000000000E+00 0. -1.
<mgrwt>
<rscale>  1 0.94525766E+02</rscale>
<asrwt>0</asrwt>
<pdfrwt beam="1">  1       21 0.58357181E-02 0.94525766E+02</pdfrwt>
<pdfrwt beam="2">  1        2 0.27608121E-01 0.94525766E+02</pdfrwt>
<totfact> 0.46484723E+05</totfact>
</mgrwt>
</event>
<event>
 6    2  0.7993170E+000  0.9343084E+02  0.7546771E-02  0.1294750E+00
          2   -1    0    0  502    0 -0.00000000000E+00  0.00000000000E+00  0.12502581373E+04  0.12502581373E+04  0.00000000000E+00 0. -1.
         21   -1    0    0  501  502  0.00000000000E+00 -0.00000000000E+00 -0.45878565800E+01  0.45878565800E+01  0.00000000000E+00 0. -1.
         24    2    1    2    0    0  0.57153832947E+02 -0.87010333913E+01  0.80263853878E+03  0.80805813262E+03  0.73396547301E+02 0.  0.
        -13    1    3    3    0    0 -0.62212038837E+01  0.21288080125E+02  0.25194833946E+03  0.25292261957E+03  0.00000000000E+00 0.  1.
         14    1    3    3    0    0  0.63375036831E+02 -0.29989113517E+02  0.55069019932E+03  0.55513551305E+03  0.00000000000E+00 0. -1.
          1    1    1    2  501    0 -0.57153832947E+02  0.87010333913E+01  0.44303174191E+03  0.44678786123E+03  0.00000000000E+00 0. -1.
<mgrwt>
<rscale>  1 0.93430839E+02</rscale>
<asrwt>0</asrwt>
<pdfrwt beam="1">  1       21 0.70582509E-03 0.93430839E+02</pdfrwt>
<pdfrwt beam="2">  1        2 0.19234713E+00 0.93430839E+02</pdfrwt>
<totfact> 0.14878531E+06</totfact>
</mgrwt>
</event>
<event>
 6    2  0.7993170E+000  0.8852522E+02  0.7546771E-02  0.1306463E+00
         21   -1    0    0  501  502  0.00000000000E+00  0.00000000000E+00  0.44812820303E+01  0.44812820303E+01  0.00000000000E+00 0.  1.
          2   -1    0    0  502    0 -0.00000000000E+00 -0.00000000000E+00 -0.12612941375E+04  0.12612941375E+04  0.00000000000E+00 0. -1.
         24    2    1    2    0    0 -0.25311796356E+02 -0.21271648961E+02 -0.11619210781E+04  0.11652885075E+04  0.82119083076E+02 0.  0.
        -11    1    3    3    0    0  0.23235419587E+01 -0.38848787340E+02 -0.27255170524E+03  0.27531628930E+03  0.00000000000E+00 0.  1.
         12    1    3    3    0    0 -0.27635338314E+02  0.17577138379E+02 -0.88936937287E+03  0.88997221817E+03  0.00000000000E+00 0. -1.
          1    1    1    2  501    0  0.25311796356E+02  0.21271648961E+02 -0.94891777333E+02  0.10048691203E+03  0.00000000000E+00 0. -1.
<mgrwt>
<rscale>  1 0.88525216E+02</rscale>
<asrwt>0</asrwt>
<pdfrwt beam="1">  1       21 0.68942647E-03 0.88525216E+02</pdfrwt>
<pdfrwt beam="2">  1        2 0.19404569E+00 0.88525216E+02</pdfrwt>
<totfact> 0.15156155E+06</totfact>
</mgrwt>
</event>
<event>
 6    2  0.7993170E+000  0.8805544E+02  0.7546771E-02  0.1307630E+00
          2   -1    0    0  502    0 -0.00000000000E+00  0.00000000000E+00  0.37316765669E+03  0.37316765669E+03  0.00000000000E+00 0. -1.
         21   -1    0    0  501  502  0.00000000000E+00 -0.00000000000E+00 -0.23029423182E+02  0.23029423182E+02  0.00000000000E+00 0.  1.
         24    2    1    2    0    0  0.37101882661E+02  0.28013206357E+02  0.70721711934E+02  0.11293945516E+03  0.74782822669E+02 0.  0.
        -11    1    3    3    0    0  0.50998412164E+02  0.90691797854E+01  0.17352703341E+02  0.54627871810E+02  0.00000000000E+00 0.  1.
         12    1    3    3    0    0 -0.13896529503E+02  0.18944026571E+02  0.53369008593E+02  0.58311583353E+02  0.00000000000E+00 0. -1.
          1    1    1    2  501    0 -0.37101882661E+02 -0.28013206357E+02  0.27941652157E+03  0.28325762471E+03  0.00000000000E+00 0. -1.
<mgrwt>
<rscale>  1 0.88055437E+02</rscale>
<asrwt>0</asrwt>
<pdfrwt beam="1">  1       21 0.35429884E-02 0.88055437E+02</pdfrwt>
<pdfrwt beam="2">  1        2 0.57410404E-01 0.88055437E+02</pdfrwt>
<totfact> 0.48835023E+05</totfact>
</mgrwt>
</event>
<event>
 6    2  0.7993170E+000  0.8602483E+02  0.7546771E-02  0.1312774E+00
          2   -1    0    0  502    0 -0.00000000000E+00  0.00000000000E+00  0.20289547926E+04  0.20289547926E+04  0.00000000000E+00 0. -1.
         21   -1    0    0  501  502  0.00000000000E+00 -0.00000000000E+00 -0.20175540781E+01  0.20175540781E+01  0.00000000000E+00 0.  1.
         24    2    1    2    0    0 -0.28375682831E+02  0.83135961332E+01  0.18082630803E+04  0.18103081613E+04  0.80783512261E+02 0.  0.
        -11    1    3    3    0    0 -0.41380314011E+02 -0.25489232247E+02  0.11819089947E+04  0.11829078168E+04  0.00000000000E+00 0.  1.
         12    1    3    3    0    0  0.13004631180E+02  0.33802828380E+02  0.62635408567E+03  0.62740034450E+03  0.00000000000E+00 0. -1.
          1    1    1    2  501    0  0.28375682831E+02 -0.83135961332E+01  0.21867415820E+03  0.22066418540E+03  0.00000000000E+00 0. -1.
<mgrwt>
<rscale>  1 0.86024828E+02</rscale>
<asrwt>0</asrwt>
<pdfrwt beam="1">  1       21 0.31039456E-03 0.86024828E+02</pdfrwt>
<pdfrwt beam="2">  1        2 0.31214526E+00 0.86024828E+02</pdfrwt>
<totfact> 0.20865681E+06</totfact>
</mgrwt>
</event>
<event>
 6    2  0.7993170E+000  0.1147942E+03  0.7546771E-02  0.1251941E+00
         21   -1    0    0  501  502  0.00000000000E+00  0.00000000000E+00  0.38805535888E+02  0.38805535888E+02  0.00000000000E+00 0.  1.
         -1   -1    0    0    0  501 -0.00000000000E+00 -0.00000000000E+00 -0.22073613858E+03  0.22073613858E+03  0.00000000000E+00 0.  1.
         24    2    1    2    0    0  0.53480390566E+02 -0.44960312928E+02 -0.10431071412E+03  0.15510782451E+03  0.91083095205E+02 0.  0.
        -11    1    3    3    0    0  0.45222988529E+02 -0.72799239973E+02 -0.79963799638E+02  0.11721372481E+03  0.00000000000E+00 0.  1.
         12    1    3    3    0    0  0.82574020365E+01  0.27838927045E+02 -0.24346914479E+02  0.37894099700E+02  0.00000000000E+00 0. -1.
         -2    1    1    2    0  502 -0.53480390566E+02  0.44960312928E+02 -0.77619888571E+02  0.10443384995E+03  0.00000000000E+00 0.  1.
<mgrwt>
<rscale>  1 0.11479422E+03</rscale>
<asrwt>0</asrwt>
<pdfrwt beam="1">  1       21 0.59700825E-02 0.11479422E+03</pdfrwt>
<pdfrwt beam="2">  1       -1 0.33959406E-01 0.11479422E+03</pdfrwt>
<totfact> 0.14616607E+05</totfact>
</mgrwt>
</event>
<event>
 6    2  0.7993170E+000  0.8939874E+02  0.7546771E-02  0.1304314E+00
         21   -1    0    0  501  502  0.00000000000E+00  0.00000000000E+00  0.21392100760E+03  0.21392100760E+03  0.00000000000E+00 0. -1.
          2   -1    0    0  502    0 -0.00000000000E+00 -0.00000000000E+00 -0.16106282900E+02  0.16106282900E+02  0.00000000000E+00 0. -1.
         24    2    1    2    0    0 -0.25516309039E+02 -0.44118399517E+01  0.13322541603E+03  0.16044047312E+03  0.85566275947E+02 0.  0.
        -13    1    3    3    0    0  0.41696302373E+01 -0.66128257015E+01  0.13029482657E+03  0.13052914276E+03  0.00000000000E+00 0.  1.
         14    1    3    3    0    0 -0.29685939277E+02  0.22009857498E+01  0.29305894606E+01  0.29911330355E+02  0.00000000000E+00 0. -1.
          1    1    1    2  501    0  0.25516309039E+02  0.44118399517E+01  0.64589308674E+02  0.69586817385E+02  0.00000000000E+00 0. -1.
<mgrwt>
<rscale>  1 0.89398736E+02</rscale>
<asrwt>0</asrwt>
<pdfrwt beam="1">  1       21 0.32910922E-01 0.89398736E+02</pdfrwt>
<pdfrwt beam="2">  1        2 0.24778898E-02 0.89398736E+02</pdfrwt>
<totfact> 0.40503831E+05</totfact>
</mgrwt>
</event>
<event>
 6    2  0.7993170E+000  0.9084559E+02  0.7546771E-02  0.1300817E+00
         21   -1    0    0  501  502  0.00000000000E+00  0.00000000000E+00  0.73151935081E+02  0.73151935081E+02  0.00000000000E+00 0. -1.
          4   -1    0    0  502    0 -0.00000000000E+00 -0.00000000000E+00 -0.71757746587E+02  0.71757746587E+02  0.00000000000E+00 0. -1.
         24    2    1    2    0    0  0.62910480591E+01  0.43235181070E+02 -0.24540115608E+02  0.94101746293E+02  0.79649627830E+02 0.  0.
        -11    1    3    3    0    0  0.50267761364E+01 -0.23408281562E+02 -0.34491857126E+01  0.24189109245E+02  0.00000000000E+00 0.  1.
         12    1    3    3    0    0  0.12642719227E+01  0.66643462632E+02 -0.21090929896E+02  0.69912637047E+02  0.00000000000E+00 0. -1.
          3    1    1    2  501    0 -0.62910480591E+01 -0.43235181070E+02  0.25934304101E+02  0.50807935375E+02  0.00000000000E+00 0. -1.
<mgrwt>
<rscale>  1 0.90845591E+02</rscale>
<asrwt>0</asrwt>
<pdfrwt beam="1">  1       21 0.11254144E-01 0.90845591E+02</pdfrwt>
<pdfrwt beam="2">  1        4 0.11039653E-01 0.90845591E+02</pdfrwt>
<totfact> 0.15883689E+05</totfact>
</mgrwt>
</event>
<event>
 6    2  0.7993170E+000  0.8333939E+02  0.7546771E-02  0.1319833E+00
          2   -1    0    0  502    0 -0.00000000000E+00  0.00000000000E+00  0.27459760393E+03  0.27459760393E+03  0.00000000000E+00 0. -1.
         21   -1    0    0  501  502  0.00000000000E+00 -0.00000000000E+00 -0.10240146971E+02  0.10240146971E+02  0.00000000000E+00 0.  1.
         24    2    1    2    0    0  0.21747079037E+02 -0.45879524766E+01  0.21916903653E+03  0.23447925514E+03  0.80321041839E+02 0.  0.
        -11    1    3    3    0    0  0.46905634795E+02  0.15431159459E+02  0.10797392657E+03  0.11872922167E+03  0.00000000000E+00 0.  1.
         12    1    3    3    0    0 -0.25158555758E+02 -0.20019111936E+02  0.11119510995E+03  0.11575003347E+03  0.00000000000E+00 0. -1.
          1    1    1    2  501    0 -0.21747079037E+02  0.45879524766E+01  0.45188420434E+02  0.50358495767E+02  0.00000000000E+00 0. -1.
<mgrwt>
<rscale>  1 0.83339394E+02</rscale>
<asrwt>0</asrwt>
<pdfrwt beam="1">  1       21 0.15754074E-02 0.83339394E+02</pdfrwt>
<pdfrwt beam="2">  1        2 0.42245780E-01 0.83339394E+02</pdfrwt>
<totfact> 0.24620121E+06</totfact>
</mgrwt>
</event>
<event>
 6    2  0.7993170E+000  0.8861929E+02  0.7546771E-02  0.1306230E+00
          2   -1    0    0  502    0 -0.00000000000E+00  0.00000000000E+00  0.22987172251E+02  0.22987172251E+02  0.00000000000E+00 0. -1.
         21   -1    0    0  501  502  0.00000000000E+00 -0.00000000000E+00 -0.21432324729E+03  0.21432324729E+03  0.00000000000E+00 0.  1.
         24    2    1    2    0    0 -0.34583196680E+02  0.63301289671E+01 -0.17955152284E+03  0.20023018632E+03  0.81346850797E+02 0.  0.
        -13    1    3    3    0    0 -0.48191706745E+02  0.23246627272E+02 -0.16652836430E+03  0.17491295663E+03  0.00000000000E+00 0.  1.
         14    1    3    3    0    0  0.13608510064E+02 -0.16916498305E+02 -0.13023158536E+02  0.25317229693E+02  0.00000000000E+00 0. -1.
          1    1    1    2  501    0  0.34583196680E+02 -0.63301289671E+01 -0.11784552205E+02  0.37080233225E+02  0.00000000000E+00 0. -1.
<mgrwt>
<rscale>  1 0.88619288E+02</rscale>
<asrwt>0</asrwt>
<pdfrwt beam="1">  1       21 0.32972807E-01 0.88619288E+02</pdfrwt>
<pdfrwt beam="2">  1        2 0.35364880E-02 0.88619288E+02</pdfrwt>
<totfact> 0.25147590E+05</totfact>
</mgrwt>
</event>
<event>
 6    2  0.7993170E+000  0.9275419E+02  0.7546771E-02  0.1296316E+00
         21   -1    0    0  501  502  0.00000000000E+00  0.00000000000E+00  0.83510512512E+01  0.83510512512E+01  0.00000000000E+00 0.  1.
          2   -1    0    0  502    0 -0.00000000000E+00 -0.00000000000E+00 -0.49059201516E+03  0.49059201516E+03  0.00000000000E+00 0. -1.
         24    2    1    2    0    0  0.21358746599E+02  0.24579846538E+02 -0.39706437360E+03  0.40775416112E+03  0.86850297718E+02 0.  0.
        -13    1    3    3    0    0 -0.90543980053E+01  0.48824497519E+02 -0.16025855588E+03  0.16777550004E+03  0.00000000000E+00 0.  1.
         14    1    3    3    0    0  0.30413144604E+02 -0.24244650981E+02 -0.23680581772E+03  0.23997866108E+03  0.00000000000E+00 0. -1.
          1    1    1    2  501    0 -0.21358746599E+02 -0.24579846538E+02 -0.85176590307E+02  0.91188905293E+02  0.00000000000E+00 0. -1.
<mgrwt>
<rscale>  1 0.92754187E+02</rscale>
<asrwt>0</asrwt>
<pdfrwt beam="1">  1       21 0.12847769E-02 0.92754187E+02</pdfrwt>
<pdfrwt beam="2">  1        2 0.75475707E-01 0.92754187E+02</pdfrwt>
<totfact> 0.18699034E+06</totfact>
</mgrwt>
</event>
<event>
 6    2  0.7993170E+000  0.7545282E+02  0.7546771E-02  0.1342474E+00
         21   -1    0    0  501  502  0.00000000000E+00  0.00000000000E+00  0.12644656539E+03  0.12644656539E+03  0.00000000000E+00 0. -1.
         -1   -1    0    0    0  501 -0.00000000000E+00 -0.00000000000E+00 -0.20394881930E+02  0.20394881930E+02  0.00000000000E+00 0.  1.
         24    2    1    2    0    0  0.15258264865E+02  0.16654658426E+02  0.96040658753E+02  0.12213491155E+03  0.71992612070E+02 0.  0.
        -11    1    3    3    0    0  0.38118211831E+01  0.26799438659E+02  0.23133569747E+01  0.27167839695E+02  0.00000000000E+00 0.  1.
         12    1    3    3    0    0  0.11446443682E+02 -0.10144780233E+02  0.93727301779E+02  0.94967071860E+02  0.00000000000E+00 0. -1.
         -2    1    1    2    0  502 -0.15258264865E+02 -0.16654658426E+02  0.10011024710E+02  0.24706535770E+02  0.00000000000E+00 0.  1.
<mgrwt>
<rscale>  1 0.75452823E+02</rscale>
<asrwt>0</asrwt>
<pdfrwt beam="1">  1       21 0.19453317E-01 0.75452823E+02</pdfrwt>
<pdfrwt beam="2">  1       -1 0.31376742E-02 0.75452823E+02</pdfrwt>
<totfact> 0.68330324E+05</totfact>
</mgrwt>
</event>
<event>
 6    2  0.7993170E+000  0.8118458E+02  0.7546771E-02  0.1325723E+00
         21   -1    0    0  501  502  0.00000000000E+00  0.00000000000E+00  0.11793279767E+03  0.11793279767E+03  0.00000000000E+00 0.  1.
          4   -1    0    0  502    0 -0.00000000000E+00 -0.00000000000E+00 -0.25176716221E+02  0.25176716221E+02  0.00000000000E+00 0. -1.
         24    2    1    2    0    0  0.21855252759E+02  0.31427073964E+01  0.89424626669E+02  0.12077955030E+03  0.78124306292E+02 0.  0.
        -11    1    3    3    0    0  0.74162482255E+01 -0.12393131384E+02  0.97141834662E+02  0.98209604850E+02  0.00000000000E+00 0.  1.
         12    1    3    3    0    0  0.14439004533E+02  0.15535838781E+02 -0.77172079934E+01  0.22569945453E+02  0.00000000000E+00 0. -1.
          3    1    1    2  501    0 -0.21855252759E+02 -0.31427073964E+01  0.33314547807E+01  0.22329963589E+02  0.00000000000E+00 0. -1.
<mgrwt>
<rscale>  1 0.81184579E+02</rscale>
<asrwt>0</asrwt>
<pdfrwt beam="1">  1       21 0.18143507E-01 0.81184579E+02</pdfrwt>
<pdfrwt beam="2">  1        4 0.38733410E-02 0.81184579E+02</pdfrwt>
<totfact> 0.36336006E+05</totfact>
</mgrwt>
</event>
<event>
 6    2  0.7993170E+000  0.8712701E+02  0.7546771E-02  0.1309962E+00
         -1   -1    0    0    0  501 -0.00000000000E+00  0.00000000000E+00  0.39151770049E+02  0.39151770049E+02  0.00000000000E+00 0.  1.
         21   -1    0    0  501  502  0.00000000000E+00 -0.00000000000E+00 -0.10107707414E+03  0.10107707414E+03  0.00000000000E+00 0. -1.
         24    2    1    2    0    0 -0.30983942528E+02 -0.13317432748E+01 -0.65512955256E+02  0.10900946758E+03  0.81420749698E+02 0.  0.
        -13    1    3    3    0    0  0.24556272727E+02 -0.13140048411E+02 -0.99767563063E+01  0.29583898811E+02  0.00000000000E+00 0.  1.
         14    1    3    3    0    0 -0.55540215255E+02  0.11808305136E+02 -0.55536198950E+02  0.79425568771E+02  0.00000000000E+00 0. -1.
         -2    1    1    2    0  502  0.30983942528E+02  0.13317432748E+01  0.35876511665E+01  0.31219376606E+02  0.00000000000E+00 0.  1.
<mgrwt>
<rscale>  1 0.87127015E+02</rscale>
<asrwt>0</asrwt>
<pdfrwt beam="1">  1       21 0.15550319E-01 0.87127015E+02</pdfrwt>
<pdfrwt beam="2">  1       -1 0.60233492E-02 0.87127015E+02</pdfrwt>
<totfact> 0.40340445E+05</totfact>
</mgrwt>
</event>
<event>
 6    2  0.7993170E+000  0.8154405E+02  0.7546771E-02  0.1324726E+00
         -1   -1    0    0    0  501 -0.00000000000E+00  0.00000000000E+00  0.15430457378E+04  0.15430457378E+04  0.00000000000E+00 0.  1.
         21   -1    0    0  501  502  0.00000000000E+00 -0.00000000000E+00 -0.14680249046E+02  0.14680249046E+02  0.00000000000E+00 0.  1.
         24    2    1    2    0    0 -0.59878318097E+02  0.51450473026E+01  0.14753010885E+04  0.14775529549E+04  0.55113955439E+02 0.  0.
        -13    1    3    3    0    0 -0.64625752703E+02  0.54201707940E+01  0.14618175165E+04  0.14632553836E+04  0.00000000000E+00 0.  1.
         14    1    3    3    0    0  0.47474346060E+01 -0.27512349136E+00  0.13483572028E+02  0.14297571224E+02  0.00000000000E+00 0. -1.
         -2    1    1    2    0  502  0.59878318097E+02 -0.51450473026E+01  0.53064400259E+02  0.80173032029E+02  0.00000000000E+00 0.  1.
<mgrwt>
<rscale>  1 0.81544053E+02</rscale>
<asrwt>0</asrwt>
<pdfrwt beam="1">  1       21 0.22585011E-02 0.81544053E+02</pdfrwt>
<pdfrwt beam="2">  1       -1 0.23739152E+00 0.81544053E+02</pdfrwt>
<totfact> 0.92967296E+03</totfact>
</mgrwt>
</event>
<event>
 6    2  0.7993170E+000  0.1135904E+03  0.7546771E-02  0.1254062E+00
         21   -1    0    0  501  502  0.00000000000E+00  0.00000000000E+00  0.14399910948E+03  0.14399910948E+03  0.00000000000E+00 0.  1.
          4   -1    0    0  502    0 -0.00000000000E+00 -0.00000000000E+00 -0.74844539605E+02  0.74844539605E+02  0.00000000000E+00 0. -1.
         24    2    1    2    0    0  0.35070479632E+02 -0.72127157881E+02  0.99990143296E+00  0.11359478080E+03  0.80439473988E+02 0.  0.
        -13    1    3    3    0    0  0.97850624019E+01 -0.34517513409E+02  0.40051562087E+02  0.53771124256E+02  0.00000000000E+00 0.  1.
         14    1    3    3    0    0  0.25285417230E+02 -0.37609644473E+02 -0.39051660655E+02  0.59823656539E+02  0.00000000000E+00 0. -1.
          3    1    1    2  501    0 -0.35070479632E+02  0.72127157881E+02  0.68154668441E+02  0.10524886829E+03  0.00000000000E+00 0. -1.
<mgrwt>
<rscale>  1 0.11359038E+03</rscale>
<asrwt>0</asrwt>
<pdfrwt beam="1">  1       21 0.22153709E-01 0.11359038E+03</pdfrwt>
<pdfrwt beam="2">  1        4 0.11514545E-01 0.11359038E+03</pdfrwt>
<totfact> 0.45169680E+04</totfact>
</mgrwt>
</event>
<event>
 6    2  0.7993170E+000  0.9114709E+02  0.7546771E-02  0.1300097E+00
          2   -1    0    0  502    0 -0.00000000000E+00  0.00000000000E+00  0.12366151459E+04  0.12366151459E+04  0.00000000000E+00 0. -1.
         21   -1    0    0  501  502  0.00000000000E+00 -0.00000000000E+00 -0.53448326760E+01  0.53448326760E+01  0.00000000000E+00 0. -1.
         24    2    1    2    0    0 -0.41124790888E+01  0.39027806450E+02  0.11248086623E+04  0.11284955997E+04  0.82266089919E+02 0.  0.
        -11    1    3    3    0    0 -0.41089700054E+01 -0.23191382943E+01  0.23417662771E+01  0.52674382986E+01  0.00000000000E+00 0.  1.
         12    1    3    3    0    0 -0.35090833787E-02  0.41346944745E+02  0.11224668960E+04  0.11232281614E+04  0.00000000000E+00 0. -1.
          1    1    1    2  501    0  0.41124790888E+01 -0.39027806450E+02  0.10646165090E+03  0.11346437887E+03  0.00000000000E+00 0. -1.
<mgrwt>
<rscale>  1 0.91147088E+02</rscale>
<asrwt>0</asrwt>
<pdfrwt beam="1">  1       21 0.82228294E-03 0.91147088E+02</pdfrwt>
<pdfrwt beam="2">  1        2 0.19024826E+00 0.91147088E+02</pdfrwt>
<totfact> 0.11917918E+06</totfact>
</mgrwt>
</event>
<event>
 6    2  0.7993170E+000  0.8393464E+02  0.7546771E-02  0.1318242E+00
          4   -1    0    0  502    0 -0.00000000000E+00  0.00000000000E+00  0.73814000870E+03  0.73814000870E+03  0.00000000000E+00 0. -1.
         21   -1    0    0  501  502  0.00000000000E+00 -0.00000000000E+00 -0.48942016513E+01  0.48942016513E+01  0.00000000000E+00 0.  1.
         24    2    1    2    0    0 -0.33381573506E+02 -0.25753325279E+01  0.44463603508E+03  0.45248892600E+03  0.76967932717E+02 0.  0.
        -13    1    3    3    0    0 -0.40835091021E+02 -0.59420358886E+01  0.10592278351E+03  0.11367694804E+03  0.00000000000E+00 0.  1.
         14    1    3    3    0    0  0.74535175147E+01  0.33667033607E+01  0.33871325157E+03  0.33881197796E+03  0.00000000000E+00 0. -1.
          3    1    1    2  501    0  0.33381573506E+02  0.25753325279E+01  0.28860977196E+03  0.29054528435E+03  0.00000000000E+00 0. -1.
<mgrwt>
<rscale>  1 0.83934644E+02</rscale>
<asrwt>0</asrwt>
<pdfrwt beam="1">  1       21 0.75295468E-03 0.83934644E+02</pdfrwt>
<pdfrwt beam="2">  1        4 0.11355991E+00 0.83934644E+02</pdfrwt>
<totfact> 0.13746023E+05</totfact>
</mgrwt>
</event>
<event>
 6    2  0.7993170E+000  0.1462310E+03  0.7546771E-02  0.1205182E+00
         21   -1    0    0  501  502  0.00000000000E+00  0.00000000000E+00  0.58630991299E+02  0.58630991299E+02  0.00000000000E+00 0. -1.
          2   -1    0    0  502    0 -0.00000000000E+00 -0.00000000000E+00 -0.37112432448E+03  0.37112432448E+03  0.00000000000E+00 0. -1.
         24    2    1    2    0    0 -0.36946399748E+02  0.11481816943E+03 -0.25981003587E+03  0.29813549090E+03  0.82675677864E+02 0.  0.
        -11    1    3    3    0    0 -0.97550856174E+01  0.85549762098E+02 -0.93552740145E+02  0.12714573795E+03  0.00000000000E+00 0.  1.
         12    1    3    3    0    0 -0.27191314131E+02  0.29268407330E+02 -0.16625729573E+03  0.17098975295E+03  0.00000000000E+00 0. -1.
          1    1    1    2  501    0  0.36946399748E+02 -0.11481816943E+03 -0.52683297308E+02  0.13161982488E+03  0.00000000000E+00 0. -1.
<mgrwt>
<rscale>  1 0.14623104E+03</rscale>
<asrwt>0</asrwt>
<pdfrwt beam="1">  1       21 0.90201525E-02 0.14623104E+03</pdfrwt>
<pdfrwt beam="2">  1        2 0.57096050E-01 0.14623104E+03</pdfrwt>
<totfact> 0.10441770E+05</totfact>
</mgrwt>
</event>
<event>
 6    2  0.7993170E+000  0.1642727E+03  0.7546771E-02  0.1183956E+00
         21   -1    0    0  501  502  0.00000000000E+00  0.00000000000E+00  0.41276536091E+02  0.41276536091E+02  0.00000000000E+00 0. -1.
          2   -1    0    0  502    0 -0.00000000000E+00 -0.00000000000E+00 -0.89718769958E+03  0.89718769958E+03  0.00000000000E+00 0. -1.
         24    2    1    2    0    0 -0.14143443790E+03  0.21096013568E+02 -0.16471096835E+03  0.23262682395E+03  0.80850442893E+02 0.  0.
        -13    1    3    3    0    0 -0.21218917566E+02 -0.25190292694E+02 -0.51496432724E+02  0.61128355875E+02  0.00000000000E+00 0.  1.
         14    1    3    3    0    0 -0.12021552034E+03  0.46286306262E+02 -0.11321453562E+03  0.17149846808E+03  0.00000000000E+00 0. -1.
          1    1    1    2  501    0  0.14143443790E+03 -0.21096013568E+02 -0.69120019514E+03  0.70583741171E+03  0.00000000000E+00 0. -1.
<mgrwt>
<rscale>  1 0.16427275E+03</rscale>
<asrwt>0</asrwt>
<pdfrwt beam="1">  1       21 0.63502365E-02 0.16427275E+03</pdfrwt>
<pdfrwt beam="2">  1        2 0.13802887E+00 0.16427275E+03</pdfrwt>
<totfact> 0.69310109E+04</totfact>
</mgrwt>
</event>
<event>
 6    2  0.7993170E+000  0.1057504E+03  0.7546771E-02  0.1268648E+00
         21   -1    0    0  501  502  0.00000000000E+00  0.00000000000E+00  0.40500195280E+02  0.40500195280E+02  0.00000000000E+00 0. -1.
          2   -1    0    0  502    0 -0.00000000000E+00 -0.00000000000E+00 -0.28867315849E+03  0.28867315849E+03  0.00000000000E+00 0. -1.
         24    2    1    2    0    0  0.87295933896E+00 -0.68761312530E+02 -0.23697582094E+03  0.25950086168E+03  0.80338517192E+02 0.  0.
        -13    1    3    3    0    0 -0.63721669222E+01  0.14945148401E+02 -0.78148972622E+02  0.79819946717E+02  0.00000000000E+00 0.  1.
         14    1    3    3    0    0  0.72451262612E+01 -0.83706460930E+02 -0.15882684832E+03  0.17968091496E+03  0.00000000000E+00 0. -1.
          1    1    1    2  501    0 -0.87295933896E+00  0.68761312530E+02 -0.11197142270E+02  0.69672492088E+02  0.00000000000E+00 0. -1.
<mgrwt>
<rscale>  1 0.10575045E+03</rscale>
<asrwt>0</asrwt>
<pdfrwt beam="1">  1       21 0.62307990E-02 0.10575045E+03</pdfrwt>
<pdfrwt beam="2">  1        2 0.44411257E-01 0.10575045E+03</pdfrwt>
<totfact> 0.25336434E+05</totfact>
</mgrwt>
</event>
<event>
 6    2  0.7993170E+000  0.1022969E+03  0.7546771E-02  0.1275539E+00
         21   -1    0    0  501  502  0.00000000000E+00  0.00000000000E+00  0.21601124009E+02  0.21601124009E+02  0.00000000000E+00 0. -1.
          2   -1    0    0  502    0 -0.00000000000E+00 -0.00000000000E+00 -0.72253145108E+03  0.72253145108E+03  0.00000000000E+00 0. -1.
         24    2    1    2    0    0  0.58766803456E+02 -0.18359687078E+02 -0.66505169298E+03  0.67287324811E+03  0.81694787945E+02 0.  0.
        -13    1    3    3    0    0 -0.19390122221E+02 -0.58553284199E-01 -0.78748403802E+02  0.81100501661E+02  0.00000000000E+00 0.  1.
         14    1    3    3    0    0  0.78156925678E+02 -0.18301133794E+02 -0.58630328918E+03  0.59177274645E+03  0.00000000000E+00 0. -1.
          1    1    1    2  501    0 -0.58766803456E+02  0.18359687078E+02 -0.35878634086E+02  0.71259326982E+02  0.00000000000E+00 0. -1.
<mgrwt>
<rscale>  1 0.10229689E+03</rscale>
<asrwt>0</asrwt>
<pdfrwt beam="1">  1       21 0.33232505E-02 0.10229689E+03</pdfrwt>
<pdfrwt beam="2">  1        2 0.11115866E+00 0.10229689E+03</pdfrwt>
<totfact> 0.26518093E+05</totfact>
</mgrwt>
</event>
<event>
 6    2  0.7993170E+000  0.8390949E+02  0.7546771E-02  0.1318309E+00
          2   -1    0    0  502    0 -0.00000000000E+00  0.00000000000E+00  0.94455468184E+02  0.94455468184E+02  0.00000000000E+00 0. -1.
         21   -1    0    0  501  502  0.00000000000E+00 -0.00000000000E+00 -0.19224990167E+03  0.19224990167E+03  0.00000000000E+00 0. -1.
         24    2    1    2    0    0 -0.16071970947E+02 -0.15352648807E+02  0.74966752982E+02  0.11252029694E+03  0.80912243175E+02 0.  0.
        -11    1    3    3    0    0  0.10875748304E+02  0.21359246343E+02 -0.95474509992E+00  0.23987722771E+02  0.00000000000E+00 0.  1.
         12    1    3    3    0    0 -0.26947719251E+02 -0.36711895150E+02  0.75921498082E+02  0.88532574171E+02  0.00000000000E+00 0. -1.
          1    1    1    2  501    0  0.16071970947E+02  0.15352648807E+02 -0.17276118647E+03  0.17418507291E+03  0.00000000000E+00 0. -1.
<mgrwt>
<rscale>  1 0.83909494E+02</rscale>
<asrwt>0</asrwt>
<pdfrwt beam="1">  1       21 0.29576908E-01 0.83909494E+02</pdfrwt>
<pdfrwt beam="2">  1        2 0.14531611E-01 0.83909494E+02</pdfrwt>
<totfact> 0.53082725E+04</totfact>
</mgrwt>
</event>
<event>
 6    2  0.7993170E+000  0.8392949E+02  0.7546771E-02  0.1318256E+00
          2   -1    0    0  502    0 -0.00000000000E+00  0.00000000000E+00  0.17559794473E+04  0.17559794473E+04  0.00000000000E+00 0. -1.
         21   -1    0    0  501  502  0.00000000000E+00 -0.00000000000E+00 -0.76691016561E+01  0.76691016561E+01  0.00000000000E+00 0. -1.
         24    2    1    2    0    0 -0.10622719029E+02 -0.17086495777E+02  0.17397671784E+04  0.17417904565E+04  0.81482322130E+02 0.  0.
        -13    1    3    3    0    0 -0.31357262378E+02 -0.11974221758E+02  0.30115669137E+03  0.30302147226E+03  0.00000000000E+00 0.  1.
         14    1    3    3    0    0  0.20734543350E+02 -0.51122740193E+01  0.14386104871E+04  0.14387689843E+04  0.00000000000E+00 0. -1.
          1    1    1    2  501    0  0.10622719029E+02  0.17086495777E+02  0.85431671779E+01  0.21858092390E+02  0.00000000000E+00 0. -1.
<mgrwt>
<rscale>  1 0.83929490E+02</rscale>
<asrwt>0</asrwt>
<pdfrwt beam="1">  1       21 0.11798632E-02 0.83929490E+02</pdfrwt>
<pdfrwt beam="2">  1        2 0.27015036E+00 0.83929490E+02</pdfrwt>
<totfact> 0.36561957E+05</totfact>
</mgrwt>
</event>
<event>
 6    2  0.7993170E+000  0.1000265E+03  0.7546771E-02  0.1280240E+00
         21   -1    0    0  501  502  0.00000000000E+00  0.00000000000E+00  0.15111847477E+03  0.15111847477E+03  0.00000000000E+00 0. -1.
          2   -1    0    0  502    0 -0.00000000000E+00 -0.00000000000E+00 -0.20078459363E+03  0.20078459363E+03  0.00000000000E+00 0. -1.
         24    2    1    2    0    0  0.57477294131E+02 -0.15183508901E+02 -0.18152641538E+03  0.20726104104E+03  0.80443280445E+02 0.  0.
        -11    1    3    3    0    0  0.41950348692E+02 -0.33903364487E+02 -0.50141543001E+02  0.73644037188E+02  0.00000000000E+00 0.  1.
         12    1    3    3    0    0  0.15526945439E+02  0.18719855586E+02 -0.13138487238E+03  0.13361700385E+03  0.00000000000E+00 0. -1.
          1    1    1    2  501    0 -0.57477294131E+02  0.15183508901E+02  0.13186029652E+03  0.14464202737E+03  0.00000000000E+00 0. -1.
<mgrwt>
<rscale>  1 0.10002649E+03</rscale>
<asrwt>0</asrwt>
<pdfrwt beam="1">  1       21 0.23248996E-01 0.10002649E+03</pdfrwt>
<pdfrwt beam="2">  1        2 0.30889937E-01 0.10002649E+03</pdfrwt>
<totfact> 0.36262061E+04</totfact>
</mgrwt>
</event>
<event>
 6    2  0.7993170E+000  0.8706091E+02  0.7546771E-02  0.1310129E+00
         21   -1    0    0  501  502  0.00000000000E+00  0.00000000000E+00  0.57408462592E+02  0.57408462592E+02  0.00000000000E+00 0. -1.
         -1   -1    0    0    0  501 -0.00000000000E+00 -0.00000000000E+00 -0.90818280743E+02  0.90818280743E+02  0.00000000000E+00 0.  1.
         24    2    1    2    0    0  0.30546590427E+02 -0.32405215198E+02  0.79846525552E+01  0.87426296266E+02  0.74809160158E+02 0.  0.
        -11    1    3    3    0    0  0.16231307212E+02 -0.46326407303E+02 -0.20035588998E+02  0.53019017097E+02  0.00000000000E+00 0.  1.
         12    1    3    3    0    0  0.14315283214E+02  0.13921192104E+02  0.28020241554E+02  0.34407279169E+02  0.00000000000E+00 0. -1.
         -2    1    1    2    0  502 -0.30546590427E+02  0.32405215198E+02 -0.41394470705E+02  0.60800447069E+02  0.00000000000E+00 0.  1.
<mgrwt>
<rscale>  1 0.87060913E+02</rscale>
<asrwt>0</asrwt>
<pdfrwt beam="1">  1       21 0.88320711E-02 0.87060913E+02</pdfrwt>
<pdfrwt beam="2">  1       -1 0.13972043E-01 0.87060913E+02</pdfrwt>
<totfact> 0.30676017E+05</totfact>
</mgrwt>
</event>
<event>
 6    2  0.7993170E+000  0.8620487E+02  0.7546771E-02  0.1312311E+00
         21   -1    0    0  501  502  0.00000000000E+00  0.00000000000E+00  0.25598102356E+01  0.25598102356E+01  0.00000000000E+00 0.  1.
          2   -1    0    0  502    0 -0.00000000000E+00 -0.00000000000E+00 -0.12203293635E+04  0.12203293635E+04  0.00000000000E+00 0. -1.
         24    2    1    2    0    0 -0.21022365481E+02  0.11500049211E+02 -0.10290470153E+04  0.10326514610E+04  0.82807544231E+02 0.  0.
        -13    1    3    3    0    0 -0.17300998057E+02  0.11276503419E+02 -0.57479822587E+02  0.61077115745E+02  0.00000000000E+00 0.  1.
         14    1    3    3    0    0 -0.37213674242E+01  0.22354579200E+00 -0.97156719268E+03  0.97157434530E+03  0.00000000000E+00 0. -1.
          1    1    1    2  501    0  0.21022365481E+02 -0.11500049211E+02 -0.18872253795E+03  0.19023771265E+03  0.00000000000E+00 0. -1.
<mgrwt>
<rscale>  1 0.86204874E+02</rscale>
<asrwt>0</asrwt>
<pdfrwt beam="1">  1       21 0.39381630E-03 0.86204874E+02</pdfrwt>
<pdfrwt beam="2">  1        2 0.18774330E+00 0.86204874E+02</pdfrwt>
<totfact> 0.37520635E+06</totfact>
</mgrwt>
</event>
<event>
 6    2  0.7993170E+000  0.8903148E+02  0.7546771E-02  0.1305214E+00
          2   -1    0    0  502    0 -0.00000000000E+00  0.00000000000E+00  0.15041128740E+03  0.15041128740E+03  0.00000000000E+00 0. -1.
         21   -1    0    0  501  502  0.00000000000E+00 -0.00000000000E+00 -0.33082340990E+02  0.33082340990E+02  0.00000000000E+00 0.  1.
         24    2    1    2    0    0 -0.32647025629E+02  0.15394658018E+02  0.11747242509E+03  0.14739869296E+03  0.81386609774E+02 0.  0.
        -11    1    3    3    0    0  0.24436942238E+02  0.10616507019E+01  0.13537497883E+02  0.27956306929E+02  0.00000000000E+00 0.  1.
         12    1    3    3    0    0 -0.57083967868E+02  0.14333007316E+02  0.10393492721E+03  0.11944238603E+03  0.00000000000E+00 0. -1.
          1    1    1    2  501    0  0.32647025629E+02 -0.15394658018E+02 -0.14347867949E+00  0.36094935435E+02  0.00000000000E+00 0. -1.
<mgrwt>
<rscale>  1 0.89031478E+02</rscale>
<asrwt>0</asrwt>
<pdfrwt beam="1">  1       21 0.50895910E-02 0.89031478E+02</pdfrwt>
<pdfrwt beam="2">  1        2 0.23140198E-01 0.89031478E+02</pdfrwt>
<totfact> 0.70424344E+05</totfact>
</mgrwt>
</event>
<event>
 6    2  0.7993170E+000  0.8591484E+02  0.7546771E-02  0.1313057E+00
         21   -1    0    0  501  502  0.00000000000E+00  0.00000000000E+00  0.59435039274E+02  0.59435039274E+02  0.00000000000E+00 0.  1.
          4   -1    0    0  502    0 -0.00000000000E+00 -0.00000000000E+00 -0.12479017527E+03  0.12479017527E+03  0.00000000000E+00 0. -1.
         24    2    1    2    0    0 -0.27568296889E+02  0.17727236312E+02 -0.10312025350E+03  0.13422051477E+03  0.79417214772E+02 0.  0.
        -11    1    3    3    0    0 -0.13691484559E+02  0.19528008307E+02  0.56861512627E+01  0.24517996942E+02  0.00000000000E+00 0.  1.
         12    1    3    3    0    0 -0.13876812330E+02 -0.18007719955E+01 -0.10880640476E+03  0.10970251782E+03  0.00000000000E+00 0. -1.
          3    1    1    2  501    0  0.27568296889E+02 -0.17727236312E+02  0.37765117498E+02  0.50004699781E+02  0.00000000000E+00 0. -1.
<mgrwt>
<rscale>  1 0.85914841E+02</rscale>
<asrwt>0</asrwt>
<pdfrwt beam="1">  1       21 0.91438522E-02 0.85914841E+02</pdfrwt>
<pdfrwt beam="2">  1        4 0.19198488E-01 0.85914841E+02</pdfrwt>
<totfact> 0.86774173E+04</totfact>
</mgrwt>
</event>
<event>
 6    2  0.7993170E+000  0.9779715E+02  0.7546771E-02  0.1284998E+00
          2   -1    0    0  502    0 -0.00000000000E+00  0.00000000000E+00  0.21527911293E+04  0.21527911293E+04  0.00000000000E+00 0. -1.
         21   -1    0    0  501  502  0.00000000000E+00 -0.00000000000E+00 -0.28595473815E+01  0.28595473815E+01  0.00000000000E+00 0.  1.
         24    2    1    2    0    0  0.86788979637E+01  0.53957648365E+02  0.11164712391E+04  0.11207463182E+04  0.81101978201E+02 0.  0.
        -11    1    3    3    0    0  0.10278235861E+02  0.59715615846E+02  0.11109780059E+04  0.11126291954E+04  0.00000000000E+00 0.  1.
         12    1    3    3    0    0 -0.15993378974E+01 -0.57579674810E+01  0.54932332908E+01  0.81171228406E+01  0.00000000000E+00 0. -1.
          1    1    1    2  501    0 -0.86788979637E+01 -0.53957648365E+02  0.10334603428E+04  0.10349043584E+04  0.00000000000E+00 0. -1.
<mgrwt>
<rscale>  1 0.97797147E+02</rscale>
<asrwt>0</asrwt>
<pdfrwt beam="1">  1       21 0.43993209E-03 0.97797147E+02</pdfrwt>
<pdfrwt beam="2">  1        2 0.33119734E+00 0.97797147E+02</pdfrwt>
<totfact> 0.10702518E+06</totfact>
</mgrwt>
</event>
<event>
 6    2  0.7993170E+000  0.1012590E+03  0.7546771E-02  0.1277670E+00
         -1   -1    0    0    0  501 -0.00000000000E+00  0.00000000000E+00  0.42069699713E+03  0.42069699713E+03  0.00000000000E+00 0.  1.
         21   -1    0    0  501  502  0.00000000000E+00 -0.00000000000E+00 -0.22499618547E+02  0.22499618547E+02  0.00000000000E+00 0.  1.
         24    2    1    2    0    0  0.33846885222E+00  0.61225125925E+02  0.35261436588E+03  0.36686548407E+03  0.80652103322E+02 0.  0.
        -11    1    3    3    0    0  0.27684053911E+02  0.37376614064E+02  0.85809988015E+02  0.97605185123E+02  0.00000000000E+00 0.  1.
         12    1    3    3    0    0 -0.27345585059E+02  0.23848511861E+02  0.26680437787E+03  0.26926029895E+03  0.00000000000E+00 0. -1.
         -2    1    1    2    0  502 -0.33846885222E+00 -0.61225125925E+02  0.45583012704E+02  0.76331131610E+02  0.00000000000E+00 0.  1.
<mgrwt>
<rscale>  1 0.10125904E+03</rscale>
<asrwt>0</asrwt>
<pdfrwt beam="1">  1       21 0.34614801E-02 0.10125904E+03</pdfrwt>
<pdfrwt beam="2">  1       -1 0.64722609E-01 0.10125904E+03</pdfrwt>
<totfact> 0.11264940E+05</totfact>
</mgrwt>
</event>
<event>
 6    2  0.7993170E+000  0.9386254E+02  0.7546771E-02  0.1293759E+00
         21   -1    0    0  501  502  0.00000000000E+00  0.00000000000E+00  0.51255759140E+01  0.51255759140E+01  0.00000000000E+00 0. -1.
          2   -1    0    0  502    0 -0.00000000000E+00 -0.00000000000E+00 -0.12551889035E+04  0.12551889035E+04  0.00000000000E+00 0. -1.
         24    2    1    2    0    0 -0.45512569284E+02  0.13255862247E+02 -0.49863381497E+03  0.50739122684E+03  0.81012738436E+02 0.  0.
        -13    1    3    3    0    0 -0.96881464754E+01  0.26400494873E+02 -0.51888958076E+02  0.59019575412E+02  0.00000000000E+00 0.  1.
         14    1    3    3    0    0 -0.35824422809E+02 -0.13144632626E+02 -0.44674485690E+03  0.44837165142E+03  0.00000000000E+00 0. -1.
          1    1    1    2  501    0  0.45512569284E+02 -0.13255862247E+02 -0.75142951265E+03  0.75292325261E+03  0.00000000000E+00 0. -1.
<mgrwt>
<rscale>  1 0.93862536E+02</rscale>
<asrwt>0</asrwt>
<pdfrwt beam="1">  1       21 0.78854996E-03 0.93862536E+02</pdfrwt>
<pdfrwt beam="2">  1        2 0.19310603E+00 0.93862536E+02</pdfrwt>
<totfact> 0.12457372E+06</totfact>
</mgrwt>
</event>
<event>
 6    2  0.7993170E+000  0.8423977E+02  0.7546771E-02  0.1317433E+00
          2   -1    0    0  502    0 -0.00000000000E+00  0.00000000000E+00  0.13937047696E+02  0.13937047696E+02  0.00000000000E+00 0. -1.
         21   -1    0    0  501  502  0.00000000000E+00 -0.00000000000E+00 -0.22063911104E+03  0.22063911104E+03  0.00000000000E+00 0.  1.
         24    2    1    2    0    0 -0.23545448681E+01  0.26504434236E+02 -0.16026353328E+03  0.18105451834E+03  0.79926901588E+02 0.  0.
        -13    1    3    3    0    0 -0.19303692760E+02 -0.86039693388E+01 -0.12998508658E+03  0.13169200270E+03  0.00000000000E+00 0.  1.
         14    1    3    3    0    0  0.16949147892E+02  0.35108403575E+02 -0.30278446701E+02  0.49362515642E+02  0.00000000000E+00 0. -1.
          1    1    1    2  501    0  0.23545448681E+01 -0.26504434236E+02 -0.46438530059E+02  0.53521640388E+02  0.00000000000E+00 0. -1.
<mgrwt>
<rscale>  1 0.84239768E+02</rscale>
<asrwt>0</asrwt>
<pdfrwt beam="1">  1       21 0.33944477E-01 0.84239768E+02</pdfrwt>
<pdfrwt beam="2">  1        2 0.21441613E-02 0.84239768E+02</pdfrwt>
<totfact> 0.46046047E+05</totfact>
</mgrwt>
</event>
<event>
 6    2  0.7993170E+000  0.8454327E+02  0.7546771E-02  0.1316631E+00
         -1   -1    0    0    0  501 -0.00000000000E+00  0.00000000000E+00  0.33041997854E+03  0.33041997854E+03  0.00000000000E+00 0.  1.
         21   -1    0    0  501  502  0.00000000000E+00 -0.00000000000E+00 -0.13841605849E+02  0.13841605849E+02  0.00000000000E+00 0.  1.
         24    2    1    2    0    0 -0.13667471639E+02 -0.23715107233E+02  0.30125382869E+03  0.31289204916E+03  0.79989743287E+02 0.  0.
        -13    1    3    3    0    0 -0.11737666195E+02 -0.45214607943E+01  0.29056712547E+03  0.29083925254E+03  0.00000000000E+00 0.  1.
         14    1    3    3    0    0 -0.19298054439E+01 -0.19193646439E+02  0.10686703220E+02  0.22052796611E+02  0.00000000000E+00 0. -1.
         -2    1    1    2    0  502  0.13667471639E+02  0.23715107233E+02  0.15324544002E+02  0.31369535236E+02  0.00000000000E+00 0.  1.
<mgrwt>
<rscale>  1 0.84543274E+02</rscale>
<asrwt>0</asrwt>
<pdfrwt beam="1">  1       21 0.21294781E-02 0.84543274E+02</pdfrwt>
<pdfrwt beam="2">  1       -1 0.50833837E-01 0.84543274E+02</pdfrwt>
<totfact> 0.38243223E+05</totfact>
</mgrwt>
</event>
<event>
 6    2  0.7993170E+000  0.8780486E+02  0.7546771E-02  0.1308256E+00
          2   -1    0    0  502    0 -0.00000000000E+00  0.00000000000E+00  0.18695067223E+04  0.18695067223E+04  0.00000000000E+00 0. -1.
         21   -1    0    0  501  502  0.00000000000E+00 -0.00000000000E+00 -0.18913184521E+01  0.18913184521E+01  0.00000000000E+00 0. -1.
         24    2    1    2    0    0  0.17657516039E+01  0.21881948745E+02  0.17110026054E+04  0.17132540994E+04  0.85016208732E+02 0.  0.
        -13    1    3    3    0    0 -0.11212861782E+02 -0.23766306624E+02  0.23085013885E+03  0.23234102567E+03  0.00000000000E+00 0.  1.
         14    1    3    3    0    0  0.12978613386E+02  0.45648255368E+02  0.14801524666E+04  0.14809130737E+04  0.00000000000E+00 0. -1.
          1    1    1    2  501    0 -0.17657516039E+01 -0.21881948745E+02  0.15661279843E+03  0.15814394137E+03  0.00000000000E+00 0. -1.
<mgrwt>
<rscale>  1 0.87804859E+02</rscale>
<asrwt>0</asrwt>
<pdfrwt beam="1">  1       21 0.29097356E-03 0.87804859E+02</pdfrwt>
<pdfrwt beam="2">  1        2 0.28761494E+00 0.87804859E+02</pdfrwt>
<totfact> 0.27691271E+06</totfact>
</mgrwt>
</event>
<event>
 6    2  0.7993170E+000  0.8575874E+02  0.7546771E-02  0.1313460E+00
         21   -1    0    0  501  502  0.00000000000E+00  0.00000000000E+00  0.15444532902E+01  0.15444532902E+01  0.00000000000E+00 0.  1.
          2   -1    0    0  502    0 -0.00000000000E+00 -0.00000000000E+00 -0.21618218669E+04  0.21618218669E+04  0.00000000000E+00 0. -1.
         24    2    1    2    0    0 -0.27584488403E+02 -0.87134446170E+01 -0.17231883252E+04  0.17253210037E+04  0.80732480975E+02 0.  0.
        -11    1    3    3    0    0 -0.33300035013E+02 -0.28746961348E+02 -0.49367619698E+03  0.49563239158E+03  0.00000000000E+00 0.  1.
         12    1    3    3    0    0  0.57155466098E+01  0.20033516731E+02 -0.12295121283E+04  0.12296886121E+04  0.00000000000E+00 0. -1.
          1    1    1    2  501    0  0.27584488403E+02  0.87134446170E+01 -0.43708908833E+03  0.43804531644E+03  0.00000000000E+00 0. -1.
<mgrwt>
<rscale>  1 0.85758741E+02</rscale>
<asrwt>0</asrwt>
<pdfrwt beam="1">  1       21 0.23760752E-03 0.85758741E+02</pdfrwt>
<pdfrwt beam="2">  1        2 0.33258893E+00 0.85758741E+02</pdfrwt>
<totfact> 0.26750772E+06</totfact>
</mgrwt>
</event>
<event>
 6    2  0.7993170E+000  0.9356218E+02  0.7546771E-02  0.1294448E+00
         21   -1    0    0  501  502  0.00000000000E+00  0.00000000000E+00  0.29485369654E+02  0.29485369654E+02  0.00000000000E+00 0. -1.
          4   -1    0    0  502    0 -0.00000000000E+00 -0.00000000000E+00 -0.25450484038E+03  0.25450484038E+03  0.00000000000E+00 0. -1.
         24    2    1    2    0    0  0.32091521809E+02 -0.19372154014E+02 -0.22793628404E+03  0.24639162066E+03  0.85724763221E+02 0.  0.
        -13    1    3    3    0    0  0.46226118850E+02 -0.27632098929E+02 -0.73653403637E+02  0.91242593247E+02  0.00000000000E+00 0.  1.
         14    1    3    3    0    0 -0.14134597041E+02  0.82599449149E+01 -0.15428288040E+03  0.15514902742E+03  0.00000000000E+00 0. -1.
          3    1    1    2  501    0 -0.32091521809E+02  0.19372154014E+02  0.29168133076E+01  0.37598589375E+02  0.00000000000E+00 0. -1.
<mgrwt>
<rscale>  1 0.93562178E+02</rscale>
<asrwt>0</asrwt>
<pdfrwt beam="1">  1       21 0.45362108E-02 0.93562178E+02</pdfrwt>
<pdfrwt beam="2">  1        4 0.39154590E-01 0.93562178E+02</pdfrwt>
<totfact> 0.76638799E+04</totfact>
</mgrwt>
</event>
<event>
 6    2  0.7993170E+000  0.8259501E+02  0.7546771E-02  0.1321844E+00
         21   -1    0    0  501  502  0.00000000000E+00  0.00000000000E+00  0.16786323101E+03  0.16786323101E+03  0.00000000000E+00 0.  1.
         -3   -1    0    0    0  501 -0.00000000000E+00 -0.00000000000E+00 -0.47136580600E+02  0.47136580600E+02  0.00000000000E+00 0.  1.
         24    2    1    2    0    0  0.10046973552E+02  0.28294288897E+02 -0.78469651264E+01  0.82966925276E+02  0.76944313412E+02 0.  0.
        -11    1    3    3    0    0 -0.21130016974E+02  0.14627164667E+02 -0.32136651283E+02  0.41148461930E+02  0.00000000000E+00 0.  1.
         12    1    3    3    0    0  0.31176990527E+02  0.13667124230E+02  0.24289686157E+02  0.41818463346E+02  0.00000000000E+00 0. -1.
         -4    1    1    2    0  502 -0.10046973552E+02 -0.28294288897E+02  0.12857361553E+03  0.13203288633E+03  0.00000000000E+00 0.  1.
<mgrwt>
<rscale>  1 0.82595011E+02</rscale>
<asrwt>0</asrwt>
<pdfrwt beam="1">  1       21 0.25825112E-01 0.82595011E+02</pdfrwt>
<pdfrwt beam="2">  1       -3 0.72517818E-02 0.82595011E+02</pdfrwt>
<totfact> 0.80320789E+04</totfact>
</mgrwt>
</event>
<event>
 6    2  0.7993170E+000  0.1006946E+03  0.7546771E-02  0.1278842E+00
         21   -1    0    0  501  502  0.00000000000E+00  0.00000000000E+00  0.80076675629E+02  0.80076675629E+02  0.00000000000E+00 0. -1.
          2   -1    0    0  502    0 -0.00000000000E+00 -0.00000000000E+00 -0.15571047803E+04  0.15571047803E+04  0.00000000000E+00 0. -1.
         24    2    1    2    0    0  0.29177772823E+01  0.59594966785E+02 -0.15441179554E+04  0.15473977070E+04  0.81113067988E+02 0.  0.
        -13    1    3    3    0    0 -0.12921712433E+02  0.13362877307E+02 -0.68694091097E+02  0.71164705393E+02  0.00000000000E+00 0.  1.
         14    1    3    3    0    0  0.15839489715E+02  0.46232089478E+02 -0.14754238644E+04  0.14762330016E+04  0.00000000000E+00 0. -1.
          1    1    1    2  501    0 -0.29177772823E+01 -0.59594966785E+02  0.67089850791E+02  0.89783748917E+02  0.00000000000E+00 0. -1.
<mgrwt>
<rscale>  1 0.10069460E+03</rscale>
<asrwt>0</asrwt>
<pdfrwt beam="1">  1       21 0.12319490E-01 0.10069460E+03</pdfrwt>
<pdfrwt beam="2">  1        2 0.23955455E+00 0.10069460E+03</pdfrwt>
<totfact> 0.95644207E+03</totfact>
</mgrwt>
</event>
<event>
 6    2  0.7993170E+000  0.8328705E+02  0.7546771E-02  0.1319974E+00
          2   -1    0    0  502    0 -0.00000000000E+00  0.00000000000E+00  0.67922344365E+03  0.67922344365E+03  0.00000000000E+00 0. -1.
         21   -1    0    0  501  502  0.00000000000E+00 -0.00000000000E+00 -0.11587351227E+02  0.11587351227E+02  0.00000000000E+00 0. -1.
         24    2    1    2    0    0  0.25449872850E+02 -0.22302732033E+01  0.65839712465E+03  0.66364411175E+03  0.79272083159E+02 0.  0.
        -11    1    3    3    0    0  0.78374286013E+01 -0.17876310516E+02  0.37282958961E+02  0.42083331541E+02  0.00000000000E+00 0.  1.
         12    1    3    3    0    0  0.17612444249E+02  0.15646037312E+02  0.62111416569E+03  0.62156078021E+03  0.00000000000E+00 0. -1.
          1    1    1    2  501    0 -0.25449872850E+02  0.22302732033E+01  0.92389677759E+01  0.27166683129E+02  0.00000000000E+00 0. -1.
<mgrwt>
<rscale>  1 0.83287054E+02</rscale>
<asrwt>0</asrwt>
<pdfrwt beam="1">  1       21 0.17826699E-02 0.83287054E+02</pdfrwt>
<pdfrwt beam="2">  1        2 0.10449588E+00 0.83287054E+02</pdfrwt>
<totfact> 0.76765642E+05</totfact>
</mgrwt>
</event>
<event>
 6    2  0.7993170E+000  0.8503207E+02  0.7546771E-02  0.1315349E+00
         -1   -1    0    0    0  501 -0.00000000000E+00  0.00000000000E+00  0.34017995538E+03  0.34017995538E+03  0.00000000000E+00 0.  1.
         21   -1    0    0  501  502  0.00000000000E+00 -0.00000000000E+00 -0.28032082517E+02  0.28032082517E+02  0.00000000000E+00 0.  1.
         24    2    1    2    0    0 -0.19926944066E+02 -0.13996761120E+02  0.32820624916E+03  0.33904246693E+03  0.81470608021E+02 0.  0.
        -13    1    3    3    0    0  0.18630482663E+02 -0.27175489853E+02  0.23526903504E+03  0.23756498265E+03  0.00000000000E+00 0.  1.
         14    1    3    3    0    0 -0.38557426729E+02  0.13178728732E+02  0.92937214121E+02  0.10147748428E+03  0.00000000000E+00 0. -1.
         -2    1    1    2    0  502  0.19926944066E+02  0.13996761120E+02 -0.16058376293E+02  0.29169570974E+02  0.00000000000E+00 0.  1.
<mgrwt>
<rscale>  1 0.85032067E+02</rscale>
<asrwt>0</asrwt>
<pdfrwt beam="1">  1       21 0.43126283E-02 0.85032067E+02</pdfrwt>
<pdfrwt beam="2">  1       -1 0.52335375E-01 0.85032067E+02</pdfrwt>
<totfact> 0.11537189E+05</totfact>
</mgrwt>
</event>
<event>
 6    2  0.7993170E+000  0.9339210E+02  0.7546771E-02  0.1294839E+00
          2   -1    0    0  502    0 -0.00000000000E+00  0.00000000000E+00  0.77461230500E+03  0.77461230500E+03  0.00000000000E+00 0. -1.
         21   -1    0    0  501  502  0.00000000000E+00 -0.00000000000E+00 -0.67598332048E+01  0.67598332048E+01  0.00000000000E+00 0.  1.
         24    2    1    2    0    0  0.10724122451E+02 -0.46054515216E+02  0.58976220292E+03  0.59711099460E+03  0.80536070840E+02 0.  0.
        -13    1    3    3    0    0 -0.50927457307E+01 -0.18949811715E+01 -0.52408102637E-01  0.54341291232E+01  0.00000000000E+00 0.  1.
         14    1    3    3    0    0  0.15816868182E+02 -0.44159534044E+02  0.58981461102E+03  0.59167686547E+03  0.00000000000E+00 0. -1.
          1    1    1    2  501    0 -0.10724122451E+02  0.46054515216E+02  0.17809026888E+03  0.18426114361E+03  0.00000000000E+00 0. -1.
<mgrwt>
<rscale>  1 0.93392098E+02</rscale>
<asrwt>0</asrwt>
<pdfrwt beam="1">  1       21 0.10399750E-02 0.93392098E+02</pdfrwt>
<pdfrwt beam="2">  1        2 0.11917105E+00 0.93392098E+02</pdfrwt>
<totfact> 0.15547276E+06</totfact>
</mgrwt>
</event>
<event>
 6    2  0.7993170E+000  0.1162445E+03  0.7546771E-02  0.1249424E+00
          2   -1    0    0  502    0 -0.00000000000E+00  0.00000000000E+00  0.13191705838E+04  0.13191705838E+04  0.00000000000E+00 0. -1.
         21   -1    0    0  501  502  0.00000000000E+00 -0.00000000000E+00 -0.89014565740E+01  0.89014565740E+01  0.00000000000E+00 0. -1.
         24    2    1    2    0    0 -0.84245067619E+02  0.13402696127E+01  0.99392941694E+03  0.10007039906E+04  0.80085973233E+02 0.  0.
        -11    1    3    3    0    0  0.47998356815E+01  0.16823858858E+02  0.62582883233E+02  0.64982289304E+02  0.00000000000E+00 0.  1.
         12    1    3    3    0    0 -0.89044903301E+02 -0.15483589245E+02  0.93134653370E+03  0.93572170125E+03  0.00000000000E+00 0. -1.
          1    1    1    2  501    0  0.84245067619E+02 -0.13402696127E+01  0.31633971033E+03  0.32736804986E+03  0.00000000000E+00 0. -1.
<mgrwt>
<rscale>  1 0.11624453E+03</rscale>
<asrwt>0</asrwt>
<pdfrwt beam="1">  1       21 0.13694559E-02 0.11624453E+03</pdfrwt>
<pdfrwt beam="2">  1        2 0.20294917E+00 0.11624453E+03</pdfrwt>
<totfact> 0.48998010E+05</totfact>
</mgrwt>
</event>
<event>
 6    2  0.7993170E+000  0.9650323E+02  0.7546771E-02  0.1287826E+00
         21   -1    0    0  501  502  0.00000000000E+00  0.00000000000E+00  0.32589008181E+01  0.32589008181E+01  0.00000000000E+00 0. -1.
          2   -1    0    0  502    0 -0.00000000000E+00 -0.00000000000E+00 -0.16909934574E+04  0.16909934574E+04  0.00000000000E+00 0. -1.
         24    2    1    2    0    0  0.40667078546E+02 -0.27790929565E+02 -0.12602516101E+04  0.12639410563E+04  0.82986299740E+02 0.  0.
        -13    1    3    3    0    0 -0.65321220678E+01  0.16231645226E+02 -0.65954130690E+03  0.65977334777E+03  0.00000000000E+00 0.  1.
         14    1    3    3    0    0  0.47199200613E+02 -0.44022574791E+02 -0.60071030322E+03  0.60416770852E+03  0.00000000000E+00 0. -1.
          1    1    1    2  501    0 -0.40667078546E+02  0.27790929565E+02 -0.42748294643E+03  0.43031130189E+03  0.00000000000E+00 0. -1.
<mgrwt>
<rscale>  1 0.96503228E+02</rscale>
<asrwt>0</asrwt>
<pdfrwt beam="1">  1       21 0.50136831E-03 0.96503228E+02</pdfrwt>
<pdfrwt beam="2">  1        2 0.26015338E+00 0.96503228E+02</pdfrwt>
<totfact> 0.14963539E+06</totfact>
</mgrwt>
</event>
<event>
 6    2  0.7993170E+000  0.1236181E+03  0.7546771E-02  0.1237245E+00
         -3   -1    0    0    0  501 -0.00000000000E+00  0.00000000000E+00  0.28528286315E+03  0.28528286315E+03  0.00000000000E+00 0.  1.
         21   -1    0    0  501  502  0.00000000000E+00 -0.00000000000E+00 -0.16968658356E+03  0.16968658356E+03  0.00000000000E+00 0.  1.
         24    2    1    2    0    0  0.93160325972E+02 -0.20181023642E+02  0.25656795376E+03  0.28479561509E+03  0.78710275231E+02 0.  0.
        -13    1    3    3    0    0  0.81443161840E+02 -0.38289973548E+02  0.24344789385E+03  0.25954958621E+03  0.00000000000E+00 0.  1.
         14    1    3    3    0    0  0.11717164131E+02  0.18108949906E+02  0.13120059919E+02  0.25246028881E+02  0.00000000000E+00 0. -1.
         -4    1    1    2    0  502 -0.93160325972E+02  0.20181023642E+02 -0.14097167417E+03  0.17017383162E+03  0.00000000000E+00 0.  1.
<mgrwt>
<rscale>  1 0.12361807E+03</rscale>
<asrwt>0</asrwt>
<pdfrwt beam="1">  1       21 0.26105628E-01 0.12361807E+03</pdfrwt>
<pdfrwt beam="2">  1       -3 0.43889671E-01 0.12361807E+03</pdfrwt>
<totfact> 0.35254010E+03</totfact>
</mgrwt>
</event>
<event>
 6    2  0.7993170E+000  0.1082688E+03  0.7546771E-02  0.1263810E+00
         -3   -1    0    0    0  501 -0.00000000000E+00  0.00000000000E+00  0.55778841666E+03  0.55778841666E+03  0.00000000000E+00 0.  1.
         21   -1    0    0  501  502  0.00000000000E+00 -0.00000000000E+00 -0.10215424251E+03  0.10215424251E+03  0.00000000000E+00 0.  1.
         24    2    1    2    0    0  0.35723825650E+02 -0.63680628426E+02  0.53862776541E+03  0.54940148881E+03  0.79941929403E+02 0.  0.
        -11    1    3    3    0    0  0.15377070687E+02 -0.49256763703E+02  0.50449756146E+03  0.50712964081E+03  0.00000000000E+00 0.  1.
         12    1    3    3    0    0  0.20346754964E+02 -0.14423864723E+02  0.34130203954E+02  0.42271847997E+02  0.00000000000E+00 0. -1.
         -4    1    1    2    0  502 -0.35723825650E+02  0.63680628426E+02 -0.82993591258E+02  0.11054117037E+03  0.00000000000E+00 0.  1.
<mgrwt>
<rscale>  1 0.10826877E+03</rscale>
<asrwt>0</asrwt>
<pdfrwt beam="1">  1       21 0.15716038E-01 0.10826877E+03</pdfrwt>
<pdfrwt beam="2">  1       -3 0.85813601E-01 0.10826877E+03</pdfrwt>
<totfact> 0.22462992E+03</totfact>
</mgrwt>
</event>
<event>
 6    2  0.7993170E+000  0.9359664E+02  0.7546771E-02  0.1294368E+00
         21   -1    0    0  501  502  0.00000000000E+00  0.00000000000E+00  0.11164495188E+02  0.11164495188E+02  0.00000000000E+00 0.  1.
          2   -1    0    0  502    0 -0.00000000000E+00 -0.00000000000E+00 -0.64384236155E+03  0.64384236155E+03  0.00000000000E+00 0. -1.
         24    2    1    2    0    0 -0.16225869660E+01 -0.29939289888E+02 -0.19495819430E+03  0.21626148050E+03  0.88664178519E+02 0.  0.
        -13    1    3    3    0    0  0.42141105192E+02 -0.18192186805E+02 -0.73828259186E+02  0.86933539339E+02  0.00000000000E+00 0.  1.
         14    1    3    3    0    0 -0.43763692158E+02 -0.11747103083E+02 -0.12112993512E+03  0.12932794116E+03  0.00000000000E+00 0. -1.
          1    1    1    2  501    0  0.16225869660E+01  0.29939289888E+02 -0.43771967205E+03  0.43874537624E+03  0.00000000000E+00 0. -1.
<mgrwt>
<rscale>  1 0.93596637E+02</rscale>
<asrwt>0</asrwt>
<pdfrwt beam="1">  1       21 0.17176154E-02 0.93596637E+02</pdfrwt>
<pdfrwt beam="2">  1        2 0.99052626E-01 0.93596637E+02</pdfrwt>
<totfact> 0.87467257E+05</totfact>
</mgrwt>
</event>
<event>
 6    2  0.7993170E+000  0.1043792E+03  0.7546771E-02  0.1271348E+00
          4   -1    0    0  502    0 -0.00000000000E+00  0.00000000000E+00  0.19678380345E+04  0.19678380345E+04  0.00000000000E+00 0. -1.
         21   -1    0    0  501  502  0.00000000000E+00 -0.00000000000E+00 -0.40839286257E+01  0.40839286257E+01  0.00000000000E+00 0.  1.
         24    2    1    2    0    0 -0.64830247155E+02 -0.13786679304E+02  0.88509999213E+03  0.89123341846E+03  0.80634835154E+02 0.  0.
        -11    1    3    3    0    0 -0.71822002543E+02 -0.48678592090E+01  0.42938278217E+03  0.43537532053E+03  0.00000000000E+00 0.  1.
         12    1    3    3    0    0  0.69917553878E+01 -0.89188200954E+01  0.45571720996E+03  0.45585809794E+03  0.00000000000E+00 0. -1.
          3    1    1    2  501    0  0.64830247155E+02  0.13786679304E+02  0.10786541137E+04  0.10806885446E+04  0.00000000000E+00 0. -1.
<mgrwt>
<rscale>  1 0.10437917E+03</rscale>
<asrwt>0</asrwt>
<pdfrwt beam="1">  1       21 0.62829828E-03 0.10437917E+03</pdfrwt>
<pdfrwt beam="2">  1        4 0.30274356E+00 0.10437917E+03</pdfrwt>
<totfact> 0.11381674E+04</totfact>
</mgrwt>
</event>
<event>
 6    2  0.7993170E+000  0.8541645E+02  0.7546771E-02  0.1314347E+00
         21   -1    0    0  501  502  0.00000000000E+00  0.00000000000E+00  0.19874970157E+02  0.19874970157E+02  0.00000000000E+00 0.  1.
          2   -1    0    0  502    0 -0.00000000000E+00 -0.00000000000E+00 -0.18796302792E+03  0.18796302792E+03  0.00000000000E+00 0. -1.
         24    2    1    2    0    0  0.24483361130E+02 -0.19549525863E+02 -0.14718392598E+03  0.17017366934E+03  0.79462889049E+02 0.  0.
        -13    1    3    3    0    0  0.51571601089E+02  0.70064404941E+00 -0.87114554909E+02  0.10123767391E+03  0.00000000000E+00 0.  1.
         14    1    3    3    0    0 -0.27088239959E+02 -0.20250169912E+02 -0.60069371075E+02  0.68935995437E+02  0.00000000000E+00 0. -1.
          1    1    1    2  501    0 -0.24483361130E+02  0.19549525863E+02 -0.20904131781E+02  0.37664328737E+02  0.00000000000E+00 0. -1.
<mgrwt>
<rscale>  1 0.85416448E+02</rscale>
<asrwt>0</asrwt>
<pdfrwt beam="1">  1       21 0.30576878E-02 0.85416448E+02</pdfrwt>
<pdfrwt beam="2">  1        2 0.28917388E-01 0.85416448E+02</pdfrwt>
<totfact> 0.12725432E+06</totfact>
</mgrwt>
</event>
<event>
 6    2  0.7993170E+000  0.1220573E+03  0.7546771E-02  0.1239741E+00
         21   -1    0    0  501  502  0.00000000000E+00  0.00000000000E+00  0.52353584471E+02  0.52353584471E+02  0.00000000000E+00 0. -1.
          2   -1    0    0  502    0 -0.00000000000E+00 -0.00000000000E+00 -0.46127447676E+03  0.46127447676E+03  0.00000000000E+00 0. -1.
         24    2    1    2    0    0  0.26435005400E+02 -0.87153045467E+02 -0.40442592779E+03  0.42244326233E+03  0.81262020489E+02 0.  0.
        -11    1    3    3    0    0  0.48500735552E+01 -0.50734302739E+02 -0.77299857786E+02  0.92589204024E+02  0.00000000000E+00 0.  1.
         12    1    3    3    0    0  0.21584931845E+02 -0.36418742727E+02 -0.32712607001E+03  0.32985405831E+03  0.00000000000E+00 0. -1.
          1    1    1    2  501    0 -0.26435005400E+02  0.87153045467E+02 -0.44949644967E+01  0.91184798900E+02  0.00000000000E+00 0. -1.
<mgrwt>
<rscale>  1 0.12205728E+03</rscale>
<asrwt>0</asrwt>
<pdfrwt beam="1">  1       21 0.80543977E-02 0.12205728E+03</pdfrwt>
<pdfrwt beam="2">  1        2 0.70965304E-01 0.12205728E+03</pdfrwt>
<totfact> 0.10012680E+05</totfact>
</mgrwt>
</event>
<event>
 6    2  0.7993170E+000  0.8715915E+02  0.7546771E-02  0.1309881E+00
         -1   -1    0    0    0  501 -0.00000000000E+00  0.00000000000E+00  0.23403443406E+01  0.23403443406E+01  0.00000000000E+00 0.  1.
         21   -1    0    0  501  502  0.00000000000E+00 -0.00000000000E+00 -0.26164344465E+04  0.26164344465E+04  0.00000000000E+00 0.  1.
         24    2    1    2    0    0 -0.17125279693E+01  0.29852872537E+02 -0.85589497147E+03  0.86032140508E+03  0.81869353809E+02 0.  0.
        -11    1    3    3    0    0 -0.15565096764E+02  0.55647458422E+02 -0.54858124771E+03  0.55161607773E+03  0.00000000000E+00 0.  1.
         12    1    3    3    0    0  0.13852568795E+02 -0.25794585885E+02 -0.30731372376E+03  0.30870532735E+03  0.00000000000E+00 0. -1.
         -2    1    1    2    0  502  0.17125279693E+01 -0.29852872537E+02 -0.17581991307E+04  0.17584533858E+04  0.00000000000E+00 0.  1.
<mgrwt>
<rscale>  1 0.87159152E+02</rscale>
<asrwt>0</asrwt>
<pdfrwt beam="1">  1       21 0.40252884E+00 0.87159152E+02</pdfrwt>
<pdfrwt beam="2">  1       -1 0.36005256E-03 0.87159152E+02</pdfrwt>
<totfact> 0.66536888E+03</totfact>
</mgrwt>
</event>
<event>
 6    2  0.7993170E+000  0.1017726E+03  0.7546771E-02  0.1276612E+00
          2   -1    0    0  502    0 -0.00000000000E+00  0.00000000000E+00  0.13050206625E+04  0.13050206625E+04  0.00000000000E+00 0. -1.
         21   -1    0    0  501  502  0.00000000000E+00 -0.00000000000E+00 -0.53517251725E+01  0.53517251725E+01  0.00000000000E+00 0. -1.
         24    2    1    2    0    0 -0.26215195979E+02 -0.59565418742E+02  0.75458593987E+03  0.76141815486E+03  0.78245704574E+02 0.  0.
        -13    1    3    3    0    0  0.19389012836E+02  0.63705876743E+01  0.20539482364E+03  0.20640627845E+03  0.00000000000E+00 0.  1.
         14    1    3    3    0    0 -0.45604208815E+02 -0.65936006416E+02  0.54919111623E+03  0.55501187641E+03  0.00000000000E+00 0. -1.
          1    1    1    2  501    0  0.26215195979E+02  0.59565418742E+02  0.54508299744E+03  0.54895423280E+03  0.00000000000E+00 0. -1.
<mgrwt>
<rscale>  1 0.10177262E+03</rscale>
<asrwt>0</asrwt>
<pdfrwt beam="1">  1       21 0.82334337E-03 0.10177262E+03</pdfrwt>
<pdfrwt beam="2">  1        2 0.20077216E+00 0.10177262E+03</pdfrwt>
<totfact> 0.11018417E+06</totfact>
</mgrwt>
</event>
<event>
 6    2  0.7993170E+000  0.8712881E+02  0.7546771E-02  0.1309958E+00
         21   -1    0    0  501  502  0.00000000000E+00  0.00000000000E+00  0.55101841049E+02  0.55101841049E+02  0.00000000000E+00 0.  1.
         -3   -1    0    0    0  501 -0.00000000000E+00 -0.00000000000E+00 -0.89968710974E+02  0.89968710974E+02  0.00000000000E+00 0.  1.
         24    2    1    2    0    0 -0.20868599966E+02  0.25851721792E+02 -0.57927446122E+02  0.10462799821E+03  0.80545757253E+02 0.  0.
        -13    1    3    3    0    0 -0.89878362704E+01  0.54312168770E+02 -0.45336425403E+02  0.71316087565E+02  0.00000000000E+00 0.  1.
         14    1    3    3    0    0 -0.11880763696E+02 -0.28460446978E+02 -0.12591020719E+02  0.33311910647E+02  0.00000000000E+00 0. -1.
         -4    1    1    2    0  502  0.20868599966E+02 -0.25851721792E+02  0.23060576197E+02  0.40442553811E+02  0.00000000000E+00 0.  1.
<mgrwt>
<rscale>  1 0.87128807E+02</rscale>
<asrwt>0</asrwt>
<pdfrwt beam="1">  1       21 0.84772064E-02 0.87128807E+02</pdfrwt>
<pdfrwt beam="2">  1       -3 0.13841340E-01 0.87128807E+02</pdfrwt>
<totfact> 0.20517395E+05</totfact>
</mgrwt>
</event>
<event>
 6    2  0.7993170E+000  0.1030095E+03  0.7546771E-02  0.1274092E+00
          2   -1    0    0  502    0 -0.00000000000E+00  0.00000000000E+00  0.10728751221E+04  0.10728751221E+04  0.00000000000E+00 0. -1.
         21   -1    0    0  501  502  0.00000000000E+00 -0.00000000000E+00 -0.78567608778E+01  0.78567608778E+01  0.00000000000E+00 0. -1.
         24    2    1    2    0    0  0.50483249428E+02  0.40097716869E+02  0.85106420390E+03  0.85727547379E+03  0.80340359929E+02 0.  0.
        -11    1    3    3    0    0  0.18741436750E+02 -0.24038037697E+02  0.31119070738E+03  0.31267990832E+03  0.00000000000E+00 0.  1.
         12    1    3    3    0    0  0.31741812678E+02  0.64135754565E+02  0.53987349652E+03  0.54459556547E+03  0.00000000000E+00 0. -1.
          1    1    1    2  501    0 -0.50483249428E+02 -0.40097716869E+02  0.21395415732E+03  0.22345640918E+03  0.00000000000E+00 0. -1.
<mgrwt>
<rscale>  1 0.10300951E+03</rscale>
<asrwt>0</asrwt>
<pdfrwt beam="1">  1       21 0.12087333E-02 0.10300951E+03</pdfrwt>
<pdfrwt beam="2">  1        2 0.16505759E+00 0.10300951E+03</pdfrwt>
<totfact> 0.81010529E+05</totfact>
</mgrwt>
</event>
<event>
 6    2  0.7993170E+000  0.6528331E+02  0.7546771E-02  0.1376909E+00
         -1   -1    0    0    0  501 -0.00000000000E+00  0.00000000000E+00  0.28077838554E+02  0.28077838554E+02  0.00000000000E+00 0.  1.
         21   -1    0    0  501  502  0.00000000000E+00 -0.00000000000E+00 -0.74091731351E+02  0.74091731351E+02  0.00000000000E+00 0. -1.
         24    2    1    2    0    0  0.15118576171E+02  0.20137913554E+02 -0.38934512712E+02  0.76011884034E+02  0.60231248755E+02 0.  0.
        -13    1    3    3    0    0 -0.40384694881E+01  0.32614483097E+02 -0.24479116018E+01  0.32954605364E+02  0.00000000000E+00 0.  1.
         14    1    3    3    0    0  0.19157045659E+02 -0.12476569543E+02 -0.36486601110E+02  0.43057278671E+02  0.00000000000E+00 0. -1.
         -2    1    1    2    0  502 -0.15118576171E+02 -0.20137913554E+02 -0.70793800849E+01  0.26157685871E+02  0.00000000000E+00 0.  1.
<mgrwt>
<rscale>  1 0.65283307E+02</rscale>
<asrwt>0</asrwt>
<pdfrwt beam="1">  1       21 0.11398728E-01 0.65283307E+02</pdfrwt>
<pdfrwt beam="2">  1       -1 0.43196674E-02 0.65283307E+02</pdfrwt>
<totfact> 0.10905514E+06</totfact>
</mgrwt>
</event>
<event>
 6    2  0.7993170E+000  0.9102372E+02  0.7546771E-02  0.1300391E+00
         21   -1    0    0  501  502  0.00000000000E+00  0.00000000000E+00  0.32973777630E+01  0.32973777630E+01  0.00000000000E+00 0.  1.
          2   -1    0    0  502    0 -0.00000000000E+00 -0.00000000000E+00 -0.13000789220E+04  0.13000789220E+04  0.00000000000E+00 0. -1.
         24    2    1    2    0    0 -0.13632335159E+02  0.28037967470E+02 -0.71662174197E+03  0.72237942856E+03  0.85518124162E+02 0.  0.
        -11    1    3    3    0    0 -0.12244864589E+02 -0.38148433760E+01 -0.13817637478E+02  0.18852502334E+02  0.00000000000E+00 0.  1.
         12    1    3    3    0    0 -0.13874705698E+01  0.31852810846E+02 -0.70280410449E+03  0.70352692622E+03  0.00000000000E+00 0. -1.
          1    1    1    2  501    0  0.13632335159E+02 -0.28037967470E+02 -0.58015980222E+03  0.58099687116E+03  0.00000000000E+00 0. -1.
<mgrwt>
<rscale>  1 0.91023721E+02</rscale>
<asrwt>0</asrwt>
<pdfrwt beam="1">  1       21 0.50728909E-03 0.91023721E+02</pdfrwt>
<pdfrwt beam="2">  1        2 0.20001206E+00 0.91023721E+02</pdfrwt>
<totfact> 0.23231930E+06</totfact>
</mgrwt>
</event>
<event>
 6    2  0.7993170E+000  0.7955459E+02  0.7546771E-02  0.1330320E+00
         -3   -1    0    0    0  501 -0.00000000000E+00  0.00000000000E+00  0.12226967437E+03  0.12226967437E+03  0.00000000000E+00 0.  1.
         21   -1    0    0  501  502  0.00000000000E+00 -0.00000000000E+00 -0.24672897532E+02  0.24672897532E+02  0.00000000000E+00 0. -1.
         24    2    1    2    0    0 -0.25268272807E+02 -0.10774348225E+02  0.56763026835E+02  0.97729084628E+02  0.74661640596E+02 0.  0.
        -11    1    3    3    0    0 -0.48357106709E+02 -0.14348821759E+02  0.54493490955E+02  0.74255228850E+02  0.00000000000E+00 0.  1.
         12    1    3    3    0    0  0.23088833902E+02  0.35744735334E+01  0.22695358802E+01  0.23473855778E+02  0.00000000000E+00 0. -1.
         -4    1    1    2    0  502  0.25268272807E+02  0.10774348225E+02  0.40833750006E+02  0.49213487276E+02  0.00000000000E+00 0.  1.
<mgrwt>
<rscale>  1 0.79554590E+02</rscale>
<asrwt>0</asrwt>
<pdfrwt beam="1">  1       21 0.37958305E-02 0.79554590E+02</pdfrwt>
<pdfrwt beam="2">  1       -3 0.18810719E-01 0.79554590E+02</pdfrwt>
<totfact> 0.45937098E+05</totfact>
</mgrwt>
</event>
<event>
 6    2  0.7993170E+000  0.8376702E+02  0.7546771E-02  0.1318689E+00
          2   -1    0    0  502    0 -0.00000000000E+00  0.00000000000E+00  0.99239139212E+03  0.99239139212E+03  0.00000000000E+00 0. -1.
         21   -1    0    0  501  502  0.00000000000E+00 -0.00000000000E+00 -0.96484668883E+01  0.96484668883E+01  0.00000000000E+00 0. -1.
         24    2    1    2    0    0  0.18213660598E+02  0.14940432133E+02  0.97291510883E+03  0.97651457899E+03  0.80386317521E+02 0.  0.
        -13    1    3    3    0    0 -0.48599731088E-01  0.46900809860E+02  0.52726801413E+03  0.52934983428E+03  0.00000000000E+00 0.  1.
         14    1    3    3    0    0  0.18262260329E+02 -0.31960377727E+02  0.44564709470E+03  0.44716474470E+03  0.00000000000E+00 0. -1.
          1    1    1    2  501    0 -0.18213660598E+02 -0.14940432133E+02  0.98278163987E+01  0.25525280016E+02  0.00000000000E+00 0. -1.
<mgrwt>
<rscale>  1 0.83767022E+02</rscale>
<asrwt>0</asrwt>
<pdfrwt beam="1">  1       21 0.14843803E-02 0.83767022E+02</pdfrwt>
<pdfrwt beam="2">  1        2 0.15267552E+00 0.83767022E+02</pdfrwt>
<totfact> 0.64288027E+05</totfact>
</mgrwt>
</event>
<event>
 6    2  0.7993170E+000  0.9850973E+02  0.7546771E-02  0.1283461E+00
          2   -1    0    0  502    0 -0.00000000000E+00  0.00000000000E+00  0.15098774008E+04  0.15098774008E+04  0.00000000000E+00 0. -1.
         21   -1    0    0  501  502  0.00000000000E+00 -0.00000000000E+00 -0.74452433960E+01  0.74452433960E+01  0.00000000000E+00 0. -1.
         24    2    1    2    0    0  0.87284455114E+01 -0.37919128468E+02  0.14425455647E+04  0.14459052090E+04  0.90499287757E+02 0.  0.
        -11    1    3    3    0    0  0.32744784310E+02 -0.26732247686E+02  0.29092370022E+03  0.29397862731E+03  0.00000000000E+00 0.  1.
         12    1    3    3    0    0 -0.24016338799E+02 -0.11186880783E+02  0.11516218645E+04  0.11519265817E+04  0.00000000000E+00 0. -1.
          1    1    1    2  501    0 -0.87284455114E+01  0.37919128468E+02  0.59886592668E+02  0.71417435170E+02  0.00000000000E+00 0. -1.
<mgrwt>
<rscale>  1 0.98509731E+02</rscale>
<asrwt>0</asrwt>
<pdfrwt beam="1">  1       21 0.11454233E-02 0.98509731E+02</pdfrwt>
<pdfrwt beam="2">  1        2 0.23228859E+00 0.98509731E+02</pdfrwt>
<totfact> 0.51310412E+05</totfact>
</mgrwt>
</event>
<event>
 6    2  0.7993170E+000  0.8561905E+02  0.7546771E-02  0.1313822E+00
          2   -1    0    0  502    0 -0.00000000000E+00  0.00000000000E+00  0.46149512888E+03  0.46149512888E+03  0.00000000000E+00 0. -1.
         21   -1    0    0  501  502  0.00000000000E+00 -0.00000000000E+00 -0.82528112341E+01  0.82528112341E+01  0.00000000000E+00 0.  1.
         24    2    1    2    0    0  0.71985042512E+00  0.31719490385E+02  0.38620286969E+03  0.39557967307E+03  0.79523436359E+02 0.  0.
        -11    1    3    3    0    0 -0.69532770192E+01  0.12477768051E+02  0.71730972026E+01  0.15984244753E+02  0.00000000000E+00 0.  1.
         12    1    3    3    0    0  0.76731274444E+01  0.19241722333E+02  0.37902977249E+03  0.37959542831E+03  0.00000000000E+00 0. -1.
          1    1    1    2  501    0 -0.71985042512E+00 -0.31719490385E+02  0.67039447957E+02  0.74168267050E+02  0.00000000000E+00 0. -1.
<mgrwt>
<rscale>  1 0.85619047E+02</rscale>
<asrwt>0</asrwt>
<pdfrwt beam="1">  1       21 0.12696636E-02 0.85619047E+02</pdfrwt>
<pdfrwt beam="2">  1        2 0.70999230E-01 0.85619047E+02</pdfrwt>
<totfact> 0.20156250E+06</totfact>
</mgrwt>
</event>
<event>
 6    2  0.7993170E+000  0.8741825E+02  0.7546771E-02  0.1309227E+00
         -1   -1    0    0    0  501 -0.00000000000E+00  0.00000000000E+00  0.39667334786E+02  0.39667334786E+02  0.00000000000E+00 0.  1.
         21   -1    0    0  501  502  0.00000000000E+00 -0.00000000000E+00 -0.93641327160E+02  0.93641327160E+02  0.00000000000E+00 0. -1.
         24    2    1    2    0    0  0.17565273698E+02 -0.24210087436E+02 -0.23310669632E+02  0.90472852915E+02  0.82141844526E+02 0.  0.
        -11    1    3    3    0    0  0.15195331652E+02  0.28852496981E+02 -0.36053347999E+00  0.32611266005E+02  0.00000000000E+00 0.  1.
         12    1    3    3    0    0  0.23699420459E+01 -0.53062584418E+02 -0.22950136152E+02  0.57861586910E+02  0.00000000000E+00 0. -1.
         -2    1    1    2    0  502 -0.17565273698E+02  0.24210087436E+02 -0.30663322742E+02  0.42835809031E+02  0.00000000000E+00 0.  1.
<mgrwt>
<rscale>  1 0.87418246E+02</rscale>
<asrwt>0</asrwt>
<pdfrwt beam="1">  1       21 0.14406358E-01 0.87418246E+02</pdfrwt>
<pdfrwt beam="2">  1       -1 0.61026669E-02 0.87418246E+02</pdfrwt>
<totfact> 0.45363803E+05</totfact>
</mgrwt>
</event>
<event>
 6    2  0.7993170E+000  0.8265887E+02  0.7546771E-02  0.1321671E+00
         21   -1    0    0  501  502  0.00000000000E+00  0.00000000000E+00  0.17529888697E+02  0.17529888697E+02  0.00000000000E+00 0. -1.
          2   -1    0    0  502    0 -0.00000000000E+00 -0.00000000000E+00 -0.20619610510E+03  0.20619610510E+03  0.00000000000E+00 0. -1.
         24    2    1    2    0    0 -0.23389782918E+02 -0.39285621437E+01 -0.18069696047E+03  0.19870551048E+03  0.79183159971E+02 0.  0.
        -13    1    3    3    0    0  0.15398946627E+02  0.39918402334E+01 -0.24262878228E+01  0.16091899150E+02  0.00000000000E+00 0.  1.
         14    1    3    3    0    0 -0.38788729545E+02 -0.79204023771E+01 -0.17827067265E+03  0.18261361133E+03  0.00000000000E+00 0. -1.
          1    1    1    2  501    0  0.23389782918E+02  0.39285621437E+01 -0.79692559258E+01  0.25020483318E+02  0.00000000000E+00 0. -1.
<mgrwt>
<rscale>  1 0.82658867E+02</rscale>
<asrwt>0</asrwt>
<pdfrwt beam="1">  1       21 0.26969059E-02 0.82658867E+02</pdfrwt>
<pdfrwt beam="2">  1        2 0.31722479E-01 0.82658867E+02</pdfrwt>
<totfact> 0.14075207E+06</totfact>
</mgrwt>
</event>
<event>
 6    2  0.7993170E+000  0.8580873E+02  0.7546771E-02  0.1313331E+00
         21   -1    0    0  501  502  0.00000000000E+00  0.00000000000E+00  0.38487559147E+03  0.38487559147E+03  0.00000000000E+00 0.  1.
          2   -1    0    0  502    0 -0.00000000000E+00 -0.00000000000E+00 -0.99552401135E+01  0.99552401135E+01  0.00000000000E+00 0. -1.
         24    2    1    2    0    0 -0.22470204438E+02  0.68269713559E+01  0.19065860411E+03  0.20907855266E+03  0.82532540476E+02 0.  0.
        -13    1    3    3    0    0 -0.15464331437E+01  0.43493772601E+02  0.92535953076E+02  0.10225948524E+03  0.00000000000E+00 0.  1.
         14    1    3    3    0    0 -0.20923771295E+02 -0.36666801245E+02  0.98122651030E+02  0.10681906742E+03  0.00000000000E+00 0. -1.
          1    1    1    2  501    0  0.22470204438E+02 -0.68269713559E+01  0.18426174725E+03  0.18575227893E+03  0.00000000000E+00 0. -1.
<mgrwt>
<rscale>  1 0.85808728E+02</rscale>
<asrwt>0</asrwt>
<pdfrwt beam="1">  1       21 0.59211618E-01 0.85808728E+02</pdfrwt>
<pdfrwt beam="2">  1        2 0.15315757E-02 0.85808728E+02</pdfrwt>
<totfact> 0.23754185E+05</totfact>
</mgrwt>
</event>
<event>
 6    2  0.7993170E+000  0.8263412E+02  0.7546771E-02  0.1321738E+00
         21   -1    0    0  501  502  0.00000000000E+00  0.00000000000E+00  0.74183933394E+02  0.74183933394E+02  0.00000000000E+00 0. -1.
          2   -1    0    0  502    0 -0.00000000000E+00 -0.00000000000E+00 -0.69767098086E+02  0.69767098086E+02  0.00000000000E+00 0. -1.
         24    2    1    2    0    0 -0.15226736124E+02  0.15077208120E+02 -0.42096580826E+02  0.92738986235E+02  0.79807404124E+02 0.  0.
        -11    1    3    3    0    0 -0.32199628281E+02 -0.20297262546E+02 -0.43786880043E+01  0.38314068395E+02  0.00000000000E+00 0.  1.
         12    1    3    3    0    0  0.16972892157E+02  0.35374470666E+02 -0.37717892821E+02  0.54424917840E+02  0.00000000000E+00 0. -1.
          1    1    1    2  501    0  0.15226736124E+02 -0.15077208120E+02  0.46513416134E+02  0.51212045245E+02  0.00000000000E+00 0. -1.
<mgrwt>
<rscale>  1 0.82634118E+02</rscale>
<asrwt>0</asrwt>
<pdfrwt beam="1">  1       21 0.11412913E-01 0.82634118E+02</pdfrwt>
<pdfrwt beam="2">  1        2 0.10733400E-01 0.82634118E+02</pdfrwt>
<totfact> 0.42706742E+05</totfact>
</mgrwt>
</event>
<event>
 6    2  0.7993170E+000  0.8504325E+02  0.7546771E-02  0.1315319E+00
         21   -1    0    0  501  502  0.00000000000E+00  0.00000000000E+00  0.40975040278E+02  0.40975040278E+02  0.00000000000E+00 0.  1.
          2   -1    0    0  502    0 -0.00000000000E+00 -0.00000000000E+00 -0.79044916710E+02  0.79044916710E+02  0.00000000000E+00 0. -1.
         24    2    1    2    0    0 -0.17287407981E+02 -0.16952038775E+02 -0.43022828650E+02  0.95306441881E+02  0.81523787851E+02 0.  0.
        -13    1    3    3    0    0 -0.41098569928E+02 -0.35631016935E+01  0.34529071985E+01  0.41396989165E+02  0.00000000000E+00 0.  1.
         14    1    3    3    0    0  0.23811161947E+02 -0.13388937081E+02 -0.46475735848E+02  0.53909452716E+02  0.00000000000E+00 0. -1.
          1    1    1    2  501    0  0.17287407981E+02  0.16952038775E+02  0.49529522178E+01  0.24713515108E+02  0.00000000000E+00 0. -1.
<mgrwt>
<rscale>  1 0.85043248E+02</rscale>
<asrwt>0</asrwt>
<pdfrwt beam="1">  1       21 0.63038523E-02 0.85043248E+02</pdfrwt>
<pdfrwt beam="2">  1        2 0.12160756E-01 0.85043248E+02</pdfrwt>
<totfact> 0.10196432E+06</totfact>
</mgrwt>
</event>
<event>
 6    2  0.7993170E+000  0.8447158E+02  0.7546771E-02  0.1316820E+00
          2   -1    0    0  502    0 -0.00000000000E+00  0.00000000000E+00  0.50287086611E+03  0.50287086611E+03  0.00000000000E+00 0. -1.
         21   -1    0    0  501  502  0.00000000000E+00 -0.00000000000E+00 -0.75682418157E+01  0.75682418157E+01  0.00000000000E+00 0.  1.
         24    2    1    2    0    0 -0.21528110043E+02 -0.11974910965E+02  0.45807787523E+03  0.46580123211E+03  0.80799690856E+02 0.  0.
        -11    1    3    3    0    0 -0.10050249071E+02  0.34407184877E+02  0.16445973572E+03  0.16832072526E+03  0.00000000000E+00 0.  1.
         12    1    3    3    0    0 -0.11477860973E+02 -0.46382095842E+02  0.29361813951E+03  0.29748050685E+03  0.00000000000E+00 0. -1.
          1    1    1    2  501    0  0.21528110043E+02  0.11974910965E+02  0.37224749061E+02  0.44637875815E+02  0.00000000000E+00 0. -1.
<mgrwt>
<rscale>  1 0.84471581E+02</rscale>
<asrwt>0</asrwt>
<pdfrwt beam="1">  1       21 0.11643453E-02 0.84471581E+02</pdfrwt>
<pdfrwt beam="2">  1        2 0.77364722E-01 0.84471581E+02</pdfrwt>
<totfact> 0.21027967E+06</totfact>
</mgrwt>
</event>
<event>
 6    2  0.7993170E+000  0.9019372E+02  0.7546771E-02  0.1302383E+00
         21   -1    0    0  501  502  0.00000000000E+00  0.00000000000E+00  0.85089004617E+02  0.85089004617E+02  0.00000000000E+00 0.  1.
         -1   -1    0    0    0  501 -0.00000000000E+00 -0.00000000000E+00 -0.14259393200E+03  0.14259393200E+03  0.00000000000E+00 0.  1.
         24    2    1    2    0    0  0.31239597910E+02  0.27279831132E+02 -0.12156431954E+03  0.15136971767E+03  0.80092483918E+02 0.  0.
        -11    1    3    3    0    0  0.25289663249E+02  0.49765030340E+02 -0.46083521091E+02  0.72386574917E+02  0.00000000000E+00 0.  1.
         12    1    3    3    0    0  0.59499346610E+01 -0.22485199209E+02 -0.75480798444E+02  0.78983142756E+02  0.00000000000E+00 0. -1.
         -2    1    1    2    0  502 -0.31239597910E+02 -0.27279831132E+02  0.64059392147E+02  0.76313218949E+02  0.00000000000E+00 0.  1.
<mgrwt>
<rscale>  1 0.90193723E+02</rscale>
<asrwt>0</asrwt>
<pdfrwt beam="1">  1       21 0.13090616E-01 0.90193723E+02</pdfrwt>
<pdfrwt beam="2">  1       -1 0.21937528E-01 0.90193723E+02</pdfrwt>
<totfact> 0.76386107E+04</totfact>
</mgrwt>
</event>
<event>
 6    2  0.7993170E+000  0.8450452E+02  0.7546771E-02  0.1316733E+00
         21   -1    0    0  501  502  0.00000000000E+00  0.00000000000E+00  0.10646248965E+02  0.10646248965E+02  0.00000000000E+00 0.  1.
          4   -1    0    0  502    0 -0.00000000000E+00 -0.00000000000E+00 -0.39573442897E+03  0.39573442897E+03  0.00000000000E+00 0. -1.
         24    2    1    2    0    0  0.85256399051E+01 -0.37512632357E+02 -0.19635673783E+03  0.21376852519E+03  0.75240479434E+02 0.  0.
        -11    1    3    3    0    0  0.27348314187E+02 -0.39985014239E+02 -0.65102302294E+02  0.81148268105E+02  0.00000000000E+00 0.  1.
         12    1    3    3    0    0 -0.18822674282E+02  0.24723818814E+01 -0.13125443554E+03  0.13262025708E+03  0.00000000000E+00 0. -1.
          3    1    1    2  501    0 -0.85256399051E+01  0.37512632357E+02 -0.18873144217E+03  0.19261215275E+03  0.00000000000E+00 0. -1.
<mgrwt>
<rscale>  1 0.84504520E+02</rscale>
<asrwt>0</asrwt>
<pdfrwt beam="1">  1       21 0.16378841E-02 0.84504520E+02</pdfrwt>
<pdfrwt beam="2">  1        4 0.60882232E-01 0.84504520E+02</pdfrwt>
<totfact> 0.16122505E+05</totfact>
</mgrwt>
</event>
<event>
 6    2  0.7993170E+000  0.1296274E+03  0.7546771E-02  0.1228010E+00
         21   -1    0    0  501  502  0.00000000000E+00  0.00000000000E+00  0.93081176271E+02  0.93081176271E+02  0.00000000000E+00 0. -1.
          4   -1    0    0  502    0 -0.00000000000E+00 -0.00000000000E+00 -0.16618290793E+03  0.16618290793E+03  0.00000000000E+00 0. -1.
         24    2    1    2    0    0 -0.92459614899E+02  0.41599022229E+02 -0.88159559509E+02  0.15676531730E+03  0.80771268015E+02 0.  0.
        -13    1    3    3    0    0 -0.34148863176E+02  0.77121203044E+01  0.11130992613E+02  0.36735822468E+02  0.00000000000E+00 0.  1.
         14    1    3    3    0    0 -0.58310751723E+02  0.33886901925E+02 -0.99290552121E+02  0.12002949483E+03  0.00000000000E+00 0. -1.
          3    1    1    2  501    0  0.92459614899E+02 -0.41599022229E+02  0.15057827848E+02  0.10249876691E+03  0.00000000000E+00 0. -1.
<mgrwt>
<rscale>  1 0.12962738E+03</rscale>
<asrwt>0</asrwt>
<pdfrwt beam="1">  1       21 0.14320181E-01 0.12962738E+03</pdfrwt>
<pdfrwt beam="2">  1        4 0.25566601E-01 0.12962738E+03</pdfrwt>
<totfact> 0.24840505E+04</totfact>
</mgrwt>
</event>
<event>
 6    2  0.7993170E+000  0.8261365E+02  0.7546771E-02  0.1321794E+00
         21   -1    0    0  501  502  0.00000000000E+00  0.00000000000E+00  0.70202548495E+02  0.70202548495E+02  0.00000000000E+00 0.  1.
          4   -1    0    0  502    0 -0.00000000000E+00 -0.00000000000E+00 -0.44283424076E+02  0.44283424076E+02  0.00000000000E+00 0. -1.
         24    2    1    2    0    0  0.21910449898E+02 -0.91864987855E+01  0.48909178053E+01  0.82758302501E+02  0.79123675225E+02 0.  0.
        -11    1    3    3    0    0  0.41273004657E+02  0.12316635101E+02  0.22794475408E+02  0.48731391554E+02  0.00000000000E+00 0.  1.
         12    1    3    3    0    0 -0.19362554759E+02 -0.21503133887E+02 -0.17903557603E+02  0.34026910947E+02  0.00000000000E+00 0. -1.
          3    1    1    2  501    0 -0.21910449898E+02  0.91864987855E+01  0.21028206614E+02  0.31727670070E+02  0.00000000000E+00 0. -1.
<mgrwt>
<rscale>  1 0.82613652E+02</rscale>
<asrwt>0</asrwt>
<pdfrwt beam="1">  1       21 0.10800392E-01 0.82613652E+02</pdfrwt>
<pdfrwt beam="2">  1        4 0.68128344E-02 0.82613652E+02</pdfrwt>
<totfact> 0.37174959E+05</totfact>
</mgrwt>
</event>
<event>
 6    2  0.7993170E+000  0.8690449E+02  0.7546771E-02  0.1310526E+00
         -1   -1    0    0    0  501 -0.00000000000E+00  0.00000000000E+00  0.76875873501E+02  0.76875873501E+02  0.00000000000E+00 0.  1.
         21   -1    0    0  501  502  0.00000000000E+00 -0.00000000000E+00 -0.48898229500E+02  0.48898229500E+02  0.00000000000E+00 0.  1.
         24    2    1    2    0    0 -0.17387823544E+02  0.23339896968E+02  0.38195561877E+02  0.94927822127E+02  0.81885916179E+02 0.  0.
        -13    1    3    3    0    0 -0.37678735957E+02  0.43944286962E+02  0.27605715614E+02  0.64131607141E+02  0.00000000000E+00 0.  1.
         14    1    3    3    0    0  0.20290912412E+02 -0.20604389994E+02  0.10589846263E+02  0.30796214986E+02  0.00000000000E+00 0. -1.
         -2    1    1    2    0  502  0.17387823544E+02 -0.23339896968E+02 -0.10217917876E+02  0.30846280875E+02  0.00000000000E+00 0.  1.
<mgrwt>
<rscale>  1 0.86904490E+02</rscale>
<asrwt>0</asrwt>
<pdfrwt beam="1">  1       21 0.75228045E-02 0.86904490E+02</pdfrwt>
<pdfrwt beam="2">  1       -1 0.11827057E-01 0.86904490E+02</pdfrwt>
<totfact> 0.52071780E+05</totfact>
</mgrwt>
</event>
<event>
 6    2  0.7993170E+000  0.1066492E+03  0.7546771E-02  0.1266904E+00
         21   -1    0    0  501  502  0.00000000000E+00  0.00000000000E+00  0.92885848198E+01  0.92885848198E+01  0.00000000000E+00 0.  1.
          2   -1    0    0  502    0 -0.00000000000E+00 -0.00000000000E+00 -0.94589208166E+03  0.94589208166E+03  0.00000000000E+00 0. -1.
         24    2    1    2    0    0 -0.65315446105E+02  0.25115935709E+02 -0.39765385789E+03  0.41170699550E+03  0.80480691600E+02 0.  0.
        -13    1    3    3    0    0 -0.79289458453E+02  0.17903639374E+02 -0.24255537292E+03  0.25581334495E+03  0.00000000000E+00 0.  1.
         14    1    3    3    0    0  0.13974012348E+02  0.72122963349E+01 -0.15509848498E+03  0.15589365055E+03  0.00000000000E+00 0. -1.
          1    1    1    2  501    0  0.65315446105E+02 -0.25115935709E+02 -0.53894963895E+03  0.54347367098E+03  0.00000000000E+00 0. -1.
<mgrwt>
<rscale>  1 0.10664924E+03</rscale>
<asrwt>0</asrwt>
<pdfrwt beam="1">  1       21 0.14290129E-02 0.10664924E+03</pdfrwt>
<pdfrwt beam="2">  1        2 0.14552188E+00 0.10664924E+03</pdfrwt>
<totfact> 0.73996380E+05</totfact>
</mgrwt>
</event>
<event>
 6    2  0.7993170E+000  0.8772716E+02  0.7546771E-02  0.1308451E+00
         21   -1    0    0  501  502  0.00000000000E+00  0.00000000000E+00  0.31314257142E+03  0.31314257142E+03  0.00000000000E+00 0. -1.
         -1   -1    0    0    0  501 -0.00000000000E+00 -0.00000000000E+00 -0.12026113351E+02  0.12026113351E+02  0.00000000000E+00 0.  1.
         24    2    1    2    0    0  0.30244039368E+02 -0.17314285413E+02  0.22276000271E+03  0.23941193289E+03  0.80508188443E+02 0.  0.
        -13    1    3    3    0    0  0.42090020181E+02 -0.13275686765E+02  0.52043911793E+02  0.68237690557E+02  0.00000000000E+00 0.  1.
         14    1    3    3    0    0 -0.11845980813E+02 -0.40385986484E+01  0.17071609091E+03  0.17117424233E+03  0.00000000000E+00 0. -1.
         -2    1    1    2    0  502 -0.30244039368E+02  0.17314285413E+02  0.78356455361E+02  0.85756751883E+02  0.00000000000E+00 0.  1.
<mgrwt>
<rscale>  1 0.87727161E+02</rscale>
<asrwt>0</asrwt>
<pdfrwt beam="1">  1       21 0.48175774E-01 0.87727161E+02</pdfrwt>
<pdfrwt beam="2">  1       -1 0.18501715E-02 0.87727161E+02</pdfrwt>
<totfact> 0.26058340E+05</totfact>
</mgrwt>
</event>
<event>
 6    2  0.7993170E+000  0.8294819E+02  0.7546771E-02  0.1320887E+00
         21   -1    0    0  501  502  0.00000000000E+00  0.00000000000E+00  0.15958200782E+01  0.15958200782E+01  0.00000000000E+00 0.  1.
          4   -1    0    0  502    0 -0.00000000000E+00 -0.00000000000E+00 -0.17818724579E+04  0.17818724579E+04  0.00000000000E+00 0. -1.
         24    2    1    2    0    0  0.20541973018E+02 -0.61219765784E+01 -0.15420317468E+04  0.15442610888E+04  0.80130836858E+02 0.  0.
        -11    1    3    3    0    0  0.44098677673E+02  0.19295552946E+02 -0.94305707006E+03  0.94428472885E+03  0.00000000000E+00 0.  1.
         12    1    3    3    0    0 -0.23556704655E+02 -0.25417529524E+02 -0.59897467671E+03  0.59997635994E+03  0.00000000000E+00 0. -1.
          3    1    1    2  501    0 -0.20541973018E+02  0.61219765784E+01 -0.23824489107E+03  0.23920718921E+03  0.00000000000E+00 0. -1.
<mgrwt>
<rscale>  1 0.82948190E+02</rscale>
<asrwt>0</asrwt>
<pdfrwt beam="1">  1       21 0.24551118E-03 0.82948190E+02</pdfrwt>
<pdfrwt beam="2">  1        4 0.27413378E+00 0.82948190E+02</pdfrwt>
<totfact> 0.67660960E+04</totfact>
</mgrwt>
</event>
<event>
 6    2  0.7993170E+000  0.8901931E+02  0.7546771E-02  0.1305244E+00
         21   -1    0    0  501  502  0.00000000000E+00  0.00000000000E+00  0.88292584102E+03  0.88292584102E+03  0.00000000000E+00 0. -1.
          4   -1    0    0  502    0 -0.00000000000E+00 -0.00000000000E+00 -0.65172899614E+01  0.65172899614E+01  0.00000000000E+00 0. -1.
         24    2    1    2    0    0 -0.27497379333E+02  0.17114665731E+01  0.31439569131E+03  0.32675539386E+03  0.84648695868E+02 0.  0.
        -11    1    3    3    0    0 -0.98570447875E+01 -0.23605559048E+02  0.27741564199E+03  0.27859257379E+03  0.00000000000E+00 0.  1.
         12    1    3    3    0    0 -0.17640334545E+02  0.25317025621E+02  0.36980049322E+02  0.48162820069E+02  0.00000000000E+00 0. -1.
          3    1    1    2  501    0  0.27497379333E+02 -0.17114665731E+01  0.56201285975E+03  0.56268773712E+03  0.00000000000E+00 0. -1.
<mgrwt>
<rscale>  1 0.89019305E+02</rscale>
<asrwt>0</asrwt>
<pdfrwt beam="1">  1       21 0.13583465E+00 0.89019305E+02</pdfrwt>
<pdfrwt beam="2">  1        4 0.10026607E-02 0.89019305E+02</pdfrwt>
<totfact> 0.44858589E+04</totfact>
</mgrwt>
</event>
<event>
 6    2  0.7993170E+000  0.8797031E+02  0.7546771E-02  0.1307843E+00
          2   -1    0    0  502    0 -0.00000000000E+00  0.00000000000E+00  0.11649078085E+04  0.11649078085E+04  0.00000000000E+00 0. -1.
         21   -1    0    0  501  502  0.00000000000E+00 -0.00000000000E+00 -0.34248065185E+01  0.34248065185E+01  0.00000000000E+00 0.  1.
         24    2    1    2    0    0 -0.12591054901E+02  0.35760298057E+02  0.76513913196E+03  0.77017963326E+03  0.79381626647E+02 0.  0.
        -13    1    3    3    0    0  0.21882198235E+02  0.46486921965E+02  0.40877888221E+03  0.41199519300E+03  0.00000000000E+00 0.  1.
         14    1    3    3    0    0 -0.34473253136E+02 -0.10726623908E+02  0.35636024975E+03  0.35818444026E+03  0.00000000000E+00 0. -1.
          1    1    1    2  501    0  0.12591054901E+02 -0.35760298057E+02  0.39634386999E+03  0.39815298173E+03  0.00000000000E+00 0. -1.
<mgrwt>
<rscale>  1 0.87970314E+02</rscale>
<asrwt>0</asrwt>
<pdfrwt beam="1">  1       21 0.52689424E-03 0.87970314E+02</pdfrwt>
<pdfrwt beam="2">  1        2 0.17921627E+00 0.87970314E+02</pdfrwt>
<totfact> 0.25831909E+06</totfact>
</mgrwt>
</event>
<event>
 6    2  0.7993170E+000  0.9259789E+02  0.7546771E-02  0.1296680E+00
         21   -1    0    0  501  502  0.00000000000E+00  0.00000000000E+00  0.77994910551E+01  0.77994910551E+01  0.00000000000E+00 0.  1.
          2   -1    0    0  502    0 -0.00000000000E+00 -0.00000000000E+00 -0.63873996501E+03  0.63873996501E+03  0.00000000000E+00 0. -1.
         24    2    1    2    0    0  0.10069525962E+01 -0.45411044325E+02 -0.35460015435E+03  0.36649097965E+03  0.80691956249E+02 0.  0.
        -11    1    3    3    0    0  0.22845156333E+02 -0.18845134208E+02 -0.38733756088E+02  0.48758015873E+02  0.00000000000E+00 0.  1.
         12    1    3    3    0    0 -0.21838203737E+02 -0.26565910117E+02 -0.31586639826E+03  0.31773296378E+03  0.00000000000E+00 0. -1.
          1    1    1    2  501    0 -0.10069525962E+01  0.45411044325E+02 -0.27634031961E+03  0.28004847642E+03  0.00000000000E+00 0. -1.
<mgrwt>
<rscale>  1 0.92597887E+02</rscale>
<asrwt>0</asrwt>
<pdfrwt beam="1">  1       21 0.11999212E-02 0.92597887E+02</pdfrwt>
<pdfrwt beam="2">  1        2 0.98267725E-01 0.92597887E+02</pdfrwt>
<totfact> 0.15554395E+06</totfact>
</mgrwt>
</event>
<event>
 6    2  0.7993170E+000  0.9003440E+02  0.7546771E-02  0.1302768E+00
         21   -1    0    0  501  502  0.00000000000E+00  0.00000000000E+00  0.23097487746E+01  0.23097487746E+01  0.00000000000E+00 0.  1.
          2   -1    0    0  502    0 -0.00000000000E+00 -0.00000000000E+00 -0.18806650403E+04  0.18806650403E+04  0.00000000000E+00 0. -1.
         24    2    1    2    0    0  0.94658584268E+01 -0.39577585785E+02 -0.13997512493E+04  0.14026438438E+04  0.80313167083E+02 0.  0.
        -13    1    3    3    0    0  0.28628624258E+02 -0.55941836430E+02 -0.11193269504E+04  0.11210896080E+04  0.00000000000E+00 0.  1.
         14    1    3    3    0    0 -0.19162765831E+02  0.16364250645E+02 -0.28042429883E+03  0.28155423575E+03  0.00000000000E+00 0. -1.
          1    1    1    2  501    0 -0.94658584268E+01  0.39577585785E+02 -0.47860404220E+03  0.48033094527E+03  0.00000000000E+00 0. -1.
<mgrwt>
<rscale>  1 0.90034397E+02</rscale>
<asrwt>0</asrwt>
<pdfrwt beam="1">  1       21 0.35534569E-03 0.90034397E+02</pdfrwt>
<pdfrwt beam="2">  1        2 0.28933330E+00 0.90034397E+02</pdfrwt>
<totfact> 0.20232854E+06</totfact>
</mgrwt>
</event>
<event>
 6    2  0.7993170E+000  0.1130644E+03  0.7546771E-02  0.1254998E+00
         21   -1    0    0  501  502  0.00000000000E+00  0.00000000000E+00  0.83831238175E+01  0.83831238175E+01  0.00000000000E+00 0. -1.
          2   -1    0    0  502    0 -0.00000000000E+00 -0.00000000000E+00 -0.11612068345E+04  0.11612068345E+04  0.00000000000E+00 0. -1.
         24    2    1    2    0    0  0.36780536232E+01 -0.80138574170E+02 -0.78646984013E+03  0.79455545642E+03  0.79673362789E+02 0.  0.
        -13    1    3    3    0    0 -0.12870414723E+01  0.15293490855E+02 -0.65160516787E+02  0.66943560454E+02  0.00000000000E+00 0.  1.
         14    1    3    3    0    0  0.49650950955E+01 -0.95432065025E+02 -0.72130932335E+03  0.72761189596E+03  0.00000000000E+00 0. -1.
          1    1    1    2  501    0 -0.36780536232E+01  0.80138574170E+02 -0.36635387060E+03  0.37503450195E+03  0.00000000000E+00 0. -1.
<mgrwt>
<rscale>  1 0.11306442E+03</rscale>
<asrwt>0</asrwt>
<pdfrwt beam="1">  1       21 0.12897114E-02 0.11306442E+03</pdfrwt>
<pdfrwt beam="2">  1        2 0.17864720E+00 0.11306442E+03</pdfrwt>
<totfact> 0.65577148E+05</totfact>
</mgrwt>
</event>
<event>
 6    2  0.7993170E+000  0.8679929E+02  0.7546771E-02  0.1310793E+00
         21   -1    0    0  501  502  0.00000000000E+00  0.00000000000E+00  0.51509570226E+02  0.51509570226E+02  0.00000000000E+00 0. -1.
         -1   -1    0    0    0  501 -0.00000000000E+00 -0.00000000000E+00 -0.80846829296E+02  0.80846829296E+02  0.00000000000E+00 0.  1.
         24    2    1    2    0    0  0.30687906603E+02  0.41058153023E+01 -0.44876910879E+02  0.97714140513E+02  0.81089523338E+02 0.  0.
        -11    1    3    3    0    0  0.54355559852E+01  0.34151542584E+02 -0.47066466070E+02  0.58404840194E+02  0.00000000000E+00 0.  1.
         12    1    3    3    0    0  0.25252350618E+02 -0.30045727281E+02  0.21895551919E+01  0.39309300319E+02  0.00000000000E+00 0. -1.
         -2    1    1    2    0  502 -0.30687906603E+02 -0.41058153023E+01  0.15539651808E+02  0.34642259010E+02  0.00000000000E+00 0.  1.
<mgrwt>
<rscale>  1 0.86799286E+02</rscale>
<asrwt>0</asrwt>
<pdfrwt beam="1">  1       21 0.79245493E-02 0.86799286E+02</pdfrwt>
<pdfrwt beam="2">  1       -1 0.12437974E-01 0.86799286E+02</pdfrwt>
<totfact> 0.44127543E+05</totfact>
</mgrwt>
</event>
<event>
 6    2  0.7993170E+000  0.8290347E+02  0.7546771E-02  0.1321008E+00
          2   -1    0    0  502    0 -0.00000000000E+00  0.00000000000E+00  0.28815722418E+04  0.28815722418E+04  0.00000000000E+00 0. -1.
         21   -1    0    0  501  502  0.00000000000E+00 -0.00000000000E+00 -0.31532633467E+01  0.31532633467E+01  0.00000000000E+00 0. -1.
         24    2    1    2    0    0 -0.13817767947E+02 -0.14632122559E+02  0.28412376205E+04  0.28424468686E+04  0.80423600134E+02 0.  0.
        -13    1    3    3    0    0 -0.14757412638E+02  0.20084973576E+02  0.31968510713E+03  0.32065519661E+03  0.00000000000E+00 0.  1.
         14    1    3    3    0    0  0.93964469118E+00 -0.34717096135E+02  0.25215525133E+04  0.25217916720E+04  0.00000000000E+00 0. -1.
          1    1    1    2  501    0  0.13817767947E+02  0.14632122559E+02  0.37181357976E+02  0.42278636479E+02  0.00000000000E+00 0. -1.
<mgrwt>
<rscale>  1 0.82903469E+02</rscale>
<asrwt>0</asrwt>
<pdfrwt beam="1">  1       21 0.48511974E-03 0.82903469E+02</pdfrwt>
<pdfrwt beam="2">  1        2 0.44331670E+00 0.82903469E+02</pdfrwt>
<totfact> 0.37861059E+05</totfact>
</mgrwt>
</event>
<event>
 6    2  0.7993170E+000  0.8329814E+02  0.7546771E-02  0.1319944E+00
         21   -1    0    0  501  502  0.00000000000E+00  0.00000000000E+00  0.27534541031E+02  0.27534541031E+02  0.00000000000E+00 0.  1.
          2   -1    0    0  502    0 -0.00000000000E+00 -0.00000000000E+00 -0.12144482989E+03  0.12144482989E+03  0.00000000000E+00 0. -1.
         24    2    1    2    0    0  0.26129186234E+02  0.37573126212E+01 -0.89411815269E+02  0.12220087141E+03  0.79004610581E+02 0.  0.
        -13    1    3    3    0    0  0.45324277377E+02 -0.14343884669E+02 -0.27545431397E+02  0.54943497686E+02  0.00000000000E+00 0.  1.
         14    1    3    3    0    0 -0.19195091142E+02  0.18101197290E+02 -0.61866383873E+02  0.67257373728E+02  0.00000000000E+00 0. -1.
          1    1    1    2  501    0 -0.26129186234E+02 -0.37573126212E+01 -0.44984735929E+01  0.26778499511E+02  0.00000000000E+00 0. -1.
<mgrwt>
<rscale>  1 0.83298141E+02</rscale>
<asrwt>0</asrwt>
<pdfrwt beam="1">  1       21 0.42360833E-02 0.83298141E+02</pdfrwt>
<pdfrwt beam="2">  1        2 0.18683820E-01 0.83298141E+02</pdfrwt>
<totfact> 0.12013102E+06</totfact>
</mgrwt>
</event>
<event>
 6    2  0.7993170E+000  0.8589234E+02  0.7546771E-02  0.1313115E+00
         21   -1    0    0  501  502  0.00000000000E+00  0.00000000000E+00  0.46342611180E+01  0.46342611180E+01  0.00000000000E+00 0.  1.
         -1   -1    0    0    0  501 -0.00000000000E+00 -0.00000000000E+00 -0.73466987965E+03  0.73466987965E+03  0.00000000000E+00 0.  1.
         24    2    1    2    0    0  0.24252460035E+02 -0.18774343153E+02 -0.55327821431E+03  0.55990559638E+03  0.80229898773E+02 0.  0.
        -13    1    3    3    0    0  0.51690903276E+02  0.13087133143E+01 -0.31571808932E+03  0.31992432564E+03  0.00000000000E+00 0.  1.
         14    1    3    3    0    0 -0.27438443240E+02 -0.20083056467E+02 -0.23756012499E+03  0.23998127074E+03  0.00000000000E+00 0. -1.
         -2    1    1    2    0  502 -0.24252460035E+02  0.18774343153E+02 -0.17675740422E+03  0.17939854438E+03  0.00000000000E+00 0.  1.
<mgrwt>
<rscale>  1 0.85892342E+02</rscale>
<asrwt>0</asrwt>
<pdfrwt beam="1">  1       21 0.71296418E-03 0.85892342E+02</pdfrwt>
<pdfrwt beam="2">  1       -1 0.11302599E+00 0.85892342E+02</pdfrwt>
<totfact> 0.42986144E+05</totfact>
</mgrwt>
</event>
<event>
 6    2  0.7993170E+000  0.8434976E+02  0.7546771E-02  0.1317142E+00
          2   -1    0    0  502    0 -0.00000000000E+00  0.00000000000E+00  0.15239314767E+03  0.15239314767E+03  0.00000000000E+00 0. -1.
         21   -1    0    0  501  502  0.00000000000E+00 -0.00000000000E+00 -0.24166910656E+02  0.24166910656E+02  0.00000000000E+00 0.  1.
         24    2    1    2    0    0  0.21614049825E+02 -0.16017231020E+02  0.12301774913E+03  0.14915846739E+03  0.79944749392E+02 0.  0.
        -13    1    3    3    0    0  0.31222767558E+01 -0.10913684517E+02 -0.97792866858E+01  0.14983042747E+02  0.00000000000E+00 0.  1.
         14    1    3    3    0    0  0.18491773069E+02 -0.51035465026E+01  0.13279703581E+03  0.13417542465E+03  0.00000000000E+00 0. -1.
          1    1    1    2  501    0 -0.21614049825E+02  0.16017231020E+02  0.52084878821E+01  0.27401590928E+02  0.00000000000E+00 0. -1.
<mgrwt>
<rscale>  1 0.84349759E+02</rscale>
<asrwt>0</asrwt>
<pdfrwt beam="1">  1       21 0.37179863E-02 0.84349759E+02</pdfrwt>
<pdfrwt beam="2">  1        2 0.23445099E-01 0.84349759E+02</pdfrwt>
<totfact> 0.11590877E+06</totfact>
</mgrwt>
</event>
<event>
 6    2  0.7993170E+000  0.8676884E+02  0.7546771E-02  0.1310871E+00
         21   -1    0    0  501  502  0.00000000000E+00  0.00000000000E+00  0.58148431342E+01  0.58148431342E+01  0.00000000000E+00 0. -1.
          2   -1    0    0  502    0 -0.00000000000E+00 -0.00000000000E+00 -0.77892668742E+03  0.77892668742E+03  0.00000000000E+00 0. -1.
         24    2    1    2    0    0 -0.34379778749E+02 -0.70111834770E+00 -0.67942734016E+03  0.68494550324E+03  0.79664114272E+02 0.  0.
        -13    1    3    3    0    0  0.10067785635E+02  0.19497042404E+02 -0.65455390928E+02  0.69035521086E+02  0.00000000000E+00 0.  1.
         14    1    3    3    0    0 -0.44447564384E+02 -0.20198160751E+02 -0.61397194923E+03  0.61590998215E+03  0.00000000000E+00 0. -1.
          1    1    1    2  501    0  0.34379778749E+02  0.70111834770E+00 -0.93684504132E+02  0.99796027316E+02  0.00000000000E+00 0. -1.
<mgrwt>
<rscale>  1 0.86768842E+02</rscale>
<asrwt>0</asrwt>
<pdfrwt beam="1">  1       21 0.89459099E-03 0.86768842E+02</pdfrwt>
<pdfrwt beam="2">  1        2 0.11983491E+00 0.86768842E+02</pdfrwt>
<totfact> 0.19393051E+06</totfact>
</mgrwt>
</event>
<event>
 6    2  0.7993170E+000  0.8558066E+02  0.7546771E-02  0.1313921E+00
         21   -1    0    0  501  502  0.00000000000E+00  0.00000000000E+00  0.35670347565E+01  0.35670347565E+01  0.00000000000E+00 0.  1.
          2   -1    0    0  502    0 -0.00000000000E+00 -0.00000000000E+00 -0.95243743460E+03  0.95243743460E+03  0.00000000000E+00 0. -1.
         24    2    1    2    0    0  0.28366259760E+02  0.11505867159E+02 -0.66330152385E+03  0.66879964243E+03  0.79918836985E+02 0.  0.
        -11    1    3    3    0    0  0.32513180576E+02 -0.82704720288E+01 -0.10710754229E+03  0.11223873321E+03  0.00000000000E+00 0.  1.
         12    1    3    3    0    0 -0.41469208157E+01  0.19776339188E+02 -0.55619398156E+03  0.55656090921E+03  0.00000000000E+00 0. -1.
          1    1    1    2  501    0 -0.28366259760E+02 -0.11505867159E+02 -0.28556887600E+03  0.28720482693E+03  0.00000000000E+00 0. -1.
<mgrwt>
<rscale>  1 0.85580665E+02</rscale>
<asrwt>0</asrwt>
<pdfrwt beam="1">  1       21 0.54877479E-03 0.85580665E+02</pdfrwt>
<pdfrwt beam="2">  1        2 0.14652878E+00 0.85580665E+02</pdfrwt>
<totfact> 0.31997395E+06</totfact>
</mgrwt>
</event>
<event>
 6    2  0.7993170E+000  0.9016989E+02  0.7546771E-02  0.1302441E+00
         -1   -1    0    0    0  501 -0.00000000000E+00  0.00000000000E+00  0.73077900159E+02  0.73077900159E+02  0.00000000000E+00 0.  1.
         21   -1    0    0  501  502  0.00000000000E+00 -0.00000000000E+00 -0.33844262832E+03  0.33844262832E+03  0.00000000000E+00 0.  1.
         24    2    1    2    0    0  0.39018708295E+02  0.35536775939E+01  0.43546563719E+02  0.10013447472E+03  0.81212816693E+02 0.  0.
        -11    1    3    3    0    0  0.82644258969E+01 -0.19832500656E+02  0.55644678714E+02  0.59648630218E+02  0.00000000000E+00 0.  1.
         12    1    3    3    0    0  0.30754282398E+02  0.23386178250E+02 -0.12098114995E+02  0.40485844507E+02  0.00000000000E+00 0. -1.
         -2    1    1    2    0  502 -0.39018708295E+02 -0.35536775939E+01 -0.30891129188E+03  0.31138605376E+03  0.00000000000E+00 0.  1.
<mgrwt>
<rscale>  1 0.90169894E+02</rscale>
<asrwt>0</asrwt>
<pdfrwt beam="1">  1       21 0.52068095E-01 0.90169894E+02</pdfrwt>
<pdfrwt beam="2">  1       -1 0.11242754E-01 0.90169894E+02</pdfrwt>
<totfact> 0.15915052E+04</totfact>
</mgrwt>
</event>
<event>
 6    2  0.7993170E+000  0.9253368E+02  0.7546771E-02  0.1296829E+00
         21   -1    0    0  501  502  0.00000000000E+00  0.00000000000E+00  0.44105518758E+01  0.44105518758E+01  0.00000000000E+00 0.  1.
         -3   -1    0    0    0  501 -0.00000000000E+00 -0.00000000000E+00 -0.11323154678E+04  0.11323154678E+04  0.00000000000E+00 0.  1.
         24    2    1    2    0    0 -0.42504068948E+02  0.84423014932E+01 -0.89946426917E+03  0.90421150955E+03  0.81759489667E+02 0.  0.
        -11    1    3    3    0    0 -0.66427847992E+02 -0.18645750622E+01 -0.65641949365E+03  0.65977472464E+03  0.00000000000E+00 0.  1.
         12    1    3    3    0    0  0.23923779044E+02  0.10306876555E+02 -0.24304477552E+03  0.24443678491E+03  0.00000000000E+00 0. -1.
         -4    1    1    2    0  502  0.42504068948E+02 -0.84423014932E+01 -0.22844064679E+03  0.23251451017E+03  0.00000000000E+00 0.  1.
<mgrwt>
<rscale>  1 0.92533683E+02</rscale>
<asrwt>0</asrwt>
<pdfrwt beam="1">  1       21 0.67854567E-03 0.92533683E+02</pdfrwt>
<pdfrwt beam="2">  1       -3 0.17420258E+00 0.92533683E+02</pdfrwt>
<totfact> 0.73926066E+04</totfact>
</mgrwt>
</event>
<event>
 6    2  0.7993170E+000  0.8741752E+02  0.7546771E-02  0.1309229E+00
         21   -1    0    0  501  502  0.00000000000E+00  0.00000000000E+00  0.38371769810E+02  0.38371769810E+02  0.00000000000E+00 0.  1.
          2   -1    0    0  502    0 -0.00000000000E+00 -0.00000000000E+00 -0.77572667615E+02  0.77572667615E+02  0.00000000000E+00 0. -1.
         24    2    1    2    0    0 -0.20759595622E+02  0.41851977377E+01 -0.35941533458E+02  0.94517815049E+02  0.84813600583E+02 0.  0.
        -13    1    3    3    0    0 -0.78433560048E+01 -0.21211748943E+02  0.20989545158E+02  0.30854781357E+02  0.00000000000E+00 0.  1.
         14    1    3    3    0    0 -0.12916239617E+02  0.25396946681E+02 -0.56931078616E+02  0.63663033692E+02  0.00000000000E+00 0. -1.
          1    1    1    2  501    0  0.20759595622E+02 -0.41851977377E+01 -0.32593643470E+01  0.21426622375E+02  0.00000000000E+00 0. -1.
<mgrwt>
<rscale>  1 0.87417524E+02</rscale>
<asrwt>0</asrwt>
<pdfrwt beam="1">  1       21 0.59033493E-02 0.87417524E+02</pdfrwt>
<pdfrwt beam="2">  1        2 0.11934256E-01 0.87417524E+02</pdfrwt>
<totfact> 0.11679450E+06</totfact>
</mgrwt>
</event>
<event>
 6    2  0.7993170E+000  0.8541876E+02  0.7546771E-02  0.1314341E+00
         21   -1    0    0  501  502  0.00000000000E+00  0.00000000000E+00  0.48787042345E+01  0.48787042345E+01  0.00000000000E+00 0. -1.
          2   -1    0    0  502    0 -0.00000000000E+00 -0.00000000000E+00 -0.65688623457E+03  0.65688623457E+03  0.00000000000E+00 0. -1.
         24    2    1    2    0    0 -0.19984623242E+02 -0.18811369503E+02 -0.51495176661E+03  0.52198820555E+03  0.80889504947E+02 0.  0.
        -13    1    3    3    0    0  0.29839182450E+02 -0.14842960497E+02 -0.26506163616E+03  0.26714857524E+03  0.00000000000E+00 0.  1.
         14    1    3    3    0    0 -0.49823805693E+02 -0.39684090060E+01 -0.24989013045E+03  0.25483963032E+03  0.00000000000E+00 0. -1.
          1    1    1    2  501    0  0.19984623242E+02  0.18811369503E+02 -0.13705576372E+03  0.13977673325E+03  0.00000000000E+00 0. -1.
<mgrwt>
<rscale>  1 0.85418761E+02</rscale>
<asrwt>0</asrwt>
<pdfrwt beam="1">  1       21 0.75056968E-03 0.85418761E+02</pdfrwt>
<pdfrwt beam="2">  1        2 0.10105945E+00 0.85418761E+02</pdfrwt>
<totfact> 0.31042266E+06</totfact>
</mgrwt>
</event>
<event>
 6    2  0.7993170E+000  0.8539143E+02  0.7546771E-02  0.1314412E+00
          2   -1    0    0  502    0 -0.00000000000E+00  0.00000000000E+00  0.10537632797E+04  0.10537632797E+04  0.00000000000E+00 0. -1.
         21   -1    0    0  501  502  0.00000000000E+00 -0.00000000000E+00 -0.58587074463E+01  0.58587074463E+01  0.00000000000E+00 0. -1.
         24    2    1    2    0    0 -0.25083643294E+02  0.14611304001E+02  0.99978043194E+03  0.10034204547E+04  0.80305774978E+02 0.  0.
        -11    1    3    3    0    0 -0.16514917185E+01 -0.62228110516E+01  0.50148688035E+01  0.81608646232E+01  0.00000000000E+00 0.  1.
         12    1    3    3    0    0 -0.23432151576E+02  0.20834115053E+02  0.99476556313E+03  0.99525959009E+03  0.00000000000E+00 0. -1.
          1    1    1    2  501    0  0.25083643294E+02 -0.14611304001E+02  0.48124140277E+02  0.56201532390E+02  0.00000000000E+00 0. -1.
<mgrwt>
<rscale>  1 0.85391433E+02</rscale>
<asrwt>0</asrwt>
<pdfrwt beam="1">  1       21 0.90134044E-03 0.85391433E+02</pdfrwt>
<pdfrwt beam="2">  1        2 0.16211728E+00 0.85391433E+02</pdfrwt>
<totfact> 0.12970174E+06</totfact>
</mgrwt>
</event>
<event>
 6    2  0.7993170E+000  0.8380473E+02  0.7546771E-02  0.1318588E+00
          2   -1    0    0  502    0 -0.00000000000E+00  0.00000000000E+00  0.13099834751E+04  0.13099834751E+04  0.00000000000E+00 0. -1.
         21   -1    0    0  501  502  0.00000000000E+00 -0.00000000000E+00 -0.29898976447E+01  0.29898976447E+01  0.00000000000E+00 0. -1.
         24    2    1    2    0    0  0.83926669407E+01  0.23108369241E+02  0.12104843854E+04  0.12133819186E+04  0.80117410740E+02 0.  0.
        -11    1    3    3    0    0  0.34172724729E+02 -0.15279652742E+02  0.50809533428E+03  0.50947238553E+03  0.00000000000E+00 0.  1.
         12    1    3    3    0    0 -0.25780057789E+02  0.38388021983E+02  0.70238905114E+03  0.70390953308E+03  0.00000000000E+00 0. -1.
          1    1    1    2  501    0 -0.83926669407E+01 -0.23108369241E+02  0.96509192069E+02  0.99591454157E+02  0.00000000000E+00 0. -1.
<mgrwt>
<rscale>  1 0.83804732E+02</rscale>
<asrwt>0</asrwt>
<pdfrwt beam="1">  1       21 0.45998530E-03 0.83804732E+02</pdfrwt>
<pdfrwt beam="2">  1        2 0.20153546E+00 0.83804732E+02</pdfrwt>
<totfact> 0.26460670E+06</totfact>
</mgrwt>
</event>
<event>
 6    2  0.7993170E+000  0.1246098E+03  0.7546771E-02  0.1235680E+00
         -1   -1    0    0    0  501 -0.00000000000E+00  0.00000000000E+00  0.11131298275E+03  0.11131298275E+03  0.00000000000E+00 0.  1.
         21   -1    0    0  501  502  0.00000000000E+00 -0.00000000000E+00 -0.12244840421E+03  0.12244840421E+03  0.00000000000E+00 0. -1.
         24    2    1    2    0    0 -0.23522196776E+02  0.97639753395E+02 -0.37120296486E+02  0.13002118783E+03  0.73761627490E+02 0.  0.
        -11    1    3    3    0    0 -0.46241096786E+02  0.35461025218E+02 -0.14332032948E+02  0.60009420176E+02  0.00000000000E+00 0.  1.
         12    1    3    3    0    0  0.22718900009E+02  0.62178728177E+02 -0.22788263538E+02  0.70011767657E+02  0.00000000000E+00 0. -1.
         -2    1    1    2    0  502  0.23522196776E+02 -0.97639753395E+02  0.25984875030E+02  0.10374019913E+03  0.00000000000E+00 0.  1.
<mgrwt>
<rscale>  1 0.12460976E+03</rscale>
<asrwt>0</asrwt>
<pdfrwt beam="1">  1       21 0.18838216E-01 0.12460976E+03</pdfrwt>
<pdfrwt beam="2">  1       -1 0.17125074E-01 0.12460976E+03</pdfrwt>
<totfact> 0.59713419E+04</totfact>
</mgrwt>
</event>
<event>
 6    2  0.7993170E+000  0.7953462E+02  0.7546771E-02  0.1330377E+00
         -1   -1    0    0    0  501 -0.00000000000E+00  0.00000000000E+00  0.38652266294E+03  0.38652266294E+03  0.00000000000E+00 0.  1.
         21   -1    0    0  501  502  0.00000000000E+00 -0.00000000000E+00 -0.76341281905E+01  0.76341281905E+01  0.00000000000E+00 0. -1.
         24    2    1    2    0    0  0.20288814264E+02 -0.87194847185E+01  0.34231636588E+03  0.35143456115E+03  0.76407401662E+02 0.  0.
        -13    1    3    3    0    0 -0.13292404802E+02 -0.21688719595E+02  0.26420868048E+03  0.26543043424E+03  0.00000000000E+00 0.  1.
         14    1    3    3    0    0  0.33581219066E+02  0.12969234877E+02  0.78107685398E+02  0.86004126909E+02  0.00000000000E+00 0. -1.
         -2    1    1    2    0  502 -0.20288814264E+02  0.87194847185E+01  0.36572168869E+02  0.42722229972E+02  0.00000000000E+00 0.  1.
<mgrwt>
<rscale>  1 0.79534624E+02</rscale>
<asrwt>0</asrwt>
<pdfrwt beam="1">  1       21 0.11744816E-02 0.79534624E+02</pdfrwt>
<pdfrwt beam="2">  1       -1 0.59465010E-01 0.79534624E+02</pdfrwt>
<totfact> 0.73031343E+05</totfact>
</mgrwt>
</event>
<event>
 6    2  0.7993170E+000  0.8330429E+02  0.7546771E-02  0.1319927E+00
          2   -1    0    0  502    0 -0.00000000000E+00  0.00000000000E+00  0.19243472113E+04  0.19243472113E+04  0.00000000000E+00 0. -1.
         21   -1    0    0  501  502  0.00000000000E+00 -0.00000000000E+00 -0.15454953328E+01  0.15454953328E+01  0.00000000000E+00 0.  1.
         24    2    1    2    0    0 -0.20198574561E+02 -0.16003090516E+01  0.12425808549E+04  0.12453701404E+04  0.80802611852E+02 0.  0.
        -11    1    3    3    0    0 -0.99396593429E+01  0.13458043840E+02  0.51490813842E+02  0.54140739577E+02  0.00000000000E+00 0.  1.
         12    1    3    3    0    0 -0.10258915218E+02 -0.15058352892E+02  0.11910900411E+04  0.11912294008E+04  0.00000000000E+00 0. -1.
          1    1    1    2  501    0  0.20198574561E+02  0.16003090516E+01  0.68022086109E+03  0.68052256632E+03  0.00000000000E+00 0. -1.
<mgrwt>
<rscale>  1 0.83304295E+02</rscale>
<asrwt>0</asrwt>
<pdfrwt beam="1">  1       21 0.23777005E-03 0.83304295E+02</pdfrwt>
<pdfrwt beam="2">  1        2 0.29605150E+00 0.83304295E+02</pdfrwt>
<totfact> 0.35091178E+06</totfact>
</mgrwt>
</event>
<event>
 6    2  0.7993170E+000  0.8625620E+02  0.7546771E-02  0.1312180E+00
         21   -1    0    0  501  502  0.00000000000E+00  0.00000000000E+00  0.82574912501E+02  0.82574912501E+02  0.00000000000E+00 0.  1.
          2   -1    0    0  502    0 -0.00000000000E+00 -0.00000000000E+00 -0.46134764159E+02  0.46134764159E+02  0.00000000000E+00 0. -1.
         24    2    1    2    0    0  0.31242968835E+02  0.32384221541E+01  0.43367254608E+02  0.96544551432E+02  0.80333810811E+02 0.  0.
        -11    1    3    3    0    0  0.36576967218E+02  0.67525973761E+01  0.64506238719E+02  0.74461580267E+02  0.00000000000E+00 0.  1.
         12    1    3    3    0    0 -0.53339983835E+01 -0.35141752219E+01 -0.21138984111E+02  0.22082971165E+02  0.00000000000E+00 0. -1.
          1    1    1    2  501    0 -0.31242968835E+02 -0.32384221541E+01 -0.69271062671E+01  0.32165125228E+02  0.00000000000E+00 0. -1.
<mgrwt>
<rscale>  1 0.86256198E+02</rscale>
<asrwt>0</asrwt>
<pdfrwt beam="1">  1       21 0.12703833E-01 0.86256198E+02</pdfrwt>
<pdfrwt beam="2">  1        2 0.70976560E-02 0.86256198E+02</pdfrwt>
<totfact> 0.59024599E+05</totfact>
</mgrwt>
</event>
<event>
 6    2  0.7993170E+000  0.8419709E+02  0.7546771E-02  0.1317546E+00
          2   -1    0    0  502    0 -0.00000000000E+00  0.00000000000E+00  0.47073816697E+03  0.47073816697E+03  0.00000000000E+00 0. -1.
         21   -1    0    0  501  502  0.00000000000E+00 -0.00000000000E+00 -0.11917262552E+02  0.11917262552E+02  0.00000000000E+00 0.  1.
         24    2    1    2    0    0  0.28220945381E+02 -0.18835145375E+00  0.44168567299E+03  0.44963917003E+03  0.79326491585E+02 0.  0.
        -11    1    3    3    0    0  0.61809445619E+01  0.16001980323E+02  0.17264493632E+02  0.24337834544E+02  0.00000000000E+00 0.  1.
         12    1    3    3    0    0  0.22040000819E+02 -0.16190331777E+02  0.42442117936E+03  0.42530133549E+03  0.00000000000E+00 0. -1.
          1    1    1    2  501    0 -0.28220945381E+02  0.18835145375E+00  0.17135231420E+02  0.33016259483E+02  0.00000000000E+00 0. -1.
<mgrwt>
<rscale>  1 0.84197087E+02</rscale>
<asrwt>0</asrwt>
<pdfrwt beam="1">  1       21 0.18334254E-02 0.84197087E+02</pdfrwt>
<pdfrwt beam="2">  1        2 0.72421242E-01 0.84197087E+02</pdfrwt>
<totfact> 0.11014456E+06</totfact>
</mgrwt>
</event>
<event>
 6    2  0.7993170E+000  0.8471986E+02  0.7546771E-02  0.1316167E+00
         21   -1    0    0  501  502  0.00000000000E+00  0.00000000000E+00  0.10195765874E+02  0.10195765874E+02  0.00000000000E+00 0.  1.
          2   -1    0    0  502    0 -0.00000000000E+00 -0.00000000000E+00 -0.44275827493E+03  0.44275827493E+03  0.00000000000E+00 0. -1.
         24    2    1    2    0    0 -0.24584644527E+02 -0.14525892651E+02 -0.40316746042E+03  0.41197264029E+03  0.79762452945E+02 0.  0.
        -11    1    3    3    0    0 -0.42576263681E+02 -0.31633386815E+02 -0.18677097217E+03  0.19415665179E+03  0.00000000000E+00 0.  1.
         12    1    3    3    0    0  0.17991619154E+02  0.17107494164E+02 -0.21639648826E+03  0.21781598850E+03  0.00000000000E+00 0. -1.
          1    1    1    2  501    0  0.24584644527E+02  0.14525892651E+02 -0.29395048629E+02  0.40981400510E+02  0.00000000000E+00 0. -1.
<mgrwt>
<rscale>  1 0.84719863E+02</rscale>
<asrwt>0</asrwt>
<pdfrwt beam="1">  1       21 0.15685796E-02 0.84719863E+02</pdfrwt>
<pdfrwt beam="2">  1        2 0.68116647E-01 0.84719863E+02</pdfrwt>
<totfact> 0.15070642E+06</totfact>
</mgrwt>
</event>
<event>
 6    2  0.7993170E+000  0.8646434E+02  0.7546771E-02  0.1311647E+00
         21   -1    0    0  501  502  0.00000000000E+00  0.00000000000E+00  0.18353713397E+01  0.18353713397E+01  0.00000000000E+00 0.  1.
          2   -1    0    0  502    0 -0.00000000000E+00 -0.00000000000E+00 -0.18876955165E+04  0.18876955165E+04  0.00000000000E+00 0. -1.
         24    2    1    2    0    0  0.22785162402E+02 -0.17328569004E+02 -0.12228223584E+04  0.12258754429E+04  0.81588224440E+02 0.  0.
        -13    1    3    3    0    0 -0.12339811366E+02  0.48412088599E+01 -0.36605887936E+02  0.38931982731E+02  0.00000000000E+00 0.  1.
         14    1    3    3    0    0  0.35124973768E+02 -0.22169777864E+02 -0.11862164705E+04  0.11869434602E+04  0.00000000000E+00 0. -1.
          1    1    1    2  501    0 -0.22785162402E+02  0.17328569004E+02 -0.66303778675E+03  0.66365544493E+03  0.00000000000E+00 0. -1.
<mgrwt>
<rscale>  1 0.86464335E+02</rscale>
<asrwt>0</asrwt>
<pdfrwt beam="1">  1       21 0.28236448E-03 0.86464335E+02</pdfrwt>
<pdfrwt beam="2">  1        2 0.29041505E+00 0.86464335E+02</pdfrwt>
<totfact> 0.28341308E+06</totfact>
</mgrwt>
</event>
<event>
 6    2  0.7993170E+000  0.1083515E+03  0.7546771E-02  0.1263653E+00
          2   -1    0    0  502    0 -0.00000000000E+00  0.00000000000E+00  0.22839706803E+03  0.22839706803E+03  0.00000000000E+00 0. -1.
         21   -1    0    0  501  502  0.00000000000E+00 -0.00000000000E+00 -0.37116484313E+02  0.37116484313E+02  0.00000000000E+00 0. -1.
         24    2    1    2    0    0  0.75651646112E+02 -0.39496478818E+01  0.10990393550E+03  0.15433383228E+03  0.77467964153E+02 0.  0.
        -11    1    3    3    0    0  0.23800882969E+02  0.26606150912E+02  0.78972505114E+02  0.86666174835E+02  0.00000000000E+00 0.  1.
         12    1    3    3    0    0  0.51850763143E+02 -0.30555798794E+02  0.30931430387E+02  0.67667657446E+02  0.00000000000E+00 0. -1.
          1    1    1    2  501    0 -0.75651646112E+02  0.39496478818E+01  0.81376648211E+02  0.11117972006E+03  0.00000000000E+00 0. -1.
<mgrwt>
<rscale>  1 0.10835154E+03</rscale>
<asrwt>0</asrwt>
<pdfrwt beam="1">  1       21 0.57102285E-02 0.10835154E+03</pdfrwt>
<pdfrwt beam="2">  1        2 0.35138010E-01 0.10835154E+03</pdfrwt>
<totfact> 0.37652793E+05</totfact>
</mgrwt>
</event>
<event>
 6    2  0.7993170E+000  0.8373855E+02  0.7546771E-02  0.1318765E+00
          4   -1    0    0  502    0 -0.00000000000E+00  0.00000000000E+00  0.32389175273E+03  0.32389175273E+03  0.00000000000E+00 0. -1.
         21   -1    0    0  501  502  0.00000000000E+00 -0.00000000000E+00 -0.17900441366E+02  0.17900441366E+02  0.00000000000E+00 0. -1.
         24    2    1    2    0    0 -0.26892314098E+01  0.20694404924E+02  0.30950243518E+03  0.32063047509E+03  0.81096570935E+02 0.  0.
        -13    1    3    3    0    0  0.14400205161E+02  0.41165049827E+02  0.95664013465E+02  0.10513577273E+03  0.00000000000E+00 0.  1.
         14    1    3    3    0    0 -0.17089436571E+02 -0.20470644903E+02  0.21383842171E+03  0.21549470236E+03  0.00000000000E+00 0. -1.
          3    1    1    2  501    0  0.26892314098E+01 -0.20694404924E+02 -0.35111238119E+01  0.21161719003E+02  0.00000000000E+00 0. -1.
<mgrwt>
<rscale>  1 0.83738547E+02</rscale>
<asrwt>0</asrwt>
<pdfrwt beam="1">  1       21 0.27539143E-02 0.83738547E+02</pdfrwt>
<pdfrwt beam="2">  1        4 0.49829496E-01 0.83738547E+02</pdfrwt>
<totfact> 0.10559697E+05</totfact>
</mgrwt>
</event>
<event>
 6    2  0.7993170E+000  0.8577368E+02  0.7546771E-02  0.1313422E+00
         21   -1    0    0  501  502  0.00000000000E+00  0.00000000000E+00  0.32928054814E+01  0.32928054814E+01  0.00000000000E+00 0. -1.
          2   -1    0    0  502    0 -0.00000000000E+00 -0.00000000000E+00 -0.89847350211E+03  0.89847350211E+03  0.00000000000E+00 0. -1.
         24    2    1    2    0    0  0.20858459394E+02 -0.41960347718E+01 -0.77330599349E+03  0.77804838124E+03  0.83092971682E+02 0.  0.
        -13    1    3    3    0    0 -0.17693607346E+01  0.21630219551E+02 -0.58138792253E+02  0.62057362173E+02  0.00000000000E+00 0.  1.
         14    1    3    3    0    0  0.22627820129E+02 -0.25826254323E+02 -0.71516720123E+03  0.71599101906E+03  0.00000000000E+00 0. -1.
          1    1    1    2  501    0 -0.20858459394E+02  0.41960347718E+01 -0.12187470314E+03  0.12371792635E+03  0.00000000000E+00 0. -1.
<mgrwt>
<rscale>  1 0.85773679E+02</rscale>
<asrwt>0</asrwt>
<pdfrwt beam="1">  1       21 0.50658568E-03 0.85773679E+02</pdfrwt>
<pdfrwt beam="2">  1        2 0.13822663E+00 0.85773679E+02</pdfrwt>
<totfact> 0.39020374E+06</totfact>
</mgrwt>
</event>
<event>
 6    2  0.7993170E+000  0.7409724E+02  0.7546771E-02  0.1346690E+00
         21   -1    0    0  501  502  0.00000000000E+00  0.00000000000E+00  0.12049337414E+03  0.12049337414E+03  0.00000000000E+00 0.  1.
          2   -1    0    0  502    0 -0.00000000000E+00 -0.00000000000E+00 -0.18644860489E+02  0.18644860489E+02  0.00000000000E+00 0. -1.
         24    2    1    2    0    0  0.19987985427E+02  0.53043467570E+01  0.80770039939E+02  0.10960930458E+03  0.71152966504E+02 0.  0.
        -11    1    3    3    0    0  0.49927098585E+01 -0.21701837551E+01  0.90212666097E+02  0.90376777845E+02  0.00000000000E+00 0.  1.
         12    1    3    3    0    0  0.14995275569E+02  0.74745305121E+01 -0.94426261585E+01  0.19232526733E+02  0.00000000000E+00 0. -1.
          1    1    1    2  501    0 -0.19987985427E+02 -0.53043467570E+01  0.21078473717E+02  0.29528930055E+02  0.00000000000E+00 0. -1.
<mgrwt>
<rscale>  1 0.74097235E+02</rscale>
<asrwt>0</asrwt>
<pdfrwt beam="1">  1       21 0.18537442E-01 0.74097235E+02</pdfrwt>
<pdfrwt beam="2">  1        2 0.28684401E-02 0.74097235E+02</pdfrwt>
<totfact> 0.95247729E+05</totfact>
</mgrwt>
</event>
<event>
 6    2  0.7993170E+000  0.9684696E+02  0.7546771E-02  0.1287070E+00
         21   -1    0    0  501  502  0.00000000000E+00  0.00000000000E+00  0.62266987383E+01  0.62266987383E+01  0.00000000000E+00 0. -1.
          2   -1    0    0  502    0 -0.00000000000E+00 -0.00000000000E+00 -0.14770595306E+04  0.14770595306E+04  0.00000000000E+00 0. -1.
         24    2    1    2    0    0 -0.33545310825E+02 -0.51553899715E+01 -0.14123672575E+04  0.14156837937E+04  0.90705389237E+02 0.  0.
        -11    1    3    3    0    0 -0.27638800590E+02 -0.45193724671E+02 -0.60980027198E+03  0.61209700845E+03  0.00000000000E+00 0.  1.
         12    1    3    3    0    0 -0.59065102349E+01  0.40038334700E+02 -0.80256698552E+03  0.80358678520E+03  0.00000000000E+00 0. -1.
          1    1    1    2  501    0  0.33545310825E+02  0.51553899715E+01 -0.58465574325E+02  0.67602435646E+02  0.00000000000E+00 0. -1.
<mgrwt>
<rscale>  1 0.96846959E+02</rscale>
<asrwt>0</asrwt>
<pdfrwt beam="1">  1       21 0.95795284E-03 0.96846959E+02</pdfrwt>
<pdfrwt beam="2">  1        2 0.22724012E+00 0.96846959E+02</pdfrwt>
<totfact> 0.70537436E+05</totfact>
</mgrwt>
</event>
<event>
 6    2  0.7993170E+000  0.8302944E+02  0.7546771E-02  0.1320668E+00
          2   -1    0    0  502    0 -0.00000000000E+00  0.00000000000E+00  0.14378660898E+04  0.14378660898E+04  0.00000000000E+00 0. -1.
         21   -1    0    0  501  502  0.00000000000E+00 -0.00000000000E+00 -0.40505338988E+01  0.40505338988E+01  0.00000000000E+00 0.  1.
         24    2    1    2    0    0 -0.21394201577E+02  0.81240599096E+01  0.43581352616E+03  0.44365224811E+03  0.79813378921E+02 0.  0.
        -13    1    3    3    0    0 -0.21251395139E+02  0.42147411509E+02  0.20633708360E+03  0.21166723450E+03  0.00000000000E+00 0.  1.
         14    1    3    3    0    0 -0.14280643784E+00 -0.34023351600E+02  0.22947644256E+03  0.23198501360E+03  0.00000000000E+00 0. -1.
          1    1    1    2  501    0  0.21394201577E+02 -0.81240599096E+01  0.99800202970E+03  0.99826437555E+03  0.00000000000E+00 0. -1.
<mgrwt>
<rscale>  1 0.83029439E+02</rscale>
<asrwt>0</asrwt>
<pdfrwt beam="1">  1       21 0.62316021E-03 0.83029439E+02</pdfrwt>
<pdfrwt beam="2">  1        2 0.22120976E+00 0.83029439E+02</pdfrwt>
<totfact> 0.14251105E+06</totfact>
</mgrwt>
</event>
<event>
 6    2  0.7993170E+000  0.8660277E+02  0.7546771E-02  0.1311294E+00
          2   -1    0    0  502    0 -0.00000000000E+00  0.00000000000E+00  0.90191222272E+03  0.90191222272E+03  0.00000000000E+00 0. -1.
         21   -1    0    0  501  502  0.00000000000E+00 -0.00000000000E+00 -0.50482606864E+01  0.50482606864E+01  0.00000000000E+00 0. -1.
         24    2    1    2    0    0 -0.30057577963E+02 -0.32857380743E+01  0.81678227868E+03  0.82136065820E+03  0.81152855738E+02 0.  0.
        -11    1    3    3    0    0 -0.14686233353E+01  0.30786806340E+02  0.15207536163E+03  0.15516732875E+03  0.00000000000E+00 0.  1.
         12    1    3    3    0    0 -0.28588954627E+02 -0.34072544414E+02  0.66470691706E+03  0.66619332944E+03  0.00000000000E+00 0. -1.
          1    1    1    2  501    0  0.30057577963E+02  0.32857380743E+01  0.80081683346E+02  0.85599825206E+02  0.00000000000E+00 0. -1.
<mgrwt>
<rscale>  1 0.86602772E+02</rscale>
<asrwt>0</asrwt>
<pdfrwt beam="1">  1       21 0.77665621E-03 0.86602772E+02</pdfrwt>
<pdfrwt beam="2">  1        2 0.13875560E+00 0.86602772E+02</pdfrwt>
<totfact> 0.20128129E+06</totfact>
</mgrwt>
</event>
<event>
 6    2  0.7993170E+000  0.1024515E+03  0.7546771E-02  0.1275224E+00
          4   -1    0    0  502    0 -0.00000000000E+00  0.00000000000E+00  0.87389394042E+02  0.87389394042E+02  0.00000000000E+00 0. -1.
         21   -1    0    0  501  502  0.00000000000E+00 -0.00000000000E+00 -0.78634194098E+02  0.78634194098E+02  0.00000000000E+00 0. -1.
         24    2    1    2    0    0  0.30439984214E+02  0.50280066493E+02 -0.13162286884E+02  0.10329357974E+03  0.83914480832E+02 0.  0.
        -11    1    3    3    0    0  0.56257006432E+02  0.14783445023E+02 -0.30233468247E+01  0.58245528974E+02  0.00000000000E+00 0.  1.
         12    1    3    3    0    0 -0.25817022218E+02  0.35496621470E+02 -0.10138940059E+02  0.45048050763E+02  0.00000000000E+00 0. -1.
          3    1    1    2  501    0 -0.30439984214E+02 -0.50280066493E+02  0.21917486828E+02  0.62730008404E+02  0.00000000000E+00 0. -1.
<mgrwt>
<rscale>  1 0.10245154E+03</rscale>
<asrwt>0</asrwt>
<pdfrwt beam="1">  1       21 0.12097568E-01 0.10245154E+03</pdfrwt>
<pdfrwt beam="2">  1        4 0.13444522E-01 0.10245154E+03</pdfrwt>
<totfact> 0.10206042E+05</totfact>
</mgrwt>
</event>
<event>
 6    2  0.7993170E+000  0.7236240E+02  0.7546771E-02  0.1352239E+00
         21   -1    0    0  501  502  0.00000000000E+00  0.00000000000E+00  0.15371817249E+02  0.15371817249E+02  0.00000000000E+00 0.  1.
          4   -1    0    0  502    0 -0.00000000000E+00 -0.00000000000E+00 -0.14634877563E+03  0.14634877563E+03  0.00000000000E+00 0. -1.
         24    2    1    2    0    0  0.13658581065E+02 -0.15301794285E+02 -0.86746886684E+02  0.11296609578E+03  0.69394630205E+02 0.  0.
        -11    1    3    3    0    0 -0.14677045252E+02 -0.34581579154E+02 -0.38566162198E+02  0.53839113484E+02  0.00000000000E+00 0.  1.
         12    1    3    3    0    0  0.28335626317E+02  0.19279784869E+02 -0.48180724486E+02  0.59126982295E+02  0.00000000000E+00 0. -1.
          3    1    1    2  501    0 -0.13658581065E+02  0.15301794285E+02 -0.44230071700E+02  0.48754497102E+02  0.00000000000E+00 0. -1.
<mgrwt>
<rscale>  1 0.72362397E+02</rscale>
<asrwt>0</asrwt>
<pdfrwt beam="1">  1       21 0.23648950E-02 0.72362397E+02</pdfrwt>
<pdfrwt beam="2">  1        4 0.22515196E-01 0.72362397E+02</pdfrwt>
<totfact> 0.59132505E+05</totfact>
</mgrwt>
</event>
<event>
 6    2  0.7993170E+000  0.8355108E+02  0.7546771E-02  0.1319266E+00
          2   -1    0    0  502    0 -0.00000000000E+00  0.00000000000E+00  0.34271263294E+03  0.34271263294E+03  0.00000000000E+00 0. -1.
         21   -1    0    0  501  502  0.00000000000E+00 -0.00000000000E+00 -0.81687633647E+01  0.81687633647E+01  0.00000000000E+00 0.  1.
         24    2    1    2    0    0 -0.19312237796E+02  0.10835594673E+02  0.27118959862E+03  0.28376853398E+03  0.80563079876E+02 0.  0.
        -13    1    3    3    0    0 -0.35061074397E+02 -0.25016288541E+02  0.16695455238E+03  0.17242075336E+03  0.00000000000E+00 0.  1.
         14    1    3    3    0    0  0.15748836602E+02  0.35851883214E+02  0.10423504624E+03  0.11134778062E+03  0.00000000000E+00 0. -1.
          1    1    1    2  501    0  0.19312237796E+02 -0.10835594673E+02  0.63354270956E+02  0.67112862321E+02  0.00000000000E+00 0. -1.
<mgrwt>
<rscale>  1 0.83551077E+02</rscale>
<asrwt>0</asrwt>
<pdfrwt beam="1">  1       21 0.12567331E-02 0.83551077E+02</pdfrwt>
<pdfrwt beam="2">  1        2 0.52725009E-01 0.83551077E+02</pdfrwt>
<totfact> 0.27922397E+06</totfact>
</mgrwt>
</event>
<event>
 6    2  0.7993170E+000  0.9542509E+02  0.7546771E-02  0.1290222E+00
         21   -1    0    0  501  502  0.00000000000E+00  0.00000000000E+00  0.42960740490E+03  0.42960740490E+03  0.00000000000E+00 0. -1.
          2   -1    0    0  502    0 -0.00000000000E+00 -0.00000000000E+00 -0.12922314294E+02  0.12922314294E+02  0.00000000000E+00 0. -1.
         24    2    1    2    0    0 -0.17924671260E+02 -0.48580491789E+02  0.23574412011E+03  0.25432506243E+03  0.80153535126E+02 0.  0.
        -13    1    3    3    0    0 -0.14377919083E+01  0.15309005045E+01  0.17008809369E+03  0.17010105971E+03  0.00000000000E+00 0.  1.
         14    1    3    3    0    0 -0.16486879351E+02 -0.50111392294E+02  0.65656026422E+02  0.84224002718E+02  0.00000000000E+00 0. -1.
          1    1    1    2  501    0  0.17924671260E+02  0.48580491789E+02  0.18094097050E+03  0.18820465677E+03  0.00000000000E+00 0. -1.
<mgrwt>
<rscale>  1 0.95425087E+02</rscale>
<asrwt>0</asrwt>
<pdfrwt beam="1">  1       21 0.66093436E-01 0.95425087E+02</pdfrwt>
<pdfrwt beam="2">  1        2 0.19880487E-02 0.95425087E+02</pdfrwt>
<totfact> 0.13322661E+05</totfact>
</mgrwt>
</event>
<event>
 6    2  0.7993170E+000  0.2746296E+03  0.7546771E-02  0.1098659E+00
         21   -1    0    0  501  502  0.00000000000E+00  0.00000000000E+00  0.81751585680E+02  0.81751585680E+02  0.00000000000E+00 0. -1.
          2   -1    0    0  502    0 -0.00000000000E+00 -0.00000000000E+00 -0.12160899879E+04  0.12160899879E+04  0.00000000000E+00 0. -1.
         24    2    1    2    0    0  0.13399070273E+03 -0.22512176511E+03 -0.91763966400E+03  0.95785383748E+03  0.82389947717E+02 0.  0.
        -13    1    3    3    0    0  0.70102243207E+02 -0.48133792741E+02 -0.24222495258E+03  0.25671796618E+03  0.00000000000E+00 0.  1.
         14    1    3    3    0    0  0.63888459522E+02 -0.17698797237E+03 -0.67541471142E+03  0.70113587131E+03  0.00000000000E+00 0. -1.
          1    1    1    2  501    0 -0.13399070273E+03  0.22512176511E+03 -0.21669873819E+03  0.33998773607E+03  0.00000000000E+00 0. -1.
<mgrwt>
<rscale>  1 0.27462961E+03</rscale>
<asrwt>0</asrwt>
<pdfrwt beam="1">  1       21 0.12577167E-01 0.27462961E+03</pdfrwt>
<pdfrwt beam="2">  1        2 0.18709076E+00 0.27462961E+03</pdfrwt>
<totfact> 0.13201214E+04</totfact>
</mgrwt>
</event>
<event>
 6    2  0.7993170E+000  0.6657151E+02  0.7546771E-02  0.1372156E+00
          2   -1    0    0  502    0 -0.00000000000E+00  0.00000000000E+00  0.63341852885E+03  0.63341852885E+03  0.00000000000E+00 0. -1.
         21   -1    0    0  501  502  0.00000000000E+00 -0.00000000000E+00 -0.79837411814E+01  0.79837411814E+01  0.00000000000E+00 0.  1.
         24    2    1    2    0    0  0.24538609025E+02  0.14252149585E+02  0.13878104704E+03  0.15392188031E+03  0.60220421107E+02 0.  0.
        -13    1    3    3    0    0  0.34179393052E+02  0.22924787997E+02  0.52682435093E+02  0.66852193542E+02  0.00000000000E+00 0.  1.
         14    1    3    3    0    0 -0.96407840263E+01 -0.86726384117E+01  0.86098611949E+02  0.87069686764E+02  0.00000000000E+00 0. -1.
          1    1    1    2  501    0 -0.24538609025E+02 -0.14252149585E+02  0.48665374063E+03  0.48748038973E+03  0.00000000000E+00 0. -1.
<mgrwt>
<rscale>  1 0.66571512E+02</rscale>
<asrwt>0</asrwt>
<pdfrwt beam="1">  1       21 0.12282684E-02 0.66571512E+02</pdfrwt>
<pdfrwt beam="2">  1        2 0.97448965E-01 0.66571512E+02</pdfrwt>
<totfact> 0.14609658E+06</totfact>
</mgrwt>
</event>
<event>
 6    2  0.7993170E+000  0.9295058E+02  0.7546771E-02  0.1295860E+00
         21   -1    0    0  501  502  0.00000000000E+00  0.00000000000E+00  0.25442468501E+02  0.25442468501E+02  0.00000000000E+00 0.  1.
         -3   -1    0    0    0  501 -0.00000000000E+00 -0.00000000000E+00 -0.29866129911E+03  0.29866129911E+03  0.00000000000E+00 0.  1.
         24    2    1    2    0    0  0.33955157361E+02 -0.31365915098E+02 -0.25986476579E+03  0.27598823593E+03  0.80641407054E+02 0.  0.
        -11    1    3    3    0    0  0.18771643327E+02 -0.56543132763E+02 -0.20805782768E+03  0.21641986996E+03  0.00000000000E+00 0.  1.
         12    1    3    3    0    0  0.15183514034E+02  0.25177217665E+02 -0.51806938117E+02  0.59568365974E+02  0.00000000000E+00 0. -1.
         -4    1    1    2    0  502 -0.33955157361E+02  0.31365915098E+02 -0.13354064814E+02  0.48115531676E+02  0.00000000000E+00 0.  1.
<mgrwt>
<rscale>  1 0.92950578E+02</rscale>
<asrwt>0</asrwt>
<pdfrwt beam="1">  1       21 0.39142261E-02 0.92950578E+02</pdfrwt>
<pdfrwt beam="2">  1       -3 0.45947891E-01 0.92950578E+02</pdfrwt>
<totfact> 0.87383686E+04</totfact>
</mgrwt>
</event>
<event>
 6    2  0.7993170E+000  0.8295605E+02  0.7546771E-02  0.1320866E+00
         21   -1    0    0  501  502  0.00000000000E+00  0.00000000000E+00  0.61844821483E+01  0.61844821483E+01  0.00000000000E+00 0. -1.
          2   -1    0    0  502    0 -0.00000000000E+00 -0.00000000000E+00 -0.26545284125E+04  0.26545284125E+04  0.00000000000E+00 0. -1.
         24    2    1    2    0    0  0.10895977551E+02 -0.16849764069E+02 -0.26356796867E+04  0.26369848534E+04  0.80492665542E+02 0.  0.
        -13    1    3    3    0    0 -0.32137716676E+02  0.81230951180E+01 -0.11002845244E+04  0.11007837445E+04  0.00000000000E+00 0.  1.
         14    1    3    3    0    0  0.43033694227E+02 -0.24972859187E+02 -0.15353951623E+04  0.15362011089E+04  0.00000000000E+00 0. -1.
          1    1    1    2  501    0 -0.10895977551E+02  0.16849764069E+02 -0.12664243692E+02  0.23728041307E+02  0.00000000000E+00 0. -1.
<mgrwt>
<rscale>  1 0.82956049E+02</rscale>
<asrwt>0</asrwt>
<pdfrwt beam="1">  1       21 0.95145859E-03 0.82956049E+02</pdfrwt>
<pdfrwt beam="2">  1        2 0.40838907E+00 0.82956049E+02</pdfrwt>
<totfact> 0.17804741E+05</totfact>
</mgrwt>
</event>
<event>
 6    2  0.7993170E+000  0.8243170E+02  0.7546771E-02  0.1322289E+00
         -1   -1    0    0    0  501 -0.00000000000E+00  0.00000000000E+00  0.15060819641E+02  0.15060819641E+02  0.00000000000E+00 0.  1.
         21   -1    0    0  501  502  0.00000000000E+00 -0.00000000000E+00 -0.19322154291E+03  0.19322154291E+03  0.00000000000E+00 0. -1.
         24    2    1    2    0    0  0.13759393648E+02  0.14994506844E+02 -0.11201487591E+03  0.13907665995E+03  0.79880089948E+02 0.  0.
        -11    1    3    3    0    0  0.43701230186E+02 -0.57487432232E+01 -0.46195130937E+02  0.63850103294E+02  0.00000000000E+00 0.  1.
         12    1    3    3    0    0 -0.29941836539E+02  0.20743250067E+02 -0.65819744973E+02  0.75226556660E+02  0.00000000000E+00 0. -1.
         -2    1    1    2    0  502 -0.13759393648E+02 -0.14994506844E+02 -0.66145847355E+02  0.69205702593E+02  0.00000000000E+00 0.  1.
<mgrwt>
<rscale>  1 0.82431699E+02</rscale>
<asrwt>0</asrwt>
<pdfrwt beam="1">  1       21 0.29726388E-01 0.82431699E+02</pdfrwt>
<pdfrwt beam="2">  1       -1 0.23170494E-02 0.82431699E+02</pdfrwt>
<totfact> 0.48467048E+05</totfact>
</mgrwt>
</event>
<event>
 6    2  0.7993170E+000  0.8380092E+02  0.7546771E-02  0.1318598E+00
         21   -1    0    0  501  502  0.00000000000E+00  0.00000000000E+00  0.25255269086E+01  0.25255269086E+01  0.00000000000E+00 0. -1.
         -1   -1    0    0    0  501 -0.00000000000E+00 -0.00000000000E+00 -0.11659554862E+04  0.11659554862E+04  0.00000000000E+00 0.  1.
         24    2    1    2    0    0  0.18255502279E+02 -0.11778052743E+02 -0.10171903703E+04  0.10206364891E+04  0.80935823767E+02 0.  0.
        -13    1    3    3    0    0 -0.12492997592E+01 -0.13258070857E+02 -0.96182572750E+03  0.96191791088E+03  0.00000000000E+00 0.  1.
         14    1    3    3    0    0  0.19504802038E+02  0.14800181142E+01 -0.55364642808E+02  0.58718578231E+02  0.00000000000E+00 0. -1.
         -2    1    1    2    0  502 -0.18255502279E+02  0.11778052743E+02 -0.14623958898E+03  0.14784452399E+03  0.00000000000E+00 0.  1.
<mgrwt>
<rscale>  1 0.83800916E+02</rscale>
<asrwt>0</asrwt>
<pdfrwt beam="1">  1       21 0.38854266E-03 0.83800916E+02</pdfrwt>
<pdfrwt beam="2">  1       -1 0.17937774E+00 0.83800916E+02</pdfrwt>
<totfact> 0.34090873E+05</totfact>
</mgrwt>
</event>
<event>
 6    2  0.7993170E+000  0.8641147E+02  0.7546771E-02  0.1311782E+00
          2   -1    0    0  502    0 -0.00000000000E+00  0.00000000000E+00  0.78544886507E+03  0.78544886507E+03  0.00000000000E+00 0. -1.
         21   -1    0    0  501  502  0.00000000000E+00 -0.00000000000E+00 -0.68046949920E+01  0.68046949920E+01  0.00000000000E+00 0. -1.
         24    2    1    2    0    0  0.25865884356E+02  0.13953002936E+02  0.73227075124E+03  0.73735160892E+03  0.81260148853E+02 0.  0.
        -11    1    3    3    0    0 -0.11533854529E+02 -0.28180873583E+01  0.16077444382E+02  0.19986386229E+02  0.00000000000E+00 0.  1.
         12    1    3    3    0    0  0.37399738885E+02  0.16771090294E+02  0.71619330685E+03  0.71736522269E+03  0.00000000000E+00 0. -1.
          1    1    1    2  501    0 -0.25865884356E+02 -0.13953002936E+02  0.46373418839E+02  0.54901951142E+02  0.00000000000E+00 0. -1.
<mgrwt>
<rscale>  1 0.86411469E+02</rscale>
<asrwt>0</asrwt>
<pdfrwt beam="1">  1       21 0.10468768E-02 0.86411469E+02</pdfrwt>
<pdfrwt beam="2">  1        2 0.12083821E+00 0.86411469E+02</pdfrwt>
<totfact> 0.15017659E+06</totfact>
</mgrwt>
</event>
<event>
 6    2  0.7993170E+000  0.8511799E+02  0.7546771E-02  0.1315124E+00
         21   -1    0    0  501  502  0.00000000000E+00  0.00000000000E+00  0.39682885742E+02  0.39682885742E+02  0.00000000000E+00 0.  1.
          4   -1    0    0  502    0 -0.00000000000E+00 -0.00000000000E+00 -0.76891181106E+02  0.76891181106E+02  0.00000000000E+00 0. -1.
         24    2    1    2    0    0  0.21749607655E+02  0.10471110080E+02 -0.21557721419E+02  0.87805506851E+02  0.81623416377E+02 0.  0.
        -13    1    3    3    0    0  0.16711612058E+02  0.25555702106E+02  0.24455826274E+02  0.39121085446E+02  0.00000000000E+00 0.  1.
         14    1    3    3    0    0  0.50379955975E+01 -0.15084592026E+02 -0.46013547694E+02  0.48684421405E+02  0.00000000000E+00 0. -1.
          3    1    1    2  501    0 -0.21749607655E+02 -0.10471110080E+02 -0.15650573945E+02  0.28768559997E+02  0.00000000000E+00 0. -1.
<mgrwt>
<rscale>  1 0.85117987E+02</rscale>
<asrwt>0</asrwt>
<pdfrwt beam="1">  1       21 0.61050594E-02 0.85117987E+02</pdfrwt>
<pdfrwt beam="2">  1        4 0.11829412E-01 0.85117987E+02</pdfrwt>
<totfact> 0.39762539E+05</totfact>
</mgrwt>
</event>
<event>
 6    2  0.7993170E+000  0.8285381E+02  0.7546771E-02  0.1321142E+00
         21   -1    0    0  501  502  0.00000000000E+00  0.00000000000E+00  0.72827608386E+01  0.72827608386E+01  0.00000000000E+00 0. -1.
         -3   -1    0    0    0  501 -0.00000000000E+00 -0.00000000000E+00 -0.40625917448E+03  0.40625917448E+03  0.00000000000E+00 0.  1.
         24    2    1    2    0    0 -0.94658267336E+01 -0.18715711591E+02 -0.25701907842E+03  0.27004362606E+03  0.80155309051E+02 0.  0.
        -11    1    3    3    0    0  0.17425745547E+02 -0.25193939698E+02 -0.22764041814E+03  0.22969229673E+03  0.00000000000E+00 0.  1.
         12    1    3    3    0    0 -0.26891572281E+02  0.64782281065E+01 -0.29378660277E+02  0.40351329331E+02  0.00000000000E+00 0. -1.
         -4    1    1    2    0  502  0.94658267336E+01  0.18715711591E+02 -0.14195733521E+03  0.14349830925E+03  0.00000000000E+00 0.  1.
<mgrwt>
<rscale>  1 0.82853807E+02</rscale>
<asrwt>0</asrwt>
<pdfrwt beam="1">  1       21 0.11204248E-02 0.82853807E+02</pdfrwt>
<pdfrwt beam="2">  1       -3 0.62501408E-01 0.82853807E+02</pdfrwt>
<totfact> 0.34438554E+05</totfact>
</mgrwt>
</event>
<event>
 6    2  0.7993170E+000  0.8356669E+02  0.7546771E-02  0.1319224E+00
         21   -1    0    0  501  502  0.00000000000E+00  0.00000000000E+00  0.42161511095E+01  0.42161511095E+01  0.00000000000E+00 0.  1.
          2   -1    0    0  502    0 -0.00000000000E+00 -0.00000000000E+00 -0.18507206502E+04  0.18507206502E+04  0.00000000000E+00 0. -1.
         24    2    1    2    0    0 -0.25493096840E+02 -0.10822531026E+02 -0.17905926207E+04  0.17925415826E+04  0.78843941775E+02 0.  0.
        -13    1    3    3    0    0 -0.40416957669E+02  0.16852531323E+02 -0.62848432134E+03  0.63000800030E+03  0.00000000000E+00 0.  1.
         14    1    3    3    0    0  0.14923860829E+02 -0.27675062349E+02 -0.11621082993E+04  0.11625335823E+04  0.00000000000E+00 0. -1.
          1    1    1    2  501    0  0.25493096840E+02  0.10822531026E+02 -0.55911878483E+02  0.62395218725E+02  0.00000000000E+00 0. -1.
<mgrwt>
<rscale>  1 0.83566694E+02</rscale>
<asrwt>0</asrwt>
<pdfrwt beam="1">  1       21 0.64863889E-03 0.83566694E+02</pdfrwt>
<pdfrwt beam="2">  1        2 0.28472614E+00 0.83566694E+02</pdfrwt>
<totfact> 0.83061476E+05</totfact>
</mgrwt>
</event>
<event>
 6    2  0.7993170E+000  0.9722690E+02  0.7546771E-02  0.1286238E+00
          2   -1    0    0  502    0 -0.00000000000E+00  0.00000000000E+00  0.52407547150E+03  0.52407547150E+03  0.00000000000E+00 0. -1.
         21   -1    0    0  501  502  0.00000000000E+00 -0.00000000000E+00 -0.14984747076E+02  0.14984747076E+02  0.00000000000E+00 0. -1.
         24    2    1    2    0    0 -0.20754254191E+02 -0.50375812588E+02  0.44232818617E+03  0.45288772833E+03  0.80527067693E+02 0.  0.
        -11    1    3    3    0    0 -0.24407287148E+02 -0.73376368218E+00  0.35867136869E+02  0.43390155360E+02  0.00000000000E+00 0.  1.
         12    1    3    3    0    0  0.36530329562E+01 -0.49642048905E+02  0.40646104930E+03  0.40949757297E+03  0.00000000000E+00 0. -1.
          1    1    1    2  501    0  0.20754254191E+02  0.50375812588E+02  0.66762538253E+02  0.86172490245E+02  0.00000000000E+00 0. -1.
<mgrwt>
<rscale>  1 0.97226901E+02</rscale>
<asrwt>0</asrwt>
<pdfrwt beam="1">  1       21 0.23053461E-02 0.97226901E+02</pdfrwt>
<pdfrwt beam="2">  1        2 0.80626981E-01 0.97226901E+02</pdfrwt>
<totfact> 0.68877490E+05</totfact>
</mgrwt>
</event>
<event>
 6    2  0.7993170E+000  0.8470917E+02  0.7546771E-02  0.1316195E+00
          2   -1    0    0  502    0 -0.00000000000E+00  0.00000000000E+00  0.11211786677E+03  0.11211786677E+03  0.00000000000E+00 0. -1.
         21   -1    0    0  501  502  0.00000000000E+00 -0.00000000000E+00 -0.32584170514E+02  0.32584170514E+02  0.00000000000E+00 0. -1.
         24    2    1    2    0    0  0.29340379976E+02  0.30928679255E+00  0.78268809905E+02  0.11533277627E+03  0.79465018228E+02 0.  0.
        -11    1    3    3    0    0 -0.22207802699E+02 -0.18021964311E+02  0.17344620029E+02  0.33448670262E+02  0.00000000000E+00 0.  1.
         12    1    3    3    0    0  0.51548182674E+02  0.18331251104E+02  0.60924189876E+02  0.81884106004E+02  0.00000000000E+00 0. -1.
          1    1    1    2  501    0 -0.29340379976E+02 -0.30928679255E+00  0.12648863539E+01  0.29369261021E+02  0.00000000000E+00 0. -1.
<mgrwt>
<rscale>  1 0.84709165E+02</rscale>
<asrwt>0</asrwt>
<pdfrwt beam="1">  1       21 0.50129494E-02 0.84709165E+02</pdfrwt>
<pdfrwt beam="2">  1        2 0.17248902E-01 0.84709165E+02</pdfrwt>
<totfact> 0.99698982E+05</totfact>
</mgrwt>
</event>
<event>
 6    2  0.7993170E+000  0.8050316E+02  0.7546771E-02  0.1327630E+00
         -1   -1    0    0    0  501 -0.00000000000E+00  0.00000000000E+00  0.95405314785E+01  0.95405314785E+01  0.00000000000E+00 0.  1.
         21   -1    0    0  501  502  0.00000000000E+00 -0.00000000000E+00 -0.28684037518E+03  0.28684037518E+03  0.00000000000E+00 0. -1.
         24    2    1    2    0    0  0.21218789926E+02 -0.11010622973E+02 -0.22151419408E+03  0.23568898324E+03  0.76871891997E+02 0.  0.
        -13    1    3    3    0    0 -0.62978950447E+01 -0.24764702103E+02 -0.21709329038E+02  0.33529821346E+02  0.00000000000E+00 0.  1.
         14    1    3    3    0    0  0.27516684971E+02  0.13754079129E+02 -0.19980486504E+03  0.20215916189E+03  0.00000000000E+00 0. -1.
         -2    1    1    2    0  502 -0.21218789926E+02  0.11010622973E+02 -0.55785649629E+02  0.60691923423E+02  0.00000000000E+00 0.  1.
<mgrwt>
<rscale>  1 0.80503159E+02</rscale>
<asrwt>0</asrwt>
<pdfrwt beam="1">  1       21 0.44129283E-01 0.80503159E+02</pdfrwt>
<pdfrwt beam="2">  1       -1 0.14677742E-02 0.80503159E+02</pdfrwt>
<totfact> 0.42817195E+05</totfact>
</mgrwt>
</event>
<event>
 6    2  0.7993170E+000  0.8617167E+02  0.7546771E-02  0.1312397E+00
         21   -1    0    0  501  502  0.00000000000E+00  0.00000000000E+00  0.64553852216E+02  0.64553852216E+02  0.00000000000E+00 0.  1.
          4   -1    0    0  502    0 -0.00000000000E+00 -0.00000000000E+00 -0.94131986591E+02  0.94131986591E+02  0.00000000000E+00 0. -1.
         24    2    1    2    0    0 -0.12662208558E+02 -0.26665869784E+02 -0.68327235744E+02  0.10997348931E+03  0.80957748665E+02 0.  0.
        -11    1    3    3    0    0  0.17820774831E+02 -0.35506392592E+02 -0.62000740035E+01  0.40208517109E+02  0.00000000000E+00 0.  1.
         12    1    3    3    0    0 -0.30482983389E+02  0.88405228075E+01 -0.62127161741E+02  0.69764972198E+02  0.00000000000E+00 0. -1.
          3    1    1    2  501    0  0.12662208558E+02  0.26665869784E+02  0.38749101369E+02  0.48712349500E+02  0.00000000000E+00 0. -1.
<mgrwt>
<rscale>  1 0.86171673E+02</rscale>
<asrwt>0</asrwt>
<pdfrwt beam="1">  1       21 0.99313620E-02 0.86171673E+02</pdfrwt>
<pdfrwt beam="2">  1        4 0.14481844E-01 0.86171673E+02</pdfrwt>
<totfact> 0.12320104E+05</totfact>
</mgrwt>
</event>
<event>
 6    2  0.7993170E+000  0.9607083E+02  0.7546771E-02  0.1288782E+00
         21   -1    0    0  501  502  0.00000000000E+00  0.00000000000E+00  0.36575019176E+03  0.36575019176E+03  0.00000000000E+00 0.  1.
         -1   -1    0    0    0  501 -0.00000000000E+00 -0.00000000000E+00 -0.21323945899E+02  0.21323945899E+02  0.00000000000E+00 0.  1.
         24    2    1    2    0    0  0.53648426840E+02 -0.20478025560E+01  0.10763846083E+03  0.14427627453E+03  0.79669680218E+02 0.  0.
        -13    1    3    3    0    0  0.38331050022E+02 -0.26965568278E+02  0.18368997717E+02  0.50337176574E+02  0.00000000000E+00 0.  1.
         14    1    3    3    0    0  0.15317376818E+02  0.24917765722E+02  0.89269463112E+02  0.93939097960E+02  0.00000000000E+00 0. -1.
         -2    1    1    2    0  502 -0.53648426840E+02  0.20478025560E+01  0.23678778503E+03  0.24279786312E+03  0.00000000000E+00 0.  1.
<mgrwt>
<rscale>  1 0.96070834E+02</rscale>
<asrwt>0</asrwt>
<pdfrwt beam="1">  1       21 0.56269255E-01 0.96070834E+02</pdfrwt>
<pdfrwt beam="2">  1       -1 0.32806073E-02 0.96070834E+02</pdfrwt>
<totfact> 0.83835365E+04</totfact>
</mgrwt>
</event>
<event>
 6    2  0.7993170E+000  0.9039943E+02  0.7546771E-02  0.1301887E+00
         21   -1    0    0  501  502  0.00000000000E+00  0.00000000000E+00  0.47548496909E+02  0.47548496909E+02  0.00000000000E+00 0.  1.
          4   -1    0    0  502    0 -0.00000000000E+00 -0.00000000000E+00 -0.98280637635E+02  0.98280637635E+02  0.00000000000E+00 0. -1.
         24    2    1    2    0    0  0.38006423238E+02 -0.14543237078E+02 -0.14922459634E+02  0.91622795322E+02  0.80722133700E+02 0.  0.
        -13    1    3    3    0    0  0.39261186594E+02 -0.25180470401E+02  0.23150755841E+02  0.52071627192E+02  0.00000000000E+00 0.  1.
         14    1    3    3    0    0 -0.12547633561E+01  0.10637233323E+02 -0.38073215475E+02  0.39551168130E+02  0.00000000000E+00 0. -1.
          3    1    1    2  501    0 -0.38006423238E+02  0.14543237078E+02 -0.35809681092E+02  0.54206339223E+02  0.00000000000E+00 0. -1.
<mgrwt>
<rscale>  1 0.90399429E+02</rscale>
<asrwt>0</asrwt>
<pdfrwt beam="1">  1       21 0.73151533E-02 0.90399429E+02</pdfrwt>
<pdfrwt beam="2">  1        4 0.15120098E-01 0.90399429E+02</pdfrwt>
<totfact> 0.19481450E+05</totfact>
</mgrwt>
</event>
<event>
 6    2  0.7993170E+000  0.8599485E+02  0.7546771E-02  0.1312851E+00
         21   -1    0    0  501  502  0.00000000000E+00  0.00000000000E+00  0.20296756559E+02  0.20296756559E+02  0.00000000000E+00 0. -1.
          2   -1    0    0  502    0 -0.00000000000E+00 -0.00000000000E+00 -0.46115776331E+03  0.46115776331E+03  0.00000000000E+00 0. -1.
         24    2    1    2    0    0  0.52671315192E+01  0.29474626013E+02 -0.44315841643E+03  0.45142496203E+03  0.80614006476E+02 0.  0.
        -11    1    3    3    0    0 -0.25746869232E+02 -0.16174789466E+02 -0.13718226506E+03  0.14051156158E+03  0.00000000000E+00 0.  1.
         12    1    3    3    0    0  0.31014000751E+02  0.45649415480E+02 -0.30597615137E+03  0.31091340045E+03  0.00000000000E+00 0. -1.
          1    1    1    2  501    0 -0.52671315192E+01 -0.29474626013E+02  0.22974096726E+01  0.30029557843E+02  0.00000000000E+00 0. -1.
<mgrwt>
<rscale>  1 0.85994850E+02</rscale>
<asrwt>0</asrwt>
<pdfrwt beam="1">  1       21 0.31225779E-02 0.85994850E+02</pdfrwt>
<pdfrwt beam="2">  1        2 0.70947349E-01 0.85994850E+02</pdfrwt>
<totfact> 0.47903584E+05</totfact>
</mgrwt>
</event>
<event>
 6    2  0.7993170E+000  0.8559024E+02  0.7546771E-02  0.1313896E+00
          2   -1    0    0  502    0 -0.00000000000E+00  0.00000000000E+00  0.57554036389E+03  0.57554036389E+03  0.00000000000E+00 0. -1.
         21   -1    0    0  501  502  0.00000000000E+00 -0.00000000000E+00 -0.57521188903E+01  0.57521188903E+01  0.00000000000E+00 0.  1.
         24    2    1    2    0    0 -0.23349933916E+02  0.18003768410E+02  0.42420181596E+03  0.43275035606E+03  0.80351321790E+02 0.  0.
        -13    1    3    3    0    0  0.55777592109E+01 -0.27116460872E+00 -0.14146205459E+01  0.57607360075E+01  0.00000000000E+00 0.  1.
         14    1    3    3    0    0 -0.28927693127E+02  0.18274933018E+02  0.42561643650E+03  0.42698962005E+03  0.00000000000E+00 0. -1.
          1    1    1    2  501    0  0.23349933916E+02 -0.18003768410E+02  0.14558642905E+03  0.14854212673E+03  0.00000000000E+00 0. -1.
<mgrwt>
<rscale>  1 0.85590245E+02</rscale>
<asrwt>0</asrwt>
<pdfrwt beam="1">  1       21 0.88494182E-03 0.85590245E+02</pdfrwt>
<pdfrwt beam="2">  1        2 0.88544626E-01 0.85590245E+02</pdfrwt>
<totfact> 0.27898387E+06</totfact>
</mgrwt>
</event>
<event>
 6    2  0.7993170E+000  0.8867195E+02  0.7546771E-02  0.1306100E+00
          2   -1    0    0  502    0 -0.00000000000E+00  0.00000000000E+00  0.95627489465E+03  0.95627489465E+03  0.00000000000E+00 0. -1.
         21   -1    0    0  501  502  0.00000000000E+00 -0.00000000000E+00 -0.44076831893E+01  0.44076831893E+01  0.00000000000E+00 0. -1.
         24    2    1    2    0    0  0.40383965700E+02  0.11847889209E+01  0.70036838733E+03  0.70595934185E+03  0.78933174096E+02 0.  0.
        -11    1    3    3    0    0  0.31687295958E+01 -0.34639639988E+02  0.20797808426E+03  0.21086685145E+03  0.00000000000E+00 0.  1.
         12    1    3    3    0    0  0.37215236104E+02  0.35824428909E+02  0.49239030306E+03  0.49509249040E+03  0.00000000000E+00 0. -1.
          1    1    1    2  501    0 -0.40383965700E+02 -0.11847889209E+01  0.25149882414E+03  0.25472323599E+03  0.00000000000E+00 0. -1.
<mgrwt>
<rscale>  1 0.88671948E+02</rscale>
<asrwt>0</asrwt>
<pdfrwt beam="1">  1       21 0.67810586E-03 0.88671948E+02</pdfrwt>
<pdfrwt beam="2">  1        2 0.14711905E+00 0.88671948E+02</pdfrwt>
<totfact> 0.23066946E+06</totfact>
</mgrwt>
</event>
<event>
 6    2  0.7993170E+000  0.8304873E+02  0.7546771E-02  0.1320616E+00
          4   -1    0    0  502    0 -0.00000000000E+00  0.00000000000E+00  0.30872252507E+03  0.30872252507E+03  0.00000000000E+00 0. -1.
         21   -1    0    0  501  502  0.00000000000E+00 -0.00000000000E+00 -0.12615906546E+02  0.12615906546E+02  0.00000000000E+00 0.  1.
         24    2    1    2    0    0 -0.31465893622E+01  0.28401436815E+02  0.14115244211E+03  0.16377149528E+03  0.77977869393E+02 0.  0.
        -11    1    3    3    0    0  0.33417482430E+01  0.39218273143E+02  0.24336227963E+02  0.46276259800E+02  0.00000000000E+00 0.  1.
         12    1    3    3    0    0 -0.64883376051E+01 -0.10816836328E+02  0.11681621415E+03  0.11749523548E+03  0.00000000000E+00 0. -1.
          3    1    1    2  501    0  0.31465893622E+01 -0.28401436815E+02  0.15495417641E+03  0.15756693633E+03  0.00000000000E+00 0. -1.
<mgrwt>
<rscale>  1 0.83048725E+02</rscale>
<asrwt>0</asrwt>
<pdfrwt beam="1">  1       21 0.19409089E-02 0.83048725E+02</pdfrwt>
<pdfrwt beam="2">  1        4 0.47495767E-01 0.83048725E+02</pdfrwt>
<totfact> 0.20356036E+05</totfact>
</mgrwt>
</event>
<event>
 6    2  0.7993170E+000  0.9025257E+02  0.7546771E-02  0.1302241E+00
         21   -1    0    0  501  502  0.00000000000E+00  0.00000000000E+00  0.66278790529E+03  0.66278790529E+03  0.00000000000E+00 0.  1.
          4   -1    0    0  502    0 -0.00000000000E+00 -0.00000000000E+00 -0.68194151604E+01  0.68194151604E+01  0.00000000000E+00 0. -1.
         24    2    1    2    0    0 -0.42099152779E+02 -0.22077879158E+01  0.38913083592E+03  0.39946005191E+03  0.79801708134E+02 0.  0.
        -13    1    3    3    0    0 -0.44590789060E+02  0.10752416426E+02  0.38143405635E+03  0.38418210822E+03  0.00000000000E+00 0.  1.
         14    1    3    3    0    0  0.24916362810E+01 -0.12960204342E+02  0.76967795645E+01  0.15277943697E+02  0.00000000000E+00 0. -1.
          3    1    1    2  501    0  0.42099152779E+02  0.22077879158E+01  0.26683765422E+03  0.27014726854E+03  0.00000000000E+00 0. -1.
<mgrwt>
<rscale>  1 0.90252566E+02</rscale>
<asrwt>0</asrwt>
<pdfrwt beam="1">  1       21 0.10196732E+00 0.90252566E+02</pdfrwt>
<pdfrwt beam="2">  1        4 0.10491413E-02 0.90252566E+02</pdfrwt>
<totfact> 0.83495661E+04</totfact>
</mgrwt>
</event>
<event>
 6    2  0.7993170E+000  0.1092616E+03  0.7546771E-02  0.1261943E+00
         21   -1    0    0  501  502  0.00000000000E+00  0.00000000000E+00  0.13787195969E+02  0.13787195969E+02  0.00000000000E+00 0. -1.
          2   -1    0    0  502    0 -0.00000000000E+00 -0.00000000000E+00 -0.12465635850E+04  0.12465635850E+04  0.00000000000E+00 0. -1.
         24    2    1    2    0    0  0.67816685491E+02  0.30698777680E+02 -0.11194014155E+04  0.11247211293E+04  0.79978571815E+02 0.  0.
        -11    1    3    3    0    0  0.22438382252E+02 -0.15247186404E+02 -0.11149024794E+03  0.11474333566E+03  0.00000000000E+00 0.  1.
         12    1    3    3    0    0  0.45378303239E+02  0.45945964084E+02 -0.10079111676E+04  0.10099777937E+04  0.00000000000E+00 0. -1.
          1    1    1    2  501    0 -0.67816685491E+02 -0.30698777680E+02 -0.11337497354E+03  0.13562965165E+03  0.00000000000E+00 0. -1.
<mgrwt>
<rscale>  1 0.10926157E+03</rscale>
<asrwt>0</asrwt>
<pdfrwt beam="1">  1       21 0.21211066E-02 0.10926157E+03</pdfrwt>
<pdfrwt beam="2">  1        2 0.19177906E+00 0.10926157E+03</pdfrwt>
<totfact> 0.26563855E+05</totfact>
</mgrwt>
</event>
<event>
 6    2  0.7993170E+000  0.8434132E+02  0.7546771E-02  0.1317164E+00
         21   -1    0    0  501  502  0.00000000000E+00  0.00000000000E+00  0.23799294863E+01  0.23799294863E+01  0.00000000000E+00 0. -1.
          2   -1    0    0  502    0 -0.00000000000E+00 -0.00000000000E+00 -0.16656754439E+04  0.16656754439E+04  0.00000000000E+00 0. -1.
         24    2    1    2    0    0  0.13110035976E+01 -0.24229720351E+02 -0.15448118501E+04  0.15471125076E+04  0.80775372734E+02 0.  0.
        -11    1    3    3    0    0 -0.12649950205E+02 -0.34670324362E+02 -0.31167663484E+03  0.31385407013E+03  0.00000000000E+00 0.  1.
         12    1    3    3    0    0  0.13960953803E+02  0.10440604011E+02 -0.12331352152E+04  0.12332584374E+04  0.00000000000E+00 0. -1.
          1    1    1    2  501    0 -0.13110035976E+01  0.24229720351E+02 -0.11848366429E+03  0.12094286578E+03  0.00000000000E+00 0. -1.
<mgrwt>
<rscale>  1 0.84341324E+02</rscale>
<asrwt>0</asrwt>
<pdfrwt beam="1">  1       21 0.36614039E-03 0.84341324E+02</pdfrwt>
<pdfrwt beam="2">  1        2 0.25625958E+00 0.84341324E+02</pdfrwt>
<totfact> 0.24653342E+06</totfact>
</mgrwt>
</event>
<event>
 6    2  0.7993170E+000  0.9161781E+02  0.7546771E-02  0.1298981E+00
         21   -1    0    0  501  502  0.00000000000E+00  0.00000000000E+00  0.16439269151E+01  0.16439269151E+01  0.00000000000E+00 0.  1.
          2   -1    0    0  502    0 -0.00000000000E+00 -0.00000000000E+00 -0.30660029188E+04  0.30660029188E+04  0.00000000000E+00 0. -1.
         24    2    1    2    0    0  0.43398885023E+02  0.69470366447E+01 -0.15937176650E+04  0.15963489027E+04  0.80387182675E+02 0.  0.
        -13    1    3    3    0    0  0.46408431210E+02 -0.27751087727E+02 -0.77065253527E+03  0.77254721246E+03  0.00000000000E+00 0.  1.
         14    1    3    3    0    0 -0.30095461873E+01  0.34698124372E+02 -0.82306512969E+03  0.82380169028E+03  0.00000000000E+00 0. -1.
          1    1    1    2  501    0 -0.43398885023E+02 -0.69470366447E+01 -0.14706413269E+04  0.14712979429E+04  0.00000000000E+00 0. -1.
<mgrwt>
<rscale>  1 0.91617813E+02</rscale>
<asrwt>0</asrwt>
<pdfrwt beam="1">  1       21 0.25291086E-03 0.91617813E+02</pdfrwt>
<pdfrwt beam="2">  1        2 0.47169458E+00 0.91617813E+02</pdfrwt>
<totfact> 0.80072609E+05</totfact>
</mgrwt>
</event>
<event>
 6    2  0.7993170E+000  0.8774418E+02  0.7546771E-02  0.1308408E+00
         21   -1    0    0  501  502  0.00000000000E+00  0.00000000000E+00  0.82767589804E+01  0.82767589804E+01  0.00000000000E+00 0. -1.
          2   -1    0    0  502    0 -0.00000000000E+00 -0.00000000000E+00 -0.19003469205E+04  0.19003469205E+04  0.00000000000E+00 0. -1.
         24    2    1    2    0    0 -0.45386788755E+01 -0.35555139723E+02 -0.18549445108E+04  0.18570186264E+04  0.80089156078E+02 0.  0.
        -13    1    3    3    0    0  0.35912469950E+02 -0.36569748284E+01 -0.71481732105E+03  0.71572821757E+03  0.00000000000E+00 0.  1.
         14    1    3    3    0    0 -0.40451148825E+02 -0.31898164895E+02 -0.11401271898E+04  0.11412904088E+04  0.00000000000E+00 0. -1.
          1    1    1    2  501    0  0.45386788755E+01  0.35555139723E+02 -0.37125650724E+02  0.51605053128E+02  0.00000000000E+00 0. -1.
<mgrwt>
<rscale>  1 0.87744176E+02</rscale>
<asrwt>0</asrwt>
<pdfrwt beam="1">  1       21 0.12733478E-02 0.87744176E+02</pdfrwt>
<pdfrwt beam="2">  1        2 0.29236101E+00 0.87744176E+02</pdfrwt>
<totfact> 0.27501772E+05</totfact>
</mgrwt>
</event>
<event>
 6    2  0.7993170E+000  0.1114971E+03  0.7546771E-02  0.1257822E+00
         21   -1    0    0  501  502  0.00000000000E+00  0.00000000000E+00  0.83695209295E+01  0.83695209295E+01  0.00000000000E+00 0.  1.
          2   -1    0    0  502    0 -0.00000000000E+00 -0.00000000000E+00 -0.80818404882E+03  0.80818404882E+03  0.00000000000E+00 0. -1.
         24    2    1    2    0    0 -0.33405456074E+02 -0.32259356759E+02 -0.44699485916E+03  0.46069080233E+03  0.10136577647E+03 0.  0.
        -13    1    3    3    0    0  0.10318379153E+02 -0.15955511452E+02 -0.10501481881E+02  0.21710099395E+02  0.00000000000E+00 0.  1.
         14    1    3    3    0    0 -0.43723835228E+02 -0.16303845307E+02 -0.43649337728E+03  0.43898070293E+03  0.00000000000E+00 0. -1.
          1    1    1    2  501    0  0.33405456074E+02  0.32259356759E+02 -0.35281966874E+03  0.35586276743E+03  0.00000000000E+00 0. -1.
<mgrwt>
<rscale>  1 0.11149714E+03</rscale>
<asrwt>0</asrwt>
<pdfrwt beam="1">  1       21 0.12876184E-02 0.11149714E+03</pdfrwt>
<pdfrwt beam="2">  1        2 0.12433603E+00 0.11149714E+03</pdfrwt>
<totfact> 0.10707630E+06</totfact>
</mgrwt>
</event>
<event>
 6    2  0.7993170E+000  0.9369937E+02  0.7546771E-02  0.1294133E+00
         21   -1    0    0  501  502  0.00000000000E+00  0.00000000000E+00  0.22535301710E+03  0.22535301710E+03  0.00000000000E+00 0.  1.
         -3   -1    0    0    0  501 -0.00000000000E+00 -0.00000000000E+00 -0.30469869555E+02  0.30469869555E+02  0.00000000000E+00 0.  1.
         24    2    1    2    0    0 -0.51175112626E+02  0.24815600548E+01  0.59313830082E+02  0.11089500759E+03  0.78450761481E+02 0.  0.
        -11    1    3    3    0    0 -0.62424493398E+02  0.15157510471E+02  0.66524128781E+02  0.92477171289E+02  0.00000000000E+00 0.  1.
         12    1    3    3    0    0  0.11249380771E+02 -0.12675950416E+02 -0.72102986989E+01  0.18417836301E+02  0.00000000000E+00 0. -1.
         -4    1    1    2    0  502  0.51175112626E+02 -0.24815600548E+01  0.13556931747E+03  0.14492787907E+03  0.00000000000E+00 0.  1.
<mgrwt>
<rscale>  1 0.93699372E+02</rscale>
<asrwt>0</asrwt>
<pdfrwt beam="1">  1       21 0.34669694E-01 0.93699372E+02</pdfrwt>
<pdfrwt beam="2">  1       -3 0.46876724E-02 0.93699372E+02</pdfrwt>
<totfact> 0.92663240E+04</totfact>
</mgrwt>
</event>
<event>
 6    2  0.7993170E+000  0.7923332E+02  0.7546771E-02  0.1331241E+00
          2   -1    0    0  502    0 -0.00000000000E+00  0.00000000000E+00  0.10837576756E+04  0.10837576756E+04  0.00000000000E+00 0. -1.
         21   -1    0    0  501  502  0.00000000000E+00 -0.00000000000E+00 -0.39611681592E+02  0.39611681592E+02  0.00000000000E+00 0. -1.
         24    2    1    2    0    0  0.25182609058E+02  0.15797210914E+02  0.10765115223E+04  0.10794234461E+04  0.73445235859E+02 0.  0.
        -13    1    3    3    0    0  0.28289926548E+01  0.16643401714E+01  0.78884362625E+00  0.33757224284E+01  0.00000000000E+00 0.  1.
         14    1    3    3    0    0  0.22353616403E+02  0.14132870743E+02  0.10757226787E+04  0.10760477237E+04  0.00000000000E+00 0. -1.
          1    1    1    2  501    0 -0.25182609058E+02 -0.15797210914E+02 -0.32365528349E+02  0.43945911038E+02  0.00000000000E+00 0. -1.
<mgrwt>
<rscale>  1 0.79233316E+02</rscale>
<asrwt>0</asrwt>
<pdfrwt beam="1">  1       21 0.60941057E-02 0.79233316E+02</pdfrwt>
<pdfrwt beam="2">  1        2 0.16673193E+00 0.79233316E+02</pdfrwt>
<totfact> 0.57418432E+04</totfact>
</mgrwt>
</event>
<event>
 6    2  0.7993170E+000  0.9308938E+02  0.7546771E-02  0.1295538E+00
         -3   -1    0    0    0  501 -0.00000000000E+00  0.00000000000E+00  0.25048308968E+01  0.25048308968E+01  0.00000000000E+00 0.  1.
         21   -1    0    0  501  502  0.00000000000E+00 -0.00000000000E+00 -0.22306317594E+04  0.22306317594E+04  0.00000000000E+00 0.  1.
         24    2    1    2    0    0 -0.46437788857E+02  0.32149650202E+01 -0.18169635287E+04  0.18193466127E+04  0.80615310140E+02 0.  0.
        -11    1    3    3    0    0 -0.14777772177E+02 -0.23338380952E+02 -0.20490718871E+03  0.20676077617E+03  0.00000000000E+00 0.  1.
         12    1    3    3    0    0 -0.31660016680E+02  0.26553345972E+02 -0.16120563400E+04  0.16125858365E+04  0.00000000000E+00 0. -1.
         -4    1    1    2    0  502  0.46437788857E+02 -0.32149650202E+01 -0.41116339978E+03  0.41378997759E+03  0.00000000000E+00 0.  1.
<mgrwt>
<rscale>  1 0.93089379E+02</rscale>
<asrwt>0</asrwt>
<pdfrwt beam="1">  1       21 0.34317604E+00 0.93089379E+02</pdfrwt>
<pdfrwt beam="2">  1       -3 0.38535644E-03 0.93089379E+02</pdfrwt>
<totfact> 0.11248695E+04</totfact>
</mgrwt>
</event>
<event>
 6    2  0.7993170E+000  0.9196692E+02  0.7546771E-02  0.1298157E+00
         21   -1    0    0  501  502  0.00000000000E+00  0.00000000000E+00  0.15683516818E+01  0.15683516818E+01  0.00000000000E+00 0. -1.
          2   -1    0    0  502    0 -0.00000000000E+00 -0.00000000000E+00 -0.30225319434E+04  0.30225319434E+04  0.00000000000E+00 0. -1.
         24    2    1    2    0    0  0.17571800495E+02 -0.39644751538E+02 -0.22957712440E+04  0.22976125693E+04  0.81101414358E+02 0.  0.
        -11    1    3    3    0    0 -0.13972445024E+02  0.33533567547E+01 -0.85570750577E+02  0.86768816840E+02  0.00000000000E+00 0.  1.
         12    1    3    3    0    0  0.31544245518E+02 -0.42998108293E+02 -0.22102004935E+04  0.22108437525E+04  0.00000000000E+00 0. -1.
          1    1    1    2  501    0 -0.17571800495E+02  0.39644751538E+02 -0.72519234764E+03  0.72648772569E+03  0.00000000000E+00 0. -1.
<mgrwt>
<rscale>  1 0.91966917E+02</rscale>
<asrwt>0</asrwt>
<pdfrwt beam="1">  1       21 0.24128607E-03 0.91966917E+02</pdfrwt>
<pdfrwt beam="2">  1        2 0.46500262E+00 0.91966917E+02</pdfrwt>
<totfact> 0.91052604E+05</totfact>
</mgrwt>
</event>
<event>
 6    2  0.7993170E+000  0.8941148E+02  0.7546771E-02  0.1304283E+00
         21   -1    0    0  501  502  0.00000000000E+00  0.00000000000E+00  0.20322437219E+03  0.20322437219E+03  0.00000000000E+00 0.  1.
          4   -1    0    0  502    0 -0.00000000000E+00 -0.00000000000E+00 -0.20439115291E+02  0.20439115291E+02  0.00000000000E+00 0. -1.
         24    2    1    2    0    0 -0.31976455815E+02  0.22301654383E+02  0.11793263975E+03  0.14799500351E+03  0.80464625968E+02 0.  0.
        -13    1    3    3    0    0 -0.37064318442E+02  0.36794110315E+02  0.12148032062E+03  0.13223100451E+03  0.00000000000E+00 0.  1.
         14    1    3    3    0    0  0.50878626273E+01 -0.14492455932E+02 -0.35476808721E+01  0.15763999005E+02  0.00000000000E+00 0. -1.
          3    1    1    2  501    0  0.31976455815E+02 -0.22301654383E+02  0.64852617151E+02  0.75668483968E+02  0.00000000000E+00 0. -1.
<mgrwt>
<rscale>  1 0.89411484E+02</rscale>
<asrwt>0</asrwt>
<pdfrwt beam="1">  1       21 0.31265287E-01 0.89411484E+02</pdfrwt>
<pdfrwt beam="2">  1        4 0.31444794E-02 0.89411484E+02</pdfrwt>
<totfact> 0.18610284E+05</totfact>
</mgrwt>
</event>
<event>
 6    2  0.7993170E+000  0.8316962E+02  0.7546771E-02  0.1320290E+00
          4   -1    0    0  502    0 -0.00000000000E+00  0.00000000000E+00  0.70437636812E+01  0.70437636812E+01  0.00000000000E+00 0. -1.
         21   -1    0    0  501  502  0.00000000000E+00 -0.00000000000E+00 -0.50895426020E+03  0.50895426020E+03  0.00000000000E+00 0. -1.
         24    2    1    2    0    0  0.66499600319E+01 -0.21613838882E+02 -0.25874529739E+03  0.27178358109E+03  0.80036279461E+02 0.  0.
        -13    1    3    3    0    0 -0.32875459633E+02 -0.12178670889E+02 -0.17765483831E+03  0.18108107976E+03  0.00000000000E+00 0.  1.
         14    1    3    3    0    0  0.39525419665E+02 -0.94351679923E+01 -0.81090459082E+02  0.90702501338E+02  0.00000000000E+00 0. -1.
          3    1    1    2  501    0 -0.66499600319E+01  0.21613838882E+02 -0.24316519912E+03  0.24421444278E+03  0.00000000000E+00 0. -1.
<mgrwt>
<rscale>  1 0.83169622E+02</rscale>
<asrwt>0</asrwt>
<pdfrwt beam="1">  1       21 0.78300693E-01 0.83169622E+02</pdfrwt>
<pdfrwt beam="2">  1        4 0.10836554E-02 0.83169622E+02</pdfrwt>
<totfact> 0.14267777E+05</totfact>
</mgrwt>
</event>
<event>
 6    2  0.7993170E+000  0.8590013E+02  0.7546771E-02  0.1313095E+00
         -1   -1    0    0    0  501 -0.00000000000E+00  0.00000000000E+00  0.22810430834E+03  0.22810430834E+03  0.00000000000E+00 0.  1.
         21   -1    0    0  501  502  0.00000000000E+00 -0.00000000000E+00 -0.79883925199E+02  0.79883925199E+02  0.00000000000E+00 0.  1.
         24    2    1    2    0    0 -0.22030123529E+02  0.20530119358E+02  0.21674090827E+03  0.23314256227E+03  0.80448871210E+02 0.  0.
        -13    1    3    3    0    0 -0.67565781457E+01 -0.25667894673E+02  0.13839055375E+03  0.14091287213E+03  0.00000000000E+00 0.  1.
         14    1    3    3    0    0 -0.15273545384E+02  0.46198014031E+02  0.78350354520E+02  0.92229690135E+02  0.00000000000E+00 0. -1.
         -2    1    1    2    0  502  0.22030123529E+02 -0.20530119358E+02 -0.68520525132E+02  0.74845671271E+02  0.00000000000E+00 0.  1.
<mgrwt>
<rscale>  1 0.85900134E+02</rscale>
<asrwt>0</asrwt>
<pdfrwt beam="1">  1       21 0.12289835E-01 0.85900134E+02</pdfrwt>
<pdfrwt beam="2">  1       -1 0.35092970E-01 0.85900134E+02</pdfrwt>
<totfact> 0.39305464E+04</totfact>
</mgrwt>
</event>
<event>
 6    2  0.7993170E+000  0.8676236E+02  0.7546771E-02  0.1310887E+00
          2   -1    0    0  502    0 -0.00000000000E+00  0.00000000000E+00  0.33654290804E+04  0.33654290804E+04  0.00000000000E+00 0. -1.
         21   -1    0    0  501  502  0.00000000000E+00 -0.00000000000E+00 -0.10286695392E+01  0.10286695392E+01  0.00000000000E+00 0.  1.
         24    2    1    2    0    0 -0.92378583385E+01 -0.29141832287E+02  0.25959191051E+04  0.25973686122E+04  0.81198049454E+02 0.  0.
        -11    1    3    3    0    0  0.30238961995E+01  0.26842531739E+02  0.11439171356E+04  0.11442360240E+04  0.00000000000E+00 0.  1.
         12    1    3    3    0    0 -0.12261754538E+02 -0.55984364026E+02  0.14520019695E+04  0.14531325883E+04  0.00000000000E+00 0. -1.
          1    1    1    2  501    0  0.92378583385E+01  0.29141832287E+02  0.76848130572E+03  0.76908913766E+03  0.00000000000E+00 0. -1.
<mgrwt>
<rscale>  1 0.86762363E+02</rscale>
<asrwt>0</asrwt>
<pdfrwt beam="1">  1       21 0.15825955E-03 0.86762363E+02</pdfrwt>
<pdfrwt beam="2">  1        2 0.51774950E+00 0.86762363E+02</pdfrwt>
<totfact> 0.10711981E+06</totfact>
</mgrwt>
</event>
<event>
 6    2  0.7993170E+000  0.9331891E+02  0.7546771E-02  0.1295008E+00
          2   -1    0    0  502    0 -0.00000000000E+00  0.00000000000E+00  0.14309760018E+03  0.14309760018E+03  0.00000000000E+00 0. -1.
         21   -1    0    0  501  502  0.00000000000E+00 -0.00000000000E+00 -0.74026074085E+02  0.74026074085E+02  0.00000000000E+00 0. -1.
         24    2    1    2    0    0  0.34962886580E+02 -0.29222488323E+02 -0.38000059616E+02  0.10075923928E+03  0.81437476069E+02 0.  0.
        -11    1    3    3    0    0  0.56013245827E+02 -0.23225840567E+02 -0.45810649052E+01  0.60810439349E+02  0.00000000000E+00 0.  1.
         12    1    3    3    0    0 -0.21050359247E+02 -0.59966477555E+01 -0.33418994711E+02  0.39948799935E+02  0.00000000000E+00 0. -1.
          1    1    1    2  501    0 -0.34962886580E+02  0.29222488323E+02  0.10707158571E+03  0.11636443498E+03  0.00000000000E+00 0. -1.
<mgrwt>
<rscale>  1 0.93318914E+02</rscale>
<asrwt>0</asrwt>
<pdfrwt beam="1">  1       21 0.11388627E-01 0.93318914E+02</pdfrwt>
<pdfrwt beam="2">  1        2 0.22015015E-01 0.93318914E+02</pdfrwt>
<totfact> 0.18919057E+05</totfact>
</mgrwt>
</event>
<event>
 6    2  0.7993170E+000  0.8744955E+02  0.7546771E-02  0.1309148E+00
         21   -1    0    0  501  502  0.00000000000E+00  0.00000000000E+00  0.35822025689E+01  0.35822025689E+01  0.00000000000E+00 0. -1.
          2   -1    0    0  502    0 -0.00000000000E+00 -0.00000000000E+00 -0.87997016934E+03  0.87997016934E+03  0.00000000000E+00 0. -1.
         24    2    1    2    0    0  0.22818287805E+02  0.87261921521E+01 -0.71443897336E+03  0.71977112404E+03  0.83967872745E+02 0.  0.
        -11    1    3    3    0    0 -0.22276332856E+02  0.18772424056E+02 -0.11789490704E+03  0.12144071812E+03  0.00000000000E+00 0.  1.
         12    1    3    3    0    0  0.45094620660E+02 -0.10046231904E+02 -0.59654406632E+03  0.59833040592E+03  0.00000000000E+00 0. -1.
          1    1    1    2  501    0 -0.22818287805E+02 -0.87261921521E+01 -0.16194899341E+03  0.16378124787E+03  0.00000000000E+00 0. -1.
<mgrwt>
<rscale>  1 0.87449553E+02</rscale>
<asrwt>0</asrwt>
<pdfrwt beam="1">  1       21 0.55110769E-03 0.87449553E+02</pdfrwt>
<pdfrwt beam="2">  1        2 0.13538012E+00 0.87449553E+02</pdfrwt>
<totfact> 0.35292479E+06</totfact>
</mgrwt>
</event>
<event>
 6    2  0.7993170E+000  0.8678931E+02  0.7546771E-02  0.1310819E+00
         21   -1    0    0  501  502  0.00000000000E+00  0.00000000000E+00  0.60910464238E+03  0.60910464238E+03  0.00000000000E+00 0. -1.
          2   -1    0    0  502    0 -0.00000000000E+00 -0.00000000000E+00 -0.63001968367E+01  0.63001968367E+01  0.00000000000E+00 0. -1.
         24    2    1    2    0    0  0.28914606390E+02 -0.20677141806E+02  0.38019889017E+03  0.38997894909E+03  0.79175665401E+02 0.  0.
        -13    1    3    3    0    0  0.29988273934E+02  0.86093118280E+01  0.33274918958E+03  0.33420867731E+03  0.00000000000E+00 0.  1.
         14    1    3    3    0    0 -0.10736675447E+01 -0.29286453634E+02  0.47449700595E+02  0.55770271785E+02  0.00000000000E+00 0. -1.
          1    1    1    2  501    0 -0.28914606390E+02  0.20677141806E+02  0.22260555537E+03  0.22542589012E+03  0.00000000000E+00 0. -1.
<mgrwt>
<rscale>  1 0.86789312E+02</rscale>
<asrwt>0</asrwt>
<pdfrwt beam="1">  1       21 0.93708360E-01 0.86789312E+02</pdfrwt>
<pdfrwt beam="2">  1        2 0.96926153E-03 0.86789312E+02</pdfrwt>
<totfact> 0.16298865E+05</totfact>
</mgrwt>
</event>
<event>
 6    2  0.7993170E+000  0.7835644E+02  0.7546771E-02  0.1333781E+00
          2   -1    0    0  502    0 -0.00000000000E+00  0.00000000000E+00  0.33879898093E+03  0.33879898093E+03  0.00000000000E+00 0. -1.
         21   -1    0    0  501  502  0.00000000000E+00 -0.00000000000E+00 -0.72633223995E+01  0.72633223995E+01  0.00000000000E+00 0.  1.
         24    2    1    2    0    0  0.14394025770E+01 -0.19982931466E+02  0.24442599163E+03  0.25667839260E+03  0.75751847593E+02 0.  0.
        -13    1    3    3    0    0  0.38371144128E+02 -0.14500815552E+02  0.12760028289E+03  0.13403152818E+03  0.00000000000E+00 0.  1.
         14    1    3    3    0    0 -0.36931741551E+02 -0.54821159144E+01  0.11682570874E+03  0.12264686442E+03  0.00000000000E+00 0. -1.
          1    1    1    2  501    0 -0.14394025770E+01  0.19982931466E+02  0.87109666905E+02  0.89383910733E+02  0.00000000000E+00 0. -1.
<mgrwt>
<rscale>  1 0.78356441E+02</rscale>
<asrwt>0</asrwt>
<pdfrwt beam="1">  1       21 0.11174345E-02 0.78356441E+02</pdfrwt>
<pdfrwt beam="2">  1        2 0.52122908E-01 0.78356441E+02</pdfrwt>
<totfact> 0.33679158E+06</totfact>
</mgrwt>
</event>
<event>
 6    2  0.7993170E+000  0.8553722E+02  0.7546771E-02  0.1314034E+00
         -1   -1    0    0    0  501 -0.00000000000E+00  0.00000000000E+00  0.43551933667E+03  0.43551933667E+03  0.00000000000E+00 0.  1.
         21   -1    0    0  501  502  0.00000000000E+00 -0.00000000000E+00 -0.93752216262E+01  0.93752216262E+01  0.00000000000E+00 0.  1.
         24    2    1    2    0    0 -0.37387792953E+00 -0.27682845791E+02  0.39051659101E+03  0.39977471560E+03  0.80932908306E+02 0.  0.
        -11    1    3    3    0    0  0.73345527212E+01 -0.43768991149E+02  0.36972911532E+03  0.37238305408E+03  0.00000000000E+00 0.  1.
         12    1    3    3    0    0 -0.77084306507E+01  0.16086145358E+02  0.20787475689E+02  0.27391661525E+02  0.00000000000E+00 0. -1.
         -2    1    1    2    0  502  0.37387792953E+00  0.27682845791E+02  0.35627524038E+02  0.45119842696E+02  0.00000000000E+00 0.  1.
<mgrwt>
<rscale>  1 0.85537216E+02</rscale>
<asrwt>0</asrwt>
<pdfrwt beam="1">  1       21 0.14423421E-02 0.85537216E+02</pdfrwt>
<pdfrwt beam="2">  1       -1 0.67002959E-01 0.85537216E+02</pdfrwt>
<totfact> 0.42493879E+05</totfact>
</mgrwt>
</event>
<event>
 6    2  0.7993170E+000  0.9528944E+02  0.7546771E-02  0.1290526E+00
          2   -1    0    0  502    0 -0.00000000000E+00  0.00000000000E+00  0.37672894868E+03  0.37672894868E+03  0.00000000000E+00 0. -1.
         21   -1    0    0  501  502  0.00000000000E+00 -0.00000000000E+00 -0.16072604109E+02  0.16072604109E+02  0.00000000000E+00 0.  1.
         24    2    1    2    0    0 -0.49820046444E+02  0.24683834822E+00  0.16157327572E+03  0.18757931652E+03  0.81227942246E+02 0.  0.
        -11    1    3    3    0    0 -0.48456274825E+02  0.34869054618E+02  0.11450769061E+03  0.12913509496E+03  0.00000000000E+00 0.  1.
         12    1    3    3    0    0 -0.13637716187E+01 -0.34622216270E+02  0.47065585109E+02  0.58444221563E+02  0.00000000000E+00 0. -1.
          1    1    1    2  501    0  0.49820046444E+02 -0.24683834822E+00  0.19908306885E+03  0.20522223627E+03  0.00000000000E+00 0. -1.
<mgrwt>
<rscale>  1 0.95289436E+02</rscale>
<asrwt>0</asrwt>
<pdfrwt beam="1">  1       21 0.24727086E-02 0.95289436E+02</pdfrwt>
<pdfrwt beam="2">  1        2 0.57958293E-01 0.95289436E+02</pdfrwt>
<totfact> 0.87357370E+05</totfact>
</mgrwt>
</event>
<event>
 6    2  0.7993170E+000  0.8823685E+02  0.7546771E-02  0.1307178E+00
         21   -1    0    0  501  502  0.00000000000E+00  0.00000000000E+00  0.41713441857E+02  0.41713441857E+02  0.00000000000E+00 0.  1.
          4   -1    0    0  502    0 -0.00000000000E+00 -0.00000000000E+00 -0.74268279263E+02  0.74268279263E+02  0.00000000000E+00 0. -1.
         24    2    1    2    0    0 -0.40703681767E+01  0.20536852930E+02 -0.34954823706E+02  0.94908274330E+02  0.85717038042E+02 0.  0.
        -11    1    3    3    0    0  0.21862315724E+02  0.43243751604E+02 -0.36092421205E+02  0.60420574062E+02  0.00000000000E+00 0.  1.
         12    1    3    3    0    0 -0.25932683901E+02 -0.22706898674E+02  0.11375974990E+01  0.34487700268E+02  0.00000000000E+00 0. -1.
          3    1    1    2  501    0  0.40703681767E+01 -0.20536852930E+02  0.23999862993E+01  0.21073446790E+02  0.00000000000E+00 0. -1.
<mgrwt>
<rscale>  1 0.88236845E+02</rscale>
<asrwt>0</asrwt>
<pdfrwt beam="1">  1       21 0.64174527E-02 0.88236845E+02</pdfrwt>
<pdfrwt beam="2">  1        4 0.11425889E-01 0.88236845E+02</pdfrwt>
<totfact> 0.39056098E+05</totfact>
</mgrwt>
</event>
<event>
 6    2  0.7993170E+000  0.9176063E+02  0.7546771E-02  0.1298643E+00
          2   -1    0    0  502    0 -0.00000000000E+00  0.00000000000E+00  0.49396634714E+04  0.49396634714E+04  0.00000000000E+00 0. -1.
         21   -1    0    0  501  502  0.00000000000E+00 -0.00000000000E+00 -0.95315496762E+00  0.95315496762E+00  0.00000000000E+00 0. -1.
         24    2    1    2    0    0  0.17832315139E+02 -0.17200702087E+02  0.46314814909E+04  0.46323903997E+04  0.88352466571E+02 0.  0.
        -13    1    3    3    0    0  0.21265769603E+02 -0.23231839144E+02  0.54879547321E+03  0.54969848346E+03  0.00000000000E+00 0.  1.
         14    1    3    3    0    0 -0.34334544646E+01  0.60311370573E+01  0.40826860177E+04  0.40826919162E+04  0.00000000000E+00 0. -1.
          1    1    1    2  501    0 -0.17832315139E+02  0.17200702087E+02  0.30722882549E+03  0.30822622670E+03  0.00000000000E+00 0. -1.
<mgrwt>
<rscale>  1 0.91760634E+02</rscale>
<asrwt>0</asrwt>
<pdfrwt beam="1">  1       21 0.14664318E-03 0.91760634E+02</pdfrwt>
<pdfrwt beam="2">  1        2 0.75992773E+00 0.91760634E+02</pdfrwt>
<totfact> 0.64044357E+04</totfact>
</mgrwt>
</event>
<event>
 6    2  0.7993170E+000  0.8573836E+02  0.7546771E-02  0.1313513E+00
         -1   -1    0    0    0  501 -0.00000000000E+00  0.00000000000E+00  0.20751925326E+03  0.20751925326E+03  0.00000000000E+00 0.  1.
         21   -1    0    0  501  502  0.00000000000E+00 -0.00000000000E+00 -0.15450283528E+02  0.15450283528E+02  0.00000000000E+00 0. -1.
         24    2    1    2    0    0  0.12882559757E+02 -0.24257976981E+02  0.14281821205E+03  0.16657763200E+03  0.81219800526E+02 0.  0.
        -13    1    3    3    0    0 -0.30265936280E+02  0.46016855225E+01  0.76220675999E+02  0.82138869351E+02  0.00000000000E+00 0.  1.
         14    1    3    3    0    0  0.43148496038E+02 -0.28859662504E+02  0.66597536050E+02  0.84438762651E+02  0.00000000000E+00 0. -1.
         -2    1    1    2    0  502 -0.12882559757E+02  0.24257976981E+02  0.49250757688E+02  0.56391904791E+02  0.00000000000E+00 0.  1.
<mgrwt>
<rscale>  1 0.85738357E+02</rscale>
<asrwt>0</asrwt>
<pdfrwt beam="1">  1       21 0.23769668E-02 0.85738357E+02</pdfrwt>
<pdfrwt beam="2">  1       -1 0.31926037E-01 0.85738357E+02</pdfrwt>
<totfact> 0.71984901E+05</totfact>
</mgrwt>
</event>
<event>
 6    2  0.8636860E+000  0.9507352E+02  0.7546771E-02  0.1291011E+00
         21   -1    0    0  501  502  0.00000000000E+00  0.00000000000E+00  0.56743924618E+02  0.56743924618E+02  0.00000000000E+00 0.  1.
          2   -1    0    0  502    0 -0.00000000000E+00 -0.00000000000E+00 -0.24251172735E+03  0.24251172735E+03  0.00000000000E+00 0. -1.
         24    2    1    2    0    0  0.26086460929E+02 -0.45401678425E+02  0.10937204411E+02  0.95700559469E+02  0.79354639402E+02 0.  0.
        -11    1    3    3    0    0  0.38100547989E+02 -0.61395962167E+02  0.18036331349E+02  0.74474325616E+02  0.00000000000E+00 0.  1.
         12    1    3    3    0    0 -0.12014087060E+02  0.15994283742E+02 -0.70991269381E+01  0.21226233853E+02  0.00000000000E+00 0. -1.
          1    1    1    2  501    0 -0.26086460929E+02  0.45401678425E+02 -0.19670500714E+03  0.20355509250E+03  0.00000000000E+00 0. -1.
<mgrwt>
<rscale>  1 0.95073522E+02</rscale>
<asrwt>0</asrwt>
<pdfrwt beam="1">  1       21 0.87298344E-02 0.95073522E+02</pdfrwt>
<pdfrwt beam="2">  1        2 0.37309497E-01 0.95073522E+02</pdfrwt>
<totfact> 0.17018871E+05</totfact>
</mgrwt>
</event>
<event>
 6    2  0.7993170E+000  0.1002302E+03  0.7546771E-02  0.1279813E+00
         21   -1    0    0  501  502  0.00000000000E+00  0.00000000000E+00  0.20840546790E+03  0.20840546790E+03  0.00000000000E+00 0.  1.
          4   -1    0    0  502    0 -0.00000000000E+00 -0.00000000000E+00 -0.25357634549E+02  0.25357634549E+02  0.00000000000E+00 0. -1.
         24    2    1    2    0    0  0.97681943326E+00  0.37102072724E+02  0.94513613276E+02  0.13776400818E+03  0.93105214023E+02 0.  0.
        -13    1    3    3    0    0 -0.30719430505E+02  0.49005560125E+02  0.84606617776E+02  0.10248662403E+03  0.00000000000E+00 0.  1.
         14    1    3    3    0    0  0.31696249939E+02 -0.11903487400E+02  0.99069955001E+01  0.35277384148E+02  0.00000000000E+00 0. -1.
          3    1    1    2  501    0 -0.97681943326E+00 -0.37102072724E+02  0.88534220074E+02  0.95999094270E+02  0.00000000000E+00 0. -1.
<mgrwt>
<rscale>  1 0.10023023E+03</rscale>
<asrwt>0</asrwt>
<pdfrwt beam="1">  1       21 0.32062379E-01 0.10023023E+03</pdfrwt>
<pdfrwt beam="2">  1        4 0.39011747E-02 0.10023023E+03</pdfrwt>
<totfact> 0.12882041E+05</totfact>
</mgrwt>
</event>
<event>
 6    2  0.7993170E+000  0.9888290E+02  0.7546771E-02  0.1282663E+00
          2   -1    0    0  502    0 -0.00000000000E+00  0.00000000000E+00  0.46178211088E+04  0.46178211088E+04  0.00000000000E+00 0. -1.
         21   -1    0    0  501  502  0.00000000000E+00 -0.00000000000E+00 -0.13477278539E+01  0.13477278539E+01  0.00000000000E+00 0. -1.
         24    2    1    2    0    0  0.15816493166E+02  0.54024205342E+02  0.33234288510E+04  0.33248995708E+04  0.81296074620E+02 0.  0.
        -11    1    3    3    0    0 -0.31208835885E+02  0.34369466250E+02  0.12992520853E+04  0.13000812409E+04  0.00000000000E+00 0.  1.
         12    1    3    3    0    0  0.47025329051E+02  0.19654739092E+02  0.20241767657E+04  0.20248183299E+04  0.00000000000E+00 0. -1.
          1    1    1    2  501    0 -0.15816493166E+02 -0.54024205342E+02  0.12930445299E+04  0.12942692659E+04  0.00000000000E+00 0. -1.
<mgrwt>
<rscale>  1 0.98882900E+02</rscale>
<asrwt>0</asrwt>
<pdfrwt beam="1">  1       21 0.20734644E-03 0.98882900E+02</pdfrwt>
<pdfrwt beam="2">  1        2 0.71042135E+00 0.98882900E+02</pdfrwt>
<totfact> 0.81385887E+04</totfact>
</mgrwt>
</event>
<event>
 6    2  0.7993170E+000  0.6936925E+02  0.7546771E-02  0.1362251E+00
         -3   -1    0    0    0  501 -0.00000000000E+00  0.00000000000E+00  0.25588872247E+03  0.25588872247E+03  0.00000000000E+00 0.  1.
         21   -1    0    0  501  502  0.00000000000E+00 -0.00000000000E+00 -0.10968107999E+02  0.10968107999E+02  0.00000000000E+00 0. -1.
         24    2    1    2    0    0  0.16271075846E+02  0.24563374500E+02  0.12093028638E+03  0.13941386779E+03  0.62801155184E+02 0.  0.
        -11    1    3    3    0    0  0.27434861438E+02  0.11054294262E+02  0.11799376436E+03  0.12164455381E+03  0.00000000000E+00 0.  1.
         12    1    3    3    0    0 -0.11163785592E+02  0.13509080238E+02  0.29365220136E+01  0.17769313975E+02  0.00000000000E+00 0. -1.
         -4    1    1    2    0  502 -0.16271075846E+02 -0.24563374500E+02  0.12399032809E+03  0.12744296268E+03  0.00000000000E+00 0.  1.
<mgrwt>
<rscale>  1 0.69369247E+02</rscale>
<asrwt>0</asrwt>
<pdfrwt beam="1">  1       21 0.16874014E-02 0.69369247E+02</pdfrwt>
<pdfrwt beam="2">  1       -3 0.39367491E-01 0.69369247E+02</pdfrwt>
<totfact> 0.43464281E+05</totfact>
</mgrwt>
</event>
<event>
 6    2  0.7993170E+000  0.1912146E+03  0.7546771E-02  0.1157370E+00
         21   -1    0    0  501  502  0.00000000000E+00  0.00000000000E+00  0.56839039989E+02  0.56839039989E+02  0.00000000000E+00 0.  1.
         -3   -1    0    0    0  501 -0.00000000000E+00 -0.00000000000E+00 -0.58659045555E+03  0.58659045555E+03  0.00000000000E+00 0.  1.
         24    2    1    2    0    0  0.44611603932E+02  0.16752742982E+03 -0.29638727333E+03  0.35271579131E+03  0.80668325275E+02 0.  0.
        -11    1    3    3    0    0  0.59122278568E+02  0.76716174933E+02 -0.12411112944E+03  0.15743058079E+03  0.00000000000E+00 0.  1.
         12    1    3    3    0    0 -0.14510674636E+02  0.90811254883E+02 -0.17227614390E+03  0.19528521052E+03  0.00000000000E+00 0. -1.
         -4    1    1    2    0  502 -0.44611603932E+02 -0.16752742982E+03 -0.23336414223E+03  0.29071370423E+03  0.00000000000E+00 0.  1.
<mgrwt>
<rscale>  1 0.19121457E+03</rscale>
<asrwt>0</asrwt>
<pdfrwt beam="1">  1       21 0.87444676E-02 0.19121457E+03</pdfrwt>
<pdfrwt beam="2">  1       -3 0.90244686E-01 0.19121457E+03</pdfrwt>
<totfact> 0.57954722E+03</totfact>
</mgrwt>
</event>
<event>
 6    2  0.7993170E+000  0.8835082E+02  0.7546771E-02  0.1306895E+00
         21   -1    0    0  501  502  0.00000000000E+00  0.00000000000E+00  0.48833489272E+01  0.48833489272E+01  0.00000000000E+00 0. -1.
          2   -1    0    0  502    0 -0.00000000000E+00 -0.00000000000E+00 -0.10607963219E+04  0.10607963219E+04  0.00000000000E+00 0. -1.
         24    2    1    2    0    0 -0.11464414408E+02 -0.21518887104E+02 -0.41487586178E+03  0.42417902919E+03  0.84919802246E+02 0.  0.
        -11    1    3    3    0    0  0.18542811453E+02  0.14023452735E+02 -0.38759739601E+02  0.45197461180E+02  0.00000000000E+00 0.  1.
         12    1    3    3    0    0 -0.30007225861E+02 -0.35542339839E+02 -0.37611612218E+03  0.37898156801E+03  0.00000000000E+00 0. -1.
          1    1    1    2  501    0  0.11464414408E+02  0.21518887104E+02 -0.64103711119E+03  0.64150064164E+03  0.00000000000E+00 0. -1.
<mgrwt>
<rscale>  1 0.88350824E+02</rscale>
<asrwt>0</asrwt>
<pdfrwt beam="1">  1       21 0.75128472E-03 0.88350824E+02</pdfrwt>
<pdfrwt beam="2">  1        2 0.16319938E+00 0.88350824E+02</pdfrwt>
<totfact> 0.17100487E+06</totfact>
</mgrwt>
</event>
<event>
 6    2  0.7993170E+000  0.1029147E+03  0.7546771E-02  0.1274284E+00
         -1   -1    0    0    0  501 -0.00000000000E+00  0.00000000000E+00  0.74376244711E+02  0.74376244711E+02  0.00000000000E+00 0.  1.
         21   -1    0    0  501  502  0.00000000000E+00 -0.00000000000E+00 -0.99915877277E+02  0.99915877277E+02  0.00000000000E+00 0. -1.
         24    2    1    2    0    0  0.66718828581E+02 -0.77419942043E+01 -0.29348877119E+02  0.10701767732E+03  0.77974906919E+02 0.  0.
        -13    1    3    3    0    0 -0.52403692462E+01  0.17236303281E+02  0.10706663047E+02  0.20956723366E+02  0.00000000000E+00 0.  1.
         14    1    3    3    0    0  0.71959197827E+02 -0.24978297486E+02 -0.40055540166E+02  0.86060953953E+02  0.00000000000E+00 0. -1.
         -2    1    1    2    0  502 -0.66718828581E+02  0.77419942043E+01  0.38092445534E+01  0.67274444669E+02  0.00000000000E+00 0.  1.
<mgrwt>
<rscale>  1 0.10291466E+03</rscale>
<asrwt>0</asrwt>
<pdfrwt beam="1">  1       21 0.15371673E-01 0.10291466E+03</pdfrwt>
<pdfrwt beam="2">  1       -1 0.11442499E-01 0.10291466E+03</pdfrwt>
<totfact> 0.15983432E+05</totfact>
</mgrwt>
</event>
<event>
 6    2  0.7993170E+000  0.8979088E+02  0.7546771E-02  0.1303359E+00
         21   -1    0    0  501  502  0.00000000000E+00  0.00000000000E+00  0.47581530413E+02  0.47581530413E+02  0.00000000000E+00 0. -1.
          2   -1    0    0  502    0 -0.00000000000E+00 -0.00000000000E+00 -0.12092913161E+03  0.12092913161E+03  0.00000000000E+00 0. -1.
         24    2    1    2    0    0 -0.54837648616E+01  0.37721424718E+02 -0.89803409768E+02  0.12699233841E+03  0.81298364371E+02 0.  0.
        -13    1    3    3    0    0  0.29404324225E+01  0.45017054974E+02 -0.97340957858E+01  0.46151208024E+02  0.00000000000E+00 0.  1.
         14    1    3    3    0    0 -0.84241972841E+01 -0.72956302556E+01 -0.80069313982E+02  0.80841130387E+02  0.00000000000E+00 0. -1.
          1    1    1    2  501    0  0.54837648616E+01 -0.37721424718E+02  0.16455808571E+02  0.41518323612E+02  0.00000000000E+00 0. -1.
<mgrwt>
<rscale>  1 0.89790877E+02</rscale>
<asrwt>0</asrwt>
<pdfrwt beam="1">  1       21 0.73202356E-02 0.89790877E+02</pdfrwt>
<pdfrwt beam="2">  1        2 0.18604481E-01 0.89790877E+02</pdfrwt>
<totfact> 0.48749978E+05</totfact>
</mgrwt>
</event>
<event>
 6    2  0.7993170E+000  0.7916237E+02  0.7546771E-02  0.1331445E+00
         21   -1    0    0  501  502  0.00000000000E+00  0.00000000000E+00  0.39871401919E+01  0.39871401919E+01  0.00000000000E+00 0.  1.
          2   -1    0    0  502    0 -0.00000000000E+00 -0.00000000000E+00 -0.66600256454E+03  0.66600256454E+03  0.00000000000E+00 0. -1.
         24    2    1    2    0    0 -0.18414162575E+02  0.14945078090E+02 -0.52563203092E+03  0.53155969807E+03  0.75526445281E+02 0.  0.
        -13    1    3    3    0    0 -0.41580922244E+01  0.26781068755E+02 -0.63316844428E+02  0.68873348713E+02  0.00000000000E+00 0.  1.
         14    1    3    3    0    0 -0.14256070351E+02 -0.11835990665E+02 -0.46231518650E+03  0.46268634936E+03  0.00000000000E+00 0. -1.
          1    1    1    2  501    0  0.18414162575E+02 -0.14945078090E+02 -0.13638339343E+03  0.13843000667E+03  0.00000000000E+00 0. -1.
<mgrwt>
<rscale>  1 0.79162369E+02</rscale>
<asrwt>0</asrwt>
<pdfrwt beam="1">  1       21 0.61340590E-03 0.79162369E+02</pdfrwt>
<pdfrwt beam="2">  1        2 0.10246198E+00 0.79162369E+02</pdfrwt>
<totfact> 0.41315250E+06</totfact>
</mgrwt>
</event>
<event>
 6    2  0.7993170E+000  0.8326433E+02  0.7546771E-02  0.1320035E+00
         -1   -1    0    0    0  501 -0.00000000000E+00  0.00000000000E+00  0.34804659225E+03  0.34804659225E+03  0.00000000000E+00 0.  1.
         21   -1    0    0  501  502  0.00000000000E+00 -0.00000000000E+00 -0.29301704656E+02  0.29301704656E+02  0.00000000000E+00 0.  1.
         24    2    1    2    0    0  0.21190011325E+02 -0.56959833062E+01  0.33803108306E+03  0.34813497561E+03  0.80321151173E+02 0.  0.
        -11    1    3    3    0    0 -0.17989749851E+02  0.20064555823E+02  0.21122621376E+03  0.21293832647E+03  0.00000000000E+00 0.  1.
         12    1    3    3    0    0  0.39179761176E+02 -0.25760539130E+02  0.12680486930E+03  0.13519664915E+03  0.00000000000E+00 0. -1.
         -2    1    1    2    0  502 -0.21190011325E+02  0.56959833062E+01 -0.19286195461E+02  0.29213321296E+02  0.00000000000E+00 0.  1.
<mgrwt>
<rscale>  1 0.83264327E+02</rscale>
<asrwt>0</asrwt>
<pdfrwt beam="1">  1       21 0.45079548E-02 0.83264327E+02</pdfrwt>
<pdfrwt beam="2">  1       -1 0.53545627E-01 0.83264327E+02</pdfrwt>
<totfact> 0.10270935E+05</totfact>
</mgrwt>
</event>
<event>
 6    2  0.7993170E+000  0.7826165E+02  0.7546771E-02  0.1334058E+00
          2   -1    0    0  502    0 -0.00000000000E+00  0.00000000000E+00  0.96439338693E+03  0.96439338693E+03  0.00000000000E+00 0. -1.
         21   -1    0    0  501  502  0.00000000000E+00 -0.00000000000E+00 -0.30531665239E+01  0.30531665239E+01  0.00000000000E+00 0. -1.
         24    2    1    2    0    0  0.19753543123E+02  0.53137693398E+01  0.88363475339E+03  0.88709371770E+03  0.75541034958E+02 0.  0.
        -13    1    3    3    0    0  0.28761728356E+02  0.34581787971E+02  0.40741165651E+03  0.40988705144E+03  0.00000000000E+00 0.  1.
         14    1    3    3    0    0 -0.90081852325E+01 -0.29268018631E+02  0.47622309688E+03  0.47720666625E+03  0.00000000000E+00 0. -1.
          1    1    1    2  501    0 -0.19753543123E+02 -0.53137693398E+01  0.77705467015E+02  0.80352835759E+02  0.00000000000E+00 0. -1.
<mgrwt>
<rscale>  1 0.78261655E+02</rscale>
<asrwt>0</asrwt>
<pdfrwt beam="1">  1       21 0.46971870E-03 0.78261655E+02</pdfrwt>
<pdfrwt beam="2">  1        2 0.14836797E+00 0.78261655E+02</pdfrwt>
<totfact> 0.39525725E+06</totfact>
</mgrwt>
</event>
<event>
 6    2  0.7993170E+000  0.8453491E+02  0.7546771E-02  0.1316653E+00
          4   -1    0    0  502    0 -0.00000000000E+00  0.00000000000E+00  0.40314959507E+02  0.40314959507E+02  0.00000000000E+00 0. -1.
         21   -1    0    0  501  502  0.00000000000E+00 -0.00000000000E+00 -0.10821495638E+03  0.10821495638E+03  0.00000000000E+00 0.  1.
         24    2    1    2    0    0  0.11741714446E+02 -0.17323241081E+02 -0.78040736642E+01  0.84894371371E+02  0.81903529747E+02 0.  0.
        -13    1    3    3    0    0  0.44144252561E+01 -0.50198435304E+01 -0.44762389173E+02  0.45258783279E+02  0.00000000000E+00 0.  1.
         14    1    3    3    0    0  0.73272891899E+01 -0.12303397550E+02  0.36958315509E+02  0.39635588092E+02  0.00000000000E+00 0. -1.
          3    1    1    2  501    0 -0.11741714446E+02  0.17323241081E+02 -0.60095923206E+02  0.63635544515E+02  0.00000000000E+00 0. -1.
<mgrwt>
<rscale>  1 0.84534908E+02</rscale>
<asrwt>0</asrwt>
<pdfrwt beam="1">  1       21 0.16648455E-01 0.84534908E+02</pdfrwt>
<pdfrwt beam="2">  1        4 0.62023015E-02 0.84534908E+02</pdfrwt>
<totfact> 0.20237158E+05</totfact>
</mgrwt>
</event>
<event>
 6    2  0.7993170E+000  0.9016612E+02  0.7546771E-02  0.1302450E+00
          2   -1    0    0  502    0 -0.00000000000E+00  0.00000000000E+00  0.14228669961E+03  0.14228669961E+03  0.00000000000E+00 0. -1.
         21   -1    0    0  501  502  0.00000000000E+00 -0.00000000000E+00 -0.24996514647E+02  0.24996514647E+02  0.00000000000E+00 0. -1.
         24    2    1    2    0    0  0.24349651419E+01 -0.23070886591E+02  0.68421722582E+02  0.11318772943E+03  0.87130563574E+02 0.  0.
        -11    1    3    3    0    0 -0.11868627306E+02  0.30377763056E+02  0.37890156115E+02  0.49993366888E+02  0.00000000000E+00 0.  1.
         12    1    3    3    0    0  0.14303592448E+02 -0.53448649646E+02  0.30531566466E+02  0.63194362539E+02  0.00000000000E+00 0. -1.
          1    1    1    2  501    0 -0.24349651419E+01  0.23070886591E+02  0.48868462383E+02  0.54095484830E+02  0.00000000000E+00 0. -1.
<mgrwt>
<rscale>  1 0.90166124E+02</rscale>
<asrwt>0</asrwt>
<pdfrwt beam="1">  1       21 0.38456177E-02 0.90166124E+02</pdfrwt>
<pdfrwt beam="2">  1        2 0.21890261E-01 0.90166124E+02</pdfrwt>
<totfact> 0.11918098E+06</totfact>
</mgrwt>
</event>
<event>
 6    2  0.7993170E+000  0.8323543E+02  0.7546771E-02  0.1320113E+00
          4   -1    0    0  502    0 -0.00000000000E+00  0.00000000000E+00  0.61356229273E+02  0.61356229273E+02  0.00000000000E+00 0. -1.
         21   -1    0    0  501  502  0.00000000000E+00 -0.00000000000E+00 -0.16589219397E+03  0.16589219397E+03  0.00000000000E+00 0. -1.
         24    2    1    2    0    0  0.87696648273E+01  0.25700345784E+02  0.31148877744E+02  0.88872878933E+02  0.78681136433E+02 0.  0.
        -11    1    3    3    0    0 -0.23327532080E+02  0.39139016492E+00 -0.14600883041E+02  0.27522949057E+02  0.00000000000E+00 0.  1.
         12    1    3    3    0    0  0.32097196907E+02  0.25308955619E+02  0.45749760785E+02  0.61349929876E+02  0.00000000000E+00 0. -1.
          3    1    1    2  501    0 -0.87696648273E+01 -0.25700345784E+02 -0.13568484244E+03  0.13837554431E+03  0.00000000000E+00 0. -1.
<mgrwt>
<rscale>  1 0.83235425E+02</rscale>
<asrwt>0</asrwt>
<pdfrwt beam="1">  1       21 0.25521876E-01 0.83235425E+02</pdfrwt>
<pdfrwt beam="2">  1        4 0.94394200E-02 0.83235425E+02</pdfrwt>
<totfact> 0.46446085E+04</totfact>
</mgrwt>
</event>
<event>
 6    2  0.7993170E+000  0.8263545E+02  0.7546771E-02  0.1321735E+00
         21   -1    0    0  501  502  0.00000000000E+00  0.00000000000E+00  0.90330965458E+01  0.90330965458E+01  0.00000000000E+00 0. -1.
          2   -1    0    0  502    0 -0.00000000000E+00 -0.00000000000E+00 -0.42685036078E+03  0.42685036078E+03  0.00000000000E+00 0. -1.
         24    2    1    2    0    0  0.19624729203E+01 -0.25111555498E+02 -0.38868432229E+03  0.39737151339E+03  0.78703085954E+02 0.  0.
        -11    1    3    3    0    0  0.46350345676E+01  0.14442838352E+02 -0.14146392172E+02  0.20741252050E+02  0.00000000000E+00 0.  1.
         12    1    3    3    0    0 -0.26725616472E+01 -0.39554393850E+02 -0.37453793012E+03  0.37663026134E+03  0.00000000000E+00 0. -1.
          1    1    1    2  501    0 -0.19624729203E+01  0.25111555498E+02 -0.29132941940E+02  0.38511943934E+02  0.00000000000E+00 0. -1.
<mgrwt>
<rscale>  1 0.82635448E+02</rscale>
<asrwt>0</asrwt>
<pdfrwt beam="1">  1       21 0.13897072E-02 0.82635448E+02</pdfrwt>
<pdfrwt beam="2">  1        2 0.65669285E-01 0.82635448E+02</pdfrwt>
<totfact> 0.18913170E+06</totfact>
</mgrwt>
</event>
<event>
 6    2  0.7993170E+000  0.8911216E+02  0.7546771E-02  0.1305016E+00
         21   -1    0    0  501  502  0.00000000000E+00  0.00000000000E+00  0.29267239414E+02  0.29267239414E+02  0.00000000000E+00 0. -1.
         -1   -1    0    0    0  501 -0.00000000000E+00 -0.00000000000E+00 -0.13916726415E+03  0.13916726415E+03  0.00000000000E+00 0.  1.
         24    2    1    2    0    0 -0.14987584622E+02  0.34103746588E+02 -0.87910252327E+02  0.12517663359E+03  0.80952355789E+02 0.  0.
        -11    1    3    3    0    0  0.66078725358E+01  0.24422228057E+02 -0.96681564522E+02  0.99937150856E+02  0.00000000000E+00 0.  1.
         12    1    3    3    0    0 -0.21595457158E+02  0.96815185307E+01  0.87713121947E+01  0.25239482731E+02  0.00000000000E+00 0. -1.
         -2    1    1    2    0  502  0.14987584622E+02 -0.34103746588E+02 -0.21989772404E+02  0.43257869972E+02  0.00000000000E+00 0.  1.
<mgrwt>
<rscale>  1 0.89112160E+02</rscale>
<asrwt>0</asrwt>
<pdfrwt beam="1">  1       21 0.45026522E-02 0.89112160E+02</pdfrwt>
<pdfrwt beam="2">  1       -1 0.21410349E-01 0.89112160E+02</pdfrwt>
<totfact> 0.48994241E+05</totfact>
</mgrwt>
</event>
<event>
 6    2  0.7993170E+000  0.8162257E+02  0.7546771E-02  0.1324509E+00
          2   -1    0    0  502    0 -0.00000000000E+00  0.00000000000E+00  0.43898648980E+03  0.43898648980E+03  0.00000000000E+00 0. -1.
         21   -1    0    0  501  502  0.00000000000E+00 -0.00000000000E+00 -0.14236497114E+02  0.14236497114E+02  0.00000000000E+00 0. -1.
         24    2    1    2    0    0  0.23841764412E+02 -0.18501852211E+02  0.41275481032E+03  0.42074787852E+03  0.75838615289E+02 0.  0.
        -13    1    3    3    0    0 -0.10481191726E+02 -0.32004282078E+02  0.93698347073E+02  0.99566609340E+02  0.00000000000E+00 0.  1.
         14    1    3    3    0    0  0.34322956138E+02  0.13502429867E+02  0.31905646325E+03  0.32118126918E+03  0.00000000000E+00 0. -1.
          1    1    1    2  501    0 -0.23841764412E+02  0.18501852211E+02  0.11995182367E+02  0.32475108398E+02  0.00000000000E+00 0. -1.
<mgrwt>
<rscale>  1 0.81622569E+02</rscale>
<asrwt>0</asrwt>
<pdfrwt beam="1">  1       21 0.21902307E-02 0.81622569E+02</pdfrwt>
<pdfrwt beam="2">  1        2 0.67536373E-01 0.81622569E+02</pdfrwt>
<totfact> 0.89032362E+05</totfact>
</mgrwt>
</event>
<event>
 6    2  0.7993170E+000  0.9090691E+02  0.7546771E-02  0.1300670E+00
          2   -1    0    0  502    0 -0.00000000000E+00  0.00000000000E+00  0.51432855513E+02  0.51432855513E+02  0.00000000000E+00 0. -1.
         21   -1    0    0  501  502  0.00000000000E+00 -0.00000000000E+00 -0.97220848054E+02  0.97220848054E+02  0.00000000000E+00 0. -1.
         24    2    1    2    0    0 -0.34270484146E+02 -0.26972785865E+02 -0.85523034705E+01  0.91308313155E+02  0.79762578291E+02 0.  0.
        -11    1    3    3    0    0 -0.51830273506E+01  0.27260410572E+02 -0.10673032615E+02  0.29730579918E+02  0.00000000000E+00 0.  1.
         12    1    3    3    0    0 -0.29087456796E+02 -0.54233196436E+02  0.21207291448E+01  0.61577733237E+02  0.00000000000E+00 0. -1.
          1    1    1    2  501    0  0.34270484146E+02  0.26972785865E+02 -0.37235689071E+02  0.57345390412E+02  0.00000000000E+00 0. -1.
<mgrwt>
<rscale>  1 0.90906909E+02</rscale>
<asrwt>0</asrwt>
<pdfrwt beam="1">  1       21 0.14957053E-01 0.90906909E+02</pdfrwt>
<pdfrwt beam="2">  1        2 0.79127470E-02 0.90906909E+02</pdfrwt>
<totfact> 0.38789131E+05</totfact>
</mgrwt>
</event>
<event>
 6    2  0.7993170E+000  0.7961221E+02  0.7546771E-02  0.1330156E+00
         21   -1    0    0  501  502  0.00000000000E+00  0.00000000000E+00  0.68868821248E+01  0.68868821248E+01  0.00000000000E+00 0. -1.
          2   -1    0    0  502    0 -0.00000000000E+00 -0.00000000000E+00 -0.38546698185E+03  0.38546698185E+03  0.00000000000E+00 0. -1.
         24    2    1    2    0    0  0.14375703340E+01 -0.20000474623E+02 -0.33578747260E+03  0.34509611826E+03  0.77045561135E+02 0.  0.
        -11    1    3    3    0    0  0.24458787076E+02  0.52021352349E+01 -0.26834453021E+03  0.26950710820E+03  0.00000000000E+00 0.  1.
         12    1    3    3    0    0 -0.23021216742E+02 -0.25202609858E+02 -0.67442942384E+02  0.75589010056E+02  0.00000000000E+00 0. -1.
          1    1    1    2  501    0 -0.14375703340E+01  0.20000474623E+02 -0.42792627128E+02  0.47257745715E+02  0.00000000000E+00 0. -1.
<mgrwt>
<rscale>  1 0.79612211E+02</rscale>
<asrwt>0</asrwt>
<pdfrwt beam="1">  1       21 0.10595202E-02 0.79612211E+02</pdfrwt>
<pdfrwt beam="2">  1        2 0.59302621E-01 0.79612211E+02</pdfrwt>
<totfact> 0.32060080E+06</totfact>
</mgrwt>
</event>
<event>
 6    2  0.7993170E+000  0.9632466E+02  0.7546771E-02  0.1288220E+00
         21   -1    0    0  501  502  0.00000000000E+00  0.00000000000E+00  0.77115782878E+01  0.77115782878E+01  0.00000000000E+00 0. -1.
         -1   -1    0    0    0  501 -0.00000000000E+00 -0.00000000000E+00 -0.70159730774E+03  0.70159730774E+03  0.00000000000E+00 0.  1.
         24    2    1    2    0    0  0.20232540459E+02 -0.40678209139E+02 -0.55155629864E+03  0.55990427007E+03  0.84937439850E+02 0.  0.
        -11    1    3    3    0    0 -0.20167236556E+02 -0.42099361373E+02 -0.41123948682E+03  0.41388040444E+03  0.00000000000E+00 0.  1.
         12    1    3    3    0    0  0.40399777014E+02  0.14211522340E+01 -0.14031681182E+03  0.14602386563E+03  0.00000000000E+00 0. -1.
         -2    1    1    2    0  502 -0.20232540459E+02  0.40678209139E+02 -0.14232943081E+03  0.14940461595E+03  0.00000000000E+00 0.  1.
<mgrwt>
<rscale>  1 0.96324665E+02</rscale>
<asrwt>0</asrwt>
<pdfrwt beam="1">  1       21 0.11863971E-02 0.96324665E+02</pdfrwt>
<pdfrwt beam="2">  1       -1 0.10793801E+00 0.96324665E+02</pdfrwt>
<totfact> 0.21776298E+05</totfact>
</mgrwt>
</event>
<event>
 6    2  0.7993170E+000  0.9227443E+02  0.7546771E-02  0.1297435E+00
         21   -1    0    0  501  502  0.00000000000E+00  0.00000000000E+00  0.48362754936E+02  0.48362754936E+02  0.00000000000E+00 0.  1.
         -1   -1    0    0    0  501 -0.00000000000E+00 -0.00000000000E+00 -0.17337745844E+03  0.17337745844E+03  0.00000000000E+00 0.  1.
         24    2    1    2    0    0  0.16870141275E+02 -0.38275247288E+02 -0.14770128428E+03  0.17415579188E+03  0.82249463499E+02 0.  0.
        -11    1    3    3    0    0  0.10266846791E+02 -0.64416235359E+02 -0.10108873626E+03  0.12030707427E+03  0.00000000000E+00 0.  1.
         12    1    3    3    0    0  0.66032944839E+01  0.26140988071E+02 -0.46612548018E+02  0.53848717609E+02  0.00000000000E+00 0. -1.
         -2    1    1    2    0  502 -0.16870141275E+02  0.38275247288E+02  0.22686580778E+02  0.47584421495E+02  0.00000000000E+00 0.  1.
<mgrwt>
<rscale>  1 0.92274430E+02</rscale>
<asrwt>0</asrwt>
<pdfrwt beam="1">  1       21 0.74404237E-02 0.92274430E+02</pdfrwt>
<pdfrwt beam="2">  1       -1 0.26673456E-01 0.92274430E+02</pdfrwt>
<totfact> 0.14831964E+05</totfact>
</mgrwt>
</event>
<event>
 6    2  0.7993170E+000  0.9386232E+02  0.7546771E-02  0.1293759E+00
         21   -1    0    0  501  502  0.00000000000E+00  0.00000000000E+00  0.46911685846E+02  0.46911685846E+02  0.00000000000E+00 0. -1.
          2   -1    0    0  502    0 -0.00000000000E+00 -0.00000000000E+00 -0.14359350319E+03  0.14359350319E+03  0.00000000000E+00 0. -1.
         24    2    1    2    0    0  0.13887787986E+02  0.42672480875E+02 -0.11945285758E+02  0.94619365973E+02  0.82439816146E+02 0.  0.
        -13    1    3    3    0    0 -0.21051746734E+01 -0.22185992913E+02  0.98319530852E+01  0.24358106318E+02  0.00000000000E+00 0.  1.
         14    1    3    3    0    0  0.15992962659E+02  0.64858473788E+02 -0.21777238844E+02  0.70261259655E+02  0.00000000000E+00 0. -1.
          1    1    1    2  501    0 -0.13887787986E+02 -0.42672480875E+02 -0.84736531589E+02  0.95885823065E+02  0.00000000000E+00 0. -1.
<mgrwt>
<rscale>  1 0.93862317E+02</rscale>
<asrwt>0</asrwt>
<pdfrwt beam="1">  1       21 0.72171825E-02 0.93862317E+02</pdfrwt>
<pdfrwt beam="2">  1        2 0.22091308E-01 0.93862317E+02</pdfrwt>
<totfact> 0.41389782E+05</totfact>
</mgrwt>
</event>
<event>
 6    2  0.7993170E+000  0.8213877E+02  0.7546771E-02  0.1323089E+00
         -3   -1    0    0    0  501 -0.00000000000E+00  0.00000000000E+00  0.97311568508E+02  0.97311568508E+02  0.00000000000E+00 0.  1.
         21   -1    0    0  501  502  0.00000000000E+00 -0.00000000000E+00 -0.58568586756E+02  0.58568586756E+02  0.00000000000E+00 0. -1.
         24    2    1    2    0    0 -0.98717558803E+01 -0.21802164879E+02 -0.26562820762E+02  0.86327054689E+02  0.78574747641E+02 0.  0.
        -11    1    3    3    0    0 -0.28055601109E+02 -0.24481480716E+02  0.15570132613E+02  0.40359493075E+02  0.00000000000E+00 0.  1.
         12    1    3    3    0    0  0.18183845229E+02  0.26793158374E+01 -0.42132953375E+02  0.45967561615E+02  0.00000000000E+00 0. -1.
         -4    1    1    2    0  502  0.98717558803E+01  0.21802164879E+02  0.65305802515E+02  0.69553100575E+02  0.00000000000E+00 0.  1.
<mgrwt>
<rscale>  1 0.82138766E+02</rscale>
<asrwt>0</asrwt>
<pdfrwt beam="1">  1       21 0.90105518E-02 0.82138766E+02</pdfrwt>
<pdfrwt beam="2">  1       -3 0.14971010E-01 0.82138766E+02</pdfrwt>
<totfact> 0.16044390E+05</totfact>
</mgrwt>
</event>
<event>
 6    2  0.7993170E+000  0.8245035E+02  0.7546771E-02  0.1322238E+00
         -3   -1    0    0    0  501 -0.00000000000E+00  0.00000000000E+00  0.61604857835E+02  0.61604857835E+02  0.00000000000E+00 0.  1.
         21   -1    0    0  501  502  0.00000000000E+00 -0.00000000000E+00 -0.46054353961E+02  0.46054353961E+02  0.00000000000E+00 0.  1.
         24    2    1    2    0    0 -0.23614655102E+02 -0.38985998432E+01  0.96895850214E+01  0.83017755140E+02  0.78899991092E+02 0.  0.
        -13    1    3    3    0    0 -0.50712208675E+02 -0.71971488085E+01  0.18304795486E+02  0.54392946210E+02  0.00000000000E+00 0.  1.
         14    1    3    3    0    0  0.27097553573E+02  0.32985489653E+01 -0.86152104647E+01  0.28624808930E+02  0.00000000000E+00 0. -1.
         -4    1    1    2    0  502  0.23614655102E+02  0.38985998432E+01  0.58609188529E+01  0.24641456656E+02  0.00000000000E+00 0.  1.
<mgrwt>
<rscale>  1 0.82450346E+02</rscale>
<asrwt>0</asrwt>
<pdfrwt beam="1">  1       21 0.70852852E-02 0.82450346E+02</pdfrwt>
<pdfrwt beam="2">  1       -3 0.94776704E-02 0.82450346E+02</pdfrwt>
<totfact> 0.51565370E+05</totfact>
</mgrwt>
</event>
<event>
 6    2  0.7993170E+000  0.8604109E+02  0.7546771E-02  0.1312732E+00
          2   -1    0    0  502    0 -0.00000000000E+00  0.00000000000E+00  0.13510515410E+04  0.13510515410E+04  0.00000000000E+00 0. -1.
         21   -1    0    0  501  502  0.00000000000E+00 -0.00000000000E+00 -0.15135946950E+02  0.15135946950E+02  0.00000000000E+00 0. -1.
         24    2    1    2    0    0  0.20168135198E+02 -0.17568195488E+02  0.13366637824E+04  0.13394301533E+04  0.81778196157E+02 0.  0.
        -13    1    3    3    0    0 -0.27261343881E+02 -0.13418633983E+02  0.26999609667E+03  0.27170044686E+03  0.00000000000E+00 0.  1.
         14    1    3    3    0    0  0.47429479079E+02 -0.41495615052E+01  0.10666676857E+04  0.10677297065E+04  0.00000000000E+00 0. -1.
          1    1    1    2  501    0 -0.20168135198E+02  0.17568195488E+02 -0.74818832812E+00  0.26757334618E+02  0.00000000000E+00 0. -1.
<mgrwt>
<rscale>  1 0.86041086E+02</rscale>
<asrwt>0</asrwt>
<pdfrwt beam="1">  1       21 0.23286083E-02 0.86041086E+02</pdfrwt>
<pdfrwt beam="2">  1        2 0.20785399E+00 0.86041086E+02</pdfrwt>
<totfact> 0.19972352E+05</totfact>
</mgrwt>
</event>
<event>
 6    2  0.7993170E+000  0.8479728E+02  0.7546771E-02  0.1315964E+00
          2   -1    0    0  502    0 -0.00000000000E+00  0.00000000000E+00  0.11640481863E+04  0.11640481863E+04  0.00000000000E+00 0. -1.
         21   -1    0    0  501  502  0.00000000000E+00 -0.00000000000E+00 -0.33668655935E+01  0.33668655935E+01  0.00000000000E+00 0.  1.
         24    2    1    2    0    0 -0.10303669990E+02  0.27356279336E+02  0.59886198863E+03  0.60483572990E+03  0.79599290884E+02 0.  0.
        -11    1    3    3    0    0 -0.12207649059E+02  0.46303171464E+02  0.20518976490E+03  0.21070322732E+03  0.00000000000E+00 0.  1.
         12    1    3    3    0    0  0.19039790699E+01 -0.18946892128E+02  0.39367222373E+03  0.39413250258E+03  0.00000000000E+00 0. -1.
          1    1    1    2  501    0  0.10303669990E+02 -0.27356279336E+02  0.56181933210E+03  0.56257932201E+03  0.00000000000E+00 0. -1.
<mgrwt>
<rscale>  1 0.84797280E+02</rscale>
<asrwt>0</asrwt>
<pdfrwt beam="1">  1       21 0.51798025E-03 0.84797280E+02</pdfrwt>
<pdfrwt beam="2">  1        2 0.17908402E+00 0.84797280E+02</pdfrwt>
<totfact> 0.26449381E+06</totfact>
</mgrwt>
</event>
<event>
 6    2  0.7993170E+000  0.7693876E+02  0.7546771E-02  0.1337970E+00
         21   -1    0    0  501  502  0.00000000000E+00  0.00000000000E+00  0.39768724080E+02  0.39768724080E+02  0.00000000000E+00 0. -1.
         -1   -1    0    0    0  501 -0.00000000000E+00 -0.00000000000E+00 -0.78295608015E+02  0.78295608015E+02  0.00000000000E+00 0.  1.
         24    2    1    2    0    0  0.18705535386E+02  0.82846178660E+01 -0.52628906562E+02  0.93216817341E+02  0.74169004860E+02 0.  0.
        -13    1    3    3    0    0  0.66794758220E+01  0.34943270098E+02 -0.31165607850E+01  0.35712189425E+02  0.00000000000E+00 0.  1.
         14    1    3    3    0    0  0.12026059564E+02 -0.26658652232E+02 -0.49512345777E+02  0.57504627916E+02  0.00000000000E+00 0. -1.
         -2    1    1    2    0  502 -0.18705535386E+02 -0.82846178660E+01  0.14102022627E+02  0.24847514754E+02  0.00000000000E+00 0.  1.
<mgrwt>
<rscale>  1 0.76938763E+02</rscale>
<asrwt>0</asrwt>
<pdfrwt beam="1">  1       21 0.61182653E-02 0.76938763E+02</pdfrwt>
<pdfrwt beam="2">  1       -1 0.12045478E-01 0.76938763E+02</pdfrwt>
<totfact> 0.70749254E+05</totfact>
</mgrwt>
</event>
<event>
 6    2  0.7993170E+000  0.8106073E+02  0.7546771E-02  0.1326068E+00
         -3   -1    0    0    0  501 -0.00000000000E+00  0.00000000000E+00  0.55429416793E+01  0.55429416793E+01  0.00000000000E+00 0.  1.
         21   -1    0    0  501  502  0.00000000000E+00 -0.00000000000E+00 -0.66063314120E+03  0.66063314120E+03  0.00000000000E+00 0.  1.
         24    2    1    2    0    0 -0.34610838166E+00  0.20260587808E+02 -0.30779162639E+03  0.31828686185E+03  0.78487132332E+02 0.  0.
        -11    1    3    3    0    0  0.12051398992E+02  0.31054225434E+02 -0.50659819790E+02  0.60630177933E+02  0.00000000000E+00 0.  1.
         12    1    3    3    0    0 -0.12397507374E+02 -0.10793637626E+02 -0.25713180660E+03  0.25765668392E+03  0.00000000000E+00 0. -1.
         -4    1    1    2    0  502  0.34610838166E+00 -0.20260587808E+02 -0.34729857312E+03  0.34788922102E+03  0.00000000000E+00 0.  1.
<mgrwt>
<rscale>  1 0.81060725E+02</rscale>
<asrwt>0</asrwt>
<pdfrwt beam="1">  1       21 0.10163587E+00 0.81060725E+02</pdfrwt>
<pdfrwt beam="2">  1       -3 0.85276025E-03 0.81060725E+02</pdfrwt>
<totfact> 0.12414793E+05</totfact>
</mgrwt>
</event>
<event>
 6    2  0.7993170E+000  0.9054914E+02  0.7546771E-02  0.1301527E+00
         21   -1    0    0  501  502  0.00000000000E+00  0.00000000000E+00  0.33231243619E+02  0.33231243619E+02  0.00000000000E+00 0.  1.
         -1   -1    0    0    0  501 -0.00000000000E+00 -0.00000000000E+00 -0.11173475650E+03  0.11173475650E+03  0.00000000000E+00 0.  1.
         24    2    1    2    0    0 -0.23235300400E+02  0.16347434425E+02 -0.72334692048E+02  0.11589415553E+03  0.85976914438E+02 0.  0.
        -11    1    3    3    0    0 -0.44039314679E+02  0.24609434373E+02 -0.77917795415E+02  0.92823856523E+02  0.00000000000E+00 0.  1.
         12    1    3    3    0    0  0.20804014279E+02 -0.82619999479E+01  0.55831033665E+01  0.23070299011E+02  0.00000000000E+00 0. -1.
         -2    1    1    2    0  502  0.23235300400E+02 -0.16347434425E+02 -0.61688208296E+01  0.29071844582E+02  0.00000000000E+00 0.  1.
<mgrwt>
<rscale>  1 0.90549145E+02</rscale>
<asrwt>0</asrwt>
<pdfrwt beam="1">  1       21 0.51124990E-02 0.90549145E+02</pdfrwt>
<pdfrwt beam="2">  1       -1 0.17189963E-01 0.90549145E+02</pdfrwt>
<totfact> 0.56254071E+05</totfact>
</mgrwt>
</event>
<event>
 6    2  0.7993170E+000  0.9184164E+02  0.7546771E-02  0.1298452E+00
          2   -1    0    0  502    0 -0.00000000000E+00  0.00000000000E+00  0.12911660805E+04  0.12911660805E+04  0.00000000000E+00 0. -1.
         21   -1    0    0  501  502  0.00000000000E+00 -0.00000000000E+00 -0.62976145548E+01  0.62976145548E+01  0.00000000000E+00 0. -1.
         24    2    1    2    0    0 -0.74795001676E+01 -0.35219948285E+02  0.12185117389E+04  0.12219679806E+04  0.84489644518E+02 0.  0.
        -11    1    3    3    0    0  0.24326406079E+02  0.16581817710E+02  0.51217585729E+03  0.51302128562E+03  0.00000000000E+00 0.  1.
         12    1    3    3    0    0 -0.31805906247E+02 -0.51801765994E+02  0.70633588162E+03  0.70894669496E+03  0.00000000000E+00 0. -1.
          1    1    1    2  501    0  0.74795001676E+01  0.35219948285E+02  0.66356726996E+02  0.75495714432E+02  0.00000000000E+00 0. -1.
<mgrwt>
<rscale>  1 0.91841645E+02</rscale>
<asrwt>0</asrwt>
<pdfrwt beam="1">  1       21 0.96886480E-03 0.91841645E+02</pdfrwt>
<pdfrwt beam="2">  1        2 0.19864073E+00 0.91841645E+02</pdfrwt>
<totfact> 0.86361118E+05</totfact>
</mgrwt>
</event>
<event>
 6    2  0.7993170E+000  0.8531151E+02  0.7546771E-02  0.1314620E+00
         -3   -1    0    0    0  501 -0.00000000000E+00  0.00000000000E+00  0.37119975880E+03  0.37119975880E+03  0.00000000000E+00 0.  1.
         21   -1    0    0  501  502  0.00000000000E+00 -0.00000000000E+00 -0.15122872070E+02  0.15122872070E+02  0.00000000000E+00 0.  1.
         24    2    1    2    0    0 -0.10653408300E+02  0.29884614081E+02  0.34041218864E+03  0.35093947056E+03  0.79192604165E+02 0.  0.
        -13    1    3    3    0    0 -0.31405925511E+01  0.55001752251E+02  0.27509807370E+03  0.28056016508E+03  0.00000000000E+00 0.  1.
         14    1    3    3    0    0 -0.75128157485E+01 -0.25117138170E+02  0.65314114939E+02  0.70379305485E+02  0.00000000000E+00 0. -1.
         -4    1    1    2    0  502  0.10653408300E+02 -0.29884614081E+02  0.15664698088E+02  0.35383160308E+02  0.00000000000E+00 0.  1.
<mgrwt>
<rscale>  1 0.85311510E+02</rscale>
<asrwt>0</asrwt>
<pdfrwt beam="1">  1       21 0.23265960E-02 0.85311510E+02</pdfrwt>
<pdfrwt beam="2">  1       -3 0.57107648E-01 0.85311510E+02</pdfrwt>
<totfact> 0.13059119E+05</totfact>
</mgrwt>
</event>
<event>
 6    2  0.7993170E+000  0.8212211E+02  0.7546771E-02  0.1323135E+00
         21   -1    0    0  501  502  0.00000000000E+00  0.00000000000E+00  0.70115433094E+01  0.70115433094E+01  0.00000000000E+00 0. -1.
         -1   -1    0    0    0  501 -0.00000000000E+00 -0.00000000000E+00 -0.42479128482E+03  0.42479128482E+03  0.00000000000E+00 0.  1.
         24    2    1    2    0    0 -0.22816780341E+02  0.26050000839E+01 -0.26884500422E+03  0.28110794612E+03  0.78845732858E+02 0.  0.
        -13    1    3    3    0    0 -0.30297401513E+01 -0.35654871084E+02 -0.16204717910E+03  0.16595100907E+03  0.00000000000E+00 0.  1.
         14    1    3    3    0    0 -0.19787040190E+02  0.38259871168E+02 -0.10679782512E+03  0.11515693705E+03  0.00000000000E+00 0. -1.
         -2    1    1    2    0  502  0.22816780341E+02 -0.26050000839E+01 -0.14893473729E+03  0.15069488201E+03  0.00000000000E+00 0.  1.
<mgrwt>
<rscale>  1 0.82122111E+02</rscale>
<asrwt>0</asrwt>
<pdfrwt beam="1">  1       21 0.10786989E-02 0.82122111E+02</pdfrwt>
<pdfrwt beam="2">  1       -1 0.65352507E-01 0.82122111E+02</pdfrwt>
<totfact> 0.70047981E+05</totfact>
</mgrwt>
</event>
<event>
 6    2  0.7993170E+000  0.1043132E+03  0.7546771E-02  0.1271479E+00
         21   -1    0    0  501  502  0.00000000000E+00  0.00000000000E+00  0.32048868548E+02  0.32048868548E+02  0.00000000000E+00 0. -1.
         -1   -1    0    0    0  501 -0.00000000000E+00 -0.00000000000E+00 -0.29064930432E+03  0.29064930432E+03  0.00000000000E+00 0.  1.
         24    2    1    2    0    0  0.67029091497E+02 -0.22844968127E+02 -0.82831753169E+02  0.13320035900E+03  0.76592719169E+02 0.  0.
        -13    1    3    3    0    0  0.35776027386E+02 -0.12719391815E+02 -0.91633977683E+02  0.99189177483E+02  0.00000000000E+00 0.  1.
         14    1    3    3    0    0  0.31253064111E+02 -0.10125576311E+02  0.88022245142E+01  0.34011181520E+02  0.00000000000E+00 0. -1.
         -2    1    1    2    0  502 -0.67029091497E+02  0.22844968127E+02 -0.17576868260E+03  0.18949781386E+03  0.00000000000E+00 0.  1.
<mgrwt>
<rscale>  1 0.10431316E+03</rscale>
<asrwt>0</asrwt>
<pdfrwt beam="1">  1       21 0.49305952E-02 0.10431316E+03</pdfrwt>
<pdfrwt beam="2">  1       -1 0.44715278E-01 0.10431316E+03</pdfrwt>
<totfact> 0.12423579E+05</totfact>
</mgrwt>
</event>
<event>
 6    2  0.7993170E+000  0.9583699E+02  0.7546771E-02  0.1289302E+00
         -1   -1    0    0    0  501 -0.00000000000E+00  0.00000000000E+00  0.52690146246E+03  0.52690146246E+03  0.00000000000E+00 0.  1.
         21   -1    0    0  501  502  0.00000000000E+00 -0.00000000000E+00 -0.88020324122E+01  0.88020324122E+01  0.00000000000E+00 0. -1.
         24    2    1    2    0    0  0.98019791365E+01 -0.37869268674E+02  0.39883648793E+03  0.41018931373E+03  0.87490391988E+02 0.  0.
        -13    1    3    3    0    0  0.34251390901E+02 -0.25846080797E+02  0.36112486223E+03  0.36366515339E+03  0.00000000000E+00 0.  1.
         14    1    3    3    0    0 -0.24449411764E+02 -0.12023187877E+02  0.37711625702E+02  0.46524160341E+02  0.00000000000E+00 0. -1.
         -2    1    1    2    0  502 -0.98019791365E+01  0.37869268674E+02  0.11926294211E+03  0.12551418114E+03  0.00000000000E+00 0.  1.
<mgrwt>
<rscale>  1 0.95836992E+02</rscale>
<asrwt>0</asrwt>
<pdfrwt beam="1">  1       21 0.13541592E-02 0.95836992E+02</pdfrwt>
<pdfrwt beam="2">  1       -1 0.81061739E-01 0.95836992E+02</pdfrwt>
<totfact> 0.32547737E+05</totfact>
</mgrwt>
</event>
<event>
 6    2  0.7993170E+000  0.8876016E+02  0.7546771E-02  0.1305882E+00
          2   -1    0    0  502    0 -0.00000000000E+00  0.00000000000E+00  0.11226555532E+04  0.11226555532E+04  0.00000000000E+00 0. -1.
         21   -1    0    0  501  502  0.00000000000E+00 -0.00000000000E+00 -0.34241203047E+01  0.34241203047E+01  0.00000000000E+00 0.  1.
         24    2    1    2    0    0 -0.31798879821E+02 -0.65896182660E+01  0.91335701564E+03  0.91765974282E+03  0.82606136244E+02 0.  0.
        -11    1    3    3    0    0 -0.18047089030E+02  0.35356630791E+02  0.28460346308E+03  0.28735852165E+03  0.00000000000E+00 0.  1.
         12    1    3    3    0    0 -0.13751790791E+02 -0.41946249057E+02  0.62875355256E+03  0.63030122118E+03  0.00000000000E+00 0. -1.
          1    1    1    2  501    0  0.31798879821E+02  0.65896182660E+01  0.20587441725E+03  0.20841993068E+03  0.00000000000E+00 0. -1.
<mgrwt>
<rscale>  1 0.88760158E+02</rscale>
<asrwt>0</asrwt>
<pdfrwt beam="1">  1       21 0.52678864E-03 0.88760158E+02</pdfrwt>
<pdfrwt beam="2">  1        2 0.17271594E+00 0.88760158E+02</pdfrwt>
<totfact> 0.27289771E+06</totfact>
</mgrwt>
</event>
<event>
 6    2  0.7993170E+000  0.1662167E+03  0.7546771E-02  0.1181852E+00
          2   -1    0    0  502    0 -0.00000000000E+00  0.00000000000E+00  0.31180961103E+04  0.31180961103E+04  0.00000000000E+00 0. -1.
         21   -1    0    0  501  502  0.00000000000E+00 -0.00000000000E+00 -0.42739065721E+02  0.42739065721E+02  0.00000000000E+00 0. -1.
         24    2    1    2    0    0 -0.12230443592E+03  0.79800592119E+02  0.29838973751E+04  0.29885233056E+04  0.79381945856E+02 0.  0.
        -13    1    3    3    0    0 -0.15087546751E+02 -0.18804874419E+01  0.76115124863E+02  0.77618828469E+02  0.00000000000E+00 0.  1.
         14    1    3    3    0    0 -0.10721688916E+03  0.81681079561E+02  0.29077822503E+04  0.29109044772E+04  0.00000000000E+00 0. -1.
          1    1    1    2  501    0  0.12230443592E+03 -0.79800592119E+02  0.91459669443E+02  0.17231187040E+03  0.00000000000E+00 0. -1.
<mgrwt>
<rscale>  1 0.16621673E+03</rscale>
<asrwt>0</asrwt>
<pdfrwt beam="1">  1       21 0.65752433E-02 0.16621673E+03</pdfrwt>
<pdfrwt beam="2">  1        2 0.47970692E+00 0.16621673E+03</pdfrwt>
<totfact> 0.40114520E+03</totfact>
</mgrwt>
</event>
<event>
 6    2  0.7993170E+000  0.8109451E+02  0.7546771E-02  0.1325974E+00
         21   -1    0    0  501  502  0.00000000000E+00  0.00000000000E+00  0.17997162433E+01  0.17997162433E+01  0.00000000000E+00 0. -1.
         -1   -1    0    0    0  501 -0.00000000000E+00 -0.00000000000E+00 -0.15392337772E+04  0.15392337772E+04  0.00000000000E+00 0.  1.
         24    2    1    2    0    0  0.21903996444E+02  0.82335181435E+01 -0.11091359146E+04  0.11120965773E+04  0.77644988540E+02 0.  0.
        -13    1    3    3    0    0  0.47177559788E+02  0.15975780189E+02 -0.88628092534E+03  0.88767946147E+03  0.00000000000E+00 0.  1.
         14    1    3    3    0    0 -0.25273563345E+02 -0.77422620457E+01 -0.22285498928E+03  0.22441711582E+03  0.00000000000E+00 0. -1.
         -2    1    1    2    0  502 -0.21903996444E+02 -0.82335181435E+01 -0.42829814635E+03  0.42893691617E+03  0.00000000000E+00 0.  1.
<mgrwt>
<rscale>  1 0.81094514E+02</rscale>
<asrwt>0</asrwt>
<pdfrwt beam="1">  1       21 0.27687987E-03 0.81094514E+02</pdfrwt>
<pdfrwt beam="2">  1       -1 0.23680482E+00 0.81094514E+02</pdfrwt>
<totfact> 0.24258407E+05</totfact>
</mgrwt>
</event>
<event>
 6    2  0.7993170E+000  0.9354168E+02  0.7546771E-02  0.1294495E+00
         21   -1    0    0  501  502  0.00000000000E+00  0.00000000000E+00  0.10338305170E+03  0.10338305170E+03  0.00000000000E+00 0.  1.
         -1   -1    0    0    0  501 -0.00000000000E+00 -0.00000000000E+00 -0.49091325280E+02  0.49091325280E+02  0.00000000000E+00 0.  1.
         24    2    1    2    0    0 -0.29250574338E+02 -0.36399021976E+02  0.23203534178E+02  0.96376599868E+02  0.81052822923E+02 0.  0.
        -11    1    3    3    0    0 -0.18165522440E+02 -0.26287849247E+02 -0.28329630167E+02  0.42703690343E+02  0.00000000000E+00 0.  1.
         12    1    3    3    0    0 -0.11085051898E+02 -0.10111172729E+02  0.51533164344E+02  0.53672909525E+02  0.00000000000E+00 0. -1.
         -2    1    1    2    0  502  0.29250574338E+02  0.36399021976E+02  0.31088192242E+02  0.56097777111E+02  0.00000000000E+00 0.  1.
<mgrwt>
<rscale>  1 0.93541675E+02</rscale>
<asrwt>0</asrwt>
<pdfrwt beam="1">  1       21 0.15905085E-01 0.93541675E+02</pdfrwt>
<pdfrwt beam="2">  1       -1 0.75525116E-02 0.93541675E+02</pdfrwt>
<totfact> 0.27907748E+05</totfact>
</mgrwt>
</event>
<event>
 6    2  0.7993170E+000  0.8766035E+02  0.7546771E-02  0.1308618E+00
          2   -1    0    0  502    0 -0.00000000000E+00  0.00000000000E+00  0.45811398324E+03  0.45811398324E+03  0.00000000000E+00 0. -1.
         21   -1    0    0  501  502  0.00000000000E+00 -0.00000000000E+00 -0.80460791418E+01  0.80460791418E+01  0.00000000000E+00 0.  1.
         24    2    1    2    0    0  0.47175901065E+00  0.33165878388E+02  0.34613145909E+03  0.35705927115E+03  0.81142702067E+02 0.  0.
        -13    1    3    3    0    0  0.12087576845E+02 -0.11099515685E+02  0.13375392533E+02  0.21170968042E+02  0.00000000000E+00 0.  1.
         14    1    3    3    0    0 -0.11615817834E+02  0.44265394073E+02  0.33275606655E+03  0.33588830311E+03  0.00000000000E+00 0. -1.
          1    1    1    2  501    0 -0.47175901065E+00 -0.33165878388E+02  0.10393644501E+03  0.10910079123E+03  0.00000000000E+00 0. -1.
<mgrwt>
<rscale>  1 0.87660345E+02</rscale>
<asrwt>0</asrwt>
<pdfrwt beam="1">  1       21 0.12378587E-02 0.87660345E+02</pdfrwt>
<pdfrwt beam="2">  1        2 0.70479054E-01 0.87660345E+02</pdfrwt>
<totfact> 0.21200507E+06</totfact>
</mgrwt>
</event>
<event>
 6    2  0.7993170E+000  0.9308726E+02  0.7546771E-02  0.1295543E+00
          4   -1    0    0  502    0 -0.00000000000E+00  0.00000000000E+00  0.40455534985E+02  0.40455534985E+02  0.00000000000E+00 0. -1.
         21   -1    0    0  501  502  0.00000000000E+00 -0.00000000000E+00 -0.17571928576E+03  0.17571928576E+03  0.00000000000E+00 0. -1.
         24    2    1    2    0    0 -0.65637294062E+01  0.46152760842E+02 -0.24885670898E+02  0.96356289649E+02  0.80573432729E+02 0.  0.
        -13    1    3    3    0    0 -0.44684217147E+00  0.30902456341E+02 -0.54405863877E+02  0.62571235404E+02  0.00000000000E+00 0.  1.
         14    1    3    3    0    0 -0.61168872348E+01  0.15250304501E+02  0.29520192978E+02  0.33785054244E+02  0.00000000000E+00 0. -1.
          3    1    1    2  501    0  0.65637294062E+01 -0.46152760842E+02 -0.11037807988E+03  0.11981853110E+03  0.00000000000E+00 0. -1.
<mgrwt>
<rscale>  1 0.93087260E+02</rscale>
<asrwt>0</asrwt>
<pdfrwt beam="1">  1       21 0.27033737E-01 0.93087260E+02</pdfrwt>
<pdfrwt beam="2">  1        4 0.62239284E-02 0.93087260E+02</pdfrwt>
<totfact> 0.83777700E+04</totfact>
</mgrwt>
</event>
<event>
 6    2  0.7993170E+000  0.8039226E+02  0.7546771E-02  0.1327942E+00
          2   -1    0    0  502    0 -0.00000000000E+00  0.00000000000E+00  0.20425115474E+04  0.20425115474E+04  0.00000000000E+00 0. -1.
         21   -1    0    0  501  502  0.00000000000E+00 -0.00000000000E+00 -0.13761300900E+01  0.13761300900E+01  0.00000000000E+00 0.  1.
         24    2    1    2    0    0  0.19880458184E+02 -0.16004823781E+02  0.15067353384E+04  0.15088784894E+04  0.76233383686E+02 0.  0.
        -11    1    3    3    0    0  0.12182721016E+02  0.30651290683E+02  0.57868934842E+03  0.57962857270E+03  0.00000000000E+00 0.  1.
         12    1    3    3    0    0  0.76977371681E+01 -0.46656114464E+02  0.92804598994E+03  0.92924991667E+03  0.00000000000E+00 0. -1.
          1    1    1    2  501    0 -0.19880458184E+02  0.16004823781E+02  0.53440007893E+03  0.53500918811E+03  0.00000000000E+00 0. -1.
<mgrwt>
<rscale>  1 0.80392262E+02</rscale>
<asrwt>0</asrwt>
<pdfrwt beam="1">  1       21 0.21171396E-03 0.80392262E+02</pdfrwt>
<pdfrwt beam="2">  1        2 0.31423012E+00 0.80392262E+02</pdfrwt>
<totfact> 0.36343121E+06</totfact>
</mgrwt>
</event>
<event>
 6    2  0.7993170E+000  0.8470082E+02  0.7546771E-02  0.1316217E+00
         21   -1    0    0  501  502  0.00000000000E+00  0.00000000000E+00  0.30363354381E+03  0.30363354381E+03  0.00000000000E+00 0.  1.
         -1   -1    0    0    0  501 -0.00000000000E+00 -0.00000000000E+00 -0.39807889246E+02  0.39807889246E+02  0.00000000000E+00 0.  1.
         24    2    1    2    0    0 -0.33279914653E+01 -0.26101401795E+02  0.66917647122E+01  0.84964749362E+02  0.80510062827E+02 0.  0.
        -13    1    3    3    0    0 -0.40132246818E+02 -0.78511501122E+01 -0.73544416156E+01  0.41549074649E+02  0.00000000000E+00 0.  1.
         14    1    3    3    0    0  0.36804255353E+02 -0.18250251683E+02  0.14046206328E+02  0.43415674713E+02  0.00000000000E+00 0. -1.
         -2    1    1    2    0  502  0.33279914653E+01  0.26101401795E+02  0.25713388985E+03  0.25847668369E+03  0.00000000000E+00 0.  1.
<mgrwt>
<rscale>  1 0.84700820E+02</rscale>
<asrwt>0</asrwt>
<pdfrwt beam="1">  1       21 0.46712851E-01 0.84700820E+02</pdfrwt>
<pdfrwt beam="2">  1       -1 0.61242908E-02 0.84700820E+02</pdfrwt>
<totfact> 0.49117276E+04</totfact>
</mgrwt>
</event>
<event>
 6    2  0.7993170E+000  0.8625457E+02  0.7546771E-02  0.1312184E+00
         21   -1    0    0  501  502  0.00000000000E+00  0.00000000000E+00  0.11255277686E+02  0.11255277686E+02  0.00000000000E+00 0.  1.
          2   -1    0    0  502    0 -0.00000000000E+00 -0.00000000000E+00 -0.26514355876E+03  0.26514355876E+03  0.00000000000E+00 0. -1.
         24    2    1    2    0    0 -0.16265433962E+02  0.14756420417E+02 -0.21631853814E+03  0.23288100252E+03  0.83411840324E+02 0.  0.
        -13    1    3    3    0    0 -0.98581138004E+00  0.11393295454E+02  0.39187836910E+01  0.12088667048E+02  0.00000000000E+00 0.  1.
         14    1    3    3    0    0 -0.15279622582E+02  0.33631249623E+01 -0.22023732183E+03  0.22079233548E+03  0.00000000000E+00 0. -1.
          1    1    1    2  501    0  0.16265433962E+02 -0.14756420417E+02 -0.37569742933E+02  0.43517833925E+02  0.00000000000E+00 0. -1.
<mgrwt>
<rscale>  1 0.86254573E+02</rscale>
<asrwt>0</asrwt>
<pdfrwt beam="1">  1       21 0.17315813E-02 0.86254573E+02</pdfrwt>
<pdfrwt beam="2">  1        2 0.40791314E-01 0.86254573E+02</pdfrwt>
<totfact> 0.22079336E+06</totfact>
</mgrwt>
</event>
<event>
 6    2  0.7993170E+000  0.9244579E+02  0.7546771E-02  0.1297035E+00
         -3   -1    0    0    0  501 -0.00000000000E+00  0.00000000000E+00  0.19847392171E+01  0.19847392171E+01  0.00000000000E+00 0.  1.
         21   -1    0    0  501  502  0.00000000000E+00 -0.00000000000E+00 -0.20647398057E+04  0.20647398057E+04  0.00000000000E+00 0. -1.
         24    2    1    2    0    0  0.28872886938E+02  0.16428807916E+02 -0.13243839140E+04  0.13276064839E+04  0.86270939797E+02 0.  0.
        -13    1    3    3    0    0 -0.15279540070E+01 -0.11876503500E+02 -0.26748949153E+02  0.29306863695E+02  0.00000000000E+00 0.  1.
         14    1    3    3    0    0  0.30400840945E+02  0.28305311416E+02 -0.12976349649E+04  0.12982996202E+04  0.00000000000E+00 0. -1.
         -4    1    1    2    0  502 -0.28872886938E+02 -0.16428807916E+02 -0.73837115246E+03  0.73911806101E+03  0.00000000000E+00 0.  1.
<mgrwt>
<rscale>  1 0.92445792E+02</rscale>
<asrwt>0</asrwt>
<pdfrwt beam="1">  1       21 0.31765382E+00 0.92445792E+02</pdfrwt>
<pdfrwt beam="2">  1       -3 0.30534301E-03 0.92445792E+02</pdfrwt>
<totfact> 0.21858798E+04</totfact>
</mgrwt>
</event>
<event>
 6    2  0.7993170E+000  0.7944089E+02  0.7546771E-02  0.1330646E+00
         21   -1    0    0  501  502  0.00000000000E+00  0.00000000000E+00  0.21617340139E+01  0.21617340139E+01  0.00000000000E+00 0. -1.
          2   -1    0    0  502    0 -0.00000000000E+00 -0.00000000000E+00 -0.15644007338E+04  0.15644007338E+04  0.00000000000E+00 0. -1.
         24    2    1    2    0    0  0.34123123902E+02  0.80188517243E+01 -0.12019275207E+04  0.12045499660E+04  0.71289310623E+02 0.  0.
        -11    1    3    3    0    0  0.11267544235E+02  0.30803933562E+02 -0.25877294210E+03  0.26084339256E+03  0.00000000000E+00 0.  1.
         12    1    3    3    0    0  0.22855579668E+02 -0.22785081837E+02 -0.94315457864E+03  0.94370657340E+03  0.00000000000E+00 0. -1.
          1    1    1    2  501    0 -0.34123123902E+02 -0.80188517243E+01 -0.36031147908E+03  0.36201250189E+03  0.00000000000E+00 0. -1.
<mgrwt>
<rscale>  1 0.79440892E+02</rscale>
<asrwt>0</asrwt>
<pdfrwt beam="1">  1       21 0.33257593E-03 0.79440892E+02</pdfrwt>
<pdfrwt beam="2">  1        2 0.24067598E+00 0.79440892E+02</pdfrwt>
<totfact> 0.31900002E+06</totfact>
</mgrwt>
</event>
<event>
 6    2  0.7993170E+000  0.7672380E+02  0.7546771E-02  0.1338615E+00
         21   -1    0    0  501  502  0.00000000000E+00  0.00000000000E+00  0.62307931290E+01  0.62307931290E+01  0.00000000000E+00 0. -1.
          2   -1    0    0  502    0 -0.00000000000E+00 -0.00000000000E+00 -0.80780705948E+03  0.80780705948E+03  0.00000000000E+00 0. -1.
         24    2    1    2    0    0 -0.18262620657E+02 -0.10477468449E+02 -0.78044713177E+03  0.78420932622E+03  0.73778324618E+02 0.  0.
        -13    1    3    3    0    0  0.22653556252E+02 -0.17677240069E+02 -0.17544891079E+03  0.17778635697E+03  0.00000000000E+00 0.  1.
         14    1    3    3    0    0 -0.40916176909E+02  0.71997716203E+01 -0.60499822099E+03  0.60642296926E+03  0.00000000000E+00 0. -1.
          1    1    1    2  501    0  0.18262620657E+02  0.10477468449E+02 -0.21129134577E+02  0.29828526386E+02  0.00000000000E+00 0. -1.
<mgrwt>
<rscale>  1 0.76723802E+02</rscale>
<asrwt>0</asrwt>
<pdfrwt beam="1">  1       21 0.95858292E-03 0.76723802E+02</pdfrwt>
<pdfrwt beam="2">  1        2 0.12427809E+00 0.76723802E+02</pdfrwt>
<totfact> 0.16454640E+06</totfact>
</mgrwt>
</event>
<event>
 6    2  0.7993170E+000  0.8531295E+02  0.7546771E-02  0.1314616E+00
         21   -1    0    0  501  502  0.00000000000E+00  0.00000000000E+00  0.23300269909E+01  0.23300269909E+01  0.00000000000E+00 0.  1.
          2   -1    0    0  502    0 -0.00000000000E+00 -0.00000000000E+00 -0.14769619759E+04  0.14769619759E+04  0.00000000000E+00 0. -1.
         24    2    1    2    0    0 -0.27978590617E+02  0.31760978282E+01 -0.92047102336E+03  0.92441614242E+03  0.80532045715E+02 0.  0.
        -13    1    3    3    0    0  0.10544915740E+01 -0.12158012651E+02 -0.20579478821E+02  0.23925805580E+02  0.00000000000E+00 0.  1.
         14    1    3    3    0    0 -0.29033082191E+02  0.15334110479E+02 -0.89989154454E+03  0.90049033684E+03  0.00000000000E+00 0. -1.
          1    1    1    2  501    0  0.27978590617E+02 -0.31760978282E+01 -0.55416092558E+03  0.55487586051E+03  0.00000000000E+00 0. -1.
<mgrwt>
<rscale>  1 0.85312950E+02</rscale>
<asrwt>0</asrwt>
<pdfrwt beam="1">  1       21 0.35846693E-03 0.85312950E+02</pdfrwt>
<pdfrwt beam="2">  1        2 0.22722413E+00 0.85312950E+02</pdfrwt>
<totfact> 0.31747495E+06</totfact>
</mgrwt>
</event>
<event>
 6    2  0.7993170E+000  0.8390767E+02  0.7546771E-02  0.1318314E+00
          4   -1    0    0  502    0 -0.00000000000E+00  0.00000000000E+00  0.11575190094E+03  0.11575190094E+03  0.00000000000E+00 0. -1.
         21   -1    0    0  501  502  0.00000000000E+00 -0.00000000000E+00 -0.27544674750E+02  0.27544674750E+02  0.00000000000E+00 0.  1.
         24    2    1    2    0    0 -0.24129878360E+02  0.12102681063E+02  0.77607081914E+02  0.11429504164E+03  0.79446657963E+02 0.  0.
        -11    1    3    3    0    0 -0.25018150832E+01  0.26850552377E+02 -0.51869360786E+01  0.27461164352E+02  0.00000000000E+00 0.  1.
         12    1    3    3    0    0 -0.21628063277E+02 -0.14747871314E+02  0.82794017992E+02  0.86833877287E+02  0.00000000000E+00 0. -1.
          3    1    1    2  501    0  0.24129878360E+02 -0.12102681063E+02  0.10600144273E+02  0.29001534049E+02  0.00000000000E+00 0. -1.
<mgrwt>
<rscale>  1 0.83907672E+02</rscale>
<asrwt>0</asrwt>
<pdfrwt beam="1">  1       21 0.42376423E-02 0.83907672E+02</pdfrwt>
<pdfrwt beam="2">  1        4 0.17807984E-01 0.83907672E+02</pdfrwt>
<totfact> 0.35959105E+05</totfact>
</mgrwt>
</event>
<event>
 6    2  0.7993170E+000  0.8293750E+02  0.7546771E-02  0.1320916E+00
         -1   -1    0    0    0  501 -0.00000000000E+00  0.00000000000E+00  0.52932705780E+03  0.52932705780E+03  0.00000000000E+00 0.  1.
         21   -1    0    0  501  502  0.00000000000E+00 -0.00000000000E+00 -0.26290070607E+02  0.26290070607E+02  0.00000000000E+00 0.  1.
         24    2    1    2    0    0 -0.26859177512E+02 -0.24686892873E+02  0.51148933689E+03  0.51816982794E+03  0.74483358792E+02 0.  0.
        -13    1    3    3    0    0 -0.19906421144E+02 -0.27307590970E+02  0.50930536860E+03  0.51042524292E+03  0.00000000000E+00 0.  1.
         14    1    3    3    0    0 -0.69527563673E+01  0.26206980972E+01  0.21839682938E+01  0.77445850198E+01  0.00000000000E+00 0. -1.
         -2    1    1    2    0  502  0.26859177512E+02  0.24686892873E+02 -0.84523497041E+01  0.37447300461E+02  0.00000000000E+00 0.  1.
<mgrwt>
<rscale>  1 0.82937500E+02</rscale>
<asrwt>0</asrwt>
<pdfrwt beam="1">  1       21 0.40446267E-02 0.82937500E+02</pdfrwt>
<pdfrwt beam="2">  1       -1 0.81434924E-01 0.82937500E+02</pdfrwt>
<totfact> 0.54834175E+04</totfact>
</mgrwt>
</event>
<event>
 6    2  0.7993170E+000  0.1263794E+03  0.7546771E-02  0.1232929E+00
          4   -1    0    0  502    0 -0.00000000000E+00  0.00000000000E+00  0.24398516009E+03  0.24398516009E+03  0.00000000000E+00 0. -1.
         21   -1    0    0  501  502  0.00000000000E+00 -0.00000000000E+00 -0.74769998947E+02  0.74769998947E+02  0.00000000000E+00 0.  1.
         24    2    1    2    0    0  0.95942008198E+02  0.17041341436E+02  0.33971756835E+01  0.12642502474E+03  0.80476517222E+02 0.  0.
        -13    1    3    3    0    0  0.10610347281E+03  0.10494204942E+02  0.17285121680E+02  0.10801319693E+03  0.00000000000E+00 0.  1.
         14    1    3    3    0    0 -0.10161464614E+02  0.65471364941E+01 -0.13887945997E+02  0.18411827812E+02  0.00000000000E+00 0. -1.
          3    1    1    2  501    0 -0.95942008198E+02 -0.17041341436E+02  0.16581798546E+03  0.19233013429E+03  0.00000000000E+00 0. -1.
<mgrwt>
<rscale>  1 0.12637937E+03</rscale>
<asrwt>0</asrwt>
<pdfrwt beam="1">  1       21 0.11503077E-01 0.12637937E+03</pdfrwt>
<pdfrwt beam="2">  1        4 0.37536178E-01 0.12637937E+03</pdfrwt>
<totfact> 0.17663669E+04</totfact>
</mgrwt>
</event>
<event>
 6    2  0.7993170E+000  0.1323183E+03  0.7546771E-02  0.1224056E+00
         21   -1    0    0  501  502  0.00000000000E+00  0.00000000000E+00  0.17567181062E+02  0.17567181062E+02  0.00000000000E+00 0. -1.
          2   -1    0    0  502    0 -0.00000000000E+00 -0.00000000000E+00 -0.27879429145E+04  0.27879429145E+04  0.00000000000E+00 0. -1.
         24    2    1    2    0    0  0.10359564682E+03  0.10229349248E+02 -0.26158283719E+04  0.26191728084E+04  0.81678830758E+02 0.  0.
        -11    1    3    3    0    0  0.99103989378E+01  0.19427710112E+02 -0.15306089130E+03  0.15460688332E+03  0.00000000000E+00 0.  1.
         12    1    3    3    0    0  0.93685247882E+02 -0.91983608635E+01 -0.24627674806E+04  0.24645659251E+04  0.00000000000E+00 0. -1.
          1    1    1    2  501    0 -0.10359564682E+03 -0.10229349248E+02 -0.15454736149E+03  0.18633728712E+03  0.00000000000E+00 0. -1.
<mgrwt>
<rscale>  1 0.13231829E+03</rscale>
<asrwt>0</asrwt>
<pdfrwt beam="1">  1       21 0.27026461E-02 0.13231829E+03</pdfrwt>
<pdfrwt beam="2">  1        2 0.42891385E+00 0.13231829E+03</pdfrwt>
<totfact> 0.28047833E+04</totfact>
</mgrwt>
</event>
<event>
 6    2  0.7993170E+000  0.9419984E+02  0.7546771E-02  0.1292988E+00
         21   -1    0    0  501  502  0.00000000000E+00  0.00000000000E+00  0.18099168640E+03  0.18099168640E+03  0.00000000000E+00 0. -1.
         -3   -1    0    0    0  501 -0.00000000000E+00 -0.00000000000E+00 -0.18580485471E+02  0.18580485471E+02  0.00000000000E+00 0.  1.
         24    2    1    2    0    0 -0.18779723176E+02  0.71275400365E+01  0.11926554043E+03  0.15197986315E+03  0.92033308315E+02 0.  0.
        -11    1    3    3    0    0 -0.33106159795E+02 -0.35637520539E+02  0.69332832473E+02  0.84694110452E+02  0.00000000000E+00 0.  1.
         12    1    3    3    0    0  0.14326436619E+02  0.42765060575E+02  0.49932707961E+02  0.67285752701E+02  0.00000000000E+00 0. -1.
         -4    1    1    2    0  502  0.18779723176E+02 -0.71275400365E+01  0.43145660493E+02  0.47592308716E+02  0.00000000000E+00 0.  1.
<mgrwt>
<rscale>  1 0.94199839E+02</rscale>
<asrwt>0</asrwt>
<pdfrwt beam="1">  1       21 0.27844874E-01 0.94199839E+02</pdfrwt>
<pdfrwt beam="2">  1       -3 0.28585364E-02 0.94199839E+02</pdfrwt>
<totfact> 0.30342960E+05</totfact>
</mgrwt>
</event>
<event>
 6    2  0.7993170E+000  0.8420701E+02  0.7546771E-02  0.1317519E+00
         -1   -1    0    0    0  501 -0.00000000000E+00  0.00000000000E+00  0.40197930981E+01  0.40197930981E+01  0.00000000000E+00 0.  1.
         21   -1    0    0  501  502  0.00000000000E+00 -0.00000000000E+00 -0.73901539647E+03  0.73901539647E+03  0.00000000000E+00 0. -1.
         24    2    1    2    0    0  0.19327624223E+02  0.12457374244E+02 -0.62617872926E+03  0.63181533827E+03  0.81006650746E+02 0.  0.
        -11    1    3    3    0    0  0.15706019655E+02 -0.32602999076E+02 -0.20018615690E+03  0.20343090231E+03  0.00000000000E+00 0.  1.
         12    1    3    3    0    0  0.36216045685E+01  0.45060373320E+02 -0.42599257236E+03  0.42838443596E+03  0.00000000000E+00 0. -1.
         -2    1    1    2    0  502 -0.19327624223E+02 -0.12457374244E+02 -0.10881687412E+03  0.11121985130E+03  0.00000000000E+00 0.  1.
<mgrwt>
<rscale>  1 0.84207011E+02</rscale>
<asrwt>0</asrwt>
<pdfrwt beam="1">  1       21 0.11369456E+00 0.84207011E+02</pdfrwt>
<pdfrwt beam="2">  1       -1 0.61843033E-03 0.84207011E+02</pdfrwt>
<totfact> 0.18679073E+05</totfact>
</mgrwt>
</event>
<event>
 6    2  0.7993170E+000  0.9897899E+02  0.7546771E-02  0.1282458E+00
         21   -1    0    0  501  502  0.00000000000E+00  0.00000000000E+00  0.42213201441E+02  0.42213201441E+02  0.00000000000E+00 0. -1.
          2   -1    0    0  502    0 -0.00000000000E+00 -0.00000000000E+00 -0.14775155049E+03  0.14775155049E+03  0.00000000000E+00 0. -1.
         24    2    1    2    0    0 -0.62099226614E+01  0.57511786832E+02 -0.77339602774E+02  0.12561152314E+03  0.80316074514E+02 0.  0.
        -13    1    3    3    0    0  0.13333320185E+02 -0.82388023420E+01  0.67743327741E+01  0.17074743797E+02  0.00000000000E+00 0.  1.
         14    1    3    3    0    0 -0.19543242847E+02  0.65750589174E+02 -0.84113935548E+02  0.10853677935E+03  0.00000000000E+00 0. -1.
          1    1    1    2  501    0  0.62099226614E+01 -0.57511786832E+02 -0.28198746280E+02  0.64353228791E+02  0.00000000000E+00 0. -1.
<mgrwt>
<rscale>  1 0.98978991E+02</rscale>
<asrwt>0</asrwt>
<pdfrwt beam="1">  1       21 0.64943386E-02 0.98978991E+02</pdfrwt>
<pdfrwt beam="2">  1        2 0.22731008E-01 0.98978991E+02</pdfrwt>
<totfact> 0.48177186E+05</totfact>
</mgrwt>
</event>
<event>
 6    2  0.7993170E+000  0.8881169E+02  0.7546771E-02  0.1305755E+00
          2   -1    0    0  502    0 -0.00000000000E+00  0.00000000000E+00  0.14153350282E+03  0.14153350282E+03  0.00000000000E+00 0. -1.
         21   -1    0    0  501  502  0.00000000000E+00 -0.00000000000E+00 -0.56247441945E+02  0.56247441945E+02  0.00000000000E+00 0. -1.
         24    2    1    2    0    0  0.21599428084E+02 -0.25875912716E+02  0.12006927354E+03  0.14934572994E+03  0.82167015599E+02 0.  0.
        -11    1    3    3    0    0  0.16996001976E+02 -0.24952768574E+02  0.10246117718E+01  0.30208518202E+02  0.00000000000E+00 0.  1.
         12    1    3    3    0    0  0.46034261079E+01 -0.92314414274E+00  0.11904466177E+03  0.11913721174E+03  0.00000000000E+00 0. -1.
          1    1    1    2  501    0 -0.21599428084E+02  0.25875912716E+02 -0.34783212657E+02  0.48435214826E+02  0.00000000000E+00 0. -1.
<mgrwt>
<rscale>  1 0.88811692E+02</rscale>
<asrwt>0</asrwt>
<pdfrwt beam="1">  1       21 0.86534526E-02 0.88811692E+02</pdfrwt>
<pdfrwt beam="2">  1        2 0.21774385E-01 0.88811692E+02</pdfrwt>
<totfact> 0.30712889E+05</totfact>
</mgrwt>
</event>
<event>
 6    2  0.7993170E+000  0.9616464E+02  0.7546771E-02  0.1288574E+00
          2   -1    0    0  502    0 -0.00000000000E+00  0.00000000000E+00  0.71410207685E+03  0.71410207685E+03  0.00000000000E+00 0. -1.
         21   -1    0    0  501  502  0.00000000000E+00 -0.00000000000E+00 -0.80638635820E+01  0.80638635820E+01  0.00000000000E+00 0.  1.
         24    2    1    2    0    0 -0.13185551872E+02 -0.52065005649E+02  0.39592607556E+03  0.40743722941E+03  0.79768508855E+02 0.  0.
        -11    1    3    3    0    0 -0.71633479187E+01 -0.70429989153E+02  0.23720455850E+03  0.24754332853E+03  0.00000000000E+00 0.  1.
         12    1    3    3    0    0 -0.60222039533E+01  0.18364983505E+02  0.15872151706E+03  0.15989390088E+03  0.00000000000E+00 0. -1.
          1    1    1    2  501    0  0.13185551872E+02  0.52065005649E+02  0.31011213770E+03  0.31472871102E+03  0.00000000000E+00 0. -1.
<mgrwt>
<rscale>  1 0.96164643E+02</rscale>
<asrwt>0</asrwt>
<pdfrwt beam="1">  1       21 0.12405950E-02 0.96164643E+02</pdfrwt>
<pdfrwt beam="2">  1        2 0.10986181E+00 0.96164643E+02</pdfrwt>
<totfact> 0.13019443E+06</totfact>
</mgrwt>
</event>
<event>
 6    2  0.7993170E+000  0.1042173E+03  0.7546771E-02  0.1271669E+00
         21   -1    0    0  501  502  0.00000000000E+00  0.00000000000E+00  0.37009549076E+03  0.37009549076E+03  0.00000000000E+00 0. -1.
         -1   -1    0    0    0  501 -0.00000000000E+00 -0.00000000000E+00 -0.19858219133E+02  0.19858219133E+02  0.00000000000E+00 0.  1.
         24    2    1    2    0    0 -0.48169857190E+02  0.46726091377E+02  0.22043233493E+03  0.24382710606E+03  0.79734438041E+02 0.  0.
        -13    1    3    3    0    0 -0.38578251841E+02  0.45271113027E+02  0.65054536062E+02  0.88146740451E+02  0.00000000000E+00 0.  1.
         14    1    3    3    0    0 -0.95916053483E+01  0.14549783503E+01  0.15537779886E+03  0.15568036561E+03  0.00000000000E+00 0. -1.
         -2    1    1    2    0  502  0.48169857190E+02 -0.46726091377E+02  0.12980493670E+03  0.14612660383E+03  0.00000000000E+00 0.  1.
<mgrwt>
<rscale>  1 0.10421729E+03</rscale>
<asrwt>0</asrwt>
<pdfrwt beam="1">  1       21 0.56937763E-01 0.10421729E+03</pdfrwt>
<pdfrwt beam="2">  1       -1 0.30551109E-02 0.10421729E+03</pdfrwt>
<totfact> 0.91062083E+04</totfact>
</mgrwt>
</event>
<event>
 6    2  0.7993170E+000  0.8713079E+02  0.7546771E-02  0.1309952E+00
          2   -1    0    0  502    0 -0.00000000000E+00  0.00000000000E+00  0.89622291862E+01  0.89622291862E+01  0.00000000000E+00 0. -1.
         21   -1    0    0  501  502  0.00000000000E+00 -0.00000000000E+00 -0.40162624650E+03  0.40162624650E+03  0.00000000000E+00 0. -1.
         24    2    1    2    0    0  0.24708044144E+02 -0.21017211813E+02 -0.30082770231E+03  0.31319176429E+03  0.80867571391E+02 0.  0.
        -13    1    3    3    0    0 -0.22484057369E+02  0.13326961754E+02 -0.60994225591E+02  0.66358392844E+02  0.00000000000E+00 0.  1.
         14    1    3    3    0    0  0.47192101513E+02 -0.34344173567E+02 -0.23983347672E+03  0.24683337145E+03  0.00000000000E+00 0. -1.
          1    1    1    2  501    0 -0.24708044144E+02  0.21017211813E+02 -0.91836315001E+02  0.97396711396E+02  0.00000000000E+00 0. -1.
<mgrwt>
<rscale>  1 0.87130791E+02</rscale>
<asrwt>0</asrwt>
<pdfrwt beam="1">  1       21 0.61788628E-01 0.87130791E+02</pdfrwt>
<pdfrwt beam="2">  1        2 0.13788050E-02 0.87130791E+02</pdfrwt>
<totfact> 0.25082114E+05</totfact>
</mgrwt>
</event>
<event>
 6    2  0.7993170E+000  0.8676242E+02  0.7546771E-02  0.1310887E+00
         -1   -1    0    0    0  501 -0.00000000000E+00  0.00000000000E+00  0.24463964170E+02  0.24463964170E+02  0.00000000000E+00 0.  1.
         21   -1    0    0  501  502  0.00000000000E+00 -0.00000000000E+00 -0.13583105733E+03  0.13583105733E+03  0.00000000000E+00 0.  1.
         24    2    1    2    0    0 -0.24044418301E+02  0.12020244483E+01 -0.66276651816E+02  0.10918018202E+03  0.83355495658E+02 0.  0.
        -11    1    3    3    0    0 -0.49928802951E+02 -0.13032519322E+02 -0.22325294394E+02  0.56224111320E+02  0.00000000000E+00 0.  1.
         12    1    3    3    0    0  0.25884384650E+02  0.14234543770E+02 -0.43951357421E+02  0.52956070702E+02  0.00000000000E+00 0. -1.
         -2    1    1    2    0  502  0.24044418301E+02 -0.12020244483E+01 -0.45090441346E+02  0.51114839479E+02  0.00000000000E+00 0.  1.
<mgrwt>
<rscale>  1 0.86762420E+02</rscale>
<asrwt>0</asrwt>
<pdfrwt beam="1">  1       21 0.20897085E-01 0.86762420E+02</pdfrwt>
<pdfrwt beam="2">  1       -1 0.37636869E-02 0.86762420E+02</pdfrwt>
<totfact> 0.46885471E+05</totfact>
</mgrwt>
</event>
<event>
 6    2  0.7993170E+000  0.8728935E+02  0.7546771E-02  0.1309552E+00
          2   -1    0    0  502    0 -0.00000000000E+00  0.00000000000E+00  0.12011245048E+04  0.12011245048E+04  0.00000000000E+00 0. -1.
         21   -1    0    0  501  502  0.00000000000E+00 -0.00000000000E+00 -0.33558994255E+01  0.33558994255E+01  0.00000000000E+00 0. -1.
         24    2    1    2    0    0  0.17523582016E+02 -0.18075983183E+02  0.11022107436E+04  0.11056617722E+04  0.83579985843E+02 0.  0.
        -11    1    3    3    0    0 -0.12951524468E+02  0.22664639906E+02  0.66305999978E+03  0.66357365168E+03  0.00000000000E+00 0.  1.
         12    1    3    3    0    0  0.30475106484E+02 -0.40740623088E+02  0.43915074386E+03  0.44208812053E+03  0.00000000000E+00 0. -1.
          1    1    1    2  501    0 -0.17523582016E+02  0.18075983183E+02  0.95557861781E+02  0.98818632063E+02  0.00000000000E+00 0. -1.
<mgrwt>
<rscale>  1 0.87289353E+02</rscale>
<asrwt>0</asrwt>
<pdfrwt beam="1">  1       21 0.51629318E-03 0.87289353E+02</pdfrwt>
<pdfrwt beam="2">  1        2 0.18478804E+00 0.87289353E+02</pdfrwt>
<totfact> 0.25446632E+06</totfact>
</mgrwt>
</event>
<event>
 6    2  0.7993170E+000  0.8343929E+02  0.7546771E-02  0.1319565E+00
          2   -1    0    0  502    0 -0.00000000000E+00  0.00000000000E+00  0.56845546225E+03  0.56845546225E+03  0.00000000000E+00 0. -1.
         21   -1    0    0  501  502  0.00000000000E+00 -0.00000000000E+00 -0.62799482499E+01  0.62799482499E+01  0.00000000000E+00 0.  1.
         24    2    1    2    0    0 -0.19354409172E+02 -0.18904852644E+02  0.50020332343E+03  0.50711485880E+03  0.78931163932E+02 0.  0.
        -13    1    3    3    0    0 -0.45420206519E+02 -0.19282984747E+02  0.20895294259E+03  0.21470016507E+03  0.00000000000E+00 0.  1.
         14    1    3    3    0    0  0.26065797347E+02  0.37813210291E+00  0.29125038083E+03  0.29241469373E+03  0.00000000000E+00 0. -1.
          1    1    1    2  501    0  0.19354409172E+02  0.18904852644E+02  0.61972190576E+02  0.67620551704E+02  0.00000000000E+00 0. -1.
<mgrwt>
<rscale>  1 0.83439291E+02</rscale>
<asrwt>0</asrwt>
<pdfrwt beam="1">  1       21 0.96614633E-03 0.83439291E+02</pdfrwt>
<pdfrwt beam="2">  1        2 0.87454646E-01 0.83439291E+02</pdfrwt>
<totfact> 0.24594453E+06</totfact>
</mgrwt>
</event>
<event>
 6    2  0.7993170E+000  0.8384386E+02  0.7546771E-02  0.1318484E+00
         21   -1    0    0  501  502  0.00000000000E+00  0.00000000000E+00  0.23474309450E+01  0.23474309450E+01  0.00000000000E+00 0.  1.
          2   -1    0    0  502    0 -0.00000000000E+00 -0.00000000000E+00 -0.18037067389E+04  0.18037067389E+04  0.00000000000E+00 0. -1.
         24    2    1    2    0    0 -0.27639150906E+02  0.39382215304E+01 -0.16508288106E+04  0.16529566099E+04  0.79059216952E+02 0.  0.
        -11    1    3    3    0    0 -0.50454591921E+02 -0.27515412876E+01 -0.69599412802E+03  0.69782595471E+03  0.00000000000E+00 0.  1.
         12    1    3    3    0    0  0.22815441015E+02  0.66897628180E+01 -0.95483468262E+03  0.95513065515E+03  0.00000000000E+00 0. -1.
          1    1    1    2  501    0  0.27639150906E+02 -0.39382215304E+01 -0.15053049727E+03  0.15309755994E+03  0.00000000000E+00 0. -1.
<mgrwt>
<rscale>  1 0.83843855E+02</rscale>
<asrwt>0</asrwt>
<pdfrwt beam="1">  1       21 0.36114309E-03 0.83843855E+02</pdfrwt>
<pdfrwt beam="2">  1        2 0.27749345E+00 0.83843855E+02</pdfrwt>
<totfact> 0.21462541E+06</totfact>
</mgrwt>
</event>
<event>
 6    2  0.7993170E+000  0.1183341E+03  0.7546771E-02  0.1245871E+00
         21   -1    0    0  501  502  0.00000000000E+00  0.00000000000E+00  0.11628619127E+02  0.11628619127E+02  0.00000000000E+00 0.  1.
          2   -1    0    0  502    0 -0.00000000000E+00 -0.00000000000E+00 -0.92781601582E+03  0.92781601582E+03  0.00000000000E+00 0. -1.
         24    2    1    2    0    0 -0.79170665152E+02 -0.39312150013E+02 -0.56967617825E+03  0.58183665983E+03  0.78673447231E+02 0.  0.
        -11    1    3    3    0    0 -0.51234975150E+01 -0.84307989919E+01 -0.42416416176E+01  0.10738720689E+02  0.00000000000E+00 0.  1.
         12    1    3    3    0    0 -0.74047167637E+02 -0.30881351021E+02 -0.56543453663E+03  0.57109793914E+03  0.00000000000E+00 0. -1.
          1    1    1    2  501    0  0.79170665152E+02  0.39312150013E+02 -0.34651121845E+03  0.35760797512E+03  0.00000000000E+00 0. -1.
<mgrwt>
<rscale>  1 0.11833406E+03</rscale>
<asrwt>0</asrwt>
<pdfrwt beam="1">  1       21 0.17890179E-02 0.11833406E+03</pdfrwt>
<pdfrwt beam="2">  1        2 0.14274096E+00 0.11833406E+03</pdfrwt>
<totfact> 0.53373007E+05</totfact>
</mgrwt>
</event>
<event>
 6    2  0.7993170E+000  0.8848893E+02  0.7546771E-02  0.1306553E+00
          2   -1    0    0  502    0 -0.00000000000E+00  0.00000000000E+00  0.25545270193E+02  0.25545270193E+02  0.00000000000E+00 0. -1.
         21   -1    0    0  501  502  0.00000000000E+00 -0.00000000000E+00 -0.41773513991E+03  0.41773513991E+03  0.00000000000E+00 0. -1.
         24    2    1    2    0    0 -0.17027296235E+02  0.32493439196E+02 -0.55188694376E+02  0.10428845653E+03  0.80526627709E+02 0.  0.
        -13    1    3    3    0    0  0.20370085870E+02  0.70431638629E+01 -0.54978248654E+02  0.59052132736E+02  0.00000000000E+00 0.  1.
         14    1    3    3    0    0 -0.37397382105E+02  0.25450275333E+02 -0.21044572178E+00  0.45236323792E+02  0.00000000000E+00 0. -1.
          1    1    1    2  501    0  0.17027296235E+02 -0.32493439196E+02 -0.33700117534E+03  0.33899195358E+03  0.00000000000E+00 0. -1.
<mgrwt>
<rscale>  1 0.88488927E+02</rscale>
<asrwt>0</asrwt>
<pdfrwt beam="1">  1       21 0.64266947E-01 0.88488927E+02</pdfrwt>
<pdfrwt beam="2">  1        2 0.39300414E-02 0.88488927E+02</pdfrwt>
<totfact> 0.56873482E+04</totfact>
</mgrwt>
</event>
<event>
 6    2  0.7993170E+000  0.9463019E+02  0.7546771E-02  0.1292011E+00
         21   -1    0    0  501  502  0.00000000000E+00  0.00000000000E+00  0.22530879104E+03  0.22530879104E+03  0.00000000000E+00 0. -1.
          2   -1    0    0  502    0 -0.00000000000E+00 -0.00000000000E+00 -0.12876167119E+03  0.12876167119E+03  0.00000000000E+00 0. -1.
         24    2    1    2    0    0 -0.48529434441E+02 -0.14961438422E+02 -0.10783791002E+03  0.14347086328E+03  0.79849377750E+02 0.  0.
        -11    1    3    3    0    0 -0.65009206879E+02 -0.84035645315E+00 -0.51001617201E+02  0.82632125321E+02  0.00000000000E+00 0.  1.
         12    1    3    3    0    0  0.16479772438E+02 -0.14121081969E+02 -0.56836292815E+02  0.60838737959E+02  0.00000000000E+00 0. -1.
          1    1    1    2  501    0  0.48529434441E+02  0.14961438422E+02  0.20438502986E+03  0.21059959895E+03  0.00000000000E+00 0. -1.
<mgrwt>
<rscale>  1 0.94630195E+02</rscale>
<asrwt>0</asrwt>
<pdfrwt beam="1">  1       21 0.34662891E-01 0.94630195E+02</pdfrwt>
<pdfrwt beam="2">  1        2 0.19809488E-01 0.94630195E+02</pdfrwt>
<totfact> 0.27554496E+04</totfact>
</mgrwt>
</event>
<event>
 6    2  0.7993170E+000  0.9016344E+02  0.7546771E-02  0.1302456E+00
         21   -1    0    0  501  502  0.00000000000E+00  0.00000000000E+00  0.15229925231E+01  0.15229925231E+01  0.00000000000E+00 0.  1.
          2   -1    0    0  502    0 -0.00000000000E+00 -0.00000000000E+00 -0.27013846626E+04  0.27013846626E+04  0.00000000000E+00 0. -1.
         24    2    1    2    0    0  0.36918197490E+02  0.78548884904E+01 -0.18055639727E+04  0.18078137919E+04  0.81882805425E+02 0.  0.
        -11    1    3    3    0    0  0.58993724012E+02  0.20167465430E+02 -0.14577103593E+04  0.14590430006E+04  0.00000000000E+00 0.  1.
         12    1    3    3    0    0 -0.22075526522E+02 -0.12312576940E+02 -0.34785361346E+03  0.34877079124E+03  0.00000000000E+00 0. -1.
          1    1    1    2  501    0 -0.36918197490E+02 -0.78548884904E+01 -0.89429769736E+03  0.89509386328E+03  0.00000000000E+00 0. -1.
<mgrwt>
<rscale>  1 0.90163443E+02</rscale>
<asrwt>0</asrwt>
<pdfrwt beam="1">  1       21 0.23430556E-03 0.90163443E+02</pdfrwt>
<pdfrwt beam="2">  1        2 0.41559938E+00 0.90163443E+02</pdfrwt>
<totfact> 0.14340873E+06</totfact>
</mgrwt>
</event>
<event>
 6    2  0.7993170E+000  0.7972314E+02  0.7546771E-02  0.1329839E+00
          2   -1    0    0  502    0 -0.00000000000E+00  0.00000000000E+00  0.26660425213E+02  0.26660425213E+02  0.00000000000E+00 0. -1.
         21   -1    0    0  501  502  0.00000000000E+00 -0.00000000000E+00 -0.44917535251E+03  0.44917535251E+03  0.00000000000E+00 0.  1.
         24    2    1    2    0    0 -0.19634751875E+02 -0.97015743834E+01 -0.33944683200E+02  0.86648832124E+02  0.76655949307E+02 0.  0.
        -11    1    3    3    0    0 -0.15088914775E+02  0.30475840428E+02 -0.31152694684E+02  0.46118787765E+02  0.00000000000E+00 0.  1.
         12    1    3    3    0    0 -0.45458371007E+01 -0.40177414811E+02 -0.27919885169E+01  0.40530044359E+02  0.00000000000E+00 0. -1.
          1    1    1    2  501    0  0.19634751875E+02  0.97015743834E+01 -0.38857024410E+03  0.38918694560E+03  0.00000000000E+00 0. -1.
<mgrwt>
<rscale>  1 0.79723137E+02</rscale>
<asrwt>0</asrwt>
<pdfrwt beam="1">  1       21 0.69103899E-01 0.79723137E+02</pdfrwt>
<pdfrwt beam="2">  1        2 0.41016040E-02 0.79723137E+02</pdfrwt>
<totfact> 0.45915405E+04</totfact>
</mgrwt>
</event>
<event>
 6    2  0.7993170E+000  0.8503312E+02  0.7546771E-02  0.1315346E+00
         21   -1    0    0  501  502  0.00000000000E+00  0.00000000000E+00  0.54252218053E+01  0.54252218053E+01  0.00000000000E+00 0.  1.
          2   -1    0    0  502    0 -0.00000000000E+00 -0.00000000000E+00 -0.55373325653E+03  0.55373325653E+03  0.00000000000E+00 0. -1.
         24    2    1    2    0    0  0.20776620263E+02  0.83434946189E+00 -0.48833476977E+03  0.49568284051E+03  0.82451603479E+02 0.  0.
        -11    1    3    3    0    0  0.46916747121E+02 -0.11749859009E+02 -0.19465989456E+03  0.20057845073E+03  0.00000000000E+00 0.  1.
         12    1    3    3    0    0 -0.26140126857E+02  0.12584208471E+02 -0.29367487521E+03  0.29510438978E+03  0.00000000000E+00 0. -1.
          1    1    1    2  501    0 -0.20776620263E+02 -0.83434946189E+00 -0.59973264950E+02  0.63475637825E+02  0.00000000000E+00 0. -1.
<mgrwt>
<rscale>  1 0.85033117E+02</rscale>
<asrwt>0</asrwt>
<pdfrwt beam="1">  1       21 0.83464993E-03 0.85033117E+02</pdfrwt>
<pdfrwt beam="2">  1        2 0.85189689E-01 0.85033117E+02</pdfrwt>
<totfact> 0.31854591E+06</totfact>
</mgrwt>
</event>
<event>
 6    2  0.7993170E+000  0.8619190E+02  0.7546771E-02  0.1312345E+00
         21   -1    0    0  501  502  0.00000000000E+00  0.00000000000E+00  0.26517134170E+02  0.26517134170E+02  0.00000000000E+00 0.  1.
         -1   -1    0    0    0  501 -0.00000000000E+00 -0.00000000000E+00 -0.25792688552E+03  0.25792688552E+03  0.00000000000E+00 0.  1.
         24    2    1    2    0    0  0.20892482003E+02  0.26566371628E+02 -0.23514189980E+03  0.25044112514E+03  0.79289193539E+02 0.  0.
        -13    1    3    3    0    0 -0.28291443590E+02  0.14202475054E+02 -0.56767034180E+02  0.64997017222E+02  0.00000000000E+00 0.  1.
         14    1    3    3    0    0  0.49183925594E+02  0.12363896574E+02 -0.17837486562E+03  0.18544410792E+03  0.00000000000E+00 0. -1.
         -2    1    1    2    0  502 -0.20892482003E+02 -0.26566371628E+02  0.37321484543E+01  0.34002894551E+02  0.00000000000E+00 0.  1.
<mgrwt>
<rscale>  1 0.86191903E+02</rscale>
<asrwt>0</asrwt>
<pdfrwt beam="1">  1       21 0.40795591E-02 0.86191903E+02</pdfrwt>
<pdfrwt beam="2">  1       -1 0.39681060E-01 0.86191903E+02</pdfrwt>
<totfact> 0.20673586E+05</totfact>
</mgrwt>
</event>
<event>
 6    2  0.7993170E+000  0.8462802E+02  0.7546771E-02  0.1316408E+00
         21   -1    0    0  501  502  0.00000000000E+00  0.00000000000E+00  0.24462912197E+01  0.24462912197E+01  0.00000000000E+00 0.  1.
          2   -1    0    0  502    0 -0.00000000000E+00 -0.00000000000E+00 -0.12447179359E+04  0.12447179359E+04  0.00000000000E+00 0. -1.
         24    2    1    2    0    0 -0.10663778589E+02 -0.19804231521E+02 -0.83659147174E+03  0.84086098264E+03  0.81584176003E+02 0.  0.
        -11    1    3    3    0    0 -0.34281401644E+02 -0.20014495160E+02 -0.20386493897E+03  0.20769378387E+03  0.00000000000E+00 0.  1.
         12    1    3    3    0    0  0.23617623055E+02  0.21026363896E+00 -0.63272653277E+03  0.63316719877E+03  0.00000000000E+00 0. -1.
          1    1    1    2  501    0  0.10663778589E+02  0.19804231521E+02 -0.40568017295E+03  0.40630324449E+03  0.00000000000E+00 0. -1.
<mgrwt>
<rscale>  1 0.84628019E+02</rscale>
<asrwt>0</asrwt>
<pdfrwt beam="1">  1       21 0.37635327E-03 0.84628019E+02</pdfrwt>
<pdfrwt beam="2">  1        2 0.19149467E+00 0.84628019E+02</pdfrwt>
<totfact> 0.38930643E+06</totfact>
</mgrwt>
</event>
<event>
 6    2  0.7993170E+000  0.8657047E+02  0.7546771E-02  0.1311376E+00
         21   -1    0    0  501  502  0.00000000000E+00  0.00000000000E+00  0.24055277258E+02  0.24055277258E+02  0.00000000000E+00 0. -1.
         -3   -1    0    0    0  501 -0.00000000000E+00 -0.00000000000E+00 -0.15104793089E+03  0.15104793089E+03  0.00000000000E+00 0.  1.
         24    2    1    2    0    0  0.17512440902E+02  0.28583889520E+02 -0.84433401338E+02  0.12092743605E+03  0.79816797743E+02 0.  0.
        -11    1    3    3    0    0  0.38839586394E+02  0.14398340948E+00 -0.74501405952E+02  0.84017817701E+02  0.00000000000E+00 0.  1.
         12    1    3    3    0    0 -0.21327145491E+02  0.28439906111E+02 -0.99319953867E+01  0.36909618350E+02  0.00000000000E+00 0. -1.
         -4    1    1    2    0  502 -0.17512440902E+02 -0.28583889520E+02 -0.42559252296E+02  0.54175772098E+02  0.00000000000E+00 0.  1.
<mgrwt>
<rscale>  1 0.86570466E+02</rscale>
<asrwt>0</asrwt>
<pdfrwt beam="1">  1       21 0.37008118E-02 0.86570466E+02</pdfrwt>
<pdfrwt beam="2">  1       -3 0.23238144E-01 0.86570466E+02</pdfrwt>
<totfact> 0.33585572E+05</totfact>
</mgrwt>
</event>
<event>
 6    2  0.7993170E+000  0.8913287E+02  0.7546771E-02  0.1304965E+00
         21   -1    0    0  501  502  0.00000000000E+00  0.00000000000E+00  0.13618866755E+02  0.13618866755E+02  0.00000000000E+00 0. -1.
         -1   -1    0    0    0  501 -0.00000000000E+00 -0.00000000000E+00 -0.34215303044E+03  0.34215303044E+03  0.00000000000E+00 0.  1.
         24    2    1    2    0    0 -0.10382918601E+01 -0.37587584339E+02 -0.28307731284E+03  0.29677842438E+03  0.80813139919E+02 0.  0.
        -13    1    3    3    0    0 -0.24358292469E+02  0.13218587256E+02 -0.14830217205E+03  0.15086945250E+03  0.00000000000E+00 0.  1.
         14    1    3    3    0    0  0.23320000609E+02 -0.50806171595E+02 -0.13477514079E+03  0.14590897188E+03  0.00000000000E+00 0. -1.
         -2    1    1    2    0  502  0.10382918601E+01  0.37587584339E+02 -0.45456850839E+02  0.58993472814E+02  0.00000000000E+00 0.  1.
<mgrwt>
<rscale>  1 0.89132868E+02</rscale>
<asrwt>0</asrwt>
<pdfrwt beam="1">  1       21 0.20952105E-02 0.89132868E+02</pdfrwt>
<pdfrwt beam="2">  1       -1 0.52638921E-01 0.89132868E+02</pdfrwt>
<totfact> 0.37035853E+05</totfact>
</mgrwt>
</event>
<event>
 6    2  0.7993170E+000  0.8242405E+02  0.7546771E-02  0.1322310E+00
          2   -1    0    0  502    0 -0.00000000000E+00  0.00000000000E+00  0.35372263764E+03  0.35372263764E+03  0.00000000000E+00 0. -1.
         21   -1    0    0  501  502  0.00000000000E+00 -0.00000000000E+00 -0.79447506769E+01  0.79447506769E+01  0.00000000000E+00 0.  1.
         24    2    1    2    0    0  0.21187859817E+02  0.10391763287E+02  0.26916168009E+03  0.28149908222E+03  0.78973470928E+02 0.  0.
        -13    1    3    3    0    0 -0.30140855946E+02  0.27512680410E+01  0.11023365519E+03  0.11431316376E+03  0.00000000000E+00 0.  1.
         14    1    3    3    0    0  0.51328715763E+02  0.76404952464E+01  0.15892802490E+03  0.16718591845E+03  0.00000000000E+00 0. -1.
          1    1    1    2  501    0 -0.21187859817E+02 -0.10391763287E+02  0.76616206873E+02  0.80168306103E+02  0.00000000000E+00 0. -1.
<mgrwt>
<rscale>  1 0.82424045E+02</rscale>
<asrwt>0</asrwt>
<pdfrwt beam="1">  1       21 0.12222696E-02 0.82424045E+02</pdfrwt>
<pdfrwt beam="2">  1        2 0.54418855E-01 0.82424045E+02</pdfrwt>
<totfact> 0.28171608E+06</totfact>
</mgrwt>
</event>
<event>
 6    2  0.7993170E+000  0.7871023E+02  0.7546771E-02  0.1332752E+00
          2   -1    0    0  502    0 -0.00000000000E+00  0.00000000000E+00  0.20857629475E+04  0.20857629475E+04  0.00000000000E+00 0. -1.
         21   -1    0    0  501  502  0.00000000000E+00 -0.00000000000E+00 -0.13934441717E+01  0.13934441717E+01  0.00000000000E+00 0. -1.
         24    2    1    2    0    0 -0.42970657848E+01 -0.26260530810E+02  0.17297736188E+04  0.17315634762E+04  0.74075767622E+02 0.  0.
        -11    1    3    3    0    0 -0.21621738467E+02 -0.12616553865E+02  0.19120088383E+03  0.19283271243E+03  0.00000000000E+00 0.  1.
         12    1    3    3    0    0  0.17324672683E+02 -0.13643976945E+02  0.15385727350E+04  0.15387307637E+04  0.00000000000E+00 0. -1.
          1    1    1    2  501    0  0.42970657848E+01  0.26260530810E+02  0.35459588449E+03  0.35559291549E+03  0.00000000000E+00 0. -1.
<mgrwt>
<rscale>  1 0.78710226E+02</rscale>
<asrwt>0</asrwt>
<pdfrwt beam="1">  1       21 0.21437769E-03 0.78710226E+02</pdfrwt>
<pdfrwt beam="2">  1        2 0.32088411E+00 0.78710226E+02</pdfrwt>
<totfact> 0.33875771E+06</totfact>
</mgrwt>
</event>
<event>
 6    2  0.7993170E+000  0.8615067E+02  0.7546771E-02  0.1312451E+00
         21   -1    0    0  501  502  0.00000000000E+00  0.00000000000E+00  0.81592476106E+01  0.81592476106E+01  0.00000000000E+00 0. -1.
          2   -1    0    0  502    0 -0.00000000000E+00 -0.00000000000E+00 -0.43552503256E+03  0.43552503256E+03  0.00000000000E+00 0. -1.
         24    2    1    2    0    0 -0.18876203003E+02 -0.21998418446E+02 -0.26209650331E+03  0.27589221568E+03  0.81127653541E+02 0.  0.
        -11    1    3    3    0    0  0.26321456919E+02 -0.41561402724E+01 -0.36918500086E+02  0.45530959192E+02  0.00000000000E+00 0.  1.
         12    1    3    3    0    0 -0.45197659922E+02 -0.17842278174E+02 -0.22517800323E+03  0.23036125649E+03  0.00000000000E+00 0. -1.
          1    1    1    2  501    0  0.18876203003E+02  0.21998418446E+02 -0.16526928163E+03  0.16779206449E+03  0.00000000000E+00 0. -1.
<mgrwt>
<rscale>  1 0.86150668E+02</rscale>
<asrwt>0</asrwt>
<pdfrwt beam="1">  1       21 0.12552684E-02 0.86150668E+02</pdfrwt>
<pdfrwt beam="2">  1        2 0.67003876E-01 0.86150668E+02</pdfrwt>
<totfact> 0.21839210E+06</totfact>
</mgrwt>
</event>
<event>
 6    2  0.7993170E+000  0.8974957E+02  0.7546771E-02  0.1303459E+00
         -1   -1    0    0    0  501 -0.00000000000E+00  0.00000000000E+00  0.45992193408E+02  0.45992193408E+02  0.00000000000E+00 0.  1.
         21   -1    0    0  501  502  0.00000000000E+00 -0.00000000000E+00 -0.85719201353E+02  0.85719201353E+02  0.00000000000E+00 0. -1.
         24    2    1    2    0    0 -0.51974169898E-01 -0.34484253770E+02 -0.37138520713E+02  0.97130088749E+02  0.82860231476E+02 0.  0.
        -13    1    3    3    0    0  0.42272980639E+01 -0.40070046932E+01  0.26131050315E+02  0.26772335088E+02  0.00000000000E+00 0.  1.
         14    1    3    3    0    0 -0.42792722338E+01 -0.30477249076E+02 -0.63269571028E+02  0.70357753661E+02  0.00000000000E+00 0. -1.
         -2    1    1    2    0  502  0.51974169898E-01  0.34484253770E+02 -0.25884872317E+01  0.34581306012E+02  0.00000000000E+00 0.  1.
<mgrwt>
<rscale>  1 0.89749565E+02</rscale>
<asrwt>0</asrwt>
<pdfrwt beam="1">  1       21 0.13187569E-01 0.89749565E+02</pdfrwt>
<pdfrwt beam="2">  1       -1 0.70757221E-02 0.89749565E+02</pdfrwt>
<totfact> 0.42758810E+05</totfact>
</mgrwt>
</event>
<event>
 6    2  0.7993170E+000  0.8342800E+02  0.7546771E-02  0.1319595E+00
         21   -1    0    0  501  502  0.00000000000E+00  0.00000000000E+00  0.17482475994E+01  0.17482475994E+01  0.00000000000E+00 0. -1.
          2   -1    0    0  502    0 -0.00000000000E+00 -0.00000000000E+00 -0.29786594260E+04  0.29786594260E+04  0.00000000000E+00 0. -1.
         24    2    1    2    0    0  0.40079510605E+01  0.19761578950E+02 -0.28893723665E+04  0.28905765695E+04  0.80954605753E+02 0.  0.
        -11    1    3    3    0    0 -0.91356189588E+01  0.37755844030E+02 -0.69082771793E+03  0.69191899753E+03  0.00000000000E+00 0.  1.
         12    1    3    3    0    0  0.13143570019E+02 -0.17994265080E+02 -0.21985446486E+04  0.21986575720E+04  0.00000000000E+00 0. -1.
          1    1    1    2  501    0 -0.40079510605E+01 -0.19761578950E+02 -0.87538811926E+02  0.89831104122E+02  0.00000000000E+00 0. -1.
<mgrwt>
<rscale>  1 0.83428004E+02</rscale>
<asrwt>0</asrwt>
<pdfrwt beam="1">  1       21 0.26896097E-03 0.83428004E+02</pdfrwt>
<pdfrwt beam="2">  1        2 0.45825564E+00 0.83428004E+02</pdfrwt>
<totfact> 0.81738291E+05</totfact>
</mgrwt>
</event>
<event>
 6    2  0.7993170E+000  0.8344550E+02  0.7546771E-02  0.1319549E+00
         21   -1    0    0  501  502  0.00000000000E+00  0.00000000000E+00  0.18509809927E+03  0.18509809927E+03  0.00000000000E+00 0. -1.
         -3   -1    0    0    0  501 -0.00000000000E+00 -0.00000000000E+00 -0.28968498003E+02  0.28968498003E+02  0.00000000000E+00 0.  1.
         24    2    1    2    0    0 -0.22395177166E+02  0.27108424703E+01  0.34389445759E+02  0.90254004657E+02  0.80338401464E+02 0.  0.
        -11    1    3    3    0    0  0.49510092867E-01  0.34709630473E+02  0.37434422323E+02  0.51049944892E+02  0.00000000000E+00 0.  1.
         12    1    3    3    0    0 -0.22444687259E+02 -0.31998788002E+02 -0.30449765646E+01  0.39204059765E+02  0.00000000000E+00 0. -1.
         -4    1    1    2    0  502  0.22395177166E+02 -0.27108424703E+01  0.12174015551E+03  0.12381259262E+03  0.00000000000E+00 0.  1.
<mgrwt>
<rscale>  1 0.83445499E+02</rscale>
<asrwt>0</asrwt>
<pdfrwt beam="1">  1       21 0.28476630E-01 0.83445499E+02</pdfrwt>
<pdfrwt beam="2">  1       -3 0.44566921E-02 0.83445499E+02</pdfrwt>
<totfact> 0.14405010E+05</totfact>
</mgrwt>
</event>
<event>
 6    2  0.7993170E+000  0.9403083E+02  0.7546771E-02  0.1293374E+00
         21   -1    0    0  501  502  0.00000000000E+00  0.00000000000E+00  0.17976496453E+02  0.17976496453E+02  0.00000000000E+00 0. -1.
          2   -1    0    0  502    0 -0.00000000000E+00 -0.00000000000E+00 -0.95172746291E+03  0.95172746291E+03  0.00000000000E+00 0. -1.
         24    2    1    2    0    0  0.16843755826E+02  0.43038240484E+02 -0.91501487998E+03  0.91983369577E+03  0.81888918878E+02 0.  0.
        -13    1    3    3    0    0 -0.16583470801E+02  0.11900159539E+02 -0.55982563028E+02  0.59587521043E+02  0.00000000000E+00 0.  1.
         14    1    3    3    0    0  0.33427226627E+02  0.31138080946E+02 -0.85903231695E+03  0.86024617472E+03  0.00000000000E+00 0. -1.
          1    1    1    2  501    0 -0.16843755826E+02 -0.43038240484E+02 -0.18736086476E+02  0.49870263592E+02  0.00000000000E+00 0. -1.
<mgrwt>
<rscale>  1 0.94030832E+02</rscale>
<asrwt>0</asrwt>
<pdfrwt beam="1">  1       21 0.27656143E-02 0.94030832E+02</pdfrwt>
<pdfrwt beam="2">  1        2 0.14641964E+00 0.94030832E+02</pdfrwt>
<totfact> 0.25278014E+05</totfact>
</mgrwt>
</event>
<event>
 6    2  0.7993170E+000  0.8497121E+02  0.7546771E-02  0.1315508E+00
         21   -1    0    0  501  502  0.00000000000E+00  0.00000000000E+00  0.38024733469E+01  0.38024733469E+01  0.00000000000E+00 0.  1.
         -3   -1    0    0    0  501 -0.00000000000E+00 -0.00000000000E+00 -0.92379861423E+03  0.92379861423E+03  0.00000000000E+00 0.  1.
         24    2    1    2    0    0 -0.11910226391E+02 -0.28642934504E+02 -0.74997897937E+03  0.75477717026E+03  0.79106485516E+02 0.  0.
        -13    1    3    3    0    0  0.12586110866E+02 -0.57989532881E+01 -0.63156643390E+03  0.63171844873E+03  0.00000000000E+00 0.  1.
         14    1    3    3    0    0 -0.24496337257E+02 -0.22843981216E+02 -0.11841254548E+03  0.12305872152E+03  0.00000000000E+00 0. -1.
         -4    1    1    2    0  502  0.11910226391E+02  0.28642934504E+02 -0.17001716151E+03  0.17282391732E+03  0.00000000000E+00 0.  1.
<mgrwt>
<rscale>  1 0.84971214E+02</rscale>
<asrwt>0</asrwt>
<pdfrwt beam="1">  1       21 0.58499571E-03 0.84971214E+02</pdfrwt>
<pdfrwt beam="2">  1       -3 0.14212291E+00 0.84971214E+02</pdfrwt>
<totfact> 0.15258454E+05</totfact>
</mgrwt>
</event>
<event>
 6    2  0.7993170E+000  0.8596918E+02  0.7546771E-02  0.1312917E+00
         21   -1    0    0  501  502  0.00000000000E+00  0.00000000000E+00  0.54406648537E+01  0.54406648537E+01  0.00000000000E+00 0.  1.
          2   -1    0    0  502    0 -0.00000000000E+00 -0.00000000000E+00 -0.63849578023E+03  0.63849578023E+03  0.00000000000E+00 0. -1.
         24    2    1    2    0    0  0.52651570547E+01 -0.30389752029E+02 -0.42501041052E+03  0.43361797674E+03  0.80246132590E+02 0.  0.
        -11    1    3    3    0    0 -0.22453960660E+02  0.21311816059E+01 -0.37512599289E+02  0.43771193607E+02  0.00000000000E+00 0.  1.
         12    1    3    3    0    0  0.27719117715E+02 -0.32520933634E+02 -0.38749781123E+03  0.38984678313E+03  0.00000000000E+00 0. -1.
          1    1    1    2  501    0 -0.52651570547E+01  0.30389752029E+02 -0.20804470486E+03  0.21031846835E+03  0.00000000000E+00 0. -1.
<mgrwt>
<rscale>  1 0.85969185E+02</rscale>
<asrwt>0</asrwt>
<pdfrwt beam="1">  1       21 0.83702478E-03 0.85969185E+02</pdfrwt>
<pdfrwt beam="2">  1        2 0.98230188E-01 0.85969185E+02</pdfrwt>
<totfact> 0.27097154E+06</totfact>
</mgrwt>
</event>
<event>
 6    2  0.7993170E+000  0.8713371E+02  0.7546771E-02  0.1309945E+00
         -3   -1    0    0    0  501 -0.00000000000E+00  0.00000000000E+00  0.15613034301E+04  0.15613034301E+04  0.00000000000E+00 0.  1.
         21   -1    0    0  501  502  0.00000000000E+00 -0.00000000000E+00 -0.24831614284E+01  0.24831614284E+01  0.00000000000E+00 0.  1.
         24    2    1    2    0    0 -0.22464665559E+02  0.26026090797E+02  0.12565279079E+04  0.12595454207E+04  0.80064130934E+02 0.  0.
        -11    1    3    3    0    0 -0.24068835897E+02  0.48141539229E+02  0.11143296601E+04  0.11156287501E+04  0.00000000000E+00 0.  1.
         12    1    3    3    0    0  0.16041703372E+01 -0.22115448432E+02  0.14219824771E+03  0.14391667059E+03  0.00000000000E+00 0. -1.
         -4    1    1    2    0  502  0.22464665559E+02 -0.26026090797E+02  0.30229236083E+03  0.30424117082E+03  0.00000000000E+00 0.  1.
<mgrwt>
<rscale>  1 0.87133711E+02</rscale>
<asrwt>0</asrwt>
<pdfrwt beam="1">  1       21 0.38202608E-03 0.87133711E+02</pdfrwt>
<pdfrwt beam="2">  1       -3 0.24019974E+00 0.87133711E+02</pdfrwt>
<totfact> 0.73008442E+04</totfact>
</mgrwt>
</event>
<event>
 6    2  0.7993170E+000  0.8435928E+02  0.7546771E-02  0.1317117E+00
         21   -1    0    0  501  502  0.00000000000E+00  0.00000000000E+00  0.33680063683E+03  0.33680063683E+03  0.00000000000E+00 0. -1.
          4   -1    0    0  502    0 -0.00000000000E+00 -0.00000000000E+00 -0.50589468260E+02  0.50589468260E+02  0.00000000000E+00 0. -1.
         24    2    1    2    0    0 -0.25921882770E+02 -0.95494107832E+01 -0.14342267570E+02  0.85569788960E+02  0.79707922385E+02 0.  0.
        -13    1    3    3    0    0 -0.80140277261E+01 -0.56623302068E+01  0.33199166429E+02  0.34618943880E+02  0.00000000000E+00 0.  1.
         14    1    3    3    0    0 -0.17907855044E+02 -0.38870805763E+01 -0.47541433999E+02  0.50950845080E+02  0.00000000000E+00 0. -1.
          3    1    1    2  501    0  0.25921882770E+02  0.95494107832E+01  0.30055343615E+03  0.30182031613E+03  0.00000000000E+00 0. -1.
<mgrwt>
<rscale>  1 0.84359280E+02</rscale>
<asrwt>0</asrwt>
<pdfrwt beam="1">  1       21 0.51815481E-01 0.84359280E+02</pdfrwt>
<pdfrwt beam="2">  1        4 0.77829953E-02 0.84359280E+02</pdfrwt>
<totfact> 0.16032470E+04</totfact>
</mgrwt>
</event>
<event>
 6    2  0.7993170E+000  0.8449010E+02  0.7546771E-02  0.1316771E+00
         -1   -1    0    0    0  501 -0.00000000000E+00  0.00000000000E+00  0.21310885477E+03  0.21310885477E+03  0.00000000000E+00 0.  1.
         21   -1    0    0  501  502  0.00000000000E+00 -0.00000000000E+00 -0.14977847465E+02  0.14977847465E+02  0.00000000000E+00 0.  1.
         24    2    1    2    0    0  0.25967824389E+02  0.84167192849E+01  0.13434008515E+03  0.15870045852E+03  0.79958789324E+02 0.  0.
        -11    1    3    3    0    0  0.81340545789E+01  0.28634969253E+02  0.12744189441E+03  0.13087230708E+03  0.00000000000E+00 0.  1.
         12    1    3    3    0    0  0.17833769810E+02 -0.20218249968E+02  0.68981907353E+01  0.27828151445E+02  0.00000000000E+00 0. -1.
         -2    1    1    2    0  502 -0.25967824389E+02 -0.84167192849E+01  0.63790922153E+02  0.69386243710E+02  0.00000000000E+00 0.  1.
<mgrwt>
<rscale>  1 0.84490100E+02</rscale>
<asrwt>0</asrwt>
<pdfrwt beam="1">  1       21 0.23042844E-02 0.84490100E+02</pdfrwt>
<pdfrwt beam="2">  1       -1 0.32785975E-01 0.84490100E+02</pdfrwt>
<totfact> 0.72245199E+05</totfact>
</mgrwt>
</event>
<event>
 6    2  0.7993170E+000  0.9771526E+02  0.7546771E-02  0.1285175E+00
         21   -1    0    0  501  502  0.00000000000E+00  0.00000000000E+00  0.82572345702E+02  0.82572345702E+02  0.00000000000E+00 0.  1.
          2   -1    0    0  502    0 -0.00000000000E+00 -0.00000000000E+00 -0.72279186614E+02  0.72279186614E+02  0.00000000000E+00 0. -1.
         24    2    1    2    0    0  0.19498034879E+02  0.52792856666E+02  0.12609464582E+02  0.98525478396E+02  0.79881238204E+02 0.  0.
        -11    1    3    3    0    0 -0.46007286821E+01  0.21636004851E+01  0.37022088336E+02  0.37369545036E+02  0.00000000000E+00 0.  1.
         12    1    3    3    0    0  0.24098763562E+02  0.50629256181E+02 -0.24412623754E+02  0.61155933360E+02  0.00000000000E+00 0. -1.
          1    1    1    2  501    0 -0.19498034879E+02 -0.52792856666E+02 -0.23163054943E+01  0.56326053920E+02  0.00000000000E+00 0. -1.
<mgrwt>
<rscale>  1 0.97715256E+02</rscale>
<asrwt>0</asrwt>
<pdfrwt beam="1">  1       21 0.12703438E-01 0.97715256E+02</pdfrwt>
<pdfrwt beam="2">  1        2 0.11119875E-01 0.97715256E+02</pdfrwt>
<totfact> 0.34415525E+05</totfact>
</mgrwt>
</event>
<event>
 6    2  0.7993170E+000  0.8482937E+02  0.7546771E-02  0.1315879E+00
         21   -1    0    0  501  502  0.00000000000E+00  0.00000000000E+00  0.42334707345E+01  0.42334707345E+01  0.00000000000E+00 0.  1.
         -1   -1    0    0    0  501 -0.00000000000E+00 -0.00000000000E+00 -0.10423895128E+04  0.10423895128E+04  0.00000000000E+00 0.  1.
         24    2    1    2    0    0  0.17778545336E+02  0.10773296911E+02 -0.99614179037E+03  0.99974721212E+03  0.82242817431E+02 0.  0.
        -11    1    3    3    0    0 -0.27264673361E+02  0.20768258074E+02 -0.58966380953E+03  0.59065903127E+03  0.00000000000E+00 0.  1.
         12    1    3    3    0    0  0.45043218698E+02 -0.99949611636E+01 -0.40647798084E+03  0.40908818085E+03  0.00000000000E+00 0. -1.
         -2    1    1    2    0  502 -0.17778545336E+02 -0.10773296911E+02 -0.42014251737E+02  0.46875771456E+02  0.00000000000E+00 0.  1.
<mgrwt>
<rscale>  1 0.84829368E+02</rscale>
<asrwt>0</asrwt>
<pdfrwt beam="1">  1       21 0.65130366E-03 0.84829368E+02</pdfrwt>
<pdfrwt beam="2">  1       -1 0.16036750E+00 0.84829368E+02</pdfrwt>
<totfact> 0.21001426E+05</totfact>
</mgrwt>
</event>
<event>
 6    2  0.7993170E+000  0.8321904E+02  0.7546771E-02  0.1320157E+00
          2   -1    0    0  502    0 -0.00000000000E+00  0.00000000000E+00  0.12726865992E+03  0.12726865992E+03  0.00000000000E+00 0. -1.
         21   -1    0    0  501  502  0.00000000000E+00 -0.00000000000E+00 -0.27801188057E+02  0.27801188057E+02  0.00000000000E+00 0. -1.
         24    2    1    2    0    0  0.10677586901E+02  0.18954327066E+02  0.10364248361E+03  0.13291791579E+03  0.80325155172E+02 0.  0.
        -11    1    3    3    0    0  0.29519703972E+02 -0.14826633287E+02  0.15152625865E+02  0.36343418219E+02  0.00000000000E+00 0.  1.
         12    1    3    3    0    0 -0.18842117072E+02  0.33780960354E+02  0.88489857740E+02  0.96574497571E+02  0.00000000000E+00 0. -1.
          1    1    1    2  501    0 -0.10677586901E+02 -0.18954327066E+02 -0.41750117419E+01  0.22151932187E+02  0.00000000000E+00 0. -1.
<mgrwt>
<rscale>  1 0.83219036E+02</rscale>
<asrwt>0</asrwt>
<pdfrwt beam="1">  1       21 0.42771059E-02 0.83219036E+02</pdfrwt>
<pdfrwt beam="2">  1        2 0.19579794E-01 0.83219036E+02</pdfrwt>
<totfact> 0.11218632E+06</totfact>
</mgrwt>
</event>
<event>
 6    2  0.7993170E+000  0.8384686E+02  0.7546771E-02  0.1318476E+00
         21   -1    0    0  501  502  0.00000000000E+00  0.00000000000E+00  0.16511488663E+02  0.16511488663E+02  0.00000000000E+00 0. -1.
          2   -1    0    0  502    0 -0.00000000000E+00 -0.00000000000E+00 -0.17275485632E+03  0.17275485632E+03  0.00000000000E+00 0. -1.
         24    2    1    2    0    0 -0.20934678396E+02  0.63368402576E+01 -0.13399934423E+03  0.15806998490E+03  0.80943681467E+02 0.  0.
        -11    1    3    3    0    0  0.22171368650E+02 -0.22784682062E+02 -0.53028046638E+02  0.61827866329E+02  0.00000000000E+00 0.  1.
         12    1    3    3    0    0 -0.43106047046E+02  0.29121522320E+02 -0.80971297593E+02  0.96242118576E+02  0.00000000000E+00 0. -1.
          1    1    1    2  501    0  0.20934678396E+02 -0.63368402576E+01 -0.22244023427E+02  0.31196360080E+02  0.00000000000E+00 0. -1.
<mgrwt>
<rscale>  1 0.83846860E+02</rscale>
<asrwt>0</asrwt>
<pdfrwt beam="1">  1       21 0.25402289E-02 0.83846860E+02</pdfrwt>
<pdfrwt beam="2">  1        2 0.26577671E-01 0.83846860E+02</pdfrwt>
<totfact> 0.18764188E+06</totfact>
</mgrwt>
</event>
<event>
 6    2  0.7993170E+000  0.1122722E+03  0.7546771E-02  0.1256419E+00
         -1   -1    0    0    0  501 -0.00000000000E+00  0.00000000000E+00  0.27405135766E+02  0.27405135766E+02  0.00000000000E+00 0.  1.
         21   -1    0    0  501  502  0.00000000000E+00 -0.00000000000E+00 -0.33233594005E+03  0.33233594005E+03  0.00000000000E+00 0.  1.
         24    2    1    2    0    0 -0.49844603174E+02 -0.58378211741E+02 -0.15611856234E+03  0.19229680621E+03  0.81930190404E+02 0.  0.
        -13    1    3    3    0    0 -0.41083739500E+02 -0.70849189019E+02 -0.79366290711E+02  0.11404599659E+03  0.00000000000E+00 0.  1.
         14    1    3    3    0    0 -0.87608636740E+01  0.12470977279E+02 -0.76752271627E+02  0.78250809622E+02  0.00000000000E+00 0. -1.
         -2    1    1    2    0  502  0.49844603174E+02  0.58378211741E+02 -0.14881224195E+03  0.16744426961E+03  0.00000000000E+00 0.  1.
<mgrwt>
<rscale>  1 0.11227224E+03</rscale>
<asrwt>0</asrwt>
<pdfrwt beam="1">  1       21 0.51128602E-01 0.11227224E+03</pdfrwt>
<pdfrwt beam="2">  1       -1 0.42161751E-02 0.11227224E+03</pdfrwt>
<totfact> 0.71528391E+04</totfact>
</mgrwt>
</event>
<event>
 6    2  0.7993170E+000  0.9139427E+02  0.7546771E-02  0.1299510E+00
         21   -1    0    0  501  502  0.00000000000E+00  0.00000000000E+00  0.11471207017E+02  0.11471207017E+02  0.00000000000E+00 0. -1.
          2   -1    0    0  502    0 -0.00000000000E+00 -0.00000000000E+00 -0.39945707238E+03  0.39945707238E+03  0.00000000000E+00 0. -1.
         24    2    1    2    0    0 -0.43630340608E+02  0.13542562775E+01 -0.27583152230E+03  0.29057863337E+03  0.80296157090E+02 0.  0.
        -11    1    3    3    0    0  0.22622100948E+02 -0.71716681403E+01 -0.55963780161E+02  0.60787638259E+02  0.00000000000E+00 0.  1.
         12    1    3    3    0    0 -0.66252441555E+02  0.85259244178E+01 -0.21986774214E+03  0.22979099511E+03  0.00000000000E+00 0. -1.
          1    1    1    2  501    0  0.43630340608E+02 -0.13542562775E+01 -0.11215434306E+03  0.12034964603E+03  0.00000000000E+00 0. -1.
<mgrwt>
<rscale>  1 0.91394275E+02</rscale>
<asrwt>0</asrwt>
<pdfrwt beam="1">  1       21 0.17648012E-02 0.91394275E+02</pdfrwt>
<pdfrwt beam="2">  1        2 0.61454929E-01 0.91394275E+02</pdfrwt>
<totfact> 0.14050071E+06</totfact>
</mgrwt>
</event>
<event>
 6    2  0.7993170E+000  0.8601619E+02  0.7546771E-02  0.1312796E+00
         -1   -1    0    0    0  501 -0.00000000000E+00  0.00000000000E+00  0.74323204725E+02  0.74323204725E+02  0.00000000000E+00 0.  1.
         21   -1    0    0  501  502  0.00000000000E+00 -0.00000000000E+00 -0.53796890745E+02  0.53796890745E+02  0.00000000000E+00 0. -1.
         24    2    1    2    0    0  0.22658088522E+02 -0.98349122275E+01  0.41695623985E+02  0.95589276850E+02  0.82393387570E+02 0.  0.
        -13    1    3    3    0    0 -0.10497982674E+02 -0.35189864851E+02  0.39291223363E+02  0.53780428241E+02  0.00000000000E+00 0.  1.
         14    1    3    3    0    0  0.33156071196E+02  0.25354952623E+02  0.24044006222E+01  0.41808848609E+02  0.00000000000E+00 0. -1.
         -2    1    1    2    0  502 -0.22658088522E+02  0.98349122275E+01 -0.21169310005E+02  0.32530818620E+02  0.00000000000E+00 0.  1.
<mgrwt>
<rscale>  1 0.86016189E+02</rscale>
<asrwt>0</asrwt>
<pdfrwt beam="1">  1       21 0.82764447E-02 0.86016189E+02</pdfrwt>
<pdfrwt beam="2">  1       -1 0.11434339E-01 0.86016189E+02</pdfrwt>
<totfact> 0.46530440E+05</totfact>
</mgrwt>
</event>
<event>
 6    2  0.7993170E+000  0.9545794E+02  0.7546771E-02  0.1290148E+00
         21   -1    0    0  501  502  0.00000000000E+00  0.00000000000E+00  0.32665909105E+01  0.32665909105E+01  0.00000000000E+00 0.  1.
          2   -1    0    0  502    0 -0.00000000000E+00 -0.00000000000E+00 -0.18527606174E+04  0.18527606174E+04  0.00000000000E+00 0. -1.
         24    2    1    2    0    0 -0.15328935046E+02  0.54374446936E+02 -0.95770566890E+03  0.96245122863E+03  0.76945841470E+02 0.  0.
        -11    1    3    3    0    0 -0.13424638004E+02  0.73680472438E+02 -0.69285357544E+03  0.69688959665E+03  0.00000000000E+00 0.  1.
         12    1    3    3    0    0 -0.19042970420E+01 -0.19306025502E+02 -0.26485209346E+03  0.26556163198E+03  0.00000000000E+00 0. -1.
          1    1    1    2  501    0  0.15328935046E+02 -0.54374446936E+02 -0.89178835759E+03  0.89357597968E+03  0.00000000000E+00 0. -1.
<mgrwt>
<rscale>  1 0.95457945E+02</rscale>
<asrwt>0</asrwt>
<pdfrwt beam="1">  1       21 0.50255304E-03 0.95457945E+02</pdfrwt>
<pdfrwt beam="2">  1        2 0.28503976E+00 0.95457945E+02</pdfrwt>
<totfact> 0.12353973E+06</totfact>
</mgrwt>
</event>
<event>
 6    2  0.7993170E+000  0.8213189E+02  0.7546771E-02  0.1323108E+00
         21   -1    0    0  501  502  0.00000000000E+00  0.00000000000E+00  0.52885198945E+02  0.52885198945E+02  0.00000000000E+00 0.  1.
          2   -1    0    0  502    0 -0.00000000000E+00 -0.00000000000E+00 -0.76128861440E+02  0.76128861440E+02  0.00000000000E+00 0. -1.
         24    2    1    2    0    0  0.20697423820E+02  0.97070872453E+00 -0.49247095769E+02  0.95764937535E+02  0.79475286670E+02 0.  0.
        -11    1    3    3    0    0  0.74617368013E+01  0.38301755492E+02 -0.38288108133E+02  0.54668832201E+02  0.00000000000E+00 0.  1.
         12    1    3    3    0    0  0.13235687019E+02 -0.37331046768E+02 -0.10958987636E+02  0.41096105334E+02  0.00000000000E+00 0. -1.
          1    1    1    2  501    0 -0.20697423820E+02 -0.97070872453E+00  0.26003433274E+02  0.33249122850E+02  0.00000000000E+00 0. -1.
<mgrwt>
<rscale>  1 0.82131887E+02</rscale>
<asrwt>0</asrwt>
<pdfrwt beam="1">  1       21 0.81361845E-02 0.82131887E+02</pdfrwt>
<pdfrwt beam="2">  1        2 0.11712133E-01 0.82131887E+02</pdfrwt>
<totfact> 0.68935050E+05</totfact>
</mgrwt>
</event>
<event>
 6    2  0.7993170E+000  0.8482295E+02  0.7546771E-02  0.1315896E+00
         21   -1    0    0  501  502  0.00000000000E+00  0.00000000000E+00  0.26398733534E+02  0.26398733534E+02  0.00000000000E+00 0.  1.
         -1   -1    0    0    0  501 -0.00000000000E+00 -0.00000000000E+00 -0.33592714878E+03  0.33592714878E+03  0.00000000000E+00 0.  1.
         24    2    1    2    0    0  0.61549283865E+01 -0.21040059631E+02 -0.32474526233E+03  0.33564031153E+03  0.81941235436E+02 0.  0.
        -13    1    3    3    0    0 -0.29353191360E+01  0.14406312013E+02 -0.26615918492E+03  0.26656494451E+03  0.00000000000E+00 0.  1.
         14    1    3    3    0    0  0.90902475225E+01 -0.35446371644E+02 -0.58586077419E+02  0.69075367028E+02  0.00000000000E+00 0. -1.
         -2    1    1    2    0  502 -0.61549283865E+01  0.21040059631E+02  0.15216847087E+02  0.26685570782E+02  0.00000000000E+00 0.  1.
<mgrwt>
<rscale>  1 0.84822953E+02</rscale>
<asrwt>0</asrwt>
<pdfrwt beam="1">  1       21 0.40613435E-02 0.84822953E+02</pdfrwt>
<pdfrwt beam="2">  1       -1 0.51681101E-01 0.84822953E+02</pdfrwt>
<totfact> 0.13028535E+05</totfact>
</mgrwt>
</event>
<event>
 6    2  0.7993170E+000  0.8555735E+02  0.7546771E-02  0.1313981E+00
          2   -1    0    0  502    0 -0.00000000000E+00  0.00000000000E+00  0.29467783864E+02  0.29467783864E+02  0.00000000000E+00 0. -1.
         21   -1    0    0  501  502  0.00000000000E+00 -0.00000000000E+00 -0.17263313897E+03  0.17263313897E+03  0.00000000000E+00 0. -1.
         24    2    1    2    0    0 -0.11951452678E+02 -0.23152554699E+02 -0.37753662355E+02  0.93516840305E+02  0.81493449977E+02 0.  0.
        -13    1    3    3    0    0  0.35167008342E+02 -0.87806504569E+01 -0.14440492285E+02  0.39017254076E+02  0.00000000000E+00 0.  1.
         14    1    3    3    0    0 -0.47118461020E+02 -0.14371904242E+02 -0.23313170071E+02  0.54499586229E+02  0.00000000000E+00 0. -1.
          1    1    1    2  501    0  0.11951452678E+02  0.23152554699E+02 -0.10541169275E+03  0.10858408253E+03  0.00000000000E+00 0. -1.
<mgrwt>
<rscale>  1 0.85557352E+02</rscale>
<asrwt>0</asrwt>
<pdfrwt beam="1">  1       21 0.26558945E-01 0.85557352E+02</pdfrwt>
<pdfrwt beam="2">  1        2 0.45335052E-02 0.85557352E+02</pdfrwt>
<totfact> 0.27371492E+05</totfact>
</mgrwt>
</event>
<event>
 6    2  0.7993170E+000  0.9191504E+02  0.7546771E-02  0.1298279E+00
          2   -1    0    0  502    0 -0.00000000000E+00  0.00000000000E+00  0.97719752519E+03  0.97719752519E+03  0.00000000000E+00 0. -1.
         21   -1    0    0  501  502  0.00000000000E+00 -0.00000000000E+00 -0.91967068670E+01  0.91967068670E+01  0.00000000000E+00 0. -1.
         24    2    1    2    0    0 -0.43994590040E+02  0.25137771764E+01  0.90417042205E+03  0.90883030670E+03  0.80663072321E+02 0.  0.
        -11    1    3    3    0    0  0.45349706825E+01  0.29605822769E+02  0.17498553256E+03  0.17753029969E+03  0.00000000000E+00 0.  1.
         12    1    3    3    0    0 -0.48529560722E+02 -0.27092045593E+02  0.72918488949E+03  0.73130000701E+03  0.00000000000E+00 0. -1.
          1    1    1    2  501    0  0.43994590040E+02 -0.25137771764E+01  0.63830396269E+02  0.77563925354E+02  0.00000000000E+00 0. -1.
<mgrwt>
<rscale>  1 0.91915038E+02</rscale>
<asrwt>0</asrwt>
<pdfrwt beam="1">  1       21 0.14148788E-02 0.91915038E+02</pdfrwt>
<pdfrwt beam="2">  1        2 0.15033800E+00 0.91915038E+02</pdfrwt>
<totfact> 0.71264988E+05</totfact>
</mgrwt>
</event>
<event>
 6    2  0.7993170E+000  0.8156315E+02  0.7546771E-02  0.1324673E+00
         21   -1    0    0  501  502  0.00000000000E+00  0.00000000000E+00  0.10927770881E+03  0.10927770881E+03  0.00000000000E+00 0.  1.
         -1   -1    0    0    0  501 -0.00000000000E+00 -0.00000000000E+00 -0.47679849320E+02  0.47679849320E+02  0.00000000000E+00 0.  1.
         24    2    1    2    0    0  0.86811935751E+01 -0.19655856891E+02 -0.10028667662E+02  0.82177378779E+02  0.78681837649E+02 0.  0.
        -13    1    3    3    0    0  0.37311690593E+02 -0.11280906666E+02  0.16432710868E+02  0.42301951452E+02  0.00000000000E+00 0.  1.
         14    1    3    3    0    0 -0.28630497018E+02 -0.83749502255E+01 -0.26461378530E+02  0.39875427327E+02  0.00000000000E+00 0. -1.
         -2    1    1    2    0  502 -0.86811935751E+01  0.19655856891E+02  0.71626527155E+02  0.74780179354E+02  0.00000000000E+00 0.  1.
<mgrwt>
<rscale>  1 0.81563150E+02</rscale>
<asrwt>0</asrwt>
<pdfrwt beam="1">  1       21 0.16811955E-01 0.81563150E+02</pdfrwt>
<pdfrwt beam="2">  1       -1 0.73353615E-02 0.81563150E+02</pdfrwt>
<totfact> 0.26047766E+05</totfact>
</mgrwt>
</event>
<event>
 6    2  0.7993170E+000  0.8398665E+02  0.7546771E-02  0.1318104E+00
         21   -1    0    0  501  502  0.00000000000E+00  0.00000000000E+00  0.16569651748E+01  0.16569651748E+01  0.00000000000E+00 0. -1.
          2   -1    0    0  502    0 -0.00000000000E+00 -0.00000000000E+00 -0.31369074922E+04  0.31369074922E+04  0.00000000000E+00 0. -1.
         24    2    1    2    0    0 -0.16546380419E+02  0.53219444979E+02 -0.22455478977E+04  0.22471179584E+04  0.62830452496E+02 0.  0.
        -13    1    3    3    0    0 -0.18977672752E+02 -0.66589491075E+01 -0.31580830500E+03  0.31644806711E+03  0.00000000000E+00 0.  1.
         14    1    3    3    0    0  0.24312923335E+01  0.59878394086E+02 -0.19297395927E+04  0.19306698913E+04  0.00000000000E+00 0. -1.
          1    1    1    2  501    0  0.16546380419E+02 -0.53219444979E+02 -0.88970262931E+03  0.89144649903E+03  0.00000000000E+00 0. -1.
<mgrwt>
<rscale>  1 0.83986652E+02</rscale>
<asrwt>0</asrwt>
<pdfrwt beam="1">  1       21 0.25491999E-03 0.83986652E+02</pdfrwt>
<pdfrwt beam="2">  1        2 0.48259685E+00 0.83986652E+02</pdfrwt>
<totfact> 0.71893799E+05</totfact>
</mgrwt>
</event>
<event>
 6    2  0.7993170E+000  0.8362174E+02  0.7546771E-02  0.1319077E+00
          2   -1    0    0  502    0 -0.00000000000E+00  0.00000000000E+00  0.21155193597E+03  0.21155193597E+03  0.00000000000E+00 0. -1.
         21   -1    0    0  501  502  0.00000000000E+00 -0.00000000000E+00 -0.11515921437E+03  0.11515921437E+03  0.00000000000E+00 0. -1.
         24    2    1    2    0    0 -0.22686035495E+02 -0.17980961373E+01  0.20202913958E+03  0.21865124954E+03  0.80465559911E+02 0.  0.
        -11    1    3    3    0    0  0.40002749355E+01  0.31840186853E+02  0.41392946890E+02  0.52375335327E+02  0.00000000000E+00 0.  1.
         12    1    3    3    0    0 -0.26686310430E+02 -0.33638282990E+02  0.16063619269E+03  0.16627591421E+03  0.00000000000E+00 0. -1.
          1    1    1    2  501    0  0.22686035495E+02  0.17980961373E+01 -0.10563641798E+03  0.10805990080E+03  0.00000000000E+00 0. -1.
<mgrwt>
<rscale>  1 0.83621742E+02</rscale>
<asrwt>0</asrwt>
<pdfrwt beam="1">  1       21 0.17716802E-01 0.83621742E+02</pdfrwt>
<pdfrwt beam="2">  1        2 0.32546452E-01 0.83621742E+02</pdfrwt>
<totfact> 0.56252872E+04</totfact>
</mgrwt>
</event>
<event>
 6    2  0.7993170E+000  0.1286222E+03  0.7546771E-02  0.1229515E+00
         21   -1    0    0  501  502  0.00000000000E+00  0.00000000000E+00  0.19434085831E+03  0.19434085831E+03  0.00000000000E+00 0.  1.
         -3   -1    0    0    0  501 -0.00000000000E+00 -0.00000000000E+00 -0.78159375181E+02  0.78159375181E+02  0.00000000000E+00 0.  1.
         24    2    1    2    0    0  0.33924072371E+02 -0.94332397840E+02  0.14044045440E+02  0.12938664173E+03  0.80586747532E+02 0.  0.
        -11    1    3    3    0    0  0.48780328157E+02 -0.10066515605E+03  0.80150066212E+01  0.11214826966E+03  0.00000000000E+00 0.  1.
         12    1    3    3    0    0 -0.14856255786E+02  0.63327582085E+01  0.60290388184E+01  0.17238372068E+02  0.00000000000E+00 0. -1.
         -4    1    1    2    0  502 -0.33924072371E+02  0.94332397840E+02  0.10213743769E+03  0.14311359176E+03  0.00000000000E+00 0.  1.
<mgrwt>
<rscale>  1 0.12862219E+03</rscale>
<asrwt>0</asrwt>
<pdfrwt beam="1">  1       21 0.29898593E-01 0.12862219E+03</pdfrwt>
<pdfrwt beam="2">  1       -3 0.12024519E-01 0.12862219E+03</pdfrwt>
<totfact> 0.27837098E+04</totfact>
</mgrwt>
</event>
<event>
 6    2  0.7993170E+000  0.8957382E+02  0.7546771E-02  0.1303887E+00
         21   -1    0    0  501  502  0.00000000000E+00  0.00000000000E+00  0.16651426791E+02  0.16651426791E+02  0.00000000000E+00 0. -1.
          2   -1    0    0  502    0 -0.00000000000E+00 -0.00000000000E+00 -0.18549927997E+04  0.18549927997E+04  0.00000000000E+00 0. -1.
         24    2    1    2    0    0 -0.36094078744E+02  0.12799540786E+02 -0.18303279594E+04  0.18325184605E+04  0.80974430928E+02 0.  0.
        -13    1    3    3    0    0 -0.18730502498E+02  0.22812540055E+02 -0.20976329543E+03  0.21182984638E+03  0.00000000000E+00 0.  1.
         14    1    3    3    0    0 -0.17363576246E+02 -0.10012999270E+02 -0.16205646640E+04  0.16206886142E+04  0.00000000000E+00 0. -1.
          1    1    1    2  501    0  0.36094078744E+02 -0.12799540786E+02 -0.80134134914E+01  0.39125765942E+02  0.00000000000E+00 0. -1.
<mgrwt>
<rscale>  1 0.89573820E+02</rscale>
<asrwt>0</asrwt>
<pdfrwt beam="1">  1       21 0.25617599E-02 0.89573820E+02</pdfrwt>
<pdfrwt beam="2">  1        2 0.28538329E+00 0.89573820E+02</pdfrwt>
<totfact> 0.95143727E+04</totfact>
</mgrwt>
</event>
<event>
 6    2  0.7993170E+000  0.1037285E+03  0.7546771E-02  0.1272645E+00
          2   -1    0    0  502    0 -0.00000000000E+00  0.00000000000E+00  0.29334878333E+03  0.29334878333E+03  0.00000000000E+00 0. -1.
         21   -1    0    0  501  502  0.00000000000E+00 -0.00000000000E+00 -0.44685282415E+02  0.44685282415E+02  0.00000000000E+00 0. -1.
         24    2    1    2    0    0  0.49560949382E+02  0.41889174006E+02  0.25255350706E+03  0.27302542978E+03  0.80923548936E+02 0.  0.
        -11    1    3    3    0    0  0.52769905989E+02 -0.76336033454E+01  0.14746626106E+03  0.15680954380E+03  0.00000000000E+00 0.  1.
         12    1    3    3    0    0 -0.32089566075E+01  0.49522777351E+02  0.10508724601E+03  0.11621588597E+03  0.00000000000E+00 0. -1.
          1    1    1    2  501    0 -0.49560949382E+02 -0.41889174006E+02 -0.38900061492E+01  0.65008635967E+02  0.00000000000E+00 0. -1.
<mgrwt>
<rscale>  1 0.10372855E+03</rscale>
<asrwt>0</asrwt>
<pdfrwt beam="1">  1       21 0.68746590E-02 0.10372855E+03</pdfrwt>
<pdfrwt beam="2">  1        2 0.45130581E-01 0.10372855E+03</pdfrwt>
<totfact> 0.21062725E+05</totfact>
</mgrwt>
</event>
<event>
 6    2  0.7993170E+000  0.8535571E+02  0.7546771E-02  0.1314505E+00
         21   -1    0    0  501  502  0.00000000000E+00  0.00000000000E+00  0.24559720445E+01  0.24559720445E+01  0.00000000000E+00 0.  1.
          2   -1    0    0  502    0 -0.00000000000E+00 -0.00000000000E+00 -0.14203560309E+04  0.14203560309E+04  0.00000000000E+00 0. -1.
         24    2    1    2    0    0 -0.20914780877E+01 -0.30881760667E+02 -0.11407533511E+04  0.11439422214E+04  0.79545838994E+02 0.  0.
        -11    1    3    3    0    0 -0.82040697703E-01 -0.57052182797E+02 -0.88763978181E+03  0.88947138265E+03  0.00000000000E+00 0.  1.
         12    1    3    3    0    0 -0.20094373900E+01  0.26170422130E+02 -0.25311356928E+03  0.25447083878E+03  0.00000000000E+00 0. -1.
          1    1    1    2  501    0  0.20914780877E+01  0.30881760667E+02 -0.27714670780E+03  0.27886978156E+03  0.00000000000E+00 0. -1.
<mgrwt>
<rscale>  1 0.85355714E+02</rscale>
<asrwt>0</asrwt>
<pdfrwt beam="1">  1       21 0.37784103E-03 0.85355714E+02</pdfrwt>
<pdfrwt beam="2">  1        2 0.21851679E+00 0.85355714E+02</pdfrwt>
<totfact> 0.31336543E+06</totfact>
</mgrwt>
</event>
<event>
 6    2  0.7993170E+000  0.8308469E+02  0.7546771E-02  0.1320519E+00
          2   -1    0    0  502    0 -0.00000000000E+00  0.00000000000E+00  0.36047463388E+03  0.36047463388E+03  0.00000000000E+00 0. -1.
         21   -1    0    0  501  502  0.00000000000E+00 -0.00000000000E+00 -0.76989884212E+01  0.76989884212E+01  0.00000000000E+00 0.  1.
         24    2    1    2    0    0 -0.21706906134E+02  0.45738462162E+01  0.28458969569E+03  0.29646983168E+03  0.80068447981E+02 0.  0.
        -11    1    3    3    0    0 -0.20146844774E+02  0.38764204533E+02  0.10634260181E+03  0.11496655108E+03  0.00000000000E+00 0.  1.
         12    1    3    3    0    0 -0.15600613596E+01 -0.34190358316E+02  0.17824709387E+03  0.18150328060E+03  0.00000000000E+00 0. -1.
          1    1    1    2  501    0  0.21706906134E+02 -0.45738462162E+01  0.68185949769E+02  0.71703790619E+02  0.00000000000E+00 0. -1.
<mgrwt>
<rscale>  1 0.83084693E+02</rscale>
<asrwt>0</asrwt>
<pdfrwt beam="1">  1       21 0.11844600E-02 0.83084693E+02</pdfrwt>
<pdfrwt beam="2">  1        2 0.55457623E-01 0.83084693E+02</pdfrwt>
<totfact> 0.29046623E+06</totfact>
</mgrwt>
</event>
<event>
 6    2  0.7993170E+000  0.8730730E+02  0.7546771E-02  0.1309507E+00
          2   -1    0    0  502    0 -0.00000000000E+00  0.00000000000E+00  0.15209459231E+04  0.15209459231E+04  0.00000000000E+00 0. -1.
         21   -1    0    0  501  502  0.00000000000E+00 -0.00000000000E+00 -0.22495586918E+01  0.22495586918E+01  0.00000000000E+00 0.  1.
         24    2    1    2    0    0  0.16834034906E+02 -0.17834621595E+02  0.13375629086E+04  0.13404093027E+04  0.83792039057E+02 0.  0.
        -11    1    3    3    0    0  0.67535033241E+01 -0.28843286298E+02  0.15806473804E+03  0.16081668565E+03  0.00000000000E+00 0.  1.
         12    1    3    3    0    0  0.10080531582E+02  0.11008664704E+02  0.11794981706E+04  0.11795926171E+04  0.00000000000E+00 0. -1.
          1    1    1    2  501    0 -0.16834034906E+02  0.17834621595E+02  0.18113345581E+03  0.18278617911E+03  0.00000000000E+00 0. -1.
<mgrwt>
<rscale>  1 0.87307298E+02</rscale>
<asrwt>0</asrwt>
<pdfrwt beam="1">  1       21 0.34608717E-03 0.87307298E+02</pdfrwt>
<pdfrwt beam="2">  1        2 0.23399086E+00 0.87307298E+02</pdfrwt>
<totfact> 0.31868847E+06</totfact>
</mgrwt>
</event>
<event>
 6    2  0.7993170E+000  0.8453879E+02  0.7546771E-02  0.1316643E+00
         -1   -1    0    0    0  501 -0.00000000000E+00  0.00000000000E+00  0.10294655868E+03  0.10294655868E+03  0.00000000000E+00 0.  1.
         21   -1    0    0  501  502  0.00000000000E+00 -0.00000000000E+00 -0.34282667973E+02  0.34282667973E+02  0.00000000000E+00 0. -1.
         24    2    1    2    0    0 -0.26680300901E+02 -0.53615217169E+00  0.71058887103E+02  0.11043628126E+03  0.80216462563E+02 0.  0.
        -11    1    3    3    0    0 -0.44320496922E+01 -0.26173104507E+02  0.71730616702E+02  0.76485003997E+02  0.00000000000E+00 0.  1.
         12    1    3    3    0    0 -0.22248251209E+02  0.25636952335E+02 -0.67172959867E+00  0.33951277259E+02  0.00000000000E+00 0. -1.
         -2    1    1    2    0  502  0.26680300901E+02  0.53615217169E+00 -0.23949963950E+01  0.26792945397E+02  0.00000000000E+00 0.  1.
<mgrwt>
<rscale>  1 0.84538789E+02</rscale>
<asrwt>0</asrwt>
<pdfrwt beam="1">  1       21 0.52742567E-02 0.84538789E+02</pdfrwt>
<pdfrwt beam="2">  1       -1 0.15837932E-01 0.84538789E+02</pdfrwt>
<totfact> 0.60211661E+05</totfact>
</mgrwt>
</event>
<event>
 6    2  0.7993170E+000  0.1765411E+03  0.7546771E-02  0.1171193E+00
         -3   -1    0    0    0  501 -0.00000000000E+00  0.00000000000E+00  0.13526904939E+04  0.13526904939E+04  0.00000000000E+00 0.  1.
         21   -1    0    0  501  502  0.00000000000E+00 -0.00000000000E+00 -0.40414327323E+02  0.40414327323E+02  0.00000000000E+00 0.  1.
         24    2    1    2    0    0  0.14682537431E+03  0.55411704213E+02  0.11636366906E+04  0.11769524645E+04  0.80861662418E+02 0.  0.
        -11    1    3    3    0    0  0.10554254738E+03  0.43154980116E+01  0.84793170901E+03  0.85448583135E+03  0.00000000000E+00 0.  1.
         12    1    3    3    0    0  0.41282826933E+02  0.51096206201E+02  0.31570498156E+03  0.32246663311E+03  0.00000000000E+00 0. -1.
         -4    1    1    2    0  502 -0.14682537431E+03 -0.55411704213E+02  0.14863947600E+03  0.21615235675E+03  0.00000000000E+00 0.  1.
<mgrwt>
<rscale>  1 0.17654109E+03</rscale>
<asrwt>0</asrwt>
<pdfrwt beam="1">  1       21 0.62175898E-02 0.17654109E+03</pdfrwt>
<pdfrwt beam="2">  1       -3 0.20810620E+00 0.17654109E+03</pdfrwt>
<totfact> 0.13157133E+03</totfact>
</mgrwt>
</event>
<event>
 6    2  0.7993170E+000  0.8956535E+02  0.7546771E-02  0.1303908E+00
          2   -1    0    0  502    0 -0.00000000000E+00  0.00000000000E+00  0.46912072998E+03  0.46912072998E+03  0.00000000000E+00 0. -1.
         21   -1    0    0  501  502  0.00000000000E+00 -0.00000000000E+00 -0.88236026899E+01  0.88236026899E+01  0.00000000000E+00 0.  1.
         24    2    1    2    0    0  0.34791615955E+02  0.13853659987E+02  0.28716161615E+03  0.30080516238E+03  0.81360749042E+02 0.  0.
        -13    1    3    3    0    0 -0.24271855779E+02 -0.93310529567E+01  0.76832971869E+02  0.81114099258E+02  0.00000000000E+00 0.  1.
         14    1    3    3    0    0  0.59063471733E+02  0.23184712943E+02  0.21032864428E+03  0.21969106312E+03  0.00000000000E+00 0. -1.
          1    1    1    2  501    0 -0.34791615955E+02 -0.13853659987E+02  0.17313551114E+03  0.17713917029E+03  0.00000000000E+00 0. -1.
<mgrwt>
<rscale>  1 0.89565350E+02</rscale>
<asrwt>0</asrwt>
<pdfrwt beam="1">  1       21 0.13574777E-02 0.89565350E+02</pdfrwt>
<pdfrwt beam="2">  1        2 0.72172401E-01 0.89565350E+02</pdfrwt>
<totfact> 0.17919426E+06</totfact>
</mgrwt>
</event>
<event>
 6    2  0.7993170E+000  0.8895103E+02  0.7546771E-02  0.1305412E+00
         21   -1    0    0  501  502  0.00000000000E+00  0.00000000000E+00  0.16297564752E+02  0.16297564752E+02  0.00000000000E+00 0. -1.
          2   -1    0    0  502    0 -0.00000000000E+00 -0.00000000000E+00 -0.35639655701E+03  0.35639655701E+03  0.00000000000E+00 0. -1.
         24    2    1    2    0    0  0.32540745435E+01  0.38636846663E+02 -0.31298768625E+03  0.32538220112E+03  0.80055544113E+02 0.  0.
        -13    1    3    3    0    0 -0.37516360959E+02  0.23863549301E+02 -0.13262589092E+03  0.13988056787E+03  0.00000000000E+00 0.  1.
         14    1    3    3    0    0  0.40770435502E+02  0.14773297362E+02 -0.18036179533E+03  0.18550163326E+03  0.00000000000E+00 0. -1.
          1    1    1    2  501    0 -0.32540745435E+01 -0.38636846663E+02 -0.27111306014E+02  0.47311920643E+02  0.00000000000E+00 0. -1.
<mgrwt>
<rscale>  1 0.88951026E+02</rscale>
<asrwt>0</asrwt>
<pdfrwt beam="1">  1       21 0.25073177E-02 0.88951026E+02</pdfrwt>
<pdfrwt beam="2">  1        2 0.54830238E-01 0.88951026E+02</pdfrwt>
<totfact> 0.89946284E+05</totfact>
</mgrwt>
</event>
<event>
 6    2  0.7993170E+000  0.8355000E+02  0.7546771E-02  0.1319269E+00
          2   -1    0    0  502    0 -0.00000000000E+00  0.00000000000E+00  0.44552142419E+03  0.44552142419E+03  0.00000000000E+00 0. -1.
         21   -1    0    0  501  502  0.00000000000E+00 -0.00000000000E+00 -0.15868488690E+02  0.15868488690E+02  0.00000000000E+00 0. -1.
         24    2    1    2    0    0 -0.42124564064E+01 -0.20419673430E+02  0.43236591809E+03  0.44036449668E+03  0.80906705278E+02 0.  0.
        -13    1    3    3    0    0  0.11619656815E+01  0.31404060932E+02  0.16768046371E+03  0.17059983328E+03  0.00000000000E+00 0.  1.
         14    1    3    3    0    0 -0.53744220880E+01 -0.51823734362E+02  0.26468545438E+03  0.26976466339E+03  0.00000000000E+00 0. -1.
          1    1    1    2  501    0  0.42124564064E+01  0.20419673430E+02 -0.27129825876E+01  0.21025416202E+02  0.00000000000E+00 0. -1.
<mgrwt>
<rscale>  1 0.83550002E+02</rscale>
<asrwt>0</asrwt>
<pdfrwt beam="1">  1       21 0.24413063E-02 0.83550002E+02</pdfrwt>
<pdfrwt beam="2">  1        2 0.68541748E-01 0.83550002E+02</pdfrwt>
<totfact> 0.73803986E+05</totfact>
</mgrwt>
</event>
<event>
 6    2  0.7993170E+000  0.9554917E+02  0.7546771E-02  0.1289944E+00
          2   -1    0    0  502    0 -0.00000000000E+00  0.00000000000E+00  0.15221391683E+04  0.15221391683E+04  0.00000000000E+00 0. -1.
         21   -1    0    0  501  502  0.00000000000E+00 -0.00000000000E+00 -0.34968853936E+01  0.34968853936E+01  0.00000000000E+00 0. -1.
         24    2    1    2    0    0  0.30269659427E+02  0.39265200303E+02  0.10723413126E+04  0.10765897706E+04  0.81680078850E+02 0.  0.
        -11    1    3    3    0    0 -0.64652203055E+01  0.39850583798E+02  0.87025705826E+03  0.87119298410E+03  0.00000000000E+00 0.  1.
         12    1    3    3    0    0  0.36734879733E+02 -0.58538349514E+00  0.20208425434E+03  0.20539678652E+03  0.00000000000E+00 0. -1.
          1    1    1    2  501    0 -0.30269659427E+02 -0.39265200303E+02  0.44630097035E+03  0.44904628311E+03  0.00000000000E+00 0. -1.
<mgrwt>
<rscale>  1 0.95549168E+02</rscale>
<asrwt>0</asrwt>
<pdfrwt beam="1">  1       21 0.53798358E-03 0.95549168E+02</pdfrwt>
<pdfrwt beam="2">  1        2 0.23417473E+00 0.95549168E+02</pdfrwt>
<totfact> 0.16344427E+06</totfact>
</mgrwt>
</event>
<event>
 6    2  0.7993170E+000  0.8557099E+02  0.7546771E-02  0.1313946E+00
          2   -1    0    0  502    0 -0.00000000000E+00  0.00000000000E+00  0.66538048700E+03  0.66538048700E+03  0.00000000000E+00 0. -1.
         21   -1    0    0  501  502  0.00000000000E+00 -0.00000000000E+00 -0.44033890478E+02  0.44033890478E+02  0.00000000000E+00 0. -1.
         24    2    1    2    0    0 -0.10160626210E+02 -0.26070449220E+02  0.65786612602E+03  0.66340804440E+03  0.80867094463E+02 0.  0.
        -13    1    3    3    0    0  0.22596825849E+02  0.19178326458E+02  0.21532901315E+03  0.21735916969E+03  0.00000000000E+00 0.  1.
         14    1    3    3    0    0 -0.32757452059E+02 -0.45248775678E+02  0.44253711287E+03  0.44604887471E+03  0.00000000000E+00 0. -1.
          1    1    1    2  501    0  0.10160626210E+02  0.26070449220E+02 -0.36519529502E+02  0.46006333070E+02  0.00000000000E+00 0. -1.
<mgrwt>
<rscale>  1 0.85570986E+02</rscale>
<asrwt>0</asrwt>
<pdfrwt beam="1">  1       21 0.67744452E-02 0.85570986E+02</pdfrwt>
<pdfrwt beam="2">  1        2 0.10236622E+00 0.85570986E+02</pdfrwt>
<totfact> 0.88730821E+04</totfact>
</mgrwt>
</event>
<event>
 6    2  0.7993170E+000  0.8936407E+02  0.7546771E-02  0.1304399E+00
         21   -1    0    0  501  502  0.00000000000E+00  0.00000000000E+00  0.19097090950E+02  0.19097090950E+02  0.00000000000E+00 0.  1.
          4   -1    0    0  502    0 -0.00000000000E+00 -0.00000000000E+00 -0.20611360464E+03  0.20611360464E+03  0.00000000000E+00 0. -1.
         24    2    1    2    0    0 -0.18795653999E+02  0.30715401529E+02 -0.13738137775E+03  0.16388892767E+03  0.81787683434E+02 0.  0.
        -13    1    3    3    0    0  0.14296078346E+02 -0.14256547077E+01  0.42107761697E+01  0.14971338730E+02  0.00000000000E+00 0.  1.
         14    1    3    3    0    0 -0.33091732345E+02  0.32141056237E+02 -0.14159215392E+03  0.14891758894E+03  0.00000000000E+00 0. -1.
          3    1    1    2  501    0  0.18795653999E+02 -0.30715401529E+02 -0.49635135937E+02  0.61321767912E+02  0.00000000000E+00 0. -1.
<mgrwt>
<rscale>  1 0.89364074E+02</rscale>
<asrwt>0</asrwt>
<pdfrwt beam="1">  1       21 0.29380140E-02 0.89364074E+02</pdfrwt>
<pdfrwt beam="2">  1        4 0.31709785E-01 0.89364074E+02</pdfrwt>
<totfact> 0.23216340E+05</totfact>
</mgrwt>
</event>
<event>
 6    2  0.7993170E+000  0.8735821E+02  0.7546771E-02  0.1309378E+00
         21   -1    0    0  501  502  0.00000000000E+00  0.00000000000E+00  0.18459616457E+01  0.18459616457E+01  0.00000000000E+00 0. -1.
          2   -1    0    0  502    0 -0.00000000000E+00 -0.00000000000E+00 -0.22305556055E+04  0.22305556055E+04  0.00000000000E+00 0. -1.
         24    2    1    2    0    0 -0.29279329756E+02 -0.10019782547E+02 -0.19544807191E+04  0.19564320428E+04  0.81693216271E+02 0.  0.
        -11    1    3    3    0    0 -0.22271919269E+02  0.31645514132E+02 -0.57290034846E+03  0.57420578734E+03  0.00000000000E+00 0.  1.
         12    1    3    3    0    0 -0.70074104875E+01 -0.41665296679E+02 -0.13815803706E+04  0.13822262554E+04  0.00000000000E+00 0. -1.
          1    1    1    2  501    0  0.29279329756E+02  0.10019782547E+02 -0.27422892475E+03  0.27596952434E+03  0.00000000000E+00 0. -1.
<mgrwt>
<rscale>  1 0.87358210E+02</rscale>
<asrwt>0</asrwt>
<pdfrwt beam="1">  1       21 0.28399495E-03 0.87358210E+02</pdfrwt>
<pdfrwt beam="2">  1        2 0.34316137E+00 0.87358210E+02</pdfrwt>
<totfact> 0.18893951E+06</totfact>
</mgrwt>
</event>
<event>
 6    2  0.7993170E+000  0.8205326E+02  0.7546771E-02  0.1323324E+00
          2   -1    0    0  502    0 -0.00000000000E+00  0.00000000000E+00  0.24510651069E+03  0.24510651069E+03  0.00000000000E+00 0. -1.
         21   -1    0    0  501  502  0.00000000000E+00 -0.00000000000E+00 -0.18643343851E+02  0.18643343851E+02  0.00000000000E+00 0.  1.
         24    2    1    2    0    0  0.66719496401E+01 -0.28931559722E+02  0.81039734919E+02  0.11532639072E+03  0.76493056559E+02 0.  0.
        -13    1    3    3    0    0  0.40966022963E+02 -0.80837579766E+01  0.37680913075E+02  0.56244229842E+02  0.00000000000E+00 0.  1.
         14    1    3    3    0    0 -0.34294073323E+02 -0.20847801745E+02  0.43358821844E+02  0.59082160881E+02  0.00000000000E+00 0. -1.
          1    1    1    2  501    0 -0.66719496401E+01  0.28931559722E+02  0.14542343192E+03  0.14842346382E+03  0.00000000000E+00 0. -1.
<mgrwt>
<rscale>  1 0.82053262E+02</rscale>
<asrwt>0</asrwt>
<pdfrwt beam="1">  1       21 0.28682069E-02 0.82053262E+02</pdfrwt>
<pdfrwt beam="2">  1        2 0.37708692E-01 0.82053262E+02</pdfrwt>
<totfact> 0.10609441E+06</totfact>
</mgrwt>
</event>
<event>
 6    2  0.7993170E+000  0.1233129E+03  0.7546771E-02  0.1237730E+00
          2   -1    0    0  502    0 -0.00000000000E+00  0.00000000000E+00  0.44684944650E+03  0.44684944650E+03  0.00000000000E+00 0. -1.
         21   -1    0    0  501  502  0.00000000000E+00 -0.00000000000E+00 -0.27267760876E+02  0.27267760876E+02  0.00000000000E+00 0.  1.
         24    2    1    2    0    0 -0.78066497262E+02  0.55131398324E+02  0.20527325033E+03  0.23946436909E+03  0.77924499923E+02 0.  0.
        -13    1    3    3    0    0 -0.58240998007E+02  0.57761676786E+02  0.87231357011E+02  0.11974028061E+03  0.00000000000E+00 0.  1.
         14    1    3    3    0    0 -0.19825499255E+02 -0.26302784620E+01  0.11804189332E+03  0.11972408848E+03  0.00000000000E+00 0. -1.
          1    1    1    2  501    0  0.78066497262E+02 -0.55131398324E+02  0.21430843529E+03  0.23465283828E+03  0.00000000000E+00 0. -1.
<mgrwt>
<rscale>  1 0.12331292E+03</rscale>
<asrwt>0</asrwt>
<pdfrwt beam="1">  1       21 0.41950405E-02 0.12331292E+03</pdfrwt>
<pdfrwt beam="2">  1        2 0.68746064E-01 0.12331292E+03</pdfrwt>
<totfact> 0.31247169E+05</totfact>
</mgrwt>
</event>
<event>
 6    2  0.7993170E+000  0.8387766E+02  0.7546771E-02  0.1318394E+00
          2   -1    0    0  502    0 -0.00000000000E+00  0.00000000000E+00  0.19333297194E+04  0.19333297194E+04  0.00000000000E+00 0. -1.
         21   -1    0    0  501  502  0.00000000000E+00 -0.00000000000E+00 -0.14504193017E+01  0.14504193017E+01  0.00000000000E+00 0. -1.
         24    2    1    2    0    0  0.19843838756E+02  0.84018456152E+01  0.16063087385E+04  0.16084971947E+04  0.81062279342E+02 0.  0.
        -11    1    3    3    0    0 -0.38673525016E+00 -0.23964833816E+02  0.16998913495E+03  0.17167052404E+03  0.00000000000E+00 0.  1.
         12    1    3    3    0    0  0.20230574006E+02  0.32366679431E+02  0.14363196036E+04  0.14368266707E+04  0.00000000000E+00 0. -1.
          1    1    1    2  501    0 -0.19843838756E+02 -0.84018456152E+01  0.32557056163E+03  0.32628294400E+03  0.00000000000E+00 0. -1.
<mgrwt>
<rscale>  1 0.83877661E+02</rscale>
<asrwt>0</asrwt>
<pdfrwt beam="1">  1       21 0.22314298E-03 0.83877661E+02</pdfrwt>
<pdfrwt beam="2">  1        2 0.29743328E+00 0.83877661E+02</pdfrwt>
<totfact> 0.38224156E+06</totfact>
</mgrwt>
</event>
<event>
 6    2  0.7993170E+000  0.8473945E+02  0.7546771E-02  0.1316115E+00
         -1   -1    0    0    0  501 -0.00000000000E+00  0.00000000000E+00  0.37310912465E+02  0.37310912465E+02  0.00000000000E+00 0.  1.
         21   -1    0    0  501  502  0.00000000000E+00 -0.00000000000E+00 -0.13118161487E+03  0.13118161487E+03  0.00000000000E+00 0.  1.
         24    2    1    2    0    0  0.23719575031E+02 -0.12047392160E+02 -0.16044667375E+02  0.86245037244E+02  0.80455063238E+02 0.  0.
        -13    1    3    3    0    0  0.14694404100E+02 -0.42975102990E+02  0.79050761584E+01  0.46100707348E+02  0.00000000000E+00 0.  1.
         14    1    3    3    0    0  0.90251709312E+01  0.30927710830E+02 -0.23949743533E+02  0.40144329897E+02  0.00000000000E+00 0. -1.
         -2    1    1    2    0  502 -0.23719575031E+02  0.12047392160E+02 -0.77826035028E+02  0.82247490088E+02  0.00000000000E+00 0.  1.
<mgrwt>
<rscale>  1 0.84739454E+02</rscale>
<asrwt>0</asrwt>
<pdfrwt beam="1">  1       21 0.20181787E-01 0.84739454E+02</pdfrwt>
<pdfrwt beam="2">  1       -1 0.57401404E-02 0.84739454E+02</pdfrwt>
<totfact> 0.26950797E+05</totfact>
</mgrwt>
</event>
<event>
 6    2  0.7993170E+000  0.8435132E+02  0.7546771E-02  0.1317138E+00
         -1   -1    0    0    0  501 -0.00000000000E+00  0.00000000000E+00  0.55789714814E+02  0.55789714814E+02  0.00000000000E+00 0.  1.
         21   -1    0    0  501  502  0.00000000000E+00 -0.00000000000E+00 -0.63614164508E+02  0.63614164508E+02  0.00000000000E+00 0. -1.
         24    2    1    2    0    0 -0.19816110181E+02  0.89366175446E+01  0.17376809682E+02  0.86122580820E+02  0.81502172097E+02 0.  0.
        -11    1    3    3    0    0 -0.44282226735E+01 -0.22579880827E+00  0.49310674568E+02  0.49509622979E+02  0.00000000000E+00 0.  1.
         12    1    3    3    0    0 -0.15387887507E+02  0.91624163529E+01 -0.31933864886E+02  0.36612957842E+02  0.00000000000E+00 0. -1.
         -2    1    1    2    0  502  0.19816110181E+02 -0.89366175446E+01 -0.25201259376E+02  0.33281298502E+02  0.00000000000E+00 0.  1.
<mgrwt>
<rscale>  1 0.84351321E+02</rscale>
<asrwt>0</asrwt>
<pdfrwt beam="1">  1       21 0.97867945E-02 0.84351321E+02</pdfrwt>
<pdfrwt beam="2">  1       -1 0.85830330E-02 0.84351321E+02</pdfrwt>
<totfact> 0.53626735E+05</totfact>
</mgrwt>
</event>
<event>
 6    2  0.7993170E+000  0.8716474E+02  0.7546771E-02  0.1309867E+00
         21   -1    0    0  501  502  0.00000000000E+00  0.00000000000E+00  0.62751707290E+02  0.62751707290E+02  0.00000000000E+00 0. -1.
          4   -1    0    0  502    0 -0.00000000000E+00 -0.00000000000E+00 -0.77445785900E+02  0.77445785900E+02  0.00000000000E+00 0. -1.
         24    2    1    2    0    0  0.36008841175E+02  0.19771483753E+00 -0.40282086040E+02  0.96022592419E+02  0.79378939683E+02 0.  0.
        -13    1    3    3    0    0 -0.15854385340E+00  0.19070000646E+02  0.17101723268E+02  0.25615600706E+02  0.00000000000E+00 0.  1.
         14    1    3    3    0    0  0.36167385028E+02 -0.18872285808E+02 -0.57383809308E+02  0.70406991713E+02  0.00000000000E+00 0. -1.
          3    1    1    2  501    0 -0.36008841175E+02 -0.19771483753E+00  0.25588007430E+02  0.44174900771E+02  0.00000000000E+00 0. -1.
<mgrwt>
<rscale>  1 0.87164739E+02</rscale>
<asrwt>0</asrwt>
<pdfrwt beam="1">  1       21 0.96541089E-02 0.87164739E+02</pdfrwt>
<pdfrwt beam="2">  1        4 0.11914736E-01 0.87164739E+02</pdfrwt>
<totfact> 0.18090433E+05</totfact>
</mgrwt>
</event>
<event>
 6    2  0.7993170E+000  0.8491632E+02  0.7546771E-02  0.1315652E+00
         21   -1    0    0  501  502  0.00000000000E+00  0.00000000000E+00  0.31963148073E+02  0.31963148073E+02  0.00000000000E+00 0. -1.
          2   -1    0    0  502    0 -0.00000000000E+00 -0.00000000000E+00 -0.74693907226E+03  0.74693907226E+03  0.00000000000E+00 0. -1.
         24    2    1    2    0    0  0.46838447360E+00  0.24507579782E+02 -0.73942292700E+03  0.74428290784E+03  0.81301544094E+02 0.  0.
        -11    1    3    3    0    0 -0.21176386660E+02 -0.14871500072E+02 -0.10036720898E+03  0.10364930055E+03  0.00000000000E+00 0.  1.
         12    1    3    3    0    0  0.21644771134E+02  0.39379079854E+02 -0.63905571802E+03  0.64063360729E+03  0.00000000000E+00 0. -1.
          1    1    1    2  501    0 -0.46838447360E+00 -0.24507579782E+02  0.24447002817E+02  0.34619312493E+02  0.00000000000E+00 0. -1.
<mgrwt>
<rscale>  1 0.84916323E+02</rscale>
<asrwt>0</asrwt>
<pdfrwt beam="1">  1       21 0.49174076E-02 0.84916323E+02</pdfrwt>
<pdfrwt beam="2">  1        2 0.11491370E+00 0.84916323E+02</pdfrwt>
<totfact> 0.13254100E+05</totfact>
</mgrwt>
</event>
<event>
 6    2  0.7993170E+000  0.8041453E+02  0.7546771E-02  0.1327879E+00
          2   -1    0    0  502    0 -0.00000000000E+00  0.00000000000E+00  0.11812145440E+04  0.11812145440E+04  0.00000000000E+00 0. -1.
         21   -1    0    0  501  502  0.00000000000E+00 -0.00000000000E+00 -0.23428896726E+01  0.23428896726E+01  0.00000000000E+00 0.  1.
         24    2    1    2    0    0  0.20256306498E+02  0.60319239730E+01  0.78208269969E+03  0.78620598145E+03  0.77587331803E+02 0.  0.
        -13    1    3    3    0    0  0.21561412832E+02 -0.10720025209E+02  0.71908096219E+02  0.75832629954E+02  0.00000000000E+00 0.  1.
         14    1    3    3    0    0 -0.13051063342E+01  0.16751949182E+02  0.71017460347E+03  0.71037335149E+03  0.00000000000E+00 0. -1.
          1    1    1    2  501    0 -0.20256306498E+02 -0.60319239730E+01  0.39678895460E+03  0.39735145218E+03  0.00000000000E+00 0. -1.
<mgrwt>
<rscale>  1 0.80414527E+02</rscale>
<asrwt>0</asrwt>
<pdfrwt beam="1">  1       21 0.36044551E-03 0.80414527E+02</pdfrwt>
<pdfrwt beam="2">  1        2 0.18172484E+00 0.80414527E+02</pdfrwt>
<totfact> 0.44721521E+06</totfact>
</mgrwt>
</event>
<event>
 6    2  0.7993170E+000  0.1250259E+03  0.7546771E-02  0.1235029E+00
         21   -1    0    0  501  502  0.00000000000E+00  0.00000000000E+00  0.32682426940E+02  0.32682426940E+02  0.00000000000E+00 0.  1.
          2   -1    0    0  502    0 -0.00000000000E+00 -0.00000000000E+00 -0.39757299739E+03  0.39757299739E+03  0.00000000000E+00 0. -1.
         24    2    1    2    0    0 -0.92188264643E+02  0.23408549627E+02 -0.26100661234E+03  0.28940616773E+03  0.81147038758E+02 0.  0.
        -11    1    3    3    0    0 -0.17136185827E+02  0.20263103726E+01 -0.28716341057E+00  0.17257962257E+02  0.00000000000E+00 0.  1.
         12    1    3    3    0    0 -0.75052078815E+02  0.21382239254E+02 -0.26071944893E+03  0.27214820547E+03  0.00000000000E+00 0. -1.
          1    1    1    2  501    0  0.92188264643E+02 -0.23408549627E+02 -0.10388395811E+03  0.14084925660E+03  0.00000000000E+00 0. -1.
<mgrwt>
<rscale>  1 0.12502591E+03</rscale>
<asrwt>0</asrwt>
<pdfrwt beam="1">  1       21 0.50280657E-02 0.12502591E+03</pdfrwt>
<pdfrwt beam="2">  1        2 0.61165077E-01 0.12502591E+03</pdfrwt>
<totfact> 0.26183136E+05</totfact>
</mgrwt>
</event>
<event>
 6    2  0.7993170E+000  0.8922874E+02  0.7546771E-02  0.1304730E+00
         21   -1    0    0  501  502  0.00000000000E+00  0.00000000000E+00  0.10482538826E+03  0.10482538826E+03  0.00000000000E+00 0. -1.
          4   -1    0    0  502    0 -0.00000000000E+00 -0.00000000000E+00 -0.48750713255E+02  0.48750713255E+02  0.00000000000E+00 0. -1.
         24    2    1    2    0    0  0.52509258304E+01 -0.37717279796E+02  0.43361300311E+01  0.89334040112E+02  0.80694505896E+02 0.  0.
        -11    1    3    3    0    0 -0.19087712184E+02  0.10205622120E+02  0.23798900386E+02  0.32169599606E+02  0.00000000000E+00 0.  1.
         12    1    3    3    0    0  0.24338638014E+02 -0.47922901917E+02 -0.19462770355E+02  0.57164440506E+02  0.00000000000E+00 0. -1.
          3    1    1    2  501    0 -0.52509258304E+01  0.37717279796E+02  0.51738544971E+02  0.64242061401E+02  0.00000000000E+00 0. -1.
<mgrwt>
<rscale>  1 0.89228744E+02</rscale>
<asrwt>0</asrwt>
<pdfrwt beam="1">  1       21 0.16126983E-01 0.89228744E+02</pdfrwt>
<pdfrwt beam="2">  1        4 0.75001097E-02 0.89228744E+02</pdfrwt>
<totfact> 0.15895941E+05</totfact>
</mgrwt>
</event>
<event>
 6    2  0.7993170E+000  0.1006864E+03  0.7546771E-02  0.1278859E+00
         21   -1    0    0  501  502  0.00000000000E+00  0.00000000000E+00  0.19819519354E+02  0.19819519354E+02  0.00000000000E+00 0. -1.
          2   -1    0    0  502    0 -0.00000000000E+00 -0.00000000000E+00 -0.37731488586E+03  0.37731488586E+03  0.00000000000E+00 0. -1.
         24    2    1    2    0    0  0.57446546621E+02 -0.20479239569E+02 -0.14845034877E+03  0.17937461918E+03  0.80113937523E+02 0.  0.
        -13    1    3    3    0    0  0.37841034297E+02  0.27548506501E+02 -0.52778705991E+02  0.70543999696E+02  0.00000000000E+00 0.  1.
         14    1    3    3    0    0  0.19605512324E+02 -0.48027746070E+02 -0.95671642778E+02  0.10883061949E+03  0.00000000000E+00 0. -1.
          1    1    1    2  501    0 -0.57446546621E+02  0.20479239569E+02 -0.20904501774E+03  0.21775978603E+03  0.00000000000E+00 0. -1.
<mgrwt>
<rscale>  1 0.10068638E+03</rscale>
<asrwt>0</asrwt>
<pdfrwt beam="1">  1       21 0.30491568E-02 0.10068638E+03</pdfrwt>
<pdfrwt beam="2">  1        2 0.58048444E-01 0.10068638E+03</pdfrwt>
<totfact> 0.62373164E+05</totfact>
</mgrwt>
</event>
<event>
 6    2  0.7993170E+000  0.8834013E+02  0.7546771E-02  0.1306922E+00
          2   -1    0    0  502    0 -0.00000000000E+00  0.00000000000E+00  0.17087979971E+04  0.17087979971E+04  0.00000000000E+00 0. -1.
         21   -1    0    0  501  502  0.00000000000E+00 -0.00000000000E+00 -0.21687211371E+01  0.21687211371E+01  0.00000000000E+00 0.  1.
         24    2    1    2    0    0  0.40476758051E+01 -0.33109206974E+02  0.12617458218E+04  0.12648345729E+04  0.81800824248E+02 0.  0.
        -13    1    3    3    0    0  0.53549978865E+00 -0.60000884345E+02  0.76538395730E+03  0.76773237197E+03  0.00000000000E+00 0.  1.
         14    1    3    3    0    0  0.35121760165E+01  0.26891677371E+02  0.49636186445E+03  0.49710220094E+03  0.00000000000E+00 0. -1.
          1    1    1    2  501    0 -0.40476758051E+01  0.33109206974E+02  0.44488345425E+03  0.44613214537E+03  0.00000000000E+00 0. -1.
<mgrwt>
<rscale>  1 0.88340127E+02</rscale>
<asrwt>0</asrwt>
<pdfrwt beam="1">  1       21 0.33365077E-03 0.88340127E+02</pdfrwt>
<pdfrwt beam="2">  1        2 0.26289092E+00 0.88340127E+02</pdfrwt>
<totfact> 0.27107455E+06</totfact>
</mgrwt>
</event>
<event>
 6    2  0.7993170E+000  0.8606839E+02  0.7546771E-02  0.1312662E+00
         -1   -1    0    0    0  501 -0.00000000000E+00  0.00000000000E+00  0.57435144455E+02  0.57435144455E+02  0.00000000000E+00 0.  1.
         21   -1    0    0  501  502  0.00000000000E+00 -0.00000000000E+00 -0.15256554208E+03  0.15256554208E+03  0.00000000000E+00 0. -1.
         24    2    1    2    0    0 -0.27027161240E+02 -0.11446438931E+02 -0.13523642446E+03  0.16030177510E+03  0.80909085966E+02 0.  0.
        -11    1    3    3    0    0 -0.37560046662E+02  0.21102447489E+02 -0.38805543655E+02  0.57982243952E+02  0.00000000000E+00 0.  1.
         12    1    3    3    0    0  0.10532885422E+02 -0.32548886420E+02 -0.96430880800E+02  0.10231953115E+03  0.00000000000E+00 0. -1.
         -2    1    1    2    0  502  0.27027161240E+02  0.11446438931E+02  0.40106026835E+02  0.49698911431E+02  0.00000000000E+00 0.  1.
<mgrwt>
<rscale>  1 0.86068395E+02</rscale>
<asrwt>0</asrwt>
<pdfrwt beam="1">  1       21 0.23471622E-01 0.86068395E+02</pdfrwt>
<pdfrwt beam="2">  1       -1 0.88361761E-02 0.86068395E+02</pdfrwt>
<totfact> 0.10780441E+05</totfact>
</mgrwt>
</event>
<event>
 6    2  0.7993170E+000  0.1067559E+03  0.7546771E-02  0.1266698E+00
         21   -1    0    0  501  502  0.00000000000E+00  0.00000000000E+00  0.51195127386E+01  0.51195127386E+01  0.00000000000E+00 0.  1.
         -1   -1    0    0    0  501 -0.00000000000E+00 -0.00000000000E+00 -0.18721143194E+04  0.18721143194E+04  0.00000000000E+00 0.  1.
         24    2    1    2    0    0 -0.19463359095E+02 -0.58067646704E+02 -0.15885683600E+04  0.15921514579E+04  0.87442302862E+02 0.  0.
        -11    1    3    3    0    0 -0.14727124418E+02 -0.50039501181E+02 -0.15739508428E+04  0.15748149401E+04  0.00000000000E+00 0.  1.
         12    1    3    3    0    0 -0.47362346762E+01 -0.80281455238E+01 -0.14617517216E+02  0.17336517788E+02  0.00000000000E+00 0. -1.
         -2    1    1    2    0  502  0.19463359095E+02  0.58067646704E+02 -0.27842644658E+03  0.28508237423E+03  0.00000000000E+00 0.  1.
<mgrwt>
<rscale>  1 0.10675594E+03</rscale>
<asrwt>0</asrwt>
<pdfrwt beam="1">  1       21 0.78761583E-03 0.10675594E+03</pdfrwt>
<pdfrwt beam="2">  1       -1 0.28801814E+00 0.10675594E+03</pdfrwt>
<totfact> 0.24144392E+04</totfact>
</mgrwt>
</event>
<event>
 6    2  0.7993170E+000  0.1064141E+03  0.7546771E-02  0.1267358E+00
         21   -1    0    0  501  502  0.00000000000E+00  0.00000000000E+00  0.16890455942E+03  0.16890455942E+03  0.00000000000E+00 0. -1.
          2   -1    0    0  502    0 -0.00000000000E+00 -0.00000000000E+00 -0.49527780342E+02  0.49527780342E+02  0.00000000000E+00 0. -1.
         24    2    1    2    0    0  0.44298258198E+02  0.53662157971E+02  0.42088738642E+02  0.11443520484E+03  0.80510814857E+02 0.  0.
        -11    1    3    3    0    0  0.96245261688E+01 -0.13928889203E+02  0.34073057558E+02  0.38047584809E+02  0.00000000000E+00 0.  1.
         12    1    3    3    0    0  0.34673732029E+02  0.67591047174E+02  0.80156810840E+01  0.76387620032E+02  0.00000000000E+00 0. -1.
          1    1    1    2  501    0 -0.44298258198E+02 -0.53662157971E+02  0.77288040434E+02  0.10399713492E+03  0.00000000000E+00 0. -1.
<mgrwt>
<rscale>  1 0.10641407E+03</rscale>
<asrwt>0</asrwt>
<pdfrwt beam="1">  1       21 0.25985316E-01 0.10641407E+03</pdfrwt>
<pdfrwt beam="2">  1        2 0.76196586E-02 0.10641407E+03</pdfrwt>
<totfact> 0.14932778E+05</totfact>
</mgrwt>
</event>
<event>
 6    2  0.7993170E+000  0.8315010E+02  0.7546771E-02  0.1320342E+00
         -1   -1    0    0    0  501 -0.00000000000E+00  0.00000000000E+00  0.54147397563E+03  0.54147397563E+03  0.00000000000E+00 0.  1.
         21   -1    0    0  501  502  0.00000000000E+00 -0.00000000000E+00 -0.11114794939E+02  0.11114794939E+02  0.00000000000E+00 0.  1.
         24    2    1    2    0    0 -0.21608414766E+02 -0.12692002469E+02  0.15081516304E+03  0.17221833027E+03  0.79283853113E+02 0.  0.
        -11    1    3    3    0    0 -0.30445231053E+02  0.24825160349E+02  0.45723330456E+02  0.60281204601E+02  0.00000000000E+00 0.  1.
         12    1    3    3    0    0  0.88368162872E+01 -0.37517162819E+02  0.10509183258E+03  0.11193712567E+03  0.00000000000E+00 0. -1.
         -2    1    1    2    0  502  0.21608414766E+02  0.12692002469E+02  0.37954401765E+03  0.38037044030E+03  0.00000000000E+00 0.  1.
<mgrwt>
<rscale>  1 0.83150105E+02</rscale>
<asrwt>0</asrwt>
<pdfrwt beam="1">  1       21 0.17099689E-02 0.83150105E+02</pdfrwt>
<pdfrwt beam="2">  1       -1 0.83303668E-01 0.83150105E+02</pdfrwt>
<totfact> 0.21012894E+05</totfact>
</mgrwt>
</event>
<event>
 6    2  0.7993170E+000  0.8359136E+02  0.7546771E-02  0.1319158E+00
         -1   -1    0    0    0  501 -0.00000000000E+00  0.00000000000E+00  0.87482807620E+03  0.87482807620E+03  0.00000000000E+00 0.  1.
         21   -1    0    0  501  502  0.00000000000E+00 -0.00000000000E+00 -0.34246968936E+01  0.34246968936E+01  0.00000000000E+00 0.  1.
         24    2    1    2    0    0 -0.78982584037E+01 -0.20569698097E+02  0.76750612314E+03  0.77204479409E+03  0.80635104359E+02 0.  0.
        -11    1    3    3    0    0  0.25293192781E+02 -0.31294094724E+02  0.23685774328E+03  0.24025123625E+03  0.00000000000E+00 0.  1.
         12    1    3    3    0    0 -0.33191451185E+02  0.10724396627E+02  0.53064837986E+03  0.53179355784E+03  0.00000000000E+00 0. -1.
         -2    1    1    2    0  502  0.78982584037E+01  0.20569698097E+02  0.10389725617E+03  0.10620797901E+03  0.00000000000E+00 0.  1.
<mgrwt>
<rscale>  1 0.83591357E+02</rscale>
<asrwt>0</asrwt>
<pdfrwt beam="1">  1       21 0.52687714E-03 0.83591357E+02</pdfrwt>
<pdfrwt beam="2">  1       -1 0.13458876E+00 0.83591357E+02</pdfrwt>
<totfact> 0.45297952E+05</totfact>
</mgrwt>
</event>
<event>
 6    2  0.7993170E+000  0.8159632E+02  0.7546771E-02  0.1324581E+00
          2   -1    0    0  502    0 -0.00000000000E+00  0.00000000000E+00  0.18506529189E+04  0.18506529189E+04  0.00000000000E+00 0. -1.
         21   -1    0    0  501  502  0.00000000000E+00 -0.00000000000E+00 -0.25333268893E+01  0.25333268893E+01  0.00000000000E+00 0.  1.
         24    2    1    2    0    0 -0.52018714619E+01  0.21704906372E+02  0.17715968501E+04  0.17734749388E+04  0.78484373991E+02 0.  0.
        -13    1    3    3    0    0 -0.16960965795E+02  0.25769991033E+02  0.25957345457E+03  0.26140035409E+03  0.00000000000E+00 0.  1.
         14    1    3    3    0    0  0.11759094333E+02 -0.40650846612E+01  0.15120233955E+04  0.15120745847E+04  0.00000000000E+00 0. -1.
          1    1    1    2  501    0  0.52018714619E+01 -0.21704906372E+02  0.76522741958E+02  0.79711307003E+02  0.00000000000E+00 0. -1.
<mgrwt>
<rscale>  1 0.81596320E+02</rscale>
<asrwt>0</asrwt>
<pdfrwt beam="1">  1       21 0.38974408E-03 0.81596320E+02</pdfrwt>
<pdfrwt beam="2">  1        2 0.28471475E+00 0.81596320E+02</pdfrwt>
<totfact> 0.18078586E+06</totfact>
</mgrwt>
</event>
<event>
 6    2  0.7993170E+000  0.8563252E+02  0.7546771E-02  0.1313787E+00
          4   -1    0    0  502    0 -0.00000000000E+00  0.00000000000E+00  0.12157893976E+03  0.12157893976E+03  0.00000000000E+00 0. -1.
         21   -1    0    0  501  502  0.00000000000E+00 -0.00000000000E+00 -0.23031825935E+02  0.23031825935E+02  0.00000000000E+00 0.  1.
         24    2    1    2    0    0 -0.12329444829E+02 -0.15976215655E+02  0.80858126798E+02  0.11777506301E+03  0.83220635190E+02 0.  0.
        -13    1    3    3    0    0  0.63987086331E+01 -0.20888376715E+02 -0.10605457023E+02  0.24284634496E+02  0.00000000000E+00 0.  1.
         14    1    3    3    0    0 -0.18728153463E+02  0.49121610599E+01  0.91463583821E+02  0.93490428514E+02  0.00000000000E+00 0. -1.
          3    1    1    2  501    0  0.12329444829E+02  0.15976215655E+02  0.17688987026E+02  0.26835702682E+02  0.00000000000E+00 0. -1.
<mgrwt>
<rscale>  1 0.85632522E+02</rscale>
<asrwt>0</asrwt>
<pdfrwt beam="1">  1       21 0.35433579E-02 0.85632522E+02</pdfrwt>
<pdfrwt beam="2">  1        4 0.18704452E-01 0.85632522E+02</pdfrwt>
<totfact> 0.44422520E+05</totfact>
</mgrwt>
</event>
<event>
 6    2  0.7993170E+000  0.1135352E+03  0.7546771E-02  0.1254160E+00
         21   -1    0    0  501  502  0.00000000000E+00  0.00000000000E+00  0.13756257422E+03  0.13756257422E+03  0.00000000000E+00 0.  1.
         -3   -1    0    0    0  501 -0.00000000000E+00 -0.00000000000E+00 -0.18716761034E+03  0.18716761034E+03  0.00000000000E+00 0.  1.
         24    2    1    2    0    0 -0.17704556743E+02  0.78711900884E+02 -0.15491711228E+03  0.19206651939E+03  0.79882548301E+02 0.  0.
        -13    1    3    3    0    0 -0.14035533307E+02  0.44178882556E+02 -0.14999200851E+03  0.15699163187E+03  0.00000000000E+00 0.  1.
         14    1    3    3    0    0 -0.36690234356E+01  0.34533018329E+02 -0.49251037742E+01  0.35074887527E+02  0.00000000000E+00 0. -1.
         -4    1    1    2    0  502  0.17704556743E+02 -0.78711900884E+02  0.10531207616E+03  0.13266366517E+03  0.00000000000E+00 0.  1.
<mgrwt>
<rscale>  1 0.11353518E+03</rscale>
<asrwt>0</asrwt>
<pdfrwt beam="1">  1       21 0.21163473E-01 0.11353518E+03</pdfrwt>
<pdfrwt beam="2">  1       -3 0.28795017E-01 0.11353518E+03</pdfrwt>
<totfact> 0.11531717E+04</totfact>
</mgrwt>
</event>
<event>
 6    2  0.7993170E+000  0.8769295E+02  0.7546771E-02  0.1308537E+00
          2   -1    0    0  502    0 -0.00000000000E+00  0.00000000000E+00  0.59779852161E+03  0.59779852161E+03  0.00000000000E+00 0. -1.
         21   -1    0    0  501  502  0.00000000000E+00 -0.00000000000E+00 -0.92971959883E+01  0.92971959883E+01  0.00000000000E+00 0. -1.
         24    2    1    2    0    0 -0.29414825909E+02 -0.10932123044E+02  0.55216227796E+03  0.55908249356E+03  0.81885957940E+02 0.  0.
        -11    1    3    3    0    0 -0.84034511701E+01 -0.19956151789E+02  0.33327513494E+02  0.39744045359E+02  0.00000000000E+00 0.  1.
         12    1    3    3    0    0 -0.21011374738E+02  0.90240287452E+01  0.51883476447E+03  0.51933844821E+03  0.00000000000E+00 0. -1.
          1    1    1    2  501    0  0.29414825909E+02  0.10932123044E+02  0.36339047664E+02  0.48013224039E+02  0.00000000000E+00 0. -1.
<mgrwt>
<rscale>  1 0.87692950E+02</rscale>
<asrwt>0</asrwt>
<pdfrwt beam="1">  1       21 0.14303383E-02 0.87692950E+02</pdfrwt>
<pdfrwt beam="2">  1        2 0.91968973E-01 0.87692950E+02</pdfrwt>
<totfact> 0.12637334E+06</totfact>
</mgrwt>
</event>
<event>
 6    2  0.7993170E+000  0.8364694E+02  0.7546771E-02  0.1319009E+00
          2   -1    0    0  502    0 -0.00000000000E+00  0.00000000000E+00  0.51183153275E+02  0.51183153275E+02  0.00000000000E+00 0. -1.
         21   -1    0    0  501  502  0.00000000000E+00 -0.00000000000E+00 -0.69067176651E+02  0.69067176651E+02  0.00000000000E+00 0.  1.
         24    2    1    2    0    0 -0.26482252676E+02 -0.15893284031E+02  0.17271212350E+01  0.83664770247E+02  0.77736121904E+02 0.  0.
        -11    1    3    3    0    0 -0.39473064102E+02  0.11588739577E+01 -0.26987526080E+02  0.47830872273E+02  0.00000000000E+00 0.  1.
         12    1    3    3    0    0  0.12990811426E+02 -0.17052157988E+02  0.28714647315E+02  0.35833897974E+02  0.00000000000E+00 0. -1.
          1    1    1    2  501    0  0.26482252676E+02  0.15893284031E+02 -0.19611144610E+02  0.36585559679E+02  0.00000000000E+00 0. -1.
<mgrwt>
<rscale>  1 0.83646942E+02</rscale>
<asrwt>0</asrwt>
<pdfrwt beam="1">  1       21 0.10625719E-01 0.83646942E+02</pdfrwt>
<pdfrwt beam="2">  1        2 0.78743313E-02 0.83646942E+02</pdfrwt>
<totfact> 0.70636338E+05</totfact>
</mgrwt>
</event>
<event>
 6    2  0.7993170E+000  0.8673894E+02  0.7546771E-02  0.1310947E+00
         -3   -1    0    0    0  501 -0.00000000000E+00  0.00000000000E+00  0.13738026830E+03  0.13738026830E+03  0.00000000000E+00 0.  1.
         21   -1    0    0  501  502  0.00000000000E+00 -0.00000000000E+00 -0.30257674469E+02  0.30257674469E+02  0.00000000000E+00 0. -1.
         24    2    1    2    0    0 -0.30909758454E+02  0.17172163613E+01  0.43838635201E+02  0.97187808492E+02  0.81026428920E+02 0.  0.
        -13    1    3    3    0    0  0.20223852555E+02 -0.22419136991E+02  0.15574199008E+02  0.33973189287E+02  0.00000000000E+00 0.  1.
         14    1    3    3    0    0 -0.51133611008E+02  0.24136353353E+02  0.28264436193E+02  0.63214619205E+02  0.00000000000E+00 0. -1.
         -4    1    1    2    0  502  0.30909758454E+02 -0.17172163613E+01  0.63283958626E+02  0.70450134273E+02  0.00000000000E+00 0.  1.
<mgrwt>
<rscale>  1 0.86738943E+02</rscale>
<asrwt>0</asrwt>
<pdfrwt beam="1">  1       21 0.46550269E-02 0.86738943E+02</pdfrwt>
<pdfrwt beam="2">  1       -3 0.21135425E-01 0.86738943E+02</pdfrwt>
<totfact> 0.27212459E+05</totfact>
</mgrwt>
</event>
<event>
 6    2  0.7993170E+000  0.8425115E+02  0.7546771E-02  0.1317403E+00
         21   -1    0    0  501  502  0.00000000000E+00  0.00000000000E+00  0.15928502558E+02  0.15928502558E+02  0.00000000000E+00 0. -1.
          2   -1    0    0  502    0 -0.00000000000E+00 -0.00000000000E+00 -0.17676484334E+03  0.17676484334E+03  0.00000000000E+00 0. -1.
         24    2    1    2    0    0  0.18114516672E+02 -0.85632549062E+01 -0.14244542867E+03  0.16549609058E+03  0.81833922047E+02 0.  0.
        -13    1    3    3    0    0 -0.24986689172E+02 -0.17200906770E+02 -0.22555725063E+02  0.37801674071E+02  0.00000000000E+00 0.  1.
         14    1    3    3    0    0  0.43101205844E+02  0.86376518642E+01 -0.11988970361E+03  0.12769441651E+03  0.00000000000E+00 0. -1.
          1    1    1    2  501    0 -0.18114516672E+02  0.85632549062E+01 -0.18390912110E+02  0.27197255323E+02  0.00000000000E+00 0. -1.
<mgrwt>
<rscale>  1 0.84251147E+02</rscale>
<asrwt>0</asrwt>
<pdfrwt beam="1">  1       21 0.24505390E-02 0.84251147E+02</pdfrwt>
<pdfrwt beam="2">  1        2 0.27194589E-01 0.84251147E+02</pdfrwt>
<totfact> 0.19408362E+06</totfact>
</mgrwt>
</event>
<event>
 6    2  0.7993170E+000  0.8576168E+02  0.7546771E-02  0.1313453E+00
         21   -1    0    0  501  502  0.00000000000E+00  0.00000000000E+00  0.22968996716E+01  0.22968996716E+01  0.00000000000E+00 0.  1.
          2   -1    0    0  502    0 -0.00000000000E+00 -0.00000000000E+00 -0.14336920824E+04  0.14336920824E+04  0.00000000000E+00 0. -1.
         24    2    1    2    0    0 -0.20636307091E+02 -0.14867705414E+02 -0.12314234503E+04  0.12344062457E+04  0.81903355415E+02 0.  0.
        -11    1    3    3    0    0 -0.16231924891E+02 -0.43837366704E+02 -0.10061067604E+04  0.10071921382E+04  0.00000000000E+00 0.  1.
         12    1    3    3    0    0 -0.44043822006E+01  0.28969661289E+02 -0.22531668991E+03  0.22721410742E+03  0.00000000000E+00 0. -1.
          1    1    1    2  501    0  0.20636307091E+02  0.14867705414E+02 -0.19997173249E+03  0.20158273643E+03  0.00000000000E+00 0. -1.
<mgrwt>
<rscale>  1 0.85761678E+02</rscale>
<asrwt>0</asrwt>
<pdfrwt beam="1">  1       21 0.35336937E-03 0.85761678E+02</pdfrwt>
<pdfrwt beam="2">  1        2 0.22056790E+00 0.85761678E+02</pdfrwt>
<totfact> 0.34161371E+06</totfact>
</mgrwt>
</event>
<event>
 6    2  0.7993170E+000  0.1166718E+03  0.7546771E-02  0.1248691E+00
          2   -1    0    0  502    0 -0.00000000000E+00  0.00000000000E+00  0.15890777490E+04  0.15890777490E+04  0.00000000000E+00 0. -1.
         21   -1    0    0  501  502  0.00000000000E+00 -0.00000000000E+00 -0.27532378369E+02  0.27532378369E+02  0.00000000000E+00 0. -1.
         24    2    1    2    0    0  0.46266214866E+02  0.69507626076E+02  0.15179301119E+04  0.15224073487E+04  0.81488881866E+02 0.  0.
        -13    1    3    3    0    0  0.61788242265E+01  0.40027110807E+01  0.94769568994E+01  0.12000511526E+02  0.00000000000E+00 0.  1.
         14    1    3    3    0    0  0.40087390639E+02  0.65504914995E+02  0.15084531550E+04  0.15104068371E+04  0.00000000000E+00 0. -1.
          1    1    1    2  501    0 -0.46266214866E+02 -0.69507626076E+02  0.43615258682E+02  0.94202778678E+02  0.00000000000E+00 0. -1.
<mgrwt>
<rscale>  1 0.11667181E+03</rscale>
<asrwt>0</asrwt>
<pdfrwt beam="1">  1       21 0.42357518E-02 0.11667181E+03</pdfrwt>
<pdfrwt beam="2">  1        2 0.24447343E+00 0.11667181E+03</pdfrwt>
<totfact> 0.56744356E+04</totfact>
</mgrwt>
</event>
<event>
 6    2  0.7993170E+000  0.8407696E+02  0.7546771E-02  0.1317864E+00
         -3   -1    0    0    0  501 -0.00000000000E+00  0.00000000000E+00  0.68561346631E+02  0.68561346631E+02  0.00000000000E+00 0.  1.
         21   -1    0    0  501  502  0.00000000000E+00 -0.00000000000E+00 -0.72610012280E+02  0.72610012280E+02  0.00000000000E+00 0.  1.
         24    2    1    2    0    0 -0.27319505597E+02 -0.29892895179E+00  0.37002847096E+02  0.91859378184E+02  0.79514086315E+02 0.  0.
        -11    1    3    3    0    0 -0.40824288337E+02 -0.83140152735E+01  0.54336030983E+02  0.68470063759E+02  0.00000000000E+00 0.  1.
         12    1    3    3    0    0  0.13504782740E+02  0.80150863217E+01 -0.17333183887E+02  0.23389314425E+02  0.00000000000E+00 0. -1.
         -4    1    1    2    0  502  0.27319505597E+02  0.29892895179E+00 -0.41051512745E+02  0.49311980727E+02  0.00000000000E+00 0.  1.
<mgrwt>
<rscale>  1 0.84076957E+02</rscale>
<asrwt>0</asrwt>
<pdfrwt beam="1">  1       21 0.11170771E-01 0.84076957E+02</pdfrwt>
<pdfrwt beam="2">  1       -3 0.10547899E-01 0.84076957E+02</pdfrwt>
<totfact> 0.19887762E+05</totfact>
</mgrwt>
</event>
<event>
 6    2  0.7993170E+000  0.8128433E+02  0.7546771E-02  0.1325446E+00
         -1   -1    0    0    0  501 -0.00000000000E+00  0.00000000000E+00  0.26372040927E+02  0.26372040927E+02  0.00000000000E+00 0.  1.
         21   -1    0    0  501  502  0.00000000000E+00 -0.00000000000E+00 -0.15912684303E+03  0.15912684303E+03  0.00000000000E+00 0.  1.
         24    2    1    2    0    0 -0.12798979276E+02 -0.15847277238E+02 -0.40111596627E+02  0.90642605371E+02  0.78690480098E+02 0.  0.
        -11    1    3    3    0    0 -0.19785308662E+02 -0.46070513263E+02 -0.22325760748E+02  0.54885245960E+02  0.00000000000E+00 0.  1.
         12    1    3    3    0    0  0.69863293862E+01  0.30223236025E+02 -0.17785835879E+02  0.35757359411E+02  0.00000000000E+00 0. -1.
         -2    1    1    2    0  502  0.12798979276E+02  0.15847277238E+02 -0.92643205474E+02  0.94856278584E+02  0.00000000000E+00 0.  1.
<mgrwt>
<rscale>  1 0.81284326E+02</rscale>
<asrwt>0</asrwt>
<pdfrwt beam="1">  1       21 0.24481053E-01 0.81284326E+02</pdfrwt>
<pdfrwt beam="2">  1       -1 0.40572370E-02 0.81284326E+02</pdfrwt>
<totfact> 0.31173521E+05</totfact>
</mgrwt>
</event>
<event>
 6    2  0.7993170E+000  0.8098563E+02  0.7546771E-02  0.1326277E+00
         -3   -1    0    0    0  501 -0.00000000000E+00  0.00000000000E+00  0.27297186783E+02  0.27297186783E+02  0.00000000000E+00 0.  1.
         21   -1    0    0  501  502  0.00000000000E+00 -0.00000000000E+00 -0.37777835467E+03  0.37777835467E+03  0.00000000000E+00 0.  1.
         24    2    1    2    0    0 -0.12481976754E+02 -0.20131404094E+02 -0.34203595071E+02  0.87912214064E+02  0.77444162410E+02 0.  0.
        -11    1    3    3    0    0 -0.31070341230E+02  0.17957822322E+02 -0.45241201473E+01  0.36170666980E+02  0.00000000000E+00 0.  1.
         12    1    3    3    0    0  0.18588364476E+02 -0.38089226416E+02 -0.29679474924E+02  0.51741547084E+02  0.00000000000E+00 0. -1.
         -4    1    1    2    0  502  0.12481976754E+02  0.20131404094E+02 -0.31627757282E+03  0.31716332739E+03  0.00000000000E+00 0.  1.
<mgrwt>
<rscale>  1 0.80985625E+02</rscale>
<asrwt>0</asrwt>
<pdfrwt beam="1">  1       21 0.58119745E-01 0.80985625E+02</pdfrwt>
<pdfrwt beam="2">  1       -3 0.41995674E-02 0.80985625E+02</pdfrwt>
<totfact> 0.38296552E+04</totfact>
</mgrwt>
</event>
<event>
 6    2  0.7993170E+000  0.8330124E+02  0.7546771E-02  0.1319936E+00
         -1   -1    0    0    0  501 -0.00000000000E+00  0.00000000000E+00  0.35684954696E+02  0.35684954696E+02  0.00000000000E+00 0.  1.
         21   -1    0    0  501  502  0.00000000000E+00 -0.00000000000E+00 -0.77294983396E+03  0.77294983396E+03  0.00000000000E+00 0.  1.
         24    2    1    2    0    0 -0.95329979925E+01 -0.18603420186E+02 -0.13285887971E+02  0.84354079865E+02  0.80635790300E+02 0.  0.
        -11    1    3    3    0    0 -0.11103638954E+02 -0.48796719566E+02  0.27708697499E+01  0.50120737800E+02  0.00000000000E+00 0.  1.
         12    1    3    3    0    0  0.15706409612E+01  0.30193299380E+02 -0.16056757721E+02  0.34233342066E+02  0.00000000000E+00 0. -1.
         -2    1    1    2    0  502  0.95329979925E+01  0.18603420186E+02 -0.72397899129E+03  0.72428070879E+03  0.00000000000E+00 0.  1.
<mgrwt>
<rscale>  1 0.83301236E+02</rscale>
<asrwt>0</asrwt>
<pdfrwt beam="1">  1       21 0.11891536E+00 0.83301236E+02</pdfrwt>
<pdfrwt beam="2">  1       -1 0.54899928E-02 0.83301236E+02</pdfrwt>
<totfact> 0.74789220E+03</totfact>
</mgrwt>
</event>
<event>
 6    2  0.7993170E+000  0.9529330E+02  0.7546771E-02  0.1290517E+00
         21   -1    0    0  501  502  0.00000000000E+00  0.00000000000E+00  0.94669708824E+02  0.94669708824E+02  0.00000000000E+00 0.  1.
         -1   -1    0    0    0  501 -0.00000000000E+00 -0.00000000000E+00 -0.59485104799E+02  0.59485104799E+02  0.00000000000E+00 0.  1.
         24    2    1    2    0    0 -0.27276447754E+02 -0.37682712379E+02 -0.87388991542E+00  0.95297304335E+02  0.83167428213E+02 0.  0.
        -13    1    3    3    0    0 -0.43268469383E+02 -0.54638437757E+02 -0.97140543806E+01  0.70369611167E+02  0.00000000000E+00 0.  1.
         14    1    3    3    0    0  0.15992021629E+02  0.16955725378E+02  0.88401644652E+01  0.24927693168E+02  0.00000000000E+00 0. -1.
         -2    1    1    2    0  502  0.27276447754E+02  0.37682712379E+02  0.36058493941E+02  0.58857509288E+02  0.00000000000E+00 0.  1.
<mgrwt>
<rscale>  1 0.95293297E+02</rscale>
<asrwt>0</asrwt>
<pdfrwt beam="1">  1       21 0.14564571E-01 0.95293297E+02</pdfrwt>
<pdfrwt beam="2">  1       -1 0.91515546E-02 0.95293297E+02</pdfrwt>
<totfact> 0.24548125E+05</totfact>
</mgrwt>
</event>
<event>
 6    2  0.7993170E+000  0.8371872E+02  0.7546771E-02  0.1318818E+00
         21   -1    0    0  501  502  0.00000000000E+00  0.00000000000E+00  0.27401762644E+02  0.27401762644E+02  0.00000000000E+00 0.  1.
         -3   -1    0    0    0  501 -0.00000000000E+00 -0.00000000000E+00 -0.11488745965E+03  0.11488745965E+03  0.00000000000E+00 0.  1.
         24    2    1    2    0    0  0.38747526533E+01  0.23303051567E+02 -0.83666966205E+02  0.11835956234E+03  0.80316740742E+02 0.  0.
        -11    1    3    3    0    0  0.32065153272E+02  0.26727755066E+02 -0.79316413235E+02  0.89630577114E+02  0.00000000000E+00 0.  1.
         12    1    3    3    0    0 -0.28190400619E+02 -0.34247034996E+01 -0.43505529698E+01  0.28728985229E+02  0.00000000000E+00 0. -1.
         -4    1    1    2    0  502 -0.38747526533E+01 -0.23303051567E+02 -0.38187308008E+01  0.23929659951E+02  0.00000000000E+00 0.  1.
<mgrwt>
<rscale>  1 0.83718724E+02</rscale>
<asrwt>0</asrwt>
<pdfrwt beam="1">  1       21 0.42156557E-02 0.83718724E+02</pdfrwt>
<pdfrwt beam="2">  1       -3 0.17674994E-01 0.83718724E+02</pdfrwt>
<totfact> 0.43448347E+05</totfact>
</mgrwt>
</event>
<event>
 6    2  0.7993170E+000  0.8258468E+02  0.7546771E-02  0.1321872E+00
         21   -1    0    0  501  502  0.00000000000E+00  0.00000000000E+00  0.96295211978E+01  0.96295211978E+01  0.00000000000E+00 0. -1.
          2   -1    0    0  502    0 -0.00000000000E+00 -0.00000000000E+00 -0.10943859064E+04  0.10943859064E+04  0.00000000000E+00 0. -1.
         24    2    1    2    0    0 -0.20520519663E+02 -0.10720792368E+02 -0.10761517389E+04  0.10793158921E+04  0.79272962332E+02 0.  0.
        -13    1    3    3    0    0  0.23368211402E+02  0.66286940751E+01 -0.14926534361E+03  0.15122881899E+03  0.00000000000E+00 0.  1.
         14    1    3    3    0    0 -0.43888731064E+02 -0.17349486443E+02 -0.92688639533E+03  0.92808707309E+03  0.00000000000E+00 0. -1.
          1    1    1    2  501    0  0.20520519663E+02  0.10720792368E+02 -0.86046462229E+01  0.24699535478E+02  0.00000000000E+00 0. -1.
<mgrwt>
<rscale>  1 0.82584682E+02</rscale>
<asrwt>0</asrwt>
<pdfrwt beam="1">  1       21 0.14814653E-02 0.82584682E+02</pdfrwt>
<pdfrwt beam="2">  1        2 0.16836700E+00 0.82584682E+02</pdfrwt>
<totfact> 0.56320604E+05</totfact>
</mgrwt>
</event>
<event>
 6    2  0.7993170E+000  0.8290009E+02  0.7546771E-02  0.1321017E+00
         -1   -1    0    0    0  501 -0.00000000000E+00  0.00000000000E+00  0.10013829038E+03  0.10013829038E+03  0.00000000000E+00 0.  1.
         21   -1    0    0  501  502  0.00000000000E+00 -0.00000000000E+00 -0.31620048909E+02  0.31620048909E+02  0.00000000000E+00 0. -1.
         24    2    1    2    0    0  0.16763779761E+02  0.15687919123E+02  0.70348655251E+02  0.10872606773E+03  0.79657324775E+02 0.  0.
        -13    1    3    3    0    0 -0.14035077938E+02  0.17352651147E+02  0.74346633722E+02  0.77624222124E+02  0.00000000000E+00 0.  1.
         14    1    3    3    0    0  0.30798857700E+02 -0.16647320243E+01 -0.39979784704E+01  0.31101845607E+02  0.00000000000E+00 0. -1.
         -2    1    1    2    0  502 -0.16763779761E+02 -0.15687919123E+02 -0.18304137846E+01  0.23032271554E+02  0.00000000000E+00 0.  1.
<mgrwt>
<rscale>  1 0.82900088E+02</rscale>
<asrwt>0</asrwt>
<pdfrwt beam="1">  1       21 0.48646229E-02 0.82900088E+02</pdfrwt>
<pdfrwt beam="2">  1       -1 0.15405891E-01 0.82900088E+02</pdfrwt>
<totfact> 0.71723027E+05</totfact>
</mgrwt>
</event>
<event>
 6    2  0.7993170E+000  0.9003781E+02  0.7546771E-02  0.1302760E+00
          2   -1    0    0  502    0 -0.00000000000E+00  0.00000000000E+00  0.31143559155E+03  0.31143559155E+03  0.00000000000E+00 0. -1.
         21   -1    0    0  501  502  0.00000000000E+00 -0.00000000000E+00 -0.11693380914E+03  0.11693380914E+03  0.00000000000E+00 0. -1.
         24    2    1    2    0    0 -0.21673296531E+01  0.40197425402E+02  0.30117896002E+03  0.31434944389E+03  0.80537423537E+02 0.  0.
        -13    1    3    3    0    0  0.18801324199E+02  0.37033567741E+02  0.64453943145E+02  0.76676500429E+02  0.00000000000E+00 0.  1.
         14    1    3    3    0    0 -0.20968653852E+02  0.31638576610E+01  0.23672501688E+03  0.23767294346E+03  0.00000000000E+00 0. -1.
          1    1    1    2  501    0  0.21673296531E+01 -0.40197425402E+02 -0.10667717761E+03  0.11401995680E+03  0.00000000000E+00 0. -1.
<mgrwt>
<rscale>  1 0.90037808E+02</rscale>
<asrwt>0</asrwt>
<pdfrwt beam="1">  1       21 0.17989817E-01 0.90037808E+02</pdfrwt>
<pdfrwt beam="2">  1        2 0.47913168E-01 0.90037808E+02</pdfrwt>
<totfact> 0.36528263E+04</totfact>
</mgrwt>
</event>
<event>
 6    2  0.7993170E+000  0.8238131E+02  0.7546771E-02  0.1322426E+00
         -1   -1    0    0    0  501 -0.00000000000E+00  0.00000000000E+00  0.75076819251E+02  0.75076819251E+02  0.00000000000E+00 0.  1.
         21   -1    0    0  501  502  0.00000000000E+00 -0.00000000000E+00 -0.43971148624E+02  0.43971148624E+02  0.00000000000E+00 0.  1.
         24    2    1    2    0    0  0.75847238702E+01 -0.19329429309E+02  0.89084066683E+00  0.82386123634E+02  0.79721546001E+02 0.  0.
        -13    1    3    3    0    0 -0.26203314884E+02 -0.34842196650E+02  0.85503022460E+01  0.44426344063E+02  0.00000000000E+00 0.  1.
         14    1    3    3    0    0  0.33788038754E+02  0.15512767341E+02 -0.76594615792E+01  0.37959779572E+02  0.00000000000E+00 0. -1.
         -2    1    1    2    0  502 -0.75847238702E+01  0.19329429309E+02  0.30214829960E+02  0.36661844241E+02  0.00000000000E+00 0.  1.
<mgrwt>
<rscale>  1 0.82381307E+02</rscale>
<asrwt>0</asrwt>
<pdfrwt beam="1">  1       21 0.67647921E-02 0.82381307E+02</pdfrwt>
<pdfrwt beam="2">  1       -1 0.11550280E-01 0.82381307E+02</pdfrwt>
<totfact> 0.64219531E+05</totfact>
</mgrwt>
</event>
<event>
 6    2  0.7993170E+000  0.8348415E+02  0.7546771E-02  0.1319445E+00
         21   -1    0    0  501  502  0.00000000000E+00  0.00000000000E+00  0.13444358898E+02  0.13444358898E+02  0.00000000000E+00 0. -1.
         -3   -1    0    0    0  501 -0.00000000000E+00 -0.00000000000E+00 -0.30285219469E+03  0.30285219469E+03  0.00000000000E+00 0.  1.
         24    2    1    2    0    0  0.24571794980E+02 -0.35306962827E+02 -0.21000714301E+03  0.22599248532E+03  0.71548924316E+02 0.  0.
        -11    1    3    3    0    0  0.26831130707E+02  0.12080017596E+02 -0.12719406086E+03  0.13055330528E+03  0.00000000000E+00 0.  1.
         12    1    3    3    0    0 -0.22593357276E+01 -0.47386980422E+02 -0.82813082154E+02  0.95439180043E+02  0.00000000000E+00 0. -1.
         -4    1    1    2    0  502 -0.24571794980E+02  0.35306962827E+02 -0.79400692781E+02  0.90304068273E+02  0.00000000000E+00 0.  1.
<mgrwt>
<rscale>  1 0.83484150E+02</rscale>
<asrwt>0</asrwt>
<pdfrwt beam="1">  1       21 0.20683631E-02 0.83484150E+02</pdfrwt>
<pdfrwt beam="2">  1       -3 0.46592641E-01 0.83484150E+02</pdfrwt>
<totfact> 0.23534642E+05</totfact>
</mgrwt>
</event>
<event>
 6    2  0.7993170E+000  0.1172644E+03  0.7546771E-02  0.1247679E+00
         21   -1    0    0  501  502  0.00000000000E+00  0.00000000000E+00  0.28402673105E+03  0.28402673105E+03  0.00000000000E+00 0.  1.
          2   -1    0    0  502    0 -0.00000000000E+00 -0.00000000000E+00 -0.52362432267E+02  0.52362432267E+02  0.00000000000E+00 0. -1.
         24    2    1    2    0    0  0.75946421815E+02 -0.43299569044E+02  0.21850374133E+03  0.24798151693E+03  0.78155205216E+02 0.  0.
        -11    1    3    3    0    0  0.14243418849E+02 -0.13026525075E+02  0.14896235667E+03  0.15020768636E+03  0.00000000000E+00 0.  1.
         12    1    3    3    0    0  0.61703002966E+02 -0.30273043969E+02  0.69541384656E+02  0.97773830579E+02  0.00000000000E+00 0. -1.
          1    1    1    2  501    0 -0.75946421815E+02  0.43299569044E+02  0.13160557455E+02  0.88407646380E+02  0.00000000000E+00 0. -1.
<mgrwt>
<rscale>  1 0.11726444E+03</rscale>
<asrwt>0</asrwt>
<pdfrwt beam="1">  1       21 0.43696419E-01 0.11726444E+03</pdfrwt>
<pdfrwt beam="2">  1        2 0.80557590E-02 0.11726444E+03</pdfrwt>
<totfact> 0.50762061E+04</totfact>
</mgrwt>
</event>
<event>
 6    2  0.7993170E+000  0.9186431E+02  0.7546771E-02  0.1298399E+00
          2   -1    0    0  502    0 -0.00000000000E+00  0.00000000000E+00  0.20332764915E+03  0.20332764915E+03  0.00000000000E+00 0. -1.
         21   -1    0    0  501  502  0.00000000000E+00 -0.00000000000E+00 -0.23742459658E+02  0.23742459658E+02  0.00000000000E+00 0.  1.
         24    2    1    2    0    0 -0.30809089480E+02  0.31372455949E+02  0.97567566346E+02  0.13400926047E+03  0.80657429305E+02 0.  0.
        -11    1    3    3    0    0 -0.40393180424E+02  0.29601095118E+02  0.17045886525E+02  0.52899868661E+02  0.00000000000E+00 0.  1.
         12    1    3    3    0    0  0.95840909438E+01  0.17713608314E+01  0.80521679821E+02  0.81109391809E+02  0.00000000000E+00 0. -1.
          1    1    1    2  501    0  0.30809089480E+02 -0.31372455949E+02  0.82017623143E+02  0.93060848335E+02  0.00000000000E+00 0. -1.
<mgrwt>
<rscale>  1 0.91864312E+02</rscale>
<asrwt>0</asrwt>
<pdfrwt beam="1">  1       21 0.36526862E-02 0.91864312E+02</pdfrwt>
<pdfrwt beam="2">  1        2 0.31281176E-01 0.91864312E+02</pdfrwt>
<totfact> 0.88240607E+05</totfact>
</mgrwt>
</event>
<event>
 6    2  0.7993170E+000  0.8508026E+02  0.7546771E-02  0.1315223E+00
          2   -1    0    0  502    0 -0.00000000000E+00  0.00000000000E+00  0.10513437735E+03  0.10513437735E+03  0.00000000000E+00 0. -1.
         21   -1    0    0  501  502  0.00000000000E+00 -0.00000000000E+00 -0.44288561632E+02  0.44288561632E+02  0.00000000000E+00 0. -1.
         24    2    1    2    0    0 -0.53168569925E+01  0.25750315296E+02  0.80084596099E+02  0.11684260171E+03  0.80915408526E+02 0.  0.
        -13    1    3    3    0    0  0.13151154963E+02 -0.13008514033E+02 -0.69772244091E+01  0.19770077761E+02  0.00000000000E+00 0.  1.
         14    1    3    3    0    0 -0.18468011955E+02  0.38758829330E+02  0.87061820508E+02  0.97072523954E+02  0.00000000000E+00 0. -1.
          1    1    1    2  501    0  0.53168569925E+01 -0.25750315296E+02 -0.19238780378E+02  0.32580337269E+02  0.00000000000E+00 0. -1.
<mgrwt>
<rscale>  1 0.85080262E+02</rscale>
<asrwt>0</asrwt>
<pdfrwt beam="1">  1       21 0.68136249E-02 0.85080262E+02</pdfrwt>
<pdfrwt beam="2">  1        2 0.16174519E-01 0.85080262E+02</pdfrwt>
<totfact> 0.64186138E+05</totfact>
</mgrwt>
</event>
<event>
 6    2  0.7993170E+000  0.9196140E+02  0.7546771E-02  0.1298170E+00
          4   -1    0    0  502    0 -0.00000000000E+00  0.00000000000E+00  0.91586144831E+01  0.91586144831E+01  0.00000000000E+00 0. -1.
         21   -1    0    0  501  502  0.00000000000E+00 -0.00000000000E+00 -0.45382159255E+03  0.45382159255E+03  0.00000000000E+00 0. -1.
         24    2    1    2    0    0  0.14769169017E+02 -0.18473812974E+02 -0.24101617873E+03  0.25796452715E+03  0.88867816093E+02 0.  0.
        -11    1    3    3    0    0 -0.14599337513E+02  0.20715361968E+02 -0.22062352540E+02  0.33600807682E+02  0.00000000000E+00 0.  1.
         12    1    3    3    0    0  0.29368506531E+02 -0.39189174942E+02 -0.21895382619E+03  0.22436371947E+03  0.00000000000E+00 0. -1.
          3    1    1    2  501    0 -0.14769169017E+02  0.18473812974E+02 -0.20364679934E+03  0.20501567989E+03  0.00000000000E+00 0. -1.
<mgrwt>
<rscale>  1 0.91961399E+02</rscale>
<asrwt>0</asrwt>
<pdfrwt beam="1">  1       21 0.69818694E-01 0.91961399E+02</pdfrwt>
<pdfrwt beam="2">  1        4 0.14090179E-02 0.91961399E+02</pdfrwt>
<totfact> 0.12532899E+05</totfact>
</mgrwt>
</event>
<event>
 6    2  0.7993170E+000  0.8726534E+02  0.7546771E-02  0.1309613E+00
         21   -1    0    0  501  502  0.00000000000E+00  0.00000000000E+00  0.12441987632E+02  0.12441987632E+02  0.00000000000E+00 0. -1.
          2   -1    0    0  502    0 -0.00000000000E+00 -0.00000000000E+00 -0.33423194384E+03  0.33423194384E+03  0.00000000000E+00 0. -1.
         24    2    1    2    0    0 -0.21231708723E+02 -0.22319448674E+02 -0.28808737117E+03  0.30101423937E+03  0.81647385949E+02 0.  0.
        -13    1    3    3    0    0  0.25379248506E+01  0.24386790312E+02 -0.36127081578E+02  0.43661454713E+02  0.00000000000E+00 0.  1.
         14    1    3    3    0    0 -0.23769633574E+02 -0.46706238986E+02 -0.25196028959E+03  0.25735278466E+03  0.00000000000E+00 0. -1.
          1    1    1    2  501    0  0.21231708723E+02  0.22319448674E+02 -0.33702585038E+02  0.45659692100E+02  0.00000000000E+00 0. -1.
<mgrwt>
<rscale>  1 0.87265336E+02</rscale>
<asrwt>0</asrwt>
<pdfrwt beam="1">  1       21 0.19141520E-02 0.87265336E+02</pdfrwt>
<pdfrwt beam="2">  1        2 0.51420297E-01 0.87265336E+02</pdfrwt>
<totfact> 0.14802167E+06</totfact>
</mgrwt>
</event>
<event>
 6    2  0.7993170E+000  0.7424046E+02  0.7546771E-02  0.1346239E+00
         21   -1    0    0  501  502  0.00000000000E+00  0.00000000000E+00  0.12053206347E+04  0.12053206347E+04  0.00000000000E+00 0.  1.
          2   -1    0    0  502    0 -0.00000000000E+00 -0.00000000000E+00 -0.20852885781E+01  0.20852885781E+01  0.00000000000E+00 0. -1.
         24    2    1    2    0    0  0.23827144392E+02 -0.27856675178E+01  0.10018050467E+04  0.10045521378E+04  0.70257762788E+02 0.  0.
        -11    1    3    3    0    0  0.20153339922E+02 -0.27195118834E+02  0.85625479089E+03  0.85692356632E+03  0.00000000000E+00 0.  1.
         12    1    3    3    0    0  0.36738044704E+01  0.24409451316E+02  0.14555025581E+03  0.14762857148E+03  0.00000000000E+00 0. -1.
          1    1    1    2  501    0 -0.23827144392E+02  0.27856675178E+01  0.20143029940E+03  0.20285378545E+03  0.00000000000E+00 0. -1.
<mgrwt>
<rscale>  1 0.74240461E+02</rscale>
<asrwt>0</asrwt>
<pdfrwt beam="1">  1       21 0.18543339E+00 0.74240461E+02</pdfrwt>
<pdfrwt beam="2">  1        2 0.32081459E-03 0.74240461E+02</pdfrwt>
<totfact> 0.13655089E+05</totfact>
</mgrwt>
</event>
<event>
 6    2  0.7993170E+000  0.9225144E+02  0.7546771E-02  0.1297489E+00
          2   -1    0    0  502    0 -0.00000000000E+00  0.00000000000E+00  0.43362800177E+03  0.43362800177E+03  0.00000000000E+00 0. -1.
         21   -1    0    0  501  502  0.00000000000E+00 -0.00000000000E+00 -0.48039409161E+02  0.48039409161E+02  0.00000000000E+00 0. -1.
         24    2    1    2    0    0 -0.63772036277E+01 -0.41359415316E+02  0.41842534871E+03  0.42847415465E+03  0.82213495232E+02 0.  0.
        -11    1    3    3    0    0  0.26048010788E+02 -0.24388566796E+02  0.74475489127E+02  0.82582683034E+02  0.00000000000E+00 0.  1.
         12    1    3    3    0    0 -0.32425214415E+02 -0.16970848520E+02  0.34394985959E+03  0.34589147162E+03  0.00000000000E+00 0. -1.
          1    1    1    2  501    0  0.63772036277E+01  0.41359415316E+02 -0.32836756108E+02  0.53193256275E+02  0.00000000000E+00 0. -1.
<mgrwt>
<rscale>  1 0.92251443E+02</rscale>
<asrwt>0</asrwt>
<pdfrwt beam="1">  1       21 0.73906786E-02 0.92251443E+02</pdfrwt>
<pdfrwt beam="2">  1        2 0.66711998E-01 0.92251443E+02</pdfrwt>
<totfact> 0.12275265E+05</totfact>
</mgrwt>
</event>
<event>
 6    2  0.7993170E+000  0.8467320E+02  0.7546771E-02  0.1316289E+00
          2   -1    0    0  502    0 -0.00000000000E+00  0.00000000000E+00  0.88930664975E+03  0.88930664975E+03  0.00000000000E+00 0. -1.
         21   -1    0    0  501  502  0.00000000000E+00 -0.00000000000E+00 -0.44367638615E+01  0.44367638615E+01  0.00000000000E+00 0. -1.
         24    2    1    2    0    0 -0.11145114537E+02 -0.16807472341E+02  0.84329706102E+03  0.84753730501E+03  0.82236522014E+02 0.  0.
        -13    1    3    3    0    0 -0.22986412560E+02 -0.21495660395E+02  0.11788841413E+03  0.12201687082E+03  0.00000000000E+00 0.  1.
         14    1    3    3    0    0  0.11841298023E+02  0.46881880539E+01  0.72540864690E+03  0.72552043420E+03  0.00000000000E+00 0. -1.
          1    1    1    2  501    0  0.11145114537E+02  0.16807472341E+02  0.41572824860E+02  0.46206108593E+02  0.00000000000E+00 0. -1.
<mgrwt>
<rscale>  1 0.84673197E+02</rscale>
<asrwt>0</asrwt>
<pdfrwt beam="1">  1       21 0.68257976E-03 0.84673197E+02</pdfrwt>
<pdfrwt beam="2">  1        2 0.13681627E+00 0.84673197E+02</pdfrwt>
<totfact> 0.24963167E+06</totfact>
</mgrwt>
</event>
<event>
 6    2  0.7993170E+000  0.9037145E+02  0.7546771E-02  0.1301955E+00
         21   -1    0    0  501  502  0.00000000000E+00  0.00000000000E+00  0.26824193058E+02  0.26824193058E+02  0.00000000000E+00 0. -1.
          2   -1    0    0  502    0 -0.00000000000E+00 -0.00000000000E+00 -0.41069303870E+03  0.41069303870E+03  0.00000000000E+00 0. -1.
         24    2    1    2    0    0  0.65481792752E+01  0.39905524924E+02 -0.38656520387E+03  0.39698823080E+03  0.80818741477E+02 0.  0.
        -13    1    3    3    0    0 -0.23310330354E+02 -0.99295047097E+01 -0.57510260242E+02  0.62844224859E+02  0.00000000000E+00 0.  1.
         14    1    3    3    0    0  0.29858509629E+02  0.49835029633E+02 -0.32905494363E+03  0.33414400594E+03  0.00000000000E+00 0. -1.
          1    1    1    2  501    0 -0.65481792752E+01 -0.39905524924E+02  0.26963582303E+01  0.40529000962E+02  0.00000000000E+00 0. -1.
<mgrwt>
<rscale>  1 0.90371448E+02</rscale>
<asrwt>0</asrwt>
<pdfrwt beam="1">  1       21 0.41267990E-02 0.90371448E+02</pdfrwt>
<pdfrwt beam="2">  1        2 0.63183543E-01 0.90371448E+02</pdfrwt>
<totfact> 0.34443798E+05</totfact>
</mgrwt>
</event>
<event>
 6    2  0.7993170E+000  0.8416765E+02  0.7546771E-02  0.1317624E+00
         21   -1    0    0  501  502  0.00000000000E+00  0.00000000000E+00  0.51517127980E+01  0.51517127980E+01  0.00000000000E+00 0. -1.
          2   -1    0    0  502    0 -0.00000000000E+00 -0.00000000000E+00 -0.96073251729E+03  0.96073251729E+03  0.00000000000E+00 0. -1.
         24    2    1    2    0    0 -0.28294632343E+00  0.20043400235E+02 -0.92788952421E+03  0.93169907315E+03  0.81745799924E+02 0.  0.
        -11    1    3    3    0    0 -0.40785022191E+02  0.14507497015E+02 -0.47898466965E+03  0.48093679342E+03  0.00000000000E+00 0.  1.
         12    1    3    3    0    0  0.40502075868E+02  0.55359032196E+01 -0.44890485456E+03  0.45076227973E+03  0.00000000000E+00 0. -1.
          1    1    1    2  501    0  0.28294632343E+00 -0.20043400235E+02 -0.27691280273E+02  0.34185156936E+02  0.00000000000E+00 0. -1.
<mgrwt>
<rscale>  1 0.84167653E+02</rscale>
<asrwt>0</asrwt>
<pdfrwt beam="1">  1       21 0.79257151E-03 0.84167653E+02</pdfrwt>
<pdfrwt beam="2">  1        2 0.14780494E+00 0.84167653E+02</pdfrwt>
<totfact> 0.17917501E+06</totfact>
</mgrwt>
</event>
<event>
 6    2  0.7993170E+000  0.8602716E+02  0.7546771E-02  0.1312768E+00
         -1   -1    0    0    0  501 -0.00000000000E+00  0.00000000000E+00  0.17994182932E+03  0.17994182932E+03  0.00000000000E+00 0.  1.
         21   -1    0    0  501  502  0.00000000000E+00 -0.00000000000E+00 -0.36633850169E+02  0.36633850169E+02  0.00000000000E+00 0.  1.
         24    2    1    2    0    0  0.11644499436E+02 -0.26663699049E+02  0.16098658212E+03  0.18253041232E+03  0.80957548032E+02 0.  0.
        -13    1    3    3    0    0  0.15809344761E+02  0.99147626709E+01  0.13772254894E+03  0.13898107204E+03  0.00000000000E+00 0.  1.
         14    1    3    3    0    0 -0.41648453258E+01 -0.36578461720E+02  0.23264033188E+02  0.43549340277E+02  0.00000000000E+00 0. -1.
         -2    1    1    2    0  502 -0.11644499436E+02  0.26663699049E+02 -0.17678602969E+02  0.34045267175E+02  0.00000000000E+00 0.  1.
<mgrwt>
<rscale>  1 0.86027157E+02</rscale>
<asrwt>0</asrwt>
<pdfrwt beam="1">  1       21 0.56359771E-02 0.86027157E+02</pdfrwt>
<pdfrwt beam="2">  1       -1 0.27683358E-01 0.86027157E+02</pdfrwt>
<totfact> 0.22167736E+05</totfact>
</mgrwt>
</event>
<event>
 6    2  0.7993170E+000  0.8576645E+02  0.7546771E-02  0.1313440E+00
          2   -1    0    0  502    0 -0.00000000000E+00  0.00000000000E+00  0.14571462574E+04  0.14571462574E+04  0.00000000000E+00 0. -1.
         21   -1    0    0  501  502  0.00000000000E+00 -0.00000000000E+00 -0.41407856565E+01  0.41407856565E+01  0.00000000000E+00 0. -1.
         24    2    1    2    0    0  0.18350742833E+02 -0.18176583798E+02  0.45888912366E+03  0.46683520838E+03  0.81784754144E+02 0.  0.
        -11    1    3    3    0    0 -0.20814354596E+02 -0.36292225556E+02  0.25730992437E+03  0.26068901046E+03  0.00000000000E+00 0.  1.
         12    1    3    3    0    0  0.39165097429E+02  0.18115641759E+02  0.20157919928E+03  0.20614619792E+03  0.00000000000E+00 0. -1.
          1    1    1    2  501    0 -0.18350742833E+02  0.18176583798E+02  0.99411634807E+03  0.99445183467E+03  0.00000000000E+00 0. -1.
<mgrwt>
<rscale>  1 0.85766450E+02</rscale>
<asrwt>0</asrwt>
<pdfrwt beam="1">  1       21 0.63704511E-03 0.85766450E+02</pdfrwt>
<pdfrwt beam="2">  1        2 0.22417594E+00 0.85766450E+02</pdfrwt>
<totfact> 0.13498469E+06</totfact>
</mgrwt>
</event>
<event>
 6    2  0.7993170E+000  0.8328881E+02  0.7546771E-02  0.1319969E+00
          2   -1    0    0  502    0 -0.00000000000E+00  0.00000000000E+00  0.24451143192E+03  0.24451143192E+03  0.00000000000E+00 0. -1.
         21   -1    0    0  501  502  0.00000000000E+00 -0.00000000000E+00 -0.12796545284E+02  0.12796545284E+02  0.00000000000E+00 0. -1.
         24    2    1    2    0    0  0.18058055768E+02 -0.16049332274E+02  0.14425791808E+03  0.16657542630E+03  0.79707912239E+02 0.  0.
        -13    1    3    3    0    0 -0.18647137410E+02  0.16761467011E+02  0.89471494567E+02  0.92918302019E+02  0.00000000000E+00 0.  1.
         14    1    3    3    0    0  0.36705193178E+02 -0.32810799285E+02  0.54786423509E+02  0.73657124278E+02  0.00000000000E+00 0. -1.
          1    1    1    2  501    0 -0.18058055768E+02  0.16049332274E+02  0.87456968564E+02  0.90732550912E+02  0.00000000000E+00 0. -1.
<mgrwt>
<rscale>  1 0.83288809E+02</rscale>
<asrwt>0</asrwt>
<pdfrwt beam="1">  1       21 0.19686995E-02 0.83288809E+02</pdfrwt>
<pdfrwt beam="2">  1        2 0.37617140E-01 0.83288809E+02</pdfrwt>
<totfact> 0.19505435E+06</totfact>
</mgrwt>
</event>
<event>
 6    2  0.7993170E+000  0.8418888E+02  0.7546771E-02  0.1317567E+00
         21   -1    0    0  501  502  0.00000000000E+00  0.00000000000E+00  0.85739511158E+01  0.85739511158E+01  0.00000000000E+00 0. -1.
          2   -1    0    0  502    0 -0.00000000000E+00 -0.00000000000E+00 -0.43316729407E+03  0.43316729407E+03  0.00000000000E+00 0. -1.
         24    2    1    2    0    0  0.28237559951E+01 -0.37070814766E+02 -0.27507557216E+03  0.28767053841E+03  0.75535086949E+02 0.  0.
        -13    1    3    3    0    0  0.34529673958E+01  0.18414105841E+02 -0.23530351611E+02  0.30077894287E+02  0.00000000000E+00 0.  1.
         14    1    3    3    0    0 -0.62921140069E+00 -0.55484920607E+02 -0.25154522055E+03  0.25759264412E+03  0.00000000000E+00 0. -1.
          1    1    1    2  501    0 -0.28237559951E+01  0.37070814766E+02 -0.14951777079E+03  0.15407070678E+03  0.00000000000E+00 0. -1.
<mgrwt>
<rscale>  1 0.84188884E+02</rscale>
<asrwt>0</asrwt>
<pdfrwt beam="1">  1       21 0.13190696E-02 0.84188884E+02</pdfrwt>
<pdfrwt beam="2">  1        2 0.66641113E-01 0.84188884E+02</pdfrwt>
<totfact> 0.20261142E+06</totfact>
</mgrwt>
</event>
<event>
 6    2  0.7993170E+000  0.8457743E+02  0.7546771E-02  0.1316541E+00
          2   -1    0    0  502    0 -0.00000000000E+00  0.00000000000E+00  0.21833876347E+03  0.21833876347E+03  0.00000000000E+00 0. -1.
         21   -1    0    0  501  502  0.00000000000E+00 -0.00000000000E+00 -0.14781242120E+02  0.14781242120E+02  0.00000000000E+00 0.  1.
         24    2    1    2    0    0  0.20843038640E+02  0.25397799092E+01  0.19040274035E+03  0.20834237445E+03  0.81929596097E+02 0.  0.
        -13    1    3    3    0    0  0.41972377904E+00  0.35152250963E+02  0.40734185661E+02  0.53806419666E+02  0.00000000000E+00 0.  1.
         14    1    3    3    0    0  0.20423314861E+02 -0.32612471054E+02  0.14966855469E+03  0.15453595478E+03  0.00000000000E+00 0. -1.
          1    1    1    2  501    0 -0.20843038640E+02 -0.25397799092E+01  0.13154780998E+02  0.24777631139E+02  0.00000000000E+00 0. -1.
<mgrwt>
<rscale>  1 0.84577429E+02</rscale>
<asrwt>0</asrwt>
<pdfrwt beam="1">  1       21 0.22740374E-02 0.84577429E+02</pdfrwt>
<pdfrwt beam="2">  1        2 0.33590577E-01 0.84577429E+02</pdfrwt>
<totfact> 0.17481310E+06</totfact>
</mgrwt>
</event>
<event>
 6    2  0.7993170E+000  0.5770804E+02  0.7546771E-02  0.1407710E+00
         -1   -1    0    0    0  501 -0.00000000000E+00  0.00000000000E+00  0.11283950941E+03  0.11283950941E+03  0.00000000000E+00 0.  1.
         21   -1    0    0  501  502  0.00000000000E+00 -0.00000000000E+00 -0.15770410755E+02  0.15770410755E+02  0.00000000000E+00 0. -1.
         24    2    1    2    0    0 -0.23812696789E+02  0.53864176049E+01  0.53633144710E+02  0.78782817920E+02  0.52289197402E+02 0.  0.
        -13    1    3    3    0    0 -0.11943408198E+01 -0.21864024898E+02  0.16093557521E+02  0.27174705673E+02  0.00000000000E+00 0.  1.
         14    1    3    3    0    0 -0.22618355969E+02  0.27250442503E+02  0.37539587190E+02  0.51608112247E+02  0.00000000000E+00 0. -1.
         -2    1    1    2    0  502  0.23812696789E+02 -0.53864176049E+01  0.43435953941E+02  0.49827102241E+02  0.00000000000E+00 0.  1.
<mgrwt>
<rscale>  1 0.57708043E+02</rscale>
<asrwt>0</asrwt>
<pdfrwt beam="1">  1       21 0.24262171E-02 0.57708043E+02</pdfrwt>
<pdfrwt beam="2">  1       -1 0.17359924E-01 0.57708043E+02</pdfrwt>
<totfact> 0.17508725E+06</totfact>
</mgrwt>
</event>
<event>
 6    2  0.7993170E+000  0.8983528E+02  0.7546771E-02  0.1303251E+00
         21   -1    0    0  501  502  0.00000000000E+00  0.00000000000E+00  0.59099464282E+01  0.59099464282E+01  0.00000000000E+00 0.  1.
          2   -1    0    0  502    0 -0.00000000000E+00 -0.00000000000E+00 -0.68281308358E+03  0.68281308358E+03  0.00000000000E+00 0. -1.
         24    2    1    2    0    0  0.28236272807E+02  0.21136680315E+02 -0.53576555496E+03  0.54324497852E+03  0.82621610084E+02 0.  0.
        -13    1    3    3    0    0  0.25420067702E+02 -0.17946494159E+02 -0.80633788451E+02  0.86429533925E+02  0.00000000000E+00 0.  1.
         14    1    3    3    0    0  0.28162051049E+01  0.39083174474E+02 -0.45513176650E+03  0.45681544459E+03  0.00000000000E+00 0. -1.
          1    1    1    2  501    0 -0.28236272807E+02 -0.21136680315E+02 -0.14113758220E+03  0.14547805149E+03  0.00000000000E+00 0. -1.
<mgrwt>
<rscale>  1 0.89835276E+02</rscale>
<asrwt>0</asrwt>
<pdfrwt beam="1">  1       21 0.90922266E-03 0.89835276E+02</pdfrwt>
<pdfrwt beam="2">  1        2 0.10504815E+00 0.89835276E+02</pdfrwt>
<totfact> 0.22174046E+06</totfact>
</mgrwt>
</event>
<event>
 6    2  0.7993170E+000  0.8221917E+02  0.7546771E-02  0.1322869E+00
         21   -1    0    0  501  502  0.00000000000E+00  0.00000000000E+00  0.10749163311E+01  0.10749163311E+01  0.00000000000E+00 0.  1.
          2   -1    0    0  502    0 -0.00000000000E+00 -0.00000000000E+00 -0.29493136604E+04  0.29493136604E+04  0.00000000000E+00 0. -1.
         24    2    1    2    0    0  0.19198015304E+02  0.16599609496E+02 -0.18093770803E+04  0.18112441610E+04  0.78204098325E+02 0.  0.
        -13    1    3    3    0    0  0.58783049131E+01  0.22548571365E+02 -0.14968112152E+03  0.15148409382E+03  0.00000000000E+00 0.  1.
         14    1    3    3    0    0  0.13319710391E+02 -0.59489618692E+01 -0.16596959588E+04  0.16597600672E+04  0.00000000000E+00 0. -1.
          1    1    1    2  501    0 -0.19198015304E+02 -0.16599609496E+02 -0.11388616638E+04  0.11391444158E+04  0.00000000000E+00 0. -1.
<mgrwt>
<rscale>  1 0.82219169E+02</rscale>
<asrwt>0</asrwt>
<pdfrwt beam="1">  1       21 0.16537141E-03 0.82219169E+02</pdfrwt>
<pdfrwt beam="2">  1        2 0.45374149E+00 0.82219169E+02</pdfrwt>
<totfact> 0.17580601E+06</totfact>
</mgrwt>
</event>
<event>
 6    2  0.7993170E+000  0.9039536E+02  0.7546771E-02  0.1301897E+00
         21   -1    0    0  501  502  0.00000000000E+00  0.00000000000E+00  0.36162617868E+01  0.36162617868E+01  0.00000000000E+00 0. -1.
          2   -1    0    0  502    0 -0.00000000000E+00 -0.00000000000E+00 -0.21017003515E+04  0.21017003515E+04  0.00000000000E+00 0. -1.
         24    2    1    2    0    0 -0.20382412037E+02  0.28258943617E+02 -0.19833435718E+04  0.19854024896E+04  0.83410498047E+02 0.  0.
        -11    1    3    3    0    0 -0.54629489245E+01  0.13041409596E+02 -0.50517547709E+02  0.52458982088E+02  0.00000000000E+00 0.  1.
         12    1    3    3    0    0 -0.14919463112E+02  0.15217534021E+02 -0.19328260241E+04  0.19329435075E+04  0.00000000000E+00 0. -1.
          1    1    1    2  501    0  0.20382412037E+02 -0.28258943617E+02 -0.11474051787E+03  0.11991412367E+03  0.00000000000E+00 0. -1.
<mgrwt>
<rscale>  1 0.90395364E+02</rscale>
<asrwt>0</asrwt>
<pdfrwt beam="1">  1       21 0.55634819E-03 0.90395364E+02</pdfrwt>
<pdfrwt beam="2">  1        2 0.32333839E+00 0.90395364E+02</pdfrwt>
<totfact> 0.78999096E+05</totfact>
</mgrwt>
</event>
<event>
 6    2  0.7993170E+000  0.9563039E+02  0.7546771E-02  0.1289763E+00
         21   -1    0    0  501  502  0.00000000000E+00  0.00000000000E+00  0.35618829896E+02  0.35618829896E+02  0.00000000000E+00 0. -1.
          2   -1    0    0  502    0 -0.00000000000E+00 -0.00000000000E+00 -0.14873620642E+03  0.14873620642E+03  0.00000000000E+00 0. -1.
         24    2    1    2    0    0  0.40657542849E+01  0.49735228661E+02 -0.72254429293E+02  0.11985772022E+03  0.81578472744E+02 0.  0.
        -11    1    3    3    0    0 -0.20399055900E+02 -0.14379366414E+02 -0.30962266409E+02  0.39768701277E+02  0.00000000000E+00 0.  1.
         12    1    3    3    0    0  0.24464810185E+02  0.64114595075E+02 -0.41292162884E+02  0.80089018939E+02  0.00000000000E+00 0. -1.
          1    1    1    2  501    0 -0.40657542849E+01 -0.49735228661E+02 -0.40862947236E+02  0.64497316104E+02  0.00000000000E+00 0. -1.
<mgrwt>
<rscale>  1 0.95630385E+02</rscale>
<asrwt>0</asrwt>
<pdfrwt beam="1">  1       21 0.54798199E-02 0.95630385E+02</pdfrwt>
<pdfrwt beam="2">  1        2 0.22882494E-01 0.95630385E+02</pdfrwt>
<totfact> 0.63457807E+05</totfact>
</mgrwt>
</event>
<event>
 6    2  0.7993170E+000  0.9014403E+02  0.7546771E-02  0.1302503E+00
          2   -1    0    0  502    0 -0.00000000000E+00  0.00000000000E+00  0.22995478301E+04  0.22995478301E+04  0.00000000000E+00 0. -1.
         21   -1    0    0  501  502  0.00000000000E+00 -0.00000000000E+00 -0.17347559690E+01  0.17347559690E+01  0.00000000000E+00 0. -1.
         24    2    1    2    0    0 -0.22872532849E+02  0.25307913304E+02  0.18358319467E+04  0.18380437650E+04  0.83440411841E+02 0.  0.
        -13    1    3    3    0    0  0.22137722982E+02  0.82478405787E+01  0.18396869835E+03  0.18547934555E+03  0.00000000000E+00 0.  1.
         14    1    3    3    0    0 -0.45010255831E+02  0.17060072725E+02  0.16518632484E+04  0.16525644195E+04  0.00000000000E+00 0. -1.
          1    1    1    2  501    0  0.22872532849E+02 -0.25307913304E+02  0.46198112735E+03  0.46323882098E+03  0.00000000000E+00 0. -1.
<mgrwt>
<rscale>  1 0.90144027E+02</rscale>
<asrwt>0</asrwt>
<pdfrwt beam="1">  1       21 0.26688737E-03 0.90144027E+02</pdfrwt>
<pdfrwt beam="2">  1        2 0.35377415E+00 0.90144027E+02</pdfrwt>
<totfact> 0.19166498E+06</totfact>
</mgrwt>
</event>
<event>
 6    2  0.7993170E+000  0.8906515E+02  0.7546771E-02  0.1305131E+00
          2   -1    0    0  502    0 -0.00000000000E+00  0.00000000000E+00  0.11676974563E+03  0.11676974563E+03  0.00000000000E+00 0. -1.
         21   -1    0    0  501  502  0.00000000000E+00 -0.00000000000E+00 -0.53015683306E+02  0.53015683306E+02  0.00000000000E+00 0.  1.
         24    2    1    2    0    0 -0.26614512284E+02  0.32822685219E+02 -0.48657463552E+01  0.89197966685E+02  0.78402428815E+02 0.  0.
        -11    1    3    3    0    0  0.18957633488E+02  0.33944037436E+02 -0.16366670920E+02  0.42183616037E+02  0.00000000000E+00 0.  1.
         12    1    3    3    0    0 -0.45572145772E+02 -0.11213522174E+01  0.11500924565E+02  0.47014350648E+02  0.00000000000E+00 0. -1.
          1    1    1    2  501    0  0.26614512284E+02 -0.32822685219E+02  0.68619808682E+02  0.80587462255E+02  0.00000000000E+00 0. -1.
<mgrwt>
<rscale>  1 0.89065155E+02</rscale>
<asrwt>0</asrwt>
<pdfrwt beam="1">  1       21 0.81562590E-02 0.89065155E+02</pdfrwt>
<pdfrwt beam="2">  1        2 0.17964576E-01 0.89065155E+02</pdfrwt>
<totfact> 0.42147942E+05</totfact>
</mgrwt>
</event>
<event>
 6    2  0.7993170E+000  0.8390052E+02  0.7546771E-02  0.1318333E+00
          2   -1    0    0  502    0 -0.00000000000E+00  0.00000000000E+00  0.20893014757E+03  0.20893014757E+03  0.00000000000E+00 0. -1.
         21   -1    0    0  501  502  0.00000000000E+00 -0.00000000000E+00 -0.11417139379E+03  0.11417139379E+03  0.00000000000E+00 0. -1.
         24    2    1    2    0    0 -0.22390373345E+02  0.72941833761E+01  0.19914227291E+03  0.21609475188E+03  0.80528026202E+02 0.  0.
        -11    1    3    3    0    0 -0.26448534372E+02 -0.33620153071E+02  0.99979022864E+02  0.10874578004E+03  0.00000000000E+00 0.  1.
         12    1    3    3    0    0  0.40581610270E+01  0.40914336447E+02  0.99163250043E+02  0.10734897185E+03  0.00000000000E+00 0. -1.
          1    1    1    2  501    0  0.22390373345E+02 -0.72941833761E+01 -0.10438351913E+03  0.10700678948E+03  0.00000000000E+00 0. -1.
<mgrwt>
<rscale>  1 0.83900518E+02</rscale>
<asrwt>0</asrwt>
<pdfrwt beam="1">  1       21 0.17564830E-01 0.83900518E+02</pdfrwt>
<pdfrwt beam="2">  1        2 0.32143100E-01 0.83900518E+02</pdfrwt>
<totfact> 0.57900552E+04</totfact>
</mgrwt>
</event>
<event>
 6    2  0.7993170E+000  0.1085023E+03  0.7546771E-02  0.1263369E+00
         21   -1    0    0  501  502  0.00000000000E+00  0.00000000000E+00  0.10965992771E+02  0.10965992771E+02  0.00000000000E+00 0.  1.
          2   -1    0    0  502    0 -0.00000000000E+00 -0.00000000000E+00 -0.93153630809E+03  0.93153630809E+03  0.00000000000E+00 0. -1.
         24    2    1    2    0    0  0.70795204836E+02 -0.95715332230E+01 -0.32434494982E+03  0.34201228284E+03  0.81665046776E+02 0.  0.
        -11    1    3    3    0    0  0.50734766557E+02 -0.15934937457E+02 -0.75888442232E+02  0.92666037110E+02  0.00000000000E+00 0.  1.
         12    1    3    3    0    0  0.20060438279E+02  0.63634042345E+01 -0.24845650759E+03  0.24934624573E+03  0.00000000000E+00 0. -1.
          1    1    1    2  501    0 -0.70795204836E+02  0.95715332230E+01 -0.59622536549E+03  0.60049001801E+03  0.00000000000E+00 0. -1.
<mgrwt>
<rscale>  1 0.10850233E+03</rscale>
<asrwt>0</asrwt>
<pdfrwt beam="1">  1       21 0.16870756E-02 0.10850233E+03</pdfrwt>
<pdfrwt beam="2">  1        2 0.14331330E+00 0.10850233E+03</pdfrwt>
<totfact> 0.58030686E+05</totfact>
</mgrwt>
</event>
<event>
 6    2  0.7993170E+000  0.8643855E+02  0.7546771E-02  0.1311713E+00
         21   -1    0    0  501  502  0.00000000000E+00  0.00000000000E+00  0.33455235758E+02  0.33455235758E+02  0.00000000000E+00 0. -1.
         -3   -1    0    0    0  501 -0.00000000000E+00 -0.00000000000E+00 -0.13223373388E+03  0.13223373388E+03  0.00000000000E+00 0.  1.
         24    2    1    2    0    0  0.23376389607E+02 -0.22450512759E+02 -0.33305826563E+02  0.92633156487E+02  0.80132031570E+02 0.  0.
        -11    1    3    3    0    0  0.13332923355E+02  0.20108222674E+02 -0.41633782885E+02  0.48119427902E+02  0.00000000000E+00 0.  1.
         12    1    3    3    0    0  0.10043466252E+02 -0.42558735433E+02  0.83279563224E+01  0.44513728584E+02  0.00000000000E+00 0. -1.
         -4    1    1    2    0  502 -0.23376389607E+02  0.22450512759E+02 -0.65472671559E+02  0.73055813151E+02  0.00000000000E+00 0.  1.
<mgrwt>
<rscale>  1 0.86438554E+02</rscale>
<asrwt>0</asrwt>
<pdfrwt beam="1">  1       21 0.51469595E-02 0.86438554E+02</pdfrwt>
<pdfrwt beam="2">  1       -3 0.20343651E-01 0.86438554E+02</pdfrwt>
<totfact> 0.24607727E+05</totfact>
</mgrwt>
</event>
<event>
 6    2  0.7993170E+000  0.8229229E+02  0.7546771E-02  0.1322669E+00
          2   -1    0    0  502    0 -0.00000000000E+00  0.00000000000E+00  0.25872529967E+03  0.25872529967E+03  0.00000000000E+00 0. -1.
         21   -1    0    0  501  502  0.00000000000E+00 -0.00000000000E+00 -0.16051214308E+02  0.16051214308E+02  0.00000000000E+00 0. -1.
         24    2    1    2    0    0  0.18987502911E+02 -0.73282889646E+01  0.24064070719E+03  0.25432257272E+03  0.79735763341E+02 0.  0.
        -11    1    3    3    0    0 -0.46416614842E+01  0.33072408212E+02  0.73104506919E+02  0.80371625205E+02  0.00000000000E+00 0.  1.
         12    1    3    3    0    0  0.23629164395E+02 -0.40400697177E+02  0.16753620027E+03  0.17395094752E+03  0.00000000000E+00 0. -1.
          1    1    1    2  501    0 -0.18987502911E+02  0.73282889646E+01  0.20333781733E+01  0.20453941252E+02  0.00000000000E+00 0. -1.
<mgrwt>
<rscale>  1 0.82292290E+02</rscale>
<asrwt>0</asrwt>
<pdfrwt beam="1">  1       21 0.24694178E-02 0.82292290E+02</pdfrwt>
<pdfrwt beam="2">  1        2 0.39803889E-01 0.82292290E+02</pdfrwt>
<totfact> 0.12768523E+06</totfact>
</mgrwt>
</event>
<event>
 6    2  0.7993170E+000  0.8229244E+02  0.7546771E-02  0.1322669E+00
         21   -1    0    0  501  502  0.00000000000E+00  0.00000000000E+00  0.11358179923E+02  0.11358179923E+02  0.00000000000E+00 0.  1.
          2   -1    0    0  502    0 -0.00000000000E+00 -0.00000000000E+00 -0.31387645832E+03  0.31387645832E+03  0.00000000000E+00 0. -1.
         24    2    1    2    0    0 -0.83141288091E+01  0.23881768849E+02 -0.27833228388E+03  0.29024283989E+03  0.78310805354E+02 0.  0.
        -13    1    3    3    0    0 -0.97233225350E+01  0.41366913142E+02 -0.75370711451E+02  0.86524612965E+02  0.00000000000E+00 0.  1.
         14    1    3    3    0    0  0.14091937260E+01 -0.17485144293E+02 -0.20296157243E+03  0.20371822693E+03  0.00000000000E+00 0. -1.
          1    1    1    2  501    0  0.83141288091E+01 -0.23881768849E+02 -0.24185994511E+02  0.34991798349E+02  0.00000000000E+00 0. -1.
<mgrwt>
<rscale>  1 0.82292441E+02</rscale>
<asrwt>0</asrwt>
<pdfrwt beam="1">  1       21 0.17474126E-02 0.82292441E+02</pdfrwt>
<pdfrwt beam="2">  1        2 0.48288678E-01 0.82292441E+02</pdfrwt>
<totfact> 0.18145735E+06</totfact>
</mgrwt>
</event>
<event>
 6    2  0.7993170E+000  0.9115763E+02  0.7546771E-02  0.1300072E+00
          2   -1    0    0  502    0 -0.00000000000E+00  0.00000000000E+00  0.24102680233E+03  0.24102680233E+03  0.00000000000E+00 0. -1.
         21   -1    0    0  501  502  0.00000000000E+00 -0.00000000000E+00 -0.24076361339E+02  0.24076361339E+02  0.00000000000E+00 0.  1.
         24    2    1    2    0    0  0.38649041904E+02  0.39117281295E+01  0.75341562266E+02  0.11826269040E+03  0.82466131702E+02 0.  0.
        -13    1    3    3    0    0  0.26082011313E+02  0.19897736876E+02 -0.69182184164E+01  0.33526899543E+02  0.00000000000E+00 0.  1.
         14    1    3    3    0    0  0.12567030591E+02 -0.15986008747E+02  0.82259780683E+02  0.84735790853E+02  0.00000000000E+00 0. -1.
          1    1    1    2  501    0 -0.38649041904E+02 -0.39117281295E+01  0.14160887873E+03  0.14684047327E+03  0.00000000000E+00 0. -1.
<mgrwt>
<rscale>  1 0.91157627E+02</rscale>
<asrwt>0</asrwt>
<pdfrwt beam="1">  1       21 0.37040558E-02 0.91157627E+02</pdfrwt>
<pdfrwt beam="2">  1        2 0.37081045E-01 0.91157627E+02</pdfrwt>
<totfact> 0.71967590E+05</totfact>
</mgrwt>
</event>
<event>
 6    2  0.7993170E+000  0.7741409E+02  0.7546771E-02  0.1336554E+00
         21   -1    0    0  501  502  0.00000000000E+00  0.00000000000E+00  0.38334511581E+01  0.38334511581E+01  0.00000000000E+00 0. -1.
          2   -1    0    0  502    0 -0.00000000000E+00 -0.00000000000E+00 -0.69748084721E+03  0.69748084721E+03  0.00000000000E+00 0. -1.
         24    2    1    2    0    0  0.25092269140E+02 -0.28615774368E+01 -0.55682935838E+03  0.56218491244E+03  0.73178759394E+02 0.  0.
        -13    1    3    3    0    0 -0.23443527789E+02 -0.80504506368E+01 -0.27911155533E+03  0.28021004456E+03  0.00000000000E+00 0.  1.
         14    1    3    3    0    0  0.48535796929E+02  0.51888732001E+01 -0.27771780305E+03  0.28197486789E+03  0.00000000000E+00 0. -1.
          1    1    1    2  501    0 -0.25092269140E+02  0.28615774368E+01 -0.13681803767E+03  0.13912938592E+03  0.00000000000E+00 0. -1.
<mgrwt>
<rscale>  1 0.77414091E+02</rscale>
<asrwt>0</asrwt>
<pdfrwt beam="1">  1       21 0.58976245E-03 0.77414091E+02</pdfrwt>
<pdfrwt beam="2">  1        2 0.10730461E+00 0.77414091E+02</pdfrwt>
<totfact> 0.41495567E+06</totfact>
</mgrwt>
</event>
<event>
 6    2  0.7993170E+000  0.8758875E+02  0.7546771E-02  0.1308798E+00
          2   -1    0    0  502    0 -0.00000000000E+00  0.00000000000E+00  0.12149189506E+04  0.12149189506E+04  0.00000000000E+00 0. -1.
         21   -1    0    0  501  502  0.00000000000E+00 -0.00000000000E+00 -0.32038479200E+01  0.32038479200E+01  0.00000000000E+00 0. -1.
         24    2    1    2    0    0 -0.28610319986E+02 -0.16605288896E+02  0.10012580409E+04  0.10050818145E+04  0.81101808218E+02 0.  0.
        -13    1    3    3    0    0  0.11131715117E+02  0.26456734055E+02  0.29209761488E+03  0.29350449822E+03  0.00000000000E+00 0.  1.
         14    1    3    3    0    0 -0.39742035103E+02 -0.43062022952E+02  0.70916042600E+03  0.71157731624E+03  0.00000000000E+00 0. -1.
          1    1    1    2  501    0  0.28610319986E+02  0.16605288896E+02  0.21045706179E+03  0.21304098406E+03  0.00000000000E+00 0. -1.
<mgrwt>
<rscale>  1 0.87588751E+02</rscale>
<asrwt>0</asrwt>
<pdfrwt beam="1">  1       21 0.49290065E-03 0.87588751E+02</pdfrwt>
<pdfrwt beam="2">  1        2 0.18691024E+00 0.87588751E+02</pdfrwt>
<totfact> 0.26863232E+06</totfact>
</mgrwt>
</event>
<event>
 6    2  0.7993170E+000  0.1022161E+03  0.7546771E-02  0.1275704E+00
         21   -1    0    0  501  502  0.00000000000E+00  0.00000000000E+00  0.10105421284E+03  0.10105421284E+03  0.00000000000E+00 0.  1.
          2   -1    0    0  502    0 -0.00000000000E+00 -0.00000000000E+00 -0.14745780485E+03  0.14745780485E+03  0.00000000000E+00 0. -1.
         24    2    1    2    0    0  0.41135303690E+02  0.49935121231E+02  0.63963957458E+02  0.12057990476E+03  0.79135933907E+02 0.  0.
        -13    1    3    3    0    0  0.32314714462E+02  0.48140301567E+02  0.81996912916E+02  0.10042521164E+03  0.00000000000E+00 0.  1.
         14    1    3    3    0    0  0.88205892278E+01  0.17948196643E+01 -0.18032955458E+02  0.20154693114E+02  0.00000000000E+00 0. -1.
          1    1    1    2  501    0 -0.41135303690E+02 -0.49935121231E+02 -0.11036754947E+03  0.12793211293E+03  0.00000000000E+00 0. -1.
<mgrwt>
<rscale>  1 0.10221607E+03</rscale>
<asrwt>0</asrwt>
<pdfrwt beam="1">  1       21 0.15546802E-01 0.10221607E+03</pdfrwt>
<pdfrwt beam="2">  1        2 0.22685816E-01 0.10221607E+03</pdfrwt>
<totfact> 0.10591245E+05</totfact>
</mgrwt>
</event>
<event>
 6    2  0.7993170E+000  0.9024726E+02  0.7546771E-02  0.1302254E+00
         21   -1    0    0  501  502  0.00000000000E+00  0.00000000000E+00  0.14731498148E+02  0.14731498148E+02  0.00000000000E+00 0.  1.
          2   -1    0    0  502    0 -0.00000000000E+00 -0.00000000000E+00 -0.35465697763E+03  0.35465697763E+03  0.00000000000E+00 0. -1.
         24    2    1    2    0    0 -0.35407799002E+02  0.28651639362E+02 -0.15908916060E+03  0.18290415232E+03  0.77909814835E+02 0.  0.
        -13    1    3    3    0    0 -0.52716212253E+02  0.61834224020E+01 -0.61303989681E+02  0.81088919698E+02  0.00000000000E+00 0.  1.
         14    1    3    3    0    0  0.17308413251E+02  0.22468216960E+02 -0.97785170915E+02  0.10181523262E+03  0.00000000000E+00 0. -1.
          1    1    1    2  501    0  0.35407799002E+02 -0.28651639362E+02 -0.18083631889E+03  0.18648432346E+03  0.00000000000E+00 0. -1.
<mgrwt>
<rscale>  1 0.90247260E+02</rscale>
<asrwt>0</asrwt>
<pdfrwt beam="1">  1       21 0.22663845E-02 0.90247260E+02</pdfrwt>
<pdfrwt beam="2">  1        2 0.54562608E-01 0.90247260E+02</pdfrwt>
<totfact> 0.10653751E+06</totfact>
</mgrwt>
</event>
<event>
 6    2  0.7993170E+000  0.8892501E+02  0.7546771E-02  0.1305476E+00
          2   -1    0    0  502    0 -0.00000000000E+00  0.00000000000E+00  0.13390400998E+04  0.13390400998E+04  0.00000000000E+00 0. -1.
         21   -1    0    0  501  502  0.00000000000E+00 -0.00000000000E+00 -0.31441384948E+01  0.31441384948E+01  0.00000000000E+00 0.  1.
         24    2    1    2    0    0 -0.22746499716E+02 -0.33885145427E+02  0.92982343313E+03  0.93406599015E+03  0.79006650529E+02 0.  0.
        -13    1    3    3    0    0 -0.20501640329E+02  0.13320152769E+02  0.10178787034E+03  0.10468292255E+03  0.00000000000E+00 0.  1.
         14    1    3    3    0    0 -0.22448593865E+01 -0.47205298196E+02  0.82803556279E+03  0.82938306760E+03  0.00000000000E+00 0. -1.
          1    1    1    2  501    0  0.22746499716E+02  0.33885145427E+02  0.40607252817E+03  0.40811824814E+03  0.00000000000E+00 0. -1.
<mgrwt>
<rscale>  1 0.88925009E+02</rscale>
<asrwt>0</asrwt>
<pdfrwt beam="1">  1       21 0.48371468E-03 0.88925009E+02</pdfrwt>
<pdfrwt beam="2">  1        2 0.20600571E+00 0.88925009E+02</pdfrwt>
<totfact> 0.23786580E+06</totfact>
</mgrwt>
</event>
<event>
 6    2  0.7993170E+000  0.8231384E+02  0.7546771E-02  0.1322610E+00
         21   -1    0    0  501  502  0.00000000000E+00  0.00000000000E+00  0.32869206738E+02  0.32869206738E+02  0.00000000000E+00 0.  1.
          2   -1    0    0  502    0 -0.00000000000E+00 -0.00000000000E+00 -0.11140791926E+03  0.11140791926E+03  0.00000000000E+00 0. -1.
         24    2    1    2    0    0 -0.11632429209E+02  0.16896879244E+02 -0.23595052799E+02  0.85628820982E+02  0.79716689148E+02 0.  0.
        -11    1    3    3    0    0  0.32002390290E+02  0.15719753199E+02  0.72144143720E+00  0.35662082141E+02  0.00000000000E+00 0.  1.
         12    1    3    3    0    0 -0.43634819499E+02  0.11771260452E+01 -0.24316494236E+02  0.49966738841E+02  0.00000000000E+00 0. -1.
          1    1    1    2  501    0  0.11632429209E+02 -0.16896879244E+02 -0.54943659728E+02  0.58648305020E+02  0.00000000000E+00 0. -1.
<mgrwt>
<rscale>  1 0.82313841E+02</rscale>
<asrwt>0</asrwt>
<pdfrwt beam="1">  1       21 0.50568009E-02 0.82313841E+02</pdfrwt>
<pdfrwt beam="2">  1        2 0.17139680E-01 0.82313841E+02</pdfrwt>
<totfact> 0.98653753E+05</totfact>
</mgrwt>
</event>
<event>
 6    2  0.7993170E+000  0.2748841E+03  0.7546771E-02  0.1098516E+00
         21   -1    0    0  501  502  0.00000000000E+00  0.00000000000E+00  0.81508640474E+02  0.81508640474E+02  0.00000000000E+00 0.  1.
          2   -1    0    0  502    0 -0.00000000000E+00 -0.00000000000E+00 -0.10517420799E+04  0.10517420799E+04  0.00000000000E+00 0. -1.
         24    2    1    2    0    0  0.25032096378E+03  0.80447077635E+02 -0.71831317794E+03  0.76911319779E+03  0.80180871745E+02 0.  0.
        -11    1    3    3    0    0  0.23296148111E+03  0.47662549610E+02 -0.62151885334E+03  0.66545357116E+03  0.00000000000E+00 0.  1.
         12    1    3    3    0    0  0.17359482674E+02  0.32784528025E+02 -0.96794324606E+02  0.10365962663E+03  0.00000000000E+00 0. -1.
          1    1    1    2  501    0 -0.25032096378E+03 -0.80447077635E+02 -0.25192026148E+03  0.36413752258E+03  0.00000000000E+00 0. -1.
<mgrwt>
<rscale>  1 0.27488414E+03</rscale>
<asrwt>0</asrwt>
<pdfrwt beam="1">  1       21 0.12539791E-01 0.27488414E+03</pdfrwt>
<pdfrwt beam="2">  1        2 0.16180647E+00 0.27488414E+03</pdfrwt>
<totfact> 0.16548910E+04</totfact>
</mgrwt>
</event>
<event>
 6    2  0.7993170E+000  0.1190025E+03  0.7546771E-02  0.1244752E+00
         21   -1    0    0  501  502  0.00000000000E+00  0.00000000000E+00  0.12284958258E+02  0.12284958258E+02  0.00000000000E+00 0. -1.
          2   -1    0    0  502    0 -0.00000000000E+00 -0.00000000000E+00 -0.95800816872E+03  0.95800816872E+03  0.00000000000E+00 0. -1.
         24    2    1    2    0    0  0.69886884703E+02 -0.50778285914E+02 -0.38553874644E+03  0.40348694785E+03  0.81847303556E+02 0.  0.
        -13    1    3    3    0    0 -0.16166026402E+02 -0.23782910657E+02 -0.87933276454E+02  0.92516097825E+02  0.00000000000E+00 0.  1.
         14    1    3    3    0    0  0.86052911105E+02 -0.26995375257E+02 -0.29760546999E+03  0.31097085002E+03  0.00000000000E+00 0. -1.
          1    1    1    2  501    0 -0.69886884703E+02  0.50778285914E+02 -0.56018446402E+03  0.56680617913E+03  0.00000000000E+00 0. -1.
<mgrwt>
<rscale>  1 0.11900249E+03</rscale>
<asrwt>0</asrwt>
<pdfrwt beam="1">  1       21 0.18899930E-02 0.11900249E+03</pdfrwt>
<pdfrwt beam="2">  1        2 0.14738592E+00 0.11900249E+03</pdfrwt>
<totfact> 0.46850328E+05</totfact>
</mgrwt>
</event>
<event>
 6    2  0.7993170E+000  0.8414601E+02  0.7546771E-02  0.1317681E+00
         -1   -1    0    0    0  501 -0.00000000000E+00  0.00000000000E+00  0.38338930419E+03  0.38338930419E+03  0.00000000000E+00 0.  1.
         21   -1    0    0  501  502  0.00000000000E+00 -0.00000000000E+00 -0.75055528648E+01  0.75055528648E+01  0.00000000000E+00 0. -1.
         24    2    1    2    0    0 -0.15305917303E+02 -0.13696537890E+02  0.33110854787E+03  0.34163346143E+03  0.81600767399E+02 0.  0.
        -11    1    3    3    0    0  0.27836309987E+02 -0.21252345552E+01  0.22181215498E+03  0.22356209176E+03  0.00000000000E+00 0.  1.
         12    1    3    3    0    0 -0.43142227290E+02 -0.11571303335E+02  0.10929639289E+03  0.11807136967E+03  0.00000000000E+00 0. -1.
         -2    1    1    2    0  502  0.15305917303E+02  0.13696537890E+02  0.44775203456E+02  0.49261395628E+02  0.00000000000E+00 0.  1.
<mgrwt>
<rscale>  1 0.84146013E+02</rscale>
<asrwt>0</asrwt>
<pdfrwt beam="1">  1       21 0.11547007E-02 0.84146013E+02</pdfrwt>
<pdfrwt beam="2">  1       -1 0.58982955E-01 0.84146013E+02</pdfrwt>
<totfact> 0.76660005E+05</totfact>
</mgrwt>
</event>
<event>
 6    2  0.7993170E+000  0.9885362E+02  0.7546771E-02  0.1282725E+00
         21   -1    0    0  501  502  0.00000000000E+00  0.00000000000E+00  0.47970479182E+02  0.47970479182E+02  0.00000000000E+00 0.  1.
          2   -1    0    0  502    0 -0.00000000000E+00 -0.00000000000E+00 -0.12242901012E+03  0.12242901012E+03  0.00000000000E+00 0. -1.
         24    2    1    2    0    0  0.27503351919E+02  0.43373665436E+02 -0.64637417832E+02  0.11811026017E+03  0.84464954591E+02 0.  0.
        -13    1    3    3    0    0  0.65072404744E+01  0.62895909970E+02 -0.22441218893E+02  0.67095811903E+02  0.00000000000E+00 0.  1.
         14    1    3    3    0    0  0.20996111444E+02 -0.19522244534E+02 -0.42196198938E+02  0.51014448270E+02  0.00000000000E+00 0. -1.
          1    1    1    2  501    0 -0.27503351919E+02 -0.43373665436E+02 -0.98211131047E+01  0.52289229127E+02  0.00000000000E+00 0. -1.
<mgrwt>
<rscale>  1 0.98853618E+02</rscale>
<asrwt>0</asrwt>
<pdfrwt beam="1">  1       21 0.73800737E-02 0.98853618E+02</pdfrwt>
<pdfrwt beam="2">  1        2 0.18835232E-01 0.98853618E+02</pdfrwt>
<totfact> 0.47816552E+05</totfact>
</mgrwt>
</event>
<event>
 6    2  0.7993170E+000  0.9713386E+02  0.7546771E-02  0.1286441E+00
          2   -1    0    0  502    0 -0.00000000000E+00  0.00000000000E+00  0.43042395022E+03  0.43042395022E+03  0.00000000000E+00 0. -1.
         21   -1    0    0  501  502  0.00000000000E+00 -0.00000000000E+00 -0.15059168220E+02  0.15059168220E+02  0.00000000000E+00 0. -1.
         24    2    1    2    0    0 -0.55265555795E+02 -0.69191057398E+00  0.18937647362E+03  0.21283429313E+03  0.79876324220E+02 0.  0.
        -13    1    3    3    0    0 -0.22105307567E+02  0.22817590215E+01  0.17662360053E+01  0.22292838234E+02  0.00000000000E+00 0.  1.
         14    1    3    3    0    0 -0.33160248227E+02 -0.29736695955E+01  0.18761023762E+03  0.19054145489E+03  0.00000000000E+00 0. -1.
          1    1    1    2  501    0  0.55265555795E+02  0.69191057398E+00  0.22598830838E+03  0.23264882531E+03  0.00000000000E+00 0. -1.
<mgrwt>
<rscale>  1 0.97133864E+02</rscale>
<asrwt>0</asrwt>
<pdfrwt beam="1">  1       21 0.23167954E-02 0.97133864E+02</pdfrwt>
<pdfrwt beam="2">  1        2 0.66219060E-01 0.97133864E+02</pdfrwt>
<totfact> 0.84446636E+05</totfact>
</mgrwt>
</event>
<event>
 6    2  0.7993170E+000  0.8781315E+02  0.7546771E-02  0.1308236E+00
         21   -1    0    0  501  502  0.00000000000E+00  0.00000000000E+00  0.38979756720E+01  0.38979756720E+01  0.00000000000E+00 0. -1.
          2   -1    0    0  502    0 -0.00000000000E+00 -0.00000000000E+00 -0.12384416674E+04  0.12384416674E+04  0.00000000000E+00 0. -1.
         24    2    1    2    0    0 -0.27067190360E+02 -0.22171488041E+02 -0.10935261621E+04  0.10970463145E+04  0.80541549555E+02 0.  0.
        -13    1    3    3    0    0 -0.30255893286E+02  0.18068973756E+02 -0.79778721142E+03  0.79856517680E+03  0.00000000000E+00 0.  1.
         14    1    3    3    0    0  0.31887029257E+01 -0.40240461797E+02 -0.29573895068E+03  0.29848113766E+03  0.00000000000E+00 0. -1.
          1    1    1    2  501    0  0.27067190360E+02  0.22171488041E+02 -0.14101752965E+03  0.14529332863E+03  0.00000000000E+00 0. -1.
<mgrwt>
<rscale>  1 0.87813148E+02</rscale>
<asrwt>0</asrwt>
<pdfrwt beam="1">  1       21 0.59968919E-03 0.87813148E+02</pdfrwt>
<pdfrwt beam="2">  1        2 0.19052929E+00 0.87813148E+02</pdfrwt>
<totfact> 0.19315054E+06</totfact>
</mgrwt>
</event>
<event>
 6    2  0.7993170E+000  0.8752752E+02  0.7546771E-02  0.1308952E+00
         21   -1    0    0  501  502  0.00000000000E+00  0.00000000000E+00  0.14131200399E+02  0.14131200399E+02  0.00000000000E+00 0. -1.
          2   -1    0    0  502    0 -0.00000000000E+00 -0.00000000000E+00 -0.26072947986E+03  0.26072947986E+03  0.00000000000E+00 0. -1.
         24    2    1    2    0    0  0.21760388500E+02  0.20356872772E+02 -0.21101972293E+03  0.22845216314E+03  0.82299153090E+02 0.  0.
        -13    1    3    3    0    0 -0.95186401909E+00 -0.18800196841E+02 -0.80113710235E+01  0.20458140484E+02  0.00000000000E+00 0.  1.
         14    1    3    3    0    0  0.22712252519E+02  0.39157069614E+02 -0.20300835191E+03  0.20799402265E+03  0.00000000000E+00 0. -1.
          1    1    1    2  501    0 -0.21760388500E+02 -0.20356872772E+02 -0.35578556528E+02  0.46408517121E+02  0.00000000000E+00 0. -1.
<mgrwt>
<rscale>  1 0.87527524E+02</rscale>
<asrwt>0</asrwt>
<pdfrwt beam="1">  1       21 0.21740309E-02 0.87527524E+02</pdfrwt>
<pdfrwt beam="2">  1        2 0.40112226E-01 0.87527524E+02</pdfrwt>
<totfact> 0.15654284E+06</totfact>
</mgrwt>
</event>
<event>
 6    2  0.7993170E+000  0.9116687E+02  0.7546771E-02  0.1300050E+00
          2   -1    0    0  502    0 -0.00000000000E+00  0.00000000000E+00  0.10126686519E+04  0.10126686519E+04  0.00000000000E+00 0. -1.
         21   -1    0    0  501  502  0.00000000000E+00 -0.00000000000E+00 -0.51752256081E+01  0.51752256081E+01  0.00000000000E+00 0.  1.
         24    2    1    2    0    0 -0.24337751330E+02  0.36055063588E+02  0.83449656248E+03  0.83946167930E+03  0.80119313939E+02 0.  0.
        -13    1    3    3    0    0 -0.32540734514E+02  0.48228571707E+02  0.35463774173E+03  0.35937838331E+03  0.00000000000E+00 0.  1.
         14    1    3    3    0    0  0.82029831844E+01 -0.12173508119E+02  0.47985882075E+03  0.48008329599E+03  0.00000000000E+00 0. -1.
          1    1    1    2  501    0  0.24337751330E+02 -0.36055063588E+02  0.17299686381E+03  0.17838219821E+03  0.00000000000E+00 0. -1.
<mgrwt>
<rscale>  1 0.91166870E+02</rscale>
<asrwt>0</asrwt>
<pdfrwt beam="1">  1       21 0.79618936E-03 0.91166870E+02</pdfrwt>
<pdfrwt beam="2">  1        2 0.15579502E+00 0.91166870E+02</pdfrwt>
<totfact> 0.16706375E+06</totfact>
</mgrwt>
</event>
<event>
 6    2  0.7993170E+000  0.7888157E+02  0.7546771E-02  0.1332256E+00
         21   -1    0    0  501  502  0.00000000000E+00  0.00000000000E+00  0.90738848237E+03  0.90738848237E+03  0.00000000000E+00 0.  1.
          2   -1    0    0  502    0 -0.00000000000E+00 -0.00000000000E+00 -0.60886661292E+01  0.60886661292E+01  0.00000000000E+00 0. -1.
         24    2    1    2    0    0  0.15358228250E+02  0.20231862988E+02  0.26066641462E+03  0.27234037781E+03  0.74679972020E+02 0.  0.
        -11    1    3    3    0    0  0.41030623809E+02  0.19677726710E+02  0.10310655591E+03  0.11270176081E+03  0.00000000000E+00 0.  1.
         12    1    3    3    0    0 -0.25672395559E+02  0.55413627721E+00  0.15755985871E+03  0.15963861700E+03  0.00000000000E+00 0. -1.
          1    1    1    2  501    0 -0.15358228250E+02 -0.20231862988E+02  0.64063340162E+03  0.64113677069E+03  0.00000000000E+00 0. -1.
<mgrwt>
<rscale>  1 0.78881567E+02</rscale>
<asrwt>0</asrwt>
<pdfrwt beam="1">  1       21 0.13959812E+00 0.78881567E+02</pdfrwt>
<pdfrwt beam="2">  1        2 0.93671858E-03 0.78881567E+02</pdfrwt>
<totfact> 0.65925513E+04</totfact>
</mgrwt>
</event>
<event>
 6    2  0.7993170E+000  0.9075334E+02  0.7546771E-02  0.1301038E+00
          2   -1    0    0  502    0 -0.00000000000E+00  0.00000000000E+00  0.76768699775E+03  0.76768699775E+03  0.00000000000E+00 0. -1.
         21   -1    0    0  501  502  0.00000000000E+00 -0.00000000000E+00 -0.66158112083E+01  0.66158112083E+01  0.00000000000E+00 0.  1.
         24    2    1    2    0    0  0.38367285019E+02  0.30865412994E+02  0.55896796676E+03  0.56628734385E+03  0.76232838457E+02 0.  0.
        -13    1    3    3    0    0  0.49133320392E+02  0.20237130567E+02  0.19811733626E+03  0.20511972980E+03  0.00000000000E+00 0.  1.
         14    1    3    3    0    0 -0.10766035373E+02  0.10628282427E+02  0.36085063050E+03  0.36116761405E+03  0.00000000000E+00 0. -1.
          1    1    1    2  501    0 -0.38367285019E+02 -0.30865412994E+02  0.20210321978E+03  0.20801546511E+03  0.00000000000E+00 0. -1.
<mgrwt>
<rscale>  1 0.90753336E+02</rscale>
<asrwt>0</asrwt>
<pdfrwt beam="1">  1       21 0.10178177E-02 0.90753336E+02</pdfrwt>
<pdfrwt beam="2">  1        2 0.11810562E+00 0.90753336E+02</pdfrwt>
<totfact> 0.16211211E+06</totfact>
</mgrwt>
</event>
<event>
 6    2  0.7993170E+000  0.8033906E+02  0.7546771E-02  0.1328092E+00
         21   -1    0    0  501  502  0.00000000000E+00  0.00000000000E+00  0.31622518520E+02  0.31622518520E+02  0.00000000000E+00 0.  1.
          4   -1    0    0  502    0 -0.00000000000E+00 -0.00000000000E+00 -0.87256063898E+02  0.87256063898E+02  0.00000000000E+00 0. -1.
         24    2    1    2    0    0 -0.39473338625E+01  0.22976035323E+02 -0.50852539754E+02  0.95080732545E+02  0.76882281822E+02 0.  0.
        -11    1    3    3    0    0 -0.23470574384E+02  0.45080602292E+02 -0.31085633594E+02  0.59577220318E+02  0.00000000000E+00 0.  1.
         12    1    3    3    0    0  0.19523240521E+02 -0.22104566969E+02 -0.19766906160E+02  0.35503512227E+02  0.00000000000E+00 0. -1.
          3    1    1    2  501    0  0.39473338625E+01 -0.22976035323E+02 -0.47810056234E+01  0.23797849872E+02  0.00000000000E+00 0. -1.
<mgrwt>
<rscale>  1 0.80339062E+02</rscale>
<asrwt>0</asrwt>
<pdfrwt beam="1">  1       21 0.48650028E-02 0.80339062E+02</pdfrwt>
<pdfrwt beam="2">  1        4 0.13424010E-01 0.80339062E+02</pdfrwt>
<totfact> 0.46272765E+05</totfact>
</mgrwt>
</event>
<event>
 6    2  0.7993170E+000  0.8747526E+02  0.7546771E-02  0.1309083E+00
          2   -1    0    0  502    0 -0.00000000000E+00  0.00000000000E+00  0.61958673390E+03  0.61958673390E+03  0.00000000000E+00 0. -1.
         21   -1    0    0  501  502  0.00000000000E+00 -0.00000000000E+00 -0.74897804903E+01  0.74897804903E+01  0.00000000000E+00 0.  1.
         24    2    1    2    0    0  0.31077565354E+02  0.16875505488E+02  0.53689702034E+03  0.54397640797E+03  0.80008275954E+02 0.  0.
        -13    1    3    3    0    0 -0.34346313237E+01 -0.18655754089E+02  0.36511117309E+02  0.41144811825E+02  0.00000000000E+00 0.  1.
         14    1    3    3    0    0  0.34512196678E+02  0.35531259578E+02  0.50038590303E+03  0.50283159615E+03  0.00000000000E+00 0. -1.
          1    1    1    2  501    0 -0.31077565354E+02 -0.16875505488E+02  0.75199933070E+02  0.83100106423E+02  0.00000000000E+00 0. -1.
<mgrwt>
<rscale>  1 0.87475265E+02</rscale>
<asrwt>0</asrwt>
<pdfrwt beam="1">  1       21 0.11522744E-02 0.87475265E+02</pdfrwt>
<pdfrwt beam="2">  1        2 0.95320995E-01 0.87475265E+02</pdfrwt>
<totfact> 0.17056628E+06</totfact>
</mgrwt>
</event>
<event>
 6    2  0.7993170E+000  0.9370221E+02  0.7546771E-02  0.1294126E+00
          2   -1    0    0  502    0 -0.00000000000E+00  0.00000000000E+00  0.11190423197E+04  0.11190423197E+04  0.00000000000E+00 0. -1.
         21   -1    0    0  501  502  0.00000000000E+00 -0.00000000000E+00 -0.49527642050E+01  0.49527642050E+01  0.00000000000E+00 0. -1.
         24    2    1    2    0    0 -0.31097667976E+02  0.36262615538E+02  0.88698619460E+03  0.89192186535E+03  0.80610559138E+02 0.  0.
        -11    1    3    3    0    0  0.19778616696E+02  0.36289763358E+02  0.32006540736E+03  0.32272279993E+03  0.00000000000E+00 0.  1.
         12    1    3    3    0    0 -0.50876284672E+02 -0.27147820304E-01  0.56692078724E+03  0.56919906543E+03  0.00000000000E+00 0. -1.
          1    1    1    2  501    0  0.31097667976E+02 -0.36262615538E+02  0.22710336089E+03  0.23207321855E+03  0.00000000000E+00 0. -1.
<mgrwt>
<rscale>  1 0.93702212E+02</rscale>
<asrwt>0</asrwt>
<pdfrwt beam="1">  1       21 0.76196461E-03 0.93702212E+02</pdfrwt>
<pdfrwt beam="2">  1        2 0.17216016E+00 0.93702212E+02</pdfrwt>
<totfact> 0.15590935E+06</totfact>
</mgrwt>
</event>
<event>
 6    2  0.7993170E+000  0.9299477E+02  0.7546771E-02  0.1295757E+00
         21   -1    0    0  501  502  0.00000000000E+00  0.00000000000E+00  0.68844230897E+02  0.68844230897E+02  0.00000000000E+00 0.  1.
          2   -1    0    0  502    0 -0.00000000000E+00 -0.00000000000E+00 -0.72869008987E+02  0.72869008987E+02  0.00000000000E+00 0. -1.
         24    2    1    2    0    0 -0.30398988979E+02  0.35656201514E+02  0.80025382621E+01  0.93338457444E+02  0.80327851845E+02 0.  0.
        -11    1    3    3    0    0 -0.51696480532E+02  0.39698752907E+02 -0.89857030620E+01  0.65797111953E+02  0.00000000000E+00 0.  1.
         12    1    3    3    0    0  0.21297491553E+02 -0.40425513931E+01  0.16988241324E+02  0.27541345492E+02  0.00000000000E+00 0. -1.
          1    1    1    2  501    0  0.30398988979E+02 -0.35656201514E+02 -0.12027316352E+02  0.48374782439E+02  0.00000000000E+00 0. -1.
<mgrwt>
<rscale>  1 0.92994769E+02</rscale>
<asrwt>0</asrwt>
<pdfrwt beam="1">  1       21 0.10591420E-01 0.92994769E+02</pdfrwt>
<pdfrwt beam="2">  1        2 0.11210617E-01 0.92994769E+02</pdfrwt>
<totfact> 0.46682300E+05</totfact>
</mgrwt>
</event>
<event>
 6    2  0.7993170E+000  0.8289452E+02  0.7546771E-02  0.1321032E+00
         21   -1    0    0  501  502  0.00000000000E+00  0.00000000000E+00  0.91667482872E+02  0.91667482872E+02  0.00000000000E+00 0. -1.
          2   -1    0    0  502    0 -0.00000000000E+00 -0.00000000000E+00 -0.93883067939E+02  0.93883067939E+02  0.00000000000E+00 0. -1.
         24    2    1    2    0    0  0.23538577956E+02 -0.17168342599E+01 -0.73297638202E+02  0.11065281753E+03  0.79463765894E+02 0.  0.
        -13    1    3    3    0    0  0.27901207725E+02 -0.37399112618E+02 -0.45924848986E+02  0.65469556067E+02  0.00000000000E+00 0.  1.
         14    1    3    3    0    0 -0.43626297696E+01  0.35682278358E+02 -0.27372789216E+02  0.45183261467E+02  0.00000000000E+00 0. -1.
          1    1    1    2  501    0 -0.23538577956E+02  0.17168342599E+01  0.71082053136E+02  0.74897733277E+02  0.00000000000E+00 0. -1.
<mgrwt>
<rscale>  1 0.82894525E+02</rscale>
<asrwt>0</asrwt>
<pdfrwt beam="1">  1       21 0.14102690E-01 0.82894525E+02</pdfrwt>
<pdfrwt beam="2">  1        2 0.14443549E-01 0.82894525E+02</pdfrwt>
<totfact> 0.20753043E+05</totfact>
</mgrwt>
</event>
<event>
 6    2  0.7993170E+000  0.8479021E+02  0.7546771E-02  0.1315982E+00
          2   -1    0    0  502    0 -0.00000000000E+00  0.00000000000E+00  0.16680760759E+04  0.16680760759E+04  0.00000000000E+00 0. -1.
         21   -1    0    0  501  502  0.00000000000E+00 -0.00000000000E+00 -0.22637684776E+01  0.22637684776E+01  0.00000000000E+00 0. -1.
         24    2    1    2    0    0  0.19970891184E+02 -0.11179514776E+02  0.15482727864E+04  0.15505927899E+04  0.81642887314E+02 0.  0.
        -11    1    3    3    0    0  0.15700247495E+02 -0.37216859664E+02  0.40366695435E+03  0.40568288410E+03  0.00000000000E+00 0.  1.
         12    1    3    3    0    0  0.42706436892E+01  0.26037344888E+02  0.11446058320E+04  0.11449099058E+04  0.00000000000E+00 0. -1.
          1    1    1    2  501    0 -0.19970891184E+02  0.11179514776E+02  0.11753952103E+03  0.11974705445E+03  0.00000000000E+00 0. -1.
<mgrwt>
<rscale>  1 0.84790206E+02</rscale>
<asrwt>0</asrwt>
<pdfrwt beam="1">  1       21 0.34827341E-03 0.84790206E+02</pdfrwt>
<pdfrwt beam="2">  1        2 0.25662611E+00 0.84790206E+02</pdfrwt>
<totfact> 0.26535600E+06</totfact>
</mgrwt>
</event>
<event>
 6    2  0.7993170E+000  0.8652153E+02  0.7546771E-02  0.1311501E+00
         21   -1    0    0  501  502  0.00000000000E+00  0.00000000000E+00  0.29157155718E+01  0.29157155718E+01  0.00000000000E+00 0.  1.
          2   -1    0    0  502    0 -0.00000000000E+00 -0.00000000000E+00 -0.10448941235E+04  0.10448941235E+04  0.00000000000E+00 0. -1.
         24    2    1    2    0    0 -0.22277922641E+02  0.84635907955E+01 -0.82825145831E+03  0.83275834013E+03  0.83174735633E+02 0.  0.
        -11    1    3    3    0    0 -0.49628962345E+02  0.23777166059E+02 -0.55043794882E+03  0.55318199811E+03  0.00000000000E+00 0.  1.
         12    1    3    3    0    0  0.27351039704E+02 -0.15313575264E+02 -0.27781350949E+03  0.27957634202E+03  0.00000000000E+00 0. -1.
          1    1    1    2  501    0  0.22277922641E+02 -0.84635907955E+01 -0.21372694958E+03  0.21505149891E+03  0.00000000000E+00 0. -1.
<mgrwt>
<rscale>  1 0.86521528E+02</rscale>
<asrwt>0</asrwt>
<pdfrwt beam="1">  1       21 0.44857157E-03 0.86521528E+02</pdfrwt>
<pdfrwt beam="2">  1        2 0.16075296E+00 0.86521528E+02</pdfrwt>
<totfact> 0.38505922E+06</totfact>
</mgrwt>
</event>
<event>
 6    2  0.7993170E+000  0.8376284E+02  0.7546771E-02  0.1318700E+00
         21   -1    0    0  501  502  0.00000000000E+00  0.00000000000E+00  0.12690121540E+02  0.12690121540E+02  0.00000000000E+00 0. -1.
          2   -1    0    0  502    0 -0.00000000000E+00 -0.00000000000E+00 -0.23247272685E+03  0.23247272685E+03  0.00000000000E+00 0. -1.
         24    2    1    2    0    0 -0.20334554827E+02 -0.33498039369E+01 -0.19892592614E+03  0.21584192800E+03  0.81188043990E+02 0.  0.
        -11    1    3    3    0    0  0.12214769144E+01  0.37193055823E+02 -0.10237201600E+03  0.10892586960E+03  0.00000000000E+00 0.  1.
         12    1    3    3    0    0 -0.21556031741E+02 -0.40542859760E+02 -0.96553910140E+02  0.10691605841E+03  0.00000000000E+00 0. -1.
          1    1    1    2  501    0  0.20334554827E+02  0.33498039369E+01 -0.20856679172E+02  0.29320920390E+02  0.00000000000E+00 0. -1.
<mgrwt>
<rscale>  1 0.83762843E+02</rscale>
<asrwt>0</asrwt>
<pdfrwt beam="1">  1       21 0.19523266E-02 0.83762843E+02</pdfrwt>
<pdfrwt beam="2">  1        2 0.35765031E-01 0.83762843E+02</pdfrwt>
<totfact> 0.20859466E+06</totfact>
</mgrwt>
</event>
<event>
 6    2  0.7993170E+000  0.8498669E+02  0.7546771E-02  0.1315467E+00
         21   -1    0    0  501  502  0.00000000000E+00  0.00000000000E+00  0.42610086545E+02  0.42610086545E+02  0.00000000000E+00 0.  1.
          4   -1    0    0  502    0 -0.00000000000E+00 -0.00000000000E+00 -0.73780356872E+02  0.73780356872E+02  0.00000000000E+00 0. -1.
         24    2    1    2    0    0 -0.17253248797E+02  0.20693579167E+02 -0.26681282423E+02  0.89076530751E+02  0.80602969462E+02 0.  0.
        -11    1    3    3    0    0  0.18442100037E+02 -0.23947284857E+01  0.19060779233E+02  0.26630040992E+02  0.00000000000E+00 0.  1.
         12    1    3    3    0    0 -0.35695348833E+02  0.23088307653E+02 -0.45742061656E+02  0.62446489758E+02  0.00000000000E+00 0. -1.
          3    1    1    2  501    0  0.17253248797E+02 -0.20693579167E+02 -0.44889879044E+01  0.27313912667E+02  0.00000000000E+00 0. -1.
<mgrwt>
<rscale>  1 0.84986690E+02</rscale>
<asrwt>0</asrwt>
<pdfrwt beam="1">  1       21 0.65553980E-02 0.84986690E+02</pdfrwt>
<pdfrwt beam="2">  1        4 0.11350824E-01 0.84986690E+02</pdfrwt>
<totfact> 0.37809434E+05</totfact>
</mgrwt>
</event>
<event>
 6    2  0.7993170E+000  0.8503221E+02  0.7546771E-02  0.1315348E+00
          4   -1    0    0  502    0 -0.00000000000E+00  0.00000000000E+00  0.13316653084E+03  0.13316653084E+03  0.00000000000E+00 0. -1.
         21   -1    0    0  501  502  0.00000000000E+00 -0.00000000000E+00 -0.26843473273E+02  0.26843473273E+02  0.00000000000E+00 0.  1.
         24    2    1    2    0    0 -0.22234162206E+02  0.44854407884E+01  0.10777620094E+03  0.13728141477E+03  0.81951206238E+02 0.  0.
        -13    1    3    3    0    0 -0.17236692716E+02 -0.27022182725E+02  0.87223941774E+01  0.33217195775E+02  0.00000000000E+00 0.  1.
         14    1    3    3    0    0 -0.49974694900E+01  0.31507623513E+02  0.99053806760E+02  0.10406421899E+03  0.00000000000E+00 0. -1.
          3    1    1    2  501    0  0.22234162206E+02 -0.44854407884E+01 -0.14531433683E+01  0.22728589347E+02  0.00000000000E+00 0. -1.
<mgrwt>
<rscale>  1 0.85032214E+02</rscale>
<asrwt>0</asrwt>
<pdfrwt beam="1">  1       21 0.41297652E-02 0.85032214E+02</pdfrwt>
<pdfrwt beam="2">  1        4 0.20487158E-01 0.85032214E+02</pdfrwt>
<totfact> 0.29351545E+05</totfact>
</mgrwt>
</event>
<event>
 6    2  0.7993170E+000  0.8367010E+02  0.7546771E-02  0.1318947E+00
         21   -1    0    0  501  502  0.00000000000E+00  0.00000000000E+00  0.65816887297E+01  0.65816887297E+01  0.00000000000E+00 0. -1.
         -1   -1    0    0    0  501 -0.00000000000E+00 -0.00000000000E+00 -0.48912927191E+03  0.48912927191E+03  0.00000000000E+00 0.  1.
         24    2    1    2    0    0 -0.19538070313E+01 -0.26569889136E+02 -0.30888045017E+03  0.32001221432E+03  0.79315247245E+02 0.  0.
        -11    1    3    3    0    0  0.10063190647E+02  0.20421591439E+02 -0.19373232943E+03  0.19506543689E+03  0.00000000000E+00 0.  1.
         12    1    3    3    0    0 -0.12016997678E+02 -0.46991480575E+02 -0.11514812074E+03  0.12494677743E+03  0.00000000000E+00 0. -1.
         -2    1    1    2    0  502  0.19538070313E+01  0.26569889136E+02 -0.17366713301E+03  0.17569874632E+03  0.00000000000E+00 0.  1.
<mgrwt>
<rscale>  1 0.83670095E+02</rscale>
<asrwt>0</asrwt>
<pdfrwt beam="1">  1       21 0.10125670E-02 0.83670095E+02</pdfrwt>
<pdfrwt beam="2">  1       -1 0.75250697E-01 0.83670095E+02</pdfrwt>
<totfact> 0.58863117E+05</totfact>
</mgrwt>
</event>
<event>
 6    2  0.7993170E+000  0.1054793E+03  0.7546771E-02  0.1269178E+00
         21   -1    0    0  501  502  0.00000000000E+00  0.00000000000E+00  0.12182614684E+02  0.12182614684E+02  0.00000000000E+00 0.  1.
         -1   -1    0    0    0  501 -0.00000000000E+00 -0.00000000000E+00 -0.69236057167E+03  0.69236057167E+03  0.00000000000E+00 0.  1.
         24    2    1    2    0    0  0.67626892005E+02 -0.24983112233E+01 -0.29103442278E+03  0.30955922681E+03  0.80908847351E+02 0.  0.
        -13    1    3    3    0    0  0.27431425358E+02 -0.13192494196E+02 -0.24744104767E+03  0.24930623152E+03  0.00000000000E+00 0.  1.
         14    1    3    3    0    0  0.40195466647E+02  0.10694182973E+02 -0.43593375103E+02  0.60252995289E+02  0.00000000000E+00 0. -1.
         -2    1    1    2    0  502 -0.67626892005E+02  0.24983112233E+01 -0.38914353421E+03  0.39498395954E+03  0.00000000000E+00 0.  1.
<mgrwt>
<rscale>  1 0.10547929E+03</rscale>
<asrwt>0</asrwt>
<pdfrwt beam="1">  1       21 0.18742480E-02 0.10547929E+03</pdfrwt>
<pdfrwt beam="2">  1       -1 0.10651704E+00 0.10547929E+03</pdfrwt>
<totfact> 0.10921358E+05</totfact>
</mgrwt>
</event>
<event>
 6    2  0.7993170E+000  0.8849946E+02  0.7546771E-02  0.1306527E+00
         21   -1    0    0  501  502  0.00000000000E+00  0.00000000000E+00  0.31437616477E+03  0.31437616477E+03  0.00000000000E+00 0. -1.
          2   -1    0    0  502    0 -0.00000000000E+00 -0.00000000000E+00 -0.13074877043E+02  0.13074877043E+02  0.00000000000E+00 0. -1.
         24    2    1    2    0    0  0.35135823605E+02 -0.76871993754E+00  0.17165597286E+03  0.19312671528E+03  0.81222152808E+02 0.  0.
        -13    1    3    3    0    0  0.22842380131E+00  0.32469129037E+02  0.11099863688E+03  0.11565030872E+03  0.00000000000E+00 0.  1.
         14    1    3    3    0    0  0.34907399804E+02 -0.33237848975E+02  0.60657335971E+02  0.77476406555E+02  0.00000000000E+00 0. -1.
          1    1    1    2  501    0 -0.35135823605E+02  0.76871993754E+00  0.12964531487E+03  0.13432432653E+03  0.00000000000E+00 0. -1.
<mgrwt>
<rscale>  1 0.88499464E+02</rscale>
<asrwt>0</asrwt>
<pdfrwt beam="1">  1       21 0.48365558E-01 0.88499464E+02</pdfrwt>
<pdfrwt beam="2">  1        2 0.20115198E-02 0.88499464E+02</pdfrwt>
<totfact> 0.24999936E+05</totfact>
</mgrwt>
</event>
<event>
 6    2  0.7993170E+000  0.9562092E+02  0.7546771E-02  0.1289784E+00
         -1   -1    0    0    0  501 -0.00000000000E+00  0.00000000000E+00  0.70493385513E+01  0.70493385513E+01  0.00000000000E+00 0.  1.
         21   -1    0    0  501  502  0.00000000000E+00 -0.00000000000E+00 -0.12514407803E+04  0.12514407803E+04  0.00000000000E+00 0.  1.
         24    2    1    2    0    0  0.47382443366E+02 -0.25671075458E+02 -0.36077123343E+03  0.37322813921E+03  0.78988992720E+02 0.  0.
        -11    1    3    3    0    0  0.60801315846E+01 -0.40543581929E+02 -0.26135999595E+03  0.26455584952E+03  0.00000000000E+00 0.  1.
         12    1    3    3    0    0  0.41302311781E+02  0.14872506471E+02 -0.99411237485E+02  0.10867228969E+03  0.00000000000E+00 0. -1.
         -2    1    1    2    0  502 -0.47382443366E+02  0.25671075458E+02 -0.88362020833E+03  0.88526197966E+03  0.00000000000E+00 0.  1.
<mgrwt>
<rscale>  1 0.95620924E+02</rscale>
<asrwt>0</asrwt>
<pdfrwt beam="1">  1       21 0.19252921E+00 0.95620924E+02</pdfrwt>
<pdfrwt beam="2">  1       -1 0.10845144E-02 0.95620924E+02</pdfrwt>
<totfact> 0.22159326E+04</totfact>
</mgrwt>
</event>
<event>
 6    2  0.7993170E+000  0.8746088E+02  0.7546771E-02  0.1309120E+00
         -3   -1    0    0    0  501 -0.00000000000E+00  0.00000000000E+00  0.18569323404E+02  0.18569323404E+02  0.00000000000E+00 0.  1.
         21   -1    0    0  501  502  0.00000000000E+00 -0.00000000000E+00 -0.21767616977E+03  0.21767616977E+03  0.00000000000E+00 0. -1.
         24    2    1    2    0    0  0.18833191392E+02 -0.30763414881E+02 -0.11303158503E+03  0.14291796558E+03  0.79676401007E+02 0.  0.
        -11    1    3    3    0    0  0.31548357190E+02  0.10494503606E+02 -0.16383526684E+02  0.37065528377E+02  0.00000000000E+00 0.  1.
         12    1    3    3    0    0 -0.12715165797E+02 -0.41257918487E+02 -0.96648058346E+02  0.10585243720E+03  0.00000000000E+00 0. -1.
         -4    1    1    2    0  502 -0.18833191392E+02  0.30763414881E+02 -0.86075261334E+02  0.93327527594E+02  0.00000000000E+00 0.  1.
<mgrwt>
<rscale>  1 0.87460881E+02</rscale>
<asrwt>0</asrwt>
<pdfrwt beam="1">  1       21 0.33488641E-01 0.87460881E+02</pdfrwt>
<pdfrwt beam="2">  1       -3 0.28568190E-02 0.87460881E+02</pdfrwt>
<totfact> 0.21099459E+05</totfact>
</mgrwt>
</event>
<event>
 6    2  0.7993170E+000  0.8273758E+02  0.7546771E-02  0.1321457E+00
          2   -1    0    0  502    0 -0.00000000000E+00  0.00000000000E+00  0.43418562963E+03  0.43418562963E+03  0.00000000000E+00 0. -1.
         21   -1    0    0  501  502  0.00000000000E+00 -0.00000000000E+00 -0.66469251602E+01  0.66469251602E+01  0.00000000000E+00 0. -1.
         24    2    1    2    0    0  0.30766783099E+00 -0.23689611645E+02  0.30490177370E+03  0.31592815476E+03  0.79273040830E+02 0.  0.
        -11    1    3    3    0    0  0.37401489334E+02 -0.20611928210E+02  0.12147449588E+03  0.12876247954E+03  0.00000000000E+00 0.  1.
         12    1    3    3    0    0 -0.37093821503E+02 -0.30776834348E+01  0.18342727782E+03  0.18716567522E+03  0.00000000000E+00 0. -1.
          1    1    1    2  501    0 -0.30766783099E+00  0.23689611645E+02  0.12263693077E+03  0.12490440004E+03  0.00000000000E+00 0. -1.
<mgrwt>
<rscale>  1 0.82737581E+02</rscale>
<asrwt>0</asrwt>
<pdfrwt beam="1">  1       21 0.10226042E-02 0.82737581E+02</pdfrwt>
<pdfrwt beam="2">  1        2 0.66797767E-01 0.82737581E+02</pdfrwt>
<totfact> 0.30055000E+06</totfact>
</mgrwt>
</event>
<event>
 6    2  0.7993170E+000  0.9152149E+02  0.7546771E-02  0.1299208E+00
         -1   -1    0    0    0  501 -0.00000000000E+00  0.00000000000E+00  0.30705011608E+02  0.30705011608E+02  0.00000000000E+00 0.  1.
         21   -1    0    0  501  502  0.00000000000E+00 -0.00000000000E+00 -0.14581218442E+03  0.14581218442E+03  0.00000000000E+00 0. -1.
         24    2    1    2    0    0  0.40863261776E+02 -0.99018675631E+01 -0.83859992723E+02  0.12413170750E+03  0.81291631084E+02 0.  0.
        -13    1    3    3    0    0 -0.19469756691E+02  0.91153704938E+01 -0.33738552906E+01  0.21761073144E+02  0.00000000000E+00 0.  1.
         14    1    3    3    0    0  0.60333018468E+02 -0.19017238057E+02 -0.80486137432E+02  0.10237063436E+03  0.00000000000E+00 0. -1.
         -2    1    1    2    0  502 -0.40863261776E+02  0.99018675631E+01 -0.31247180089E+02  0.52385488523E+02  0.00000000000E+00 0.  1.
<mgrwt>
<rscale>  1 0.91521486E+02</rscale>
<asrwt>0</asrwt>
<pdfrwt beam="1">  1       21 0.22432644E-01 0.91521486E+02</pdfrwt>
<pdfrwt beam="2">  1       -1 0.47238480E-02 0.91521486E+02</pdfrwt>
<totfact> 0.29726059E+05</totfact>
</mgrwt>
</event>
<event>
 6    2  0.7993170E+000  0.8655496E+02  0.7546771E-02  0.1311416E+00
         21   -1    0    0  501  502  0.00000000000E+00  0.00000000000E+00  0.11269654798E+01  0.11269654798E+01  0.00000000000E+00 0.  1.
          2   -1    0    0  502    0 -0.00000000000E+00 -0.00000000000E+00 -0.31295784383E+04  0.31295784383E+04  0.00000000000E+00 0. -1.
         24    2    1    2    0    0  0.25894959516E+02 -0.17814245341E+02 -0.24450208076E+04  0.24465523724E+04  0.80646542015E+02 0.  0.
        -13    1    3    3    0    0  0.23031610646E+02  0.13186183853E+02 -0.26839326651E+03  0.26970219881E+03  0.00000000000E+00 0.  1.
         14    1    3    3    0    0  0.28633488696E+01 -0.31000429194E+02 -0.21766275411E+04  0.21768501736E+04  0.00000000000E+00 0. -1.
          1    1    1    2  501    0 -0.25894959516E+02  0.17814245341E+02 -0.68343066521E+03  0.68415303143E+03  0.00000000000E+00 0. -1.
<mgrwt>
<rscale>  1 0.86554959E+02</rscale>
<asrwt>0</asrwt>
<pdfrwt beam="1">  1       21 0.17338180E-03 0.86554959E+02</pdfrwt>
<pdfrwt beam="2">  1        2 0.48146667E+00 0.86554959E+02</pdfrwt>
<totfact> 0.12942543E+06</totfact>
</mgrwt>
</event>
<event>
 6    2  0.7993170E+000  0.9473755E+02  0.7546771E-02  0.1291768E+00
         21   -1    0    0  501  502  0.00000000000E+00  0.00000000000E+00  0.46240657226E+01  0.46240657226E+01  0.00000000000E+00 0.  1.
          2   -1    0    0  502    0 -0.00000000000E+00 -0.00000000000E+00 -0.11875455316E+04  0.11875455316E+04  0.00000000000E+00 0. -1.
         24    2    1    2    0    0  0.11675941938E+02  0.48027237228E+02 -0.89901145031E+03  0.90398937580E+03  0.80822401836E+02 0.  0.
        -11    1    3    3    0    0 -0.20003289170E+02 -0.42449146274E+01 -0.75734024498E+02  0.78446117459E+02  0.00000000000E+00 0.  1.
         12    1    3    3    0    0  0.31679231107E+02  0.52272151856E+02 -0.82327742581E+03  0.82554325834E+03  0.00000000000E+00 0. -1.
          1    1    1    2  501    0 -0.11675941938E+02 -0.48027237228E+02 -0.28391001553E+03  0.28818022149E+03  0.00000000000E+00 0. -1.
<mgrwt>
<rscale>  1 0.94737552E+02</rscale>
<asrwt>0</asrwt>
<pdfrwt beam="1">  1       21 0.71139473E-03 0.94737552E+02</pdfrwt>
<pdfrwt beam="2">  1        2 0.18269931E+00 0.94737552E+02</pdfrwt>
<totfact> 0.15910218E+06</totfact>
</mgrwt>
</event>
<event>
 6    2  0.7993170E+000  0.6881207E+02  0.7546771E-02  0.1364180E+00
          2   -1    0    0  502    0 -0.00000000000E+00  0.00000000000E+00  0.10777843195E+04  0.10777843195E+04  0.00000000000E+00 0. -1.
         21   -1    0    0  501  502  0.00000000000E+00 -0.00000000000E+00 -0.22191976596E+01  0.22191976596E+01  0.00000000000E+00 0.  1.
         24    2    1    2    0    0 -0.97251043881E+01 -0.27210138498E+02  0.73422958233E+03  0.73744706951E+03  0.62451032579E+02 0.  0.
        -13    1    3    3    0    0 -0.14604905668E+02 -0.45264379040E+02  0.42514538681E+03  0.42779757737E+03  0.00000000000E+00 0.  1.
         14    1    3    3    0    0  0.48798012794E+01  0.18054240542E+02  0.30908419552E+03  0.30964949214E+03  0.00000000000E+00 0. -1.
          1    1    1    2  501    0  0.97251043881E+01  0.27210138498E+02  0.34133553951E+03  0.34255644764E+03  0.00000000000E+00 0. -1.
<mgrwt>
<rscale>  1 0.68812068E+02</rscale>
<asrwt>0</asrwt>
<pdfrwt beam="1">  1       21 0.34141588E-03 0.68812068E+02</pdfrwt>
<pdfrwt beam="2">  1        2 0.16581255E+00 0.68812068E+02</pdfrwt>
<totfact> 0.54300341E+06</totfact>
</mgrwt>
</event>
<event>
 6    2  0.7993170E+000  0.1143686E+03  0.7546771E-02  0.1252687E+00
          2   -1    0    0  502    0 -0.00000000000E+00  0.00000000000E+00  0.16226379647E+04  0.16226379647E+04  0.00000000000E+00 0. -1.
         21   -1    0    0  501  502  0.00000000000E+00 -0.00000000000E+00 -0.77058991903E+01  0.77058991903E+01  0.00000000000E+00 0. -1.
         24    2    1    2    0    0 -0.23987083760E+02 -0.76975816670E+02  0.13082809792E+04  0.13132704571E+04  0.81114218838E+02 0.  0.
        -13    1    3    3    0    0 -0.22541461564E+02 -0.38364071855E+02  0.22814889093E+03  0.23244749070E+03  0.00000000000E+00 0.  1.
         14    1    3    3    0    0 -0.14456221963E+01 -0.38611744815E+02  0.10801320883E+04  0.10808229664E+04  0.00000000000E+00 0. -1.
          1    1    1    2  501    0  0.23987083760E+02  0.76975816670E+02  0.30665108633E+03  0.31707340678E+03  0.00000000000E+00 0. -1.
<mgrwt>
<rscale>  1 0.11436858E+03</rscale>
<asrwt>0</asrwt>
<pdfrwt beam="1">  1       21 0.11855242E-02 0.11436858E+03</pdfrwt>
<pdfrwt beam="2">  1        2 0.24963634E+00 0.11436858E+03</pdfrwt>
<totfact> 0.42794890E+05</totfact>
</mgrwt>
</event>
<event>
 6    2  0.7993170E+000  0.9177725E+02  0.7546771E-02  0.1298604E+00
         -1   -1    0    0    0  501 -0.00000000000E+00  0.00000000000E+00  0.89507619247E+03  0.89507619247E+03  0.00000000000E+00 0.  1.
         21   -1    0    0  501  502  0.00000000000E+00 -0.00000000000E+00 -0.52433457673E+01  0.52433457673E+01  0.00000000000E+00 0. -1.
         24    2    1    2    0    0 -0.26650772011E+02  0.36046447268E+02  0.62952267217E+03  0.63617753671E+03  0.80084039732E+02 0.  0.
        -13    1    3    3    0    0 -0.22247620070E+02 -0.21512410058E+02  0.14758002545E+03  0.15078993434E+03  0.00000000000E+00 0.  1.
         14    1    3    3    0    0 -0.44031519414E+01  0.57558857326E+02  0.48194264672E+03  0.48538760237E+03  0.00000000000E+00 0. -1.
         -2    1    1    2    0  502  0.26650772011E+02 -0.36046447268E+02  0.26031017454E+03  0.26414200154E+03  0.00000000000E+00 0.  1.
<mgrwt>
<rscale>  1 0.91777249E+02</rscale>
<asrwt>0</asrwt>
<pdfrwt beam="1">  1       21 0.80666929E-03 0.91777249E+02</pdfrwt>
<pdfrwt beam="2">  1       -1 0.13770391E+00 0.91777249E+02</pdfrwt>
<totfact> 0.22394264E+05</totfact>
</mgrwt>
</event>
<event>
 6    2  0.7993170E+000  0.9030081E+02  0.7546771E-02  0.1302125E+00
          2   -1    0    0  502    0 -0.00000000000E+00  0.00000000000E+00  0.69669197880E+03  0.69669197880E+03  0.00000000000E+00 0. -1.
         21   -1    0    0  501  502  0.00000000000E+00 -0.00000000000E+00 -0.31739365227E+02  0.31739365227E+02  0.00000000000E+00 0. -1.
         24    2    1    2    0    0  0.79026984895E+01 -0.41627099155E+02  0.67808577440E+03  0.68407203903E+03  0.79743144596E+02 0.  0.
        -13    1    3    3    0    0  0.16784431997E+02 -0.35443895822E+02  0.12784457889E+03  0.13372443031E+03  0.00000000000E+00 0.  1.
         14    1    3    3    0    0 -0.88817335075E+01 -0.61832033334E+01  0.55024119550E+03  0.55034760872E+03  0.00000000000E+00 0. -1.
          1    1    1    2  501    0 -0.79026984895E+01  0.41627099155E+02 -0.13133160819E+02  0.44359305006E+02  0.00000000000E+00 0. -1.
<mgrwt>
<rscale>  1 0.90300815E+02</rscale>
<asrwt>0</asrwt>
<pdfrwt beam="1">  1       21 0.48829798E-02 0.90300815E+02</pdfrwt>
<pdfrwt beam="2">  1        2 0.10718337E+00 0.90300815E+02</pdfrwt>
<totfact> 0.14589231E+05</totfact>
</mgrwt>
</event>
<event>
 6    2  0.7993170E+000  0.9841385E+02  0.7546771E-02  0.1283667E+00
          2   -1    0    0  502    0 -0.00000000000E+00  0.00000000000E+00  0.17626273775E+03  0.17626273775E+03  0.00000000000E+00 0. -1.
         21   -1    0    0  501  502  0.00000000000E+00 -0.00000000000E+00 -0.26726464359E+02  0.26726464359E+02  0.00000000000E+00 0.  1.
         24    2    1    2    0    0 -0.12135067051E+02 -0.36753672291E+02  0.10294480352E+03  0.14241810880E+03  0.90483108172E+02 0.  0.
        -13    1    3    3    0    0 -0.30624053178E+02 -0.34111094576E+02  0.91034327778E+01  0.46736194695E+02  0.00000000000E+00 0.  1.
         14    1    3    3    0    0  0.18488986127E+02 -0.26425777141E+01  0.93841370739E+02  0.95681914107E+02  0.00000000000E+00 0. -1.
          1    1    1    2  501    0  0.12135067051E+02  0.36753672291E+02  0.46591469870E+02  0.60571093302E+02  0.00000000000E+00 0. -1.
<mgrwt>
<rscale>  1 0.98413846E+02</rscale>
<asrwt>0</asrwt>
<pdfrwt beam="1">  1       21 0.41117639E-02 0.98413846E+02</pdfrwt>
<pdfrwt beam="2">  1        2 0.27117344E-01 0.98413846E+02</pdfrwt>
<totfact> 0.85232973E+05</totfact>
</mgrwt>
</event>
<event>
 6    2  0.7993170E+000  0.9355299E+02  0.7546771E-02  0.1294469E+00
          2   -1    0    0  502    0 -0.00000000000E+00  0.00000000000E+00  0.14896264934E+04  0.14896264934E+04  0.00000000000E+00 0. -1.
         21   -1    0    0  501  502  0.00000000000E+00 -0.00000000000E+00 -0.53724223928E+01  0.53724223928E+01  0.00000000000E+00 0. -1.
         24    2    1    2    0    0  0.44177296796E+02  0.38792953327E+01  0.13573335057E+04  0.13605537137E+04  0.82374022038E+02 0.  0.
        -13    1    3    3    0    0  0.44560199107E+02  0.39528253323E+01  0.30912782236E+03  0.31234795778E+03  0.00000000000E+00 0.  1.
         14    1    3    3    0    0 -0.38290231138E+00 -0.73529999574E-01  0.10482056834E+04  0.10482057559E+04  0.00000000000E+00 0. -1.
          1    1    1    2  501    0 -0.44177296796E+02 -0.38792953327E+01  0.12692056526E+03  0.13444520211E+03  0.00000000000E+00 0. -1.
<mgrwt>
<rscale>  1 0.93552990E+02</rscale>
<asrwt>0</asrwt>
<pdfrwt beam="1">  1       21 0.82652771E-03 0.93552990E+02</pdfrwt>
<pdfrwt beam="2">  1        2 0.22917298E+00 0.93552990E+02</pdfrwt>
<totfact> 0.87312285E+05</totfact>
</mgrwt>
</event>
<event>
 6    2  0.7993170E+000  0.9066194E+02  0.7546771E-02  0.1301257E+00
         21   -1    0    0  501  502  0.00000000000E+00  0.00000000000E+00  0.57048344194E+02  0.57048344194E+02  0.00000000000E+00 0. -1.
          2   -1    0    0  502    0 -0.00000000000E+00 -0.00000000000E+00 -0.23274720036E+04  0.23274720036E+04  0.00000000000E+00 0. -1.
         24    2    1    2    0    0 -0.36675896795E+02 -0.19401733440E+02 -0.23189229566E+04  0.23206945654E+04  0.80610412602E+02 0.  0.
        -13    1    3    3    0    0  0.41716127744E+01  0.23708014256E+02 -0.32627380644E+03  0.32716061661E+03  0.00000000000E+00 0.  1.
         14    1    3    3    0    0 -0.40847509569E+02 -0.43109747696E+02 -0.19926491502E+04  0.19935339488E+04  0.00000000000E+00 0. -1.
          1    1    1    2  501    0  0.36675896795E+02  0.19401733440E+02  0.48499297204E+02  0.63825782373E+02  0.00000000000E+00 0. -1.
<mgrwt>
<rscale>  1 0.90661940E+02</rscale>
<asrwt>0</asrwt>
<pdfrwt beam="1">  1       21 0.87766689E-02 0.90661940E+02</pdfrwt>
<pdfrwt beam="2">  1        2 0.35807259E+00 0.90661940E+02</pdfrwt>
<totfact> 0.70860029E+03</totfact>
</mgrwt>
</event>
<event>
 6    2  0.7993170E+000  0.9512627E+02  0.7546771E-02  0.1290892E+00
         21   -1    0    0  501  502  0.00000000000E+00  0.00000000000E+00  0.33716313216E+03  0.33716313216E+03  0.00000000000E+00 0. -1.
          4   -1    0    0  502    0 -0.00000000000E+00 -0.00000000000E+00 -0.17624993221E+02  0.17624993221E+02  0.00000000000E+00 0. -1.
         24    2    1    2    0    0 -0.44723681938E+02 -0.25732383285E+02  0.15043296623E+03  0.17798619465E+03  0.79916486908E+02 0.  0.
        -11    1    3    3    0    0 -0.59036397972E+02  0.29092211156E+01  0.12021199026E+03  0.13395776370E+03  0.00000000000E+00 0.  1.
         12    1    3    3    0    0  0.14312716034E+02 -0.28641604400E+02  0.30220975970E+02  0.44028430945E+02  0.00000000000E+00 0. -1.
          3    1    1    2  501    0  0.44723681938E+02  0.25732383285E+02  0.16910517270E+03  0.17680193073E+03  0.00000000000E+00 0. -1.
<mgrwt>
<rscale>  1 0.95126275E+02</rscale>
<asrwt>0</asrwt>
<pdfrwt beam="1">  1       21 0.51871246E-01 0.95126275E+02</pdfrwt>
<pdfrwt beam="2">  1        4 0.27115377E-02 0.95126275E+02</pdfrwt>
<totfact> 0.86611339E+04</totfact>
</mgrwt>
</event>
<event>
 6    2  0.7993170E+000  0.9244066E+02  0.7546771E-02  0.1297047E+00
          2   -1    0    0  502    0 -0.00000000000E+00  0.00000000000E+00  0.84558325002E+03  0.84558325002E+03  0.00000000000E+00 0. -1.
         21   -1    0    0  501  502  0.00000000000E+00 -0.00000000000E+00 -0.36276497979E+02  0.36276497979E+02  0.00000000000E+00 0. -1.
         24    2    1    2    0    0  0.25188606243E+02 -0.36293695297E+02  0.82853692615E+03  0.83367782402E+03  0.81200850167E+02 0.  0.
        -11    1    3    3    0    0  0.45409615475E+02 -0.58311858258E+01  0.26260193735E+03  0.26656296330E+03  0.00000000000E+00 0.  1.
         12    1    3    3    0    0 -0.20221009232E+02 -0.30462509471E+02  0.56593498880E+03  0.56711486072E+03  0.00000000000E+00 0. -1.
          1    1    1    2  501    0 -0.25188606243E+02  0.36293695297E+02 -0.19230174103E+02  0.48181923984E+02  0.00000000000E+00 0. -1.
<mgrwt>
<rscale>  1 0.92440664E+02</rscale>
<asrwt>0</asrwt>
<pdfrwt beam="1">  1       21 0.55810003E-02 0.92440664E+02</pdfrwt>
<pdfrwt beam="2">  1        2 0.13008972E+00 0.92440664E+02</pdfrwt>
<totfact> 0.92511872E+04</totfact>
</mgrwt>
</event>
<event>
 6    2  0.7993170E+000  0.8568210E+02  0.7546771E-02  0.1313658E+00
         21   -1    0    0  501  502  0.00000000000E+00  0.00000000000E+00  0.99585170660E+01  0.99585170660E+01  0.00000000000E+00 0.  1.
         -1   -1    0    0    0  501 -0.00000000000E+00 -0.00000000000E+00 -0.50989416488E+03  0.50989416488E+03  0.00000000000E+00 0.  1.
         24    2    1    2    0    0 -0.32663785628E+02  0.23475037733E+02 -0.43582779830E+03  0.44417034149E+03  0.75653302616E+02 0.  0.
        -13    1    3    3    0    0 -0.16347513860E+02  0.15865306512E+02 -0.41870560714E+03  0.41932485570E+03  0.00000000000E+00 0.  1.
         14    1    3    3    0    0 -0.16316271769E+02  0.76097312219E+01 -0.17122191162E+02  0.24845485785E+02  0.00000000000E+00 0. -1.
         -2    1    1    2    0  502  0.32663785628E+02 -0.23475037733E+02 -0.64107849512E+02  0.75682340458E+02  0.00000000000E+00 0.  1.
<mgrwt>
<rscale>  1 0.85682101E+02</rscale>
<asrwt>0</asrwt>
<pdfrwt beam="1">  1       21 0.15320798E-02 0.85682101E+02</pdfrwt>
<pdfrwt beam="2">  1       -1 0.78445241E-01 0.85682101E+02</pdfrwt>
<totfact> 0.28325645E+05</totfact>
</mgrwt>
</event>
<event>
 6    2  0.7993170E+000  0.9458970E+02  0.7546771E-02  0.1292103E+00
         21   -1    0    0  501  502  0.00000000000E+00  0.00000000000E+00  0.48506648066E+01  0.48506648066E+01  0.00000000000E+00 0. -1.
          2   -1    0    0  502    0 -0.00000000000E+00 -0.00000000000E+00 -0.11375889107E+04  0.11375889107E+04  0.00000000000E+00 0. -1.
         24    2    1    2    0    0  0.50258143286E+02 -0.30236019159E+01 -0.61112144146E+03  0.61839843800E+03  0.80076143574E+02 0.  0.
        -13    1    3    3    0    0  0.32605817310E+02  0.35306465125E+02 -0.41593575397E+03  0.41870304182E+03  0.00000000000E+00 0.  1.
         14    1    3    3    0    0  0.17652325976E+02 -0.38330067041E+02 -0.19518568750E+03  0.19969539618E+03  0.00000000000E+00 0. -1.
          1    1    1    2  501    0 -0.50258143286E+02  0.30236019159E+01 -0.52161680441E+03  0.52404113748E+03  0.00000000000E+00 0. -1.
<mgrwt>
<rscale>  1 0.94589703E+02</rscale>
<asrwt>0</asrwt>
<pdfrwt beam="1">  1       21 0.74625570E-03 0.94589703E+02</pdfrwt>
<pdfrwt beam="2">  1        2 0.17501378E+00 0.94589703E+02</pdfrwt>
<totfact> 0.15736774E+06</totfact>
</mgrwt>
</event>
<event>
 6    2  0.7993170E+000  0.6029419E+02  0.7546771E-02  0.1396601E+00
         21   -1    0    0  501  502  0.00000000000E+00  0.00000000000E+00  0.41327140745E+01  0.41327140745E+01  0.00000000000E+00 0. -1.
          2   -1    0    0  502    0 -0.00000000000E+00 -0.00000000000E+00 -0.76511184007E+03  0.76511184007E+03  0.00000000000E+00 0. -1.
         24    2    1    2    0    0 -0.25001914804E+02 -0.13623414057E+02 -0.69197653921E+03  0.69459838788E+03  0.53147873695E+02 0.  0.
        -11    1    3    3    0    0 -0.16160899931E+01  0.19583412261E+02 -0.21563171325E+03  0.21652518916E+03  0.00000000000E+00 0.  1.
         12    1    3    3    0    0 -0.23385824811E+02 -0.33206826319E+02 -0.47634482596E+03  0.47807319872E+03  0.00000000000E+00 0. -1.
          1    1    1    2  501    0  0.25001914804E+02  0.13623414057E+02 -0.69002586790E+02  0.74646166266E+02  0.00000000000E+00 0. -1.
<mgrwt>
<rscale>  1 0.60294192E+02</rscale>
<asrwt>0</asrwt>
<pdfrwt beam="1">  1       21 0.63580318E-03 0.60294192E+02</pdfrwt>
<pdfrwt beam="2">  1        2 0.11770933E+00 0.60294192E+02</pdfrwt>
<totfact> 0.32109580E+06</totfact>
</mgrwt>
</event>
<event>
 6    2  0.7993170E+000  0.7878579E+02  0.7546771E-02  0.1332533E+00
          4   -1    0    0  502    0 -0.00000000000E+00  0.00000000000E+00  0.42870873348E+03  0.42870873348E+03  0.00000000000E+00 0. -1.
         21   -1    0    0  501  502  0.00000000000E+00 -0.00000000000E+00 -0.13163448798E+02  0.13163448798E+02  0.00000000000E+00 0. -1.
         24    2    1    2    0    0  0.17322950211E+02 -0.29700611453E+02  0.39285395873E+03  0.40067622133E+03  0.70887167563E+02 0.  0.
        -13    1    3    3    0    0 -0.69500167440E+01 -0.35899314141E+02  0.95375326973E+02  0.10214458617E+03  0.00000000000E+00 0.  1.
         14    1    3    3    0    0  0.24272966955E+02  0.61987026882E+01  0.29747863176E+03  0.29853163516E+03  0.00000000000E+00 0. -1.
          3    1    1    2  501    0 -0.17322950211E+02  0.29700611453E+02  0.22691325947E+02  0.41195960942E+02  0.00000000000E+00 0. -1.
<mgrwt>
<rscale>  1 0.78785795E+02</rscale>
<asrwt>0</asrwt>
<pdfrwt beam="1">  1       21 0.20251463E-02 0.78785795E+02</pdfrwt>
<pdfrwt beam="2">  1        4 0.65955179E-01 0.78785795E+02</pdfrwt>
<totfact> 0.96016681E+04</totfact>
</mgrwt>
</event>
<event>
 6    2  0.7993170E+000  0.1507171E+03  0.7546771E-02  0.1199595E+00
         -3   -1    0    0    0  501 -0.00000000000E+00  0.00000000000E+00  0.40882377754E+03  0.40882377754E+03  0.00000000000E+00 0.  1.
         21   -1    0    0  501  502  0.00000000000E+00 -0.00000000000E+00 -0.52051435255E+02  0.52051435255E+02  0.00000000000E+00 0. -1.
         24    2    1    2    0    0  0.11260297772E+03 -0.59957659106E+02  0.26086360582E+03  0.30127309124E+03  0.80257729742E+02 0.  0.
        -13    1    3    3    0    0 -0.45391029190E+01 -0.15113389866E+02  0.54028917211E+01  0.16679605735E+02  0.00000000000E+00 0.  1.
         14    1    3    3    0    0  0.11714208064E+03 -0.44844269240E+02  0.25546071410E+03  0.28459348550E+03  0.00000000000E+00 0. -1.
         -4    1    1    2    0  502 -0.11260297772E+03  0.59957659106E+02  0.95908736461E+02  0.15960212156E+03  0.00000000000E+00 0.  1.
<mgrwt>
<rscale>  1 0.15071713E+03</rscale>
<asrwt>0</asrwt>
<pdfrwt beam="1">  1       21 0.80079134E-02 0.15071713E+03</pdfrwt>
<pdfrwt beam="2">  1       -3 0.62895964E-01 0.15071713E+03</pdfrwt>
<totfact> 0.14555418E+04</totfact>
</mgrwt>
</event>
<event>
 6    2  0.7993170E+000  0.8330421E+02  0.7546771E-02  0.1319928E+00
          2   -1    0    0  502    0 -0.00000000000E+00  0.00000000000E+00  0.28605342056E+04  0.28605342056E+04  0.00000000000E+00 0. -1.
         21   -1    0    0  501  502  0.00000000000E+00 -0.00000000000E+00 -0.13199865944E+01  0.13199865944E+01  0.00000000000E+00 0. -1.
         24    2    1    2    0    0  0.35695066559E+02 -0.13043281319E+02  0.21629368863E+04  0.21645404974E+04  0.74130463569E+02 0.  0.
        -11    1    3    3    0    0  0.21119935289E+02  0.30358362619E+02  0.84578199351E+03  0.84659013838E+03  0.00000000000E+00 0.  1.
         12    1    3    3    0    0  0.14575131270E+02 -0.43401643939E+02  0.13171548928E+04  0.13179503590E+04  0.00000000000E+00 0. -1.
          1    1    1    2  501    0 -0.35695066559E+02  0.13043281319E+02  0.69627733266E+03  0.69731369479E+03  0.00000000000E+00 0. -1.
<mgrwt>
<rscale>  1 0.83304205E+02</rscale>
<asrwt>0</asrwt>
<pdfrwt beam="1">  1       21 0.20307715E-03 0.83304205E+02</pdfrwt>
<pdfrwt beam="2">  1        2 0.44007722E+00 0.83304205E+02</pdfrwt>
<totfact> 0.14507814E+06</totfact>
</mgrwt>
</event>
<event>
 6    2  0.7993170E+000  0.8439978E+02  0.7546771E-02  0.1317010E+00
         21   -1    0    0  501  502  0.00000000000E+00  0.00000000000E+00  0.26642115544E+02  0.26642115544E+02  0.00000000000E+00 0. -1.
         -1   -1    0    0    0  501 -0.00000000000E+00 -0.00000000000E+00 -0.11145136806E+03  0.11145136806E+03  0.00000000000E+00 0.  1.
         24    2    1    2    0    0 -0.10132455644E+01  0.23952964404E+02 -0.59721345300E+02  0.10339226952E+03  0.80923118714E+02 0.  0.
        -11    1    3    3    0    0  0.10384471962E+01 -0.27448037569E+02 -0.39515504969E+02  0.48124300223E+02  0.00000000000E+00 0.  1.
         12    1    3    3    0    0 -0.20516927606E+01  0.51401001973E+02 -0.20205840330E+02  0.55267969300E+02  0.00000000000E+00 0. -1.
         -2    1    1    2    0  502  0.10132455644E+01 -0.23952964404E+02 -0.25087907219E+02  0.34701214085E+02  0.00000000000E+00 0.  1.
<mgrwt>
<rscale>  1 0.84399777E+02</rscale>
<asrwt>0</asrwt>
<pdfrwt beam="1">  1       21 0.40987871E-02 0.84399777E+02</pdfrwt>
<pdfrwt beam="2">  1       -1 0.17146364E-01 0.84399777E+02</pdfrwt>
<totfact> 0.80751379E+05</totfact>
</mgrwt>
</event>
<event>
 6    2  0.7993170E+000  0.2172018E+03  0.7546771E-02  0.1135987E+00
         21   -1    0    0  501  502  0.00000000000E+00  0.00000000000E+00  0.17451767256E+03  0.17451767256E+03  0.00000000000E+00 0. -1.
          2   -1    0    0  502    0 -0.00000000000E+00 -0.00000000000E+00 -0.39477326496E+03  0.39477326496E+03  0.00000000000E+00 0. -1.
         24    2    1    2    0    0 -0.18534814776E+03  0.71455825593E+02 -0.28682801874E+03  0.35978733651E+03  0.87845001529E+02 0.  0.
        -11    1    3    3    0    0  0.30132420048E+01  0.18641608488E+02 -0.11747851139E+02  0.22239631310E+02  0.00000000000E+00 0.  1.
         12    1    3    3    0    0 -0.18836138976E+03  0.52814217104E+02 -0.27508016760E+03  0.33754770520E+03  0.00000000000E+00 0. -1.
          1    1    1    2  501    0  0.18534814776E+03 -0.71455825593E+02  0.66572426337E+02  0.20950360101E+03  0.00000000000E+00 0. -1.
<mgrwt>
<rscale>  1 0.21720178E+03</rscale>
<asrwt>0</asrwt>
<pdfrwt beam="1">  1       21 0.26848873E-01 0.21720178E+03</pdfrwt>
<pdfrwt beam="2">  1        2 0.60734348E-01 0.21720178E+03</pdfrwt>
<totfact> 0.13274026E+04</totfact>
</mgrwt>
</event>
<event>
 6    2  0.7993170E+000  0.8637329E+02  0.7546771E-02  0.1311880E+00
         21   -1    0    0  501  502  0.00000000000E+00  0.00000000000E+00  0.86294566655E+01  0.86294566655E+01  0.00000000000E+00 0. -1.
          2   -1    0    0  502    0 -0.00000000000E+00 -0.00000000000E+00 -0.54888951850E+03  0.54888951850E+03  0.00000000000E+00 0. -1.
         24    2    1    2    0    0  0.19243043090E+02  0.25009743279E+02 -0.49416852326E+03  0.50166011827E+03  0.80402505616E+02 0.  0.
        -11    1    3    3    0    0 -0.16106356918E+02 -0.21935351037E+02 -0.13495956502E+03  0.13767591855E+03  0.00000000000E+00 0.  1.
         12    1    3    3    0    0  0.35349400008E+02  0.46945094316E+02 -0.35920895825E+03  0.36398419972E+03  0.00000000000E+00 0. -1.
          1    1    1    2  501    0 -0.19243043090E+02 -0.25009743279E+02 -0.46091538575E+02  0.55858856902E+02  0.00000000000E+00 0. -1.
<mgrwt>
<rscale>  1 0.86373288E+02</rscale>
<asrwt>0</asrwt>
<pdfrwt beam="1">  1       21 0.13276090E-02 0.86373288E+02</pdfrwt>
<pdfrwt beam="2">  1        2 0.84444524E-01 0.86373288E+02</pdfrwt>
<totfact> 0.15595707E+06</totfact>
</mgrwt>
</event>
<event>
 6    2  0.7993170E+000  0.9791484E+02  0.7546771E-02  0.1284743E+00
          2   -1    0    0  502    0 -0.00000000000E+00  0.00000000000E+00  0.13094466747E+02  0.13094466747E+02  0.00000000000E+00 0. -1.
         21   -1    0    0  501  502  0.00000000000E+00 -0.00000000000E+00 -0.93649661638E+03  0.93649661638E+03  0.00000000000E+00 0. -1.
         24    2    1    2    0    0 -0.18021498585E+02 -0.50984831104E+02 -0.18590645613E+03  0.21011550858E+03  0.81627747133E+02 0.  0.
        -13    1    3    3    0    0  0.15771637458E+02 -0.85687270333E+01 -0.13349500636E+03  0.13469626704E+03  0.00000000000E+00 0.  1.
         14    1    3    3    0    0 -0.33793136043E+02 -0.42416104071E+02 -0.52411449773E+02  0.75419241546E+02  0.00000000000E+00 0. -1.
          1    1    1    2  501    0  0.18021498585E+02  0.50984831104E+02 -0.73749569351E+03  0.73947557455E+03  0.00000000000E+00 0. -1.
<mgrwt>
<rscale>  1 0.97914843E+02</rscale>
<asrwt>0</asrwt>
<pdfrwt beam="1">  1       21 0.14407640E+00 0.97914843E+02</pdfrwt>
<pdfrwt beam="2">  1        2 0.20145334E-02 0.97914843E+02</pdfrwt>
<totfact> 0.21575517E+04</totfact>
</mgrwt>
</event>
<event>
 6    2  0.7993170E+000  0.8404252E+02  0.7546771E-02  0.1317956E+00
          2   -1    0    0  502    0 -0.00000000000E+00  0.00000000000E+00  0.40614001656E+03  0.40614001656E+03  0.00000000000E+00 0. -1.
         21   -1    0    0  501  502  0.00000000000E+00 -0.00000000000E+00 -0.86627487759E+01  0.86627487759E+01  0.00000000000E+00 0.  1.
         24    2    1    2    0    0 -0.20370195833E+01 -0.21981333246E+02  0.21254355404E+03  0.22855613599E+03  0.81091408169E+02 0.  0.
        -13    1    3    3    0    0  0.21689128416E+02 -0.46054170109E+01  0.10768648670E+02  0.24649380346E+02  0.00000000000E+00 0.  1.
         14    1    3    3    0    0 -0.23726147999E+02 -0.17375916236E+02  0.20177490536E+03  0.20390675565E+03  0.00000000000E+00 0. -1.
          1    1    1    2  501    0  0.20370195833E+01  0.21981333246E+02  0.18493371375E+03  0.18624662934E+03  0.00000000000E+00 0. -1.
<mgrwt>
<rscale>  1 0.84042519E+02</rscale>
<asrwt>0</asrwt>
<pdfrwt beam="1">  1       21 0.13327309E-02 0.84042519E+02</pdfrwt>
<pdfrwt beam="2">  1        2 0.62483065E-01 0.84042519E+02</pdfrwt>
<totfact> 0.21331381E+06</totfact>
</mgrwt>
</event>
<event>
 6    2  0.7993170E+000  0.1067928E+03  0.7546771E-02  0.1266627E+00
         -1   -1    0    0    0  501 -0.00000000000E+00  0.00000000000E+00  0.10983206488E+04  0.10983206488E+04  0.00000000000E+00 0.  1.
         21   -1    0    0  501  502  0.00000000000E+00 -0.00000000000E+00 -0.89508153408E+01  0.89508153408E+01  0.00000000000E+00 0. -1.
         24    2    1    2    0    0  0.69295395122E+02  0.15851253014E+01  0.38618898189E+03  0.40068270508E+03  0.81242452052E+02 0.  0.
        -13    1    3    3    0    0  0.79887006983E+01  0.35720117911E+02  0.12863286663E+03  0.13373915111E+03  0.00000000000E+00 0.  1.
         14    1    3    3    0    0  0.61306694424E+02 -0.34134992610E+02  0.25755611526E+03  0.26694355397E+03  0.00000000000E+00 0. -1.
         -2    1    1    2    0  502 -0.69295395122E+02 -0.15851253014E+01  0.70318085160E+03  0.70658875909E+03  0.00000000000E+00 0.  1.
<mgrwt>
<rscale>  1 0.10679279E+03</rscale>
<asrwt>0</asrwt>
<pdfrwt beam="1">  1       21 0.13770494E-02 0.10679279E+03</pdfrwt>
<pdfrwt beam="2">  1       -1 0.16897230E+00 0.10679279E+03</pdfrwt>
<totfact> 0.57446966E+04</totfact>
</mgrwt>
</event>
<event>
 6    2  0.7993170E+000  0.8665821E+02  0.7546771E-02  0.1311152E+00
          2   -1    0    0  502    0 -0.00000000000E+00  0.00000000000E+00  0.13060327159E+04  0.13060327159E+04  0.00000000000E+00 0. -1.
         21   -1    0    0  501  502  0.00000000000E+00 -0.00000000000E+00 -0.31026132638E+01  0.31026132638E+01  0.00000000000E+00 0. -1.
         24    2    1    2    0    0  0.33221300574E+02 -0.36391905993E+01  0.11059835319E+04  0.11093733451E+04  0.79954659925E+02 0.  0.
        -11    1    3    3    0    0 -0.23402556056E+02 -0.54632498140E+01  0.17168946010E+03  0.17336319516E+03  0.00000000000E+00 0.  1.
         12    1    3    3    0    0  0.56623856630E+02  0.18240592146E+01  0.93429407177E+03  0.93601014998E+03  0.00000000000E+00 0. -1.
          1    1    1    2  501    0 -0.33221300574E+02  0.36391905993E+01  0.19694657075E+03  0.19976198400E+03  0.00000000000E+00 0. -1.
<mgrwt>
<rscale>  1 0.86658215E+02</rscale>
<asrwt>0</asrwt>
<pdfrwt beam="1">  1       21 0.47732616E-03 0.86658215E+02</pdfrwt>
<pdfrwt beam="2">  1        2 0.20092767E+00 0.86658215E+02</pdfrwt>
<totfact> 0.25205083E+06</totfact>
</mgrwt>
</event>
<event>
 6    2  0.7993170E+000  0.9134454E+02  0.7546771E-02  0.1299628E+00
         21   -1    0    0  501  502  0.00000000000E+00  0.00000000000E+00  0.84577874964E+03  0.84577874964E+03  0.00000000000E+00 0. -1.
          4   -1    0    0  502    0 -0.00000000000E+00 -0.00000000000E+00 -0.54535225815E+01  0.54535225815E+01  0.00000000000E+00 0. -1.
         24    2    1    2    0    0  0.10331946385E+02  0.42022437358E+02  0.51447547205E+03  0.52252161344E+03  0.80443712080E+02 0.  0.
        -13    1    3    3    0    0 -0.32031350216E+02  0.74288879426E+01  0.12621676656E+03  0.13042955161E+03  0.00000000000E+00 0.  1.
         14    1    3    3    0    0  0.42363296601E+02  0.34593549415E+02  0.38825870550E+03  0.39209206184E+03  0.00000000000E+00 0. -1.
          3    1    1    2  501    0 -0.10331946385E+02 -0.42022437358E+02  0.32584975501E+03  0.32871065878E+03  0.00000000000E+00 0. -1.
<mgrwt>
<rscale>  1 0.91344541E+02</rscale>
<asrwt>0</asrwt>
<pdfrwt beam="1">  1       21 0.13011970E+00 0.91344541E+02</pdfrwt>
<pdfrwt beam="2">  1        4 0.83900415E-03 0.91344541E+02</pdfrwt>
<totfact> 0.65204882E+04</totfact>
</mgrwt>
</event>
<event>
 6    2  0.7993170E+000  0.9693596E+02  0.7546771E-02  0.1286874E+00
          2   -1    0    0  502    0 -0.00000000000E+00  0.00000000000E+00  0.38850053787E+03  0.38850053787E+03  0.00000000000E+00 0. -1.
         21   -1    0    0  501  502  0.00000000000E+00 -0.00000000000E+00 -0.21520876023E+02  0.21520876023E+02  0.00000000000E+00 0. -1.
         24    2    1    2    0    0 -0.47869349427E+02  0.26757029257E+02  0.32983886101E+03  0.34378809663E+03  0.79932270830E+02 0.  0.
        -11    1    3    3    0    0 -0.33907734336E+02 -0.15371645355E+01  0.40981063081E+02  0.53212262251E+02  0.00000000000E+00 0.  1.
         12    1    3    3    0    0 -0.13961615091E+02  0.28294193793E+02  0.28885779793E+03  0.29057583438E+03  0.00000000000E+00 0. -1.
          1    1    1    2  501    0  0.47869349427E+02 -0.26757029257E+02  0.37140800834E+02  0.66233317264E+02  0.00000000000E+00 0. -1.
<mgrwt>
<rscale>  1 0.96935964E+02</rscale>
<asrwt>0</asrwt>
<pdfrwt beam="1">  1       21 0.33109043E-02 0.96935964E+02</pdfrwt>
<pdfrwt beam="2">  1        2 0.59769308E-01 0.96935964E+02</pdfrwt>
<totfact> 0.52707840E+05</totfact>
</mgrwt>
</event>
<event>
 6    2  0.7993170E+000  0.9248573E+02  0.7546771E-02  0.1296941E+00
          2   -1    0    0  502    0 -0.00000000000E+00  0.00000000000E+00  0.39160438227E+04  0.39160438227E+04  0.00000000000E+00 0. -1.
         21   -1    0    0  501  502  0.00000000000E+00 -0.00000000000E+00 -0.13859726817E+01  0.13859726817E+01  0.00000000000E+00 0.  1.
         24    2    1    2    0    0  0.13688436824E+02 -0.41524923167E+02  0.18512749514E+04  0.18535837065E+04  0.81497966455E+02 0.  0.
        -11    1    3    3    0    0 -0.23868896512E+01 -0.64348480803E+02  0.13426020684E+04  0.13441453561E+04  0.00000000000E+00 0.  1.
         12    1    3    3    0    0  0.16075326475E+02  0.22823557636E+02  0.50867288304E+03  0.50943835039E+03  0.00000000000E+00 0. -1.
          1    1    1    2  501    0 -0.13688436824E+02  0.41524923167E+02  0.20633828986E+04  0.20638460889E+04  0.00000000000E+00 0. -1.
<mgrwt>
<rscale>  1 0.92485734E+02</rscale>
<asrwt>0</asrwt>
<pdfrwt beam="1">  1       21 0.21322970E-03 0.92485734E+02</pdfrwt>
<pdfrwt beam="2">  1        2 0.60245942E+00 0.92485734E+02</pdfrwt>
<totfact> 0.29546973E+05</totfact>
</mgrwt>
</event>
<event>
 6    2  0.7993170E+000  0.8553159E+02  0.7546771E-02  0.1314048E+00
         21   -1    0    0  501  502  0.00000000000E+00  0.00000000000E+00  0.15676927770E+03  0.15676927770E+03  0.00000000000E+00 0.  1.
         -1   -1    0    0    0  501 -0.00000000000E+00 -0.00000000000E+00 -0.32208686797E+02  0.32208686797E+02  0.00000000000E+00 0.  1.
         24    2    1    2    0    0 -0.12506168863E+02 -0.25838307390E+02  0.30778396257E+02  0.90900839635E+02  0.80570655835E+02 0.  0.
        -13    1    3    3    0    0 -0.35529549402E+02  0.13885340656E+02  0.56554189918E+01  0.38563393650E+02  0.00000000000E+00 0.  1.
         14    1    3    3    0    0  0.23023380539E+02 -0.39723648046E+02  0.25122977265E+02  0.52337445985E+02  0.00000000000E+00 0. -1.
         -2    1    1    2    0  502  0.12506168863E+02  0.25838307390E+02  0.93782194650E+02  0.98077124865E+02  0.00000000000E+00 0.  1.
<mgrwt>
<rscale>  1 0.85531590E+02</rscale>
<asrwt>0</asrwt>
<pdfrwt beam="1">  1       21 0.24118350E-01 0.85531590E+02</pdfrwt>
<pdfrwt beam="2">  1       -1 0.49551827E-02 0.85531590E+02</pdfrwt>
<totfact> 0.24080853E+05</totfact>
</mgrwt>
</event>
<event>
 6    2  0.7993170E+000  0.8367466E+02  0.7546771E-02  0.1318935E+00
          2   -1    0    0  502    0 -0.00000000000E+00  0.00000000000E+00  0.92955624146E+03  0.92955624146E+03  0.00000000000E+00 0. -1.
         21   -1    0    0  501  502  0.00000000000E+00 -0.00000000000E+00 -0.32072437718E+01  0.32072437718E+01  0.00000000000E+00 0.  1.
         24    2    1    2    0    0  0.10927199588E+02 -0.22234368825E+02  0.66520762577E+03  0.67044957600E+03  0.79922948715E+02 0.  0.
        -13    1    3    3    0    0  0.10287604881E+01 -0.50416930898E+02  0.31963609659E+03  0.32358949228E+03  0.00000000000E+00 0.  1.
         14    1    3    3    0    0  0.98984391000E+01  0.28182562073E+02  0.34557152917E+03  0.34686008372E+03  0.00000000000E+00 0. -1.
          1    1    1    2  501    0 -0.10927199588E+02  0.22234368825E+02  0.26114137193E+03  0.26231390924E+03  0.00000000000E+00 0. -1.
<mgrwt>
<rscale>  1 0.83674659E+02</rscale>
<asrwt>0</asrwt>
<pdfrwt beam="1">  1       21 0.49342286E-03 0.83674659E+02</pdfrwt>
<pdfrwt beam="2">  1        2 0.14300844E+00 0.83674659E+02</pdfrwt>
<totfact> 0.38771471E+06</totfact>
</mgrwt>
</event>
<event>
 6    2  0.7993170E+000  0.9474565E+02  0.7546771E-02  0.1291750E+00
         21   -1    0    0  501  502  0.00000000000E+00  0.00000000000E+00  0.61354292393E+02  0.61354292393E+02  0.00000000000E+00 0. -1.
         -1   -1    0    0    0  501 -0.00000000000E+00 -0.00000000000E+00 -0.19785136213E+03  0.19785136213E+03  0.00000000000E+00 0.  1.
         24    2    1    2    0    0  0.45706694301E+02  0.18707641324E+02  0.18496249026E+02  0.96534186192E+02  0.80855798356E+02 0.  0.
        -13    1    3    3    0    0 -0.10960627143E+02  0.33801860304E+02  0.12123799619E+02  0.37545807017E+02  0.00000000000E+00 0.  1.
         14    1    3    3    0    0  0.56667321443E+02 -0.15094218980E+02  0.63724494074E+01  0.58988379174E+02  0.00000000000E+00 0. -1.
         -2    1    1    2    0  502 -0.45706694301E+02 -0.18707641324E+02 -0.15499331877E+03  0.16267146833E+03  0.00000000000E+00 0.  1.
<mgrwt>
<rscale>  1 0.94745648E+02</rscale>
<asrwt>0</asrwt>
<pdfrwt beam="1">  1       21 0.94391220E-02 0.94745648E+02</pdfrwt>
<pdfrwt beam="2">  1       -1 0.30438671E-01 0.94745648E+02</pdfrwt>
<totfact> 0.79425181E+04</totfact>
</mgrwt>
</event>
<event>
 6    2  0.7993170E+000  0.9999924E+02  0.7546771E-02  0.1280298E+00
         21   -1    0    0  501  502  0.00000000000E+00  0.00000000000E+00  0.49547595450E+02  0.49547595450E+02  0.00000000000E+00 0. -1.
         -3   -1    0    0    0  501 -0.00000000000E+00 -0.00000000000E+00 -0.12820729757E+03  0.12820729757E+03  0.00000000000E+00 0.  1.
         24    2    1    2    0    0 -0.36464012007E+02  0.46833300287E+02 -0.47213948274E+02  0.11058482809E+03  0.80478973061E+02 0.  0.
        -13    1    3    3    0    0  0.24852995900E+02  0.10328390260E+02 -0.41361139519E+01  0.27229661937E+02  0.00000000000E+00 0.  1.
         14    1    3    3    0    0 -0.61317007907E+02  0.36504910027E+02 -0.43077834322E+02  0.83355166155E+02  0.00000000000E+00 0. -1.
         -4    1    1    2    0  502  0.36464012007E+02 -0.46833300287E+02 -0.31445753845E+02  0.67170064927E+02  0.00000000000E+00 0.  1.
<mgrwt>
<rscale>  1 0.99999236E+02</rscale>
<asrwt>0</asrwt>
<pdfrwt beam="1">  1       21 0.76227071E-02 0.99999236E+02</pdfrwt>
<pdfrwt beam="2">  1       -3 0.19724199E-01 0.99999236E+02</pdfrwt>
<totfact> 0.13691360E+05</totfact>
</mgrwt>
</event>
<event>
 6    2  0.7993170E+000  0.8496135E+02  0.7546771E-02  0.1315534E+00
         21   -1    0    0  501  502  0.00000000000E+00  0.00000000000E+00  0.35441171155E+01  0.35441171155E+01  0.00000000000E+00 0. -1.
         -1   -1    0    0    0  501 -0.00000000000E+00 -0.00000000000E+00 -0.87892930845E+03  0.87892930845E+03  0.00000000000E+00 0.  1.
         24    2    1    2    0    0 -0.23828567648E+02  0.11169654308E+02 -0.63735199629E+03  0.64298989010E+03  0.80782855785E+02 0.  0.
        -13    1    3    3    0    0 -0.28579296043E+02  0.28106395414E+02 -0.60359681234E+03  0.60492632402E+03  0.00000000000E+00 0.  1.
         14    1    3    3    0    0  0.47507283948E+01 -0.16936741106E+02 -0.33755183948E+02  0.38063566082E+02  0.00000000000E+00 0. -1.
         -2    1    1    2    0  502  0.23828567648E+02 -0.11169654308E+02 -0.23803319504E+03  0.23948353546E+03  0.00000000000E+00 0.  1.
<mgrwt>
<rscale>  1 0.84961354E+02</rscale>
<asrwt>0</asrwt>
<pdfrwt beam="1">  1       21 0.54524870E-03 0.84961354E+02</pdfrwt>
<pdfrwt beam="2">  1       -1 0.13521992E+00 0.84961354E+02</pdfrwt>
<totfact> 0.42562555E+05</totfact>
</mgrwt>
</event>
<event>
 6    2  0.7993170E+000  0.8175953E+02  0.7546771E-02  0.1324131E+00
          2   -1    0    0  502    0 -0.00000000000E+00  0.00000000000E+00  0.67966967665E+03  0.67966967665E+03  0.00000000000E+00 0. -1.
         21   -1    0    0  501  502  0.00000000000E+00 -0.00000000000E+00 -0.45980550519E+01  0.45980550519E+01  0.00000000000E+00 0.  1.
         24    2    1    2    0    0  0.13256576214E+01  0.24882608887E+02  0.58947444709E+03  0.59511742112E+03  0.77869888627E+02 0.  0.
        -11    1    3    3    0    0 -0.25956770397E+02  0.10027411969E+02  0.80083330037E+02  0.84779966207E+02  0.00000000000E+00 0.  1.
         12    1    3    3    0    0  0.27282428019E+02  0.14855196918E+02  0.50939111705E+03  0.51033745491E+03  0.00000000000E+00 0. -1.
          1    1    1    2  501    0 -0.13256576214E+01 -0.24882608887E+02  0.85597174508E+02  0.89150310582E+02  0.00000000000E+00 0. -1.
<mgrwt>
<rscale>  1 0.81759532E+02</rscale>
<asrwt>0</asrwt>
<pdfrwt beam="1">  1       21 0.70739363E-03 0.81759532E+02</pdfrwt>
<pdfrwt beam="2">  1        2 0.10456449E+00 0.81759532E+02</pdfrwt>
<totfact> 0.32541251E+06</totfact>
</mgrwt>
</event>
<event>
 6    2  0.7993170E+000  0.8588459E+02  0.7546771E-02  0.1313135E+00
         -1   -1    0    0    0  501 -0.00000000000E+00  0.00000000000E+00  0.38473857262E+03  0.38473857262E+03  0.00000000000E+00 0.  1.
         21   -1    0    0  501  502  0.00000000000E+00 -0.00000000000E+00 -0.11357289868E+02  0.11357289868E+02  0.00000000000E+00 0. -1.
         24    2    1    2    0    0 -0.43634464208E+02  0.58725277550E+01  0.20993374588E+03  0.22682226633E+03  0.73740828528E+02 0.  0.
        -11    1    3    3    0    0 -0.27866601677E+02 -0.33207961907E+02  0.11726008292E+03  0.12501697192E+03  0.00000000000E+00 0.  1.
         12    1    3    3    0    0 -0.15767862531E+02  0.39080489662E+02  0.92673662965E+02  0.10180529440E+03  0.00000000000E+00 0. -1.
         -2    1    1    2    0  502  0.43634464208E+02 -0.58725277550E+01  0.16344753687E+03  0.16927359616E+03  0.00000000000E+00 0.  1.
<mgrwt>
<rscale>  1 0.85884590E+02</rscale>
<asrwt>0</asrwt>
<pdfrwt beam="1">  1       21 0.17472757E-02 0.85884590E+02</pdfrwt>
<pdfrwt beam="2">  1       -1 0.59190540E-01 0.85884590E+02</pdfrwt>
<totfact> 0.39697773E+05</totfact>
</mgrwt>
</event>
<event>
 6    2  0.7993170E+000  0.9235548E+02  0.7546771E-02  0.1297246E+00
          2   -1    0    0  502    0 -0.00000000000E+00  0.00000000000E+00  0.17480109831E+04  0.17480109831E+04  0.00000000000E+00 0. -1.
         21   -1    0    0  501  502  0.00000000000E+00 -0.00000000000E+00 -0.46353044299E+01  0.46353044299E+01  0.00000000000E+00 0.  1.
         24    2    1    2    0    0 -0.47357487620E+02 -0.80162964526E+01  0.50733252916E+03  0.51567027317E+03  0.78883096087E+02 0.  0.
        -11    1    3    3    0    0 -0.67379061107E+02  0.55909864314E+01  0.34767800640E+03  0.35419089929E+03  0.00000000000E+00 0.  1.
         12    1    3    3    0    0  0.20021573486E+02 -0.13607282884E+02  0.15965452276E+03  0.16147937388E+03  0.00000000000E+00 0. -1.
          1    1    1    2  501    0  0.47357487620E+02  0.80162964526E+01  0.12360431495E+04  0.12369760144E+04  0.00000000000E+00 0. -1.
<mgrwt>
<rscale>  1 0.92355484E+02</rscale>
<asrwt>0</asrwt>
<pdfrwt beam="1">  1       21 0.71312515E-03 0.92355484E+02</pdfrwt>
<pdfrwt beam="2">  1        2 0.26892424E+00 0.92355484E+02</pdfrwt>
<totfact> 0.81174961E+05</totfact>
</mgrwt>
</event>
<event>
 6    2  0.7993170E+000  0.1016862E+03  0.7546771E-02  0.1276790E+00
         21   -1    0    0  501  502  0.00000000000E+00  0.00000000000E+00  0.24173549157E+01  0.24173549157E+01  0.00000000000E+00 0.  1.
          2   -1    0    0  502    0 -0.00000000000E+00 -0.00000000000E+00 -0.38713383362E+04  0.38713383362E+04  0.00000000000E+00 0. -1.
         24    2    1    2    0    0  0.46572478357E+02  0.41160318041E+02 -0.12607142086E+04  0.12648084443E+04  0.80479298697E+02 0.  0.
        -11    1    3    3    0    0  0.57733742304E+02  0.56186992790E+02 -0.11132178135E+04  0.11161290532E+04  0.00000000000E+00 0.  1.
         12    1    3    3    0    0 -0.11161263947E+02 -0.15026674749E+02 -0.14749639510E+03  0.14867939109E+03  0.00000000000E+00 0. -1.
          1    1    1    2  501    0 -0.46572478357E+02 -0.41160318041E+02 -0.26082067726E+04  0.26089472468E+04  0.00000000000E+00 0. -1.
<mgrwt>
<rscale>  1 0.10168621E+03</rscale>
<asrwt>0</asrwt>
<pdfrwt beam="1">  1       21 0.37190389E-03 0.10168621E+03</pdfrwt>
<pdfrwt beam="2">  1        2 0.59558550E+00 0.10168621E+03</pdfrwt>
<totfact> 0.13664024E+05</totfact>
</mgrwt>
</event>
<event>
 6    2  0.7993170E+000  0.9952528E+02  0.7546771E-02  0.1281297E+00
         21   -1    0    0  501  502  0.00000000000E+00  0.00000000000E+00  0.10189089060E+03  0.10189089060E+03  0.00000000000E+00 0. -1.
          2   -1    0    0  502    0 -0.00000000000E+00 -0.00000000000E+00 -0.74200490407E+02  0.74200490407E+02  0.00000000000E+00 0. -1.
         24    2    1    2    0    0  0.34119258409E+02  0.43702667921E+02 -0.21671773129E+02  0.10185748624E+03  0.82651284163E+02 0.  0.
        -13    1    3    3    0    0 -0.24403626020E+02 -0.71853659020E+00  0.24256760873E+01  0.24534407721E+02  0.00000000000E+00 0.  1.
         14    1    3    3    0    0  0.58522884429E+02  0.44421204512E+02 -0.24097449217E+02  0.77323078514E+02  0.00000000000E+00 0. -1.
          1    1    1    2  501    0 -0.34119258409E+02 -0.43702667921E+02  0.49362173324E+02  0.74233894773E+02  0.00000000000E+00 0. -1.
<mgrwt>
<rscale>  1 0.99525282E+02</rscale>
<asrwt>0</asrwt>
<pdfrwt beam="1">  1       21 0.15675522E-01 0.99525282E+02</pdfrwt>
<pdfrwt beam="2">  1        2 0.11415460E-01 0.99525282E+02</pdfrwt>
<totfact> 0.22964409E+05</totfact>
</mgrwt>
</event>
<event>
 6    2  0.7993170E+000  0.9133258E+02  0.7546771E-02  0.1299656E+00
         21   -1    0    0  501  502  0.00000000000E+00  0.00000000000E+00  0.18493851084E+03  0.18493851084E+03  0.00000000000E+00 0.  1.
         -3   -1    0    0    0  501 -0.00000000000E+00 -0.00000000000E+00 -0.84812075993E+02  0.84812075993E+02  0.00000000000E+00 0.  1.
         24    2    1    2    0    0 -0.13645131529E+02  0.33364990304E+02 -0.57585864640E+02  0.10797116416E+03  0.83917985502E+02 0.  0.
        -13    1    3    3    0    0 -0.14517013464E+02  0.11833373882E+02 -0.76830011630E+02  0.79079852708E+02  0.00000000000E+00 0.  1.
         14    1    3    3    0    0  0.87188193569E+00  0.21531616421E+02  0.19244146990E+02  0.28891311448E+02  0.00000000000E+00 0. -1.
         -4    1    1    2    0  502  0.13645131529E+02 -0.33364990304E+02  0.15771229949E+03  0.16177942268E+03  0.00000000000E+00 0.  1.
<mgrwt>
<rscale>  1 0.91332582E+02</rscale>
<asrwt>0</asrwt>
<pdfrwt beam="1">  1       21 0.28452078E-01 0.91332582E+02</pdfrwt>
<pdfrwt beam="2">  1       -3 0.13048012E-01 0.91332582E+02</pdfrwt>
<totfact> 0.25931775E+04</totfact>
</mgrwt>
</event>
<event>
 6    2  0.7993170E+000  0.7604533E+02  0.7546771E-02  0.1340664E+00
         -1   -1    0    0    0  501 -0.00000000000E+00  0.00000000000E+00  0.19145962552E+02  0.19145962552E+02  0.00000000000E+00 0.  1.
         21   -1    0    0  501  502  0.00000000000E+00 -0.00000000000E+00 -0.48738750486E+03  0.48738750486E+03  0.00000000000E+00 0.  1.
         24    2    1    2    0    0 -0.26628649600E+02 -0.72702927607E+01 -0.58707152506E+02  0.96069877593E+02  0.70858658533E+02 0.  0.
        -13    1    3    3    0    0 -0.59978330651E+01 -0.30200938626E+01  0.16581721002E+02  0.17889897702E+02  0.00000000000E+00 0.  1.
         14    1    3    3    0    0 -0.20630816535E+02 -0.42501988981E+01 -0.75288873508E+02  0.78179979891E+02  0.00000000000E+00 0. -1.
         -2    1    1    2    0  502  0.26628649600E+02  0.72702927607E+01 -0.40953438980E+03  0.41046358981E+03  0.00000000000E+00 0.  1.
<mgrwt>
<rscale>  1 0.76045326E+02</rscale>
<asrwt>0</asrwt>
<pdfrwt beam="1">  1       21 0.74982690E-01 0.76045326E+02</pdfrwt>
<pdfrwt beam="2">  1       -1 0.29455328E-02 0.76045326E+02</pdfrwt>
<totfact> 0.52551660E+04</totfact>
</mgrwt>
</event>
<event>
 6    2  0.7993170E+000  0.8293734E+02  0.7546771E-02  0.1320916E+00
         21   -1    0    0  501  502  0.00000000000E+00  0.00000000000E+00  0.20152172508E+02  0.20152172508E+02  0.00000000000E+00 0. -1.
          4   -1    0    0  502    0 -0.00000000000E+00 -0.00000000000E+00 -0.14571081352E+03  0.14571081352E+03  0.00000000000E+00 0. -1.
         24    2    1    2    0    0 -0.13308800283E+02 -0.18137744844E+02 -0.11277260923E+03  0.13998665395E+03  0.79827939589E+02 0.  0.
        -13    1    3    3    0    0  0.84213202541E+00  0.25807070136E+02 -0.10683177504E+02  0.27943592055E+02  0.00000000000E+00 0.  1.
         14    1    3    3    0    0 -0.14150932309E+02 -0.43944814981E+02 -0.10208943173E+03  0.11204306190E+03  0.00000000000E+00 0. -1.
          3    1    1    2  501    0  0.13308800283E+02  0.18137744844E+02 -0.12786031782E+02  0.25876332077E+02  0.00000000000E+00 0. -1.
<mgrwt>
<rscale>  1 0.82937337E+02</rscale>
<asrwt>0</asrwt>
<pdfrwt beam="1">  1       21 0.31003342E-02 0.82937337E+02</pdfrwt>
<pdfrwt beam="2">  1        4 0.22417048E-01 0.82937337E+02</pdfrwt>
<totfact> 0.39704433E+05</totfact>
</mgrwt>
</event>
<event>
 6    2  0.7993170E+000  0.8954193E+02  0.7546771E-02  0.1303965E+00
          2   -1    0    0  502    0 -0.00000000000E+00  0.00000000000E+00  0.96265933347E+03  0.96265933347E+03  0.00000000000E+00 0. -1.
         21   -1    0    0  501  502  0.00000000000E+00 -0.00000000000E+00 -0.41932601395E+01  0.41932601395E+01  0.00000000000E+00 0. -1.
         24    2    1    2    0    0 -0.26013092432E+02 -0.26544969939E+02  0.64298970165E+03  0.64919451093E+03  0.81464349126E+02 0.  0.
        -11    1    3    3    0    0  0.26708825298E+02 -0.72914704074E+01  0.33422925740E+03  0.33537400524E+03  0.00000000000E+00 0.  1.
         12    1    3    3    0    0 -0.52721917729E+02 -0.19253499531E+02  0.30876044425E+03  0.31382050569E+03  0.00000000000E+00 0. -1.
          1    1    1    2  501    0  0.26013092432E+02  0.26544969939E+02  0.31547637168E+03  0.31765808268E+03  0.00000000000E+00 0. -1.
<mgrwt>
<rscale>  1 0.89541926E+02</rscale>
<asrwt>0</asrwt>
<pdfrwt beam="1">  1       21 0.64511771E-03 0.89541926E+02</pdfrwt>
<pdfrwt beam="2">  1        2 0.14810126E+00 0.89541926E+02</pdfrwt>
<totfact> 0.24719508E+06</totfact>
</mgrwt>
</event>
<event>
 6    2  0.7993170E+000  0.8712017E+02  0.7546771E-02  0.1309979E+00
          2   -1    0    0  502    0 -0.00000000000E+00  0.00000000000E+00  0.22720262842E+02  0.22720262842E+02  0.00000000000E+00 0. -1.
         21   -1    0    0  501  502  0.00000000000E+00 -0.00000000000E+00 -0.22528172548E+03  0.22528172548E+03  0.00000000000E+00 0.  1.
         24    2    1    2    0    0  0.41128591169E+02  0.11273869541E+02 -0.80171668069E+02  0.11839518696E+03  0.75968827734E+02 0.  0.
        -11    1    3    3    0    0  0.13659935494E+02  0.63269955308E+01 -0.88102771219E+02  0.89379656559E+02  0.00000000000E+00 0.  1.
         12    1    3    3    0    0  0.27468655675E+02  0.49468740099E+01  0.79311031494E+01  0.29015530397E+02  0.00000000000E+00 0. -1.
          1    1    1    2  501    0 -0.41128591169E+02 -0.11273869541E+02 -0.12238979457E+03  0.12960680137E+03  0.00000000000E+00 0. -1.
<mgrwt>
<rscale>  1 0.87120169E+02</rscale>
<asrwt>0</asrwt>
<pdfrwt beam="1">  1       21 0.34658726E-01 0.87120169E+02</pdfrwt>
<pdfrwt beam="2">  1        2 0.34954251E-02 0.87120169E+02</pdfrwt>
<totfact> 0.23156489E+05</totfact>
</mgrwt>
</event>
<event>
 6    2  0.7993170E+000  0.8898597E+02  0.7546771E-02  0.1305326E+00
         21   -1    0    0  501  502  0.00000000000E+00  0.00000000000E+00  0.57783606814E+02  0.57783606814E+02  0.00000000000E+00 0.  1.
         -3   -1    0    0    0  501 -0.00000000000E+00 -0.00000000000E+00 -0.95157778406E+02  0.95157778406E+02  0.00000000000E+00 0.  1.
         24    2    1    2    0    0 -0.28895474108E+02  0.19768511054E+02 -0.63447198310E+02  0.10928883460E+03  0.81809290072E+02 0.  0.
        -11    1    3    3    0    0  0.21504805482E+01  0.45065056593E+02 -0.49271386348E+02  0.66806836514E+02  0.00000000000E+00 0.  1.
         12    1    3    3    0    0 -0.31045954657E+02 -0.25296545540E+02 -0.14175811961E+02  0.42481998088E+02  0.00000000000E+00 0. -1.
         -4    1    1    2    0  502  0.28895474108E+02 -0.19768511054E+02  0.26073026718E+02  0.43652550618E+02  0.00000000000E+00 0.  1.
<mgrwt>
<rscale>  1 0.88985967E+02</rscale>
<asrwt>0</asrwt>
<pdfrwt beam="1">  1       21 0.88897858E-02 0.88985967E+02</pdfrwt>
<pdfrwt beam="2">  1       -3 0.14639658E-01 0.88985967E+02</pdfrwt>
<totfact> 0.17262923E+05</totfact>
</mgrwt>
</event>
<event>
 6    2  0.7993170E+000  0.8854700E+02  0.7546771E-02  0.1306409E+00
         -1   -1    0    0    0  501 -0.00000000000E+00  0.00000000000E+00  0.24217479951E+03  0.24217479951E+03  0.00000000000E+00 0.  1.
         21   -1    0    0  501  502  0.00000000000E+00 -0.00000000000E+00 -0.19233185114E+02  0.19233185114E+02  0.00000000000E+00 0.  1.
         24    2    1    2    0    0 -0.23155157592E+02 -0.28525414229E+02  0.19829354652E+03  0.21716560867E+03  0.80564945344E+02 0.  0.
        -11    1    3    3    0    0 -0.24501951087E+02 -0.54275420371E+02  0.10879067350E+03  0.12402248790E+03  0.00000000000E+00 0.  1.
         12    1    3    3    0    0  0.13467934947E+01  0.25750006142E+02  0.89502873011E+02  0.93143120767E+02  0.00000000000E+00 0. -1.
         -2    1    1    2    0  502  0.23155157592E+02  0.28525414229E+02  0.24648067883E+02  0.44242375958E+02  0.00000000000E+00 0.  1.
<mgrwt>
<rscale>  1 0.88546999E+02</rscale>
<asrwt>0</asrwt>
<pdfrwt beam="1">  1       21 0.29589517E-02 0.88546999E+02</pdfrwt>
<pdfrwt beam="2">  1       -1 0.37257659E-01 0.88546999E+02</pdfrwt>
<totfact> 0.39047943E+05</totfact>
</mgrwt>
</event>
<event>
 6    2  0.7993170E+000  0.1720998E+03  0.7546771E-02  0.1175676E+00
         21   -1    0    0  501  502  0.00000000000E+00  0.00000000000E+00  0.71615097482E+02  0.71615097482E+02  0.00000000000E+00 0. -1.
          2   -1    0    0  502    0 -0.00000000000E+00 -0.00000000000E+00 -0.36750265209E+03  0.36750265209E+03  0.00000000000E+00 0. -1.
         24    2    1    2    0    0 -0.15201409407E+03  0.36989876147E+01 -0.14761887354E+03  0.22673703225E+03  0.80600140570E+02 0.  0.
        -11    1    3    3    0    0 -0.89190053527E+02 -0.34459067292E+02 -0.62296168137E+02  0.11411882199E+03  0.00000000000E+00 0.  1.
         12    1    3    3    0    0 -0.62824040546E+02  0.38158054907E+02 -0.85322705404E+02  0.11261821026E+03  0.00000000000E+00 0. -1.
          1    1    1    2  501    0  0.15201409407E+03 -0.36989876147E+01 -0.14826868106E+03  0.21238071732E+03  0.00000000000E+00 0. -1.
<mgrwt>
<rscale>  1 0.17209983E+03</rscale>
<asrwt>0</asrwt>
<pdfrwt beam="1">  1       21 0.11017707E-01 0.17209983E+03</pdfrwt>
<pdfrwt beam="2">  1        2 0.56538871E-01 0.17209983E+03</pdfrwt>
<totfact> 0.74459431E+04</totfact>
</mgrwt>
</event>
<event>
 6    2  0.7993170E+000  0.8818996E+02  0.7546771E-02  0.1307295E+00
         21   -1    0    0  501  502  0.00000000000E+00  0.00000000000E+00  0.26623429106E+01  0.26623429106E+01  0.00000000000E+00 0. -1.
          2   -1    0    0  502    0 -0.00000000000E+00 -0.00000000000E+00 -0.16950417398E+04  0.16950417398E+04  0.00000000000E+00 0. -1.
         24    2    1    2    0    0  0.31315988460E+02  0.22472960782E+02 -0.87927678018E+03  0.88368836394E+03  0.79320510000E+02 0.  0.
        -13    1    3    3    0    0  0.29917652274E+02 -0.25686659257E+02 -0.34605067329E+03  0.34829002120E+03  0.00000000000E+00 0.  1.
         14    1    3    3    0    0  0.13983361864E+01  0.48159620039E+02 -0.53322610689E+03  0.53539834274E+03  0.00000000000E+00 0. -1.
          1    1    1    2  501    0 -0.31315988460E+02 -0.22472960782E+02 -0.81310261668E+03  0.81401571874E+03  0.00000000000E+00 0. -1.
<mgrwt>
<rscale>  1 0.88189956E+02</rscale>
<asrwt>0</asrwt>
<pdfrwt beam="1">  1       21 0.40959087E-03 0.88189956E+02</pdfrwt>
<pdfrwt beam="2">  1        2 0.26077587E+00 0.88189956E+02</pdfrwt>
<totfact> 0.20164570E+06</totfact>
</mgrwt>
</event>
<event>
 6    2  0.7993170E+000  0.1179779E+03  0.7546771E-02  0.1246471E+00
         21   -1    0    0  501  502  0.00000000000E+00  0.00000000000E+00  0.18632921169E+03  0.18632921169E+03  0.00000000000E+00 0.  1.
          2   -1    0    0  502    0 -0.00000000000E+00 -0.00000000000E+00 -0.10425201378E+03  0.10425201378E+03  0.00000000000E+00 0. -1.
         24    2    1    2    0    0 -0.79407779056E+02 -0.20535109391E+02  0.14519693130E+03  0.18708539543E+03  0.84802772539E+02 0.  0.
        -13    1    3    3    0    0 -0.97149816267E+02 -0.17191644239E+02  0.13164119250E+03  0.16450848913E+03  0.00000000000E+00 0.  1.
         14    1    3    3    0    0  0.17742037211E+02 -0.33434651517E+01  0.13555738808E+02  0.22576906303E+02  0.00000000000E+00 0. -1.
          1    1    1    2  501    0  0.79407779056E+02  0.20535109391E+02 -0.63119733391E+02  0.10349583004E+03  0.00000000000E+00 0. -1.
<mgrwt>
<rscale>  1 0.11797795E+03</rscale>
<asrwt>0</asrwt>
<pdfrwt beam="1">  1       21 0.28666032E-01 0.11797795E+03</pdfrwt>
<pdfrwt beam="2">  1        2 0.16038771E-01 0.11797795E+03</pdfrwt>
<totfact> 0.50707909E+04</totfact>
</mgrwt>
</event>
<event>
 6    2  0.7993170E+000  0.8137904E+02  0.7546771E-02  0.1325183E+00
          2   -1    0    0  502    0 -0.00000000000E+00  0.00000000000E+00  0.27148159843E+03  0.27148159843E+03  0.00000000000E+00 0. -1.
         21   -1    0    0  501  502  0.00000000000E+00 -0.00000000000E+00 -0.10616088315E+02  0.10616088315E+02  0.00000000000E+00 0. -1.
         24    2    1    2    0    0 -0.19489411407E+02  0.11109508165E+02  0.22976258244E+03  0.24374862628E+03  0.78225892097E+02 0.  0.
        -11    1    3    3    0    0 -0.22329191373E+02  0.36798020546E+02  0.72014743780E+02  0.83897618710E+02  0.00000000000E+00 0.  1.
         12    1    3    3    0    0  0.28397799660E+01 -0.25688512381E+02  0.15774783866E+03  0.15985100757E+03  0.00000000000E+00 0. -1.
          1    1    1    2  501    0  0.19489411407E+02 -0.11109508165E+02  0.31102927674E+02  0.38349060465E+02  0.00000000000E+00 0. -1.
<mgrwt>
<rscale>  1 0.81379042E+02</rscale>
<asrwt>0</asrwt>
<pdfrwt beam="1">  1       21 0.16332446E-02 0.81379042E+02</pdfrwt>
<pdfrwt beam="2">  1        2 0.41766394E-01 0.81379042E+02</pdfrwt>
<totfact> 0.23459310E+06</totfact>
</mgrwt>
</event>
<event>
 6    2  0.7993170E+000  0.8633844E+02  0.7546771E-02  0.1311969E+00
         21   -1    0    0  501  502  0.00000000000E+00  0.00000000000E+00  0.22230170685E+02  0.22230170685E+02  0.00000000000E+00 0.  1.
         -1   -1    0    0    0  501 -0.00000000000E+00 -0.00000000000E+00 -0.14936013903E+03  0.14936013903E+03  0.00000000000E+00 0.  1.
         24    2    1    2    0    0 -0.21920954870E+02 -0.12503787956E+02 -0.77983968164E+02  0.11634356946E+03  0.82567874427E+02 0.  0.
        -13    1    3    3    0    0 -0.23818049816E+02 -0.34281095863E+02 -0.83888451544E+02  0.93700401989E+02  0.00000000000E+00 0.  1.
         14    1    3    3    0    0  0.18970949460E+01  0.21777307907E+02  0.59044833795E+01  0.22643167466E+02  0.00000000000E+00 0. -1.
         -2    1    1    2    0  502  0.21920954870E+02  0.12503787956E+02 -0.49146000179E+02  0.55246740259E+02  0.00000000000E+00 0.  1.
<mgrwt>
<rscale>  1 0.86338444E+02</rscale>
<asrwt>0</asrwt>
<pdfrwt beam="1">  1       21 0.34200263E-02 0.86338444E+02</pdfrwt>
<pdfrwt beam="2">  1       -1 0.22978483E-01 0.86338444E+02</pdfrwt>
<totfact> 0.68498968E+05</totfact>
</mgrwt>
</event>
<event>
 6    2  0.7993170E+000  0.1096015E+03  0.7546771E-02  0.1261310E+00
         -1   -1    0    0    0  501 -0.00000000000E+00  0.00000000000E+00  0.22680730638E+02  0.22680730638E+02  0.00000000000E+00 0.  1.
         21   -1    0    0  501  502  0.00000000000E+00 -0.00000000000E+00 -0.38042700569E+03  0.38042700569E+03  0.00000000000E+00 0. -1.
         24    2    1    2    0    0  0.72875938730E+02 -0.21264359426E+02 -0.22177672732E+03  0.24738107407E+03  0.79053169449E+02 0.  0.
        -11    1    3    3    0    0  0.19088004934E+02 -0.38206277086E+02 -0.45955285433E+02  0.62737228185E+02  0.00000000000E+00 0.  1.
         12    1    3    3    0    0  0.53787933796E+02  0.16941917660E+02 -0.17582144189E+03  0.18464384588E+03  0.00000000000E+00 0. -1.
         -2    1    1    2    0  502 -0.72875938730E+02  0.21264359426E+02 -0.13596954774E+03  0.15572666226E+03  0.00000000000E+00 0.  1.
<mgrwt>
<rscale>  1 0.10960146E+03</rscale>
<asrwt>0</asrwt>
<pdfrwt beam="1">  1       21 0.58527228E-01 0.10960146E+03</pdfrwt>
<pdfrwt beam="2">  1       -1 0.34893434E-02 0.10960146E+03</pdfrwt>
<totfact> 0.71059739E+04</totfact>
</mgrwt>
</event>
<event>
 6    2  0.7993170E+000  0.8948148E+02  0.7546771E-02  0.1304112E+00
         21   -1    0    0  501  502  0.00000000000E+00  0.00000000000E+00  0.44445029978E+03  0.44445029978E+03  0.00000000000E+00 0.  1.
         -1   -1    0    0    0  501 -0.00000000000E+00 -0.00000000000E+00 -0.18820277849E+02  0.18820277849E+02  0.00000000000E+00 0.  1.
         24    2    1    2    0    0 -0.22748930637E+02 -0.30319395649E+02  0.95119096875E+02  0.13059317957E+03  0.81056501049E+02 0.  0.
        -11    1    3    3    0    0 -0.70914881260E+01 -0.36071337345E+02  0.28982056162E+01  0.36875875278E+02  0.00000000000E+00 0.  1.
         12    1    3    3    0    0 -0.15657442511E+02  0.57519416963E+01  0.92220891259E+02  0.93717304293E+02  0.00000000000E+00 0. -1.
         -2    1    1    2    0  502  0.22748930637E+02  0.30319395649E+02  0.33051092506E+03  0.33267739806E+03  0.00000000000E+00 0.  1.
<mgrwt>
<rscale>  1 0.89481484E+02</rscale>
<asrwt>0</asrwt>
<pdfrwt beam="1">  1       21 0.68376961E-01 0.89481484E+02</pdfrwt>
<pdfrwt beam="2">  1       -1 0.28954277E-02 0.89481484E+02</pdfrwt>
<totfact> 0.66234292E+04</totfact>
</mgrwt>
</event>
<event>
 6    2  0.7993170E+000  0.8424936E+02  0.7546771E-02  0.1317407E+00
         21   -1    0    0  501  502  0.00000000000E+00  0.00000000000E+00  0.49424223630E+02  0.49424223630E+02  0.00000000000E+00 0.  1.
          4   -1    0    0  502    0 -0.00000000000E+00 -0.00000000000E+00 -0.62548895142E+02  0.62548895142E+02  0.00000000000E+00 0. -1.
         24    2    1    2    0    0  0.13542869962E+02  0.21745178610E+02 -0.26335055077E+01  0.84290512614E+02  0.80260158521E+02 0.  0.
        -11    1    3    3    0    0 -0.13772684214E+02  0.41678692127E+02  0.14700009579E+02  0.46291365172E+02  0.00000000000E+00 0.  1.
         12    1    3    3    0    0  0.27315554177E+02 -0.19933513516E+02 -0.17333515086E+02  0.37999147442E+02  0.00000000000E+00 0. -1.
          3    1    1    2  501    0 -0.13542869962E+02 -0.21745178610E+02 -0.10491166004E+02  0.27682606159E+02  0.00000000000E+00 0. -1.
<mgrwt>
<rscale>  1 0.84249363E+02</rscale>
<asrwt>0</asrwt>
<pdfrwt beam="1">  1       21 0.76037267E-02 0.84249363E+02</pdfrwt>
<pdfrwt beam="2">  1        4 0.96229069E-02 0.84249363E+02</pdfrwt>
<totfact> 0.38705880E+05</totfact>
</mgrwt>
</event>
<event>
 6    2  0.7993170E+000  0.8649703E+02  0.7546771E-02  0.1311563E+00
         21   -1    0    0  501  502  0.00000000000E+00  0.00000000000E+00  0.70714232480E+02  0.70714232480E+02  0.00000000000E+00 0.  1.
          4   -1    0    0  502    0 -0.00000000000E+00 -0.00000000000E+00 -0.55050978146E+02  0.55050978146E+02  0.00000000000E+00 0. -1.
         24    2    1    2    0    0 -0.29501723752E+02 -0.19783977342E+02 -0.10616108300E+01  0.86503542569E+02  0.78866839645E+02 0.  0.
        -13    1    3    3    0    0 -0.52132984091E+02 -0.30732729676E+02 -0.62300746721E+01  0.60837180523E+02  0.00000000000E+00 0.  1.
         14    1    3    3    0    0  0.22631260339E+02  0.10948752334E+02  0.51684638421E+01  0.25666362046E+02  0.00000000000E+00 0. -1.
          3    1    1    2  501    0  0.29501723752E+02  0.19783977342E+02  0.16724865164E+02  0.39261668056E+02  0.00000000000E+00 0. -1.
<mgrwt>
<rscale>  1 0.86497028E+02</rscale>
<asrwt>0</asrwt>
<pdfrwt beam="1">  1       21 0.10879113E-01 0.86497028E+02</pdfrwt>
<pdfrwt beam="2">  1        4 0.84693812E-02 0.86497028E+02</pdfrwt>
<totfact> 0.25959430E+05</totfact>
</mgrwt>
</event>
<event>
 6    2  0.7993170E+000  0.8396553E+02  0.7546771E-02  0.1318160E+00
         21   -1    0    0  501  502  0.00000000000E+00  0.00000000000E+00  0.86365147339E+02  0.86365147339E+02  0.00000000000E+00 0.  1.
          2   -1    0    0  502    0 -0.00000000000E+00 -0.00000000000E+00 -0.35884913498E+02  0.35884913498E+02  0.00000000000E+00 0. -1.
         24    2    1    2    0    0  0.15208873423E+02 -0.14067643548E+02  0.55855616332E+02  0.10084671618E+03  0.81369538906E+02 0.  0.
        -11    1    3    3    0    0  0.43795228247E+01 -0.22921955847E+02  0.74196687304E+02  0.77780104698E+02  0.00000000000E+00 0.  1.
         12    1    3    3    0    0  0.10829350598E+02  0.88543122988E+01 -0.18341070972E+02  0.23066611477E+02  0.00000000000E+00 0. -1.
          1    1    1    2  501    0 -0.15208873423E+02  0.14067643548E+02 -0.53753824911E+01  0.21403344662E+02  0.00000000000E+00 0. -1.
<mgrwt>
<rscale>  1 0.83965530E+02</rscale>
<asrwt>0</asrwt>
<pdfrwt beam="1">  1       21 0.13286946E-01 0.83965530E+02</pdfrwt>
<pdfrwt beam="2">  1        2 0.55207559E-02 0.83965530E+02</pdfrwt>
<totfact> 0.74716799E+05</totfact>
</mgrwt>
</event>
<event>
 6    2  0.7993170E+000  0.1098474E+03  0.7546771E-02  0.1260853E+00
          4   -1    0    0  502    0 -0.00000000000E+00  0.00000000000E+00  0.12687462726E+03  0.12687462726E+03  0.00000000000E+00 0. -1.
         21   -1    0    0  501  502  0.00000000000E+00 -0.00000000000E+00 -0.56997847621E+02  0.56997847621E+02  0.00000000000E+00 0. -1.
         24    2    1    2    0    0 -0.55171011734E+01  0.56911838743E+02  0.29079163077E+02  0.11363116715E+03  0.93792583014E+02 0.  0.
        -13    1    3    3    0    0  0.24578846204E+01  0.25723186189E+02 -0.34063544732E+02  0.42755684818E+02  0.00000000000E+00 0.  1.
         14    1    3    3    0    0 -0.79749857938E+01  0.31188652554E+02  0.63142707809E+02  0.70875482334E+02  0.00000000000E+00 0. -1.
          3    1    1    2  501    0  0.55171011734E+01 -0.56911838743E+02  0.40797616566E+02  0.70241307732E+02  0.00000000000E+00 0. -1.
<mgrwt>
<rscale>  1 0.10984737E+03</rscale>
<asrwt>0</asrwt>
<pdfrwt beam="1">  1       21 0.87688997E-02 0.10984737E+03</pdfrwt>
<pdfrwt beam="2">  1        4 0.19519173E-01 0.10984737E+03</pdfrwt>
<totfact> 0.94160509E+04</totfact>
</mgrwt>
</event>
<event>
 6    2  0.8817074E+000  0.9024219E+02  0.7546771E-02  0.1302266E+00
          2   -1    0    0  502    0 -0.00000000000E+00  0.00000000000E+00  0.55832029201E+03  0.55832029201E+03  0.00000000000E+00 0. -1.
         21   -1    0    0  501  502  0.00000000000E+00 -0.00000000000E+00 -0.17223293830E+02  0.17223293830E+02  0.00000000000E+00 0.  1.
         24    2    1    2    0    0  0.35892440454E+02  0.15885225939E+02  0.10829825145E+03  0.14096866381E+03  0.81259123949E+02 0.  0.
        -13    1    3    3    0    0  0.48971086036E+02  0.27620811320E+01  0.23902282775E+02  0.54562949715E+02  0.00000000000E+00 0.  1.
         14    1    3    3    0    0 -0.13078645583E+02  0.13123144807E+02  0.84395968678E+02  0.86405714100E+02  0.00000000000E+00 0. -1.
          1    1    1    2  501    0 -0.35892440454E+02 -0.15885225939E+02  0.43279874673E+03  0.43457492203E+03  0.00000000000E+00 0. -1.
<mgrwt>
<rscale>  1 0.90242190E+02</rscale>
<asrwt>0</asrwt>
<pdfrwt beam="1">  1       21 0.26497379E-02 0.90242190E+02</pdfrwt>
<pdfrwt beam="2">  1        2 0.85895416E-01 0.90242190E+02</pdfrwt>
<totfact> 0.51027576E+05</totfact>
</mgrwt>
</event>
<event>
 6    2  0.7993170E+000  0.1261336E+03  0.7546771E-02  0.1233308E+00
         21   -1    0    0  501  502  0.00000000000E+00  0.00000000000E+00  0.12779663732E+02  0.12779663732E+02  0.00000000000E+00 0. -1.
          2   -1    0    0  502    0 -0.00000000000E+00 -0.00000000000E+00 -0.99310824345E+03  0.99310824345E+03  0.00000000000E+00 0. -1.
         24    2    1    2    0    0  0.59733100557E+02 -0.78342090611E+02 -0.51178494364E+03  0.52709915901E+03  0.78766543869E+02 0.  0.
        -13    1    3    3    0    0 -0.18397186184E+02 -0.26894058954E+02 -0.13124616700E+03  0.13523055579E+03  0.00000000000E+00 0.  1.
         14    1    3    3    0    0  0.78130286741E+02 -0.51448031657E+02 -0.38053877664E+03  0.39186860322E+03  0.00000000000E+00 0. -1.
          1    1    1    2  501    0 -0.59733100557E+02  0.78342090611E+02 -0.46854363608E+03  0.47878874817E+03  0.00000000000E+00 0. -1.
<mgrwt>
<rscale>  1 0.12613364E+03</rscale>
<asrwt>0</asrwt>
<pdfrwt beam="1">  1       21 0.19661011E-02 0.12613364E+03</pdfrwt>
<pdfrwt beam="2">  1        2 0.15278596E+00 0.12613364E+03</pdfrwt>
<totfact> 0.41998310E+05</totfact>
</mgrwt>
</event>
<event>
 6    2  0.7993170E+000  0.8493695E+02  0.7546771E-02  0.1315597E+00
          2   -1    0    0  502    0 -0.00000000000E+00  0.00000000000E+00  0.32788449919E+03  0.32788449919E+03  0.00000000000E+00 0. -1.
         21   -1    0    0  501  502  0.00000000000E+00 -0.00000000000E+00 -0.99839734257E+01  0.99839734257E+01  0.00000000000E+00 0. -1.
         24    2    1    2    0    0  0.19681066356E+02 -0.21436940535E+02  0.22404296980E+03  0.23960287536E+03  0.79795982178E+02 0.  0.
        -13    1    3    3    0    0  0.91654143925E+01  0.30115368259E+02  0.10074014296E+03  0.10554390854E+03  0.00000000000E+00 0.  1.
         14    1    3    3    0    0  0.10515651963E+02 -0.51552308793E+02  0.12330282684E+03  0.13405896682E+03  0.00000000000E+00 0. -1.
          1    1    1    2  501    0 -0.19681066356E+02  0.21436940535E+02  0.93857555971E+02  0.98265597262E+02  0.00000000000E+00 0. -1.
<mgrwt>
<rscale>  1 0.84936951E+02</rscale>
<asrwt>0</asrwt>
<pdfrwt beam="1">  1       21 0.15359962E-02 0.84936951E+02</pdfrwt>
<pdfrwt beam="2">  1        2 0.50443761E-01 0.84936951E+02</pdfrwt>
<totfact> 0.21354698E+06</totfact>
</mgrwt>
</event>
<event>
 6    2  0.7993170E+000  0.7370722E+02  0.7546771E-02  0.1347922E+00
         21   -1    0    0  501  502  0.00000000000E+00  0.00000000000E+00  0.73277866609E+03  0.73277866609E+03  0.00000000000E+00 0. -1.
         -3   -1    0    0    0  501 -0.00000000000E+00 -0.00000000000E+00 -0.42045300787E+01  0.42045300787E+01  0.00000000000E+00 0.  1.
         24    2    1    2    0    0 -0.32369444694E+02 -0.10740752381E+02  0.40842055196E+03  0.41501819482E+03  0.65342253238E+02 0.  0.
        -13    1    3    3    0    0 -0.24818934551E+02  0.75028083959E+01  0.52531069669E+02  0.58581438414E+02  0.00000000000E+00 0.  1.
         14    1    3    3    0    0 -0.75505101438E+01 -0.18243560777E+02  0.35588948229E+03  0.35643675641E+03  0.00000000000E+00 0. -1.
         -4    1    1    2    0  502  0.32369444694E+02  0.10740752381E+02  0.32015358405E+03  0.32196500135E+03  0.00000000000E+00 0.  1.
<mgrwt>
<rscale>  1 0.73707223E+02</rscale>
<asrwt>0</asrwt>
<pdfrwt beam="1">  1       21 0.11273508E+00 0.73707223E+02</pdfrwt>
<pdfrwt beam="2">  1       -3 0.64685137E-03 0.73707223E+02</pdfrwt>
<totfact> 0.14444445E+05</totfact>
</mgrwt>
</event>
<event>
 6    2  0.7993170E+000  0.1125782E+03  0.7546771E-02  0.1255869E+00
         21   -1    0    0  501  502  0.00000000000E+00  0.00000000000E+00  0.10513204482E+03  0.10513204482E+03  0.00000000000E+00 0.  1.
         -1   -1    0    0    0  501 -0.00000000000E+00 -0.00000000000E+00 -0.15011480831E+03  0.15011480831E+03  0.00000000000E+00 0.  1.
         24    2    1    2    0    0 -0.45900530728E+02 -0.61791460541E+02 -0.10781977169E+03  0.15588120052E+03  0.82151093668E+02 0.  0.
        -11    1    3    3    0    0 -0.32640993513E+02 -0.81704018652E+02 -0.77410227854E+02  0.11718926784E+03  0.00000000000E+00 0.  1.
         12    1    3    3    0    0 -0.13259537216E+02  0.19912558111E+02 -0.30409543840E+02  0.38691932677E+02  0.00000000000E+00 0. -1.
         -2    1    1    2    0  502  0.45900530728E+02  0.61791460541E+02  0.62837008204E+02  0.99365652601E+02  0.00000000000E+00 0.  1.
<mgrwt>
<rscale>  1 0.11257818E+03</rscale>
<asrwt>0</asrwt>
<pdfrwt beam="1">  1       21 0.16174161E-01 0.11257818E+03</pdfrwt>
<pdfrwt beam="2">  1       -1 0.23094586E-01 0.11257818E+03</pdfrwt>
<totfact> 0.48676162E+04</totfact>
</mgrwt>
</event>
<event>
 6    2  0.7993170E+000  0.8631200E+02  0.7546771E-02  0.1312037E+00
         21   -1    0    0  501  502  0.00000000000E+00  0.00000000000E+00  0.53132438894E+02  0.53132438894E+02  0.00000000000E+00 0.  1.
          2   -1    0    0  502    0 -0.00000000000E+00 -0.00000000000E+00 -0.85289641451E+02  0.85289641451E+02  0.00000000000E+00 0. -1.
         24    2    1    2    0    0  0.18659757307E+02  0.82505265761E+01 -0.59114167279E+02  0.10461474862E+03  0.83865983113E+02 0.  0.
        -11    1    3    3    0    0  0.49054219251E+02  0.87179809006E+01 -0.54545806660E+02  0.73875331752E+02  0.00000000000E+00 0.  1.
         12    1    3    3    0    0 -0.30394461944E+02 -0.46745432453E+00 -0.45683606186E+01  0.30739416864E+02  0.00000000000E+00 0. -1.
          1    1    1    2  501    0 -0.18659757307E+02 -0.82505265761E+01  0.26956964722E+02  0.33807331728E+02  0.00000000000E+00 0. -1.
<mgrwt>
<rscale>  1 0.86311997E+02</rscale>
<asrwt>0</asrwt>
<pdfrwt beam="1">  1       21 0.81742215E-02 0.86311997E+02</pdfrwt>
<pdfrwt beam="2">  1        2 0.13121483E-01 0.86311997E+02</pdfrwt>
<totfact> 0.60116295E+05</totfact>
</mgrwt>
</event>
<event>
 6    2  0.7993170E+000  0.9649450E+02  0.7546771E-02  0.1287845E+00
         21   -1    0    0  501  502  0.00000000000E+00  0.00000000000E+00  0.31183578728E+01  0.31183578728E+01  0.00000000000E+00 0. -1.
          2   -1    0    0  502    0 -0.00000000000E+00 -0.00000000000E+00 -0.26423070025E+04  0.26423070025E+04  0.00000000000E+00 0. -1.
         24    2    1    2    0    0  0.18734869846E+02  0.53194202796E+02 -0.22606625034E+04  0.22627209599E+04  0.78297953188E+02 0.  0.
        -13    1    3    3    0    0  0.37678208410E+02  0.22098152275E+01 -0.61288645357E+03  0.61404750276E+03  0.00000000000E+00 0.  1.
         14    1    3    3    0    0 -0.18943338565E+02  0.50984387568E+02 -0.16477760498E+04  0.16486734571E+04  0.00000000000E+00 0. -1.
          1    1    1    2  501    0 -0.18734869846E+02 -0.53194202796E+02 -0.37852614126E+03  0.38270440052E+03  0.00000000000E+00 0. -1.
<mgrwt>
<rscale>  1 0.96494497E+02</rscale>
<asrwt>0</asrwt>
<pdfrwt beam="1">  1       21 0.47974723E-03 0.96494497E+02</pdfrwt>
<pdfrwt beam="2">  1        2 0.40650888E+00 0.96494497E+02</pdfrwt>
<totfact> 0.52083342E+05</totfact>
</mgrwt>
</event>
<event>
 6    2  0.7993170E+000  0.9241437E+02  0.7546771E-02  0.1297108E+00
          2   -1    0    0  502    0 -0.00000000000E+00  0.00000000000E+00  0.39735740803E+03  0.39735740803E+03  0.00000000000E+00 0. -1.
         21   -1    0    0  501  502  0.00000000000E+00 -0.00000000000E+00 -0.29529786754E+02  0.29529786754E+02  0.00000000000E+00 0. -1.
         24    2    1    2    0    0  0.67844030196E+01 -0.45971783116E+02  0.36900634570E+03  0.38040254830E+03  0.79881052968E+02 0.  0.
        -13    1    3    3    0    0 -0.47243595328E+01 -0.64156090909E+01 -0.10712088534E+01  0.80390982958E+01  0.00000000000E+00 0.  1.
         14    1    3    3    0    0  0.11508762552E+02 -0.39556174025E+02  0.37007755455E+03  0.37236345001E+03  0.00000000000E+00 0. -1.
          1    1    1    2  501    0 -0.67844030196E+01  0.45971783116E+02 -0.11787244212E+01  0.46484646481E+02  0.00000000000E+00 0. -1.
<mgrwt>
<rscale>  1 0.92414369E+02</rscale>
<asrwt>0</asrwt>
<pdfrwt beam="1">  1       21 0.45430444E-02 0.92414369E+02</pdfrwt>
<pdfrwt beam="2">  1        2 0.61131905E-01 0.92414369E+02</pdfrwt>
<totfact> 0.30471239E+05</totfact>
</mgrwt>
</event>
<event>
 6    2  0.7993170E+000  0.8900235E+02  0.7546771E-02  0.1305286E+00
         21   -1    0    0  501  502  0.00000000000E+00  0.00000000000E+00  0.19073124426E+02  0.19073124426E+02  0.00000000000E+00 0.  1.
          2   -1    0    0  502    0 -0.00000000000E+00 -0.00000000000E+00 -0.21114698694E+03  0.21114698694E+03  0.00000000000E+00 0. -1.
         24    2    1    2    0    0 -0.34662835033E+01  0.35611646791E+02 -0.15473298245E+03  0.17850409999E+03  0.81493639918E+02 0.  0.
        -11    1    3    3    0    0 -0.10718531159E+02  0.13701582864E+02  0.42068176649E+01  0.17897418753E+02  0.00000000000E+00 0.  1.
         12    1    3    3    0    0  0.72522476553E+01  0.21910063927E+02 -0.15893980012E+03  0.16060668124E+03  0.00000000000E+00 0. -1.
          1    1    1    2  501    0  0.34662835033E+01 -0.35611646791E+02 -0.37340880060E+02  0.51716011371E+02  0.00000000000E+00 0. -1.
<mgrwt>
<rscale>  1 0.89002347E+02</rscale>
<asrwt>0</asrwt>
<pdfrwt beam="1">  1       21 0.29343268E-02 0.89002347E+02</pdfrwt>
<pdfrwt beam="2">  1        2 0.32484152E-01 0.89002347E+02</pdfrwt>
<totfact> 0.12076578E+06</totfact>
</mgrwt>
</event>
<event>
 6    2  0.7993170E+000  0.8572944E+02  0.7546771E-02  0.1313536E+00
         21   -1    0    0  501  502  0.00000000000E+00  0.00000000000E+00  0.40977867398E+02  0.40977867398E+02  0.00000000000E+00 0. -1.
          2   -1    0    0  502    0 -0.00000000000E+00 -0.00000000000E+00 -0.13726375829E+03  0.13726375829E+03  0.00000000000E+00 0. -1.
         24    2    1    2    0    0 -0.19582123540E+02 -0.22158244212E+02 -0.11485626922E+03  0.14332305898E+03  0.80467939627E+02 0.  0.
        -11    1    3    3    0    0  0.11081074049E+02 -0.40560713350E+01  0.87499023552E+01  0.14690224912E+02  0.00000000000E+00 0.  1.
         12    1    3    3    0    0 -0.30663197588E+02 -0.18102172877E+02 -0.12360617158E+03  0.12863283407E+03  0.00000000000E+00 0. -1.
          1    1    1    2  501    0  0.19582123540E+02  0.22158244212E+02  0.18570378335E+02  0.34918566700E+02  0.00000000000E+00 0. -1.
<mgrwt>
<rscale>  1 0.85729439E+02</rscale>
<asrwt>0</asrwt>
<pdfrwt beam="1">  1       21 0.63042874E-02 0.85729439E+02</pdfrwt>
<pdfrwt beam="2">  1        2 0.21117501E-01 0.85729439E+02</pdfrwt>
<totfact> 0.54241626E+05</totfact>
</mgrwt>
</event>
<event>
 6    2  0.7993170E+000  0.9403129E+02  0.7546771E-02  0.1293373E+00
         21   -1    0    0  501  502  0.00000000000E+00  0.00000000000E+00  0.23609610040E+02  0.23609610040E+02  0.00000000000E+00 0.  1.
          2   -1    0    0  502    0 -0.00000000000E+00 -0.00000000000E+00 -0.22209189134E+03  0.22209189134E+03  0.00000000000E+00 0. -1.
         24    2    1    2    0    0 -0.45195120795E+02 -0.21250344846E+02 -0.11660860202E+03  0.14979803190E+03  0.79672505896E+02 0.  0.
        -11    1    3    3    0    0 -0.58529713694E+02 -0.20005915082E+02 -0.43858947405E+02  0.75825927564E+02  0.00000000000E+00 0.  1.
         12    1    3    3    0    0  0.13334592899E+02 -0.12444297638E+01 -0.72749654612E+02  0.73972104332E+02  0.00000000000E+00 0. -1.
          1    1    1    2  501    0  0.45195120795E+02  0.21250344846E+02 -0.81873679287E+02  0.95903469487E+02  0.00000000000E+00 0. -1.
<mgrwt>
<rscale>  1 0.94031294E+02</rscale>
<asrwt>0</asrwt>
<pdfrwt beam="1">  1       21 0.36322477E-02 0.94031294E+02</pdfrwt>
<pdfrwt beam="2">  1        2 0.34167983E-01 0.94031294E+02</pdfrwt>
<totfact> 0.81266451E+05</totfact>
</mgrwt>
</event>
<event>
 6    2  0.7993170E+000  0.9703819E+02  0.7546771E-02  0.1286650E+00
         21   -1    0    0  501  502  0.00000000000E+00  0.00000000000E+00  0.18085813962E+03  0.18085813962E+03  0.00000000000E+00 0.  1.
         -1   -1    0    0    0  501 -0.00000000000E+00 -0.00000000000E+00 -0.83682609461E+02  0.83682609461E+02  0.00000000000E+00 0.  1.
         24    2    1    2    0    0  0.51392822464E+02 -0.24108435903E+02 -0.48291115148E+02  0.10839023266E+03  0.78701790645E+02 0.  0.
        -11    1    3    3    0    0  0.18214592570E+02 -0.29345058242E+02 -0.62902473173E+02  0.71760887376E+02  0.00000000000E+00 0.  1.
         12    1    3    3    0    0  0.33178229894E+02  0.52366223384E+01  0.14611358025E+02  0.36629345281E+02  0.00000000000E+00 0. -1.
         -2    1    1    2    0  502 -0.51392822464E+02  0.24108435903E+02  0.14546664531E+03  0.15615051643E+03  0.00000000000E+00 0.  1.
<mgrwt>
<rscale>  1 0.97038192E+02</rscale>
<asrwt>0</asrwt>
<pdfrwt beam="1">  1       21 0.27824329E-01 0.97038192E+02</pdfrwt>
<pdfrwt beam="2">  1       -1 0.12874248E-01 0.97038192E+02</pdfrwt>
<totfact> 0.44555745E+04</totfact>
</mgrwt>
</event>
<event>
 6    2  0.7993170E+000  0.8695986E+02  0.7546771E-02  0.1310385E+00
         21   -1    0    0  501  502  0.00000000000E+00  0.00000000000E+00  0.11449645694E+03  0.11449645694E+03  0.00000000000E+00 0. -1.
          2   -1    0    0  502    0 -0.00000000000E+00 -0.00000000000E+00 -0.33935933568E+02  0.33935933568E+02  0.00000000000E+00 0. -1.
         24    2    1    2    0    0  0.30437500808E+02  0.19612634016E+02  0.66962300033E+02  0.10975412082E+03  0.79062763310E+02 0.  0.
        -11    1    3    3    0    0 -0.20940307525E+02 -0.13332872918E+02  0.27633746522E+02  0.37146815831E+02  0.00000000000E+00 0.  1.
         12    1    3    3    0    0  0.51377808334E+02  0.32945506933E+02  0.39328553511E+02  0.72607304987E+02  0.00000000000E+00 0. -1.
          1    1    1    2  501    0 -0.30437500808E+02 -0.19612634016E+02  0.13598223343E+02  0.38678269695E+02  0.00000000000E+00 0. -1.
<mgrwt>
<rscale>  1 0.86959861E+02</rscale>
<asrwt>0</asrwt>
<pdfrwt beam="1">  1       21 0.17614839E-01 0.86959861E+02</pdfrwt>
<pdfrwt beam="2">  1        2 0.52209129E-02 0.86959861E+02</pdfrwt>
<totfact> 0.48689998E+05</totfact>
</mgrwt>
</event>
<event>
 6    2  0.7993170E+000  0.8010086E+02  0.7546771E-02  0.1328765E+00
          2   -1    0    0  502    0 -0.00000000000E+00  0.00000000000E+00  0.59499094172E+03  0.59499094172E+03  0.00000000000E+00 0. -1.
         21   -1    0    0  501  502  0.00000000000E+00 -0.00000000000E+00 -0.42159664428E+01  0.42159664428E+01  0.00000000000E+00 0.  1.
         24    2    1    2    0    0  0.18819679881E+02 -0.69672082802E+01  0.47299314757E+03  0.47972769960E+03  0.77546281458E+02 0.  0.
        -11    1    3    3    0    0  0.32241385623E+01 -0.73280489992E+01  0.17101248578E+01  0.81865681841E+01  0.00000000000E+00 0.  1.
         12    1    3    3    0    0  0.15595541319E+02  0.36084071901E+00  0.47128302272E+03  0.47154113142E+03  0.00000000000E+00 0. -1.
          1    1    1    2  501    0 -0.18819679881E+02  0.69672082802E+01  0.11778182770E+03  0.11947920856E+03  0.00000000000E+00 0. -1.
<mgrwt>
<rscale>  1 0.80100862E+02</rscale>
<asrwt>0</asrwt>
<pdfrwt beam="1">  1       21 0.64861069E-03 0.80100862E+02</pdfrwt>
<pdfrwt beam="2">  1        2 0.91537001E-01 0.80100862E+02</pdfrwt>
<totfact> 0.43117487E+06</totfact>
</mgrwt>
</event>
<event>
 6    2  0.7993170E+000  0.8550280E+02  0.7546771E-02  0.1314123E+00
         21   -1    0    0  501  502  0.00000000000E+00  0.00000000000E+00  0.15582903412E+02  0.15582903412E+02  0.00000000000E+00 0.  1.
         -1   -1    0    0    0  501 -0.00000000000E+00 -0.00000000000E+00 -0.48287728088E+03  0.48287728088E+03  0.00000000000E+00 0.  1.
         24    2    1    2    0    0 -0.30643529416E+02  0.10682803014E+02 -0.45623098857E+03  0.46417393706E+03  0.79104871814E+02 0.  0.
        -13    1    3    3    0    0 -0.35671717035E+02 -0.87276178820E+01 -0.42785702295E+03  0.42943017453E+03  0.00000000000E+00 0.  1.
         14    1    3    3    0    0  0.50281876192E+01  0.19410420896E+02 -0.28373965618E+02  0.34743762533E+02  0.00000000000E+00 0. -1.
         -2    1    1    2    0  502  0.30643529416E+02 -0.10682803014E+02 -0.11063388905E+02  0.34286247233E+02  0.00000000000E+00 0.  1.
<mgrwt>
<rscale>  1 0.85502801E+02</rscale>
<asrwt>0</asrwt>
<pdfrwt beam="1">  1       21 0.23973695E-02 0.85502801E+02</pdfrwt>
<pdfrwt beam="2">  1       -1 0.74288821E-01 0.85502801E+02</pdfrwt>
<totfact> 0.15455667E+05</totfact>
</mgrwt>
</event>
<event>
 6    2  0.7993170E+000  0.9357847E+02  0.7546771E-02  0.1294410E+00
         21   -1    0    0  501  502  0.00000000000E+00  0.00000000000E+00  0.20579019896E+02  0.20579019896E+02  0.00000000000E+00 0. -1.
          4   -1    0    0  502    0 -0.00000000000E+00 -0.00000000000E+00 -0.40691465198E+03  0.40691465198E+03  0.00000000000E+00 0. -1.
         24    2    1    2    0    0  0.30164685628E+02  0.40222224240E+02 -0.35747925939E+03  0.36952449190E+03  0.78925240841E+02 0.  0.
        -13    1    3    3    0    0  0.76472205443E+01  0.29913728224E+02 -0.37442271452E+02  0.48530761480E+02  0.00000000000E+00 0.  1.
         14    1    3    3    0    0  0.22517465084E+02  0.10308496016E+02 -0.32003698794E+03  0.32099373042E+03  0.00000000000E+00 0. -1.
          3    1    1    2  501    0 -0.30164685628E+02 -0.40222224240E+02 -0.28856372700E+02  0.57969179978E+02  0.00000000000E+00 0. -1.
<mgrwt>
<rscale>  1 0.93578466E+02</rscale>
<asrwt>0</asrwt>
<pdfrwt beam="1">  1       21 0.31660029E-02 0.93578466E+02</pdfrwt>
<pdfrwt beam="2">  1        4 0.62602257E-01 0.93578466E+02</pdfrwt>
<totfact> 0.53677283E+04</totfact>
</mgrwt>
</event>
<event>
 6    2  0.7993170E+000  0.1187361E+03  0.7546771E-02  0.1245197E+00
         21   -1    0    0  501  502  0.00000000000E+00  0.00000000000E+00  0.31636153463E+02  0.31636153463E+02  0.00000000000E+00 0. -1.
          2   -1    0    0  502    0 -0.00000000000E+00 -0.00000000000E+00 -0.42617584142E+03  0.42617584142E+03  0.00000000000E+00 0. -1.
         24    2    1    2    0    0 -0.13422218433E+02  0.94860286235E+02 -0.30245993014E+03  0.32493117741E+03  0.70140080278E+02 0.  0.
        -13    1    3    3    0    0  0.10657264722E+02  0.17857751360E+02 -0.13202701571E+02  0.24633065253E+02  0.00000000000E+00 0.  1.
         14    1    3    3    0    0 -0.24079483155E+02  0.77002534875E+02 -0.28925722857E+03  0.30029811216E+03  0.00000000000E+00 0. -1.
          1    1    1    2  501    0  0.13422218433E+02 -0.94860286235E+02 -0.92079757820E+02  0.13288081747E+03  0.00000000000E+00 0. -1.
<mgrwt>
<rscale>  1 0.11873610E+03</rscale>
<asrwt>0</asrwt>
<pdfrwt beam="1">  1       21 0.48671011E-02 0.11873610E+03</pdfrwt>
<pdfrwt beam="2">  1        2 0.65565507E-01 0.11873610E+03</pdfrwt>
<totfact> 0.25603750E+05</totfact>
</mgrwt>
</event>
<event>
 6    2  0.7993170E+000  0.1120768E+03  0.7546771E-02  0.1256772E+00
          2   -1    0    0  502    0 -0.00000000000E+00  0.00000000000E+00  0.69285748836E+03  0.69285748836E+03  0.00000000000E+00 0. -1.
         21   -1    0    0  501  502  0.00000000000E+00 -0.00000000000E+00 -0.15053464605E+02  0.15053464605E+02  0.00000000000E+00 0. -1.
         24    2    1    2    0    0 -0.75245606010E+02 -0.19610943499E+02  0.52059131855E+03  0.53251903466E+03  0.80713759656E+02 0.  0.
        -13    1    3    3    0    0  0.42429425231E+01 -0.18038878233E+02  0.28156197796E+02  0.33707197502E+02  0.00000000000E+00 0.  1.
         14    1    3    3    0    0 -0.79488548533E+02 -0.15720652666E+01  0.49243512076E+03  0.49881183716E+03  0.00000000000E+00 0. -1.
          1    1    1    2  501    0  0.75245606010E+02  0.19610943499E+02  0.15721270520E+03  0.17539191830E+03  0.00000000000E+00 0. -1.
<mgrwt>
<rscale>  1 0.11207677E+03</rscale>
<asrwt>0</asrwt>
<pdfrwt beam="1">  1       21 0.23159182E-02 0.11207677E+03</pdfrwt>
<pdfrwt beam="2">  1        2 0.10659343E+00 0.11207677E+03</pdfrwt>
<totfact> 0.50411095E+05</totfact>
</mgrwt>
</event>
<event>
 6    2  0.7993170E+000  0.8207881E+02  0.7546771E-02  0.1323253E+00
          2   -1    0    0  502    0 -0.00000000000E+00  0.00000000000E+00  0.37581539729E+03  0.37581539729E+03  0.00000000000E+00 0. -1.
         21   -1    0    0  501  502  0.00000000000E+00 -0.00000000000E+00 -0.21669898077E+02  0.21669898077E+02  0.00000000000E+00 0. -1.
         24    2    1    2    0    0 -0.17220204167E+02  0.22634270701E+02  0.35932244970E+03  0.36857774518E+03  0.76994063003E+02 0.  0.
        -11    1    3    3    0    0  0.26140880931E+02  0.12243941361E+02  0.68154670855E+02  0.74015666688E+02  0.00000000000E+00 0.  1.
         12    1    3    3    0    0 -0.43361085099E+02  0.10390329341E+02  0.29116777885E+03  0.29456207849E+03  0.00000000000E+00 0. -1.
          1    1    1    2  501    0  0.17220204167E+02 -0.22634270701E+02 -0.51769504872E+01  0.28907550192E+02  0.00000000000E+00 0. -1.
<mgrwt>
<rscale>  1 0.82078812E+02</rscale>
<asrwt>0</asrwt>
<pdfrwt beam="1">  1       21 0.33338307E-02 0.82078812E+02</pdfrwt>
<pdfrwt beam="2">  1        2 0.57817749E-01 0.82078812E+02</pdfrwt>
<totfact> 0.53216330E+05</totfact>
</mgrwt>
</event>
<event>
 6    2  0.7993170E+000  0.1092935E+03  0.7546771E-02  0.1261884E+00
         21   -1    0    0  501  502  0.00000000000E+00  0.00000000000E+00  0.37270854072E+03  0.37270854072E+03  0.00000000000E+00 0.  1.
          2   -1    0    0  502    0 -0.00000000000E+00 -0.00000000000E+00 -0.23520421867E+02  0.23520421867E+02  0.00000000000E+00 0. -1.
         24    2    1    2    0    0  0.53146019720E+02 -0.50992118414E+02  0.16556892864E+03  0.19838886916E+03  0.80748855865E+02 0.  0.
        -13    1    3    3    0    0  0.22126512594E+02  0.98940694155E+01  0.10274592589E+03  0.10556609520E+03  0.00000000000E+00 0.  1.
         14    1    3    3    0    0  0.31019507126E+02 -0.60886187829E+02  0.62823002746E+02  0.92822773955E+02  0.00000000000E+00 0. -1.
          1    1    1    2  501    0 -0.53146019720E+02  0.50992118414E+02  0.18361919022E+03  0.19784009343E+03  0.00000000000E+00 0. -1.
<mgrwt>
<rscale>  1 0.10929352E+03</rscale>
<asrwt>0</asrwt>
<pdfrwt beam="1">  1       21 0.57339771E-01 0.10929352E+03</pdfrwt>
<pdfrwt beam="2">  1        2 0.36185267E-02 0.10929352E+03</pdfrwt>
<totfact> 0.81304540E+04</totfact>
</mgrwt>
</event>
<event>
 6    2  0.7993170E+000  0.8640826E+02  0.7546771E-02  0.1311790E+00
          2   -1    0    0  502    0 -0.00000000000E+00  0.00000000000E+00  0.56121996549E+03  0.56121996549E+03  0.00000000000E+00 0. -1.
         21   -1    0    0  501  502  0.00000000000E+00 -0.00000000000E+00 -0.62535994218E+01  0.62535994218E+01  0.00000000000E+00 0. -1.
         24    2    1    2    0    0 -0.24024175592E+02 -0.21174962939E+02  0.39731004330E+03  0.40659766188E+03  0.80254894361E+02 0.  0.
        -13    1    3    3    0    0  0.11225044349E+02 -0.43183631072E+02  0.19074433411E+03  0.19589341134E+03  0.00000000000E+00 0.  1.
         14    1    3    3    0    0 -0.35249219941E+02  0.22008668133E+02  0.20656570919E+03  0.21070425053E+03  0.00000000000E+00 0. -1.
          1    1    1    2  501    0  0.24024175592E+02  0.21174962939E+02  0.15765632277E+03  0.16087590304E+03  0.00000000000E+00 0. -1.
<mgrwt>
<rscale>  1 0.86408264E+02</rscale>
<asrwt>0</asrwt>
<pdfrwt beam="1">  1       21 0.96209267E-03 0.86408264E+02</pdfrwt>
<pdfrwt beam="2">  1        2 0.86341493E-01 0.86408264E+02</pdfrwt>
<totfact> 0.25212511E+06</totfact>
</mgrwt>
</event>
<event>
 6    2  0.7993170E+000  0.8614775E+02  0.7546771E-02  0.1312458E+00
         21   -1    0    0  501  502  0.00000000000E+00  0.00000000000E+00  0.21667889926E+02  0.21667889926E+02  0.00000000000E+00 0.  1.
         -3   -1    0    0    0  501 -0.00000000000E+00 -0.00000000000E+00 -0.21910418317E+03  0.21910418317E+03  0.00000000000E+00 0.  1.
         24    2    1    2    0    0  0.88479564029E+01 -0.26921619338E+02 -0.72298169448E+02  0.11246537044E+03  0.81353391580E+02 0.  0.
        -13    1    3    3    0    0  0.32972249138E+01 -0.54459654778E+02 -0.61895449372E+02  0.82509225809E+02  0.00000000000E+00 0.  1.
         14    1    3    3    0    0  0.55507314891E+01  0.27538035440E+02 -0.10402720075E+02  0.29956144627E+02  0.00000000000E+00 0. -1.
         -4    1    1    2    0  502 -0.88479564029E+01  0.26921619338E+02 -0.12513812380E+03  0.12830670266E+03  0.00000000000E+00 0.  1.
<mgrwt>
<rscale>  1 0.86147747E+02</rscale>
<asrwt>0</asrwt>
<pdfrwt beam="1">  1       21 0.33335215E-02 0.86147747E+02</pdfrwt>
<pdfrwt beam="2">  1       -3 0.33708336E-01 0.86147747E+02</pdfrwt>
<totfact> 0.20275214E+05</totfact>
</mgrwt>
</event>
<event>
 6    2  0.7993170E+000  0.7630568E+02  0.7546771E-02  0.1339875E+00
         21   -1    0    0  501  502  0.00000000000E+00  0.00000000000E+00  0.38041730523E+02  0.38041730523E+02  0.00000000000E+00 0. -1.
          2   -1    0    0  502    0 -0.00000000000E+00 -0.00000000000E+00 -0.18425115092E+03  0.18425115092E+03  0.00000000000E+00 0. -1.
         24    2    1    2    0    0  0.16526881484E+02 -0.11759254155E+02 -0.17277157303E+03  0.18887184283E+03  0.73560442468E+02 0.  0.
        -11    1    3    3    0    0  0.13440604345E+02 -0.98158411257E+00  0.21019459027E+01  0.13639337561E+02  0.00000000000E+00 0.  1.
         12    1    3    3    0    0  0.30862771384E+01 -0.10777670042E+02 -0.17487351893E+03  0.17523250527E+03  0.00000000000E+00 0. -1.
          1    1    1    2  501    0 -0.16526881484E+02  0.11759254155E+02  0.26562152631E+02  0.33421038617E+02  0.00000000000E+00 0. -1.
<mgrwt>
<rscale>  1 0.76305678E+02</rscale>
<asrwt>0</asrwt>
<pdfrwt beam="1">  1       21 0.58525740E-02 0.76305678E+02</pdfrwt>
<pdfrwt beam="2">  1        2 0.28346331E-01 0.76305678E+02</pdfrwt>
<totfact> 0.44125729E+05</totfact>
</mgrwt>
</event>
<event>
 6    2  0.7993170E+000  0.8215415E+02  0.7546771E-02  0.1323047E+00
         21   -1    0    0  501  502  0.00000000000E+00  0.00000000000E+00  0.87251694433E+02  0.87251694433E+02  0.00000000000E+00 0.  1.
         -3   -1    0    0    0  501 -0.00000000000E+00 -0.00000000000E+00 -0.11157340978E+03  0.11157340978E+03  0.00000000000E+00 0.  1.
         24    2    1    2    0    0 -0.20675732477E+02 -0.13631307364E+02 -0.94021007907E+02  0.12485693649E+03  0.78332663737E+02 0.  0.
        -11    1    3    3    0    0 -0.30039633018E+02  0.56151732938E+01 -0.98377335253E+02  0.10301460971E+03  0.00000000000E+00 0.  1.
         12    1    3    3    0    0  0.93639005418E+01 -0.19246480658E+02  0.43563273466E+01  0.21842326777E+02  0.00000000000E+00 0. -1.
         -4    1    1    2    0  502  0.20675732477E+02  0.13631307364E+02  0.69699292556E+02  0.73968167726E+02  0.00000000000E+00 0.  1.
<mgrwt>
<rscale>  1 0.82154152E+02</rscale>
<asrwt>0</asrwt>
<pdfrwt beam="1">  1       21 0.13423338E-01 0.82154152E+02</pdfrwt>
<pdfrwt beam="2">  1       -3 0.17165140E-01 0.82154152E+02</pdfrwt>
<totfact> 0.63556160E+04</totfact>
</mgrwt>
</event>
<event>
 6    2  0.7993170E+000  0.8294714E+02  0.7546771E-02  0.1320890E+00
         21   -1    0    0  501  502  0.00000000000E+00  0.00000000000E+00  0.16832435468E+01  0.16832435468E+01  0.00000000000E+00 0. -1.
          2   -1    0    0  502    0 -0.00000000000E+00 -0.00000000000E+00 -0.41164936400E+04  0.41164936400E+04  0.00000000000E+00 0. -1.
         24    2    1    2    0    0  0.23640330554E+02 -0.24192300899E+01 -0.40034489205E+04  0.40043081160E+04  0.79470187337E+02 0.  0.
        -13    1    3    3    0    0 -0.45573873542E+01  0.71996777771E+01 -0.48225193789E+02  0.48972180425E+02  0.00000000000E+00 0.  1.
         14    1    3    3    0    0  0.28197717908E+02 -0.96189078670E+01 -0.39552237267E+04  0.39553359355E+04  0.00000000000E+00 0. -1.
          1    1    1    2  501    0 -0.23640330554E+02  0.24192300899E+01 -0.11136147599E+03  0.11386876761E+03  0.00000000000E+00 0. -1.
<mgrwt>
<rscale>  1 0.82947143E+02</rscale>
<asrwt>0</asrwt>
<pdfrwt beam="1">  1       21 0.25896212E-03 0.82947143E+02</pdfrwt>
<pdfrwt beam="2">  1        2 0.63330287E+00 0.82947143E+02</pdfrwt>
<totfact> 0.15719915E+05</totfact>
</mgrwt>
</event>
<event>
 6    2  0.7993170E+000  0.8831534E+02  0.7546771E-02  0.1306983E+00
          2   -1    0    0  502    0 -0.00000000000E+00  0.00000000000E+00  0.94895787040E+01  0.94895787040E+01  0.00000000000E+00 0. -1.
         21   -1    0    0  501  502  0.00000000000E+00 -0.00000000000E+00 -0.43967259068E+03  0.43967259068E+03  0.00000000000E+00 0.  1.
         24    2    1    2    0    0 -0.16161288865E+02 -0.29088968112E+02 -0.23270447219E+03  0.24889951935E+03  0.81806136876E+02 0.  0.
        -13    1    3    3    0    0  0.63342006467E+01  0.14133748225E+02 -0.16366859950E+03  0.16439980353E+03  0.00000000000E+00 0.  1.
         14    1    3    3    0    0 -0.22495489512E+02 -0.43222716337E+02 -0.69035872687E+02  0.84499715819E+02  0.00000000000E+00 0. -1.
          1    1    1    2  501    0  0.16161288865E+02  0.29088968112E+02 -0.19747853979E+03  0.20026265004E+03  0.00000000000E+00 0. -1.
<mgrwt>
<rscale>  1 0.88315340E+02</rscale>
<asrwt>0</asrwt>
<pdfrwt beam="1">  1       21 0.67641923E-01 0.88315340E+02</pdfrwt>
<pdfrwt beam="2">  1        2 0.14599355E-02 0.88315340E+02</pdfrwt>
<totfact> 0.19165023E+05</totfact>
</mgrwt>
</event>
<event>
 6    2  0.7993170E+000  0.8851580E+02  0.7546771E-02  0.1306486E+00
         21   -1    0    0  501  502  0.00000000000E+00  0.00000000000E+00  0.39273114470E+03  0.39273114470E+03  0.00000000000E+00 0.  1.
         -3   -1    0    0    0  501 -0.00000000000E+00 -0.00000000000E+00 -0.11069123638E+02  0.11069123638E+02  0.00000000000E+00 0.  1.
         24    2    1    2    0    0 -0.34151854702E+02  0.24098354157E+02  0.22875576787E+03  0.24528401644E+03  0.78025428745E+02 0.  0.
        -13    1    3    3    0    0 -0.36665747606E+02  0.79614239845E+01  0.36531046441E+02  0.52366770699E+02  0.00000000000E+00 0.  1.
         14    1    3    3    0    0  0.25138929042E+01  0.16136930172E+02  0.19222472143E+03  0.19291724574E+03  0.00000000000E+00 0. -1.
         -4    1    1    2    0  502  0.34151854702E+02 -0.24098354157E+02  0.15290625319E+03  0.15851625190E+03  0.00000000000E+00 0.  1.
<mgrwt>
<rscale>  1 0.88515803E+02</rscale>
<asrwt>0</asrwt>
<pdfrwt beam="1">  1       21 0.60420165E-01 0.88515803E+02</pdfrwt>
<pdfrwt beam="2">  1       -3 0.17029424E-02 0.88515803E+02</pdfrwt>
<totfact> 0.14105728E+05</totfact>
</mgrwt>
</event>
<event>
 6    2  0.7993170E+000  0.8679794E+02  0.7546771E-02  0.1310797E+00
          2   -1    0    0  502    0 -0.00000000000E+00  0.00000000000E+00  0.40603557135E+04  0.40603557135E+04  0.00000000000E+00 0. -1.
         21   -1    0    0  501  502  0.00000000000E+00 -0.00000000000E+00 -0.74562429258E+00  0.74562429258E+00  0.00000000000E+00 0.  1.
         24    2    1    2    0    0 -0.91181728146E+01 -0.21310736117E+02  0.31442873469E+04  0.31454851457E+04  0.83645643613E+02 0.  0.
        -11    1    3    3    0    0 -0.16422098433E+02 -0.28846967321E+02  0.46738977155E+03  0.46856699776E+03  0.00000000000E+00 0.  1.
         12    1    3    3    0    0  0.73039256185E+01  0.75362312034E+01  0.26768975753E+04  0.26769181480E+04  0.00000000000E+00 0. -1.
          1    1    1    2  501    0  0.91181728146E+01  0.21310736117E+02  0.91532274229E+03  0.91561619203E+03  0.00000000000E+00 0. -1.
<mgrwt>
<rscale>  1 0.86797939E+02</rscale>
<asrwt>0</asrwt>
<pdfrwt beam="1">  1       21 0.11471468E-03 0.86797939E+02</pdfrwt>
<pdfrwt beam="2">  1        2 0.62465240E+00 0.86797939E+02</pdfrwt>
<totfact> 0.58347308E+05</totfact>
</mgrwt>
</event>
<event>
 6    2  0.7993170E+000  0.8838307E+02  0.7546771E-02  0.1306815E+00
         21   -1    0    0  501  502  0.00000000000E+00  0.00000000000E+00  0.69110577298E+01  0.69110577298E+01  0.00000000000E+00 0. -1.
          2   -1    0    0  502    0 -0.00000000000E+00 -0.00000000000E+00 -0.20244148373E+04  0.20244148373E+04  0.00000000000E+00 0. -1.
         24    2    1    2    0    0  0.40144739743E+02 -0.43308910967E+01 -0.19544778934E+04  0.19564752499E+04  0.78620678064E+02 0.  0.
        -11    1    3    3    0    0  0.50209357871E+02  0.25450622512E+02 -0.13641440324E+04  0.13653049678E+04  0.00000000000E+00 0.  1.
         12    1    3    3    0    0 -0.10064618128E+02 -0.29781513608E+02 -0.59033386092E+03  0.59117028210E+03  0.00000000000E+00 0. -1.
          1    1    1    2  501    0 -0.40144739743E+02  0.43308910967E+01 -0.63025886219E+02  0.74850645158E+02  0.00000000000E+00 0. -1.
<mgrwt>
<rscale>  1 0.88383074E+02</rscale>
<asrwt>0</asrwt>
<pdfrwt beam="1">  1       21 0.10632398E-02 0.88383074E+02</pdfrwt>
<pdfrwt beam="2">  1        2 0.31144840E+00 0.88383074E+02</pdfrwt>
<totfact> 0.31631934E+05</totfact>
</mgrwt>
</event>
<event>
 6    2  0.7993170E+000  0.8763128E+02  0.7546771E-02  0.1308691E+00
         21   -1    0    0  501  502  0.00000000000E+00  0.00000000000E+00  0.76781653745E+02  0.76781653745E+02  0.00000000000E+00 0. -1.
          4   -1    0    0  502    0 -0.00000000000E+00 -0.00000000000E+00 -0.54539927860E+02  0.54539927860E+02  0.00000000000E+00 0. -1.
         24    2    1    2    0    0 -0.33050938475E+02  0.18527626053E+02  0.49120710024E+00  0.87632652473E+02  0.79016473180E+02 0.  0.
        -13    1    3    3    0    0  0.19188287907E+02  0.28177524444E+02  0.43636443670E+01  0.34368658233E+02  0.00000000000E+00 0.  1.
         14    1    3    3    0    0 -0.52239226382E+02 -0.96498983910E+01 -0.38724372668E+01  0.53263994240E+02  0.00000000000E+00 0. -1.
          3    1    1    2  501    0  0.33050938475E+02 -0.18527626053E+02  0.21750518785E+02  0.43688929132E+02  0.00000000000E+00 0. -1.
<mgrwt>
<rscale>  1 0.87631276E+02</rscale>
<asrwt>0</asrwt>
<pdfrwt beam="1">  1       21 0.11812562E-01 0.87631276E+02</pdfrwt>
<pdfrwt beam="2">  1        4 0.83907581E-02 0.87631276E+02</pdfrwt>
<totfact> 0.22888950E+05</totfact>
</mgrwt>
</event>
<event>
 6    2  0.7993170E+000  0.8438382E+02  0.7546771E-02  0.1317052E+00
         21   -1    0    0  501  502  0.00000000000E+00  0.00000000000E+00  0.50064070665E+02  0.50064070665E+02  0.00000000000E+00 0. -1.
          2   -1    0    0  502    0 -0.00000000000E+00 -0.00000000000E+00 -0.57120162212E+03  0.57120162212E+03  0.00000000000E+00 0. -1.
         24    2    1    2    0    0 -0.13614122765E+02  0.22891465449E+02 -0.56428525695E+03  0.57055979551E+03  0.80070378498E+02 0.  0.
        -13    1    3    3    0    0  0.15908035475E+02  0.37118715878E+02 -0.44581714494E+03  0.44764248166E+03  0.00000000000E+00 0.  1.
         14    1    3    3    0    0 -0.29522158239E+02 -0.14227250429E+02 -0.11846811201E+03  0.12291731385E+03  0.00000000000E+00 0. -1.
          1    1    1    2  501    0  0.13614122765E+02 -0.22891465449E+02  0.43147705494E+02  0.50705897275E+02  0.00000000000E+00 0. -1.
<mgrwt>
<rscale>  1 0.84383820E+02</rscale>
<asrwt>0</asrwt>
<pdfrwt beam="1">  1       21 0.77021652E-02 0.84383820E+02</pdfrwt>
<pdfrwt beam="2">  1        2 0.87877167E-01 0.84383820E+02</pdfrwt>
<totfact> 0.84699660E+04</totfact>
</mgrwt>
</event>
<event>
 6    2  0.7993170E+000  0.8913195E+02  0.7546771E-02  0.1304968E+00
         21   -1    0    0  501  502  0.00000000000E+00  0.00000000000E+00  0.73161476041E+02  0.73161476041E+02  0.00000000000E+00 0. -1.
          4   -1    0    0  502    0 -0.00000000000E+00 -0.00000000000E+00 -0.11389513822E+03  0.11389513822E+03  0.00000000000E+00 0. -1.
         24    2    1    2    0    0 -0.22274989149E+02 -0.31396239352E+02 -0.88569772127E+02  0.12565472176E+03  0.80390332627E+02 0.  0.
        -13    1    3    3    0    0 -0.35026525133E+02 -0.25953187819E+02 -0.85269343938E+01  0.44419973335E+02  0.00000000000E+00 0.  1.
         14    1    3    3    0    0  0.12751535984E+02 -0.54430515326E+01 -0.80042837733E+02  0.81234748429E+02  0.00000000000E+00 0. -1.
          3    1    1    2  501    0  0.22274989149E+02  0.31396239352E+02  0.47836109949E+02  0.61401892496E+02  0.00000000000E+00 0. -1.
<mgrwt>
<rscale>  1 0.89131950E+02</rscale>
<asrwt>0</asrwt>
<pdfrwt beam="1">  1       21 0.11255612E-01 0.89131950E+02</pdfrwt>
<pdfrwt beam="2">  1        4 0.17522329E-01 0.89131950E+02</pdfrwt>
<totfact> 0.71555128E+04</totfact>
</mgrwt>
</event>
<event>
 6    2  0.7993170E+000  0.8372843E+02  0.7546771E-02  0.1318792E+00
         21   -1    0    0  501  502  0.00000000000E+00  0.00000000000E+00  0.22106743498E+03  0.22106743498E+03  0.00000000000E+00 0. -1.
         -3   -1    0    0    0  501 -0.00000000000E+00 -0.00000000000E+00 -0.13468559804E+02  0.13468559804E+02  0.00000000000E+00 0.  1.
         24    2    1    2    0    0 -0.18310310983E+02 -0.16820054508E+02  0.16932668772E+03  0.18889673477E+03  0.79951657339E+02 0.  0.
        -13    1    3    3    0    0 -0.38969229308E+02  0.27767968033E+01  0.37936241987E+02  0.54456128117E+02  0.00000000000E+00 0.  1.
         14    1    3    3    0    0  0.20658918326E+02 -0.19596851311E+02  0.13139044574E+03  0.13444060666E+03  0.00000000000E+00 0. -1.
         -4    1    1    2    0  502  0.18310310983E+02  0.16820054508E+02  0.38272187456E+02  0.45639260013E+02  0.00000000000E+00 0.  1.
<mgrwt>
<rscale>  1 0.83728425E+02</rscale>
<asrwt>0</asrwt>
<pdfrwt beam="1">  1       21 0.34010372E-01 0.83728425E+02</pdfrwt>
<pdfrwt beam="2">  1       -3 0.20720863E-02 0.83728425E+02</pdfrwt>
<totfact> 0.33116890E+05</totfact>
</mgrwt>
</event>
<event>
 6    2  0.7993170E+000  0.8032395E+02  0.7546771E-02  0.1328135E+00
         21   -1    0    0  501  502  0.00000000000E+00  0.00000000000E+00  0.11003577825E+02  0.11003577825E+02  0.00000000000E+00 0. -1.
          2   -1    0    0  502    0 -0.00000000000E+00 -0.00000000000E+00 -0.70269267728E+03  0.70269267728E+03  0.00000000000E+00 0. -1.
         24    2    1    2    0    0  0.97942593909E+01  0.20005523653E+02 -0.68602712885E+03  0.69071351365E+03  0.77173751557E+02 0.  0.
        -13    1    3    3    0    0 -0.24419256191E+02 -0.17120218547E+02 -0.24842160075E+03  0.25020530305E+03  0.00000000000E+00 0.  1.
         14    1    3    3    0    0  0.34213515582E+02  0.37125742200E+02 -0.43760552810E+03  0.44050821060E+03  0.00000000000E+00 0. -1.
          1    1    1    2  501    0 -0.97942593909E+01 -0.20005523653E+02 -0.56619706077E+01  0.22982741456E+02  0.00000000000E+00 0. -1.
<mgrwt>
<rscale>  1 0.80323947E+02</rscale>
<asrwt>0</asrwt>
<pdfrwt beam="1">  1       21 0.16928577E-02 0.80323947E+02</pdfrwt>
<pdfrwt beam="2">  1        2 0.10810659E+00 0.80323947E+02</pdfrwt>
<totfact> 0.79870778E+05</totfact>
</mgrwt>
</event>
<event>
 6    2  0.7993170E+000  0.8462887E+02  0.7546771E-02  0.1316406E+00
         21   -1    0    0  501  502  0.00000000000E+00  0.00000000000E+00  0.37267098832E+01  0.37267098832E+01  0.00000000000E+00 0.  1.
          2   -1    0    0  502    0 -0.00000000000E+00 -0.00000000000E+00 -0.12240069520E+04  0.12240069520E+04  0.00000000000E+00 0. -1.
         24    2    1    2    0    0 -0.66283320054E+01  0.23294124137E+02 -0.11551559246E+04  0.11582518101E+04  0.81089421629E+02 0.  0.
        -11    1    3    3    0    0 -0.72117550403E+01  0.47903146948E+02 -0.43749195560E+03  0.44016580070E+03  0.00000000000E+00 0.  1.
         12    1    3    3    0    0  0.58342303493E+00 -0.24609022811E+02 -0.71766396903E+03  0.71808600935E+03  0.00000000000E+00 0. -1.
          1    1    1    2  501    0  0.66283320054E+01 -0.23294124137E+02 -0.65124317502E+02  0.69481851836E+02  0.00000000000E+00 0. -1.
<mgrwt>
<rscale>  1 0.84628868E+02</rscale>
<asrwt>0</asrwt>
<pdfrwt beam="1">  1       21 0.57333999E-03 0.84628868E+02</pdfrwt>
<pdfrwt beam="2">  1        2 0.18830876E+00 0.84628868E+02</pdfrwt>
<totfact> 0.20998894E+06</totfact>
</mgrwt>
</event>
<event>
 6    2  0.7993170E+000  0.8523361E+02  0.7546771E-02  0.1314823E+00
         21   -1    0    0  501  502  0.00000000000E+00  0.00000000000E+00  0.46456994450E+01  0.46456994450E+01  0.00000000000E+00 0. -1.
          2   -1    0    0  502    0 -0.00000000000E+00 -0.00000000000E+00 -0.96248598199E+03  0.96248598199E+03  0.00000000000E+00 0. -1.
         24    2    1    2    0    0  0.26953856319E+02 -0.14787985800E+02 -0.86803757803E+03  0.87221213322E+03  0.79495745640E+02 0.  0.
        -11    1    3    3    0    0 -0.57001317948E+01 -0.21679736968E+02 -0.70531543649E+02  0.74008115413E+02  0.00000000000E+00 0.  1.
         12    1    3    3    0    0  0.32653988114E+02  0.68917511683E+01 -0.79750603438E+03  0.79820401781E+03  0.00000000000E+00 0. -1.
          1    1    1    2  501    0 -0.26953856319E+02  0.14787985800E+02 -0.89802704511E+02  0.94919548208E+02  0.00000000000E+00 0. -1.
<mgrwt>
<rscale>  1 0.85233611E+02</rscale>
<asrwt>0</asrwt>
<pdfrwt beam="1">  1       21 0.71472237E-03 0.85233611E+02</pdfrwt>
<pdfrwt beam="2">  1        2 0.14807490E+00 0.85233611E+02</pdfrwt>
<totfact> 0.21001662E+06</totfact>
</mgrwt>
</event>
<event>
 6    2  0.7993170E+000  0.8621061E+02  0.7546771E-02  0.1312297E+00
          2   -1    0    0  502    0 -0.00000000000E+00  0.00000000000E+00  0.86086596850E+02  0.86086596850E+02  0.00000000000E+00 0. -1.
         21   -1    0    0  501  502  0.00000000000E+00 -0.00000000000E+00 -0.17586774119E+03  0.17586774119E+03  0.00000000000E+00 0. -1.
         24    2    1    2    0    0 -0.32955069432E+02  0.58002231952E+01  0.62216967533E+02  0.10631660096E+03  0.79451805517E+02 0.  0.
        -11    1    3    3    0    0  0.31050065875E+01 -0.18731546873E+02 -0.10370284543E+02  0.21634572232E+02  0.00000000000E+00 0.  1.
         12    1    3    3    0    0 -0.36060076020E+02  0.24531770068E+02  0.72587252077E+02  0.84682028727E+02  0.00000000000E+00 0. -1.
          1    1    1    2  501    0  0.32955069432E+02 -0.58002231952E+01 -0.15199811187E+03  0.15563773708E+03  0.00000000000E+00 0. -1.
<mgrwt>
<rscale>  1 0.86210606E+02</rscale>
<asrwt>0</asrwt>
<pdfrwt beam="1">  1       21 0.27056576E-01 0.86210606E+02</pdfrwt>
<pdfrwt beam="2">  1        2 0.13244092E-01 0.86210606E+02</pdfrwt>
<totfact> 0.70071659E+04</totfact>
</mgrwt>
</event>
<event>
 6    2  0.7993170E+000  0.1618837E+03  0.7546771E-02  0.1186586E+00
          2   -1    0    0  502    0 -0.00000000000E+00  0.00000000000E+00  0.33187923987E+03  0.33187923987E+03  0.00000000000E+00 0. -1.
         21   -1    0    0  501  502  0.00000000000E+00 -0.00000000000E+00 -0.72774840167E+02  0.72774840167E+02  0.00000000000E+00 0. -1.
         24    2    1    2    0    0  0.13853650836E+03  0.22527650897E+02  0.18537799838E+03  0.24611247207E+03  0.80662800756E+02 0.  0.
        -13    1    3    3    0    0 -0.23227333607E+01  0.59253835285E+01 -0.54281537044E+01  0.83648139766E+01  0.00000000000E+00 0.  1.
         14    1    3    3    0    0  0.14085924172E+03  0.16602267368E+02  0.19080615208E+03  0.23774765810E+03  0.00000000000E+00 0. -1.
          1    1    1    2  501    0 -0.13853650836E+03 -0.22527650897E+02  0.73726401325E+02  0.15854160796E+03  0.00000000000E+00 0. -1.
<mgrwt>
<rscale>  1 0.16188374E+03</rscale>
<asrwt>0</asrwt>
<pdfrwt beam="1">  1       21 0.11196129E-01 0.16188374E+03</pdfrwt>
<pdfrwt beam="2">  1        2 0.51058344E-01 0.16188374E+03</pdfrwt>
<totfact> 0.80657783E+04</totfact>
</mgrwt>
</event>
<event>
 6    2  0.7993170E+000  0.8960851E+02  0.7546771E-02  0.1303803E+00
         21   -1    0    0  501  502  0.00000000000E+00  0.00000000000E+00  0.78234802923E+02  0.78234802923E+02  0.00000000000E+00 0.  1.
         -1   -1    0    0    0  501 -0.00000000000E+00 -0.00000000000E+00 -0.21023946086E+03  0.21023946086E+03  0.00000000000E+00 0.  1.
         24    2    1    2    0    0  0.10355060457E+02 -0.38564370428E+02 -0.19459264743E+03  0.21423347734E+03  0.80219987733E+02 0.  0.
        -13    1    3    3    0    0 -0.29343197144E+02 -0.27541338403E+02 -0.14102238383E+03  0.14665217789E+03  0.00000000000E+00 0.  1.
         14    1    3    3    0    0  0.39698257602E+02 -0.11023032026E+02 -0.53570263605E+02  0.67581299442E+02  0.00000000000E+00 0. -1.
         -2    1    1    2    0  502 -0.10355060457E+02  0.38564370428E+02  0.62587989495E+02  0.74240786450E+02  0.00000000000E+00 0.  1.
<mgrwt>
<rscale>  1 0.89608506E+02</rscale>
<asrwt>0</asrwt>
<pdfrwt beam="1">  1       21 0.12036124E-01 0.89608506E+02</pdfrwt>
<pdfrwt beam="2">  1       -1 0.32344532E-01 0.89608506E+02</pdfrwt>
<totfact> 0.46867936E+04</totfact>
</mgrwt>
</event>
<event>
 6    2  0.7993170E+000  0.9957633E+02  0.7546771E-02  0.1281189E+00
         21   -1    0    0  501  502  0.00000000000E+00  0.00000000000E+00  0.24019115569E+03  0.24019115569E+03  0.00000000000E+00 0.  1.
         -3   -1    0    0    0  501 -0.00000000000E+00 -0.00000000000E+00 -0.33397505705E+02  0.33397505705E+02  0.00000000000E+00 0.  1.
         24    2    1    2    0    0 -0.90046187106E+01  0.62502897336E+02  0.17849079193E+03  0.20438788750E+03  0.76991885414E+02 0.  0.
        -11    1    3    3    0    0 -0.96367127074E+00  0.76119117346E+02  0.10792128212E+03  0.13206836041E+03  0.00000000000E+00 0.  1.
         12    1    3    3    0    0 -0.80409474399E+01 -0.13616220011E+02  0.70569509818E+02  0.72319527094E+02  0.00000000000E+00 0. -1.
         -4    1    1    2    0  502  0.90046187106E+01 -0.62502897336E+02  0.28302858054E+02  0.69200773894E+02  0.00000000000E+00 0.  1.
<mgrwt>
<rscale>  1 0.99576331E+02</rscale>
<asrwt>0</asrwt>
<pdfrwt beam="1">  1       21 0.36952484E-01 0.99576331E+02</pdfrwt>
<pdfrwt beam="2">  1       -3 0.51380780E-02 0.99576331E+02</pdfrwt>
<totfact> 0.71341374E+04</totfact>
</mgrwt>
</event>
<event>
 6    2  0.7993170E+000  0.7926013E+02  0.7546771E-02  0.1331164E+00
         21   -1    0    0  501  502  0.00000000000E+00  0.00000000000E+00  0.15742219384E+03  0.15742219384E+03  0.00000000000E+00 0.  1.
         -1   -1    0    0    0  501 -0.00000000000E+00 -0.00000000000E+00 -0.55362920548E+02  0.55362920548E+02  0.00000000000E+00 0.  1.
         24    2    1    2    0    0 -0.27789115033E+01  0.25399195330E+02 -0.25056874008E+02  0.83126499646E+02  0.75028838028E+02 0.  0.
        -11    1    3    3    0    0 -0.38636409058E+02  0.16476959368E+02 -0.16966068797E+02  0.45300218380E+02  0.00000000000E+00 0.  1.
         12    1    3    3    0    0  0.35857497554E+02  0.89222359620E+01 -0.80908052118E+01  0.37826281266E+02  0.00000000000E+00 0. -1.
         -2    1    1    2    0  502  0.27789115033E+01 -0.25399195330E+02  0.12711614730E+03  0.12965861474E+03  0.00000000000E+00 0.  1.
<mgrwt>
<rscale>  1 0.79260129E+02</rscale>
<asrwt>0</asrwt>
<pdfrwt beam="1">  1       21 0.24218799E-01 0.79260129E+02</pdfrwt>
<pdfrwt beam="2">  1       -1 0.85173724E-02 0.79260129E+02</pdfrwt>
<totfact> 0.10685320E+05</totfact>
</mgrwt>
</event>
<event>
 6    2  0.7993170E+000  0.8823710E+02  0.7546771E-02  0.1307178E+00
          2   -1    0    0  502    0 -0.00000000000E+00  0.00000000000E+00  0.99369451464E+03  0.99369451464E+03  0.00000000000E+00 0. -1.
         21   -1    0    0  501  502  0.00000000000E+00 -0.00000000000E+00 -0.48041030087E+01  0.48041030087E+01  0.00000000000E+00 0. -1.
         24    2    1    2    0    0  0.10436199512E+02 -0.27589917572E+02  0.91010102500E+03  0.91436844912E+03  0.83160490722E+02 0.  0.
        -11    1    3    3    0    0  0.72911512632E+01 -0.18018225651E+02  0.42778609528E+02  0.46987517230E+02  0.00000000000E+00 0.  1.
         12    1    3    3    0    0  0.31450482484E+01 -0.95716919215E+01  0.86732241547E+03  0.86738093189E+03  0.00000000000E+00 0. -1.
          1    1    1    2  501    0 -0.10436199512E+02  0.27589917572E+02  0.78789386626E+02  0.84130168529E+02  0.00000000000E+00 0. -1.
<mgrwt>
<rscale>  1 0.88237096E+02</rscale>
<asrwt>0</asrwt>
<pdfrwt beam="1">  1       21 0.73909356E-03 0.88237096E+02</pdfrwt>
<pdfrwt beam="2">  1        2 0.15287592E+00 0.88237096E+02</pdfrwt>
<totfact> 0.19175897E+06</totfact>
</mgrwt>
</event>
<event>
 6    2  0.7993170E+000  0.1120890E+03  0.7546771E-02  0.1256750E+00
         -1   -1    0    0    0  501 -0.00000000000E+00  0.00000000000E+00  0.15712519897E+03  0.15712519897E+03  0.00000000000E+00 0.  1.
         21   -1    0    0  501  502  0.00000000000E+00 -0.00000000000E+00 -0.39971536720E+03  0.39971536720E+03  0.00000000000E+00 0.  1.
         24    2    1    2    0    0  0.74440542710E+02  0.26188747046E+02  0.13249287662E+03  0.17354624661E+03  0.79603344704E+02 0.  0.
        -11    1    3    3    0    0  0.69118040518E+02  0.38925644412E+02  0.13759978849E+03  0.15882761444E+03  0.00000000000E+00 0.  1.
         12    1    3    3    0    0  0.53225021925E+01 -0.12736897366E+02 -0.51069118698E+01  0.14718632170E+02  0.00000000000E+00 0. -1.
         -2    1    1    2    0  502 -0.74440542710E+02 -0.26188747046E+02 -0.37508304485E+03  0.38329431955E+03  0.00000000000E+00 0.  1.
<mgrwt>
<rscale>  1 0.11208897E+03</rscale>
<asrwt>0</asrwt>
<pdfrwt beam="1">  1       21 0.61494671E-01 0.11208897E+03</pdfrwt>
<pdfrwt beam="2">  1       -1 0.24173108E-01 0.11208897E+03</pdfrwt>
<totfact> 0.33723126E+03</totfact>
</mgrwt>
</event>
<event>
 6    2  0.7993170E+000  0.8871543E+02  0.7546771E-02  0.1305993E+00
         21   -1    0    0  501  502  0.00000000000E+00  0.00000000000E+00  0.19668839390E+01  0.19668839390E+01  0.00000000000E+00 0. -1.
          2   -1    0    0  502    0 -0.00000000000E+00 -0.00000000000E+00 -0.19538991722E+04  0.19538991722E+04  0.00000000000E+00 0. -1.
         24    2    1    2    0    0 -0.21237506954E+02 -0.21556268737E+02 -0.11748439390E+04  0.11781887407E+04  0.83394983272E+02 0.  0.
        -13    1    3    3    0    0 -0.53142997490E+02 -0.19705346274E+02 -0.77461051967E+03  0.77668136069E+03  0.00000000000E+00 0.  1.
         14    1    3    3    0    0  0.31905490536E+02 -0.18509224629E+01 -0.40023341931E+03  0.40150737997E+03  0.00000000000E+00 0. -1.
          1    1    1    2  501    0  0.21237506954E+02  0.21556268737E+02 -0.77708834928E+03  0.77767731548E+03  0.00000000000E+00 0. -1.
<mgrwt>
<rscale>  1 0.88715431E+02</rscale>
<asrwt>0</asrwt>
<pdfrwt beam="1">  1       21 0.30259677E-03 0.88715431E+02</pdfrwt>
<pdfrwt beam="2">  1        2 0.30060062E+00 0.88715431E+02</pdfrwt>
<totfact> 0.23696726E+06</totfact>
</mgrwt>
</event>
<event>
 6    2  0.7993170E+000  0.8487473E+02  0.7546771E-02  0.1315760E+00
         -1   -1    0    0    0  501 -0.00000000000E+00  0.00000000000E+00  0.27646903670E+02  0.27646903670E+02  0.00000000000E+00 0.  1.
         21   -1    0    0  501  502  0.00000000000E+00 -0.00000000000E+00 -0.12339043321E+03  0.12339043321E+03  0.00000000000E+00 0. -1.
         24    2    1    2    0    0  0.20511890327E+02 -0.21058978122E+02 -0.56324925778E+02  0.10186372071E+03  0.79620990505E+02 0.  0.
        -13    1    3    3    0    0 -0.13970309192E+02 -0.41934411588E+02 -0.34165263395E+02  0.55865281141E+02  0.00000000000E+00 0.  1.
         14    1    3    3    0    0  0.34482199519E+02  0.20875433466E+02 -0.22159662383E+02  0.45998439571E+02  0.00000000000E+00 0. -1.
         -2    1    1    2    0  502 -0.20511890327E+02  0.21058978122E+02 -0.39418603758E+02  0.49173616163E+02  0.00000000000E+00 0.  1.
<mgrwt>
<rscale>  1 0.84874733E+02</rscale>
<asrwt>0</asrwt>
<pdfrwt beam="1">  1       21 0.18983144E-01 0.84874733E+02</pdfrwt>
<pdfrwt beam="2">  1       -1 0.42533698E-02 0.84874733E+02</pdfrwt>
<totfact> 0.46688505E+05</totfact>
</mgrwt>
</event>
<event>
 6    2  0.7993170E+000  0.9971236E+02  0.7546771E-02  0.1280902E+00
         21   -1    0    0  501  502  0.00000000000E+00  0.00000000000E+00  0.16078664344E+02  0.16078664344E+02  0.00000000000E+00 0. -1.
          2   -1    0    0  502    0 -0.00000000000E+00 -0.00000000000E+00 -0.17685271206E+04  0.17685271206E+04  0.00000000000E+00 0. -1.
         24    2    1    2    0    0  0.41303470287E+02 -0.43372098709E+02 -0.17057432432E+04  0.17086551922E+04  0.79721005159E+02 0.  0.
        -13    1    3    3    0    0 -0.60874093583E+01 -0.35966476492E+02 -0.31835918382E+03  0.32044221617E+03  0.00000000000E+00 0.  1.
         14    1    3    3    0    0  0.47390879645E+02 -0.74056222174E+01 -0.13873840593E+04  0.13882129760E+04  0.00000000000E+00 0. -1.
          1    1    1    2  501    0 -0.41303470287E+02  0.43372098709E+02 -0.46705213050E+02  0.75950592692E+02  0.00000000000E+00 0. -1.
<mgrwt>
<rscale>  1 0.99712358E+02</rscale>
<asrwt>0</asrwt>
<pdfrwt beam="1">  1       21 0.24736407E-02 0.99712358E+02</pdfrwt>
<pdfrwt beam="2">  1        2 0.27208110E+00 0.99712358E+02</pdfrwt>
<totfact> 0.11122509E+05</totfact>
</mgrwt>
</event>
<event>
 6    2  0.7993170E+000  0.8559715E+02  0.7546771E-02  0.1313878E+00
          2   -1    0    0  502    0 -0.00000000000E+00  0.00000000000E+00  0.20982048514E+03  0.20982048514E+03  0.00000000000E+00 0. -1.
         21   -1    0    0  501  502  0.00000000000E+00 -0.00000000000E+00 -0.15078159702E+02  0.15078159702E+02  0.00000000000E+00 0.  1.
         24    2    1    2    0    0  0.18809732477E+02 -0.18427046733E+02  0.15797722822E+03  0.17967658761E+03  0.81446359098E+02 0.  0.
        -11    1    3    3    0    0  0.30378008526E+02  0.11444201958E+02  0.20221065569E+02  0.38245060507E+02  0.00000000000E+00 0.  1.
         12    1    3    3    0    0 -0.11568276048E+02 -0.29871248691E+02  0.13775616265E+03  0.14143152710E+03  0.00000000000E+00 0. -1.
          1    1    1    2  501    0 -0.18809732477E+02  0.18427046733E+02  0.36765097212E+02  0.45222057231E+02  0.00000000000E+00 0. -1.
<mgrwt>
<rscale>  1 0.85597147E+02</rscale>
<asrwt>0</asrwt>
<pdfrwt beam="1">  1       21 0.23197170E-02 0.85597147E+02</pdfrwt>
<pdfrwt beam="2">  1        2 0.32280073E-01 0.85597147E+02</pdfrwt>
<totfact> 0.17687007E+06</totfact>
</mgrwt>
</event>
<event>
 6    2  0.7993170E+000  0.8589994E+02  0.7546771E-02  0.1313096E+00
          4   -1    0    0  502    0 -0.00000000000E+00  0.00000000000E+00  0.17365465193E+02  0.17365465193E+02  0.00000000000E+00 0. -1.
         21   -1    0    0  501  502  0.00000000000E+00 -0.00000000000E+00 -0.28219611911E+03  0.28219611911E+03  0.00000000000E+00 0. -1.
         24    2    1    2    0    0 -0.31240123266E+02  0.20516952474E+02 -0.10622081733E+03  0.13660769235E+03  0.77342801437E+02 0.  0.
        -13    1    3    3    0    0 -0.54382737446E+02  0.13783691862E+02 -0.94280368985E+02  0.10970989139E+03  0.00000000000E+00 0.  1.
         14    1    3    3    0    0  0.23142614180E+02  0.67332606126E+01 -0.11940448343E+02  0.26897800954E+02  0.00000000000E+00 0. -1.
          3    1    1    2  501    0  0.31240123266E+02 -0.20516952474E+02 -0.15860983659E+03  0.16295389196E+03  0.00000000000E+00 0. -1.
<mgrwt>
<rscale>  1 0.85899939E+02</rscale>
<asrwt>0</asrwt>
<pdfrwt beam="1">  1       21 0.43414786E-01 0.85899939E+02</pdfrwt>
<pdfrwt beam="2">  1        4 0.26716101E-02 0.85899939E+02</pdfrwt>
<totfact> 0.12519165E+05</totfact>
</mgrwt>
</event>
<event>
 6    2  0.7993170E+000  0.8330025E+02  0.7546771E-02  0.1319938E+00
          4   -1    0    0  502    0 -0.00000000000E+00  0.00000000000E+00  0.20415295842E+03  0.20415295842E+03  0.00000000000E+00 0. -1.
         21   -1    0    0  501  502  0.00000000000E+00 -0.00000000000E+00 -0.19142961496E+02  0.19142961496E+02  0.00000000000E+00 0. -1.
         24    2    1    2    0    0 -0.22524135023E+02 -0.13461644124E+02  0.17738485146E+03  0.19597019277E+03  0.79059334707E+02 0.  0.
        -11    1    3    3    0    0  0.20049033041E+02  0.14829791316E+02  0.25297355442E+02  0.35522424308E+02  0.00000000000E+00 0.  1.
         12    1    3    3    0    0 -0.42573168064E+02 -0.28291435440E+02  0.15208749602E+03  0.16044776846E+03  0.00000000000E+00 0. -1.
          3    1    1    2  501    0  0.22524135023E+02  0.13461644124E+02  0.76251454662E+01  0.27325727153E+02  0.00000000000E+00 0. -1.
<mgrwt>
<rscale>  1 0.83300246E+02</rscale>
<asrwt>0</asrwt>
<pdfrwt beam="1">  1       21 0.29450711E-02 0.83300246E+02</pdfrwt>
<pdfrwt beam="2">  1        4 0.31408146E-01 0.83300246E+02</pdfrwt>
<totfact> 0.23220608E+05</totfact>
</mgrwt>
</event>
<event>
 6    2  0.7993170E+000  0.8599874E+02  0.7546771E-02  0.1312841E+00
          2   -1    0    0  502    0 -0.00000000000E+00  0.00000000000E+00  0.15734043428E+04  0.15734043428E+04  0.00000000000E+00 0. -1.
         21   -1    0    0  501  502  0.00000000000E+00 -0.00000000000E+00 -0.72496599058E+01  0.72496599058E+01  0.00000000000E+00 0. -1.
         24    2    1    2    0    0  0.28398247380E+02  0.45369916526E+01  0.15380188882E+04  0.15404213333E+04  0.81047755586E+02 0.  0.
        -11    1    3    3    0    0  0.34542256255E+02 -0.11832723122E+02  0.29124375383E+03  0.29352360203E+03  0.00000000000E+00 0.  1.
         12    1    3    3    0    0 -0.61440088744E+01  0.16369714775E+02  0.12467751344E+04  0.12468977312E+04  0.00000000000E+00 0. -1.
          1    1    1    2  501    0 -0.28398247380E+02 -0.45369916526E+01  0.28135794613E+02  0.40232669388E+02  0.00000000000E+00 0. -1.
<mgrwt>
<rscale>  1 0.85998741E+02</rscale>
<asrwt>0</asrwt>
<pdfrwt beam="1">  1       21 0.11153335E-02 0.85998741E+02</pdfrwt>
<pdfrwt beam="2">  1        2 0.24206193E+00 0.85998741E+02</pdfrwt>
<totfact> 0.49365461E+05</totfact>
</mgrwt>
</event>
<event>
 6    2  0.7993170E+000  0.9120183E+02  0.7546771E-02  0.1299967E+00
         21   -1    0    0  501  502  0.00000000000E+00  0.00000000000E+00  0.25615514648E+04  0.25615514648E+04  0.00000000000E+00 0.  1.
          4   -1    0    0  502    0 -0.00000000000E+00 -0.00000000000E+00 -0.16847732224E+01  0.16847732224E+01  0.00000000000E+00 0. -1.
         24    2    1    2    0    0 -0.39060324359E+02  0.93528008387E+01  0.17979939894E+04  0.18003055740E+04  0.81881560434E+02 0.  0.
        -11    1    3    3    0    0 -0.42984373318E+02  0.19512916595E+02  0.17635262854E+04  0.17641579774E+04  0.00000000000E+00 0.  1.
         12    1    3    3    0    0  0.39240489587E+01 -0.10160115757E+02  0.34467704089E+02  0.36147596568E+02  0.00000000000E+00 0. -1.
          3    1    1    2  501    0  0.39060324359E+02 -0.93528008387E+01  0.76187270216E+03  0.76293066403E+03  0.00000000000E+00 0. -1.
<mgrwt>
<rscale>  1 0.91201830E+02</rscale>
<asrwt>0</asrwt>
<pdfrwt beam="1">  1       21 0.39408172E+00 0.91201830E+02</pdfrwt>
<pdfrwt beam="2">  1        4 0.25919793E-03 0.91201830E+02</pdfrwt>
<totfact> 0.93556257E+03</totfact>
</mgrwt>
</event>
<event>
 6    2  0.7993170E+000  0.8612644E+02  0.7546771E-02  0.1312513E+00
          4   -1    0    0  502    0 -0.00000000000E+00  0.00000000000E+00  0.97333069064E+01  0.97333069064E+01  0.00000000000E+00 0. -1.
         21   -1    0    0  501  502  0.00000000000E+00 -0.00000000000E+00 -0.38348989488E+03  0.38348989488E+03  0.00000000000E+00 0.  1.
         24    2    1    2    0    0 -0.12702895968E+02  0.25310417409E+02 -0.33037235764E+03  0.34141420414E+03  0.81337465544E+02 0.  0.
        -13    1    3    3    0    0 -0.41045635800E+02  0.28169656575E+02 -0.13327906238E+03  0.14227291463E+03  0.00000000000E+00 0.  1.
         14    1    3    3    0    0  0.28342739831E+02 -0.28592391660E+01 -0.19709329526E+03  0.19914128951E+03  0.00000000000E+00 0. -1.
          3    1    1    2  501    0  0.12702895968E+02 -0.25310417409E+02 -0.43384230333E+02  0.51808997645E+02  0.00000000000E+00 0. -1.
<mgrwt>
<rscale>  1 0.86126442E+02</rscale>
<asrwt>0</asrwt>
<pdfrwt beam="1">  1       21 0.58998439E-01 0.86126442E+02</pdfrwt>
<pdfrwt beam="2">  1        4 0.14974320E-02 0.86126442E+02</pdfrwt>
<totfact> 0.16187197E+05</totfact>
</mgrwt>
</event>
<event>
 6    2  0.7993170E+000  0.1009913E+03  0.7546771E-02  0.1278225E+00
         21   -1    0    0  501  502  0.00000000000E+00  0.00000000000E+00  0.71345893544E+01  0.71345893544E+01  0.00000000000E+00 0.  1.
          2   -1    0    0  502    0 -0.00000000000E+00 -0.00000000000E+00 -0.11759525069E+04  0.11759525069E+04  0.00000000000E+00 0. -1.
         24    2    1    2    0    0  0.27048684846E+02 -0.52212473535E+02 -0.42030187723E+03  0.43226485607E+03  0.82106419032E+02 0.  0.
        -13    1    3    3    0    0  0.47648226254E+02 -0.61208263800E+02 -0.29898992238E+03  0.30888797113E+03  0.00000000000E+00 0.  1.
         14    1    3    3    0    0 -0.20599541408E+02  0.89957902648E+01 -0.12131195485E+03  0.12337688495E+03  0.00000000000E+00 0. -1.
          1    1    1    2  501    0 -0.27048684846E+02  0.52212473535E+02 -0.74851604029E+03  0.75082224016E+03  0.00000000000E+00 0. -1.
<mgrwt>
<rscale>  1 0.10099128E+03</rscale>
<asrwt>0</asrwt>
<pdfrwt beam="1">  1       21 0.10976302E-02 0.10099128E+03</pdfrwt>
<pdfrwt beam="2">  1        2 0.18091559E+00 0.10099128E+03</pdfrwt>
<totfact> 0.82450068E+05</totfact>
</mgrwt>
</event>
<event>
 6    2  0.7993170E+000  0.1028617E+03  0.7546771E-02  0.1274391E+00
          2   -1    0    0  502    0 -0.00000000000E+00  0.00000000000E+00  0.57300885527E+03  0.57300885527E+03  0.00000000000E+00 0. -1.
         21   -1    0    0  501  502  0.00000000000E+00 -0.00000000000E+00 -0.12451292862E+02  0.12451292862E+02  0.00000000000E+00 0.  1.
         24    2    1    2    0    0 -0.73363374957E+01 -0.65141664329E+02  0.36435193459E+03  0.37859326662E+03  0.79267086554E+02 0.  0.
        -11    1    3    3    0    0 -0.14682520162E+00 -0.78856794880E+02  0.22570017686E+03  0.23907945435E+03  0.00000000000E+00 0.  1.
         12    1    3    3    0    0 -0.71895122941E+01  0.13715130551E+02  0.13865175773E+03  0.13951381227E+03  0.00000000000E+00 0. -1.
          1    1    1    2  501    0  0.73363374957E+01  0.65141664329E+02  0.19620562782E+03  0.20686688151E+03  0.00000000000E+00 0. -1.
<mgrwt>
<rscale>  1 0.10286170E+03</rscale>
<asrwt>0</asrwt>
<pdfrwt beam="1">  1       21 0.19155840E-02 0.10286170E+03</pdfrwt>
<pdfrwt beam="2">  1        2 0.88155188E-01 0.10286170E+03</pdfrwt>
<totfact> 0.84453815E+05</totfact>
</mgrwt>
</event>
<event>
 6    2  0.7993170E+000  0.1074750E+03  0.7546771E-02  0.1265318E+00
          2   -1    0    0  502    0 -0.00000000000E+00  0.00000000000E+00  0.18815334937E+04  0.18815334937E+04  0.00000000000E+00 0. -1.
         21   -1    0    0  501  502  0.00000000000E+00 -0.00000000000E+00 -0.79786141502E+01  0.79786141502E+01  0.00000000000E+00 0.  1.
         24    2    1    2    0    0  0.19775743043E+02  0.69011149668E+02  0.16738359487E+04  0.16772828212E+04  0.79982874322E+02 0.  0.
        -13    1    3    3    0    0  0.10102276306E+02  0.83762487280E+02  0.15370944757E+04  0.15394082102E+04  0.00000000000E+00 0.  1.
         14    1    3    3    0    0  0.96734667369E+01 -0.14751337612E+02  0.13674147298E+03  0.13787461098E+03  0.00000000000E+00 0. -1.
          1    1    1    2  501    0 -0.19775743043E+02 -0.69011149668E+02  0.19971893083E+03  0.21222928667E+03  0.00000000000E+00 0. -1.
<mgrwt>
<rscale>  1 0.10747502E+03</rscale>
<asrwt>0</asrwt>
<pdfrwt beam="1">  1       21 0.12274806E-02 0.10747502E+03</pdfrwt>
<pdfrwt beam="2">  1        2 0.28946634E+00 0.10747502E+03</pdfrwt>
<totfact> 0.29896255E+05</totfact>
</mgrwt>
</event>
<event>
 6    2  0.7993170E+000  0.9032891E+02  0.7546771E-02  0.1302057E+00
          2   -1    0    0  502    0 -0.00000000000E+00  0.00000000000E+00  0.37607364489E+04  0.37607364489E+04  0.00000000000E+00 0. -1.
         21   -1    0    0  501  502  0.00000000000E+00 -0.00000000000E+00 -0.13202178661E+01  0.13202178661E+01  0.00000000000E+00 0.  1.
         24    2    1    2    0    0 -0.30259457134E+02  0.29452158238E+02  0.18829517496E+04  0.18851171327E+04  0.79851414470E+02 0.  0.
        -11    1    3    3    0    0 -0.21507852679E+02  0.74989742600E+01  0.12829952147E+03  0.13030575410E+03  0.00000000000E+00 0.  1.
         12    1    3    3    0    0 -0.87516044547E+01  0.21953183978E+02  0.17546522281E+04  0.17548113786E+04  0.00000000000E+00 0. -1.
          1    1    1    2  501    0  0.30259457134E+02 -0.29452158238E+02  0.18764644814E+04  0.18769395340E+04  0.00000000000E+00 0. -1.
<mgrwt>
<rscale>  1 0.90328914E+02</rscale>
<asrwt>0</asrwt>
<pdfrwt beam="1">  1       21 0.20311345E-03 0.90328914E+02</pdfrwt>
<pdfrwt beam="2">  1        2 0.57856626E+00 0.90328914E+02</pdfrwt>
<totfact> 0.40876122E+05</totfact>
</mgrwt>
</event>
<event>
 6    2  0.7993170E+000  0.8862751E+02  0.7546771E-02  0.1306210E+00
         21   -1    0    0  501  502  0.00000000000E+00  0.00000000000E+00  0.97313750667E+00  0.97313750667E+00  0.00000000000E+00 0. -1.
          2   -1    0    0  502    0 -0.00000000000E+00 -0.00000000000E+00 -0.40466505374E+04  0.40466505374E+04  0.00000000000E+00 0. -1.
         24    2    1    2    0    0 -0.34125647759E+02  0.10608559309E+02 -0.26205182173E+04  0.26220165070E+04  0.81103234100E+02 0.  0.
        -11    1    3    3    0    0  0.10001612144E+02 -0.27582537123E+02 -0.10645882289E+04  0.10649924534E+04  0.00000000000E+00 0.  1.
         12    1    3    3    0    0 -0.44127259903E+02  0.38191096431E+02 -0.15559299884E+04  0.15570240536E+04  0.00000000000E+00 0. -1.
          1    1    1    2  501    0  0.34125647759E+02 -0.10608559309E+02 -0.14251591826E+04  0.14256071679E+04  0.00000000000E+00 0. -1.
<mgrwt>
<rscale>  1 0.88627512E+02</rscale>
<asrwt>0</asrwt>
<pdfrwt beam="1">  1       21 0.14971218E-03 0.88627512E+02</pdfrwt>
<pdfrwt beam="2">  1        2 0.62256696E+00 0.88627512E+02</pdfrwt>
<totfact> 0.40223255E+05</totfact>
</mgrwt>
</event>
<event>
 6    2  0.7993170E+000  0.1027322E+03  0.7546771E-02  0.1274653E+00
          2   -1    0    0  502    0 -0.00000000000E+00  0.00000000000E+00  0.49461839803E+03  0.49461839803E+03  0.00000000000E+00 0. -1.
         21   -1    0    0  501  502  0.00000000000E+00 -0.00000000000E+00 -0.22461716821E+02  0.22461716821E+02  0.00000000000E+00 0.  1.
         24    2    1    2    0    0  0.29500760352E+02 -0.56004836709E+02  0.42735610108E+03  0.43953059148E+03  0.80913948822E+02 0.  0.
        -11    1    3    3    0    0  0.13931709434E+02 -0.34037833649E+02  0.54769806709E+02  0.65972709314E+02  0.00000000000E+00 0.  1.
         12    1    3    3    0    0  0.15569050917E+02 -0.21967003060E+02  0.37258629437E+03  0.37355788216E+03  0.00000000000E+00 0. -1.
          1    1    1    2  501    0 -0.29500760352E+02  0.56004836709E+02  0.44800580124E+02  0.77549523374E+02  0.00000000000E+00 0. -1.
<mgrwt>
<rscale>  1 0.10273219E+03</rscale>
<asrwt>0</asrwt>
<pdfrwt beam="1">  1       21 0.34556491E-02 0.10273219E+03</pdfrwt>
<pdfrwt beam="2">  1        2 0.76095130E-01 0.10273219E+03</pdfrwt>
<totfact> 0.38140527E+05</totfact>
</mgrwt>
</event>
<event>
 6    2  0.7993170E+000  0.8005823E+02  0.7546771E-02  0.1328886E+00
          2   -1    0    0  502    0 -0.00000000000E+00  0.00000000000E+00  0.19902220373E+04  0.19902220373E+04  0.00000000000E+00 0. -1.
         21   -1    0    0  501  502  0.00000000000E+00 -0.00000000000E+00 -0.13938797813E+01  0.13938797813E+01  0.00000000000E+00 0.  1.
         24    2    1    2    0    0  0.10841053261E+02  0.21422967147E+02  0.16477553469E+04  0.16496990645E+04  0.76373085012E+02 0.  0.
        -13    1    3    3    0    0  0.11262534694E+02  0.15309000189E+02  0.92532361931E+02  0.94464004674E+02  0.00000000000E+00 0.  1.
         14    1    3    3    0    0 -0.42148143337E+00  0.61139669580E+01  0.15552229850E+04  0.15552350598E+04  0.00000000000E+00 0. -1.
          1    1    1    2  501    0 -0.10841053261E+02 -0.21422967147E+02  0.34107281063E+03  0.34191685262E+03  0.00000000000E+00 0. -1.
<mgrwt>
<rscale>  1 0.80058229E+02</rscale>
<asrwt>0</asrwt>
<pdfrwt beam="1">  1       21 0.21444464E-03 0.80058229E+02</pdfrwt>
<pdfrwt beam="2">  1        2 0.30618573E+00 0.80058229E+02</pdfrwt>
<totfact> 0.37852078E+06</totfact>
</mgrwt>
</event>
<event>
 6    2  0.7993170E+000  0.8829149E+02  0.7546771E-02  0.1307043E+00
         21   -1    0    0  501  502  0.00000000000E+00  0.00000000000E+00  0.14716939193E+02  0.14716939193E+02  0.00000000000E+00 0. -1.
          4   -1    0    0  502    0 -0.00000000000E+00 -0.00000000000E+00 -0.26870923734E+03  0.26870923734E+03  0.00000000000E+00 0. -1.
         24    2    1    2    0    0 -0.25204795692E+02  0.23309227168E+02 -0.20858173150E+03  0.22649884250E+03  0.81343623851E+02 0.  0.
        -11    1    3    3    0    0  0.25442697660E+02  0.79364213206E+01 -0.29487677551E+02  0.39747210908E+02  0.00000000000E+00 0.  1.
         12    1    3    3    0    0 -0.50647493353E+02  0.15372805847E+02 -0.17909405395E+03  0.18675163159E+03  0.00000000000E+00 0. -1.
          3    1    1    2  501    0  0.25204795692E+02 -0.23309227168E+02 -0.45410566650E+02  0.56927334037E+02  0.00000000000E+00 0. -1.
<mgrwt>
<rscale>  1 0.88291488E+02</rscale>
<asrwt>0</asrwt>
<pdfrwt beam="1">  1       21 0.22641447E-02 0.88291488E+02</pdfrwt>
<pdfrwt beam="2">  1        4 0.41339879E-01 0.88291488E+02</pdfrwt>
<totfact> 0.21190176E+05</totfact>
</mgrwt>
</event>
<event>
 6    2  0.7993170E+000  0.8536101E+02  0.7546771E-02  0.1314491E+00
          2   -1    0    0  502    0 -0.00000000000E+00  0.00000000000E+00  0.19224944584E+04  0.19224944584E+04  0.00000000000E+00 0. -1.
         21   -1    0    0  501  502  0.00000000000E+00 -0.00000000000E+00 -0.18325637965E+01  0.18325637965E+01  0.00000000000E+00 0.  1.
         24    2    1    2    0    0  0.18345041908E+02  0.21932110702E+02  0.16379819492E+04  0.16402046725E+04  0.80429744907E+02 0.  0.
        -13    1    3    3    0    0 -0.26179538141E+02 -0.10392372636E+02  0.39336168571E+03  0.39436884438E+03  0.00000000000E+00 0.  1.
         14    1    3    3    0    0  0.44524580050E+02  0.32324483338E+02  0.12446202635E+04  0.12458358282E+04  0.00000000000E+00 0. -1.
          1    1    1    2  501    0 -0.18345041908E+02 -0.21932110702E+02  0.28267994537E+03  0.28412234963E+03  0.00000000000E+00 0. -1.
<mgrwt>
<rscale>  1 0.85361009E+02</rscale>
<asrwt>0</asrwt>
<pdfrwt beam="1">  1       21 0.28193443E-03 0.85361009E+02</pdfrwt>
<pdfrwt beam="2">  1        2 0.29576676E+00 0.85361009E+02</pdfrwt>
<totfact> 0.27264603E+06</totfact>
</mgrwt>
</event>
<event>
 6    2  0.7993170E+000  0.7489353E+02  0.7546771E-02  0.1344201E+00
         21   -1    0    0  501  502  0.00000000000E+00  0.00000000000E+00  0.22121958767E+03  0.22121958767E+03  0.00000000000E+00 0. -1.
          2   -1    0    0  502    0 -0.00000000000E+00 -0.00000000000E+00 -0.33222911151E+02  0.33222911151E+02  0.00000000000E+00 0. -1.
         24    2    1    2    0    0 -0.17966017465E+02 -0.11789940680E+02  0.10472192389E+02  0.75622133789E+02  0.71744406198E+02 0.  0.
        -11    1    3    3    0    0 -0.11344030937E+02  0.29787677560E+01  0.40144405149E+02  0.41822641715E+02  0.00000000000E+00 0.  1.
         12    1    3    3    0    0 -0.66219865274E+01 -0.14768708436E+02 -0.29672212760E+02  0.33799492074E+02  0.00000000000E+00 0. -1.
          1    1    1    2  501    0  0.17966017465E+02  0.11789940680E+02  0.17752448413E+03  0.17882036503E+03  0.00000000000E+00 0. -1.
<mgrwt>
<rscale>  1 0.74893526E+02</rscale>
<asrwt>0</asrwt>
<pdfrwt beam="1">  1       21 0.34033782E-01 0.74893526E+02</pdfrwt>
<pdfrwt beam="2">  1        2 0.51112172E-02 0.74893526E+02</pdfrwt>
<totfact> 0.14484093E+05</totfact>
</mgrwt>
</event>
<event>
 6    2  0.7993170E+000  0.8423606E+02  0.7546771E-02  0.1317443E+00
          2   -1    0    0  502    0 -0.00000000000E+00  0.00000000000E+00  0.29567733084E+04  0.29567733084E+04  0.00000000000E+00 0. -1.
         21   -1    0    0  501  502  0.00000000000E+00 -0.00000000000E+00 -0.12464840398E+01  0.12464840398E+01  0.00000000000E+00 0.  1.
         24    2    1    2    0    0  0.29123614691E+02 -0.29146669017E+01  0.16348771995E+04  0.16370458669E+04  0.78987548345E+02 0.  0.
        -13    1    3    3    0    0  0.21427928583E+02 -0.55284997073E+01  0.11297593807E+03  0.11512290395E+03  0.00000000000E+00 0.  1.
         14    1    3    3    0    0  0.76956861079E+01  0.26138328055E+01  0.15219012614E+04  0.15219229630E+04  0.00000000000E+00 0. -1.
          1    1    1    2  501    0 -0.29123614691E+02  0.29146669017E+01  0.13206496249E+04  0.13209739255E+04  0.00000000000E+00 0. -1.
<mgrwt>
<rscale>  1 0.84236055E+02</rscale>
<asrwt>0</asrwt>
<pdfrwt beam="1">  1       21 0.19176914E-03 0.84236055E+02</pdfrwt>
<pdfrwt beam="2">  1        2 0.45488259E+00 0.84236055E+02</pdfrwt>
<totfact> 0.13973425E+06</totfact>
</mgrwt>
</event>
<event>
 6    2  0.7993170E+000  0.8384186E+02  0.7546771E-02  0.1318489E+00
         -1   -1    0    0    0  501 -0.00000000000E+00  0.00000000000E+00  0.34305663083E+03  0.34305663083E+03  0.00000000000E+00 0.  1.
         21   -1    0    0  501  502  0.00000000000E+00 -0.00000000000E+00 -0.10912884973E+02  0.10912884973E+02  0.00000000000E+00 0. -1.
         24    2    1    2    0    0 -0.21073103737E+01  0.21087212665E+02  0.16103732183E+03  0.18155571230E+03  0.81119334017E+02 0.  0.
        -11    1    3    3    0    0  0.17787350725E+02  0.45709367754E+02  0.12066651729E+03  0.13025415364E+03  0.00000000000E+00 0.  1.
         12    1    3    3    0    0 -0.19894661098E+02 -0.24622155089E+02  0.40370804542E+02  0.51301558659E+02  0.00000000000E+00 0. -1.
         -2    1    1    2    0  502  0.21073103737E+01 -0.21087212665E+02  0.17110642402E+03  0.17241380350E+03  0.00000000000E+00 0.  1.
<mgrwt>
<rscale>  1 0.83841861E+02</rscale>
<asrwt>0</asrwt>
<pdfrwt beam="1">  1       21 0.16789056E-02 0.83841861E+02</pdfrwt>
<pdfrwt beam="2">  1       -1 0.52777935E-01 0.83841861E+02</pdfrwt>
<totfact> 0.52133948E+05</totfact>
</mgrwt>
</event>
<event>
 6    2  0.7993170E+000  0.8380697E+02  0.7546771E-02  0.1318582E+00
          4   -1    0    0  502    0 -0.00000000000E+00  0.00000000000E+00  0.12513797245E+03  0.12513797245E+03  0.00000000000E+00 0. -1.
         21   -1    0    0  501  502  0.00000000000E+00 -0.00000000000E+00 -0.22366243289E+02  0.22366243289E+02  0.00000000000E+00 0.  1.
         24    2    1    2    0    0 -0.12812702860E+02  0.16587057304E+02  0.73299691559E+02  0.11133935953E+03  0.81143775931E+02 0.  0.
        -11    1    3    3    0    0  0.99986665513E+01  0.15886851711E+02 -0.12502481068E+02  0.22553878224E+02  0.00000000000E+00 0.  1.
         12    1    3    3    0    0 -0.22811369411E+02  0.70020559278E+00  0.85802172627E+02  0.88785481301E+02  0.00000000000E+00 0. -1.
          3    1    1    2  501    0  0.12812702860E+02 -0.16587057304E+02  0.29472037603E+02  0.36164856215E+02  0.00000000000E+00 0. -1.
<mgrwt>
<rscale>  1 0.83806970E+02</rscale>
<asrwt>0</asrwt>
<pdfrwt beam="1">  1       21 0.34409606E-02 0.83806970E+02</pdfrwt>
<pdfrwt beam="2">  1        4 0.19251995E-01 0.83806970E+02</pdfrwt>
<totfact> 0.44079229E+05</totfact>
</mgrwt>
</event>
<event>
 6    2  0.7993170E+000  0.8938550E+02  0.7546771E-02  0.1304347E+00
          2   -1    0    0  502    0 -0.00000000000E+00  0.00000000000E+00  0.12397919786E+04  0.12397919786E+04  0.00000000000E+00 0. -1.
         21   -1    0    0  501  502  0.00000000000E+00 -0.00000000000E+00 -0.72983488624E+01  0.72983488624E+01  0.00000000000E+00 0. -1.
         24    2    1    2    0    0 -0.28832612493E+02  0.24700460564E+02  0.11737317507E+04  0.11771304052E+04  0.80921789157E+02 0.  0.
        -11    1    3    3    0    0 -0.30162784594E+02 -0.21367361331E+02  0.31473588545E+03  0.31689909324E+03  0.00000000000E+00 0.  1.
         12    1    3    3    0    0  0.13301721004E+01  0.46067821896E+02  0.85899586525E+03  0.86023131197E+03  0.00000000000E+00 0. -1.
          1    1    1    2  501    0  0.28832612493E+02 -0.24700460564E+02  0.58761879082E+02  0.69959922302E+02  0.00000000000E+00 0. -1.
<mgrwt>
<rscale>  1 0.89385504E+02</rscale>
<asrwt>0</asrwt>
<pdfrwt beam="1">  1       21 0.11228239E-02 0.89385504E+02</pdfrwt>
<pdfrwt beam="2">  1        2 0.19073706E+00 0.89385504E+02</pdfrwt>
<totfact> 0.72897578E+05</totfact>
</mgrwt>
</event>
<event>
 6    2  0.7993170E+000  0.8287482E+02  0.7546771E-02  0.1321086E+00
         21   -1    0    0  501  502  0.00000000000E+00  0.00000000000E+00  0.23778867172E+01  0.23778867172E+01  0.00000000000E+00 0. -1.
          2   -1    0    0  502    0 -0.00000000000E+00 -0.00000000000E+00 -0.13935238523E+04  0.13935238523E+04  0.00000000000E+00 0. -1.
         24    2    1    2    0    0 -0.49244900459E+01  0.20420653048E+02 -0.12865966422E+04  0.12892630279E+04  0.80168459551E+02 0.  0.
        -11    1    3    3    0    0  0.14017870904E+02  0.42945752768E+02 -0.47775494981E+03  0.47988605987E+03  0.00000000000E+00 0.  1.
         12    1    3    3    0    0 -0.18942360949E+02 -0.22525099720E+02 -0.80884169235E+03  0.80937696807E+03  0.00000000000E+00 0. -1.
          1    1    1    2  501    0  0.49244900459E+01 -0.20420653048E+02 -0.10454932338E+03  0.10663871104E+03  0.00000000000E+00 0. -1.
<mgrwt>
<rscale>  1 0.82874819E+02</rscale>
<asrwt>0</asrwt>
<pdfrwt beam="1">  1       21 0.36582816E-03 0.82874819E+02</pdfrwt>
<pdfrwt beam="2">  1        2 0.21438862E+00 0.82874819E+02</pdfrwt>
<totfact> 0.33881617E+06</totfact>
</mgrwt>
</event>
<event>
 6    2  0.7993170E+000  0.8296196E+02  0.7546771E-02  0.1320850E+00
         -1   -1    0    0    0  501 -0.00000000000E+00  0.00000000000E+00  0.13101094332E+03  0.13101094332E+03  0.00000000000E+00 0.  1.
         21   -1    0    0  501  502  0.00000000000E+00 -0.00000000000E+00 -0.21935861006E+02  0.21935861006E+02  0.00000000000E+00 0. -1.
         24    2    1    2    0    0 -0.17608380773E+02  0.12583625295E+02  0.98730888541E+02  0.12895920245E+03  0.80089230515E+02 0.  0.
        -11    1    3    3    0    0  0.67455908159E+01  0.39785121757E+02  0.75721958499E+02  0.85803111293E+02  0.00000000000E+00 0.  1.
         12    1    3    3    0    0 -0.24353971589E+02 -0.27201496462E+02  0.23008930043E+02  0.43156091153E+02  0.00000000000E+00 0. -1.
         -2    1    1    2    0  502  0.17608380773E+02 -0.12583625295E+02  0.10344193771E+02  0.23987601877E+02  0.00000000000E+00 0.  1.
<mgrwt>
<rscale>  1 0.82961964E+02</rscale>
<asrwt>0</asrwt>
<pdfrwt beam="1">  1       21 0.33747479E-02 0.82961964E+02</pdfrwt>
<pdfrwt beam="2">  1       -1 0.20155529E-01 0.82961964E+02</pdfrwt>
<totfact> 0.85881524E+05</totfact>
</mgrwt>
</event>
<event>
 6    2  0.7993170E+000  0.8650489E+02  0.7546771E-02  0.1311543E+00
         -1   -1    0    0    0  501 -0.00000000000E+00  0.00000000000E+00  0.13191034968E+04  0.13191034968E+04  0.00000000000E+00 0.  1.
         21   -1    0    0  501  502  0.00000000000E+00 -0.00000000000E+00 -0.60869440964E+01  0.60869440964E+01  0.00000000000E+00 0.  1.
         24    2    1    2    0    0  0.20004137711E+02  0.24548694919E+02  0.12632152940E+04  0.12661737541E+04  0.80500265171E+02 0.  0.
        -11    1    3    3    0    0  0.49914601681E+02  0.70094380747E+01  0.85717328075E+03  0.85865396575E+03  0.00000000000E+00 0.  1.
         12    1    3    3    0    0 -0.29910463970E+02  0.17539256844E+02  0.40604201327E+03  0.40751978839E+03  0.00000000000E+00 0. -1.
         -2    1    1    2    0  502 -0.20004137711E+02 -0.24548694919E+02  0.49801258638E+02  0.59016686706E+02  0.00000000000E+00 0.  1.
<mgrwt>
<rscale>  1 0.86504894E+02</rscale>
<asrwt>0</asrwt>
<pdfrwt beam="1">  1       21 0.93645399E-03 0.86504894E+02</pdfrwt>
<pdfrwt beam="2">  1       -1 0.20293877E+00 0.86504894E+02</pdfrwt>
<totfact> 0.61651715E+04</totfact>
</mgrwt>
</event>
<event>
 6    2  0.7993170E+000  0.9232188E+02  0.7546771E-02  0.1297324E+00
          2   -1    0    0  502    0 -0.00000000000E+00  0.00000000000E+00  0.27578843747E+04  0.27578843747E+04  0.00000000000E+00 0. -1.
         21   -1    0    0  501  502  0.00000000000E+00 -0.00000000000E+00 -0.17580295176E+01  0.17580295176E+01  0.00000000000E+00 0. -1.
         24    2    1    2    0    0  0.44499555832E+02  0.91139927252E+01  0.20282987340E+04  0.20303987502E+04  0.80374468055E+02 0.  0.
        -13    1    3    3    0    0  0.12125871295E+02  0.10618490163E+02  0.69992455334E+02  0.71824319639E+02  0.00000000000E+00 0.  1.
         14    1    3    3    0    0  0.32373684537E+02 -0.15044974382E+01  0.19583062787E+04  0.19585744306E+04  0.00000000000E+00 0. -1.
          1    1    1    2  501    0 -0.44499555832E+02 -0.91139927252E+01  0.72782761118E+03  0.72924365402E+03  0.00000000000E+00 0. -1.
<mgrwt>
<rscale>  1 0.92321885E+02</rscale>
<asrwt>0</asrwt>
<pdfrwt beam="1">  1       21 0.27046828E-03 0.92321885E+02</pdfrwt>
<pdfrwt beam="2">  1        2 0.42428644E+00 0.92321885E+02</pdfrwt>
<totfact> 0.10773358E+06</totfact>
</mgrwt>
</event>
<event>
 6    2  0.7993170E+000  0.8072533E+02  0.7546771E-02  0.1327006E+00
          2   -1    0    0  502    0 -0.00000000000E+00  0.00000000000E+00  0.21116169551E+03  0.21116169551E+03  0.00000000000E+00 0. -1.
         21   -1    0    0  501  502  0.00000000000E+00 -0.00000000000E+00 -0.32710159494E+03  0.32710159494E+03  0.00000000000E+00 0. -1.
         24    2    1    2    0    0 -0.14161188592E+02 -0.21679967768E+02  0.20290240286E+03  0.21837116177E+03  0.76459263272E+02 0.  0.
        -11    1    3    3    0    0  0.13799341707E+02 -0.29914377415E+02  0.35423484544E+02  0.48374735813E+02  0.00000000000E+00 0.  1.
         12    1    3    3    0    0 -0.27960530299E+02  0.82344096471E+01  0.16747891832E+03  0.16999642595E+03  0.00000000000E+00 0. -1.
          1    1    1    2  501    0  0.14161188592E+02  0.21679967768E+02 -0.31884230229E+03  0.31989212868E+03  0.00000000000E+00 0. -1.
<mgrwt>
<rscale>  1 0.80725332E+02</rscale>
<asrwt>0</asrwt>
<pdfrwt beam="1">  1       21 0.50323322E-01 0.80725332E+02</pdfrwt>
<pdfrwt beam="2">  1        2 0.32486415E-01 0.80725332E+02</pdfrwt>
<totfact> 0.76803872E+03</totfact>
</mgrwt>
</event>
<event>
 6    2  0.7993170E+000  0.9683333E+02  0.7546771E-02  0.1287100E+00
          2   -1    0    0  502    0 -0.00000000000E+00  0.00000000000E+00  0.58713721267E+02  0.58713721267E+02  0.00000000000E+00 0. -1.
         21   -1    0    0  501  502  0.00000000000E+00 -0.00000000000E+00 -0.29140195152E+03  0.29140195152E+03  0.00000000000E+00 0. -1.
         24    2    1    2    0    0  0.57911549558E+02 -0.51514504107E+01  0.12945625346E+02  0.97694841574E+02  0.77436476166E+02 0.  0.
        -13    1    3    3    0    0 -0.71184480413E+00 -0.21761989768E+02 -0.18999211807E+02  0.28897421528E+02  0.00000000000E+00 0.  1.
         14    1    3    3    0    0  0.58623394362E+02  0.16610539357E+02  0.31944837153E+02  0.68797420046E+02  0.00000000000E+00 0. -1.
          1    1    1    2  501    0 -0.57911549558E+02  0.51514504107E+01 -0.24563385560E+03  0.25242083121E+03  0.00000000000E+00 0. -1.
<mgrwt>
<rscale>  1 0.96833325E+02</rscale>
<asrwt>0</asrwt>
<pdfrwt beam="1">  1       21 0.44831071E-01 0.96833325E+02</pdfrwt>
<pdfrwt beam="2">  1        2 0.90328798E-02 0.96833325E+02</pdfrwt>
<totfact> 0.41656599E+04</totfact>
</mgrwt>
</event>
<event>
 6    2  0.7993170E+000  0.8481236E+02  0.7546771E-02  0.1315924E+00
         21   -1    0    0  501  502  0.00000000000E+00  0.00000000000E+00  0.12110995243E+03  0.12110995243E+03  0.00000000000E+00 0.  1.
         -1   -1    0    0    0  501 -0.00000000000E+00 -0.00000000000E+00 -0.25676649177E+02  0.25676649177E+02  0.00000000000E+00 0.  1.
         24    2    1    2    0    0  0.96948951361E+01  0.20513257307E+02  0.57102151255E+02  0.10224379152E+03  0.81721187638E+02 0.  0.
        -11    1    3    3    0    0  0.40823207241E+02  0.21755024970E+02  0.12640230912E+02  0.47954048822E+02  0.00000000000E+00 0.  1.
         12    1    3    3    0    0 -0.31128312105E+02 -0.12417676630E+01  0.44461920344E+02  0.54289742697E+02  0.00000000000E+00 0. -1.
         -2    1    1    2    0  502 -0.96948951361E+01 -0.20513257307E+02  0.38331151998E+02  0.44542810088E+02  0.00000000000E+00 0.  1.
<mgrwt>
<rscale>  1 0.84812365E+02</rscale>
<asrwt>0</asrwt>
<pdfrwt beam="1">  1       21 0.18632300E-01 0.84812365E+02</pdfrwt>
<pdfrwt beam="2">  1       -1 0.39502538E-02 0.84812365E+02</pdfrwt>
<totfact> 0.53761102E+05</totfact>
</mgrwt>
</event>
<event>
 6    2  0.7993170E+000  0.8866912E+02  0.7546771E-02  0.1306107E+00
         -1   -1    0    0    0  501 -0.00000000000E+00  0.00000000000E+00  0.30695679430E+03  0.30695679430E+03  0.00000000000E+00 0.  1.
         21   -1    0    0  501  502  0.00000000000E+00 -0.00000000000E+00 -0.47672188691E+02  0.47672188691E+02  0.00000000000E+00 0. -1.
         24    2    1    2    0    0 -0.22274299461E+02  0.29816017949E+02 -0.39686905327E+01  0.88757891534E+02  0.80480267533E+02 0.  0.
        -11    1    3    3    0    0  0.18786979503E+02  0.13992724769E+02  0.26397610292E+02  0.35292786437E+02  0.00000000000E+00 0.  1.
         12    1    3    3    0    0 -0.41061278965E+02  0.15823293179E+02 -0.30366300825E+02  0.53465105097E+02  0.00000000000E+00 0. -1.
         -2    1    1    2    0  502  0.22274299461E+02 -0.29816017949E+02  0.26325329614E+03  0.26587109146E+03  0.00000000000E+00 0.  1.
<mgrwt>
<rscale>  1 0.88669120E+02</rscale>
<asrwt>0</asrwt>
<pdfrwt beam="1">  1       21 0.73341831E-02 0.88669120E+02</pdfrwt>
<pdfrwt beam="2">  1       -1 0.47224121E-01 0.88669120E+02</pdfrwt>
<totfact> 0.57251839E+04</totfact>
</mgrwt>
</event>
<event>
 6    2  0.7993170E+000  0.8703358E+02  0.7546771E-02  0.1310199E+00
         21   -1    0    0  501  502  0.00000000000E+00  0.00000000000E+00  0.15160029898E+01  0.15160029898E+01  0.00000000000E+00 0. -1.
          2   -1    0    0  502    0 -0.00000000000E+00 -0.00000000000E+00 -0.45507417180E+04  0.45507417180E+04  0.00000000000E+00 0. -1.
         24    2    1    2    0    0 -0.32435876253E+02  0.14721304296E+01 -0.43054006782E+04  0.43062802793E+04  0.80750176190E+02 0.  0.
        -11    1    3    3    0    0  0.22284578959E+02 -0.18299972365E+02 -0.14645283535E+04  0.14648122028E+04  0.00000000000E+00 0.  1.
         12    1    3    3    0    0 -0.54720455212E+02  0.19772102795E+02 -0.28408723247E+04  0.28414680765E+04  0.00000000000E+00 0. -1.
          1    1    1    2  501    0  0.32435876253E+02 -0.14721304296E+01 -0.24382503681E+03  0.24597744167E+03  0.00000000000E+00 0. -1.
<mgrwt>
<rscale>  1 0.87033581E+02</rscale>
<asrwt>0</asrwt>
<pdfrwt beam="1">  1       21 0.23323028E-03 0.87033581E+02</pdfrwt>
<pdfrwt beam="2">  1        2 0.70011696E+00 0.87033581E+02</pdfrwt>
<totfact> 0.79470383E+04</totfact>
</mgrwt>
</event>
<event>
 6    2  0.7993170E+000  0.9548049E+02  0.7546771E-02  0.1290098E+00
         21   -1    0    0  501  502  0.00000000000E+00  0.00000000000E+00  0.14104752409E+03  0.14104752409E+03  0.00000000000E+00 0. -1.
          2   -1    0    0  502    0 -0.00000000000E+00 -0.00000000000E+00 -0.51537882446E+02  0.51537882446E+02  0.00000000000E+00 0. -1.
         24    2    1    2    0    0  0.27754508697E+02  0.43143763416E+02  0.73990034362E+01  0.95766741074E+02  0.80528419638E+02 0.  0.
        -11    1    3    3    0    0  0.35139600550E+02 -0.13392175000E+02 -0.33211654603E+01  0.37751450543E+02  0.00000000000E+00 0.  1.
         12    1    3    3    0    0 -0.73850918529E+01  0.56535938416E+02  0.10720168897E+02  0.58015290531E+02  0.00000000000E+00 0. -1.
          1    1    1    2  501    0 -0.27754508697E+02 -0.43143763416E+02  0.82110638209E+02  0.96818665462E+02  0.00000000000E+00 0. -1.
<mgrwt>
<rscale>  1 0.95480487E+02</rscale>
<asrwt>0</asrwt>
<pdfrwt beam="1">  1       21 0.21699619E-01 0.95480487E+02</pdfrwt>
<pdfrwt beam="2">  1        2 0.79289050E-02 0.95480487E+02</pdfrwt>
<totfact> 0.19763019E+05</totfact>
</mgrwt>
</event>
<event>
 6    2  0.7993170E+000  0.1127823E+03  0.7546771E-02  0.1255503E+00
         -1   -1    0    0    0  501 -0.00000000000E+00  0.00000000000E+00  0.58213174404E+03  0.58213174404E+03  0.00000000000E+00 0.  1.
         21   -1    0    0  501  502  0.00000000000E+00 -0.00000000000E+00 -0.29606626576E+02  0.29606626576E+02  0.00000000000E+00 0.  1.
         24    2    1    2    0    0 -0.66716214876E+02 -0.42306804837E+02  0.50939748502E+03  0.52173330552E+03  0.80491771512E+02 0.  0.
        -11    1    3    3    0    0 -0.47637142936E+02 -0.51656676896E+02  0.48183616622E+03  0.48693305570E+03  0.00000000000E+00 0.  1.
         12    1    3    3    0    0 -0.19079071940E+02  0.93498720587E+01  0.27561318800E+02  0.34800249821E+02  0.00000000000E+00 0. -1.
         -2    1    1    2    0  502  0.66716214876E+02  0.42306804837E+02  0.43127632447E+02  0.90005065098E+02  0.00000000000E+00 0.  1.
<mgrwt>
<rscale>  1 0.11278229E+03</rscale>
<asrwt>0</asrwt>
<pdfrwt beam="1">  1       21 0.45548661E-02 0.11278229E+03</pdfrwt>
<pdfrwt beam="2">  1       -1 0.89558721E-01 0.11278229E+03</pdfrwt>
<totfact> 0.37453448E+04</totfact>
</mgrwt>
</event>
<event>
 6    2  0.7993170E+000  0.9710975E+02  0.7546771E-02  0.1286494E+00
         21   -1    0    0  501  502  0.00000000000E+00  0.00000000000E+00  0.17181589485E+03  0.17181589485E+03  0.00000000000E+00 0. -1.
          2   -1    0    0  502    0 -0.00000000000E+00 -0.00000000000E+00 -0.64673321169E+02  0.64673321169E+02  0.00000000000E+00 0. -1.
         24    2    1    2    0    0  0.36549060820E+01  0.47729192411E+02 -0.21298459573E+02  0.99417945614E+02  0.84491830276E+02 0.  0.
        -11    1    3    3    0    0 -0.37778245997E+01  0.39880609962E+02  0.28047499468E+02  0.48901914441E+02  0.00000000000E+00 0.  1.
         12    1    3    3    0    0  0.74327306817E+01  0.78485824494E+01 -0.49345959041E+02  0.50516031173E+02  0.00000000000E+00 0. -1.
          1    1    1    2  501    0 -0.36549060820E+01 -0.47729192411E+02  0.12844103325E+03  0.13707127040E+03  0.00000000000E+00 0. -1.
<mgrwt>
<rscale>  1 0.97109750E+02</rscale>
<asrwt>0</asrwt>
<pdfrwt beam="1">  1       21 0.26433214E-01 0.97109750E+02</pdfrwt>
<pdfrwt beam="2">  1        2 0.99497418E-02 0.97109750E+02</pdfrwt>
<totfact> 0.10353963E+05</totfact>
</mgrwt>
</event>
<event>
 6    2  0.7993170E+000  0.8491073E+02  0.7546771E-02  0.1315666E+00
         21   -1    0    0  501  502  0.00000000000E+00  0.00000000000E+00  0.87492886150E+02  0.87492886150E+02  0.00000000000E+00 0. -1.
         -3   -1    0    0    0  501 -0.00000000000E+00 -0.00000000000E+00 -0.25140199941E+03  0.25140199941E+03  0.00000000000E+00 0.  1.
         24    2    1    2    0    0  0.30291005829E+02  0.71560330057E+01  0.65590857834E+02  0.10729395600E+03  0.79000496955E+02 0.  0.
        -13    1    3    3    0    0  0.40815721604E+02  0.35336979476E+02  0.34708407874E+02  0.64181763965E+02  0.00000000000E+00 0.  1.
         14    1    3    3    0    0 -0.10524715774E+02 -0.28180946470E+02  0.30882449960E+02  0.43112192030E+02  0.00000000000E+00 0. -1.
         -4    1    1    2    0  502 -0.30291005829E+02 -0.71560330057E+01 -0.22949997109E+03  0.23160092956E+03  0.00000000000E+00 0.  1.
<mgrwt>
<rscale>  1 0.84910732E+02</rscale>
<asrwt>0</asrwt>
<pdfrwt beam="1">  1       21 0.13460444E-01 0.84910732E+02</pdfrwt>
<pdfrwt beam="2">  1       -3 0.38677231E-01 0.84910732E+02</pdfrwt>
<totfact> 0.14747801E+04</totfact>
</mgrwt>
</event>
<event>
 6    2  0.7993170E+000  0.8291438E+02  0.7546771E-02  0.1320979E+00
          2   -1    0    0  502    0 -0.00000000000E+00  0.00000000000E+00  0.11095205219E+04  0.11095205219E+04  0.00000000000E+00 0. -1.
         21   -1    0    0  501  502  0.00000000000E+00 -0.00000000000E+00 -0.26233365723E+01  0.26233365723E+01  0.00000000000E+00 0. -1.
         24    2    1    2    0    0  0.21754217827E+02  0.10409331480E+02  0.79351501476E+03  0.79783511694E+03  0.79329660248E+02 0.  0.
        -11    1    3    3    0    0 -0.27519282045E+02 -0.67398398091E+01  0.19456029316E+03  0.19661242077E+03  0.00000000000E+00 0.  1.
         12    1    3    3    0    0  0.49273499873E+02  0.17149171289E+02  0.59895472160E+03  0.60122269617E+03  0.00000000000E+00 0. -1.
          1    1    1    2  501    0 -0.21754217827E+02 -0.10409331480E+02  0.31338217058E+03  0.31430874155E+03  0.00000000000E+00 0. -1.
<mgrwt>
<rscale>  1 0.82914385E+02</rscale>
<asrwt>0</asrwt>
<pdfrwt beam="1">  1       21 0.40359113E-03 0.82914385E+02</pdfrwt>
<pdfrwt beam="2">  1        2 0.17069509E+00 0.82914385E+02</pdfrwt>
<totfact> 0.41388262E+06</totfact>
</mgrwt>
</event>
<event>
 6    2  0.7993170E+000  0.9710770E+02  0.7546771E-02  0.1286498E+00
          2   -1    0    0  502    0 -0.00000000000E+00  0.00000000000E+00  0.40990412079E+03  0.40990412079E+03  0.00000000000E+00 0. -1.
         21   -1    0    0  501  502  0.00000000000E+00 -0.00000000000E+00 -0.13897406182E+02  0.13897406182E+02  0.00000000000E+00 0.  1.
         24    2    1    2    0    0  0.52278761353E+02  0.52785109977E+01  0.22944620043E+03  0.24914948304E+03  0.81663789035E+02 0.  0.
        -13    1    3    3    0    0  0.21390840665E+02  0.20320546782E+02  0.17222578818E+02  0.34162990311E+02  0.00000000000E+00 0.  1.
         14    1    3    3    0    0  0.30887920688E+02 -0.15042035784E+02  0.21222362161E+03  0.21498649273E+03  0.00000000000E+00 0. -1.
          1    1    1    2  501    0 -0.52278761353E+02 -0.52785109977E+01  0.16656051417E+03  0.17465204393E+03  0.00000000000E+00 0. -1.
<mgrwt>
<rscale>  1 0.97107703E+02</rscale>
<asrwt>0</asrwt>
<pdfrwt beam="1">  1       21 0.21380628E-02 0.97107703E+02</pdfrwt>
<pdfrwt beam="2">  1        2 0.63062163E-01 0.97107703E+02</pdfrwt>
<totfact> 0.10119762E+06</totfact>
</mgrwt>
</event>
<event>
 6    2  0.7993170E+000  0.8362755E+02  0.7546771E-02  0.1319061E+00
         21   -1    0    0  501  502  0.00000000000E+00  0.00000000000E+00  0.19986304067E+02  0.19986304067E+02  0.00000000000E+00 0.  1.
         -1   -1    0    0    0  501 -0.00000000000E+00 -0.00000000000E+00 -0.23942251351E+03  0.23942251351E+03  0.00000000000E+00 0.  1.
         24    2    1    2    0    0  0.10471124520E+02 -0.19166468619E+02 -0.22217950022E+03  0.23739692052E+03  0.80725272297E+02 0.  0.
        -11    1    3    3    0    0 -0.23883613367E+02 -0.34143515267E+02 -0.15464824585E+03  0.16016331217E+03  0.00000000000E+00 0.  1.
         12    1    3    3    0    0  0.34354737887E+02  0.14977046648E+02 -0.67531254369E+02  0.77233608347E+02  0.00000000000E+00 0. -1.
         -2    1    1    2    0  502 -0.10471124520E+02  0.19166468619E+02  0.27432907701E+01  0.22011897062E+02  0.00000000000E+00 0.  1.
<mgrwt>
<rscale>  1 0.83627553E+02</rscale>
<asrwt>0</asrwt>
<pdfrwt beam="1">  1       21 0.30748161E-02 0.83627553E+02</pdfrwt>
<pdfrwt beam="2">  1       -1 0.36834231E-01 0.83627553E+02</pdfrwt>
<totfact> 0.37192598E+05</totfact>
</mgrwt>
</event>
<event>
 6    2  0.7993170E+000  0.8594036E+02  0.7546771E-02  0.1312992E+00
          2   -1    0    0  502    0 -0.00000000000E+00  0.00000000000E+00  0.97818785879E+03  0.97818785879E+03  0.00000000000E+00 0. -1.
         21   -1    0    0  501  502  0.00000000000E+00 -0.00000000000E+00 -0.38580985219E+01  0.38580985219E+01  0.00000000000E+00 0.  1.
         24    2    1    2    0    0 -0.82853314150E+01  0.29683867971E+02  0.55824282894E+03  0.56481926455E+03  0.80224477593E+02 0.  0.
        -11    1    3    3    0    0 -0.22849330345E+02  0.39528527037E+02  0.16547684529E+03  0.17166007886E+03  0.00000000000E+00 0.  1.
         12    1    3    3    0    0  0.14563998930E+02 -0.98446590662E+01  0.39276598365E+03  0.39315918569E+03  0.00000000000E+00 0. -1.
          1    1    1    2  501    0  0.82853314150E+01 -0.29683867971E+02  0.41608693132E+03  0.41722669276E+03  0.00000000000E+00 0. -1.
<mgrwt>
<rscale>  1 0.85940360E+02</rscale>
<asrwt>0</asrwt>
<pdfrwt beam="1">  1       21 0.59355440E-03 0.85940360E+02</pdfrwt>
<pdfrwt beam="2">  1        2 0.15049024E+00 0.85940360E+02</pdfrwt>
<totfact> 0.27394911E+06</totfact>
</mgrwt>
</event>
<event>
 6    2  0.7993170E+000  0.8192484E+02  0.7546771E-02  0.1323676E+00
         21   -1    0    0  501  502  0.00000000000E+00  0.00000000000E+00  0.10081831755E+03  0.10081831755E+03  0.00000000000E+00 0. -1.
          2   -1    0    0  502    0 -0.00000000000E+00 -0.00000000000E+00 -0.49298666281E+02  0.49298666281E+02  0.00000000000E+00 0. -1.
         24    2    1    2    0    0 -0.38329642800E+01 -0.21066412721E+02 -0.12261704878E+02  0.82837367660E+02  0.79077144070E+02 0.  0.
        -13    1    3    3    0    0  0.78663476415E+01 -0.17144339134E+01  0.32073247172E+02  0.33068291353E+02  0.00000000000E+00 0.  1.
         14    1    3    3    0    0 -0.11699311922E+02 -0.19351978808E+02 -0.44334952050E+02  0.49769076307E+02  0.00000000000E+00 0. -1.
          1    1    1    2  501    0  0.38329642800E+01  0.21066412721E+02  0.63781356144E+02  0.67279616167E+02  0.00000000000E+00 0. -1.
<mgrwt>
<rscale>  1 0.81924844E+02</rscale>
<asrwt>0</asrwt>
<pdfrwt beam="1">  1       21 0.15510510E-01 0.81924844E+02</pdfrwt>
<pdfrwt beam="2">  1        2 0.75844102E-02 0.81924844E+02</pdfrwt>
<totfact> 0.37954777E+05</totfact>
</mgrwt>
</event>
<event>
 6    2  0.7993170E+000  0.1208612E+03  0.7546771E-02  0.1241683E+00
         -1   -1    0    0    0  501 -0.00000000000E+00  0.00000000000E+00  0.80059317408E+02  0.80059317408E+02  0.00000000000E+00 0.  1.
         21   -1    0    0  501  502  0.00000000000E+00 -0.00000000000E+00 -0.14008444468E+03  0.14008444468E+03  0.00000000000E+00 0.  1.
         24    2    1    2    0    0  0.69630640819E+02  0.55935183499E+02 -0.47910274944E+02  0.13001085722E+03  0.81426394096E+02 0.  0.
        -11    1    3    3    0    0  0.94626982530E+01  0.59642628155E+02 -0.27624727700E+02  0.66407163257E+02  0.00000000000E+00 0.  1.
         12    1    3    3    0    0  0.60167942566E+02 -0.37074446557E+01 -0.20285547244E+02  0.63603693961E+02  0.00000000000E+00 0. -1.
         -2    1    1    2    0  502 -0.69630640819E+02 -0.55935183499E+02 -0.12114852331E+02  0.90132904873E+02  0.00000000000E+00 0.  1.
<mgrwt>
<rscale>  1 0.12086120E+03</rscale>
<asrwt>0</asrwt>
<pdfrwt beam="1">  1       21 0.21551453E-01 0.12086120E+03</pdfrwt>
<pdfrwt beam="2">  1       -1 0.12316818E-01 0.12086120E+03</pdfrwt>
<totfact> 0.77758238E+04</totfact>
</mgrwt>
</event>
<event>
 6    2  0.7993170E+000  0.9309287E+02  0.7546771E-02  0.1295530E+00
         21   -1    0    0  501  502  0.00000000000E+00  0.00000000000E+00  0.48254506336E+03  0.48254506336E+03  0.00000000000E+00 0.  1.
          2   -1    0    0  502    0 -0.00000000000E+00 -0.00000000000E+00 -0.98818638522E+01  0.98818638522E+01  0.00000000000E+00 0. -1.
         24    2    1    2    0    0  0.22554300028E+02  0.35525834819E+02  0.36868346641E+03  0.38025488843E+03  0.83039149694E+02 0.  0.
        -13    1    3    3    0    0 -0.25912701332E+02  0.36160237483E+02  0.16622063593E+03  0.17207071417E+03  0.00000000000E+00 0.  1.
         14    1    3    3    0    0  0.48467001360E+02 -0.63440266466E+00  0.20246283048E+03  0.20818417426E+03  0.00000000000E+00 0. -1.
          1    1    1    2  501    0 -0.22554300028E+02 -0.35525834819E+02  0.10397973310E+03  0.11217203878E+03  0.00000000000E+00 0. -1.
<mgrwt>
<rscale>  1 0.93092866E+02</rscale>
<asrwt>0</asrwt>
<pdfrwt beam="1">  1       21 0.74237684E-01 0.93092866E+02</pdfrwt>
<pdfrwt beam="2">  1        2 0.15202871E-02 0.93092866E+02</pdfrwt>
<totfact> 0.14886967E+05</totfact>
</mgrwt>
</event>
<event>
 6    2  0.7993170E+000  0.9633296E+02  0.7546771E-02  0.1288202E+00
         21   -1    0    0  501  502  0.00000000000E+00  0.00000000000E+00  0.13131830305E+02  0.13131830305E+02  0.00000000000E+00 0. -1.
          2   -1    0    0  502    0 -0.00000000000E+00 -0.00000000000E+00 -0.14439880712E+04  0.14439880712E+04  0.00000000000E+00 0. -1.
         24    2    1    2    0    0  0.45007938008E+02 -0.23024514908E+02 -0.13865642444E+04  0.13899066311E+04  0.82001197857E+02 0.  0.
        -11    1    3    3    0    0  0.12063878835E+01 -0.15841869556E+02 -0.47105556307E+02  0.49712711028E+02  0.00000000000E+00 0.  1.
         12    1    3    3    0    0  0.43801550125E+02 -0.71826453524E+01 -0.13394586881E+04  0.13401939200E+04  0.00000000000E+00 0. -1.
          1    1    1    2  501    0 -0.45007938008E+02  0.23024514908E+02 -0.44291996499E+02  0.67213270448E+02  0.00000000000E+00 0. -1.
<mgrwt>
<rscale>  1 0.96332960E+02</rscale>
<asrwt>0</asrwt>
<pdfrwt beam="1">  1       21 0.20202816E-02 0.96332960E+02</pdfrwt>
<pdfrwt beam="2">  1        2 0.22215201E+00 0.96332960E+02</pdfrwt>
<totfact> 0.22519406E+05</totfact>
</mgrwt>
</event>
<event>
 6    2  0.7993170E+000  0.8672960E+02  0.7546771E-02  0.1310970E+00
          2   -1    0    0  502    0 -0.00000000000E+00  0.00000000000E+00  0.29964268617E+03  0.29964268617E+03  0.00000000000E+00 0. -1.
         21   -1    0    0  501  502  0.00000000000E+00 -0.00000000000E+00 -0.15077193727E+02  0.15077193727E+02  0.00000000000E+00 0.  1.
         24    2    1    2    0    0 -0.94282989095E+01 -0.32708991178E+02  0.25596431629E+03  0.27025868107E+03  0.79769997821E+02 0.  0.
        -13    1    3    3    0    0 -0.38586765237E+02 -0.26505899508E+02  0.88074687697E+02  0.99742928437E+02  0.00000000000E+00 0.  1.
         14    1    3    3    0    0  0.29158466328E+02 -0.62030916701E+01  0.16788962859E+03  0.17051575263E+03  0.00000000000E+00 0. -1.
          1    1    1    2  501    0  0.94282989095E+01  0.32708991178E+02  0.28601176146E+02  0.44461198827E+02  0.00000000000E+00 0. -1.
<mgrwt>
<rscale>  1 0.86729600E+02</rscale>
<asrwt>0</asrwt>
<pdfrwt beam="1">  1       21 0.23195685E-02 0.86729600E+02</pdfrwt>
<pdfrwt beam="2">  1        2 0.46098870E-01 0.86729600E+02</pdfrwt>
<totfact> 0.12187454E+06</totfact>
</mgrwt>
</event>
<event>
 6    2  0.7993170E+000  0.9561343E+02  0.7546771E-02  0.1289800E+00
         21   -1    0    0  501  502  0.00000000000E+00  0.00000000000E+00  0.29272112611E+01  0.29272112611E+01  0.00000000000E+00 0.  1.
          2   -1    0    0  502    0 -0.00000000000E+00 -0.00000000000E+00 -0.19505832890E+04  0.19505832890E+04  0.00000000000E+00 0. -1.
         24    2    1    2    0    0  0.49443567272E+02 -0.12816579440E+02 -0.10279277708E+04  0.10323649691E+04  0.80826952949E+02 0.  0.
        -13    1    3    3    0    0  0.55875465071E+02 -0.35999797327E+02 -0.58093067133E+03  0.58472087179E+03  0.00000000000E+00 0.  1.
         14    1    3    3    0    0 -0.64318977986E+01  0.23183217887E+02 -0.44699709951E+03  0.44764409732E+03  0.00000000000E+00 0. -1.
          1    1    1    2  501    0 -0.49443567272E+02  0.12816579440E+02 -0.91972830690E+03  0.92114553116E+03  0.00000000000E+00 0. -1.
<mgrwt>
<rscale>  1 0.95613427E+02</rscale>
<asrwt>0</asrwt>
<pdfrwt beam="1">  1       21 0.45033902E-03 0.95613427E+02</pdfrwt>
<pdfrwt beam="2">  1        2 0.30009052E+00 0.95613427E+02</pdfrwt>
<totfact> 0.13052179E+06</totfact>
</mgrwt>
</event>
<event>
 6    2  0.7993170E+000  0.8088097E+02  0.7546771E-02  0.1326570E+00
         -1   -1    0    0    0  501 -0.00000000000E+00  0.00000000000E+00  0.49510302701E+03  0.49510302701E+03  0.00000000000E+00 0.  1.
         21   -1    0    0  501  502  0.00000000000E+00 -0.00000000000E+00 -0.63408413226E+01  0.63408413226E+01  0.00000000000E+00 0.  1.
         24    2    1    2    0    0 -0.66480091470E+01 -0.20051375291E+02  0.45081488858E+03  0.45801287670E+03  0.78073540829E+02 0.  0.
        -13    1    3    3    0    0  0.31337731431E+01 -0.42500458707E+02  0.39191846917E+03  0.39422860881E+03  0.00000000000E+00 0.  1.
         14    1    3    3    0    0 -0.97817822902E+01  0.22449083416E+02  0.58896419408E+02  0.63784267888E+02  0.00000000000E+00 0. -1.
         -2    1    1    2    0  502  0.66480091470E+01  0.20051375291E+02  0.37947297102E+02  0.43430991631E+02  0.00000000000E+00 0.  1.
<mgrwt>
<rscale>  1 0.80880971E+02</rscale>
<asrwt>0</asrwt>
<pdfrwt beam="1">  1       21 0.97551444E-03 0.80880971E+02</pdfrwt>
<pdfrwt beam="2">  1       -1 0.76169666E-01 0.80880971E+02</pdfrwt>
<totfact> 0.60668016E+05</totfact>
</mgrwt>
</event>
<event>
 6    2  0.7993170E+000  0.8430188E+02  0.7546771E-02  0.1317268E+00
         21   -1    0    0  501  502  0.00000000000E+00  0.00000000000E+00  0.19590228015E+03  0.19590228015E+03  0.00000000000E+00 0. -1.
          2   -1    0    0  502    0 -0.00000000000E+00 -0.00000000000E+00 -0.20701244400E+02  0.20701244400E+02  0.00000000000E+00 0. -1.
         24    2    1    2    0    0 -0.51574685835E+01  0.31619699310E+02  0.80241455920E+02  0.11638512969E+03  0.77976934401E+02 0.  0.
        -11    1    3    3    0    0 -0.35247353200E+02 -0.53207219616E+01  0.25586579263E+02  0.43878913252E+02  0.00000000000E+00 0.  1.
         12    1    3    3    0    0  0.30089884617E+02  0.36940421272E+02  0.54654876657E+02  0.72506216439E+02  0.00000000000E+00 0. -1.
          1    1    1    2  501    0  0.51574685835E+01 -0.31619699310E+02  0.94959579833E+02  0.10021839486E+03  0.00000000000E+00 0. -1.
<mgrwt>
<rscale>  1 0.84301881E+02</rscale>
<asrwt>0</asrwt>
<pdfrwt beam="1">  1       21 0.30138811E-01 0.84301881E+02</pdfrwt>
<pdfrwt beam="2">  1        2 0.31848070E-02 0.84301881E+02</pdfrwt>
<totfact> 0.34156214E+05</totfact>
</mgrwt>
</event>
<event>
 6    2  0.7993170E+000  0.8412922E+02  0.7546771E-02  0.1317726E+00
         21   -1    0    0  501  502  0.00000000000E+00  0.00000000000E+00  0.11617611526E+02  0.11617611526E+02  0.00000000000E+00 0. -1.
         -3   -1    0    0    0  501 -0.00000000000E+00 -0.00000000000E+00 -0.39495090947E+03  0.39495090947E+03  0.00000000000E+00 0.  1.
         24    2    1    2    0    0 -0.18827018050E+02 -0.22949515986E+02 -0.35734816103E+03  0.36711773859E+03  0.78718415232E+02 0.  0.
        -13    1    3    3    0    0  0.12037214954E+02  0.22451546188E+02 -0.16978159494E+03  0.17168213784E+03  0.00000000000E+00 0.  1.
         14    1    3    3    0    0 -0.30864233004E+02 -0.45401062174E+02 -0.18756656609E+03  0.19543560075E+03  0.00000000000E+00 0. -1.
         -4    1    1    2    0  502  0.18827018050E+02  0.22949515986E+02 -0.25985136907E+02  0.39450782409E+02  0.00000000000E+00 0.  1.
<mgrwt>
<rscale>  1 0.84129221E+02</rscale>
<asrwt>0</asrwt>
<pdfrwt beam="1">  1       21 0.17873253E-02 0.84129221E+02</pdfrwt>
<pdfrwt beam="2">  1       -3 0.60761662E-01 0.84129221E+02</pdfrwt>
<totfact> 0.17511139E+05</totfact>
</mgrwt>
</event>
<event>
 6    2  0.7993170E+000  0.8826949E+02  0.7546771E-02  0.1307097E+00
         21   -1    0    0  501  502  0.00000000000E+00  0.00000000000E+00  0.20495267031E+03  0.20495267031E+03  0.00000000000E+00 0.  1.
         -3   -1    0    0    0  501 -0.00000000000E+00 -0.00000000000E+00 -0.22408219541E+02  0.22408219541E+02  0.00000000000E+00 0.  1.
         24    2    1    2    0    0  0.36376994468E+02  0.18536441540E+02  0.89265076982E+02  0.12553787199E+03  0.78259938311E+02 0.  0.
        -13    1    3    3    0    0  0.55001662623E+02  0.20777503053E+02  0.35704784680E+02  0.68787492857E+02  0.00000000000E+00 0.  1.
         14    1    3    3    0    0 -0.18624668156E+02 -0.22410615129E+01  0.53560292302E+02  0.56750379137E+02  0.00000000000E+00 0. -1.
         -4    1    1    2    0  502 -0.36376994468E+02 -0.18536441540E+02  0.93279373788E+02  0.10182301786E+03  0.00000000000E+00 0.  1.
<mgrwt>
<rscale>  1 0.88269493E+02</rscale>
<asrwt>0</asrwt>
<pdfrwt beam="1">  1       21 0.31531179E-01 0.88269493E+02</pdfrwt>
<pdfrwt beam="2">  1       -3 0.34474185E-02 0.88269493E+02</pdfrwt>
<totfact> 0.17787185E+05</totfact>
</mgrwt>
</event>
<event>
 6    2  0.7993170E+000  0.8708701E+02  0.7546771E-02  0.1310063E+00
         21   -1    0    0  501  502  0.00000000000E+00  0.00000000000E+00  0.44553133910E+01  0.44553133910E+01  0.00000000000E+00 0. -1.
         -1   -1    0    0    0  501 -0.00000000000E+00 -0.00000000000E+00 -0.82489877160E+03  0.82489877160E+03  0.00000000000E+00 0.  1.
         24    2    1    2    0    0  0.32099758985E+02 -0.74470796516E+01 -0.53932438597E+03  0.54631029633E+03  0.80611990755E+02 0.  0.
        -13    1    3    3    0    0 -0.11282826362E+02  0.28898891620E+01 -0.39681138753E+03  0.39698228034E+03  0.00000000000E+00 0.  1.
         14    1    3    3    0    0  0.43382585348E+02 -0.10336968814E+02 -0.14251299844E+03  0.14932801599E+03  0.00000000000E+00 0. -1.
         -2    1    1    2    0  502 -0.32099758985E+02  0.74470796516E+01 -0.28111907224E+03  0.28304378866E+03  0.00000000000E+00 0.  1.
<mgrwt>
<rscale>  1 0.87087006E+02</rscale>
<asrwt>0</asrwt>
<pdfrwt beam="1">  1       21 0.68543329E-03 0.87087006E+02</pdfrwt>
<pdfrwt beam="2">  1       -1 0.12690742E+00 0.87087006E+02</pdfrwt>
<totfact> 0.34952008E+05</totfact>
</mgrwt>
</event>
<event>
 6    2  0.7993170E+000  0.8263704E+02  0.7546771E-02  0.1321730E+00
         -3   -1    0    0    0  501 -0.00000000000E+00  0.00000000000E+00  0.30617310176E+02  0.30617310176E+02  0.00000000000E+00 0.  1.
         21   -1    0    0  501  502  0.00000000000E+00 -0.00000000000E+00 -0.87995890468E+02  0.87995890468E+02  0.00000000000E+00 0. -1.
         24    2    1    2    0    0  0.20267941790E+01  0.20251006752E+02 -0.51725309883E+02  0.97490449038E+02  0.80091627540E+02 0.  0.
        -11    1    3    3    0    0  0.33616600377E+02  0.33549378141E+02 -0.22997652213E+02  0.52768632746E+02  0.00000000000E+00 0.  1.
         12    1    3    3    0    0 -0.31589806198E+02 -0.13298371389E+02 -0.28727657670E+02  0.44721816292E+02  0.00000000000E+00 0. -1.
         -4    1    1    2    0  502 -0.20267941790E+01 -0.20251006752E+02 -0.56532704081E+01  0.21122751606E+02  0.00000000000E+00 0.  1.
<mgrwt>
<rscale>  1 0.82637038E+02</rscale>
<asrwt>0</asrwt>
<pdfrwt beam="1">  1       21 0.13537829E-01 0.82637038E+02</pdfrwt>
<pdfrwt beam="2">  1       -3 0.47103555E-02 0.82637038E+02</pdfrwt>
<totfact> 0.51267459E+05</totfact>
</mgrwt>
</event>
<event>
 6    2  0.7993170E+000  0.8903244E+02  0.7546771E-02  0.1305212E+00
          2   -1    0    0  502    0 -0.00000000000E+00  0.00000000000E+00  0.14835241552E+04  0.14835241552E+04  0.00000000000E+00 0. -1.
         21   -1    0    0  501  502  0.00000000000E+00 -0.00000000000E+00 -0.48366457768E+01  0.48366457768E+01  0.00000000000E+00 0. -1.
         24    2    1    2    0    0 -0.20567530534E+02  0.32552894381E+02  0.13728893109E+04  0.13757731771E+04  0.80274906025E+02 0.  0.
        -13    1    3    3    0    0 -0.19822167248E+02  0.42928687643E+02  0.39379635834E+03  0.39662496439E+03  0.00000000000E+00 0.  1.
         14    1    3    3    0    0 -0.74536328557E+00 -0.10375793262E+02  0.97909295255E+03  0.97914821268E+03  0.00000000000E+00 0. -1.
          1    1    1    2  501    0  0.20567530534E+02 -0.32552894381E+02  0.10579819854E+03  0.11258762392E+03  0.00000000000E+00 0. -1.
<mgrwt>
<rscale>  1 0.89032437E+02</rscale>
<asrwt>0</asrwt>
<pdfrwt beam="1">  1       21 0.74410053E-03 0.89032437E+02</pdfrwt>
<pdfrwt beam="2">  1        2 0.22823412E+00 0.89032437E+02</pdfrwt>
<totfact> 0.10320390E+06</totfact>
</mgrwt>
</event>
<event>
 6    2  0.7993170E+000  0.1087615E+03  0.7546771E-02  0.1262881E+00
          2   -1    0    0  502    0 -0.00000000000E+00  0.00000000000E+00  0.63354928331E+02  0.63354928331E+02  0.00000000000E+00 0. -1.
         21   -1    0    0  501  502  0.00000000000E+00 -0.00000000000E+00 -0.18452917073E+03  0.18452917073E+03  0.00000000000E+00 0. -1.
         24    2    1    2    0    0  0.61079521657E+02  0.41685671759E+02 -0.33950008157E+01  0.10881450158E+03  0.79753786915E+02 0.  0.
        -13    1    3    3    0    0 -0.10650977159E+02  0.20147286386E+02 -0.21965810208E+02  0.31652065987E+02  0.00000000000E+00 0.  1.
         14    1    3    3    0    0  0.71730498816E+02  0.21538385373E+02  0.18570809392E+02  0.77162435591E+02  0.00000000000E+00 0. -1.
          1    1    1    2  501    0 -0.61079521657E+02 -0.41685671759E+02 -0.11777924158E+03  0.13906959748E+03  0.00000000000E+00 0. -1.
<mgrwt>
<rscale>  1 0.10876153E+03</rscale>
<asrwt>0</asrwt>
<pdfrwt beam="1">  1       21 0.28389103E-01 0.10876153E+03</pdfrwt>
<pdfrwt beam="2">  1        2 0.97469122E-02 0.10876153E+03</pdfrwt>
<totfact> 0.93196907E+04</totfact>
</mgrwt>
</event>
<event>
 6    2  0.7993170E+000  0.8596259E+02  0.7546771E-02  0.1312934E+00
         21   -1    0    0  501  502  0.00000000000E+00  0.00000000000E+00  0.17210667842E+04  0.17210667842E+04  0.00000000000E+00 0. -1.
          2   -1    0    0  502    0 -0.00000000000E+00 -0.00000000000E+00 -0.32440888879E+01  0.32440888879E+01  0.00000000000E+00 0. -1.
         24    2    1    2    0    0 -0.18399005761E+02  0.26701721615E+02  0.61145165660E+03  0.61746473173E+03  0.79611941407E+02 0.  0.
        -11    1    3    3    0    0  0.27267024007E+02  0.70270835444E+01  0.36273729957E+03  0.36382855715E+03  0.00000000000E+00 0.  1.
         12    1    3    3    0    0 -0.45666029768E+02  0.19674638071E+02  0.24871435703E+03  0.25363617457E+03  0.00000000000E+00 0. -1.
          1    1    1    2  501    0  0.18399005761E+02 -0.26701721615E+02  0.11063710387E+04  0.11068461414E+04  0.00000000000E+00 0. -1.
<mgrwt>
<rscale>  1 0.85962588E+02</rscale>
<asrwt>0</asrwt>
<pdfrwt beam="1">  1       21 0.26477878E+00 0.85962588E+02</pdfrwt>
<pdfrwt beam="2">  1        2 0.49909197E-03 0.85962588E+02</pdfrwt>
<totfact> 0.25692950E+04</totfact>
</mgrwt>
</event>
<event>
 6    2  0.7993170E+000  0.8591474E+02  0.7546771E-02  0.1313058E+00
          2   -1    0    0  502    0 -0.00000000000E+00  0.00000000000E+00  0.17793753432E+04  0.17793753432E+04  0.00000000000E+00 0. -1.
         21   -1    0    0  501  502  0.00000000000E+00 -0.00000000000E+00 -0.19006068526E+01  0.19006068526E+01  0.00000000000E+00 0. -1.
         24    2    1    2    0    0  0.22995021702E+02  0.18419334952E+02  0.12183322536E+04  0.12213577784E+04  0.80705017169E+02 0.  0.
        -11    1    3    3    0    0 -0.17712859300E+02 -0.21940207114E+02  0.34870502325E+03  0.34984326678E+03  0.00000000000E+00 0.  1.
         12    1    3    3    0    0  0.40707881003E+02  0.40359542065E+02  0.86962723031E+03  0.87151451159E+03  0.00000000000E+00 0. -1.
          1    1    1    2  501    0 -0.22995021702E+02 -0.18419334952E+02  0.55914248277E+03  0.55991817167E+03  0.00000000000E+00 0. -1.
<mgrwt>
<rscale>  1 0.85914741E+02</rscale>
<asrwt>0</asrwt>
<pdfrwt beam="1">  1       21 0.29240248E-03 0.85914741E+02</pdfrwt>
<pdfrwt beam="2">  1        2 0.27374872E+00 0.85914741E+02</pdfrwt>
<totfact> 0.30441202E+06</totfact>
</mgrwt>
</event>
<event>
 6    2  0.7993170E+000  0.8989507E+02  0.7546771E-02  0.1303106E+00
          2   -1    0    0  502    0 -0.00000000000E+00  0.00000000000E+00  0.24313846006E+02  0.24313846006E+02  0.00000000000E+00 0. -1.
         21   -1    0    0  501  502  0.00000000000E+00 -0.00000000000E+00 -0.40849943371E+03  0.40849943371E+03  0.00000000000E+00 0. -1.
         24    2    1    2    0    0 -0.33655498164E+02  0.88632191081E+01 -0.63060587472E+02  0.10980783861E+03  0.82884706181E+02 0.  0.
        -11    1    3    3    0    0  0.21138284267E+02 -0.18827869550E+02 -0.23303563102E+02  0.36665675867E+02  0.00000000000E+00 0.  1.
         12    1    3    3    0    0 -0.54793782431E+02  0.27691088658E+02 -0.39757024370E+02  0.73142162745E+02  0.00000000000E+00 0. -1.
          1    1    1    2  501    0  0.33655498164E+02 -0.88632191081E+01 -0.32112500024E+03  0.32300544111E+03  0.00000000000E+00 0. -1.
<mgrwt>
<rscale>  1 0.89895071E+02</rscale>
<asrwt>0</asrwt>
<pdfrwt beam="1">  1       21 0.62846062E-01 0.89895071E+02</pdfrwt>
<pdfrwt beam="2">  1        2 0.37405920E-02 0.89895071E+02</pdfrwt>
<totfact> 0.63661681E+04</totfact>
</mgrwt>
</event>
<event>
 6    2  0.7993170E+000  0.8395280E+02  0.7546771E-02  0.1318194E+00
          2   -1    0    0  502    0 -0.00000000000E+00  0.00000000000E+00  0.72672961862E+03  0.72672961862E+03  0.00000000000E+00 0. -1.
         21   -1    0    0  501  502  0.00000000000E+00 -0.00000000000E+00 -0.52652239653E+01  0.52652239653E+01  0.00000000000E+00 0. -1.
         24    2    1    2    0    0  0.82322887416E+00  0.27971648059E+02  0.64739142380E+03  0.65281216890E+03  0.79151635808E+02 0.  0.
        -13    1    3    3    0    0 -0.13652770673E+02 -0.22322276774E+02  0.11941608942E+03  0.12224927239E+03  0.00000000000E+00 0.  1.
         14    1    3    3    0    0  0.14475999548E+02  0.50293924833E+02  0.52797533439E+03  0.53056289652E+03  0.00000000000E+00 0. -1.
          1    1    1    2  501    0 -0.82322887416E+00 -0.27971648059E+02  0.74072970851E+02  0.79182673683E+02  0.00000000000E+00 0. -1.
<mgrwt>
<rscale>  1 0.83952798E+02</rscale>
<asrwt>0</asrwt>
<pdfrwt beam="1">  1       21 0.81003503E-03 0.83952798E+02</pdfrwt>
<pdfrwt beam="2">  1        2 0.11180448E+00 0.83952798E+02</pdfrwt>
<totfact> 0.24487409E+06</totfact>
</mgrwt>
</event>
<event>
 6    2  0.7993170E+000  0.8813969E+02  0.7546771E-02  0.1307420E+00
          2   -1    0    0  502    0 -0.00000000000E+00  0.00000000000E+00  0.59451787967E+02  0.59451787967E+02  0.00000000000E+00 0. -1.
         21   -1    0    0  501  502  0.00000000000E+00 -0.00000000000E+00 -0.78137796253E+02  0.78137796253E+02  0.00000000000E+00 0.  1.
         24    2    1    2    0    0  0.10884254718E+02  0.32086350286E+02  0.15460860002E+02  0.89485431703E+02  0.81367090519E+02 0.  0.
        -11    1    3    3    0    0  0.26566577147E+02  0.51622999535E+02 -0.33540328197E+01  0.58154678560E+02  0.00000000000E+00 0.  1.
         12    1    3    3    0    0 -0.15682322428E+02 -0.19536649249E+02  0.18814892822E+02  0.31330753143E+02  0.00000000000E+00 0. -1.
          1    1    1    2  501    0 -0.10884254718E+02 -0.32086350286E+02 -0.34146868288E+02  0.48104152517E+02  0.00000000000E+00 0. -1.
<mgrwt>
<rscale>  1 0.88139686E+02</rscale>
<asrwt>0</asrwt>
<pdfrwt beam="1">  1       21 0.12021199E-01 0.88139686E+02</pdfrwt>
<pdfrwt beam="2">  1        2 0.91464289E-02 0.88139686E+02</pdfrwt>
<totfact> 0.47625214E+05</totfact>
</mgrwt>
</event>
<event>
 6    2  0.7993170E+000  0.8170997E+02  0.7546771E-02  0.1324268E+00
         21   -1    0    0  501  502  0.00000000000E+00  0.00000000000E+00  0.20040582701E+03  0.20040582701E+03  0.00000000000E+00 0. -1.
         -3   -1    0    0    0  501 -0.00000000000E+00 -0.00000000000E+00 -0.68358705964E+02  0.68358705964E+02  0.00000000000E+00 0.  1.
         24    2    1    2    0    0  0.20924118179E+02  0.62119029449E+01  0.19000688431E+03  0.20683117673E+03  0.78740797072E+02 0.  0.
        -11    1    3    3    0    0 -0.23701725830E+01 -0.32638867911E+02  0.50697960221E+02  0.60342328320E+02  0.00000000000E+00 0.  1.
         12    1    3    3    0    0  0.23294290762E+02  0.38850770856E+02  0.13930892409E+03  0.14648884841E+03  0.00000000000E+00 0. -1.
         -4    1    1    2    0  502 -0.20924118179E+02 -0.62119029449E+01 -0.57959763255E+02  0.61933356250E+02  0.00000000000E+00 0.  1.
<mgrwt>
<rscale>  1 0.81709972E+02</rscale>
<asrwt>0</asrwt>
<pdfrwt beam="1">  1       21 0.30831665E-01 0.81709972E+02</pdfrwt>
<pdfrwt beam="2">  1       -3 0.10516724E-01 0.81709972E+02</pdfrwt>
<totfact> 0.31453717E+04</totfact>
</mgrwt>
</event>
<event>
 6    2  0.7993170E+000  0.8474909E+02  0.7546771E-02  0.1316090E+00
         21   -1    0    0  501  502  0.00000000000E+00  0.00000000000E+00  0.26202071093E+02  0.26202071093E+02  0.00000000000E+00 0. -1.
          2   -1    0    0  502    0 -0.00000000000E+00 -0.00000000000E+00 -0.48467746038E+03  0.48467746038E+03  0.00000000000E+00 0. -1.
         24    2    1    2    0    0  0.13695167843E+00 -0.24728084126E+02 -0.47410871798E+03  0.48162379927E+03  0.81061153797E+02 0.  0.
        -13    1    3    3    0    0  0.54638788304E+01 -0.44320911995E+02 -0.14112966112E+03  0.14802627625E+03  0.00000000000E+00 0.  1.
         14    1    3    3    0    0 -0.53269271519E+01  0.19592827870E+02 -0.33297905686E+03  0.33359752302E+03  0.00000000000E+00 0. -1.
          1    1    1    2  501    0 -0.13695167843E+00  0.24728084126E+02  0.15633328700E+02  0.29255732199E+02  0.00000000000E+00 0. -1.
<mgrwt>
<rscale>  1 0.84749086E+02</rscale>
<asrwt>0</asrwt>
<pdfrwt beam="1">  1       21 0.40310880E-02 0.84749086E+02</pdfrwt>
<pdfrwt beam="2">  1        2 0.74565760E-01 0.84749086E+02</pdfrwt>
<totfact> 0.29885225E+05</totfact>
</mgrwt>
</event>
<event>
 6    2  0.7993170E+000  0.8586795E+02  0.7546771E-02  0.1313178E+00
         -3   -1    0    0    0  501 -0.00000000000E+00  0.00000000000E+00  0.98680297496E+01  0.98680297496E+01  0.00000000000E+00 0.  1.
         21   -1    0    0  501  502  0.00000000000E+00 -0.00000000000E+00 -0.34053026629E+03  0.34053026629E+03  0.00000000000E+00 0. -1.
         24    2    1    2    0    0  0.23997075108E+02 -0.55280677617E-01 -0.20161840541E+03  0.21914216086E+03  0.82446604516E+02 0.  0.
        -11    1    3    3    0    0  0.14590998424E+02 -0.41163825679E+02 -0.99997532032E+02  0.10911857858E+03  0.00000000000E+00 0.  1.
         12    1    3    3    0    0  0.94060766843E+01  0.41108545001E+02 -0.10162087338E+03  0.11002358228E+03  0.00000000000E+00 0. -1.
         -4    1    1    2    0  502 -0.23997075108E+02  0.55280677617E-01 -0.12904383113E+03  0.13125613518E+03  0.00000000000E+00 0.  1.
<mgrwt>
<rscale>  1 0.85867952E+02</rscale>
<asrwt>0</asrwt>
<pdfrwt beam="1">  1       21 0.52389270E-01 0.85867952E+02</pdfrwt>
<pdfrwt beam="2">  1       -3 0.15181585E-02 0.85867952E+02</pdfrwt>
<totfact> 0.22438541E+05</totfact>
</mgrwt>
</event>
<event>
 6    2  0.7993170E+000  0.8349326E+02  0.7546771E-02  0.1319421E+00
         21   -1    0    0  501  502  0.00000000000E+00  0.00000000000E+00  0.39690448374E+02  0.39690448374E+02  0.00000000000E+00 0.  1.
          2   -1    0    0  502    0 -0.00000000000E+00 -0.00000000000E+00 -0.80519283868E+02  0.80519283868E+02  0.00000000000E+00 0. -1.
         24    2    1    2    0    0 -0.13367558858E+02 -0.22206508834E+02 -0.17434978400E+02  0.85294216863E+02  0.79368156675E+02 0.  0.
        -11    1    3    3    0    0 -0.45749277308E+02 -0.15658385008E+02 -0.19622954429E+02  0.52184688710E+02  0.00000000000E+00 0.  1.
         12    1    3    3    0    0  0.32381718449E+02 -0.65481238256E+01  0.21879760298E+01  0.33109528152E+02  0.00000000000E+00 0. -1.
          1    1    1    2  501    0  0.13367558858E+02  0.22206508834E+02 -0.23393857095E+02  0.34915515379E+02  0.00000000000E+00 0. -1.
<mgrwt>
<rscale>  1 0.83493263E+02</rscale>
<asrwt>0</asrwt>
<pdfrwt beam="1">  1       21 0.61062228E-02 0.83493263E+02</pdfrwt>
<pdfrwt beam="2">  1        2 0.12387582E-01 0.83493263E+02</pdfrwt>
<totfact> 0.10501977E+06</totfact>
</mgrwt>
</event>
<event>
 6    2  0.7993170E+000  0.8222817E+02  0.7546771E-02  0.1322845E+00
          2   -1    0    0  502    0 -0.00000000000E+00  0.00000000000E+00  0.11861176584E+03  0.11861176584E+03  0.00000000000E+00 0. -1.
         21   -1    0    0  501  502  0.00000000000E+00 -0.00000000000E+00 -0.58743487655E+02  0.58743487655E+02  0.00000000000E+00 0. -1.
         24    2    1    2    0    0  0.24640885742E+02 -0.17779065694E+01  0.10046912948E+03  0.12982880479E+03  0.78429193370E+02 0.  0.
        -13    1    3    3    0    0 -0.77932236917E+01 -0.33700303840E+02  0.58286745374E+02  0.67777499959E+02  0.00000000000E+00 0.  1.
         14    1    3    3    0    0  0.32434109433E+02  0.31922397270E+02  0.42182384102E+02  0.62051304827E+02  0.00000000000E+00 0. -1.
          1    1    1    2  501    0 -0.24640885742E+02  0.17779065694E+01 -0.40600851288E+02  0.47526448713E+02  0.00000000000E+00 0. -1.
<mgrwt>
<rscale>  1 0.82228174E+02</rscale>
<asrwt>0</asrwt>
<pdfrwt beam="1">  1       21 0.90374597E-02 0.82228174E+02</pdfrwt>
<pdfrwt beam="2">  1        2 0.18247964E-01 0.82228174E+02</pdfrwt>
<totfact> 0.34495436E+05</totfact>
</mgrwt>
</event>
<event>
 6    2  0.7993170E+000  0.1396930E+03  0.7546771E-02  0.1213743E+00
          2   -1    0    0  502    0 -0.00000000000E+00  0.00000000000E+00  0.79778950525E+02  0.79778950525E+02  0.00000000000E+00 0. -1.
         21   -1    0    0  501  502  0.00000000000E+00 -0.00000000000E+00 -0.37327889531E+03  0.37327889531E+03  0.00000000000E+00 0.  1.
         24    2    1    2    0    0 -0.10232771301E+03  0.89654972705E+01 -0.31811037405E+03  0.34743107735E+03  0.94672078469E+02 0.  0.
        -11    1    3    3    0    0 -0.10672834308E+03  0.33394746895E+02 -0.28416455017E+03  0.30537786415E+03  0.00000000000E+00 0.  1.
         12    1    3    3    0    0  0.44006300695E+01 -0.24429249624E+02 -0.33945823879E+02  0.42053213207E+02  0.00000000000E+00 0. -1.
          1    1    1    2  501    0  0.10232771301E+03 -0.89654972705E+01  0.24610429261E+02  0.10562676848E+03  0.00000000000E+00 0. -1.
<mgrwt>
<rscale>  1 0.13969303E+03</rscale>
<asrwt>0</asrwt>
<pdfrwt beam="1">  1       21 0.57427522E-01 0.13969303E+03</pdfrwt>
<pdfrwt beam="2">  1        2 0.12273685E-01 0.13969303E+03</pdfrwt>
<totfact> 0.17259402E+04</totfact>
</mgrwt>
</event>
<event>
 6    2  0.7993170E+000  0.8377482E+02  0.7546771E-02  0.1318668E+00
         21   -1    0    0  501  502  0.00000000000E+00  0.00000000000E+00  0.71759569608E+02  0.71759569608E+02  0.00000000000E+00 0. -1.
         -1   -1    0    0    0  501 -0.00000000000E+00 -0.00000000000E+00 -0.47521092115E+02  0.47521092115E+02  0.00000000000E+00 0.  1.
         24    2    1    2    0    0 -0.16483660039E+02 -0.18768505191E+02  0.36587052333E+02  0.91415717152E+02  0.79964073862E+02 0.  0.
        -11    1    3    3    0    0 -0.47665338444E+01 -0.16848169820E+02 -0.23982073009E+02  0.29693778759E+02  0.00000000000E+00 0.  1.
         12    1    3    3    0    0 -0.11717126195E+02 -0.19203353704E+01  0.60569125343E+02  0.61721938393E+02  0.00000000000E+00 0. -1.
         -2    1    1    2    0  502  0.16483660039E+02  0.18768505191E+02 -0.12348574840E+02  0.27864944571E+02  0.00000000000E+00 0.  1.
<mgrwt>
<rscale>  1 0.83774823E+02</rscale>
<asrwt>0</asrwt>
<pdfrwt beam="1">  1       21 0.11039934E-01 0.83774823E+02</pdfrwt>
<pdfrwt beam="2">  1       -1 0.73109372E-02 0.83774823E+02</pdfrwt>
<totfact> 0.55208440E+05</totfact>
</mgrwt>
</event>
<event>
 6    2  0.7993170E+000  0.8848975E+02  0.7546771E-02  0.1306551E+00
         -1   -1    0    0    0  501 -0.00000000000E+00  0.00000000000E+00  0.66696631469E+02  0.66696631469E+02  0.00000000000E+00 0.  1.
         21   -1    0    0  501  502  0.00000000000E+00 -0.00000000000E+00 -0.61207142060E+02  0.61207142060E+02  0.00000000000E+00 0. -1.
         24    2    1    2    0    0  0.14368365801E+02  0.35369637658E+02 -0.39482985301E+01  0.88577789180E+02  0.79830911751E+02 0.  0.
        -11    1    3    3    0    0  0.30956208925E+02 -0.29940335688E+01  0.23145533366E+02  0.38768116060E+02  0.00000000000E+00 0.  1.
         12    1    3    3    0    0 -0.16587843124E+02  0.38363671227E+02 -0.27093831897E+02  0.49809673120E+02  0.00000000000E+00 0. -1.
         -2    1    1    2    0  502 -0.14368365801E+02 -0.35369637658E+02  0.94377879384E+01  0.39325984349E+02  0.00000000000E+00 0.  1.
<mgrwt>
<rscale>  1 0.88489749E+02</rscale>
<asrwt>0</asrwt>
<pdfrwt beam="1">  1       21 0.94164834E-02 0.88489749E+02</pdfrwt>
<pdfrwt beam="2">  1       -1 0.10261020E-01 0.88489749E+02</pdfrwt>
<totfact> 0.44064591E+05</totfact>
</mgrwt>
</event>
<event>
 6    2  0.7993170E+000  0.8917185E+02  0.7546771E-02  0.1304870E+00
          2   -1    0    0  502    0 -0.00000000000E+00  0.00000000000E+00  0.60873136421E+03  0.60873136421E+03  0.00000000000E+00 0. -1.
         21   -1    0    0  501  502  0.00000000000E+00 -0.00000000000E+00 -0.72018437433E+01  0.72018437433E+01  0.00000000000E+00 0.  1.
         24    2    1    2    0    0  0.20972849302E+02 -0.36394088796E+02  0.44628113252E+03  0.45510270069E+03  0.78658939881E+02 0.  0.
        -13    1    3    3    0    0  0.22129963610E+02 -0.47585927213E+02  0.43799861696E+03  0.44113143644E+03  0.00000000000E+00 0.  1.
         14    1    3    3    0    0 -0.11571143075E+01  0.11191838417E+02  0.82825155631E+01  0.13971264250E+02  0.00000000000E+00 0. -1.
          1    1    1    2  501    0 -0.20972849302E+02  0.36394088796E+02  0.15524838794E+03  0.16083050726E+03  0.00000000000E+00 0. -1.
<mgrwt>
<rscale>  1 0.89171851E+02</rscale>
<asrwt>0</asrwt>
<pdfrwt beam="1">  1       21 0.11079764E-02 0.89171851E+02</pdfrwt>
<pdfrwt beam="2">  1        2 0.93650939E-01 0.89171851E+02</pdfrwt>
<totfact> 0.18540392E+06</totfact>
</mgrwt>
</event>
<event>
 6    2  0.7993170E+000  0.8102270E+02  0.7546771E-02  0.1326174E+00
         21   -1    0    0  501  502  0.00000000000E+00  0.00000000000E+00  0.16244740476E+01  0.16244740476E+01  0.00000000000E+00 0. -1.
          2   -1    0    0  502    0 -0.00000000000E+00 -0.00000000000E+00 -0.25317419169E+04  0.25317419169E+04  0.00000000000E+00 0. -1.
         24    2    1    2    0    0 -0.10507725005E+02 -0.20298077514E+02 -0.23918962249E+04  0.23932681064E+04  0.77731938626E+02 0.  0.
        -13    1    3    3    0    0  0.61589229000E+01  0.10740703035E+02 -0.68827342830E+02  0.69932096737E+02  0.00000000000E+00 0.  1.
         14    1    3    3    0    0 -0.16666647905E+02 -0.31038780549E+02 -0.23230688820E+04  0.23233360097E+04  0.00000000000E+00 0. -1.
          1    1    1    2  501    0  0.10507725005E+02  0.20298077514E+02 -0.13822121803E+03  0.14009828461E+03  0.00000000000E+00 0. -1.
<mgrwt>
<rscale>  1 0.81022704E+02</rscale>
<asrwt>0</asrwt>
<pdfrwt beam="1">  1       21 0.24992072E-03 0.81022704E+02</pdfrwt>
<pdfrwt beam="2">  1        2 0.38949620E+00 0.81022704E+02</pdfrwt>
<totfact> 0.15949965E+06</totfact>
</mgrwt>
</event>
<event>
 6    2  0.7993170E+000  0.9216144E+02  0.7546771E-02  0.1297700E+00
         21   -1    0    0  501  502  0.00000000000E+00  0.00000000000E+00  0.45059459164E+02  0.45059459164E+02  0.00000000000E+00 0. -1.
          2   -1    0    0  502    0 -0.00000000000E+00 -0.00000000000E+00 -0.18746603662E+03  0.18746603662E+03  0.00000000000E+00 0. -1.
         24    2    1    2    0    0  0.30307244259E+02  0.30245383723E+02 -0.16126275228E+03  0.18574016027E+03  0.81611393651E+02 0.  0.
        -11    1    3    3    0    0 -0.17010871852E+02  0.86771760763E+01 -0.32248045083E+01  0.19366530663E+02  0.00000000000E+00 0.  1.
         12    1    3    3    0    0  0.47318116111E+02  0.21568207646E+02 -0.15803794777E+03  0.16637362960E+03  0.00000000000E+00 0. -1.
          1    1    1    2  501    0 -0.30307244259E+02 -0.30245383723E+02  0.18856174816E+02  0.46785335521E+02  0.00000000000E+00 0. -1.
<mgrwt>
<rscale>  1 0.92161445E+02</rscale>
<asrwt>0</asrwt>
<pdfrwt beam="1">  1       21 0.69322244E-02 0.92161445E+02</pdfrwt>
<pdfrwt beam="2">  1        2 0.28840929E-01 0.92161445E+02</pdfrwt>
<totfact> 0.33102910E+05</totfact>
</mgrwt>
</event>
<event>
 6    2  0.7993170E+000  0.1000344E+03  0.7546771E-02  0.1280224E+00
          2   -1    0    0  502    0 -0.00000000000E+00  0.00000000000E+00  0.43614072257E+03  0.43614072257E+03  0.00000000000E+00 0. -1.
         21   -1    0    0  501  502  0.00000000000E+00 -0.00000000000E+00 -0.98380043513E+01  0.98380043513E+01  0.00000000000E+00 0.  1.
         24    2    1    2    0    0  0.87219903589E+01  0.28581653024E+02  0.30209145829E+03  0.31822340962E+03  0.95466775653E+02 0.  0.
        -11    1    3    3    0    0 -0.40630641079E+02  0.47615337705E+00  0.91667946423E+02  0.10027007588E+03  0.00000000000E+00 0.  1.
         12    1    3    3    0    0  0.49352631438E+02  0.28105499647E+02  0.21042351186E+03  0.21795333373E+03  0.00000000000E+00 0. -1.
          1    1    1    2  501    0 -0.87219903589E+01 -0.28581653024E+02  0.12421125993E+03  0.12775531730E+03  0.00000000000E+00 0. -1.
<mgrwt>
<rscale>  1 0.10003444E+03</rscale>
<asrwt>0</asrwt>
<pdfrwt beam="1">  1       21 0.15135395E-02 0.10003444E+03</pdfrwt>
<pdfrwt beam="2">  1        2 0.67098558E-01 0.10003444E+03</pdfrwt>
<totfact> 0.16499517E+06</totfact>
</mgrwt>
</event>
<event>
 6    2  0.7993170E+000  0.8228279E+02  0.7546771E-02  0.1322695E+00
         21   -1    0    0  501  502  0.00000000000E+00  0.00000000000E+00  0.12406224187E+02  0.12406224187E+02  0.00000000000E+00 0. -1.
         -3   -1    0    0    0  501 -0.00000000000E+00 -0.00000000000E+00 -0.25162082622E+03  0.25162082622E+03  0.00000000000E+00 0.  1.
         24    2    1    2    0    0 -0.13275699921E+02 -0.18860593231E+02 -0.21669818432E+03  0.23179422162E+03  0.78984124356E+02 0.  0.
        -11    1    3    3    0    0  0.77703417899E+01 -0.41561215888E+02 -0.17395005865E+03  0.17901490380E+03  0.00000000000E+00 0.  1.
         12    1    3    3    0    0 -0.21046041711E+02  0.22700622657E+02 -0.42748125671E+02  0.52779317816E+02  0.00000000000E+00 0. -1.
         -4    1    1    2    0  502  0.13275699921E+02  0.18860593231E+02 -0.22516417713E+02  0.32232828794E+02  0.00000000000E+00 0.  1.
<mgrwt>
<rscale>  1 0.82282793E+02</rscale>
<asrwt>0</asrwt>
<pdfrwt beam="1">  1       21 0.19086498E-02 0.82282793E+02</pdfrwt>
<pdfrwt beam="2">  1       -3 0.38710898E-01 0.82282793E+02</pdfrwt>
<totfact> 0.38110465E+05</totfact>
</mgrwt>
</event>
<event>
 6    2  0.7993170E+000  0.8513545E+02  0.7546771E-02  0.1315079E+00
         21   -1    0    0  501  502  0.00000000000E+00  0.00000000000E+00  0.69732300220E+02  0.69732300220E+02  0.00000000000E+00 0.  1.
          4   -1    0    0  502    0 -0.00000000000E+00 -0.00000000000E+00 -0.68006459422E+02  0.68006459422E+02  0.00000000000E+00 0. -1.
         24    2    1    2    0    0  0.81152298630E+00 -0.23198459764E+02  0.39145621304E+02  0.93703920275E+02  0.81909815667E+02 0.  0.
        -11    1    3    3    0    0 -0.51544201141E+01 -0.43419265634E+02  0.52824321003E+02  0.68572659014E+02  0.00000000000E+00 0.  1.
         12    1    3    3    0    0  0.59659431004E+01  0.20220805870E+02 -0.13678699699E+02  0.25131261261E+02  0.00000000000E+00 0. -1.
          3    1    1    2  501    0 -0.81152298630E+00  0.23198459764E+02 -0.37419780506E+02  0.44034839367E+02  0.00000000000E+00 0. -1.
<mgrwt>
<rscale>  1 0.85135451E+02</rscale>
<asrwt>0</asrwt>
<pdfrwt beam="1">  1       21 0.10728046E-01 0.85135451E+02</pdfrwt>
<pdfrwt beam="2">  1        4 0.10462532E-01 0.85135451E+02</pdfrwt>
<totfact> 0.18672123E+05</totfact>
</mgrwt>
</event>
<event>
 6    2  0.7993170E+000  0.8267450E+02  0.7546771E-02  0.1321628E+00
         21   -1    0    0  501  502  0.00000000000E+00  0.00000000000E+00  0.32554930648E+02  0.32554930648E+02  0.00000000000E+00 0.  1.
         -3   -1    0    0    0  501 -0.00000000000E+00 -0.00000000000E+00 -0.10034456265E+03  0.10034456265E+03  0.00000000000E+00 0.  1.
         24    2    1    2    0    0  0.57016641648E+01 -0.19266480054E+02 -0.74928340539E+02  0.11157656227E+03  0.80195802913E+02 0.  0.
        -13    1    3    3    0    0  0.19887436216E+02 -0.46520923998E+02 -0.36553147787E+02  0.62416657248E+02  0.00000000000E+00 0.  1.
         14    1    3    3    0    0 -0.14185772051E+02  0.27254443944E+02 -0.38375192752E+02  0.49159905026E+02  0.00000000000E+00 0. -1.
         -4    1    1    2    0  502 -0.57016641648E+01  0.19266480054E+02  0.71387085366E+01  0.21322931025E+02  0.00000000000E+00 0.  1.
<mgrwt>
<rscale>  1 0.82674500E+02</rscale>
<asrwt>0</asrwt>
<pdfrwt beam="1">  1       21 0.50084508E-02 0.82674500E+02</pdfrwt>
<pdfrwt beam="2">  1       -3 0.15437625E-01 0.82674500E+02</pdfrwt>
<totfact> 0.41068904E+05</totfact>
</mgrwt>
</event>
<event>
 6    2  0.7993170E+000  0.8965811E+02  0.7546771E-02  0.1303682E+00
         21   -1    0    0  501  502  0.00000000000E+00  0.00000000000E+00  0.28856533995E+01  0.28856533995E+01  0.00000000000E+00 0. -1.
          2   -1    0    0  502    0 -0.00000000000E+00 -0.00000000000E+00 -0.13163243710E+04  0.13163243710E+04  0.00000000000E+00 0. -1.
         24    2    1    2    0    0  0.19696616866E+02 -0.27201761758E+02 -0.96626248155E+03  0.97041319036E+03  0.83130525156E+02 0.  0.
        -11    1    3    3    0    0 -0.26763867169E+02 -0.24168626657E+02 -0.24386577260E+03  0.24651763050E+03  0.00000000000E+00 0.  1.
         12    1    3    3    0    0  0.46460484035E+02 -0.30331351018E+01 -0.72239670895E+03  0.72389555986E+03  0.00000000000E+00 0. -1.
          1    1    1    2  501    0 -0.19696616866E+02  0.27201761758E+02 -0.34717623609E+03  0.34879683408E+03  0.00000000000E+00 0. -1.
<mgrwt>
<rscale>  1 0.89658110E+02</rscale>
<asrwt>0</asrwt>
<pdfrwt beam="1">  1       21 0.44394685E-03 0.89658110E+02</pdfrwt>
<pdfrwt beam="2">  1        2 0.20251136E+00 0.89658110E+02</pdfrwt>
<totfact> 0.27896845E+06</totfact>
</mgrwt>
</event>
<event>
 6    2  0.7993170E+000  0.8467444E+02  0.7546771E-02  0.1316286E+00
         21   -1    0    0  501  502  0.00000000000E+00  0.00000000000E+00  0.28462974280E+03  0.28462974280E+03  0.00000000000E+00 0.  1.
          2   -1    0    0  502    0 -0.00000000000E+00 -0.00000000000E+00 -0.10355481264E+02  0.10355481264E+02  0.00000000000E+00 0. -1.
         24    2    1    2    0    0  0.15207794072E+02 -0.16377074957E+02  0.19433940018E+03  0.21198481656E+03  0.81671747917E+02 0.  0.
        -11    1    3    3    0    0  0.14769514195E+02 -0.46982742313E+02  0.15171682288E+03  0.15951022215E+03  0.00000000000E+00 0.  1.
         12    1    3    3    0    0  0.43827987694E+00  0.30605667357E+02  0.42622577291E+02  0.52474594410E+02  0.00000000000E+00 0. -1.
          1    1    1    2  501    0 -0.15207794072E+02  0.16377074957E+02  0.79934861361E+02  0.83000407502E+02  0.00000000000E+00 0. -1.
<mgrwt>
<rscale>  1 0.84674435E+02</rscale>
<asrwt>0</asrwt>
<pdfrwt beam="1">  1       21 0.43789185E-01 0.84674435E+02</pdfrwt>
<pdfrwt beam="2">  1        2 0.15931512E-02 0.84674435E+02</pdfrwt>
<totfact> 0.41683630E+05</totfact>
</mgrwt>
</event>
<event>
 6    2  0.7993170E+000  0.8454742E+02  0.7546771E-02  0.1316620E+00
          2   -1    0    0  502    0 -0.00000000000E+00  0.00000000000E+00  0.99751382258E+02  0.99751382258E+02  0.00000000000E+00 0. -1.
         21   -1    0    0  501  502  0.00000000000E+00 -0.00000000000E+00 -0.51401596745E+02  0.51401596745E+02  0.00000000000E+00 0. -1.
         24    2    1    2    0    0  0.28639238948E+02  0.58651084712E+01  0.73927014557E+02  0.11230970223E+03  0.79332592475E+02 0.  0.
        -11    1    3    3    0    0 -0.12229703474E+02  0.31078277119E+02  0.15900000053E+02  0.36989660142E+02  0.00000000000E+00 0.  1.
         12    1    3    3    0    0  0.40868942422E+02 -0.25213168647E+02  0.58027014504E+02  0.75320042088E+02  0.00000000000E+00 0. -1.
          1    1    1    2  501    0 -0.28639238948E+02 -0.58651084712E+01 -0.25577229044E+02  0.38843276773E+02  0.00000000000E+00 0. -1.
<mgrwt>
<rscale>  1 0.84547417E+02</rscale>
<asrwt>0</asrwt>
<pdfrwt beam="1">  1       21 0.79079380E-02 0.84547417E+02</pdfrwt>
<pdfrwt beam="2">  1        2 0.15346367E-01 0.84547417E+02</pdfrwt>
<totfact> 0.52919076E+05</totfact>
</mgrwt>
</event>
<event>
 6    2  0.7993170E+000  0.8844346E+02  0.7546771E-02  0.1306665E+00
          2   -1    0    0  502    0 -0.00000000000E+00  0.00000000000E+00  0.32622029520E+01  0.32622029520E+01  0.00000000000E+00 0. -1.
         21   -1    0    0  501  502  0.00000000000E+00 -0.00000000000E+00 -0.12459277012E+04  0.12459277012E+04  0.00000000000E+00 0.  1.
         24    2    1    2    0    0  0.25405901220E+02 -0.24602476677E+02 -0.73671420878E+03  0.74200409107E+03  0.81064814029E+02 0.  0.
        -11    1    3    3    0    0  0.13907550515E+02 -0.12999862642E+02 -0.71273786933E+03  0.71299206641E+03  0.00000000000E+00 0.  1.
         12    1    3    3    0    0  0.11498350705E+02 -0.11602614036E+02 -0.23976339448E+02  0.29012024657E+02  0.00000000000E+00 0. -1.
          1    1    1    2  501    0 -0.25405901220E+02  0.24602476677E+02 -0.50595128949E+03  0.50718581310E+03  0.00000000000E+00 0. -1.
<mgrwt>
<rscale>  1 0.88443461E+02</rscale>
<asrwt>0</asrwt>
<pdfrwt beam="1">  1       21 0.19168160E+00 0.88443461E+02</pdfrwt>
<pdfrwt beam="2">  1        2 0.50187629E-03 0.88443461E+02</pdfrwt>
<totfact> 0.67793939E+04</totfact>
</mgrwt>
</event>
<event>
 6    2  0.7993170E+000  0.8599609E+02  0.7546771E-02  0.1312848E+00
          2   -1    0    0  502    0 -0.00000000000E+00  0.00000000000E+00  0.15468075183E+03  0.15468075183E+03  0.00000000000E+00 0. -1.
         21   -1    0    0  501  502  0.00000000000E+00 -0.00000000000E+00 -0.44645966142E+02  0.44645966142E+02  0.00000000000E+00 0.  1.
         24    2    1    2    0    0 -0.27815537013E+02  0.13102986286E+02  0.13476692464E+03  0.15986697842E+03  0.80311484020E+02 0.  0.
        -13    1    3    3    0    0 -0.48970732455E+02  0.13547552645E+02  0.45757610396E+02  0.68377099448E+02  0.00000000000E+00 0.  1.
         14    1    3    3    0    0  0.21155195442E+02 -0.44456635908E+00  0.89009314240E+02  0.91489878975E+02  0.00000000000E+00 0. -1.
          1    1    1    2  501    0  0.27815537013E+02 -0.13102986286E+02 -0.24732138943E+02  0.39459739553E+02  0.00000000000E+00 0. -1.
<mgrwt>
<rscale>  1 0.85996086E+02</rscale>
<asrwt>0</asrwt>
<pdfrwt beam="1">  1       21 0.68686102E-02 0.85996086E+02</pdfrwt>
<pdfrwt beam="2">  1        2 0.23797039E-01 0.85996086E+02</pdfrwt>
<totfact> 0.41169963E+05</totfact>
</mgrwt>
</event>
<event>
 6    2  0.7993170E+000  0.8775753E+02  0.7546771E-02  0.1308375E+00
          2   -1    0    0  502    0 -0.00000000000E+00  0.00000000000E+00  0.54757832614E+03  0.54757832614E+03  0.00000000000E+00 0. -1.
         21   -1    0    0  501  502  0.00000000000E+00 -0.00000000000E+00 -0.67256216297E+01  0.67256216297E+01  0.00000000000E+00 0. -1.
         24    2    1    2    0    0 -0.28791068275E+02  0.31825984517E+00  0.46418770659E+03  0.47241042661E+03  0.82899682262E+02 0.  0.
        -13    1    3    3    0    0 -0.80208658666E+01 -0.10069940582E+02  0.70397327310E+01  0.14672962533E+02  0.00000000000E+00 0.  1.
         14    1    3    3    0    0 -0.20770202409E+02  0.10388200427E+02  0.45714797386E+03  0.45773746408E+03  0.00000000000E+00 0. -1.
          1    1    1    2  501    0  0.28791068275E+02 -0.31825984517E+00  0.76664997921E+02  0.81893521160E+02  0.00000000000E+00 0. -1.
<mgrwt>
<rscale>  1 0.87757531E+02</rscale>
<asrwt>0</asrwt>
<pdfrwt beam="1">  1       21 0.10347114E-02 0.87757531E+02</pdfrwt>
<pdfrwt beam="2">  1        2 0.84242785E-01 0.87757531E+02</pdfrwt>
<totfact> 0.23163005E+06</totfact>
</mgrwt>
</event>
<event>
 6    2  0.7993170E+000  0.8452683E+02  0.7546771E-02  0.1316675E+00
         21   -1    0    0  501  502  0.00000000000E+00  0.00000000000E+00  0.55849845632E+01  0.55849845632E+01  0.00000000000E+00 0. -1.
          2   -1    0    0  502    0 -0.00000000000E+00 -0.00000000000E+00 -0.59015121372E+03  0.59015121372E+03  0.00000000000E+00 0. -1.
         24    2    1    2    0    0 -0.16280606755E+02 -0.21017133680E+02 -0.49984708137E+03  0.50694367571E+03  0.80237195344E+02 0.  0.
        -11    1    3    3    0    0  0.30509032207E+02  0.47514539217E+01 -0.16530657206E+03  0.16816551408E+03  0.00000000000E+00 0.  1.
         12    1    3    3    0    0 -0.46789638962E+02 -0.25768587602E+02 -0.33454050931E+03  0.33877816162E+03  0.00000000000E+00 0. -1.
          1    1    1    2  501    0  0.16280606755E+02  0.21017133680E+02 -0.84719147789E+02  0.88792522582E+02  0.00000000000E+00 0. -1.
<mgrwt>
<rscale>  1 0.84526833E+02</rscale>
<asrwt>0</asrwt>
<pdfrwt beam="1">  1       21 0.85922873E-03 0.84526833E+02</pdfrwt>
<pdfrwt beam="2">  1        2 0.90792459E-01 0.84526833E+02</pdfrwt>
<totfact> 0.28363226E+06</totfact>
</mgrwt>
</event>
<event>
 6    2  0.7993170E+000  0.1011016E+03  0.7546771E-02  0.1277996E+00
          4   -1    0    0  502    0 -0.00000000000E+00  0.00000000000E+00  0.18398807625E+02  0.18398807625E+02  0.00000000000E+00 0. -1.
         21   -1    0    0  501  502  0.00000000000E+00 -0.00000000000E+00 -0.37080364977E+03  0.37080364977E+03  0.00000000000E+00 0.  1.
         24    2    1    2    0    0 -0.19571918244E+02  0.60556807675E+02 -0.20203362826E+03  0.22591838314E+03  0.78557889190E+02 0.  0.
        -13    1    3    3    0    0 -0.11967279986E+02  0.18011081629E+02 -0.17184231674E+03  0.17319756544E+03  0.00000000000E+00 0.  1.
         14    1    3    3    0    0 -0.76046382589E+01  0.42545726046E+02 -0.30191311519E+02  0.52720817701E+02  0.00000000000E+00 0. -1.
          3    1    1    2  501    0  0.19571918244E+02 -0.60556807675E+02 -0.15037121389E+03  0.16328407425E+03  0.00000000000E+00 0. -1.
<mgrwt>
<rscale>  1 0.10110158E+03</rscale>
<asrwt>0</asrwt>
<pdfrwt beam="1">  1       21 0.57046711E-01 0.10110158E+03</pdfrwt>
<pdfrwt beam="2">  1        4 0.28305860E-02 0.10110158E+03</pdfrwt>
<totfact> 0.67074589E+04</totfact>
</mgrwt>
</event>
<event>
 6    2  0.7993170E+000  0.8524049E+02  0.7546771E-02  0.1314805E+00
          2   -1    0    0  502    0 -0.00000000000E+00  0.00000000000E+00  0.54919032898E+03  0.54919032898E+03  0.00000000000E+00 0. -1.
         21   -1    0    0  501  502  0.00000000000E+00 -0.00000000000E+00 -0.53194010063E+01  0.53194010063E+01  0.00000000000E+00 0.  1.
         24    2    1    2    0    0 -0.13538315225E+01 -0.19956699568E+02  0.48219549468E+03  0.48967176433E+03  0.82860358333E+02 0.  0.
        -13    1    3    3    0    0  0.91218117241E+00 -0.42690052495E+02  0.13205801364E+03  0.13878973889E+03  0.00000000000E+00 0.  1.
         14    1    3    3    0    0 -0.22660126949E+01  0.22733352927E+02  0.35013748104E+03  0.35088202544E+03  0.00000000000E+00 0. -1.
          1    1    1    2  501    0  0.13538315225E+01  0.19956699568E+02  0.61675433297E+02  0.64837965651E+02  0.00000000000E+00 0. -1.
<mgrwt>
<rscale>  1 0.85240493E+02</rscale>
<asrwt>0</asrwt>
<pdfrwt beam="1">  1       21 0.81836982E-03 0.85240493E+02</pdfrwt>
<pdfrwt beam="2">  1        2 0.84490775E-01 0.85240493E+02</pdfrwt>
<totfact> 0.33151200E+06</totfact>
</mgrwt>
</event>
<event>
 6    2  0.7993170E+000  0.1101085E+03  0.7546771E-02  0.1260369E+00
         -1   -1    0    0    0  501 -0.00000000000E+00  0.00000000000E+00  0.94963557538E+03  0.94963557538E+03  0.00000000000E+00 0.  1.
         21   -1    0    0  501  502  0.00000000000E+00 -0.00000000000E+00 -0.90599446784E+01  0.90599446784E+01  0.00000000000E+00 0. -1.
         24    2    1    2    0    0 -0.57498542402E+02 -0.48779209320E+02  0.55673705999E+03  0.56752095288E+03  0.80239543571E+02 0.  0.
        -13    1    3    3    0    0 -0.54150999089E+02  0.10570361979E+01  0.38075261352E+03  0.38458549210E+03  0.00000000000E+00 0.  1.
         14    1    3    3    0    0 -0.33475433134E+01 -0.49836245518E+02  0.17598444647E+03  0.18293546079E+03  0.00000000000E+00 0. -1.
         -2    1    1    2    0  502  0.57498542402E+02  0.48779209320E+02  0.38383857071E+03  0.39117456718E+03  0.00000000000E+00 0.  1.
<mgrwt>
<rscale>  1 0.11010848E+03</rscale>
<asrwt>0</asrwt>
<pdfrwt beam="1">  1       21 0.13938384E-02 0.11010848E+03</pdfrwt>
<pdfrwt beam="2">  1       -1 0.14609770E+00 0.11010848E+03</pdfrwt>
<totfact> 0.82790239E+04</totfact>
</mgrwt>
</event>
<event>
 6    2  0.7993170E+000  0.8701142E+02  0.7546771E-02  0.1310255E+00
         21   -1    0    0  501  502  0.00000000000E+00  0.00000000000E+00  0.11260655483E+02  0.11260655483E+02  0.00000000000E+00 0. -1.
          2   -1    0    0  502    0 -0.00000000000E+00 -0.00000000000E+00 -0.13186069637E+04  0.13186069637E+04  0.00000000000E+00 0. -1.
         24    2    1    2    0    0 -0.63118953780E+01 -0.41445841489E+02 -0.12721676004E+04  0.12751397535E+04  0.76245587489E+02 0.  0.
        -13    1    3    3    0    0  0.82146850607E+01  0.84023208483E+01 -0.35734258301E+02  0.37616715202E+02  0.00000000000E+00 0.  1.
         14    1    3    3    0    0 -0.14526580439E+02 -0.49848162337E+02 -0.12364333421E+04  0.12375230383E+04  0.00000000000E+00 0. -1.
          1    1    1    2  501    0  0.63118953780E+01  0.41445841489E+02 -0.35178707815E+02  0.54727865695E+02  0.00000000000E+00 0. -1.
<mgrwt>
<rscale>  1 0.87011421E+02</rscale>
<asrwt>0</asrwt>
<pdfrwt beam="1">  1       21 0.17324074E-02 0.87011421E+02</pdfrwt>
<pdfrwt beam="2">  1        2 0.20286275E+00 0.87011421E+02</pdfrwt>
<totfact> 0.33334669E+05</totfact>
</mgrwt>
</event>
<event>
 6    2  0.7993170E+000  0.9096689E+02  0.7546771E-02  0.1300527E+00
         21   -1    0    0  501  502  0.00000000000E+00  0.00000000000E+00  0.33452665289E+03  0.33452665289E+03  0.00000000000E+00 0. -1.
         -1   -1    0    0    0  501 -0.00000000000E+00 -0.00000000000E+00 -0.14389930916E+02  0.14389930916E+02  0.00000000000E+00 0.  1.
         24    2    1    2    0    0  0.36393637169E+02  0.11299247027E+02  0.15756871007E+03  0.18194195009E+03  0.82600272396E+02 0.  0.
        -13    1    3    3    0    0  0.12488664176E+02  0.33626235640E+02  0.21117682397E+02  0.41625076168E+02  0.00000000000E+00 0.  1.
         14    1    3    3    0    0  0.23904972992E+02 -0.22326988612E+02  0.13645102767E+03  0.14031687392E+03  0.00000000000E+00 0. -1.
         -2    1    1    2    0  502 -0.36393637169E+02 -0.11299247027E+02  0.16256801190E+03  0.16697463371E+03  0.00000000000E+00 0.  1.
<mgrwt>
<rscale>  1 0.90966889E+02</rscale>
<asrwt>0</asrwt>
<pdfrwt beam="1">  1       21 0.51465633E-01 0.90966889E+02</pdfrwt>
<pdfrwt beam="2">  1       -1 0.22138358E-02 0.90966889E+02</pdfrwt>
<totfact> 0.17683767E+05</totfact>
</mgrwt>
</event>
<event>
 6    2  0.7993170E+000  0.9065667E+02  0.7546771E-02  0.1301269E+00
          2   -1    0    0  502    0 -0.00000000000E+00  0.00000000000E+00  0.18835631855E+04  0.18835631855E+04  0.00000000000E+00 0. -1.
         21   -1    0    0  501  502  0.00000000000E+00 -0.00000000000E+00 -0.57573251080E+01  0.57573251080E+01  0.00000000000E+00 0. -1.
         24    2    1    2    0    0 -0.40625857042E+02  0.11846580449E+02  0.17852378887E+04  0.17875382376E+04  0.80173746753E+02 0.  0.
        -13    1    3    3    0    0  0.22331637591E+01 -0.22937820756E+02  0.19732799768E+03  0.19866924601E+03  0.00000000000E+00 0.  1.
         14    1    3    3    0    0 -0.42859020802E+02  0.34784401205E+02  0.15879098911E+04  0.15888689916E+04  0.00000000000E+00 0. -1.
          1    1    1    2  501    0  0.40625857042E+02 -0.11846580449E+02  0.92567971686E+02  0.10178227307E+03  0.00000000000E+00 0. -1.
<mgrwt>
<rscale>  1 0.90656668E+02</rscale>
<asrwt>0</asrwt>
<pdfrwt beam="1">  1       21 0.88574382E-03 0.90656668E+02</pdfrwt>
<pdfrwt beam="2">  1        2 0.28977846E+00 0.90656668E+02</pdfrwt>
<totfact> 0.49536897E+05</totfact>
</mgrwt>
</event>
<event>
 6    2  0.7993170E+000  0.9596794E+02  0.7546771E-02  0.1289011E+00
          2   -1    0    0  502    0 -0.00000000000E+00  0.00000000000E+00  0.84513574918E+02  0.84513574918E+02  0.00000000000E+00 0. -1.
         21   -1    0    0  501  502  0.00000000000E+00 -0.00000000000E+00 -0.68394163955E+02  0.68394163955E+02  0.00000000000E+00 0.  1.
         24    2    1    2    0    0 -0.51100749594E+02  0.14772886146E+02  0.24530738124E+02  0.99053535705E+02  0.79876911861E+02 0.  0.
        -13    1    3    3    0    0 -0.43498157878E+02  0.45953030714E+02  0.11000759181E+02  0.64224508353E+02  0.00000000000E+00 0.  1.
         14    1    3    3    0    0 -0.76025917164E+01 -0.31180144568E+02  0.13529978943E+02  0.34829027352E+02  0.00000000000E+00 0. -1.
          1    1    1    2  501    0  0.51100749594E+02 -0.14772886146E+02 -0.84113271618E+01  0.53854203168E+02  0.00000000000E+00 0. -1.
<mgrwt>
<rscale>  1 0.95967942E+02</rscale>
<asrwt>0</asrwt>
<pdfrwt beam="1">  1       21 0.10522179E-01 0.95967942E+02</pdfrwt>
<pdfrwt beam="2">  1        2 0.13002089E-01 0.95967942E+02</pdfrwt>
<totfact> 0.39699709E+05</totfact>
</mgrwt>
</event>
<event>
 6    2  0.7993170E+000  0.8621285E+02  0.7546771E-02  0.1312291E+00
          2   -1    0    0  502    0 -0.00000000000E+00  0.00000000000E+00  0.27360224800E+04  0.27360224800E+04  0.00000000000E+00 0. -1.
         21   -1    0    0  501  502  0.00000000000E+00 -0.00000000000E+00 -0.15606914994E+01  0.15606914994E+01  0.00000000000E+00 0. -1.
         24    2    1    2    0    0  0.24922787675E+01  0.28520884917E+02  0.24831026489E+04  0.24845988451E+04  0.81320378124E+02 0.  0.
        -13    1    3    3    0    0  0.38475734064E+02  0.34433412592E+01  0.80899751286E+03  0.80991926420E+03  0.00000000000E+00 0.  1.
         14    1    3    3    0    0 -0.35983455297E+02  0.25077543658E+02  0.16741051360E+04  0.16746795809E+04  0.00000000000E+00 0. -1.
          1    1    1    2  501    0 -0.24922787675E+01 -0.28520884917E+02  0.25135913964E+03  0.25298432641E+03  0.00000000000E+00 0. -1.
<mgrwt>
<rscale>  1 0.86212854E+02</rscale>
<asrwt>0</asrwt>
<pdfrwt beam="1">  1       21 0.24010857E-03 0.86212854E+02</pdfrwt>
<pdfrwt beam="2">  1        2 0.42092270E+00 0.86212854E+02</pdfrwt>
<totfact> 0.13218554E+06</totfact>
</mgrwt>
</event>
<event>
 6    2  0.7993170E+000  0.8230931E+02  0.7546771E-02  0.1322623E+00
         21   -1    0    0  501  502  0.00000000000E+00  0.00000000000E+00  0.35308700918E+02  0.35308700918E+02  0.00000000000E+00 0. -1.
          2   -1    0    0  502    0 -0.00000000000E+00 -0.00000000000E+00 -0.81927582847E+02  0.81927582847E+02  0.00000000000E+00 0. -1.
         24    2    1    2    0    0  0.16286300266E+02  0.11667756564E+02 -0.50863631698E+02  0.96757074303E+02  0.79833841688E+02 0.  0.
        -11    1    3    3    0    0  0.17625562393E+02 -0.21491097943E+02  0.82260970584E+01  0.28986141745E+02  0.00000000000E+00 0.  1.
         12    1    3    3    0    0 -0.13392621272E+01  0.33158854507E+02 -0.59089728756E+02  0.67770932558E+02  0.00000000000E+00 0. -1.
          1    1    1    2  501    0 -0.16286300266E+02 -0.11667756564E+02  0.42447497689E+01  0.20479209462E+02  0.00000000000E+00 0. -1.
<mgrwt>
<rscale>  1 0.82309309E+02</rscale>
<asrwt>0</asrwt>
<pdfrwt beam="1">  1       21 0.54321079E-02 0.82309309E+02</pdfrwt>
<pdfrwt beam="2">  1        2 0.12604243E-01 0.82309309E+02</pdfrwt>
<totfact> 0.12491554E+06</totfact>
</mgrwt>
</event>
<event>
 6    2  0.7993170E+000  0.8622045E+02  0.7546771E-02  0.1312271E+00
          4   -1    0    0  502    0 -0.00000000000E+00  0.00000000000E+00  0.11648282102E+02  0.11648282102E+02  0.00000000000E+00 0. -1.
         21   -1    0    0  501  502  0.00000000000E+00 -0.00000000000E+00 -0.29776750914E+03  0.29776750914E+03  0.00000000000E+00 0.  1.
         24    2    1    2    0    0  0.24236287132E+01  0.28988757937E+02 -0.23858961008E+03  0.25369069321E+03  0.81164916799E+02 0.  0.
        -13    1    3    3    0    0  0.21056164349E+02  0.51439395451E+02 -0.13306205285E+03  0.14420431120E+03  0.00000000000E+00 0.  1.
         14    1    3    3    0    0 -0.18632535636E+02 -0.22450637513E+02 -0.10552755724E+03  0.10948638201E+03  0.00000000000E+00 0. -1.
          3    1    1    2  501    0 -0.24236287132E+01 -0.28988757937E+02 -0.47529616956E+02  0.55725098033E+02  0.00000000000E+00 0. -1.
<mgrwt>
<rscale>  1 0.86220449E+02</rscale>
<asrwt>0</asrwt>
<pdfrwt beam="1">  1       21 0.45810385E-01 0.86220449E+02</pdfrwt>
<pdfrwt beam="2">  1        4 0.17920435E-02 0.86220449E+02</pdfrwt>
<totfact> 0.20726589E+05</totfact>
</mgrwt>
</event>
<event>
 6    2  0.7993170E+000  0.9596945E+02  0.7546771E-02  0.1289007E+00
         21   -1    0    0  501  502  0.00000000000E+00  0.00000000000E+00  0.17602069766E+02  0.17602069766E+02  0.00000000000E+00 0.  1.
          2   -1    0    0  502    0 -0.00000000000E+00 -0.00000000000E+00 -0.30738731214E+03  0.30738731214E+03  0.00000000000E+00 0. -1.
         24    2    1    2    0    0  0.47399888227E+02 -0.17923633453E+02 -0.20169973416E+03  0.22336722489E+03  0.81499253693E+02 0.  0.
        -13    1    3    3    0    0  0.35245657145E+02 -0.44571175582E+02 -0.79581091975E+02  0.97785460270E+02  0.00000000000E+00 0.  1.
         14    1    3    3    0    0  0.12154231083E+02  0.26647542129E+02 -0.12211864219E+03  0.12558176462E+03  0.00000000000E+00 0. -1.
          1    1    1    2  501    0 -0.47399888227E+02  0.17923633453E+02 -0.88085508217E+02  0.10162215702E+03  0.00000000000E+00 0. -1.
<mgrwt>
<rscale>  1 0.95969445E+02</rscale>
<asrwt>0</asrwt>
<pdfrwt beam="1">  1       21 0.27080108E-02 0.95969445E+02</pdfrwt>
<pdfrwt beam="2">  1        2 0.47290354E-01 0.95969445E+02</pdfrwt>
<totfact> 0.93401984E+05</totfact>
</mgrwt>
</event>
<event>
 6    2  0.7993170E+000  0.1998167E+03  0.7546771E-02  0.1149894E+00
         21   -1    0    0  501  502  0.00000000000E+00  0.00000000000E+00  0.12624671828E+02  0.12624671828E+02  0.00000000000E+00 0. -1.
          2   -1    0    0  502    0 -0.00000000000E+00 -0.00000000000E+00 -0.30162842579E+04  0.30162842579E+04  0.00000000000E+00 0. -1.
         24    2    1    2    0    0 -0.26469963919E+02 -0.18065324199E+03 -0.18693255640E+04  0.18799746729E+04  0.81181609829E+02 0.  0.
        -13    1    3    3    0    0 -0.23524398979E+02 -0.10729996061E+02 -0.40403009447E+03  0.40485657634E+03  0.00000000000E+00 0.  1.
         14    1    3    3    0    0 -0.29455649399E+01 -0.16992324593E+03 -0.14652954695E+04  0.14751180966E+04  0.00000000000E+00 0. -1.
          1    1    1    2  501    0  0.26469963919E+02  0.18065324199E+03 -0.11343340221E+04  0.11489342569E+04  0.00000000000E+00 0. -1.
<mgrwt>
<rscale>  1 0.19981668E+03</rscale>
<asrwt>0</asrwt>
<pdfrwt beam="1">  1       21 0.19422561E-02 0.19981668E+03</pdfrwt>
<pdfrwt beam="2">  1        2 0.46404399E+00 0.19981668E+03</pdfrwt>
<totfact> 0.34592554E+04</totfact>
</mgrwt>
</event>
<event>
 6    2  0.7993170E+000  0.8399054E+02  0.7546771E-02  0.1318094E+00
          2   -1    0    0  502    0 -0.00000000000E+00  0.00000000000E+00  0.16290835701E+04  0.16290835701E+04  0.00000000000E+00 0. -1.
         21   -1    0    0  501  502  0.00000000000E+00 -0.00000000000E+00 -0.18004637539E+01  0.18004637539E+01  0.00000000000E+00 0.  1.
         24    2    1    2    0    0 -0.20917307364E+02 -0.11167728448E+02  0.11918404878E+04  0.11947962836E+04  0.80573934710E+02 0.  0.
        -13    1    3    3    0    0 -0.17579533752E+02  0.18741018970E+02  0.12923672197E+03  0.13176644529E+03  0.00000000000E+00 0.  1.
         14    1    3    3    0    0 -0.33377736121E+01 -0.29908747418E+02  0.10626037659E+04  0.10630298383E+04  0.00000000000E+00 0. -1.
          1    1    1    2  501    0  0.20917307364E+02  0.11167728448E+02  0.43544261856E+03  0.43608775030E+03  0.00000000000E+00 0. -1.
<mgrwt>
<rscale>  1 0.83990540E+02</rscale>
<asrwt>0</asrwt>
<pdfrwt beam="1">  1       21 0.27699573E-03 0.83990540E+02</pdfrwt>
<pdfrwt beam="2">  1        2 0.25062706E+00 0.83990540E+02</pdfrwt>
<totfact> 0.39208597E+06</totfact>
</mgrwt>
</event>
<event>
 6    2  0.7993170E+000  0.9821221E+02  0.7546771E-02  0.1284101E+00
         21   -1    0    0  501  502  0.00000000000E+00  0.00000000000E+00  0.76354542605E+01  0.76354542605E+01  0.00000000000E+00 0.  1.
          2   -1    0    0  502    0 -0.00000000000E+00 -0.00000000000E+00 -0.94659308064E+03  0.94659308064E+03  0.00000000000E+00 0. -1.
         24    2    1    2    0    0  0.47516455023E+02 -0.23203828561E+02 -0.36979220409E+03  0.38261195966E+03  0.82761140111E+02 0.  0.
        -11    1    3    3    0    0  0.70501362882E+02 -0.13999028064E+02 -0.30211827728E+03  0.31055091116E+03  0.00000000000E+00 0.  1.
         12    1    3    3    0    0 -0.22984907858E+02 -0.92048004967E+01 -0.67673926812E+02  0.72061048505E+02  0.00000000000E+00 0. -1.
          1    1    1    2  501    0 -0.47516455023E+02  0.23203828561E+02 -0.56916542229E+03  0.57161657524E+03  0.00000000000E+00 0. -1.
<mgrwt>
<rscale>  1 0.98212206E+02</rscale>
<asrwt>0</asrwt>
<pdfrwt beam="1">  1       21 0.11746863E-02 0.98212206E+02</pdfrwt>
<pdfrwt beam="2">  1        2 0.14562958E+00 0.98212206E+02</pdfrwt>
<totfact> 0.10016919E+06</totfact>
</mgrwt>
</event>
<event>
 6    2  0.7993170E+000  0.8583404E+02  0.7546771E-02  0.1313266E+00
         -1   -1    0    0    0  501 -0.00000000000E+00  0.00000000000E+00  0.34297354339E+01  0.34297354339E+01  0.00000000000E+00 0.  1.
         21   -1    0    0  501  502  0.00000000000E+00 -0.00000000000E+00 -0.12741187335E+04  0.12741187335E+04  0.00000000000E+00 0.  1.
         24    2    1    2    0    0 -0.10379349349E+02 -0.35001666114E+02 -0.63002329941E+03  0.63584340821E+03  0.77682909584E+02 0.  0.
        -11    1    3    3    0    0  0.93824484667E+01 -0.41348675685E+02 -0.16511509645E+03  0.17047210445E+03  0.00000000000E+00 0.  1.
         12    1    3    3    0    0 -0.19761797815E+02  0.63470095709E+01 -0.46490820296E+03  0.46537130376E+03  0.00000000000E+00 0. -1.
         -2    1    1    2    0  502  0.10379349349E+02  0.35001666114E+02 -0.64066569869E+03  0.64170506076E+03  0.00000000000E+00 0.  1.
<mgrwt>
<rscale>  1 0.85834037E+02</rscale>
<asrwt>0</asrwt>
<pdfrwt beam="1">  1       21 0.19601859E+00 0.85834037E+02</pdfrwt>
<pdfrwt beam="2">  1       -1 0.52765073E-03 0.85834037E+02</pdfrwt>
<totfact> 0.58007957E+04</totfact>
</mgrwt>
</event>
<event>
 6    2  0.7993170E+000  0.8983036E+02  0.7546771E-02  0.1303263E+00
         21   -1    0    0  501  502  0.00000000000E+00  0.00000000000E+00  0.18090915780E+02  0.18090915780E+02  0.00000000000E+00 0. -1.
          2   -1    0    0  502    0 -0.00000000000E+00 -0.00000000000E+00 -0.21470157676E+03  0.21470157676E+03  0.00000000000E+00 0. -1.
         24    2    1    2    0    0  0.30747358138E+02 -0.16176167162E+02 -0.14528981256E+03  0.17081751453E+03  0.82839756283E+02 0.  0.
        -13    1    3    3    0    0 -0.19205337239E+02  0.30765965713E+01 -0.41804596360E+01  0.19894387845E+02  0.00000000000E+00 0.  1.
         14    1    3    3    0    0  0.49952695378E+02 -0.19252763733E+02 -0.14110935292E+03  0.15092312669E+03  0.00000000000E+00 0. -1.
          1    1    1    2  501    0 -0.30747358138E+02  0.16176167162E+02 -0.51320848427E+02  0.61974978014E+02  0.00000000000E+00 0. -1.
<mgrwt>
<rscale>  1 0.89830360E+02</rscale>
<asrwt>0</asrwt>
<pdfrwt beam="1">  1       21 0.27832177E-02 0.89830360E+02</pdfrwt>
<pdfrwt beam="2">  1        2 0.33031013E-01 0.89830360E+02</pdfrwt>
<totfact> 0.12940380E+06</totfact>
</mgrwt>
</event>
<event>
 6    2  0.7993170E+000  0.9141945E+02  0.7546771E-02  0.1299450E+00
         21   -1    0    0  501  502  0.00000000000E+00  0.00000000000E+00  0.40655787786E+01  0.40655787786E+01  0.00000000000E+00 0.  1.
          2   -1    0    0  502    0 -0.00000000000E+00 -0.00000000000E+00 -0.12478158082E+04  0.12478158082E+04  0.00000000000E+00 0. -1.
         24    2    1    2    0    0 -0.40263666491E+02 -0.14374787476E+02 -0.10196133980E+04  0.10237035691E+04  0.80806675070E+02 0.  0.
        -13    1    3    3    0    0 -0.35531894826E+01 -0.20028166292E+02 -0.59668076606E+02  0.63039923592E+02  0.00000000000E+00 0.  1.
         14    1    3    3    0    0 -0.36710477008E+02  0.56533788167E+01 -0.95994532135E+03  0.96066364550E+03  0.00000000000E+00 0. -1.
          1    1    1    2  501    0  0.40263666491E+02  0.14374787476E+02 -0.22413683150E+03  0.22817781792E+03  0.00000000000E+00 0. -1.
<mgrwt>
<rscale>  1 0.91419451E+02</rscale>
<asrwt>0</asrwt>
<pdfrwt beam="1">  1       21 0.62547272E-03 0.91419451E+02</pdfrwt>
<pdfrwt beam="2">  1        2 0.19197195E+00 0.91419451E+02</pdfrwt>
<totfact> 0.17956256E+06</totfact>
</mgrwt>
</event>
<event>
 6    2  0.7993170E+000  0.8875856E+02  0.7546771E-02  0.1305886E+00
          2   -1    0    0  502    0 -0.00000000000E+00  0.00000000000E+00  0.46929793954E+02  0.46929793954E+02  0.00000000000E+00 0. -1.
         21   -1    0    0  501  502  0.00000000000E+00 -0.00000000000E+00 -0.11024582226E+03  0.11024582226E+03  0.00000000000E+00 0. -1.
         24    2    1    2    0    0  0.47836078000E+01  0.28465438912E+02 -0.12964038846E+01  0.88768029432E+02  0.83934011403E+02 0.  0.
        -11    1    3    3    0    0 -0.31333746039E+02 -0.64176903811E+01 -0.16916204807E+02  0.36182155488E+02  0.00000000000E+00 0.  1.
         12    1    3    3    0    0  0.36117353839E+02  0.34883129293E+02  0.15619800923E+02  0.52585873944E+02  0.00000000000E+00 0. -1.
          1    1    1    2  501    0 -0.47836078000E+01 -0.28465438912E+02 -0.62019624420E+02  0.68407586781E+02  0.00000000000E+00 0. -1.
<mgrwt>
<rscale>  1 0.88758562E+02</rscale>
<asrwt>0</asrwt>
<pdfrwt beam="1">  1       21 0.16960896E-01 0.88758562E+02</pdfrwt>
<pdfrwt beam="2">  1        2 0.72199683E-02 0.88758562E+02</pdfrwt>
<totfact> 0.34627492E+05</totfact>
</mgrwt>
</event>
<event>
 6    2  0.7993170E+000  0.9135201E+02  0.7546771E-02  0.1299610E+00
         21   -1    0    0  501  502  0.00000000000E+00  0.00000000000E+00  0.38672094779E+01  0.38672094779E+01  0.00000000000E+00 0. -1.
          2   -1    0    0  502    0 -0.00000000000E+00 -0.00000000000E+00 -0.12739497249E+04  0.12739497249E+04  0.00000000000E+00 0. -1.
         24    2    1    2    0    0 -0.43202188549E+02  0.22477240674E+02 -0.78593455273E+03  0.79122582757E+03  0.77288638224E+02 0.  0.
        -13    1    3    3    0    0 -0.61615172130E+01 -0.27773014044E+02 -0.28504350374E+03  0.28645960209E+03  0.00000000000E+00 0.  1.
         14    1    3    3    0    0 -0.37040671336E+02  0.50250254717E+02 -0.50089104898E+03  0.50476622548E+03  0.00000000000E+00 0. -1.
          1    1    1    2  501    0  0.43202188549E+02 -0.22477240674E+02 -0.48414796272E+03  0.48659110683E+03  0.00000000000E+00 0. -1.
<mgrwt>
<rscale>  1 0.91352006E+02</rscale>
<asrwt>0</asrwt>
<pdfrwt beam="1">  1       21 0.59495481E-03 0.91352006E+02</pdfrwt>
<pdfrwt beam="2">  1        2 0.19599243E+00 0.91352006E+02</pdfrwt>
<totfact> 0.18780516E+06</totfact>
</mgrwt>
</event>
<event>
 6    2  0.7993170E+000  0.8763480E+02  0.7546771E-02  0.1308683E+00
          2   -1    0    0  502    0 -0.00000000000E+00  0.00000000000E+00  0.95145123079E+03  0.95145123079E+03  0.00000000000E+00 0. -1.
         21   -1    0    0  501  502  0.00000000000E+00 -0.00000000000E+00 -0.47057852730E+01  0.47057852730E+01  0.00000000000E+00 0. -1.
         24    2    1    2    0    0  0.18324057807E+02 -0.32062410432E+02  0.80204684531E+03  0.80682030203E+03  0.79473822316E+02 0.  0.
        -11    1    3    3    0    0 -0.54891668765E+01 -0.10282570383E+02  0.14461592483E+02  0.18574171955E+02  0.00000000000E+00 0.  1.
         12    1    3    3    0    0  0.23813224683E+02 -0.21779840049E+02  0.78758525283E+03  0.78824613007E+03  0.00000000000E+00 0. -1.
          1    1    1    2  501    0 -0.18324057807E+02  0.32062410432E+02  0.14469860021E+03  0.14933671403E+03  0.00000000000E+00 0. -1.
<mgrwt>
<rscale>  1 0.87634797E+02</rscale>
<asrwt>0</asrwt>
<pdfrwt beam="1">  1       21 0.72396772E-03 0.87634797E+02</pdfrwt>
<pdfrwt beam="2">  1        2 0.14637696E+00 0.87634797E+02</pdfrwt>
<totfact> 0.20961896E+06</totfact>
</mgrwt>
</event>
<event>
 6    2  0.7993170E+000  0.1006980E+03  0.7546771E-02  0.1278835E+00
         -1   -1    0    0    0  501 -0.00000000000E+00  0.00000000000E+00  0.59927570311E+02  0.59927570311E+02  0.00000000000E+00 0.  1.
         21   -1    0    0  501  502  0.00000000000E+00 -0.00000000000E+00 -0.15034593998E+03  0.15034593998E+03  0.00000000000E+00 0.  1.
         24    2    1    2    0    0 -0.65435949655E+01  0.57754295849E+02  0.24361132001E+01  0.10072748201E+03  0.82229639787E+02 0.  0.
        -11    1    3    3    0    0  0.68080871714E+01  0.67675973274E+02  0.25198081416E+02  0.72535030961E+02  0.00000000000E+00 0.  1.
         12    1    3    3    0    0 -0.13351682137E+02 -0.99216774247E+01 -0.22761968216E+02  0.28192451044E+02  0.00000000000E+00 0. -1.
         -2    1    1    2    0  502  0.65435949655E+01 -0.57754295849E+02 -0.92854482866E+02  0.10954602828E+03  0.00000000000E+00 0.  1.
<mgrwt>
<rscale>  1 0.10069802E+03</rscale>
<asrwt>0</asrwt>
<pdfrwt beam="1">  1       21 0.23130144E-01 0.10069802E+03</pdfrwt>
<pdfrwt beam="2">  1       -1 0.92196263E-02 0.10069802E+03</pdfrwt>
<totfact> 0.10496732E+05</totfact>
</mgrwt>
</event>
<event>
 6    2  0.7993170E+000  0.8726418E+02  0.7546771E-02  0.1309615E+00
          4   -1    0    0  502    0 -0.00000000000E+00  0.00000000000E+00  0.20936486717E+02  0.20936486717E+02  0.00000000000E+00 0. -1.
         21   -1    0    0  501  502  0.00000000000E+00 -0.00000000000E+00 -0.18731720836E+03  0.18731720836E+03  0.00000000000E+00 0.  1.
         24    2    1    2    0    0 -0.62654998879E+01 -0.37209403634E+02 -0.10997658006E+03  0.14039189879E+03  0.78684438591E+02 0.  0.
        -11    1    3    3    0    0 -0.18262444970E+02 -0.18618918733E+02 -0.11481822226E+03  0.11774296240E+03  0.00000000000E+00 0.  1.
         12    1    3    3    0    0  0.11996945082E+02 -0.18590484901E+02  0.48416422075E+01  0.22648936386E+02  0.00000000000E+00 0. -1.
          3    1    1    2  501    0  0.62654998879E+01  0.37209403634E+02 -0.56404141585E+02  0.67861796289E+02  0.00000000000E+00 0. -1.
<mgrwt>
<rscale>  1 0.87264180E+02</rscale>
<asrwt>0</asrwt>
<pdfrwt beam="1">  1       21 0.28818033E-01 0.87264180E+02</pdfrwt>
<pdfrwt beam="2">  1        4 0.32209979E-02 0.87264180E+02</pdfrwt>
<totfact> 0.20856126E+05</totfact>
</mgrwt>
</event>
<event>
 6    2  0.7993170E+000  0.8699845E+02  0.7546771E-02  0.1310288E+00
         -1   -1    0    0    0  501 -0.00000000000E+00  0.00000000000E+00  0.50985657568E+03  0.50985657568E+03  0.00000000000E+00 0.  1.
         21   -1    0    0  501  502  0.00000000000E+00 -0.00000000000E+00 -0.82980976396E+01  0.82980976396E+01  0.00000000000E+00 0.  1.
         24    2    1    2    0    0 -0.41475148823E+01 -0.35829899119E+02  0.42092458248E+03  0.42982116516E+03  0.79169099607E+02 0.  0.
        -11    1    3    3    0    0 -0.11097188807E+02 -0.60316078298E+02  0.31084384870E+03  0.31683603831E+03  0.00000000000E+00 0.  1.
         12    1    3    3    0    0  0.69496739244E+01  0.24486179180E+02  0.11008073379E+03  0.11298512685E+03  0.00000000000E+00 0. -1.
         -2    1    1    2    0  502  0.41475148823E+01  0.35829899119E+02  0.80633895556E+02  0.88333508156E+02  0.00000000000E+00 0.  1.
<mgrwt>
<rscale>  1 0.86998448E+02</rscale>
<asrwt>0</asrwt>
<pdfrwt beam="1">  1       21 0.12766308E-02 0.86998448E+02</pdfrwt>
<pdfrwt beam="2">  1       -1 0.78439449E-01 0.86998448E+02</pdfrwt>
<totfact> 0.37833879E+05</totfact>
</mgrwt>
</event>
<event>
 6    2  0.7993170E+000  0.1138377E+03  0.7546771E-02  0.1253624E+00
         21   -1    0    0  501  502  0.00000000000E+00  0.00000000000E+00  0.82969428363E+02  0.82969428363E+02  0.00000000000E+00 0. -1.
          2   -1    0    0  502    0 -0.00000000000E+00 -0.00000000000E+00 -0.39579290711E+03  0.39579290711E+03  0.00000000000E+00 0. -1.
         24    2    1    2    0    0  0.50371850678E+02 -0.60555467932E+02 -0.36628400113E+03  0.38356614074E+03  0.82187144982E+02 0.  0.
        -11    1    3    3    0    0  0.23740387969E+02  0.18749203491E+01 -0.21241032344E+02  0.31910857122E+02  0.00000000000E+00 0.  1.
         12    1    3    3    0    0  0.26631462710E+02 -0.62430388282E+02 -0.34504296879E+03  0.35165528362E+03  0.00000000000E+00 0. -1.
          1    1    1    2  501    0 -0.50371850678E+02  0.60555467932E+02  0.53460522387E+02  0.95196194730E+02  0.00000000000E+00 0. -1.
<mgrwt>
<rscale>  1 0.11383767E+03</rscale>
<asrwt>0</asrwt>
<pdfrwt beam="1">  1       21 0.12764527E-01 0.11383767E+03</pdfrwt>
<pdfrwt beam="2">  1        2 0.60891217E-01 0.11383767E+03</pdfrwt>
<totfact> 0.52683636E+04</totfact>
</mgrwt>
</event>
<event>
 6    2  0.7993170E+000  0.8364582E+02  0.7546771E-02  0.1319012E+00
          2   -1    0    0  502    0 -0.00000000000E+00  0.00000000000E+00  0.52153132444E+03  0.52153132444E+03  0.00000000000E+00 0. -1.
         21   -1    0    0  501  502  0.00000000000E+00 -0.00000000000E+00 -0.76991246237E+01  0.76991246237E+01  0.00000000000E+00 0.  1.
         24    2    1    2    0    0  0.18443335989E+02 -0.10806853561E+02  0.49052224537E+03  0.49760294991E+03  0.80868274574E+02 0.  0.
        -13    1    3    3    0    0  0.50226523491E+02 -0.92787696093E+01  0.26887831857E+03  0.27368658978E+03  0.00000000000E+00 0.  1.
         14    1    3    3    0    0 -0.31783187503E+02 -0.15280839515E+01  0.22164392680E+03  0.22391636014E+03  0.00000000000E+00 0. -1.
          1    1    1    2  501    0 -0.18443335989E+02  0.10806853561E+02  0.23309954447E+02  0.31627499151E+02  0.00000000000E+00 0. -1.
<mgrwt>
<rscale>  1 0.83645816E+02</rscale>
<asrwt>0</asrwt>
<pdfrwt beam="1">  1       21 0.11844811E-02 0.83645816E+02</pdfrwt>
<pdfrwt beam="2">  1        2 0.80235561E-01 0.83645816E+02</pdfrwt>
<totfact> 0.19656794E+06</totfact>
</mgrwt>
</event>
<event>
 6    2  0.7993170E+000  0.6555829E+02  0.7546771E-02  0.1375884E+00
         21   -1    0    0  501  502  0.00000000000E+00  0.00000000000E+00  0.10279679883E+02  0.10279679883E+02  0.00000000000E+00 0. -1.
          2   -1    0    0  502    0 -0.00000000000E+00 -0.00000000000E+00 -0.12392643327E+04  0.12392643327E+04  0.00000000000E+00 0. -1.
         24    2    1    2    0    0  0.20113395525E+02  0.12231824701E+02 -0.12236518962E+04  0.12254068108E+04  0.61185967573E+02 0.  0.
        -13    1    3    3    0    0  0.35461450226E+02 -0.16852412512E+01 -0.42308468079E+03  0.42457155064E+03  0.00000000000E+00 0.  1.
         14    1    3    3    0    0 -0.15348054701E+02  0.13917065952E+02 -0.80056721543E+03  0.80083526017E+03  0.00000000000E+00 0. -1.
          1    1    1    2  501    0 -0.20113395525E+02 -0.12231824701E+02 -0.53327565511E+01  0.24137201732E+02  0.00000000000E+00 0. -1.
<mgrwt>
<rscale>  1 0.65558286E+02</rscale>
<asrwt>0</asrwt>
<pdfrwt beam="1">  1       21 0.15814906E-02 0.65558286E+02</pdfrwt>
<pdfrwt beam="2">  1        2 0.19065589E+00 0.65558286E+02</pdfrwt>
<totfact> 0.41774392E+05</totfact>
</mgrwt>
</event>
<event>
 6    2  0.7993170E+000  0.8486295E+02  0.7546771E-02  0.1315791E+00
         21   -1    0    0  501  502  0.00000000000E+00  0.00000000000E+00  0.13460955074E+01  0.13460955074E+01  0.00000000000E+00 0.  1.
          2   -1    0    0  502    0 -0.00000000000E+00 -0.00000000000E+00 -0.24625586663E+04  0.24625586663E+04  0.00000000000E+00 0. -1.
         24    2    1    2    0    0 -0.17999981768E+02 -0.19954933353E+02 -0.20891665981E+04  0.20908894746E+04  0.80495475541E+02 0.  0.
        -11    1    3    3    0    0 -0.27719473366E+02 -0.47863211861E+02 -0.13603548480E+04  0.13614788169E+04  0.00000000000E+00 0.  1.
         12    1    3    3    0    0  0.97194915978E+01  0.27908278509E+02 -0.72881175005E+03  0.72941065768E+03  0.00000000000E+00 0. -1.
          1    1    1    2  501    0  0.17999981768E+02  0.19954933353E+02 -0.37204597270E+03  0.37301528723E+03  0.00000000000E+00 0. -1.
<mgrwt>
<rscale>  1 0.84862950E+02</rscale>
<asrwt>0</asrwt>
<pdfrwt beam="1">  1       21 0.20709166E-03 0.84862950E+02</pdfrwt>
<pdfrwt beam="2">  1        2 0.37885510E+00 0.84862950E+02</pdfrwt>
<totfact> 0.23036858E+06</totfact>
</mgrwt>
</event>
<event>
 6    2  0.7993170E+000  0.8513859E+02  0.7546771E-02  0.1315071E+00
          4   -1    0    0  502    0 -0.00000000000E+00  0.00000000000E+00  0.58945923361E+01  0.58945923361E+01  0.00000000000E+00 0. -1.
         21   -1    0    0  501  502  0.00000000000E+00 -0.00000000000E+00 -0.58451482141E+03  0.58451482141E+03  0.00000000000E+00 0.  1.
         24    2    1    2    0    0 -0.21873826327E+02 -0.18540776768E+02 -0.48766984593E+03  0.49504591510E+03  0.80164547897E+02 0.  0.
        -11    1    3    3    0    0 -0.45511626276E+02 -0.16865117858E+02 -0.42951027312E+03  0.43224393003E+03  0.00000000000E+00 0.  1.
         12    1    3    3    0    0  0.23637799949E+02 -0.16756589101E+01 -0.58159572812E+02  0.62801985072E+02  0.00000000000E+00 0. -1.
          3    1    1    2  501    0  0.21873826327E+02  0.18540776768E+02 -0.90950383144E+02  0.95363498653E+02  0.00000000000E+00 0. -1.
<mgrwt>
<rscale>  1 0.85138589E+02</rscale>
<asrwt>0</asrwt>
<pdfrwt beam="1">  1       21 0.89925390E-01 0.85138589E+02</pdfrwt>
<pdfrwt beam="2">  1        4 0.90686003E-03 0.85138589E+02</pdfrwt>
<totfact> 0.13722254E+05</totfact>
</mgrwt>
</event>
<event>
 6    2  0.7993170E+000  0.9250476E+02  0.7546771E-02  0.1296897E+00
          2   -1    0    0  502    0 -0.00000000000E+00  0.00000000000E+00  0.32793255736E+04  0.32793255736E+04  0.00000000000E+00 0. -1.
         21   -1    0    0  501  502  0.00000000000E+00 -0.00000000000E+00 -0.15045706606E+01  0.15045706606E+01  0.00000000000E+00 0.  1.
         24    2    1    2    0    0 -0.20158465303E+02 -0.43369009981E+02  0.20865988077E+04  0.20886482986E+04  0.79182675489E+02 0.  0.
        -11    1    3    3    0    0 -0.39757193492E+02 -0.53576495662E+02  0.17822757232E+04  0.17835239917E+04  0.00000000000E+00 0.  1.
         12    1    3    3    0    0  0.19598728189E+02  0.10207485682E+02  0.30432308449E+03  0.30512430691E+03  0.00000000000E+00 0. -1.
          1    1    1    2  501    0  0.20158465303E+02  0.43369009981E+02  0.11912221952E+04  0.11921818456E+04  0.00000000000E+00 0. -1.
<mgrwt>
<rscale>  1 0.92504761E+02</rscale>
<asrwt>0</asrwt>
<pdfrwt beam="1">  1       21 0.23147503E-03 0.92504761E+02</pdfrwt>
<pdfrwt beam="2">  1        2 0.50450591E+00 0.92504761E+02</pdfrwt>
<totfact> 0.68472371E+05</totfact>
</mgrwt>
</event>
<event>
 6    2  0.7993170E+000  0.8674430E+02  0.7546771E-02  0.1310933E+00
         -3   -1    0    0    0  501 -0.00000000000E+00  0.00000000000E+00  0.72557564830E+01  0.72557564830E+01  0.00000000000E+00 0.  1.
         21   -1    0    0  501  502  0.00000000000E+00 -0.00000000000E+00 -0.55782060605E+03  0.55782060605E+03  0.00000000000E+00 0. -1.
         24    2    1    2    0    0 -0.22382009709E+02  0.19714116081E+02 -0.28681678062E+03  0.29964719193E+03  0.81455345174E+02 0.  0.
        -13    1    3    3    0    0 -0.31356289900E+02 -0.38643712592E+00 -0.35494468632E+02  0.47362681020E+02  0.00000000000E+00 0.  1.
         14    1    3    3    0    0  0.89742801906E+01  0.20100553207E+02 -0.25132231199E+03  0.25228451091E+03  0.00000000000E+00 0. -1.
         -4    1    1    2    0  502  0.22382009709E+02 -0.19714116081E+02 -0.26374806895E+03  0.26542917060E+03  0.00000000000E+00 0.  1.
<mgrwt>
<rscale>  1 0.86744302E+02</rscale>
<asrwt>0</asrwt>
<pdfrwt beam="1">  1       21 0.85818539E-01 0.86744302E+02</pdfrwt>
<pdfrwt beam="2">  1       -3 0.11162704E-02 0.86744302E+02</pdfrwt>
<totfact> 0.12350172E+05</totfact>
</mgrwt>
</event>
<event>
 6    2  0.7993170E+000  0.8313207E+02  0.7546771E-02  0.1320391E+00
         21   -1    0    0  501  502  0.00000000000E+00  0.00000000000E+00  0.25439993519E+01  0.25439993519E+01  0.00000000000E+00 0. -1.
          2   -1    0    0  502    0 -0.00000000000E+00 -0.00000000000E+00 -0.23406413756E+04  0.23406413756E+04  0.00000000000E+00 0. -1.
         24    2    1    2    0    0  0.20817663045E+02  0.49710055404E+01 -0.22757265514E+04  0.22772444485E+04  0.80329667190E+02 0.  0.
        -11    1    3    3    0    0  0.10514706675E+02  0.41377330416E+02 -0.92000885010E+03  0.92099887448E+03  0.00000000000E+00 0.  1.
         12    1    3    3    0    0  0.10302956370E+02 -0.36406324876E+02 -0.13557177013E+04  0.13562455740E+04  0.00000000000E+00 0. -1.
          1    1    1    2  501    0 -0.20817663045E+02 -0.49710055404E+01 -0.62370824854E+02  0.65940926470E+02  0.00000000000E+00 0. -1.
<mgrwt>
<rscale>  1 0.83132072E+02</rscale>
<asrwt>0</asrwt>
<pdfrwt beam="1">  1       21 0.39138604E-03 0.83132072E+02</pdfrwt>
<pdfrwt beam="2">  1        2 0.36009727E+00 0.83132072E+02</pdfrwt>
<totfact> 0.10186339E+06</totfact>
</mgrwt>
</event>
<event>
 6    2  0.7993170E+000  0.8605832E+02  0.7546771E-02  0.1312688E+00
         21   -1    0    0  501  502  0.00000000000E+00  0.00000000000E+00  0.48558288327E+02  0.48558288327E+02  0.00000000000E+00 0. -1.
          2   -1    0    0  502    0 -0.00000000000E+00 -0.00000000000E+00 -0.13477600622E+03  0.13477600622E+03  0.00000000000E+00 0. -1.
         24    2    1    2    0    0  0.18415783942E+02 -0.28443626246E+02 -0.11164988868E+03  0.14096713411E+03  0.79106600763E+02 0.  0.
        -11    1    3    3    0    0  0.33399672634E+02 -0.11742585501E+02 -0.98847270036E+01  0.36757778418E+02  0.00000000000E+00 0.  1.
         12    1    3    3    0    0 -0.14983888692E+02 -0.16701040744E+02 -0.10176516168E+03  0.10420935569E+03  0.00000000000E+00 0. -1.
          1    1    1    2  501    0 -0.18415783942E+02  0.28443626246E+02  0.25432170790E+02  0.42367160435E+02  0.00000000000E+00 0. -1.
<mgrwt>
<rscale>  1 0.86058325E+02</rscale>
<asrwt>0</asrwt>
<pdfrwt beam="1">  1       21 0.74705060E-02 0.86058325E+02</pdfrwt>
<pdfrwt beam="2">  1        2 0.20734770E-01 0.86058325E+02</pdfrwt>
<totfact> 0.41559409E+05</totfact>
</mgrwt>
</event>
<event>
 6    2  0.7993170E+000  0.8246150E+02  0.7546771E-02  0.1322208E+00
         21   -1    0    0  501  502  0.00000000000E+00  0.00000000000E+00  0.52334118740E+01  0.52334118740E+01  0.00000000000E+00 0. -1.
          2   -1    0    0  502    0 -0.00000000000E+00 -0.00000000000E+00 -0.79390099027E+03  0.79390099027E+03  0.00000000000E+00 0. -1.
         24    2    1    2    0    0  0.11000483917E+02 -0.16889519390E+02 -0.75777052589E+03  0.76224410037E+03  0.79960190888E+02 0.  0.
        -11    1    3    3    0    0 -0.21290979203E+02 -0.93721522088E+01 -0.71833293591E+02  0.75506060025E+02  0.00000000000E+00 0.  1.
         12    1    3    3    0    0  0.32291463120E+02 -0.75173671808E+01 -0.68593723230E+03  0.68673804034E+03  0.00000000000E+00 0. -1.
          1    1    1    2  501    0 -0.11000483917E+02  0.16889519390E+02 -0.30897052512E+02  0.36890301782E+02  0.00000000000E+00 0. -1.
<mgrwt>
<rscale>  1 0.82461498E+02</rscale>
<asrwt>0</asrwt>
<pdfrwt beam="1">  1       21 0.80513977E-03 0.82461498E+02</pdfrwt>
<pdfrwt beam="2">  1        2 0.12213869E+00 0.82461498E+02</pdfrwt>
<totfact> 0.22198534E+06</totfact>
</mgrwt>
</event>
<event>
 6    2  0.7993170E+000  0.8189462E+02  0.7546771E-02  0.1323759E+00
         21   -1    0    0  501  502  0.00000000000E+00  0.00000000000E+00  0.35121832613E+02  0.35121832613E+02  0.00000000000E+00 0.  1.
          2   -1    0    0  502    0 -0.00000000000E+00 -0.00000000000E+00 -0.96104377388E+02  0.96104377388E+02  0.00000000000E+00 0. -1.
         24    2    1    2    0    0 -0.12858520724E+02  0.22355753990E+02 -0.65720893007E+02  0.10500459229E+03  0.77727777093E+02 0.  0.
        -11    1    3    3    0    0  0.14711582169E+02 -0.37002974843E+01  0.11455407030E+02  0.19009187295E+02  0.00000000000E+00 0.  1.
         12    1    3    3    0    0 -0.27570102893E+02  0.26056051474E+02 -0.77176300037E+02  0.85995404990E+02  0.00000000000E+00 0. -1.
          1    1    1    2  501    0  0.12858520724E+02 -0.22355753990E+02  0.47383482313E+01  0.26221617716E+02  0.00000000000E+00 0. -1.
<mgrwt>
<rscale>  1 0.81894619E+02</rscale>
<asrwt>0</asrwt>
<pdfrwt beam="1">  1       21 0.54033589E-02 0.81894619E+02</pdfrwt>
<pdfrwt beam="2">  1        2 0.14785289E-01 0.81894619E+02</pdfrwt>
<totfact> 0.10456907E+06</totfact>
</mgrwt>
</event>
<event>
 6    2  0.7993170E+000  0.1085648E+03  0.7546771E-02  0.1263251E+00
          2   -1    0    0  502    0 -0.00000000000E+00  0.00000000000E+00  0.16920626102E+04  0.16920626102E+04  0.00000000000E+00 0. -1.
         21   -1    0    0  501  502  0.00000000000E+00 -0.00000000000E+00 -0.49962501607E+01  0.49962501607E+01  0.00000000000E+00 0. -1.
         24    2    1    2    0    0  0.73379892749E+02 -0.14206414523E+02  0.93178956385E+03  0.93809280728E+03  0.78739398585E+02 0.  0.
        -13    1    3    3    0    0  0.19807069073E+02  0.28807988934E+02  0.19519502606E+03  0.19830108021E+03  0.00000000000E+00 0.  1.
         14    1    3    3    0    0  0.53572823675E+02 -0.43014403457E+02  0.73659453779E+03  0.73979172707E+03  0.00000000000E+00 0. -1.
          1    1    1    2  501    0 -0.73379892749E+02  0.14206414523E+02  0.75527679623E+03  0.75896605313E+03  0.00000000000E+00 0. -1.
<mgrwt>
<rscale>  1 0.10856484E+03</rscale>
<asrwt>0</asrwt>
<pdfrwt beam="1">  1       21 0.76865522E-03 0.10856484E+03</pdfrwt>
<pdfrwt beam="2">  1        2 0.26031687E+00 0.10856484E+03</pdfrwt>
<totfact> 0.77691314E+05</totfact>
</mgrwt>
</event>
<event>
 6    2  0.7993170E+000  0.8426497E+02  0.7546771E-02  0.1317366E+00
          2   -1    0    0  502    0 -0.00000000000E+00  0.00000000000E+00  0.90659694605E+01  0.90659694605E+01  0.00000000000E+00 0. -1.
         21   -1    0    0  501  502  0.00000000000E+00 -0.00000000000E+00 -0.36188412817E+03  0.36188412817E+03  0.00000000000E+00 0. -1.
         24    2    1    2    0    0  0.12360438019E+02  0.23160663051E+02 -0.22049684924E+03  0.23604966887E+03  0.80071149025E+02 0.  0.
        -11    1    3    3    0    0 -0.29936761455E+02  0.24183481967E+02 -0.13894065647E+03  0.14417196852E+03  0.00000000000E+00 0.  1.
         12    1    3    3    0    0  0.42297199475E+02 -0.10228189155E+01 -0.81556192773E+02  0.91877700349E+02  0.00000000000E+00 0. -1.
          1    1    1    2  501    0 -0.12360438019E+02 -0.23160663051E+02 -0.13232130946E+03  0.13490042876E+03  0.00000000000E+00 0. -1.
<mgrwt>
<rscale>  1 0.84264973E+02</rscale>
<asrwt>0</asrwt>
<pdfrwt beam="1">  1       21 0.55674482E-01 0.84264973E+02</pdfrwt>
<pdfrwt beam="2">  1        2 0.13947645E-02 0.84264973E+02</pdfrwt>
<totfact> 0.30613382E+05</totfact>
</mgrwt>
</event>
<event>
 6    2  0.7993170E+000  0.8260320E+02  0.7546771E-02  0.1321822E+00
          2   -1    0    0  502    0 -0.00000000000E+00  0.00000000000E+00  0.88438278729E+03  0.88438278729E+03  0.00000000000E+00 0. -1.
         21   -1    0    0  501  502  0.00000000000E+00 -0.00000000000E+00 -0.58803459712E+01  0.58803459712E+01  0.00000000000E+00 0. -1.
         24    2    1    2    0    0 -0.18378478483E+02 -0.12372984314E+02  0.85075473369E+03  0.85475546520E+03  0.79576561793E+02 0.  0.
        -13    1    3    3    0    0 -0.98488807963E+01  0.63730167974E+01  0.16492374310E+02  0.20238927996E+02  0.00000000000E+00 0.  1.
         14    1    3    3    0    0 -0.85295976871E+01 -0.18746001111E+02  0.83426235938E+03  0.83451653721E+03  0.00000000000E+00 0. -1.
          1    1    1    2  501    0  0.18378478483E+02  0.12372984314E+02  0.27747707625E+02  0.35507668054E+02  0.00000000000E+00 0. -1.
<mgrwt>
<rscale>  1 0.82603198E+02</rscale>
<asrwt>0</asrwt>
<pdfrwt beam="1">  1       21 0.90466931E-03 0.82603198E+02</pdfrwt>
<pdfrwt beam="2">  1        2 0.13605878E+00 0.82603198E+02</pdfrwt>
<totfact> 0.16209665E+06</totfact>
</mgrwt>
</event>
<event>
 6    2  0.7993170E+000  0.8758403E+02  0.7546771E-02  0.1308810E+00
         21   -1    0    0  501  502  0.00000000000E+00  0.00000000000E+00  0.40128326556E+02  0.40128326556E+02  0.00000000000E+00 0. -1.
         -3   -1    0    0    0  501 -0.00000000000E+00 -0.00000000000E+00 -0.92810342257E+02  0.92810342257E+02  0.00000000000E+00 0.  1.
         24    2    1    2    0    0  0.33516983976E+02 -0.77277139939E+01 -0.35727797283E+02  0.94590900943E+02  0.80547236229E+02 0.  0.
        -11    1    3    3    0    0  0.32424361115E+02  0.21835372941E+02 -0.48564298033E+02  0.62342712074E+02  0.00000000000E+00 0.  1.
         12    1    3    3    0    0  0.10926228610E+01 -0.29563086935E+02  0.12836500751E+02  0.32248188869E+02  0.00000000000E+00 0. -1.
         -4    1    1    2    0  502 -0.33516983976E+02  0.77277139939E+01 -0.16954218418E+02  0.38347767870E+02  0.00000000000E+00 0.  1.
<mgrwt>
<rscale>  1 0.87584034E+02</rscale>
<asrwt>0</asrwt>
<pdfrwt beam="1">  1       21 0.61735887E-02 0.87584034E+02</pdfrwt>
<pdfrwt beam="2">  1       -3 0.14278514E-01 0.87584034E+02</pdfrwt>
<totfact> 0.33375046E+05</totfact>
</mgrwt>
</event>
<event>
 6    2  0.7993170E+000  0.8876732E+02  0.7546771E-02  0.1305865E+00
          2   -1    0    0  502    0 -0.00000000000E+00  0.00000000000E+00  0.29204111263E+03  0.29204111263E+03  0.00000000000E+00 0. -1.
         21   -1    0    0  501  502  0.00000000000E+00 -0.00000000000E+00 -0.19160337327E+02  0.19160337327E+02  0.00000000000E+00 0. -1.
         24    2    1    2    0    0  0.36315995370E+02 -0.36833569146E+00  0.25637728183E+03  0.27130969031E+03  0.80997840873E+02 0.  0.
        -13    1    3    3    0    0  0.46186417317E+02 -0.98726145046E+01  0.70082111214E+02  0.84511277200E+02  0.00000000000E+00 0.  1.
         14    1    3    3    0    0 -0.98704219470E+01  0.95042788131E+01  0.18629517062E+03  0.18679841311E+03  0.00000000000E+00 0. -1.
          1    1    1    2  501    0 -0.36315995370E+02  0.36833569146E+00  0.16503493469E+02  0.39891759645E+02  0.00000000000E+00 0. -1.
<mgrwt>
<rscale>  1 0.88767322E+02</rscale>
<asrwt>0</asrwt>
<pdfrwt beam="1">  1       21 0.29477444E-02 0.88767322E+02</pdfrwt>
<pdfrwt beam="2">  1        2 0.44929399E-01 0.88767322E+02</pdfrwt>
<totfact> 0.85215883E+05</totfact>
</mgrwt>
</event>
<event>
 6    2  0.7993170E+000  0.9261529E+02  0.7546771E-02  0.1296639E+00
          2   -1    0    0  502    0 -0.00000000000E+00  0.00000000000E+00  0.69322800602E+03  0.69322800602E+03  0.00000000000E+00 0. -1.
         21   -1    0    0  501  502  0.00000000000E+00 -0.00000000000E+00 -0.10033667823E+02  0.10033667823E+02  0.00000000000E+00 0. -1.
         24    2    1    2    0    0  0.68282313196E+00 -0.41108258398E+02  0.62605295802E+03  0.63286641488E+03  0.82989382938E+02 0.  0.
        -11    1    3    3    0    0 -0.28051525820E+02 -0.49256704390E+02  0.50552005903E+03  0.50868815703E+03  0.00000000000E+00 0.  1.
         12    1    3    3    0    0  0.28734348952E+02  0.81484459922E+01  0.12053289899E+03  0.12417825785E+03  0.00000000000E+00 0. -1.
          1    1    1    2  501    0 -0.68282313196E+00  0.41108258398E+02  0.57141380173E+02  0.70395258960E+02  0.00000000000E+00 0. -1.
<mgrwt>
<rscale>  1 0.92615295E+02</rscale>
<asrwt>0</asrwt>
<pdfrwt beam="1">  1       21 0.15436417E-02 0.92615295E+02</pdfrwt>
<pdfrwt beam="2">  1        2 0.10665043E+00 0.92615295E+02</pdfrwt>
<totfact> 0.95102225E+05</totfact>
</mgrwt>
</event>
<event>
 6    2  0.7993170E+000  0.8479484E+02  0.7546771E-02  0.1315970E+00
         -1   -1    0    0    0  501 -0.00000000000E+00  0.00000000000E+00  0.68287130281E+03  0.68287130281E+03  0.00000000000E+00 0.  1.
         21   -1    0    0  501  502  0.00000000000E+00 -0.00000000000E+00 -0.52853697099E+01  0.52853697099E+01  0.00000000000E+00 0. -1.
         24    2    1    2    0    0 -0.26457989948E+02 -0.11413473248E+02  0.58714567560E+03  0.59323706032E+03  0.79748810375E+02 0.  0.
        -11    1    3    3    0    0 -0.22330449795E+02 -0.13506382111E+02  0.58795934292E+03  0.58853824028E+03  0.00000000000E+00 0.  1.
         12    1    3    3    0    0 -0.41275401526E+01  0.20929088626E+01 -0.81366732219E+00  0.46988200359E+01  0.00000000000E+00 0. -1.
         -2    1    1    2    0  502  0.26457989948E+02  0.11413473248E+02  0.90440257495E+02  0.94919612196E+02  0.00000000000E+00 0.  1.
<mgrwt>
<rscale>  1 0.84794843E+02</rscale>
<asrwt>0</asrwt>
<pdfrwt beam="1">  1       21 0.81313434E-03 0.84794843E+02</pdfrwt>
<pdfrwt beam="2">  1       -1 0.10505705E+00 0.84794843E+02</pdfrwt>
<totfact> 0.41257984E+05</totfact>
</mgrwt>
</event>
<event>
 6    2  0.7993170E+000  0.8148580E+02  0.7546771E-02  0.1324887E+00
         21   -1    0    0  501  502  0.00000000000E+00  0.00000000000E+00  0.51559115428E+03  0.51559115428E+03  0.00000000000E+00 0. -1.
          2   -1    0    0  502    0 -0.00000000000E+00 -0.00000000000E+00 -0.13128844021E+02  0.13128844021E+02  0.00000000000E+00 0. -1.
         24    2    1    2    0    0 -0.26340464708E+02  0.15181279313E+02  0.12000146112E+03  0.14505270435E+03  0.75601885201E+02 0.  0.
        -13    1    3    3    0    0  0.21862439342E+01 -0.24611699473E+02  0.73444290815E+02  0.77489220327E+02  0.00000000000E+00 0.  1.
         14    1    3    3    0    0 -0.28526708642E+02  0.39792978786E+02  0.46557170303E+02  0.67563484023E+02  0.00000000000E+00 0. -1.
          1    1    1    2  501    0  0.26340464708E+02 -0.15181279313E+02  0.38246084914E+03  0.38366729395E+03  0.00000000000E+00 0. -1.
<mgrwt>
<rscale>  1 0.81485805E+02</rscale>
<asrwt>0</asrwt>
<pdfrwt beam="1">  1       21 0.79321701E-01 0.81485805E+02</pdfrwt>
<pdfrwt beam="2">  1        2 0.20198226E-02 0.81485805E+02</pdfrwt>
<totfact> 0.87036740E+04</totfact>
</mgrwt>
</event>
<event>
 6    2  0.7993170E+000  0.8310466E+02  0.7546771E-02  0.1320465E+00
         21   -1    0    0  501  502  0.00000000000E+00  0.00000000000E+00  0.55249377979E+02  0.55249377979E+02  0.00000000000E+00 0.  1.
          2   -1    0    0  502    0 -0.00000000000E+00 -0.00000000000E+00 -0.85546789552E+02  0.85546789552E+02  0.00000000000E+00 0. -1.
         24    2    1    2    0    0  0.95624056964E+01 -0.17804589851E+02 -0.61663342943E+02  0.10348310449E+03  0.80609813486E+02 0.  0.
        -13    1    3    3    0    0 -0.25970920524E+02 -0.34958153065E+02 -0.29838571244E+02  0.52791112059E+02  0.00000000000E+00 0.  1.
         14    1    3    3    0    0  0.35533326221E+02  0.17153563214E+02 -0.31824771700E+02  0.50691992435E+02  0.00000000000E+00 0. -1.
          1    1    1    2  501    0 -0.95624056964E+01  0.17804589851E+02  0.31365931370E+02  0.37313063037E+02  0.00000000000E+00 0. -1.
<mgrwt>
<rscale>  1 0.83104663E+02</rscale>
<asrwt>0</asrwt>
<pdfrwt beam="1">  1       21 0.84999044E-02 0.83104663E+02</pdfrwt>
<pdfrwt beam="2">  1        2 0.13161044E-01 0.83104663E+02</pdfrwt>
<totfact> 0.55821629E+05</totfact>
</mgrwt>
</event>
<event>
 6    2  0.7993170E+000  0.8711509E+02  0.7546771E-02  0.1309992E+00
          2   -1    0    0  502    0 -0.00000000000E+00  0.00000000000E+00  0.97093002199E+03  0.97093002199E+03  0.00000000000E+00 0. -1.
         21   -1    0    0  501  502  0.00000000000E+00 -0.00000000000E+00 -0.21293061358E+02  0.21293061358E+02  0.00000000000E+00 0. -1.
         24    2    1    2    0    0 -0.13890206877E+02 -0.29823211986E+02  0.95493465048E+03  0.95890000819E+03  0.80663977028E+02 0.  0.
        -13    1    3    3    0    0 -0.16559724810E+02 -0.33175010981E+02  0.17188929201E+03  0.17584292578E+03  0.00000000000E+00 0.  1.
         14    1    3    3    0    0  0.26695179322E+01  0.33517989955E+01  0.78304535848E+03  0.78305708241E+03  0.00000000000E+00 0. -1.
          1    1    1    2  501    0  0.13890206877E+02  0.29823211986E+02 -0.52976898528E+01  0.33323075159E+02  0.00000000000E+00 0. -1.
<mgrwt>
<rscale>  1 0.87115091E+02</rscale>
<asrwt>0</asrwt>
<pdfrwt beam="1">  1       21 0.32758563E-02 0.87115091E+02</pdfrwt>
<pdfrwt beam="2">  1        2 0.14937382E+00 0.87115091E+02</pdfrwt>
<totfact> 0.18635149E+05</totfact>
</mgrwt>
</event>
<event>
 6    2  0.7993170E+000  0.1140583E+03  0.7546771E-02  0.1253234E+00
         21   -1    0    0  501  502  0.00000000000E+00  0.00000000000E+00  0.36884252636E+02  0.36884252636E+02  0.00000000000E+00 0. -1.
          2   -1    0    0  502    0 -0.00000000000E+00 -0.00000000000E+00 -0.61103832453E+03  0.61103832453E+03  0.00000000000E+00 0. -1.
         24    2    1    2    0    0 -0.45182407326E+02 -0.77626348359E+02 -0.53986454248E+03  0.55178168203E+03  0.70299363464E+02 0.  0.
        -13    1    3    3    0    0  0.18598480475E+02 -0.25559992718E+02 -0.16104477312E+03  0.16411774936E+03  0.00000000000E+00 0.  1.
         14    1    3    3    0    0 -0.63780887801E+02 -0.52066355641E+02 -0.37881976935E+03  0.38766393267E+03  0.00000000000E+00 0. -1.
          1    1    1    2  501    0  0.45182407326E+02  0.77626348359E+02 -0.34289529421E+02  0.96140895145E+02  0.00000000000E+00 0. -1.
<mgrwt>
<rscale>  1 0.11405832E+03</rscale>
<asrwt>0</asrwt>
<pdfrwt beam="1">  1       21 0.56745009E-02 0.11405832E+03</pdfrwt>
<pdfrwt beam="2">  1        2 0.94005888E-01 0.11405832E+03</pdfrwt>
<totfact> 0.13301378E+05</totfact>
</mgrwt>
</event>
<event>
 6    2  0.7993170E+000  0.1034044E+03  0.7546771E-02  0.1273296E+00
         -1   -1    0    0    0  501 -0.00000000000E+00  0.00000000000E+00  0.10750557481E+04  0.10750557481E+04  0.00000000000E+00 0.  1.
         21   -1    0    0  501  502  0.00000000000E+00 -0.00000000000E+00 -0.85343934315E+01  0.85343934315E+01  0.00000000000E+00 0.  1.
         24    2    1    2    0    0  0.19822819441E+02 -0.61951813168E+02  0.87995698637E+03  0.88601171446E+03  0.80383387415E+02 0.  0.
        -11    1    3    3    0    0  0.29893377717E+02 -0.14023711233E+02  0.11945891436E+03  0.12393833438E+03  0.00000000000E+00 0.  1.
         12    1    3    3    0    0 -0.10070558276E+02 -0.47928101935E+02  0.76049807201E+03  0.76207338008E+03  0.00000000000E+00 0. -1.
         -2    1    1    2    0  502 -0.19822819441E+02  0.61951813168E+02  0.18656436828E+03  0.19757842706E+03  0.00000000000E+00 0.  1.
<mgrwt>
<rscale>  1 0.10340435E+03</rscale>
<asrwt>0</asrwt>
<pdfrwt beam="1">  1       21 0.13129845E-02 0.10340435E+03</pdfrwt>
<pdfrwt beam="2">  1       -1 0.16539308E+00 0.10340435E+03</pdfrwt>
<totfact> 0.65562417E+04</totfact>
</mgrwt>
</event>
<event>
 6    2  0.7993170E+000  0.5911738E+02  0.7546771E-02  0.1401573E+00
         21   -1    0    0  501  502  0.00000000000E+00  0.00000000000E+00  0.10434750558E+03  0.10434750558E+03  0.00000000000E+00 0.  1.
         -1   -1    0    0    0  501 -0.00000000000E+00 -0.00000000000E+00 -0.88271907280E+02  0.88271907280E+02  0.00000000000E+00 0.  1.
         24    2    1    2    0    0 -0.27695297520E+02  0.15299866078E+02 -0.75408019100E+02  0.95818753466E+02  0.49937448517E+02 0.  0.
        -11    1    3    3    0    0 -0.18215628136E+02  0.64970668760E+00 -0.76201412790E+02  0.78351046824E+02  0.00000000000E+00 0.  1.
         12    1    3    3    0    0 -0.94796693834E+01  0.14650159390E+02  0.79339369004E+00  0.17467706642E+02  0.00000000000E+00 0. -1.
         -2    1    1    2    0  502  0.27695297520E+02 -0.15299866078E+02  0.91483617399E+02  0.96800659394E+02  0.00000000000E+00 0.  1.
<mgrwt>
<rscale>  1 0.59117376E+02</rscale>
<asrwt>0</asrwt>
<pdfrwt beam="1">  1       21 0.16053462E-01 0.59117376E+02</pdfrwt>
<pdfrwt beam="2">  1       -1 0.13580294E-01 0.59117376E+02</pdfrwt>
<totfact> 0.10920742E+05</totfact>
</mgrwt>
</event>
<event>
 6    2  0.7993170E+000  0.8263403E+02  0.7546771E-02  0.1321738E+00
         21   -1    0    0  501  502  0.00000000000E+00  0.00000000000E+00  0.58474803174E+01  0.58474803174E+01  0.00000000000E+00 0.  1.
          2   -1    0    0  502    0 -0.00000000000E+00 -0.00000000000E+00 -0.64563159005E+03  0.64563159005E+03  0.00000000000E+00 0. -1.
         24    2    1    2    0    0 -0.33336073912E+01  0.22600469279E+02 -0.30746751816E+03  0.31837816796E+03  0.79413405421E+02 0.  0.
        -11    1    3    3    0    0  0.17252402971E+02 -0.22253317721E+02 -0.63409599055E+02  0.69380348877E+02  0.00000000000E+00 0.  1.
         12    1    3    3    0    0 -0.20586010362E+02  0.44853787000E+02 -0.24405791911E+03  0.24899781909E+03  0.00000000000E+00 0. -1.
          1    1    1    2  501    0  0.33336073912E+01 -0.22600469279E+02 -0.33231659157E+03  0.33310090240E+03  0.00000000000E+00 0. -1.
<mgrwt>
<rscale>  1 0.82634031E+02</rscale>
<asrwt>0</asrwt>
<pdfrwt beam="1">  1       21 0.89961233E-03 0.82634031E+02</pdfrwt>
<pdfrwt beam="2">  1        2 0.99327940E-01 0.82634031E+02</pdfrwt>
<totfact> 0.23811593E+06</totfact>
</mgrwt>
</event>
<event>
 6    2  0.7993170E+000  0.9576516E+02  0.7546771E-02  0.1289462E+00
         21   -1    0    0  501  502  0.00000000000E+00  0.00000000000E+00  0.92905829239E+01  0.92905829239E+01  0.00000000000E+00 0. -1.
          2   -1    0    0  502    0 -0.00000000000E+00 -0.00000000000E+00 -0.65078989225E+03  0.65078989225E+03  0.00000000000E+00 0. -1.
         24    2    1    2    0    0  0.19110190247E+02 -0.48066848986E+02 -0.30653696920E+03  0.32114775229E+03  0.80593696827E+02 0.  0.
        -13    1    3    3    0    0  0.86392277233E+01  0.21476612077E+02 -0.49198811157E+02  0.54372825394E+02  0.00000000000E+00 0.  1.
         14    1    3    3    0    0  0.10470962524E+02 -0.69543461063E+02 -0.25733815805E+03  0.26677492689E+03  0.00000000000E+00 0. -1.
          1    1    1    2  501    0 -0.19110190247E+02  0.48066848986E+02 -0.33496234013E+03  0.33893272289E+03  0.00000000000E+00 0. -1.
<mgrwt>
<rscale>  1 0.95765157E+02</rscale>
<asrwt>0</asrwt>
<pdfrwt beam="1">  1       21 0.14293204E-02 0.95765157E+02</pdfrwt>
<pdfrwt beam="2">  1        2 0.10012153E+00 0.95765157E+02</pdfrwt>
<totfact> 0.11589983E+06</totfact>
</mgrwt>
</event>
<event>
 6    2  0.7993170E+000  0.8337603E+02  0.7546771E-02  0.1319735E+00
          2   -1    0    0  502    0 -0.00000000000E+00  0.00000000000E+00  0.44175080795E+04  0.44175080795E+04  0.00000000000E+00 0. -1.
         21   -1    0    0  501  502  0.00000000000E+00 -0.00000000000E+00 -0.92746976076E+00  0.92746976076E+00  0.00000000000E+00 0. -1.
         24    2    1    2    0    0 -0.30112274625E+01 -0.27561128520E+02  0.40298389133E+04  0.40307013322E+04  0.78631286091E+02 0.  0.
        -13    1    3    3    0    0 -0.31640880184E+01 -0.18076035506E+02  0.19750766994E+03  0.19835834794E+03  0.00000000000E+00 0.  1.
         14    1    3    3    0    0  0.15286055587E+00 -0.94850930142E+01  0.38323312434E+04  0.38323429843E+04  0.00000000000E+00 0. -1.
          1    1    1    2  501    0  0.30112274625E+01  0.27561128520E+02  0.38674169643E+03  0.38773421703E+03  0.00000000000E+00 0. -1.
<mgrwt>
<rscale>  1 0.83376030E+02</rscale>
<asrwt>0</asrwt>
<pdfrwt beam="1">  1       21 0.14269119E-03 0.83376030E+02</pdfrwt>
<pdfrwt beam="2">  1        2 0.67959978E+00 0.83376030E+02</pdfrwt>
<totfact> 0.21801412E+05</totfact>
</mgrwt>
</event>
<event>
 6    2  0.7993170E+000  0.9231771E+02  0.7546771E-02  0.1297334E+00
         -3   -1    0    0    0  501 -0.00000000000E+00  0.00000000000E+00  0.18280528227E+02  0.18280528227E+02  0.00000000000E+00 0.  1.
         21   -1    0    0  501  502  0.00000000000E+00 -0.00000000000E+00 -0.26368048211E+03  0.26368048211E+03  0.00000000000E+00 0. -1.
         24    2    1    2    0    0  0.15032231277E+02 -0.40415645485E+02 -0.19417090619E+03  0.21499977002E+03  0.81628229929E+02 0.  0.
        -11    1    3    3    0    0 -0.19091146312E+02 -0.24994642786E+02 -0.20980012701E+02  0.37806943389E+02  0.00000000000E+00 0.  1.
         12    1    3    3    0    0  0.34123377589E+02 -0.15421002699E+02 -0.17319089349E+03  0.17719282663E+03  0.00000000000E+00 0. -1.
         -4    1    1    2    0  502 -0.15032231277E+02  0.40415645485E+02 -0.51229047691E+02  0.66961240315E+02  0.00000000000E+00 0.  1.
<mgrwt>
<rscale>  1 0.92317714E+02</rscale>
<asrwt>0</asrwt>
<pdfrwt beam="1">  1       21 0.40566224E-01 0.92317714E+02</pdfrwt>
<pdfrwt beam="2">  1       -3 0.28123893E-02 0.92317714E+02</pdfrwt>
<totfact> 0.14960554E+05</totfact>
</mgrwt>
</event>
<event>
 6    2  0.7993170E+000  0.9155632E+02  0.7546771E-02  0.1299126E+00
         21   -1    0    0  501  502  0.00000000000E+00  0.00000000000E+00  0.76326498036E+01  0.76326498036E+01  0.00000000000E+00 0. -1.
          2   -1    0    0  502    0 -0.00000000000E+00 -0.00000000000E+00 -0.77247089093E+03  0.77247089093E+03  0.00000000000E+00 0. -1.
         24    2    1    2    0    0 -0.95988535084E+01 -0.42883339545E+02 -0.66155279351E+03  0.66785826248E+03  0.80320865115E+02 0.  0.
        -11    1    3    3    0    0 -0.20574973415E+02  0.12245702255E+02 -0.77690844739E+02  0.81296704183E+02  0.00000000000E+00 0.  1.
         12    1    3    3    0    0  0.10976119907E+02 -0.55129041801E+02 -0.58386194877E+03  0.58656155830E+03  0.00000000000E+00 0. -1.
          1    1    1    2  501    0  0.95988535084E+01  0.42883339545E+02 -0.10328544762E+03  0.11224527825E+03  0.00000000000E+00 0. -1.
<mgrwt>
<rscale>  1 0.91556322E+02</rscale>
<asrwt>0</asrwt>
<pdfrwt beam="1">  1       21 0.11742530E-02 0.91556322E+02</pdfrwt>
<pdfrwt beam="2">  1        2 0.11884175E+00 0.91556322E+02</pdfrwt>
<totfact> 0.12870278E+06</totfact>
</mgrwt>
</event>
<event>
 6    2  0.7993170E+000  0.9384266E+02  0.7546771E-02  0.1293804E+00
         21   -1    0    0  501  502  0.00000000000E+00  0.00000000000E+00  0.36223266015E+01  0.36223266015E+01  0.00000000000E+00 0.  1.
          2   -1    0    0  502    0 -0.00000000000E+00 -0.00000000000E+00 -0.15486915550E+04  0.15486915550E+04  0.00000000000E+00 0. -1.
         24    2    1    2    0    0  0.16368208957E+02 -0.45542114733E+02 -0.12270883739E+04  0.12306714927E+04  0.80401761336E+02 0.  0.
        -11    1    3    3    0    0  0.22822266260E+02 -0.49639544868E+02 -0.41900122158E+03  0.42254817943E+03  0.00000000000E+00 0.  1.
         12    1    3    3    0    0 -0.64540573034E+01  0.40974301353E+01 -0.80808715231E+03  0.80812331331E+03  0.00000000000E+00 0. -1.
          1    1    1    2  501    0 -0.16368208957E+02  0.45542114733E+02 -0.31798085446E+03  0.32164238881E+03  0.00000000000E+00 0. -1.
<mgrwt>
<rscale>  1 0.93842665E+02</rscale>
<asrwt>0</asrwt>
<pdfrwt beam="1">  1       21 0.55728041E-03 0.93842665E+02</pdfrwt>
<pdfrwt beam="2">  1        2 0.23826050E+00 0.93842665E+02</pdfrwt>
<totfact> 0.14988143E+06</totfact>
</mgrwt>
</event>
<event>
 6    2  0.7993170E+000  0.1056858E+03  0.7546771E-02  0.1268774E+00
         21   -1    0    0  501  502  0.00000000000E+00  0.00000000000E+00  0.77214072730E+01  0.77214072730E+01  0.00000000000E+00 0. -1.
          2   -1    0    0  502    0 -0.00000000000E+00 -0.00000000000E+00 -0.23504714113E+04  0.23504714113E+04  0.00000000000E+00 0. -1.
         24    2    1    2    0    0 -0.46157674214E+02 -0.46916526937E+02 -0.21810855442E+04  0.21836445760E+04  0.82690943454E+02 0.  0.
        -13    1    3    3    0    0  0.55927411362E+01 -0.52480617324E+02 -0.95906031902E+03  0.96051142079E+03  0.00000000000E+00 0.  1.
         14    1    3    3    0    0 -0.51750415350E+02  0.55640903869E+01 -0.12220252251E+04  0.12231331552E+04  0.00000000000E+00 0. -1.
          1    1    1    2  501    0  0.46157674214E+02  0.46916526937E+02 -0.16166445990E+03  0.17454824257E+03  0.00000000000E+00 0. -1.
<mgrwt>
<rscale>  1 0.10568578E+03</rscale>
<asrwt>0</asrwt>
<pdfrwt beam="1">  1       21 0.11879096E-02 0.10568578E+03</pdfrwt>
<pdfrwt beam="2">  1        2 0.36161074E+00 0.10568578E+03</pdfrwt>
<totfact> 0.18143760E+05</totfact>
</mgrwt>
</event>
<event>
 6    2  0.7993170E+000  0.7259891E+02  0.7546771E-02  0.1351472E+00
         21   -1    0    0  501  502  0.00000000000E+00  0.00000000000E+00  0.86576989713E+01  0.86576989713E+01  0.00000000000E+00 0. -1.
          2   -1    0    0  502    0 -0.00000000000E+00 -0.00000000000E+00 -0.44388283473E+03  0.44388283473E+03  0.00000000000E+00 0. -1.
         24    2    1    2    0    0 -0.21793836944E+02  0.31513800583E+01 -0.41885933240E+03  0.42510438885E+03  0.69178743477E+02 0.  0.
        -13    1    3    3    0    0  0.60977356581E+01 -0.96811725784E+01 -0.10304954108E+02  0.15398037596E+02  0.00000000000E+00 0.  1.
         14    1    3    3    0    0 -0.27891572602E+02  0.12832552637E+02 -0.40855437830E+03  0.40970635125E+03  0.00000000000E+00 0. -1.
          1    1    1    2  501    0  0.21793836944E+02 -0.31513800583E+01 -0.16365803351E+02  0.27436144852E+02  0.00000000000E+00 0. -1.
<mgrwt>
<rscale>  1 0.72598905E+02</rscale>
<asrwt>0</asrwt>
<pdfrwt beam="1">  1       21 0.13319538E-02 0.72598905E+02</pdfrwt>
<pdfrwt beam="2">  1        2 0.68289661E-01 0.72598905E+02</pdfrwt>
<totfact> 0.19099762E+06</totfact>
</mgrwt>
</event>
<event>
 6    2  0.7993170E+000  0.8747031E+02  0.7546771E-02  0.1309096E+00
         21   -1    0    0  501  502  0.00000000000E+00  0.00000000000E+00  0.36711390067E+01  0.36711390067E+01  0.00000000000E+00 0. -1.
          2   -1    0    0  502    0 -0.00000000000E+00 -0.00000000000E+00 -0.15306249297E+04  0.15306249297E+04  0.00000000000E+00 0. -1.
         24    2    1    2    0    0 -0.33999996286E+02  0.91513130635E+01 -0.13945516461E+04  0.13972921485E+04  0.80070644687E+02 0.  0.
        -11    1    3    3    0    0  0.22210508268E+02 -0.11123083145E+02 -0.26521070129E+03  0.26637144316E+03  0.00000000000E+00 0.  1.
         12    1    3    3    0    0 -0.56210504554E+02  0.20274396208E+02 -0.11293409449E+04  0.11309207053E+04  0.00000000000E+00 0. -1.
          1    1    1    2  501    0  0.33999996286E+02 -0.91513130635E+01 -0.13240214453E+03  0.13700392021E+03  0.00000000000E+00 0. -1.
<mgrwt>
<rscale>  1 0.87470306E+02</rscale>
<asrwt>0</asrwt>
<pdfrwt beam="1">  1       21 0.56479082E-03 0.87470306E+02</pdfrwt>
<pdfrwt beam="2">  1        2 0.23548067E+00 0.87470306E+02</pdfrwt>
<totfact> 0.14922631E+06</totfact>
</mgrwt>
</event>
<event>
 6    2  0.7993170E+000  0.8946634E+02  0.7546771E-02  0.1304149E+00
         21   -1    0    0  501  502  0.00000000000E+00  0.00000000000E+00  0.46432804669E+03  0.46432804669E+03  0.00000000000E+00 0.  1.
          2   -1    0    0  502    0 -0.00000000000E+00 -0.00000000000E+00 -0.94024428564E+01  0.94024428564E+01  0.00000000000E+00 0. -1.
         24    2    1    2    0    0 -0.31770712711E+02 -0.28115655561E+02  0.32208666039E+03  0.33428138353E+03  0.78767749106E+02 0.  0.
        -13    1    3    3    0    0 -0.38767757485E+02  0.27091187584E+01  0.27396050971E+03  0.27670316085E+03  0.00000000000E+00 0.  1.
         14    1    3    3    0    0  0.69970447734E+01 -0.30824774320E+02  0.48126150680E+02  0.57578222678E+02  0.00000000000E+00 0. -1.
          1    1    1    2  501    0  0.31770712711E+02  0.28115655561E+02  0.13283894345E+03  0.13944910602E+03  0.00000000000E+00 0. -1.
<mgrwt>
<rscale>  1 0.89466343E+02</rscale>
<asrwt>0</asrwt>
<pdfrwt beam="1">  1       21 0.71435066E-01 0.89466343E+02</pdfrwt>
<pdfrwt beam="2">  1        2 0.14465300E-02 0.89466343E+02</pdfrwt>
<totfact> 0.17271657E+05</totfact>
</mgrwt>
</event>
<event>
 6    2  0.7993170E+000  0.9505318E+02  0.7546771E-02  0.1291056E+00
         21   -1    0    0  501  502  0.00000000000E+00  0.00000000000E+00  0.35494476293E+03  0.35494476293E+03  0.00000000000E+00 0.  1.
         -3   -1    0    0    0  501 -0.00000000000E+00 -0.00000000000E+00 -0.26240127335E+02  0.26240127335E+02  0.00000000000E+00 0.  1.
         24    2    1    2    0    0  0.22731333099E+02 -0.44896301001E+02  0.71078140268E+02  0.11868955232E+03  0.80639422482E+02 0.  0.
        -13    1    3    3    0    0  0.45015065981E+02 -0.33098170631E+01  0.20663974688E+02  0.49641826156E+02  0.00000000000E+00 0.  1.
         14    1    3    3    0    0 -0.22283732882E+02 -0.41586483938E+02  0.50414165579E+02  0.69047726165E+02  0.00000000000E+00 0. -1.
         -4    1    1    2    0  502 -0.22731333099E+02  0.44896301001E+02  0.25762649533E+03  0.26249533794E+03  0.00000000000E+00 0.  1.
<mgrwt>
<rscale>  1 0.95053184E+02</rscale>
<asrwt>0</asrwt>
<pdfrwt beam="1">  1       21 0.54606883E-01 0.95053184E+02</pdfrwt>
<pdfrwt beam="2">  1       -3 0.40369429E-02 0.95053184E+02</pdfrwt>
<totfact> 0.47096431E+04</totfact>
</mgrwt>
</event>
<event>
 6    2  0.7993170E+000  0.8357746E+02  0.7546771E-02  0.1319195E+00
         21   -1    0    0  501  502  0.00000000000E+00  0.00000000000E+00  0.10699303009E+02  0.10699303009E+02  0.00000000000E+00 0.  1.
          2   -1    0    0  502    0 -0.00000000000E+00 -0.00000000000E+00 -0.36153930405E+03  0.36153930405E+03  0.00000000000E+00 0. -1.
         24    2    1    2    0    0  0.22727707525E+02 -0.97014081021E+00 -0.33300300645E+03  0.34333102607E+03  0.80422019966E+02 0.  0.
        -13    1    3    3    0    0  0.28701338558E+02  0.20417002766E+01 -0.35249333781E+02  0.45502207716E+02  0.00000000000E+00 0.  1.
         14    1    3    3    0    0 -0.59736310334E+01 -0.30118410868E+01 -0.29775367267E+03  0.29782881835E+03  0.00000000000E+00 0. -1.
          1    1    1    2  501    0 -0.22727707525E+02  0.97014081021E+00 -0.17836994590E+02  0.28907580987E+02  0.00000000000E+00 0. -1.
<mgrwt>
<rscale>  1 0.83577456E+02</rscale>
<asrwt>0</asrwt>
<pdfrwt beam="1">  1       21 0.16460470E-02 0.83577456E+02</pdfrwt>
<pdfrwt beam="2">  1        2 0.55621420E-01 0.83577456E+02</pdfrwt>
<totfact> 0.17248402E+06</totfact>
</mgrwt>
</event>
<event>
 6    2  0.7993170E+000  0.8546892E+02  0.7546771E-02  0.1314211E+00
         21   -1    0    0  501  502  0.00000000000E+00  0.00000000000E+00  0.32288929171E+03  0.32288929171E+03  0.00000000000E+00 0. -1.
          4   -1    0    0  502    0 -0.00000000000E+00 -0.00000000000E+00 -0.26089903858E+02  0.26089903858E+02  0.00000000000E+00 0. -1.
         24    2    1    2    0    0  0.23004371429E+02 -0.17036323670E+02  0.46989134104E+02  0.97534171146E+02  0.80532592088E+02 0.  0.
        -13    1    3    3    0    0 -0.19540866018E+02  0.19308212677E+02  0.25843147875E+02  0.37716320255E+02  0.00000000000E+00 0.  1.
         14    1    3    3    0    0  0.42545237447E+02 -0.36344536347E+02  0.21145986229E+02  0.59817850891E+02  0.00000000000E+00 0. -1.
          3    1    1    2  501    0 -0.23004371429E+02  0.17036323670E+02  0.24981025375E+03  0.25144502442E+03  0.00000000000E+00 0. -1.
<mgrwt>
<rscale>  1 0.85468917E+02</rscale>
<asrwt>0</asrwt>
<pdfrwt beam="1">  1       21 0.49675273E-01 0.85468917E+02</pdfrwt>
<pdfrwt beam="2">  1        4 0.40138316E-02 0.85468917E+02</pdfrwt>
<totfact> 0.50576141E+04</totfact>
</mgrwt>
</event>
<event>
 6    2  0.7993170E+000  0.8047813E+02  0.7546771E-02  0.1327700E+00
         21   -1    0    0  501  502  0.00000000000E+00  0.00000000000E+00  0.71944939249E+02  0.71944939249E+02  0.00000000000E+00 0. -1.
         -3   -1    0    0    0  501 -0.00000000000E+00 -0.00000000000E+00 -0.61473358266E+02  0.61473358266E+02  0.00000000000E+00 0.  1.
         24    2    1    2    0    0  0.13286665756E+02 -0.18299528749E+02 -0.30951001238E+02  0.86224669161E+02  0.77235489608E+02 0.  0.
        -13    1    3    3    0    0  0.10850181216E+02  0.29709888373E+02 -0.18197509158E+02  0.36490454082E+02  0.00000000000E+00 0.  1.
         14    1    3    3    0    0  0.24364845397E+01 -0.48009417122E+02 -0.12753492079E+02  0.49734215079E+02  0.00000000000E+00 0. -1.
         -4    1    1    2    0  502 -0.13286665756E+02  0.18299528749E+02  0.41422582221E+02  0.47193628354E+02  0.00000000000E+00 0.  1.
<mgrwt>
<rscale>  1 0.80478128E+02</rscale>
<asrwt>0</asrwt>
<pdfrwt beam="1">  1       21 0.11068452E-01 0.80478128E+02</pdfrwt>
<pdfrwt beam="2">  1       -3 0.94574398E-02 0.80478128E+02</pdfrwt>
<totfact> 0.23983671E+05</totfact>
</mgrwt>
</event>
<event>
 6    2  0.7993170E+000  0.1447959E+03  0.7546771E-02  0.1207018E+00
          2   -1    0    0  502    0 -0.00000000000E+00  0.00000000000E+00  0.14722118440E+04  0.14722118440E+04  0.00000000000E+00 0. -1.
         21   -1    0    0  501  502  0.00000000000E+00 -0.00000000000E+00 -0.11677449344E+02  0.11677449344E+02  0.00000000000E+00 0.  1.
         24    2    1    2    0    0  0.86363426750E+02 -0.75417300686E+02  0.70626339918E+03  0.72095342098E+03  0.88427571944E+02 0.  0.
        -11    1    3    3    0    0  0.84712116747E+02 -0.22126865055E+02  0.35336376551E+03  0.36404902370E+03  0.00000000000E+00 0.  1.
         12    1    3    3    0    0  0.16513100021E+01 -0.53290435631E+02  0.35289963367E+03  0.35690439728E+03  0.00000000000E+00 0. -1.
          1    1    1    2  501    0 -0.86363426750E+02  0.75417300686E+02  0.75427099546E+03  0.76293587235E+03  0.00000000000E+00 0. -1.
<mgrwt>
<rscale>  1 0.14479588E+03</rscale>
<asrwt>0</asrwt>
<pdfrwt beam="1">  1       21 0.17965318E-02 0.14479588E+03</pdfrwt>
<pdfrwt beam="2">  1        2 0.22649398E+00 0.14479588E+03</pdfrwt>
<totfact> 0.26523034E+05</totfact>
</mgrwt>
</event>
<event>
 6    2  0.7993170E+000  0.8444553E+02  0.7546771E-02  0.1316889E+00
          2   -1    0    0  502    0 -0.00000000000E+00  0.00000000000E+00  0.55383392282E+03  0.55383392282E+03  0.00000000000E+00 0. -1.
         21   -1    0    0  501  502  0.00000000000E+00 -0.00000000000E+00 -0.64962415702E+01  0.64962415702E+01  0.00000000000E+00 0.  1.
         24    2    1    2    0    0  0.68437524937E+01  0.25026237697E+02  0.30072614945E+03  0.31235759103E+03  0.80361048963E+02 0.  0.
        -13    1    3    3    0    0  0.38323227361E+02  0.12624096843E+02  0.86155460200E+02  0.95135697290E+02  0.00000000000E+00 0.  1.
         14    1    3    3    0    0 -0.31479474867E+02  0.12402140854E+02  0.21457068925E+03  0.21722189374E+03  0.00000000000E+00 0. -1.
          1    1    1    2  501    0 -0.68437524937E+01 -0.25026237697E+02  0.24661153180E+03  0.24797257336E+03  0.00000000000E+00 0. -1.
<mgrwt>
<rscale>  1 0.84445531E+02</rscale>
<asrwt>0</asrwt>
<pdfrwt beam="1">  1       21 0.99942221E-03 0.84445531E+02</pdfrwt>
<pdfrwt beam="2">  1        2 0.85205182E-01 0.84445531E+02</pdfrwt>
<totfact> 0.24041233E+06</totfact>
</mgrwt>
</event>
<event>
 6    2  0.7993170E+000  0.8425327E+02  0.7546771E-02  0.1317397E+00
         21   -1    0    0  501  502  0.00000000000E+00  0.00000000000E+00  0.10591510324E+01  0.10591510324E+01  0.00000000000E+00 0. -1.
          2   -1    0    0  502    0 -0.00000000000E+00 -0.00000000000E+00 -0.26131343022E+04  0.26131343022E+04  0.00000000000E+00 0. -1.
         24    2    1    2    0    0 -0.16739138847E+02 -0.12251086640E+02 -0.21602605402E+04  0.21619029155E+04  0.81659820883E+02 0.  0.
        -13    1    3    3    0    0  0.28944339716E+02  0.10628241266E+02 -0.58270657715E+03  0.58352179854E+03  0.00000000000E+00 0.  1.
         14    1    3    3    0    0 -0.45683478563E+02 -0.22879327906E+02 -0.15775539631E+04  0.15783811169E+04  0.00000000000E+00 0. -1.
          1    1    1    2  501    0  0.16739138847E+02  0.12251086640E+02 -0.45181461089E+03  0.45229053772E+03  0.00000000000E+00 0. -1.
<mgrwt>
<rscale>  1 0.84253274E+02</rscale>
<asrwt>0</asrwt>
<pdfrwt beam="1">  1       21 0.16294565E-03 0.84253274E+02</pdfrwt>
<pdfrwt beam="2">  1        2 0.40202230E+00 0.84253274E+02</pdfrwt>
<totfact> 0.27448742E+06</totfact>
</mgrwt>
</event>
<event>
 6    2  0.7993170E+000  0.9056873E+02  0.7546771E-02  0.1301480E+00
          2   -1    0    0  502    0 -0.00000000000E+00  0.00000000000E+00  0.71755279106E+02  0.71755279106E+02  0.00000000000E+00 0. -1.
         21   -1    0    0  501  502  0.00000000000E+00 -0.00000000000E+00 -0.34141371505E+03  0.34141371505E+03  0.00000000000E+00 0. -1.
         24    2    1    2    0    0 -0.25995399343E+02 -0.29033749100E+02  0.41468485216E+02  0.99610896757E+02  0.81755587655E+02 0.  0.
        -11    1    3    3    0    0 -0.10078864753E+02  0.55467567148E+01 -0.22443806963E+02  0.25220517357E+02  0.00000000000E+00 0.  1.
         12    1    3    3    0    0 -0.15916534590E+02 -0.34580505815E+02  0.63912292179E+02  0.74390379400E+02  0.00000000000E+00 0. -1.
          1    1    1    2  501    0  0.25995399343E+02  0.29033749100E+02 -0.31112692116E+03  0.31355809740E+03  0.00000000000E+00 0. -1.
<mgrwt>
<rscale>  1 0.90568733E+02</rscale>
<asrwt>0</asrwt>
<pdfrwt beam="1">  1       21 0.52525187E-01 0.90568733E+02</pdfrwt>
<pdfrwt beam="2">  1        2 0.11039274E-01 0.90568733E+02</pdfrwt>
<totfact> 0.23638613E+04</totfact>
</mgrwt>
</event>
<event>
 6    2  0.7993170E+000  0.9228506E+02  0.7546771E-02  0.1297411E+00
         21   -1    0    0  501  502  0.00000000000E+00  0.00000000000E+00  0.51594269915E+01  0.51594269915E+01  0.00000000000E+00 0. -1.
         -1   -1    0    0    0  501 -0.00000000000E+00 -0.00000000000E+00 -0.82758822395E+03  0.82758822395E+03  0.00000000000E+00 0.  1.
         24    2    1    2    0    0  0.12853914238E+02 -0.36117346260E+02 -0.59302935418E+03  0.60016693343E+03  0.83945501659E+02 0.  0.
        -11    1    3    3    0    0 -0.32606393736E+02 -0.12255851755E+02 -0.14134687383E+03  0.14557582751E+03  0.00000000000E+00 0.  1.
         12    1    3    3    0    0  0.45460307974E+02 -0.23861494505E+02 -0.45168248036E+03  0.45459110592E+03  0.00000000000E+00 0. -1.
         -2    1    1    2    0  502 -0.12853914238E+02  0.36117346260E+02 -0.22939944278E+03  0.23258071752E+03  0.00000000000E+00 0.  1.
<mgrwt>
<rscale>  1 0.92285064E+02</rscale>
<asrwt>0</asrwt>
<pdfrwt beam="1">  1       21 0.79375832E-03 0.92285064E+02</pdfrwt>
<pdfrwt beam="2">  1       -1 0.12732121E+00 0.92285064E+02</pdfrwt>
<totfact> 0.27777302E+05</totfact>
</mgrwt>
</event>
<event>
 6    2  0.7993170E+000  0.9129097E+02  0.7546771E-02  0.1299755E+00
         21   -1    0    0  501  502  0.00000000000E+00  0.00000000000E+00  0.19893097578E+02  0.19893097578E+02  0.00000000000E+00 0.  1.
         -1   -1    0    0    0  501 -0.00000000000E+00 -0.00000000000E+00 -0.43409852374E+03  0.43409852374E+03  0.00000000000E+00 0.  1.
         24    2    1    2    0    0  0.40313625764E+02  0.28627746326E+02 -0.38686788707E+03  0.39749314943E+03  0.76741810740E+02 0.  0.
        -11    1    3    3    0    0  0.39908623495E+02  0.31944348032E+02 -0.38974548935E+03  0.39308356118E+03  0.00000000000E+00 0.  1.
         12    1    3    3    0    0  0.40500226883E+00 -0.33166017059E+01  0.28776022763E+01  0.44095882544E+01  0.00000000000E+00 0. -1.
         -2    1    1    2    0  502 -0.40313625764E+02 -0.28627746326E+02 -0.27337539090E+02  0.56498471886E+02  0.00000000000E+00 0.  1.
<mgrwt>
<rscale>  1 0.91290973E+02</rscale>
<asrwt>0</asrwt>
<pdfrwt beam="1">  1       21 0.30604766E-02 0.91290973E+02</pdfrwt>
<pdfrwt beam="2">  1       -1 0.66784387E-01 0.91290973E+02</pdfrwt>
<totfact> 0.12883035E+05</totfact>
</mgrwt>
</event>
<event>
 6    2  0.7993170E+000  0.9634623E+02  0.7546771E-02  0.1288173E+00
          2   -1    0    0  502    0 -0.00000000000E+00  0.00000000000E+00  0.47224720509E+04  0.47224720509E+04  0.00000000000E+00 0. -1.
         21   -1    0    0  501  502  0.00000000000E+00 -0.00000000000E+00 -0.20253691244E+01  0.20253691244E+01  0.00000000000E+00 0. -1.
         24    2    1    2    0    0  0.45534849397E+02  0.27156306516E+02  0.42467898839E+04  0.42478826388E+04  0.80446924487E+02 0.  0.
        -11    1    3    3    0    0 -0.19305378027E+02  0.13364019177E+01  0.17813590002E+04  0.17814641089E+04  0.00000000000E+00 0.  1.
         12    1    3    3    0    0  0.64840227425E+02  0.25819904598E+02  0.24654308836E+04  0.24664185299E+04  0.00000000000E+00 0. -1.
          1    1    1    2  501    0 -0.45534849397E+02 -0.27156306516E+02  0.47365679787E+03  0.47661478120E+03  0.00000000000E+00 0. -1.
<mgrwt>
<rscale>  1 0.96346225E+02</rscale>
<asrwt>0</asrwt>
<pdfrwt beam="1">  1       21 0.31159903E-03 0.96346225E+02</pdfrwt>
<pdfrwt beam="2">  1        2 0.72652535E+00 0.96346225E+02</pdfrwt>
<totfact> 0.34877363E+04</totfact>
</mgrwt>
</event>
<event>
 6    2  0.7993170E+000  0.9759497E+02  0.7546771E-02  0.1285436E+00
         21   -1    0    0  501  502  0.00000000000E+00  0.00000000000E+00  0.31380330903E+02  0.31380330903E+02  0.00000000000E+00 0.  1.
          2   -1    0    0  502    0 -0.00000000000E+00 -0.00000000000E+00 -0.21821398167E+03  0.21821398167E+03  0.00000000000E+00 0. -1.
         24    2    1    2    0    0 -0.18320107746E+02 -0.84309412883E+01 -0.20201340889E+03  0.22435283529E+03  0.95488586804E+02 0.  0.
        -13    1    3    3    0    0 -0.51491419605E+02 -0.20748256383E+02 -0.80453941446E+02  0.97748110621E+02  0.00000000000E+00 0.  1.
         14    1    3    3    0    0  0.33171311859E+02  0.12317315094E+02 -0.12155946745E+03  0.12660472466E+03  0.00000000000E+00 0. -1.
          1    1    1    2  501    0  0.18320107746E+02  0.84309412883E+01  0.15179758126E+02  0.25241477286E+02  0.00000000000E+00 0. -1.
<mgrwt>
<rscale>  1 0.97594966E+02</rscale>
<asrwt>0</asrwt>
<pdfrwt beam="1">  1       21 0.48277434E-02 0.97594966E+02</pdfrwt>
<pdfrwt beam="2">  1        2 0.33571381E-01 0.97594966E+02</pdfrwt>
<totfact> 0.51913987E+05</totfact>
</mgrwt>
</event>
<event>
 6    2  0.7993170E+000  0.8754687E+02  0.7546771E-02  0.1308903E+00
          2   -1    0    0  502    0 -0.00000000000E+00  0.00000000000E+00  0.28878381201E+04  0.28878381201E+04  0.00000000000E+00 0. -1.
         21   -1    0    0  501  502  0.00000000000E+00 -0.00000000000E+00 -0.13450420183E+01  0.13450420183E+01  0.00000000000E+00 0.  1.
         24    2    1    2    0    0  0.27804752856E+02  0.17045153233E+02  0.17115938160E+04  0.17138313350E+04  0.81245382888E+02 0.  0.
        -11    1    3    3    0    0  0.18762251030E+02  0.49776475472E+02  0.96374824911E+03  0.96521521291E+03  0.00000000000E+00 0.  1.
         12    1    3    3    0    0  0.90425018264E+01 -0.32731322239E+02  0.74784556689E+03  0.74861612206E+03  0.00000000000E+00 0. -1.
          1    1    1    2  501    0 -0.27804752856E+02 -0.17045153233E+02  0.11748992621E+04  0.11753518271E+04  0.00000000000E+00 0. -1.
<mgrwt>
<rscale>  1 0.87546866E+02</rscale>
<asrwt>0</asrwt>
<pdfrwt beam="1">  1       21 0.20693185E-03 0.87546866E+02</pdfrwt>
<pdfrwt beam="2">  1        2 0.44427783E+00 0.87546866E+02</pdfrwt>
<totfact> 0.13644799E+06</totfact>
</mgrwt>
</event>
<event>
 6    2  0.7993170E+000  0.8386723E+02  0.7546771E-02  0.1318422E+00
          4   -1    0    0  502    0 -0.00000000000E+00  0.00000000000E+00  0.17622773537E+03  0.17622773537E+03  0.00000000000E+00 0. -1.
         21   -1    0    0  501  502  0.00000000000E+00 -0.00000000000E+00 -0.24845913798E+02  0.24845913798E+02  0.00000000000E+00 0.  1.
         24    2    1    2    0    0  0.26206027304E+02 -0.14276217811E+01  0.15331812931E+03  0.17475743252E+03  0.79654990258E+02 0.  0.
        -13    1    3    3    0    0  0.41486543356E+02  0.15728521717E+02  0.42003875559E+02  0.61097014960E+02  0.00000000000E+00 0.  1.
         14    1    3    3    0    0 -0.15280516052E+02 -0.17156143498E+02  0.11131425376E+03  0.11366041756E+03  0.00000000000E+00 0. -1.
          3    1    1    2  501    0 -0.26206027304E+02  0.14276217811E+01 -0.19363077438E+01  0.26316216648E+02  0.00000000000E+00 0. -1.
<mgrwt>
<rscale>  1 0.83867225E+02</rscale>
<asrwt>0</asrwt>
<pdfrwt beam="1">  1       21 0.38224484E-02 0.83867225E+02</pdfrwt>
<pdfrwt beam="2">  1        4 0.27111959E-01 0.83867225E+02</pdfrwt>
<totfact> 0.19991757E+05</totfact>
</mgrwt>
</event>
<event>
 6    2  0.7993170E+000  0.1007880E+03  0.7546771E-02  0.1278648E+00
         21   -1    0    0  501  502  0.00000000000E+00  0.00000000000E+00  0.27662220434E+01  0.27662220434E+01  0.00000000000E+00 0. -1.
          2   -1    0    0  502    0 -0.00000000000E+00 -0.00000000000E+00 -0.21977254354E+04  0.21977254354E+04  0.00000000000E+00 0. -1.
         24    2    1    2    0    0  0.51708353251E+02 -0.40816382457E+01 -0.16477748425E+04  0.16508543686E+04  0.86416440658E+02 0.  0.
        -13    1    3    3    0    0  0.59336817037E+02  0.12110410261E+02 -0.62594284293E+03  0.62886561562E+03  0.00000000000E+00 0.  1.
         14    1    3    3    0    0 -0.76284637865E+01 -0.16192048506E+02 -0.10218319995E+04  0.10219887530E+04  0.00000000000E+00 0. -1.
          1    1    1    2  501    0 -0.51708353251E+02  0.40816382457E+01 -0.54718437089E+03  0.54963728887E+03  0.00000000000E+00 0. -1.
<mgrwt>
<rscale>  1 0.10078797E+03</rscale>
<asrwt>0</asrwt>
<pdfrwt beam="1">  1       21 0.42557243E-03 0.10078797E+03</pdfrwt>
<pdfrwt beam="2">  1        2 0.33811176E+00 0.10078797E+03</pdfrwt>
<totfact> 0.10694514E+06</totfact>
</mgrwt>
</event>
<event>
 6    2  0.7993170E+000  0.9637382E+02  0.7546771E-02  0.1288112E+00
         21   -1    0    0  501  502  0.00000000000E+00  0.00000000000E+00  0.29001266872E+01  0.29001266872E+01  0.00000000000E+00 0. -1.
          2   -1    0    0  502    0 -0.00000000000E+00 -0.00000000000E+00 -0.22712657922E+04  0.22712657922E+04  0.00000000000E+00 0. -1.
         24    2    1    2    0    0 -0.49385010332E+02 -0.17401544124E+02 -0.18542921940E+04  0.18567949415E+04  0.80908719789E+02 0.  0.
        -11    1    3    3    0    0  0.18430736884E+01  0.23852541470E+02 -0.24657652657E+03  0.24773438217E+03  0.00000000000E+00 0.  1.
         12    1    3    3    0    0 -0.51228084020E+02 -0.41254085593E+02 -0.16077156674E+04  0.16090605593E+04  0.00000000000E+00 0. -1.
          1    1    1    2  501    0  0.49385010332E+02  0.17401544124E+02 -0.41407347147E+03  0.41737097737E+03  0.00000000000E+00 0. -1.
<mgrwt>
<rscale>  1 0.96373824E+02</rscale>
<asrwt>0</asrwt>
<pdfrwt beam="1">  1       21 0.44617402E-03 0.96373824E+02</pdfrwt>
<pdfrwt beam="2">  1        2 0.34942497E+00 0.96373824E+02</pdfrwt>
<totfact> 0.91066461E+05</totfact>
</mgrwt>
</event>
<event>
 6    2  0.7993170E+000  0.8581905E+02  0.7546771E-02  0.1313304E+00
         -1   -1    0    0    0  501 -0.00000000000E+00  0.00000000000E+00  0.13905244362E+04  0.13905244362E+04  0.00000000000E+00 0.  1.
         21   -1    0    0  501  502  0.00000000000E+00 -0.00000000000E+00 -0.24357170879E+01  0.24357170879E+01  0.00000000000E+00 0. -1.
         24    2    1    2    0    0  0.29598856726E+02  0.76654226973E+01  0.10245511050E+04  0.10281390356E+04  0.80187647286E+02 0.  0.
        -11    1    3    3    0    0 -0.13249470767E+02  0.23003574633E+02  0.14491606664E+03  0.14732745601E+03  0.00000000000E+00 0.  1.
         12    1    3    3    0    0  0.42848327493E+02 -0.15338151935E+02  0.87963503831E+03  0.88081157957E+03  0.00000000000E+00 0. -1.
         -2    1    1    2    0  502 -0.29598856726E+02 -0.76654226973E+01  0.36353761419E+03  0.36482111775E+03  0.00000000000E+00 0.  1.
<mgrwt>
<rscale>  1 0.85819053E+02</rscale>
<asrwt>0</asrwt>
<pdfrwt beam="1">  1       21 0.37472682E-03 0.85819053E+02</pdfrwt>
<pdfrwt beam="2">  1       -1 0.21392620E+00 0.85819053E+02</pdfrwt>
<totfact> 0.21434070E+05</totfact>
</mgrwt>
</event>
<event>
 6    2  0.7993170E+000  0.8414468E+02  0.7546771E-02  0.1317685E+00
         -3   -1    0    0    0  501 -0.00000000000E+00  0.00000000000E+00  0.25341029368E+03  0.25341029368E+03  0.00000000000E+00 0.  1.
         21   -1    0    0  501  502  0.00000000000E+00 -0.00000000000E+00 -0.26414986154E+02  0.26414986154E+02  0.00000000000E+00 0.  1.
         24    2    1    2    0    0 -0.29632829678E+01 -0.24932716862E+02  0.23798106498E+03  0.25241892505E+03  0.80311300687E+02 0.  0.
        -13    1    3    3    0    0 -0.40266186540E+02 -0.23635707913E+02  0.13914618307E+03  0.14677081702E+03  0.00000000000E+00 0.  1.
         14    1    3    3    0    0  0.37302903573E+02 -0.12970089498E+01  0.98834881912E+02  0.10564810803E+03  0.00000000000E+00 0. -1.
         -4    1    1    2    0  502  0.29632829678E+01  0.24932716862E+02 -0.10985757449E+02  0.27406354789E+02  0.00000000000E+00 0.  1.
<mgrwt>
<rscale>  1 0.84144676E+02</rscale>
<asrwt>0</asrwt>
<pdfrwt beam="1">  1       21 0.40638442E-02 0.84144676E+02</pdfrwt>
<pdfrwt beam="2">  1       -3 0.38986197E-01 0.84144676E+02</pdfrwt>
<totfact> 0.11113634E+05</totfact>
</mgrwt>
</event>
<event>
 6    2  0.7993170E+000  0.1223910E+03  0.7546771E-02  0.1239204E+00
          4   -1    0    0  502    0 -0.00000000000E+00  0.00000000000E+00  0.24418938196E+03  0.24418938196E+03  0.00000000000E+00 0. -1.
         21   -1    0    0  501  502  0.00000000000E+00 -0.00000000000E+00 -0.45350116678E+02  0.45350116678E+02  0.00000000000E+00 0.  1.
         24    2    1    2    0    0 -0.87351212449E+02  0.11121722582E+02  0.11371944448E+03  0.16706782468E+03  0.85003640860E+02 0.  0.
        -11    1    3    3    0    0 -0.10156212701E+03  0.22459501638E+02  0.10003838970E+03  0.14431553718E+03  0.00000000000E+00 0.  1.
         12    1    3    3    0    0  0.14210914561E+02 -0.11337779056E+02  0.13681054781E+02  0.22752287500E+02  0.00000000000E+00 0. -1.
          3    1    1    2  501    0  0.87351212449E+02 -0.11121722582E+02  0.85119820798E+02  0.12247167396E+03  0.00000000000E+00 0. -1.
<mgrwt>
<rscale>  1 0.12239096E+03</rscale>
<asrwt>0</asrwt>
<pdfrwt beam="1">  1       21 0.69769412E-02 0.12239096E+03</pdfrwt>
<pdfrwt beam="2">  1        4 0.37567596E-01 0.12239096E+03</pdfrwt>
<totfact> 0.41842078E+04</totfact>
</mgrwt>
</event>
<event>
 6    2  0.7993170E+000  0.8744654E+02  0.7546771E-02  0.1309156E+00
         -1   -1    0    0    0  501 -0.00000000000E+00  0.00000000000E+00  0.14711659075E+03  0.14711659075E+03  0.00000000000E+00 0.  1.
         21   -1    0    0  501  502  0.00000000000E+00 -0.00000000000E+00 -0.30388623004E+02  0.30388623004E+02  0.00000000000E+00 0. -1.
         24    2    1    2    0    0  0.27525129671E+02  0.14607102057E+02  0.11733722639E+03  0.14633838219E+03  0.81706163840E+02 0.  0.
        -11    1    3    3    0    0  0.42213864572E+02 -0.18050811585E+02  0.90869931662E+02  0.10180956066E+03  0.00000000000E+00 0.  1.
         12    1    3    3    0    0 -0.14688734901E+02  0.32657913641E+02  0.26467294730E+02  0.44528821529E+02  0.00000000000E+00 0. -1.
         -2    1    1    2    0  502 -0.27525129671E+02 -0.14607102057E+02 -0.60925864604E+00  0.31166831568E+02  0.00000000000E+00 0.  1.
<mgrwt>
<rscale>  1 0.87446540E+02</rscale>
<asrwt>0</asrwt>
<pdfrwt beam="1">  1       21 0.46751729E-02 0.87446540E+02</pdfrwt>
<pdfrwt beam="2">  1       -1 0.22633321E-01 0.87446540E+02</pdfrwt>
<totfact> 0.42030324E+05</totfact>
</mgrwt>
</event>
<event>
 6    2  0.7993170E+000  0.8159300E+02  0.7546771E-02  0.1324591E+00
         -3   -1    0    0    0  501 -0.00000000000E+00  0.00000000000E+00  0.77808445771E+01  0.77808445771E+01  0.00000000000E+00 0.  1.
         21   -1    0    0  501  502  0.00000000000E+00 -0.00000000000E+00 -0.33660784941E+03  0.33660784941E+03  0.00000000000E+00 0. -1.
         24    2    1    2    0    0 -0.14162052331E+02  0.14709178604E+02 -0.25106650137E+03  0.26399205500E+03  0.78996793177E+02 0.  0.
        -11    1    3    3    0    0 -0.36476978446E+02 -0.18147378991E+02 -0.14900835408E+03  0.15447778774E+03  0.00000000000E+00 0.  1.
         12    1    3    3    0    0  0.22314926115E+02  0.32856557595E+02 -0.10205814729E+03  0.10951426726E+03  0.00000000000E+00 0. -1.
         -4    1    1    2    0  502  0.14162052331E+02 -0.14709178604E+02 -0.77760503467E+02  0.80396638989E+02  0.00000000000E+00 0.  1.
<mgrwt>
<rscale>  1 0.81592996E+02</rscale>
<asrwt>0</asrwt>
<pdfrwt beam="1">  1       21 0.51785825E-01 0.81592996E+02</pdfrwt>
<pdfrwt beam="2">  1       -3 0.11970530E-02 0.81592996E+02</pdfrwt>
<totfact> 0.32485947E+05</totfact>
</mgrwt>
</event>
<event>
 6    2  0.7993170E+000  0.8366698E+02  0.7546771E-02  0.1318956E+00
         21   -1    0    0  501  502  0.00000000000E+00  0.00000000000E+00  0.96354810227E+01  0.96354810227E+01  0.00000000000E+00 0.  1.
          4   -1    0    0  502    0 -0.00000000000E+00 -0.00000000000E+00 -0.40008281052E+03  0.40008281052E+03  0.00000000000E+00 0. -1.
         24    2    1    2    0    0  0.73760501845E+00 -0.23845157104E+02 -0.36645129461E+03  0.37588125165E+03  0.80193693276E+02 0.  0.
        -11    1    3    3    0    0 -0.11990194884E+02  0.26205307086E+02 -0.18472326275E+03  0.18695766016E+03  0.00000000000E+00 0.  1.
         12    1    3    3    0    0  0.12727799902E+02 -0.50050464190E+02 -0.18172803186E+03  0.18892359149E+03  0.00000000000E+00 0. -1.
          3    1    1    2  501    0 -0.73760501845E+00  0.23845157104E+02 -0.23996034887E+02  0.33837039894E+02  0.00000000000E+00 0. -1.
<mgrwt>
<rscale>  1 0.83666983E+02</rscale>
<asrwt>0</asrwt>
<pdfrwt beam="1">  1       21 0.14823816E-02 0.83666983E+02</pdfrwt>
<pdfrwt beam="2">  1        4 0.61551206E-01 0.83666983E+02</pdfrwt>
<totfact> 0.18419258E+05</totfact>
</mgrwt>
</event>
<event>
 6    2  0.7993170E+000  0.8547304E+02  0.7546771E-02  0.1314200E+00
          2   -1    0    0  502    0 -0.00000000000E+00  0.00000000000E+00  0.13800459044E+03  0.13800459044E+03  0.00000000000E+00 0. -1.
         21   -1    0    0  501  502  0.00000000000E+00 -0.00000000000E+00 -0.27560526867E+02  0.27560526867E+02  0.00000000000E+00 0.  1.
         24    2    1    2    0    0 -0.44947718579E+01 -0.26956738627E+02  0.10856206323E+03  0.13817149293E+03  0.80986240520E+02 0.  0.
        -11    1    3    3    0    0 -0.54540160231E+01 -0.55119042500E+02  0.57421420816E+02  0.79781418296E+02  0.00000000000E+00 0.  1.
         12    1    3    3    0    0  0.95924416515E+00  0.28162303873E+02  0.51140642418E+02  0.58390074634E+02  0.00000000000E+00 0. -1.
          1    1    1    2  501    0  0.44947718579E+01  0.26956738627E+02  0.18820003438E+01  0.27393624381E+02  0.00000000000E+00 0. -1.
<mgrwt>
<rscale>  1 0.85473036E+02</rscale>
<asrwt>0</asrwt>
<pdfrwt beam="1">  1       21 0.42400811E-02 0.85473036E+02</pdfrwt>
<pdfrwt beam="2">  1        2 0.21231475E-01 0.85473036E+02</pdfrwt>
<totfact> 0.10433101E+06</totfact>
</mgrwt>
</event>
<event>
 6    2  0.7993170E+000  0.9069736E+02  0.7546771E-02  0.1301172E+00
         21   -1    0    0  501  502  0.00000000000E+00  0.00000000000E+00  0.42459001143E+01  0.42459001143E+01  0.00000000000E+00 0. -1.
          2   -1    0    0  502    0 -0.00000000000E+00 -0.00000000000E+00 -0.23883530741E+04  0.23883530741E+04  0.00000000000E+00 0. -1.
         24    2    1    2    0    0 -0.31789732125E+02 -0.34215075691E+02 -0.22232404737E+04  0.22250897096E+04  0.77748012049E+02 0.  0.
        -11    1    3    3    0    0 -0.18903893404E+02  0.39523130831E+00 -0.11641084492E+03  0.11793641595E+03  0.00000000000E+00 0.  1.
         12    1    3    3    0    0 -0.12885838721E+02 -0.34610306999E+02 -0.21068296288E+04  0.21071532936E+04  0.00000000000E+00 0. -1.
          1    1    1    2  501    0  0.31789732125E+02  0.34215075691E+02 -0.16086670035E+03  0.16750926468E+03  0.00000000000E+00 0. -1.
<mgrwt>
<rscale>  1 0.90697364E+02</rscale>
<asrwt>0</asrwt>
<pdfrwt beam="1">  1       21 0.65321539E-03 0.90697364E+02</pdfrwt>
<pdfrwt beam="2">  1        2 0.36743894E+00 0.90697364E+02</pdfrwt>
<totfact> 0.44041117E+05</totfact>
</mgrwt>
</event>
<event>
 6    2  0.7993170E+000  0.8214476E+02  0.7546771E-02  0.1323073E+00
          2   -1    0    0  502    0 -0.00000000000E+00  0.00000000000E+00  0.66191977697E+03  0.66191977697E+03  0.00000000000E+00 0. -1.
         21   -1    0    0  501  502  0.00000000000E+00 -0.00000000000E+00 -0.41258592380E+01  0.41258592380E+01  0.00000000000E+00 0.  1.
         24    2    1    2    0    0  0.21449903796E+02 -0.23083218495E+01  0.48454658830E+03  0.49146023053E+03  0.79261183632E+02 0.  0.
        -13    1    3    3    0    0 -0.13551656187E+02 -0.64823062816E+01  0.17408081637E+02  0.22993672747E+02  0.00000000000E+00 0.  1.
         14    1    3    3    0    0  0.35001559983E+02  0.41739844321E+01  0.46713850667E+03  0.46846655778E+03  0.00000000000E+00 0. -1.
          1    1    1    2  501    0 -0.21449903796E+02  0.23083218495E+01  0.17324732943E+03  0.17458540568E+03  0.00000000000E+00 0. -1.
<mgrwt>
<rscale>  1 0.82144762E+02</rscale>
<asrwt>0</asrwt>
<pdfrwt beam="1">  1       21 0.63474810E-03 0.82144762E+02</pdfrwt>
<pdfrwt beam="2">  1        2 0.10183373E+00 0.82144762E+02</pdfrwt>
<totfact> 0.39663476E+06</totfact>
</mgrwt>
</event>
<event>
 6    2  0.7993170E+000  0.1003761E+03  0.7546771E-02  0.1279507E+00
          2   -1    0    0  502    0 -0.00000000000E+00  0.00000000000E+00  0.16886335594E+03  0.16886335594E+03  0.00000000000E+00 0. -1.
         21   -1    0    0  501  502  0.00000000000E+00 -0.00000000000E+00 -0.39396406092E+02  0.39396406092E+02  0.00000000000E+00 0.  1.
         24    2    1    2    0    0  0.62141764360E+02 -0.86833866516E+01  0.78836922908E+02  0.12763470570E+03  0.78347671330E+02 0.  0.
        -11    1    3    3    0    0  0.30188546118E+02 -0.12483340894E+02 -0.91692652244E+01  0.33930186285E+02  0.00000000000E+00 0.  1.
         12    1    3    3    0    0  0.31953218242E+02  0.37999542425E+01  0.88006188132E+02  0.93704519410E+02  0.00000000000E+00 0. -1.
          1    1    1    2  501    0 -0.62141764360E+02  0.86833866516E+01  0.50630026944E+02  0.80625056340E+02  0.00000000000E+00 0. -1.
<mgrwt>
<rscale>  1 0.10037608E+03</rscale>
<asrwt>0</asrwt>
<pdfrwt beam="1">  1       21 0.60609857E-02 0.10037608E+03</pdfrwt>
<pdfrwt beam="2">  1        2 0.25978977E-01 0.10037608E+03</pdfrwt>
<totfact> 0.46820873E+05</totfact>
</mgrwt>
</event>
<event>
 6    2  0.7993170E+000  0.8666323E+02  0.7546771E-02  0.1311139E+00
          4   -1    0    0  502    0 -0.00000000000E+00  0.00000000000E+00  0.69800916635E+01  0.69800916635E+01  0.00000000000E+00 0. -1.
         21   -1    0    0  501  502  0.00000000000E+00 -0.00000000000E+00 -0.41405142293E+03  0.41405142293E+03  0.00000000000E+00 0.  1.
         24    2    1    2    0    0  0.17088558243E+02  0.11825311965E+02 -0.33438579827E+03  0.34543360766E+03  0.84134763264E+02 0.  0.
        -13    1    3    3    0    0  0.13776741656E+02  0.10020229066E+02 -0.33902604976E+03  0.33945377596E+03  0.00000000000E+00 0.  1.
         14    1    3    3    0    0  0.33118165874E+01  0.18050828989E+01  0.46402514810E+01  0.59798317023E+01  0.00000000000E+00 0. -1.
          3    1    1    2  501    0 -0.17088558243E+02 -0.11825311965E+02 -0.72685532988E+02  0.75597906926E+02  0.00000000000E+00 0. -1.
<mgrwt>
<rscale>  1 0.86663229E+02</rscale>
<asrwt>0</asrwt>
<pdfrwt beam="1">  1       21 0.63700252E-01 0.86663229E+02</pdfrwt>
<pdfrwt beam="2">  1        4 0.10738597E-02 0.86663229E+02</pdfrwt>
<totfact> 0.22718058E+05</totfact>
</mgrwt>
</event>
<event>
 6    2  0.7993170E+000  0.1645796E+03  0.7546771E-02  0.1183621E+00
         21   -1    0    0  501  502  0.00000000000E+00  0.00000000000E+00  0.17771488585E+04  0.17771488585E+04  0.00000000000E+00 0.  1.
         -1   -1    0    0    0  501 -0.00000000000E+00 -0.00000000000E+00 -0.15628143680E+02  0.15628143680E+02  0.00000000000E+00 0.  1.
         24    2    1    2    0    0  0.10782583396E+03  0.92135271767E+02  0.12879969353E+04  0.12984693160E+04  0.83493357076E+02 0.  0.
        -13    1    3    3    0    0  0.11670676754E+03  0.95176456898E+02  0.12593795431E+04  0.12683516315E+04  0.00000000000E+00 0.  1.
         14    1    3    3    0    0 -0.88809335764E+01 -0.30411851307E+01  0.28617392190E+02  0.30117684572E+02  0.00000000000E+00 0. -1.
         -2    1    1    2    0  502 -0.10782583396E+03 -0.92135271767E+02  0.47352377958E+03  0.49430768617E+03  0.00000000000E+00 0.  1.
<mgrwt>
<rscale>  1 0.16457964E+03</rscale>
<asrwt>0</asrwt>
<pdfrwt beam="1">  1       21 0.27340736E+00 0.16457964E+03</pdfrwt>
<pdfrwt beam="2">  1       -1 0.24043312E-02 0.16457964E+03</pdfrwt>
<totfact> 0.22692823E+03</totfact>
</mgrwt>
</event>
<event>
 6    2  0.7993170E+000  0.9317220E+02  0.7546771E-02  0.1295347E+00
         21   -1    0    0  501  502  0.00000000000E+00  0.00000000000E+00  0.37399787015E+02  0.37399787015E+02  0.00000000000E+00 0.  1.
         -1   -1    0    0    0  501 -0.00000000000E+00 -0.00000000000E+00 -0.21848327491E+03  0.21848327491E+03  0.00000000000E+00 0.  1.
         24    2    1    2    0    0 -0.21644665911E+02  0.36096605107E+02 -0.19111358671E+03  0.21261576082E+03  0.83124017350E+02 0.  0.
        -13    1    3    3    0    0  0.46340899277E+01  0.57780700473E+02 -0.13576110516E+03  0.14761829768E+03  0.00000000000E+00 0.  1.
         14    1    3    3    0    0 -0.26278755839E+02 -0.21684095366E+02 -0.55352481557E+02  0.64997463141E+02  0.00000000000E+00 0. -1.
         -2    1    1    2    0  502  0.21644665911E+02 -0.36096605107E+02  0.10030098817E+02  0.43267301106E+02  0.00000000000E+00 0.  1.
<mgrwt>
<rscale>  1 0.93172199E+02</rscale>
<asrwt>0</asrwt>
<pdfrwt beam="1">  1       21 0.57538135E-02 0.93172199E+02</pdfrwt>
<pdfrwt beam="2">  1       -1 0.33612811E-01 0.93172199E+02</pdfrwt>
<totfact> 0.15600136E+05</totfact>
</mgrwt>
</event>
<event>
 6    2  0.7993170E+000  0.8923540E+02  0.7546771E-02  0.1304714E+00
          2   -1    0    0  502    0 -0.00000000000E+00  0.00000000000E+00  0.16698907941E+03  0.16698907941E+03  0.00000000000E+00 0. -1.
         21   -1    0    0  501  502  0.00000000000E+00 -0.00000000000E+00 -0.26157391456E+02  0.26157391456E+02  0.00000000000E+00 0.  1.
         24    2    1    2    0    0 -0.13961196546E+02 -0.37141974605E+02  0.11594498804E+03  0.14630856827E+03  0.79928190350E+02 0.  0.
        -13    1    3    3    0    0 -0.33561850934E+02 -0.44977790991E+02  0.11136884372E+03  0.12470933755E+03  0.00000000000E+00 0.  1.
         14    1    3    3    0    0  0.19600654389E+02  0.78358163853E+01  0.45761443117E+01  0.21599230719E+02  0.00000000000E+00 0. -1.
          1    1    1    2  501    0  0.13961196546E+02  0.37141974605E+02  0.24886699916E+02  0.46837902593E+02  0.00000000000E+00 0. -1.
<mgrwt>
<rscale>  1 0.89235402E+02</rscale>
<asrwt>0</asrwt>
<pdfrwt beam="1">  1       21 0.40242142E-02 0.89235402E+02</pdfrwt>
<pdfrwt beam="2">  1        2 0.25690627E-01 0.89235402E+02</pdfrwt>
<totfact> 0.92712990E+05</totfact>
</mgrwt>
</event>
<event>
 6    2  0.7993170E+000  0.8740355E+02  0.7546771E-02  0.1309264E+00
         21   -1    0    0  501  502  0.00000000000E+00  0.00000000000E+00  0.99459592193E+01  0.99459592193E+01  0.00000000000E+00 0.  1.
          2   -1    0    0  502    0 -0.00000000000E+00 -0.00000000000E+00 -0.90132633242E+03  0.90132633242E+03  0.00000000000E+00 0. -1.
         24    2    1    2    0    0 -0.55573467056E+01  0.32522847454E+02 -0.19025832445E+03  0.20937433114E+03  0.80936770438E+02 0.  0.
        -11    1    3    3    0    0 -0.23768850291E+02  0.54141197661E+02 -0.13002838038E+03  0.14284119586E+03  0.00000000000E+00 0.  1.
         12    1    3    3    0    0  0.18211503586E+02 -0.21618350207E+02 -0.60229944069E+02  0.66533135287E+02  0.00000000000E+00 0. -1.
          1    1    1    2  501    0  0.55573467056E+01 -0.32522847454E+02 -0.70112204875E+03  0.70189796050E+03  0.00000000000E+00 0. -1.
<mgrwt>
<rscale>  1 0.87403550E+02</rscale>
<asrwt>0</asrwt>
<pdfrwt beam="1">  1       21 0.15301475E-02 0.87403550E+02</pdfrwt>
<pdfrwt beam="2">  1        2 0.13866560E+00 0.87403550E+02</pdfrwt>
<totfact> 0.69719317E+05</totfact>
</mgrwt>
</event>
<event>
 6    2  0.7993170E+000  0.9379985E+02  0.7546771E-02  0.1293902E+00
          2   -1    0    0  502    0 -0.00000000000E+00  0.00000000000E+00  0.20085080698E+03  0.20085080698E+03  0.00000000000E+00 0. -1.
         21   -1    0    0  501  502  0.00000000000E+00 -0.00000000000E+00 -0.29002330679E+02  0.29002330679E+02  0.00000000000E+00 0.  1.
         24    2    1    2    0    0 -0.26366766586E+02 -0.37855421657E+02  0.66900610530E+02  0.11521329354E+03  0.81671120909E+02 0.  0.
        -13    1    3    3    0    0 -0.16425429285E+02  0.98965828207E+01 -0.11878045729E+02  0.22557150730E+02  0.00000000000E+00 0.  1.
         14    1    3    3    0    0 -0.99413373014E+01 -0.47752004477E+02  0.78778656259E+02  0.92656142812E+02  0.00000000000E+00 0. -1.
          1    1    1    2  501    0  0.26366766586E+02  0.37855421657E+02  0.10494786577E+03  0.11463984412E+03  0.00000000000E+00 0. -1.
<mgrwt>
<rscale>  1 0.93799847E+02</rscale>
<asrwt>0</asrwt>
<pdfrwt beam="1">  1       21 0.44618972E-02 0.93799847E+02</pdfrwt>
<pdfrwt beam="2">  1        2 0.30900123E-01 0.93799847E+02</pdfrwt>
<totfact> 0.64411497E+05</totfact>
</mgrwt>
</event>
<event>
 6    2  0.7993170E+000  0.8384387E+02  0.7546771E-02  0.1318484E+00
         21   -1    0    0  501  502  0.00000000000E+00  0.00000000000E+00  0.59798104324E+02  0.59798104324E+02  0.00000000000E+00 0. -1.
          4   -1    0    0  502    0 -0.00000000000E+00 -0.00000000000E+00 -0.75067882842E+02  0.75067882842E+02  0.00000000000E+00 0. -1.
         24    2    1    2    0    0  0.17096682724E+02  0.13498625749E+02 -0.47197309992E+02  0.96215285707E+02  0.80964718711E+02 0.  0.
        -11    1    3    3    0    0  0.27258441372E+02  0.43370556838E+02 -0.36497233396E+02  0.62897343919E+02  0.00000000000E+00 0.  1.
         12    1    3    3    0    0 -0.10161758648E+02 -0.29871931090E+02 -0.10700076596E+02  0.33317941788E+02  0.00000000000E+00 0. -1.
          3    1    1    2  501    0 -0.17096682724E+02 -0.13498625749E+02  0.31927531474E+02  0.38650701459E+02  0.00000000000E+00 0. -1.
<mgrwt>
<rscale>  1 0.83843874E+02</rscale>
<asrwt>0</asrwt>
<pdfrwt beam="1">  1       21 0.91997084E-02 0.83843874E+02</pdfrwt>
<pdfrwt beam="2">  1        4 0.11548905E-01 0.83843874E+02</pdfrwt>
<totfact> 0.20571731E+05</totfact>
</mgrwt>
</event>
<event>
 6    2  0.7993170E+000  0.8350994E+02  0.7546771E-02  0.1319376E+00
         21   -1    0    0  501  502  0.00000000000E+00  0.00000000000E+00  0.33817111822E+01  0.33817111822E+01  0.00000000000E+00 0.  1.
          2   -1    0    0  502    0 -0.00000000000E+00 -0.00000000000E+00 -0.10364896524E+04  0.10364896524E+04  0.00000000000E+00 0. -1.
         24    2    1    2    0    0 -0.56840526475E+01  0.25070088790E+02 -0.57385489189E+03  0.57989942844E+03  0.79454970559E+02 0.  0.
        -11    1    3    3    0    0 -0.80236094708E+01 -0.22995411156E+02 -0.77976726297E+02  0.81691719821E+02  0.00000000000E+00 0.  1.
         12    1    3    3    0    0  0.23395568233E+01  0.48065499946E+02 -0.49587816560E+03  0.49820770862E+03  0.00000000000E+00 0. -1.
          1    1    1    2  501    0  0.56840526475E+01 -0.25070088790E+02 -0.45925304934E+03  0.45997193516E+03  0.00000000000E+00 0. -1.
<mgrwt>
<rscale>  1 0.83509940E+02</rscale>
<asrwt>0</asrwt>
<pdfrwt beam="1">  1       21 0.52026365E-03 0.83509940E+02</pdfrwt>
<pdfrwt beam="2">  1        2 0.15945983E+00 0.83509940E+02</pdfrwt>
<totfact> 0.30918099E+06</totfact>
</mgrwt>
</event>
<event>
 6    2  0.7993170E+000  0.8633008E+02  0.7546771E-02  0.1311990E+00
         -1   -1    0    0    0  501 -0.00000000000E+00  0.00000000000E+00  0.15162455438E+04  0.15162455438E+04  0.00000000000E+00 0.  1.
         21   -1    0    0  501  502  0.00000000000E+00 -0.00000000000E+00 -0.27140324793E+01  0.27140324793E+01  0.00000000000E+00 0. -1.
         24    2    1    2    0    0  0.37706199845E+01 -0.30114473171E+02  0.77288852356E+03  0.77769502540E+03  0.80819450712E+02 0.  0.
        -13    1    3    3    0    0  0.92350441972E+01  0.53585591023E+01  0.63870660427E+03  0.63879584105E+03  0.00000000000E+00 0.  1.
         14    1    3    3    0    0 -0.54644242127E+01 -0.35473032274E+02  0.13418191928E+03  0.13889918435E+03  0.00000000000E+00 0. -1.
         -2    1    1    2    0  502 -0.37706199845E+01  0.30114473171E+02  0.74064298781E+03  0.74126455092E+03  0.00000000000E+00 0.  1.
<mgrwt>
<rscale>  1 0.86330080E+02</rscale>
<asrwt>0</asrwt>
<pdfrwt beam="1">  1       21 0.41754467E-03 0.86330080E+02</pdfrwt>
<pdfrwt beam="2">  1       -1 0.23326787E+00 0.86330080E+02</pdfrwt>
<totfact> 0.13756922E+05</totfact>
</mgrwt>
</event>
<event>
 6    2  0.7993170E+000  0.1137654E+03  0.7546771E-02  0.1253752E+00
          2   -1    0    0  502    0 -0.00000000000E+00  0.00000000000E+00  0.27952691083E+04  0.27952691083E+04  0.00000000000E+00 0. -1.
         21   -1    0    0  501  502  0.00000000000E+00 -0.00000000000E+00 -0.27036683918E+01  0.27036683918E+01  0.00000000000E+00 0. -1.
         24    2    1    2    0    0  0.30672007809E+02  0.46484433767E+02  0.21459457962E+04  0.21489592650E+04  0.99201754179E+02 0.  0.
        -11    1    3    3    0    0 -0.19714994087E+02  0.42051920251E+02  0.47902866598E+03  0.48127487761E+03  0.00000000000E+00 0.  1.
         12    1    3    3    0    0  0.50387001896E+02  0.44325135162E+01  0.16669171302E+04  0.16676843874E+04  0.00000000000E+00 0. -1.
          1    1    1    2  501    0 -0.30672007809E+02 -0.46484433767E+02  0.64661964375E+03  0.64901351167E+03  0.00000000000E+00 0. -1.
<mgrwt>
<rscale>  1 0.11376538E+03</rscale>
<asrwt>0</asrwt>
<pdfrwt beam="1">  1       21 0.41595122E-03 0.11376538E+03</pdfrwt>
<pdfrwt beam="2">  1        2 0.43003909E+00 0.11376538E+03</pdfrwt>
<totfact> 0.53584638E+05</totfact>
</mgrwt>
</event>
<event>
 6    2  0.7993170E+000  0.9046719E+02  0.7546771E-02  0.1301724E+00
         -3   -1    0    0    0  501 -0.00000000000E+00  0.00000000000E+00  0.21360427377E+02  0.21360427377E+02  0.00000000000E+00 0.  1.
         21   -1    0    0  501  502  0.00000000000E+00 -0.00000000000E+00 -0.20285043748E+03  0.20285043748E+03  0.00000000000E+00 0.  1.
         24    2    1    2    0    0  0.32939033394E+02 -0.20735124917E+02 -0.10662651682E+03  0.13983392516E+03  0.81666316250E+02 0.  0.
        -13    1    3    3    0    0  0.20924408758E+02 -0.52242571935E+02 -0.73426838590E+02  0.92512798194E+02  0.00000000000E+00 0.  1.
         14    1    3    3    0    0  0.12014624636E+02  0.31507447018E+02 -0.33199678231E+02  0.47321126966E+02  0.00000000000E+00 0. -1.
         -4    1    1    2    0  502 -0.32939033394E+02  0.20735124917E+02 -0.74863493281E+02  0.84376939696E+02  0.00000000000E+00 0.  1.
<mgrwt>
<rscale>  1 0.90467190E+02</rscale>
<asrwt>0</asrwt>
<pdfrwt beam="1">  1       21 0.31207759E-01 0.90467190E+02</pdfrwt>
<pdfrwt beam="2">  1       -3 0.32862197E-02 0.90467190E+02</pdfrwt>
<totfact> 0.19598551E+05</totfact>
</mgrwt>
</event>
<event>
 6    2  0.7993170E+000  0.8384379E+02  0.7546771E-02  0.1318484E+00
          2   -1    0    0  502    0 -0.00000000000E+00  0.00000000000E+00  0.25374657871E+01  0.25374657871E+01  0.00000000000E+00 0. -1.
         21   -1    0    0  501  502  0.00000000000E+00 -0.00000000000E+00 -0.11717502245E+04  0.11717502245E+04  0.00000000000E+00 0. -1.
         24    2    1    2    0    0 -0.49809996457E+01  0.20085893305E+02 -0.77275739026E+03  0.77729258623E+03  0.81249781200E+02 0.  0.
        -13    1    3    3    0    0  0.28878619745E+02  0.32941590579E+02 -0.30429358880E+03  0.30743082353E+03  0.00000000000E+00 0.  1.
         14    1    3    3    0    0 -0.33859619391E+02 -0.12855697275E+02 -0.46846380146E+03  0.46986176270E+03  0.00000000000E+00 0. -1.
          1    1    1    2  501    0  0.49809996457E+01 -0.20085893305E+02 -0.39645536846E+03  0.39699510406E+03  0.00000000000E+00 0. -1.
<mgrwt>
<rscale>  1 0.83843786E+02</rscale>
<asrwt>0</asrwt>
<pdfrwt beam="1">  1       21 0.18026949E+00 0.83843786E+02</pdfrwt>
<pdfrwt beam="2">  1        2 0.39037887E-03 0.83843786E+02</pdfrwt>
<totfact> 0.11318326E+05</totfact>
</mgrwt>
</event>
<event>
 6    2  0.7993170E+000  0.8554084E+02  0.7546771E-02  0.1314024E+00
         21   -1    0    0  501  502  0.00000000000E+00  0.00000000000E+00  0.48712336920E+01  0.48712336920E+01  0.00000000000E+00 0.  1.
          2   -1    0    0  502    0 -0.00000000000E+00 -0.00000000000E+00 -0.14101691844E+04  0.14101691844E+04  0.00000000000E+00 0. -1.
         24    2    1    2    0    0  0.28853870275E+02 -0.22096089532E+02 -0.13139065147E+04  0.13166881045E+04  0.77436763314E+02 0.  0.
        -13    1    3    3    0    0 -0.21886205143E+02 -0.75953889507E+01 -0.17077761991E+03  0.17234178650E+03  0.00000000000E+00 0.  1.
         14    1    3    3    0    0  0.50740075418E+02 -0.14500700581E+02 -0.11431288947E+04  0.11443463180E+04  0.00000000000E+00 0. -1.
          1    1    1    2  501    0 -0.28853870275E+02  0.22096089532E+02 -0.91391436058E+02  0.98352313583E+02  0.00000000000E+00 0. -1.
<mgrwt>
<rscale>  1 0.85540840E+02</rscale>
<asrwt>0</asrwt>
<pdfrwt beam="1">  1       21 0.74942043E-03 0.85540840E+02</pdfrwt>
<pdfrwt beam="2">  1        2 0.21694915E+00 0.85540840E+02</pdfrwt>
<totfact> 0.11102245E+06</totfact>
</mgrwt>
</event>
<event>
 6    2  0.7993170E+000  0.8191536E+02  0.7546771E-02  0.1323702E+00
         21   -1    0    0  501  502  0.00000000000E+00  0.00000000000E+00  0.13722708688E+02  0.13722708688E+02  0.00000000000E+00 0. -1.
          2   -1    0    0  502    0 -0.00000000000E+00 -0.00000000000E+00 -0.57127468092E+03  0.57127468092E+03  0.00000000000E+00 0. -1.
         24    2    1    2    0    0 -0.73704778516E+01  0.21008575020E+02 -0.55672385758E+03  0.56271802826E+03  0.78831729463E+02 0.  0.
        -13    1    3    3    0    0  0.11009110635E+02  0.13479856552E+01 -0.88657977522E+01  0.14199294070E+02  0.00000000000E+00 0.  1.
         14    1    3    3    0    0 -0.18379588487E+02  0.19660589365E+02 -0.54785805982E+03  0.54851873419E+03  0.00000000000E+00 0. -1.
          1    1    1    2  501    0  0.73704778516E+01 -0.21008575020E+02 -0.82811465811E+00  0.22279361347E+02  0.00000000000E+00 0. -1.
<mgrwt>
<rscale>  1 0.81915357E+02</rscale>
<asrwt>0</asrwt>
<pdfrwt beam="1">  1       21 0.21111860E-02 0.81915357E+02</pdfrwt>
<pdfrwt beam="2">  1        2 0.87888409E-01 0.81915357E+02</pdfrwt>
<totfact> 0.71121876E+05</totfact>
</mgrwt>
</event>
<event>
 6    2  0.7993170E+000  0.1169971E+03  0.7546771E-02  0.1248135E+00
         21   -1    0    0  501  502  0.00000000000E+00  0.00000000000E+00  0.23019464140E+02  0.23019464140E+02  0.00000000000E+00 0.  1.
          2   -1    0    0  502    0 -0.00000000000E+00 -0.00000000000E+00 -0.43170306938E+03  0.43170306938E+03  0.00000000000E+00 0. -1.
         24    2    1    2    0    0 -0.55142636349E+02 -0.59709475444E+02 -0.21727750752E+03  0.24677488135E+03  0.84156966356E+02 0.  0.
        -11    1    3    3    0    0  0.10338029312E+01 -0.80229175095E+01  0.64733702858E+01  0.10360524925E+02  0.00000000000E+00 0.  1.
         12    1    3    3    0    0 -0.56176439281E+02 -0.51686557934E+02 -0.22375087781E+03  0.23641435642E+03  0.00000000000E+00 0. -1.
          1    1    1    2  501    0  0.55142636349E+02  0.59709475444E+02 -0.19140609772E+03  0.20794765217E+03  0.00000000000E+00 0. -1.
<mgrwt>
<rscale>  1 0.11699712E+03</rscale>
<asrwt>0</asrwt>
<pdfrwt beam="1">  1       21 0.35414559E-02 0.11699712E+03</pdfrwt>
<pdfrwt beam="2">  1        2 0.66415858E-01 0.11699712E+03</pdfrwt>
<totfact> 0.42780652E+05</totfact>
</mgrwt>
</event>
<event>
 6    2  0.7993170E+000  0.8688980E+02  0.7546771E-02  0.1310563E+00
         -1   -1    0    0    0  501 -0.00000000000E+00  0.00000000000E+00  0.11700099233E+04  0.11700099233E+04  0.00000000000E+00 0.  1.
         21   -1    0    0  501  502  0.00000000000E+00 -0.00000000000E+00 -0.39012955144E+01  0.39012955144E+01  0.00000000000E+00 0.  1.
         24    2    1    2    0    0 -0.33508834555E+02  0.18428170322E+02  0.98410084213E+03  0.98792930169E+03  0.78021780419E+02 0.  0.
        -11    1    3    3    0    0 -0.44294674582E+02  0.31493952850E+02  0.92073017638E+03  0.92233288186E+03  0.00000000000E+00 0.  1.
         12    1    3    3    0    0  0.10785840027E+02 -0.13065782528E+02  0.63370665748E+02  0.65596419838E+02  0.00000000000E+00 0. -1.
         -2    1    1    2    0  502  0.33508834555E+02 -0.18428170322E+02  0.18200778566E+03  0.18598191712E+03  0.00000000000E+00 0.  1.
<mgrwt>
<rscale>  1 0.86889802E+02</rscale>
<asrwt>0</asrwt>
<pdfrwt beam="1">  1       21 0.60020024E-03 0.86889802E+02</pdfrwt>
<pdfrwt beam="2">  1       -1 0.18000125E+00 0.86889802E+02</pdfrwt>
<totfact> 0.17416513E+05</totfact>
</mgrwt>
</event>
<event>
 6    2  0.7993170E+000  0.9236167E+02  0.7546771E-02  0.1297231E+00
          2   -1    0    0  502    0 -0.00000000000E+00  0.00000000000E+00  0.29213254708E+03  0.29213254708E+03  0.00000000000E+00 0. -1.
         21   -1    0    0  501  502  0.00000000000E+00 -0.00000000000E+00 -0.34839072094E+02  0.34839072094E+02  0.00000000000E+00 0. -1.
         24    2    1    2    0    0  0.34259885916E+02 -0.29852897756E+02  0.26522155983E+03  0.28084364701E+03  0.80409843779E+02 0.  0.
        -13    1    3    3    0    0 -0.10908333168E+02 -0.29822995349E+02  0.39672814588E+02  0.50816680347E+02  0.00000000000E+00 0.  1.
         14    1    3    3    0    0  0.45168219084E+02 -0.29902406683E-01  0.22554874525E+03  0.23002696666E+03  0.00000000000E+00 0. -1.
          1    1    1    2  501    0 -0.34259885916E+02  0.29852897756E+02 -0.79280848424E+01  0.46127972172E+02  0.00000000000E+00 0. -1.
<mgrwt>
<rscale>  1 0.92361671E+02</rscale>
<asrwt>0</asrwt>
<pdfrwt beam="1">  1       21 0.53598574E-02 0.92361671E+02</pdfrwt>
<pdfrwt beam="2">  1        2 0.44943467E-01 0.92361671E+02</pdfrwt>
<totfact> 0.31939703E+05</totfact>
</mgrwt>
</event>
<event>
 6    2  0.7993170E+000  0.9363935E+02  0.7546771E-02  0.1294270E+00
         21   -1    0    0  501  502  0.00000000000E+00  0.00000000000E+00  0.30620291699E+02  0.30620291699E+02  0.00000000000E+00 0.  1.
         -1   -1    0    0    0  501 -0.00000000000E+00 -0.00000000000E+00 -0.21406313577E+03  0.21406313577E+03  0.00000000000E+00 0.  1.
         24    2    1    2    0    0 -0.52443776592E+01  0.48122683658E+02 -0.17058723422E+03  0.19459787182E+03  0.80156291448E+02 0.  0.
        -13    1    3    3    0    0  0.19327030407E+02  0.62327925216E+02 -0.11836184072E+03  0.13515853545E+03  0.00000000000E+00 0.  1.
         14    1    3    3    0    0 -0.24571408066E+02 -0.14205241558E+02 -0.52225393504E+02  0.59439336375E+02  0.00000000000E+00 0. -1.
         -2    1    1    2    0  502  0.52443776592E+01 -0.48122683658E+02 -0.12855609843E+02  0.50085555642E+02  0.00000000000E+00 0.  1.
<mgrwt>
<rscale>  1 0.93639347E+02</rscale>
<asrwt>0</asrwt>
<pdfrwt beam="1">  1       21 0.47108140E-02 0.93639347E+02</pdfrwt>
<pdfrwt beam="2">  1       -1 0.32932791E-01 0.93639347E+02</pdfrwt>
<totfact> 0.22555611E+05</totfact>
</mgrwt>
</event>
<event>
 6    2  0.7993170E+000  0.8432573E+02  0.7546771E-02  0.1317205E+00
          2   -1    0    0  502    0 -0.00000000000E+00  0.00000000000E+00  0.17159429832E+03  0.17159429832E+03  0.00000000000E+00 0. -1.
         21   -1    0    0  501  502  0.00000000000E+00 -0.00000000000E+00 -0.20617343615E+02  0.20617343615E+02  0.00000000000E+00 0.  1.
         24    2    1    2    0    0 -0.33026007760E+02  0.79523740518E+01  0.11644778233E+03  0.14377383453E+03  0.77180775087E+02 0.  0.
        -13    1    3    3    0    0 -0.36439100292E+02 -0.29395064726E+02  0.65445730103E+02  0.80467517975E+02  0.00000000000E+00 0.  1.
         14    1    3    3    0    0  0.34130925319E+01  0.37347438778E+02  0.51002052228E+02  0.63306316552E+02  0.00000000000E+00 0. -1.
          1    1    1    2  501    0  0.33026007760E+02 -0.79523740518E+01  0.34529172370E+02  0.48437807404E+02  0.00000000000E+00 0. -1.
<mgrwt>
<rscale>  1 0.84325734E+02</rscale>
<asrwt>0</asrwt>
<pdfrwt beam="1">  1       21 0.31718991E-02 0.84325734E+02</pdfrwt>
<pdfrwt beam="2">  1        2 0.26399122E-01 0.84325734E+02</pdfrwt>
<totfact> 0.13202856E+06</totfact>
</mgrwt>
</event>
<event>
 6    2  0.7993170E+000  0.8572202E+02  0.7546771E-02  0.1313555E+00
          2   -1    0    0  502    0 -0.00000000000E+00  0.00000000000E+00  0.16932674149E+02  0.16932674149E+02  0.00000000000E+00 0. -1.
         21   -1    0    0  501  502  0.00000000000E+00 -0.00000000000E+00 -0.19313598449E+03  0.19313598449E+03  0.00000000000E+00 0.  1.
         24    2    1    2    0    0 -0.27139931887E+02  0.90822390136E+00 -0.14717018409E+03  0.17031537961E+03  0.81307223995E+02 0.  0.
        -11    1    3    3    0    0 -0.46046039107E+02 -0.19523214134E+02 -0.12530671600E+03  0.13491911162E+03  0.00000000000E+00 0.  1.
         12    1    3    3    0    0  0.18906107220E+02  0.20431438035E+02 -0.21863468096E+02  0.35396267990E+02  0.00000000000E+00 0. -1.
          1    1    1    2  501    0  0.27139931887E+02 -0.90822390136E+00 -0.29033126251E+02  0.39753279027E+02  0.00000000000E+00 0. -1.
<mgrwt>
<rscale>  1 0.85722024E+02</rscale>
<asrwt>0</asrwt>
<pdfrwt beam="1">  1       21 0.29713229E-01 0.85722024E+02</pdfrwt>
<pdfrwt beam="2">  1        2 0.26050268E-02 0.85722024E+02</pdfrwt>
<totfact> 0.45896207E+05</totfact>
</mgrwt>
</event>
<event>
 6    2  0.7993170E+000  0.8512089E+02  0.7546771E-02  0.1315117E+00
          2   -1    0    0  502    0 -0.00000000000E+00  0.00000000000E+00  0.91584621164E+03  0.91584621164E+03  0.00000000000E+00 0. -1.
         21   -1    0    0  501  502  0.00000000000E+00 -0.00000000000E+00 -0.36287742309E+01  0.36287742309E+01  0.00000000000E+00 0.  1.
         24    2    1    2    0    0 -0.25624274779E+02 -0.60845275089E+01  0.78213116916E+03  0.78674947167E+03  0.80944057646E+02 0.  0.
        -13    1    3    3    0    0 -0.21653911082E+02 -0.22627201988E+02  0.10917878448E+03  0.11358208096E+03  0.00000000000E+00 0.  1.
         14    1    3    3    0    0 -0.39703636965E+01  0.16542674479E+02  0.67295238468E+03  0.67316739071E+03  0.00000000000E+00 0. -1.
          1    1    1    2  501    0  0.25624274779E+02  0.60845275089E+01  0.13008626825E+03  0.13272551420E+03  0.00000000000E+00 0. -1.
<mgrwt>
<rscale>  1 0.85120887E+02</rscale>
<asrwt>0</asrwt>
<pdfrwt beam="1">  1       21 0.55827369E-03 0.85120887E+02</pdfrwt>
<pdfrwt beam="2">  1        2 0.14089923E+00 0.85120887E+02</pdfrwt>
<totfact> 0.32775801E+06</totfact>
</mgrwt>
</event>
<event>
 6    2  0.7993170E+000  0.7838868E+02  0.7546771E-02  0.1333687E+00
          2   -1    0    0  502    0 -0.00000000000E+00  0.00000000000E+00  0.98861277720E+03  0.98861277720E+03  0.00000000000E+00 0. -1.
         21   -1    0    0  501  502  0.00000000000E+00 -0.00000000000E+00 -0.35171661799E+01  0.35171661799E+01  0.00000000000E+00 0.  1.
         24    2    1    2    0    0  0.25700884135E+02 -0.10515243262E+02  0.87801588317E+03  0.88150818285E+03  0.73305385525E+02 0.  0.
        -11    1    3    3    0    0  0.17475465497E+02  0.14516417306E+02  0.82919870207E+02  0.85975712506E+02  0.00000000000E+00 0.  1.
         12    1    3    3    0    0  0.82254186381E+01 -0.25031660568E+02  0.79509601297E+03  0.79553247035E+03  0.00000000000E+00 0. -1.
          1    1    1    2  501    0 -0.25700884135E+02  0.10515243262E+02  0.10707972784E+03  0.11062176052E+03  0.00000000000E+00 0. -1.
<mgrwt>
<rscale>  1 0.78388681E+02</rscale>
<asrwt>0</asrwt>
<pdfrwt beam="1">  1       21 0.54110328E-03 0.78388681E+02</pdfrwt>
<pdfrwt beam="2">  1        2 0.15209405E+00 0.78388681E+02</pdfrwt>
<totfact> 0.30820330E+06</totfact>
</mgrwt>
</event>
<event>
 6    2  0.7993170E+000  0.8325353E+02  0.7546771E-02  0.1320064E+00
         -1   -1    0    0    0  501 -0.00000000000E+00  0.00000000000E+00  0.18887617794E+01  0.18887617794E+01  0.00000000000E+00 0.  1.
         21   -1    0    0  501  502  0.00000000000E+00 -0.00000000000E+00 -0.16957238908E+04  0.16957238908E+04  0.00000000000E+00 0.  1.
         24    2    1    2    0    0  0.18260816794E+01  0.24988591803E+02 -0.10521952809E+04  0.10554838033E+04  0.79393864544E+02 0.  0.
        -13    1    3    3    0    0 -0.24175935151E+02  0.42254046987E+02 -0.77714380690E+03  0.77866705139E+03  0.00000000000E+00 0.  1.
         14    1    3    3    0    0  0.26002016831E+02 -0.17265455184E+02 -0.27505147398E+03  0.27681675195E+03  0.00000000000E+00 0. -1.
         -2    1    1    2    0  502 -0.18260816794E+01 -0.24988591803E+02 -0.64163984809E+03  0.64212884918E+03  0.00000000000E+00 0.  1.
<mgrwt>
<rscale>  1 0.83253529E+02</rscale>
<asrwt>0</asrwt>
<pdfrwt beam="1">  1       21 0.26088067E+00 0.83253529E+02</pdfrwt>
<pdfrwt beam="2">  1       -1 0.29057865E-03 0.83253529E+02</pdfrwt>
<totfact> 0.56084293E+04</totfact>
</mgrwt>
</event>
<event>
 6    2  0.7993170E+000  0.9318846E+02  0.7546771E-02  0.1295309E+00
          2   -1    0    0  502    0 -0.00000000000E+00  0.00000000000E+00  0.11684313518E+04  0.11684313518E+04  0.00000000000E+00 0. -1.
         21   -1    0    0  501  502  0.00000000000E+00 -0.00000000000E+00 -0.62558312965E+01  0.62558312965E+01  0.00000000000E+00 0. -1.
         24    2    1    2    0    0 -0.36963212723E+02  0.26958281116E+02  0.10410034782E+04  0.10451661738E+04  0.81185350850E+02 0.  0.
        -11    1    3    3    0    0  0.24301152853E+02 -0.33853707116E+01  0.24035949192E+03  0.24160855142E+03  0.00000000000E+00 0.  1.
         12    1    3    3    0    0 -0.61264365575E+02  0.30343651828E+02  0.80064398630E+03  0.80355762239E+03  0.00000000000E+00 0. -1.
          1    1    1    2  501    0  0.36963212723E+02 -0.26958281116E+02  0.12117204227E+03  0.12952100928E+03  0.00000000000E+00 0. -1.
<mgrwt>
<rscale>  1 0.93188461E+02</rscale>
<asrwt>0</asrwt>
<pdfrwt beam="1">  1       21 0.96243651E-03 0.93188461E+02</pdfrwt>
<pdfrwt beam="2">  1        2 0.17975850E+00 0.93188461E+02</pdfrwt>
<totfact> 0.10172488E+06</totfact>
</mgrwt>
</event>
<event>
 6    2  0.7993170E+000  0.8617414E+02  0.7546771E-02  0.1312390E+00
         -3   -1    0    0    0  501 -0.00000000000E+00  0.00000000000E+00  0.34538965114E+03  0.34538965114E+03  0.00000000000E+00 0.  1.
         21   -1    0    0  501  502  0.00000000000E+00 -0.00000000000E+00 -0.16279998499E+02  0.16279998499E+02  0.00000000000E+00 0.  1.
         24    2    1    2    0    0 -0.29054219795E+02 -0.56125152856E+00  0.31972153885E+03  0.33113115963E+03  0.81126566461E+02 0.  0.
        -11    1    3    3    0    0  0.34487809796E+01 -0.23928739414E+02  0.24648800185E+03  0.24767077687E+03  0.00000000000E+00 0.  1.
         12    1    3    3    0    0 -0.32503000775E+02  0.23367487886E+02  0.73233536995E+02  0.83460382759E+02  0.00000000000E+00 0. -1.
         -4    1    1    2    0  502  0.29054219795E+02  0.56125152856E+00  0.93881137910E+01  0.30538490004E+02  0.00000000000E+00 0.  1.
<mgrwt>
<rscale>  1 0.86174140E+02</rscale>
<asrwt>0</asrwt>
<pdfrwt beam="1">  1       21 0.25046154E-02 0.86174140E+02</pdfrwt>
<pdfrwt beam="2">  1       -3 0.53136864E-01 0.86174140E+02</pdfrwt>
<totfact> 0.13424144E+05</totfact>
</mgrwt>
</event>
<event>
 6    2  0.7993170E+000  0.5757754E+02  0.7546771E-02  0.1408288E+00
          2   -1    0    0  502    0 -0.00000000000E+00  0.00000000000E+00  0.48502165668E+02  0.48502165668E+02  0.00000000000E+00 0. -1.
         21   -1    0    0  501  502  0.00000000000E+00 -0.00000000000E+00 -0.42996031581E+02  0.42996031581E+02  0.00000000000E+00 0. -1.
         24    2    1    2    0    0  0.99376253038E+01 -0.24169580287E+02  0.20799596380E+02  0.61219244215E+02  0.51305434846E+02 0.  0.
        -13    1    3    3    0    0  0.16551099004E+02 -0.25442347174E+01 -0.12549335367E+02  0.20926008380E+02  0.00000000000E+00 0.  1.
         14    1    3    3    0    0 -0.66134737002E+01 -0.21625345570E+02  0.33348931747E+02  0.40293235836E+02  0.00000000000E+00 0. -1.
          1    1    1    2  501    0 -0.99376253038E+01  0.24169580287E+02 -0.15293462292E+02  0.30278953034E+02  0.00000000000E+00 0. -1.
<mgrwt>
<rscale>  1 0.57577536E+02</rscale>
<asrwt>0</asrwt>
<pdfrwt beam="1">  1       21 0.66147741E-02 0.57577536E+02</pdfrwt>
<pdfrwt beam="2">  1        2 0.74618716E-02 0.57577536E+02</pdfrwt>
<totfact> 0.16097326E+06</totfact>
</mgrwt>
</event>
<event>
 6    2  0.7993170E+000  0.3711555E+03  0.7546771E-02  0.1054252E+00
         21   -1    0    0  501  502  0.00000000000E+00  0.00000000000E+00  0.16209473619E+03  0.16209473619E+03  0.00000000000E+00 0.  1.
         -1   -1    0    0    0  501 -0.00000000000E+00 -0.00000000000E+00 -0.83044054427E+03  0.83044054427E+03  0.00000000000E+00 0.  1.
         24    2    1    2    0    0  0.23441208939E+03  0.27665381154E+03 -0.34162032536E+03  0.50444112956E+03  0.79183630907E+02 0.  0.
        -13    1    3    3    0    0  0.20074053297E+03  0.26489732487E+03 -0.32582652991E+03  0.46543558296E+03  0.00000000000E+00 0.  1.
         14    1    3    3    0    0  0.33671556420E+02  0.11756486676E+02 -0.15793795454E+02  0.39005546600E+02  0.00000000000E+00 0. -1.
         -2    1    1    2    0  502 -0.23441208939E+03 -0.27665381154E+03 -0.32672548272E+03  0.48809415091E+03  0.00000000000E+00 0.  1.
<mgrwt>
<rscale>  1 0.37115550E+03</rscale>
<asrwt>0</asrwt>
<pdfrwt beam="1">  1       21 0.24937652E-01 0.37115550E+03</pdfrwt>
<pdfrwt beam="2">  1       -1 0.12776008E+00 0.37115550E+03</pdfrwt>
<totfact> 0.77139333E+02</totfact>
</mgrwt>
</event>
<event>
 6    2  0.7993170E+000  0.9125461E+02  0.7546771E-02  0.1299842E+00
         21   -1    0    0  501  502  0.00000000000E+00  0.00000000000E+00  0.39153533804E+02  0.39153533804E+02  0.00000000000E+00 0. -1.
          2   -1    0    0  502    0 -0.00000000000E+00 -0.00000000000E+00 -0.69146243726E+03  0.69146243726E+03  0.00000000000E+00 0. -1.
         24    2    1    2    0    0  0.34384449756E+02 -0.26263576963E+02 -0.67542432319E+03  0.68156101729E+03  0.80345118564E+02 0.  0.
        -13    1    3    3    0    0  0.23953017452E+02  0.23696792652E+02 -0.15389547383E+03  0.15754079437E+03  0.00000000000E+00 0.  1.
         14    1    3    3    0    0  0.10431432304E+02 -0.49960369615E+02 -0.52152884936E+03  0.52402022292E+03  0.00000000000E+00 0. -1.
          1    1    1    2  501    0 -0.34384449756E+02  0.26263576963E+02  0.23115419735E+02  0.49054953771E+02  0.00000000000E+00 0. -1.
<mgrwt>
<rscale>  1 0.91254610E+02</rscale>
<asrwt>0</asrwt>
<pdfrwt beam="1">  1       21 0.60236212E-02 0.91254610E+02</pdfrwt>
<pdfrwt beam="2">  1        2 0.10637883E+00 0.91254610E+02</pdfrwt>
<totfact> 0.10366084E+05</totfact>
</mgrwt>
</event>
<event>
 6    2  0.7993170E+000  0.1020136E+03  0.7546771E-02  0.1276118E+00
         21   -1    0    0  501  502  0.00000000000E+00  0.00000000000E+00  0.54362549268E+01  0.54362549268E+01  0.00000000000E+00 0.  1.
          2   -1    0    0  502    0 -0.00000000000E+00 -0.00000000000E+00 -0.73945254530E+03  0.73945254530E+03  0.00000000000E+00 0. -1.
         24    2    1    2    0    0  0.22245778379E+02 -0.10102665095E+02 -0.61305799048E+03  0.62148763001E+03  0.99044616545E+02 0.  0.
        -13    1    3    3    0    0  0.32651336029E+02 -0.45076404130E+02 -0.48950184208E+03  0.49265611268E+03  0.00000000000E+00 0.  1.
         14    1    3    3    0    0 -0.10405557649E+02  0.34973739035E+02 -0.12355614839E+03  0.12883151733E+03  0.00000000000E+00 0. -1.
          1    1    1    2  501    0 -0.22245778379E+02  0.10102665095E+02 -0.12095829989E+03  0.12340117021E+03  0.00000000000E+00 0. -1.
<mgrwt>
<rscale>  1 0.10201360E+03</rscale>
<asrwt>0</asrwt>
<pdfrwt beam="1">  1       21 0.83634727E-03 0.10201360E+03</pdfrwt>
<pdfrwt beam="2">  1        2 0.11376188E+00 0.10201360E+03</pdfrwt>
<totfact> 0.23307567E+06</totfact>
</mgrwt>
</event>
<event>
 6    2  0.7993170E+000  0.8267099E+02  0.7546771E-02  0.1321638E+00
          2   -1    0    0  502    0 -0.00000000000E+00  0.00000000000E+00  0.11581640490E+03  0.11581640490E+03  0.00000000000E+00 0. -1.
         21   -1    0    0  501  502  0.00000000000E+00 -0.00000000000E+00 -0.57221489875E+02  0.57221489875E+02  0.00000000000E+00 0.  1.
         24    2    1    2    0    0  0.48633754483E+02 -0.31353913753E+02 -0.10025541924E+02  0.83276672107E+02  0.59043904372E+02 0.  0.
        -13    1    3    3    0    0  0.38555879047E+02 -0.39739199455E+02 -0.27184363718E+02  0.61682650828E+02  0.00000000000E+00 0.  1.
         14    1    3    3    0    0  0.10077875436E+02  0.83852857021E+01  0.17158821794E+02  0.21594021279E+02  0.00000000000E+00 0. -1.
          1    1    1    2  501    0 -0.48633754483E+02  0.31353913753E+02  0.68620456945E+02  0.89761222664E+02  0.00000000000E+00 0. -1.
<mgrwt>
<rscale>  1 0.82670990E+02</rscale>
<asrwt>0</asrwt>
<pdfrwt beam="1">  1       21 0.88033061E-02 0.82670990E+02</pdfrwt>
<pdfrwt beam="2">  1        2 0.17817908E-01 0.82670990E+02</pdfrwt>
<totfact> 0.37084934E+05</totfact>
</mgrwt>
</event>
<event>
 6    2  0.7993170E+000  0.8456256E+02  0.7546771E-02  0.1316580E+00
          2   -1    0    0  502    0 -0.00000000000E+00  0.00000000000E+00  0.30822479202E+04  0.30822479202E+04  0.00000000000E+00 0. -1.
         21   -1    0    0  501  502  0.00000000000E+00 -0.00000000000E+00 -0.72581754566E+01  0.72581754566E+01  0.00000000000E+00 0. -1.
         24    2    1    2    0    0  0.33102836424E+02  0.86800762940E+01  0.30377623311E+04  0.30389390922E+04  0.77328421773E+02 0.  0.
        -13    1    3    3    0    0 -0.11303679247E+02  0.15930415215E+02  0.23343645774E+03  0.23425228087E+03  0.00000000000E+00 0.  1.
         14    1    3    3    0    0  0.44406515670E+02 -0.72503389213E+01  0.28043258733E+04  0.28046868114E+04  0.00000000000E+00 0. -1.
          1    1    1    2  501    0 -0.33102836424E+02 -0.86800762940E+01  0.37227413625E+02  0.50567003362E+02  0.00000000000E+00 0. -1.
<mgrwt>
<rscale>  1 0.84562559E+02</rscale>
<asrwt>0</asrwt>
<pdfrwt beam="1">  1       21 0.11166448E-02 0.84562559E+02</pdfrwt>
<pdfrwt beam="2">  1        2 0.47419094E+00 0.84562559E+02</pdfrwt>
<totfact> 0.80295802E+04</totfact>
</mgrwt>
</event>
<event>
 6    2  0.7993170E+000  0.8495913E+02  0.7546771E-02  0.1315539E+00
         -1   -1    0    0    0  501 -0.00000000000E+00  0.00000000000E+00  0.19619470522E+02  0.19619470522E+02  0.00000000000E+00 0.  1.
         21   -1    0    0  501  502  0.00000000000E+00 -0.00000000000E+00 -0.14989695643E+03  0.14989695643E+03  0.00000000000E+00 0.  1.
         24    2    1    2    0    0 -0.18647551132E+02  0.98527356809E+01 -0.11700669023E+03  0.14459812882E+03  0.82299731092E+02 0.  0.
        -11    1    3    3    0    0  0.11623564155E+02  0.33556946562E+02 -0.21187840236E+02  0.41353361170E+02  0.00000000000E+00 0.  1.
         12    1    3    3    0    0 -0.30271115287E+02 -0.23704210881E+02 -0.95818849992E+02  0.10324476765E+03  0.00000000000E+00 0. -1.
         -2    1    1    2    0  502  0.18647551132E+02 -0.98527356809E+01 -0.13270795681E+02  0.24918298129E+02  0.00000000000E+00 0.  1.
<mgrwt>
<rscale>  1 0.84959127E+02</rscale>
<asrwt>0</asrwt>
<pdfrwt beam="1">  1       21 0.23061070E-01 0.84959127E+02</pdfrwt>
<pdfrwt beam="2">  1       -1 0.30183801E-02 0.84959127E+02</pdfrwt>
<totfact> 0.53623586E+05</totfact>
</mgrwt>
</event>
<event>
 6    2  0.7993170E+000  0.8524912E+02  0.7546771E-02  0.1314782E+00
         21   -1    0    0  501  502  0.00000000000E+00  0.00000000000E+00  0.40643075727E+01  0.40643075727E+01  0.00000000000E+00 0. -1.
          2   -1    0    0  502    0 -0.00000000000E+00 -0.00000000000E+00 -0.10928269348E+04  0.10928269348E+04  0.00000000000E+00 0. -1.
         24    2    1    2    0    0 -0.21923221909E+02  0.18231538953E+02 -0.10007647744E+04  0.10043891410E+04  0.80339255901E+02 0.  0.
        -13    1    3    3    0    0  0.23409011286E+02 -0.12245101318E+02 -0.19596476462E+03  0.19773748579E+03  0.00000000000E+00 0.  1.
         14    1    3    3    0    0 -0.45332233195E+02  0.30476640271E+02 -0.80480000982E+03  0.80665165516E+03  0.00000000000E+00 0. -1.
          1    1    1    2  501    0  0.21923221909E+02 -0.18231538953E+02 -0.87997852802E+02  0.92502101431E+02  0.00000000000E+00 0. -1.
<mgrwt>
<rscale>  1 0.85249121E+02</rscale>
<asrwt>0</asrwt>
<pdfrwt beam="1">  1       21 0.62527851E-03 0.85249121E+02</pdfrwt>
<pdfrwt beam="2">  1        2 0.16812711E+00 0.85249121E+02</pdfrwt>
<totfact> 0.21704938E+06</totfact>
</mgrwt>
</event>
<event>
 6    2  0.7993170E+000  0.8649067E+02  0.7546771E-02  0.1311580E+00
         21   -1    0    0  501  502  0.00000000000E+00  0.00000000000E+00  0.83719653553E+01  0.83719653553E+01  0.00000000000E+00 0.  1.
         -1   -1    0    0    0  501 -0.00000000000E+00 -0.00000000000E+00 -0.15394970267E+04  0.15394970267E+04  0.00000000000E+00 0.  1.
         24    2    1    2    0    0 -0.10323944172E+02 -0.26780138456E+02 -0.15093915054E+04  0.15118675047E+04  0.81589677927E+02 0.  0.
        -11    1    3    3    0    0  0.16396077906E+01 -0.85985806577E+01 -0.14139000728E+04  0.14139271692E+04  0.00000000000E+00 0.  1.
         12    1    3    3    0    0 -0.11963551962E+02 -0.18181557798E+02 -0.95491432586E+02  0.97940335495E+02  0.00000000000E+00 0. -1.
         -2    1    1    2    0  502  0.10323944172E+02  0.26780138456E+02 -0.21733555977E+02  0.36001487391E+02  0.00000000000E+00 0.  1.
<mgrwt>
<rscale>  1 0.86490665E+02</rscale>
<asrwt>0</asrwt>
<pdfrwt beam="1">  1       21 0.12879967E-02 0.86490665E+02</pdfrwt>
<pdfrwt beam="2">  1       -1 0.23684532E+00 0.86490665E+02</pdfrwt>
<totfact> 0.22873535E+04</totfact>
</mgrwt>
</event>
<event>
 6    2  0.7993170E+000  0.8697078E+02  0.7546771E-02  0.1310358E+00
          2   -1    0    0  502    0 -0.00000000000E+00  0.00000000000E+00  0.37899171196E+03  0.37899171196E+03  0.00000000000E+00 0. -1.
         21   -1    0    0  501  502  0.00000000000E+00 -0.00000000000E+00 -0.16532495695E+02  0.16532495695E+02  0.00000000000E+00 0. -1.
         24    2    1    2    0    0 -0.76467858696E+01  0.32200494717E+02  0.34920597169E+03  0.35987320927E+03  0.80427426239E+02 0.  0.
        -13    1    3    3    0    0 -0.43164013067E+02  0.97791792656E+01  0.15614754134E+03  0.16229854909E+03  0.00000000000E+00 0.  1.
         14    1    3    3    0    0  0.35517227198E+02  0.22421315451E+02  0.19305843035E+03  0.19757466018E+03  0.00000000000E+00 0. -1.
          1    1    1    2  501    0  0.76467858696E+01 -0.32200494717E+02  0.13253244574E+02  0.35650998385E+02  0.00000000000E+00 0. -1.
<mgrwt>
<rscale>  1 0.86970777E+02</rscale>
<asrwt>0</asrwt>
<pdfrwt beam="1">  1       21 0.25434612E-02 0.86970777E+02</pdfrwt>
<pdfrwt beam="2">  1        2 0.58306411E-01 0.86970777E+02</pdfrwt>
<totfact> 0.82228427E+05</totfact>
</mgrwt>
</event>
<event>
 6    2  0.7993170E+000  0.8802825E+02  0.7546771E-02  0.1307698E+00
         21   -1    0    0  501  502  0.00000000000E+00  0.00000000000E+00  0.16586501574E+03  0.16586501574E+03  0.00000000000E+00 0. -1.
          2   -1    0    0  502    0 -0.00000000000E+00 -0.00000000000E+00 -0.24644103182E+02  0.24644103182E+02  0.00000000000E+00 0. -1.
         24    2    1    2    0    0  0.69204307640E+01 -0.37165204977E+02  0.82332027896E+02  0.12053022525E+03  0.79497343088E+02 0.  0.
        -13    1    3    3    0    0  0.17513208081E+02  0.21582563548E+02  0.20133442941E+02  0.34320184021E+02  0.00000000000E+00 0.  1.
         14    1    3    3    0    0 -0.10592777317E+02 -0.58747768525E+02  0.62198584955E+02  0.86210041228E+02  0.00000000000E+00 0. -1.
          1    1    1    2  501    0 -0.69204307640E+01  0.37165204977E+02  0.58888884660E+02  0.69978893671E+02  0.00000000000E+00 0. -1.
<mgrwt>
<rscale>  1 0.88028248E+02</rscale>
<asrwt>0</asrwt>
<pdfrwt beam="1">  1       21 0.25517694E-01 0.88028248E+02</pdfrwt>
<pdfrwt beam="2">  1        2 0.37914006E-02 0.88028248E+02</pdfrwt>
<totfact> 0.37340173E+05</totfact>
</mgrwt>
</event>
<event>
 6    2  0.7993170E+000  0.9330335E+02  0.7546771E-02  0.1295044E+00
         21   -1    0    0  501  502  0.00000000000E+00  0.00000000000E+00  0.16774974373E+01  0.16774974373E+01  0.00000000000E+00 0.  1.
          2   -1    0    0  502    0 -0.00000000000E+00 -0.00000000000E+00 -0.31514333850E+04  0.31514333850E+04  0.00000000000E+00 0. -1.
         24    2    1    2    0    0  0.41718599502E+02 -0.17411658831E+02 -0.16179309496E+04  0.16206190397E+04  0.81620505061E+02 0.  0.
        -11    1    3    3    0    0  0.47339624901E+02  0.20181923341E+02 -0.69342661825E+03  0.69533360700E+03  0.00000000000E+00 0.  1.
         12    1    3    3    0    0 -0.56210253988E+01 -0.37593582172E+02 -0.92450433134E+03  0.92528543272E+03  0.00000000000E+00 0. -1.
          1    1    1    2  501    0 -0.41718599502E+02  0.17411658831E+02 -0.15318249380E+04  0.15324918428E+04  0.00000000000E+00 0. -1.
<mgrwt>
<rscale>  1 0.93303345E+02</rscale>
<asrwt>0</asrwt>
<pdfrwt beam="1">  1       21 0.25807873E-03 0.93303345E+02</pdfrwt>
<pdfrwt beam="2">  1        2 0.48483177E+00 0.93303345E+02</pdfrwt>
<totfact> 0.69281296E+05</totfact>
</mgrwt>
</event>
<event>
 6    2  0.7993170E+000  0.8622323E+02  0.7546771E-02  0.1312264E+00
          2   -1    0    0  502    0 -0.00000000000E+00  0.00000000000E+00  0.13331084033E+04  0.13331084033E+04  0.00000000000E+00 0. -1.
         21   -1    0    0  501  502  0.00000000000E+00 -0.00000000000E+00 -0.32974370821E+01  0.32974370821E+01  0.00000000000E+00 0.  1.
         24    2    1    2    0    0  0.11471998957E+02 -0.28488340130E+02  0.11965138045E+04  0.11996164928E+04  0.80568313956E+02 0.  0.
        -13    1    3    3    0    0  0.38280716854E+02  0.68746449503E+01  0.71685554318E+03  0.71790984380E+03  0.00000000000E+00 0.  1.
         14    1    3    3    0    0 -0.26808717897E+02 -0.35362985081E+02  0.47965826131E+03  0.48170664902E+03  0.00000000000E+00 0. -1.
          1    1    1    2  501    0 -0.11471998957E+02  0.28488340130E+02  0.13329716175E+03  0.13678934759E+03  0.00000000000E+00 0. -1.
<mgrwt>
<rscale>  1 0.86223231E+02</rscale>
<asrwt>0</asrwt>
<pdfrwt beam="1">  1       21 0.50729907E-03 0.86223231E+02</pdfrwt>
<pdfrwt beam="2">  1        2 0.20509317E+00 0.86223231E+02</pdfrwt>
<totfact> 0.22212259E+06</totfact>
</mgrwt>
</event>
<event>
 6    2  0.7993170E+000  0.9961454E+02  0.7546771E-02  0.1281109E+00
         -1   -1    0    0    0  501 -0.00000000000E+00  0.00000000000E+00  0.70266195485E+02  0.70266195485E+02  0.00000000000E+00 0.  1.
         21   -1    0    0  501  502  0.00000000000E+00 -0.00000000000E+00 -0.96364505905E+02  0.96364505905E+02  0.00000000000E+00 0.  1.
         24    2    1    2    0    0  0.31856447515E+02  0.48770162933E+02  0.65919048829E+01  0.99832406373E+02  0.80806522703E+02 0.  0.
        -11    1    3    3    0    0  0.28603966781E+02  0.29257321868E+02  0.42400136791E+02  0.58923250066E+02  0.00000000000E+00 0.  1.
         12    1    3    3    0    0  0.32524807340E+01  0.19512841065E+02 -0.35808231908E+02  0.40909156307E+02  0.00000000000E+00 0. -1.
         -2    1    1    2    0  502 -0.31856447515E+02 -0.48770162933E+02 -0.32690215303E+02  0.66798295018E+02  0.00000000000E+00 0.  1.
<mgrwt>
<rscale>  1 0.99614538E+02</rscale>
<asrwt>0</asrwt>
<pdfrwt beam="1">  1       21 0.14825309E-01 0.99614538E+02</pdfrwt>
<pdfrwt beam="2">  1       -1 0.10810184E-01 0.99614538E+02</pdfrwt>
<totfact> 0.18552427E+05</totfact>
</mgrwt>
</event>
<event>
 6    2  0.7993170E+000  0.9790621E+02  0.7546771E-02  0.1284762E+00
         -1   -1    0    0    0  501 -0.00000000000E+00  0.00000000000E+00  0.22637489672E+03  0.22637489672E+03  0.00000000000E+00 0.  1.
         21   -1    0    0  501  502  0.00000000000E+00 -0.00000000000E+00 -0.23547883138E+02  0.23547883138E+02  0.00000000000E+00 0. -1.
         24    2    1    2    0    0 -0.77085192281E+00  0.37011907111E+02  0.97056161408E+02  0.13786052640E+03  0.90637469025E+02 0.  0.
        -13    1    3    3    0    0  0.24312512480E+02  0.51894401315E+02  0.91808167374E+02  0.10822599848E+03  0.00000000000E+00 0.  1.
         14    1    3    3    0    0 -0.25083364403E+02 -0.14882494204E+02  0.52479940345E+01  0.29634527917E+02  0.00000000000E+00 0. -1.
         -2    1    1    2    0  502  0.77085192281E+00 -0.37011907111E+02  0.10577085217E+03  0.11206225345E+03  0.00000000000E+00 0.  1.
<mgrwt>
<rscale>  1 0.97906212E+02</rscale>
<asrwt>0</asrwt>
<pdfrwt beam="1">  1       21 0.36227514E-02 0.97906212E+02</pdfrwt>
<pdfrwt beam="2">  1       -1 0.34826906E-01 0.97906212E+02</pdfrwt>
<totfact> 0.31781537E+05</totfact>
</mgrwt>
</event>
<event>
 6    2  0.7993170E+000  0.1087962E+03  0.7546771E-02  0.1262815E+00
         21   -1    0    0  501  502  0.00000000000E+00  0.00000000000E+00  0.46925430641E+02  0.46925430641E+02  0.00000000000E+00 0. -1.
         -1   -1    0    0    0  501 -0.00000000000E+00 -0.00000000000E+00 -0.30606196835E+03  0.30606196835E+03  0.00000000000E+00 0.  1.
         24    2    1    2    0    0  0.48956538190E+02  0.48280310507E+02 -0.28709487660E+02  0.11252044407E+03  0.84314201878E+02 0.  0.
        -11    1    3    3    0    0  0.39740049315E+02  0.58145037385E+02 -0.50656489187E+02  0.86753655767E+02  0.00000000000E+00 0.  1.
         12    1    3    3    0    0  0.92164888741E+01 -0.98647268785E+01  0.21947001527E+02  0.25766788305E+02  0.00000000000E+00 0. -1.
         -2    1    1    2    0  502 -0.48956538190E+02 -0.48280310507E+02 -0.23042705005E+03  0.24046695492E+03  0.00000000000E+00 0.  1.
<mgrwt>
<rscale>  1 0.10879621E+03</rscale>
<asrwt>0</asrwt>
<pdfrwt beam="1">  1       21 0.72192971E-02 0.10879621E+03</pdfrwt>
<pdfrwt beam="2">  1       -1 0.47086456E-01 0.10879621E+03</pdfrwt>
<totfact> 0.59675947E+04</totfact>
</mgrwt>
</event>
<event>
 6    2  0.7993170E+000  0.9552601E+02  0.7546771E-02  0.1289996E+00
          2   -1    0    0  502    0 -0.00000000000E+00  0.00000000000E+00  0.19549024367E+04  0.19549024367E+04  0.00000000000E+00 0. -1.
         21   -1    0    0  501  502  0.00000000000E+00 -0.00000000000E+00 -0.40603646051E+01  0.40603646051E+01  0.00000000000E+00 0.  1.
         24    2    1    2    0    0  0.47690936801E+02 -0.21930454869E+02  0.17002830101E+04  0.17029643368E+04  0.79811324543E+02 0.  0.
        -11    1    3    3    0    0  0.11912698910E+02 -0.27930662948E+02  0.20455805761E+03  0.20679950014E+03  0.00000000000E+00 0.  1.
         12    1    3    3    0    0  0.35778237891E+02  0.60002080786E+01  0.14957249525E+04  0.14961648366E+04  0.00000000000E+00 0. -1.
          1    1    1    2  501    0 -0.47690936801E+02  0.21930454869E+02  0.25055906200E+03  0.25599846456E+03  0.00000000000E+00 0. -1.
<mgrwt>
<rscale>  1 0.95526006E+02</rscale>
<asrwt>0</asrwt>
<pdfrwt beam="1">  1       21 0.62467304E-03 0.95526006E+02</pdfrwt>
<pdfrwt beam="2">  1        2 0.30075347E+00 0.95526006E+02</pdfrwt>
<totfact> 0.78539942E+05</totfact>
</mgrwt>
</event>
<event>
 6    2  0.7993170E+000  0.1052361E+03  0.7546771E-02  0.1269655E+00
         21   -1    0    0  501  502  0.00000000000E+00  0.00000000000E+00  0.79224101090E+02  0.79224101090E+02  0.00000000000E+00 0. -1.
          4   -1    0    0  502    0 -0.00000000000E+00 -0.00000000000E+00 -0.13346284331E+03  0.13346284331E+03  0.00000000000E+00 0. -1.
         24    2    1    2    0    0  0.60204083978E+02 -0.32882395647E+02 -0.87116874692E+02  0.13661621898E+03  0.79805123649E+02 0.  0.
        -11    1    3    3    0    0 -0.19034149896E+02 -0.20348002074E+01 -0.90122196907E+01  0.21157962518E+02  0.00000000000E+00 0.  1.
         12    1    3    3    0    0  0.79238233874E+02 -0.30847595439E+02 -0.78104655002E+02  0.11545825646E+03  0.00000000000E+00 0. -1.
          3    1    1    2  501    0 -0.60204083978E+02  0.32882395647E+02  0.32878132474E+02  0.76070725421E+02  0.00000000000E+00 0. -1.
<mgrwt>
<rscale>  1 0.10523612E+03</rscale>
<asrwt>0</asrwt>
<pdfrwt beam="1">  1       21 0.12188323E-01 0.10523612E+03</pdfrwt>
<pdfrwt beam="2">  1        4 0.20532745E-01 0.10523612E+03</pdfrwt>
<totfact> 0.48108915E+04</totfact>
</mgrwt>
</event>
<event>
 6    2  0.7993170E+000  0.8721928E+02  0.7546771E-02  0.1309729E+00
         21   -1    0    0  501  502  0.00000000000E+00  0.00000000000E+00  0.12063469597E+02  0.12063469597E+02  0.00000000000E+00 0.  1.
          2   -1    0    0  502    0 -0.00000000000E+00 -0.00000000000E+00 -0.29541985168E+03  0.29541985168E+03  0.00000000000E+00 0. -1.
         24    2    1    2    0    0  0.17985069433E+02  0.22599839976E+02 -0.24027950831E+03  0.25561972573E+03  0.82298156582E+02 0.  0.
        -13    1    3    3    0    0  0.46489210910E+01  0.20105966164E+02 -0.67731164020E+01  0.21719517685E+02  0.00000000000E+00 0.  1.
         14    1    3    3    0    0  0.13336148342E+02  0.24938738126E+01 -0.23350639191E+03  0.23390020804E+03  0.00000000000E+00 0. -1.
          1    1    1    2  501    0 -0.17985069433E+02 -0.22599839976E+02 -0.43076873773E+02  0.51863595551E+02  0.00000000000E+00 0. -1.
<mgrwt>
<rscale>  1 0.87219276E+02</rscale>
<asrwt>0</asrwt>
<pdfrwt beam="1">  1       21 0.18559185E-02 0.87219276E+02</pdfrwt>
<pdfrwt beam="2">  1        2 0.45449205E-01 0.87219276E+02</pdfrwt>
<totfact> 0.17685959E+06</totfact>
</mgrwt>
</event>
<event>
 6    2  0.7993170E+000  0.1021744E+03  0.7546771E-02  0.1275789E+00
          2   -1    0    0  502    0 -0.00000000000E+00  0.00000000000E+00  0.12004927491E+04  0.12004927491E+04  0.00000000000E+00 0. -1.
         21   -1    0    0  501  502  0.00000000000E+00 -0.00000000000E+00 -0.60587271878E+01  0.60587271878E+01  0.00000000000E+00 0. -1.
         24    2    1    2    0    0  0.63110269903E+02  0.78085667019E+01  0.86697640316E+03  0.87297633939E+03  0.79973280583E+02 0.  0.
        -11    1    3    3    0    0  0.63676282833E+02  0.34509284702E+02  0.52715232549E+03  0.53210443899E+03  0.00000000000E+00 0.  1.
         12    1    3    3    0    0 -0.56601292946E+00 -0.26700718000E+02  0.33982407767E+03  0.34087190039E+03  0.00000000000E+00 0. -1.
          1    1    1    2  501    0 -0.63110269903E+02 -0.78085667019E+01  0.32745761874E+03  0.33357513689E+03  0.00000000000E+00 0. -1.
<mgrwt>
<rscale>  1 0.10217439E+03</rscale>
<asrwt>0</asrwt>
<pdfrwt beam="1">  1       21 0.93211283E-03 0.10217439E+03</pdfrwt>
<pdfrwt beam="2">  1        2 0.18469100E+00 0.10217439E+03</pdfrwt>
<totfact> 0.10336628E+06</totfact>
</mgrwt>
</event>
<event>
 6    2  0.7993170E+000  0.8505776E+02  0.7546771E-02  0.1315282E+00
         21   -1    0    0  501  502  0.00000000000E+00  0.00000000000E+00  0.53933997639E+01  0.53933997639E+01  0.00000000000E+00 0.  1.
          2   -1    0    0  502    0 -0.00000000000E+00 -0.00000000000E+00 -0.62613972949E+03  0.62613972949E+03  0.00000000000E+00 0. -1.
         24    2    1    2    0    0  0.27350840146E+02  0.98323462677E+01 -0.50958537541E+03  0.51663534314E+03  0.79937972566E+02 0.  0.
        -11    1    3    3    0    0  0.19955245018E+02  0.80635697145E+01 -0.29641810830E+02  0.36631542550E+02  0.00000000000E+00 0.  1.
         12    1    3    3    0    0  0.73955951272E+01  0.17687765533E+01 -0.47994356458E+03  0.48000380059E+03  0.00000000000E+00 0. -1.
          1    1    1    2  501    0 -0.27350840146E+02 -0.98323462677E+01 -0.11116095432E+03  0.11489778612E+03  0.00000000000E+00 0. -1.
<mgrwt>
<rscale>  1 0.85057762E+02</rscale>
<asrwt>0</asrwt>
<pdfrwt beam="1">  1       21 0.82975390E-03 0.85057762E+02</pdfrwt>
<pdfrwt beam="2">  1        2 0.96329178E-01 0.85057762E+02</pdfrwt>
<totfact> 0.28044640E+06</totfact>
</mgrwt>
</event>
<event>
 6    2  0.7993170E+000  0.8621038E+02  0.7546771E-02  0.1312297E+00
         -1   -1    0    0    0  501 -0.00000000000E+00  0.00000000000E+00  0.42478175278E+03  0.42478175278E+03  0.00000000000E+00 0.  1.
         21   -1    0    0  501  502  0.00000000000E+00 -0.00000000000E+00 -0.10210101414E+02  0.10210101414E+02  0.00000000000E+00 0. -1.
         24    2    1    2    0    0  0.53321363695E+01 -0.30444682339E+02  0.19436149311E+03  0.21262318698E+03  0.80479309607E+02 0.  0.
        -13    1    3    3    0    0  0.25307011816E+02  0.17260167099E+02  0.10497548768E+03  0.10935360638E+03  0.00000000000E+00 0.  1.
         14    1    3    3    0    0 -0.19974875447E+02 -0.47704849438E+02  0.89386005429E+02  0.10326958059E+03  0.00000000000E+00 0. -1.
         -2    1    1    2    0  502 -0.53321363695E+01  0.30444682339E+02  0.22021015826E+03  0.22236866722E+03  0.00000000000E+00 0.  1.
<mgrwt>
<rscale>  1 0.86210380E+02</rscale>
<asrwt>0</asrwt>
<pdfrwt beam="1">  1       21 0.15707852E-02 0.86210380E+02</pdfrwt>
<pdfrwt beam="2">  1       -1 0.65351025E-01 0.86210380E+02</pdfrwt>
<totfact> 0.38985777E+05</totfact>
</mgrwt>
</event>
<event>
 6    2  0.7993170E+000  0.9085845E+02  0.7546771E-02  0.1300786E+00
         21   -1    0    0  501  502  0.00000000000E+00  0.00000000000E+00  0.26505149086E+01  0.26505149086E+01  0.00000000000E+00 0.  1.
          2   -1    0    0  502    0 -0.00000000000E+00 -0.00000000000E+00 -0.13614482711E+04  0.13614482711E+04  0.00000000000E+00 0. -1.
         24    2    1    2    0    0 -0.28993329191E+02  0.31027780262E+01 -0.10012656363E+04  0.10053795962E+04  0.86052412459E+02 0.  0.
        -13    1    3    3    0    0  0.27831321321E+02  0.60170683890E+00 -0.17928656572E+03  0.18143488404E+03  0.00000000000E+00 0.  1.
         14    1    3    3    0    0 -0.56824650512E+02  0.25010711873E+01 -0.82197907060E+03  0.82394471221E+03  0.00000000000E+00 0. -1.
          1    1    1    2  501    0  0.28993329191E+02 -0.31027780262E+01 -0.35753211991E+03  0.35871918981E+03  0.00000000000E+00 0. -1.
<mgrwt>
<rscale>  1 0.90858451E+02</rscale>
<asrwt>0</asrwt>
<pdfrwt beam="1">  1       21 0.40777126E-03 0.90858451E+02</pdfrwt>
<pdfrwt beam="2">  1        2 0.20945372E+00 0.90858451E+02</pdfrwt>
<totfact> 0.30113145E+06</totfact>
</mgrwt>
</event>
<event>
 6    2  0.7993170E+000  0.9239210E+02  0.7546771E-02  0.1297160E+00
         21   -1    0    0  501  502  0.00000000000E+00  0.00000000000E+00  0.64326316868E+02  0.64326316868E+02  0.00000000000E+00 0. -1.
          2   -1    0    0  502    0 -0.00000000000E+00 -0.00000000000E+00 -0.46429443926E+03  0.46429443926E+03  0.00000000000E+00 0. -1.
         24    2    1    2    0    0 -0.41871313784E+02  0.71734158765E+00 -0.45227482211E+03  0.46161544043E+03  0.82356412255E+02 0.  0.
        -13    1    3    3    0    0 -0.29215369286E+02  0.26431734797E+02 -0.90457101784E+02  0.98664389068E+02  0.00000000000E+00 0.  1.
         14    1    3    3    0    0 -0.12655944497E+02 -0.25714393210E+02 -0.36181772032E+03  0.36295105137E+03  0.00000000000E+00 0. -1.
          1    1    1    2  501    0  0.41871313784E+02 -0.71734158765E+00  0.52306699711E+02  0.67005315696E+02  0.00000000000E+00 0. -1.
<mgrwt>
<rscale>  1 0.92392100E+02</rscale>
<asrwt>0</asrwt>
<pdfrwt beam="1">  1       21 0.98963565E-02 0.92392100E+02</pdfrwt>
<pdfrwt beam="2">  1        2 0.71429913E-01 0.92392100E+02</pdfrwt>
<totfact> 0.69152187E+04</totfact>
</mgrwt>
</event>
<event>
 6    2  0.7993170E+000  0.8456516E+02  0.7546771E-02  0.1316574E+00
          2   -1    0    0  502    0 -0.00000000000E+00  0.00000000000E+00  0.13104274662E+02  0.13104274662E+02  0.00000000000E+00 0. -1.
         21   -1    0    0  501  502  0.00000000000E+00 -0.00000000000E+00 -0.10465801238E+04  0.10465801238E+04  0.00000000000E+00 0. -1.
         24    2    1    2    0    0  0.47395227599E+01  0.24125650955E+02 -0.12524645701E+03  0.15112227134E+03  0.80912025016E+02 0.  0.
        -13    1    3    3    0    0  0.10833661197E+02  0.41925138235E+01 -0.12935646586E+03  0.12987702124E+03  0.00000000000E+00 0.  1.
         14    1    3    3    0    0 -0.60941384372E+01  0.19933137131E+02  0.41100088477E+01  0.21245250102E+02  0.00000000000E+00 0. -1.
          1    1    1    2  501    0 -0.47395227599E+01 -0.24125650955E+02 -0.90822939213E+03  0.90856212712E+03  0.00000000000E+00 0. -1.
<mgrwt>
<rscale>  1 0.84565158E+02</rscale>
<asrwt>0</asrwt>
<pdfrwt beam="1">  1       21 0.16101235E+00 0.84565158E+02</pdfrwt>
<pdfrwt beam="2">  1        2 0.20160420E-02 0.84565158E+02</pdfrwt>
<totfact> 0.16233627E+04</totfact>
</mgrwt>
</event>
<event>
 6    2  0.7993170E+000  0.1121907E+03  0.7546771E-02  0.1256566E+00
         21   -1    0    0  501  502  0.00000000000E+00  0.00000000000E+00  0.56574981091E+01  0.56574981091E+01  0.00000000000E+00 0. -1.
          2   -1    0    0  502    0 -0.00000000000E+00 -0.00000000000E+00 -0.16878207812E+04  0.16878207812E+04  0.00000000000E+00 0. -1.
         24    2    1    2    0    0  0.40262359637E+02 -0.65136334312E+02 -0.12047797522E+04  0.12099921521E+04  0.81993640892E+02 0.  0.
        -13    1    3    3    0    0 -0.24068064761E+02 -0.29242080908E+02 -0.34964639662E+03  0.35169158891E+03  0.00000000000E+00 0.  1.
         14    1    3    3    0    0  0.64330424398E+02 -0.35894253404E+02 -0.85513335559E+03  0.85830056319E+03  0.00000000000E+00 0. -1.
          1    1    1    2  501    0 -0.40262359637E+02  0.65136334312E+02 -0.47738353084E+03  0.48348612717E+03  0.00000000000E+00 0. -1.
<mgrwt>
<rscale>  1 0.11219072E+03</rscale>
<asrwt>0</asrwt>
<pdfrwt beam="1">  1       21 0.87038340E-03 0.11219072E+03</pdfrwt>
<pdfrwt beam="2">  1        2 0.25966501E+00 0.11219072E+03</pdfrwt>
<totfact> 0.64397534E+05</totfact>
</mgrwt>
</event>
<event>
 6    2  0.7993170E+000  0.9960132E+02  0.7546771E-02  0.1281137E+00
         21   -1    0    0  501  502  0.00000000000E+00  0.00000000000E+00  0.11192593249E+02  0.11192593249E+02  0.00000000000E+00 0.  1.
         -1   -1    0    0    0  501 -0.00000000000E+00 -0.00000000000E+00 -0.63396887247E+03  0.63396887247E+03  0.00000000000E+00 0.  1.
         24    2    1    2    0    0 -0.33073669109E+02 -0.48578318925E+02 -0.48908093092E+03  0.49911980449E+03  0.80415804312E+02 0.  0.
        -13    1    3    3    0    0 -0.58460071455E+02 -0.42856321280E+02 -0.38996112757E+03  0.39664080128E+03  0.00000000000E+00 0.  1.
         14    1    3    3    0    0  0.25386402346E+02 -0.57219976458E+01 -0.99119803357E+02  0.10247900321E+03  0.00000000000E+00 0. -1.
         -2    1    1    2    0  502  0.33073669109E+02  0.48578318925E+02 -0.13369534830E+03  0.14604166123E+03  0.00000000000E+00 0.  1.
<mgrwt>
<rscale>  1 0.99601316E+02</rscale>
<asrwt>0</asrwt>
<pdfrwt beam="1">  1       21 0.17219369E-02 0.99601316E+02</pdfrwt>
<pdfrwt beam="2">  1       -1 0.97533700E-01 0.99601316E+02</pdfrwt>
<totfact> 0.15124796E+05</totfact>
</mgrwt>
</event>
<event>
 6    2  0.7993170E+000  0.8518986E+02  0.7546771E-02  0.1314937E+00
         21   -1    0    0  501  502  0.00000000000E+00  0.00000000000E+00  0.21806365266E+03  0.21806365266E+03  0.00000000000E+00 0. -1.
         -1   -1    0    0    0  501 -0.00000000000E+00 -0.00000000000E+00 -0.16691085336E+02  0.16691085336E+02  0.00000000000E+00 0.  1.
         24    2    1    2    0    0  0.21740102638E+02  0.19445712778E+02  0.17815158730E+03  0.19747227937E+03  0.80040897377E+02 0.  0.
        -13    1    3    3    0    0 -0.29637634873E+02  0.13022098356E+02  0.54057324553E+02  0.63009196030E+02  0.00000000000E+00 0.  1.
         14    1    3    3    0    0  0.51377737511E+02  0.64236144217E+01  0.12409426275E+03  0.13446308334E+03  0.00000000000E+00 0. -1.
         -2    1    1    2    0  502 -0.21740102638E+02 -0.19445712778E+02  0.23220980023E+02  0.37282458628E+02  0.00000000000E+00 0.  1.
<mgrwt>
<rscale>  1 0.85189865E+02</rscale>
<asrwt>0</asrwt>
<pdfrwt beam="1">  1       21 0.33548252E-01 0.85189865E+02</pdfrwt>
<pdfrwt beam="2">  1       -1 0.25678594E-02 0.85189865E+02</pdfrwt>
<totfact> 0.33300439E+05</totfact>
</mgrwt>
</event>
<event>
 6    2  0.7993170E+000  0.8371343E+02  0.7546771E-02  0.1318832E+00
         21   -1    0    0  501  502  0.00000000000E+00  0.00000000000E+00  0.26784349795E+02  0.26784349795E+02  0.00000000000E+00 0.  1.
          2   -1    0    0  502    0 -0.00000000000E+00 -0.00000000000E+00 -0.15770082462E+03  0.15770082462E+03  0.00000000000E+00 0. -1.
         24    2    1    2    0    0 -0.19374951138E+02  0.75548518608E+01 -0.13892740739E+03  0.16219976307E+03  0.81089297056E+02 0.  0.
        -13    1    3    3    0    0 -0.44701829389E+02  0.10701419353E+01 -0.40398831670E+02  0.60261632527E+02  0.00000000000E+00 0.  1.
         14    1    3    3    0    0  0.25326878251E+02  0.64847099256E+01 -0.98528575724E+02  0.10193813054E+03  0.00000000000E+00 0. -1.
          1    1    1    2  501    0  0.19374951138E+02 -0.75548518608E+01  0.80109325677E+01  0.22285411345E+02  0.00000000000E+00 0. -1.
<mgrwt>
<rscale>  1 0.83713432E+02</rscale>
<asrwt>0</asrwt>
<pdfrwt beam="1">  1       21 0.41206693E-02 0.83713432E+02</pdfrwt>
<pdfrwt beam="2">  1        2 0.24261665E-01 0.83713432E+02</pdfrwt>
<totfact> 0.94232745E+05</totfact>
</mgrwt>
</event>
<event>
 6    2  0.7993170E+000  0.9060438E+02  0.7546771E-02  0.1301395E+00
         21   -1    0    0  501  502  0.00000000000E+00  0.00000000000E+00  0.58929519288E+03  0.58929519288E+03  0.00000000000E+00 0. -1.
         -3   -1    0    0    0  501 -0.00000000000E+00 -0.00000000000E+00 -0.66462847122E+01  0.66462847122E+01  0.00000000000E+00 0.  1.
         24    2    1    2    0    0  0.30448480625E+02 -0.10299400134E+02  0.37322366080E+03  0.38406386704E+03  0.84711069963E+02 0.  0.
        -13    1    3    3    0    0  0.37428677505E+02 -0.35492964890E+02  0.13684005697E+03  0.14623904283E+03  0.00000000000E+00 0.  1.
         14    1    3    3    0    0 -0.69801968795E+01  0.25193564756E+02  0.23638360383E+03  0.23782482421E+03  0.00000000000E+00 0. -1.
         -4    1    1    2    0  502 -0.30448480625E+02  0.10299400134E+02  0.20942524737E+03  0.21187761055E+03  0.00000000000E+00 0.  1.
<mgrwt>
<rscale>  1 0.90604376E+02</rscale>
<asrwt>0</asrwt>
<pdfrwt beam="1">  1       21 0.90660758E-01 0.90604376E+02</pdfrwt>
<pdfrwt beam="2">  1       -3 0.10225058E-02 0.90604376E+02</pdfrwt>
<totfact> 0.12494417E+05</totfact>
</mgrwt>
</event>
<event>
 6    2  0.7993170E+000  0.2527770E+03  0.7546771E-02  0.1111562E+00
         21   -1    0    0  501  502  0.00000000000E+00  0.00000000000E+00  0.55444030909E+02  0.55444030909E+02  0.00000000000E+00 0. -1.
          2   -1    0    0  502    0 -0.00000000000E+00 -0.00000000000E+00 -0.11033352491E+04  0.11033352491E+04  0.00000000000E+00 0. -1.
         24    2    1    2    0    0  0.23411144897E+03  0.53489514549E+02 -0.48869132363E+03  0.55019582577E+03  0.78910951022E+02 0.  0.
        -11    1    3    3    0    0  0.76450322182E+02  0.56525784232E+01 -0.86583212883E+02  0.11564279553E+03  0.00000000000E+00 0.  1.
         12    1    3    3    0    0  0.15766112679E+03  0.47836936126E+02 -0.40210811075E+03  0.43455303024E+03  0.00000000000E+00 0. -1.
          1    1    1    2  501    0 -0.23411144897E+03 -0.53489514549E+02 -0.55919989459E+03  0.60858345427E+03  0.00000000000E+00 0. -1.
<mgrwt>
<rscale>  1 0.25277705E+03</rscale>
<asrwt>0</asrwt>
<pdfrwt beam="1">  1       21 0.85298516E-02 0.25277705E+03</pdfrwt>
<pdfrwt beam="2">  1        2 0.16974387E+00 0.25277705E+03</pdfrwt>
<totfact> 0.30782056E+04</totfact>
</mgrwt>
</event>
<event>
 6    2  0.7993170E+000  0.8385364E+02  0.7546771E-02  0.1318458E+00
         21   -1    0    0  501  502  0.00000000000E+00  0.00000000000E+00  0.14877797595E+01  0.14877797595E+01  0.00000000000E+00 0.  1.
          2   -1    0    0  502    0 -0.00000000000E+00 -0.00000000000E+00 -0.20488913708E+04  0.20488913708E+04  0.00000000000E+00 0. -1.
         24    2    1    2    0    0 -0.14164213532E+02 -0.20420265668E+02 -0.17144246031E+04  0.17164740464E+04  0.80086328091E+02 0.  0.
        -13    1    3    3    0    0  0.19337579180E+01 -0.11566716837E+02 -0.34307313408E+02  0.36256311331E+02  0.00000000000E+00 0.  1.
         14    1    3    3    0    0 -0.16097971450E+02 -0.88535488313E+01 -0.16801172897E+04  0.16802177351E+04  0.00000000000E+00 0. -1.
          1    1    1    2  501    0  0.14164213532E+02  0.20420265668E+02 -0.33297898793E+03  0.33390510418E+03  0.00000000000E+00 0. -1.
<mgrwt>
<rscale>  1 0.83853635E+02</rscale>
<asrwt>0</asrwt>
<pdfrwt beam="1">  1       21 0.22888984E-03 0.83853635E+02</pdfrwt>
<pdfrwt beam="2">  1        2 0.31521317E+00 0.83853635E+02</pdfrwt>
<totfact> 0.32203409E+06</totfact>
</mgrwt>
</event>
<event>
 6    2  0.7993170E+000  0.8380692E+02  0.7546771E-02  0.1318582E+00
         21   -1    0    0  501  502  0.00000000000E+00  0.00000000000E+00  0.15152554241E+02  0.15152554241E+02  0.00000000000E+00 0. -1.
          2   -1    0    0  502    0 -0.00000000000E+00 -0.00000000000E+00 -0.20795701179E+03  0.20795701179E+03  0.00000000000E+00 0. -1.
         24    2    1    2    0    0 -0.19328371476E+02  0.10610706263E+02 -0.17743724707E+03  0.19623347649E+03  0.80854360517E+02 0.  0.
        -11    1    3    3    0    0  0.23414942431E+02 -0.17879031310E+02 -0.91375847994E+02  0.96007629313E+02  0.00000000000E+00 0.  1.
         12    1    3    3    0    0 -0.42743313907E+02  0.28489737573E+02 -0.86061399079E+02  0.10022584718E+03  0.00000000000E+00 0. -1.
          1    1    1    2  501    0  0.19328371476E+02 -0.10610706263E+02 -0.15367210478E+02  0.26876089544E+02  0.00000000000E+00 0. -1.
<mgrwt>
<rscale>  1 0.83806925E+02</rscale>
<asrwt>0</asrwt>
<pdfrwt beam="1">  1       21 0.23311624E-02 0.83806925E+02</pdfrwt>
<pdfrwt beam="2">  1        2 0.31993384E-01 0.83806925E+02</pdfrwt>
<totfact> 0.17667944E+06</totfact>
</mgrwt>
</event>
<event>
 6    2  0.7993170E+000  0.8474000E+02  0.7546771E-02  0.1316114E+00
         21   -1    0    0  501  502  0.00000000000E+00  0.00000000000E+00  0.73372775503E+02  0.73372775503E+02  0.00000000000E+00 0. -1.
          2   -1    0    0  502    0 -0.00000000000E+00 -0.00000000000E+00 -0.89628108927E+02  0.89628108927E+02  0.00000000000E+00 0. -1.
         24    2    1    2    0    0 -0.17760584149E+02 -0.15265025832E+02 -0.66400606949E+02  0.10765643737E+03  0.81439600576E+02 0.  0.
        -13    1    3    3    0    0 -0.14176708173E+02 -0.43733838192E+02 -0.14247762992E+02  0.48131345378E+02  0.00000000000E+00 0.  1.
         14    1    3    3    0    0 -0.35838759759E+01  0.28468812361E+02 -0.52152843958E+02  0.59525091996E+02  0.00000000000E+00 0. -1.
          1    1    1    2  501    0  0.17760584149E+02  0.15265025832E+02  0.50145273525E+02  0.55344447055E+02  0.00000000000E+00 0. -1.
<mgrwt>
<rscale>  1 0.84740002E+02</rscale>
<asrwt>0</asrwt>
<pdfrwt beam="1">  1       21 0.11288119E-01 0.84740002E+02</pdfrwt>
<pdfrwt beam="2">  1        2 0.13788940E-01 0.84740002E+02</pdfrwt>
<totfact> 0.32446059E+05</totfact>
</mgrwt>
</event>
<event>
 6    2  0.7993170E+000  0.8312928E+02  0.7546771E-02  0.1320398E+00
          2   -1    0    0  502    0 -0.00000000000E+00  0.00000000000E+00  0.16054607146E+04  0.16054607146E+04  0.00000000000E+00 0. -1.
         21   -1    0    0  501  502  0.00000000000E+00 -0.00000000000E+00 -0.18865904799E+01  0.18865904799E+01  0.00000000000E+00 0.  1.
         24    2    1    2    0    0 -0.16699195212E+02  0.14254141710E+02  0.14260090352E+04  0.14284299933E+04  0.80177511858E+02 0.  0.
        -13    1    3    3    0    0  0.13991281355E+02 -0.19775426439E+02  0.18552510986E+03  0.18709994610E+03  0.00000000000E+00 0.  1.
         14    1    3    3    0    0 -0.30690476566E+02  0.34029568149E+02  0.12404839254E+04  0.12413300472E+04  0.00000000000E+00 0. -1.
          1    1    1    2  501    0  0.16699195212E+02 -0.14254141710E+02  0.17756508887E+03  0.17891731180E+03  0.00000000000E+00 0. -1.
<mgrwt>
<rscale>  1 0.83129279E+02</rscale>
<asrwt>0</asrwt>
<pdfrwt beam="1">  1       21 0.29024597E-03 0.83129279E+02</pdfrwt>
<pdfrwt beam="2">  1        2 0.24699286E+00 0.83129279E+02</pdfrwt>
<totfact> 0.37518556E+06</totfact>
</mgrwt>
</event>
<event>
 6    2  0.7993170E+000  0.8614177E+02  0.7546771E-02  0.1312473E+00
         21   -1    0    0  501  502  0.00000000000E+00  0.00000000000E+00  0.13383934102E+04  0.13383934102E+04  0.00000000000E+00 0.  1.
          2   -1    0    0  502    0 -0.00000000000E+00 -0.00000000000E+00 -0.39798973823E+01  0.39798973823E+01  0.00000000000E+00 0. -1.
         24    2    1    2    0    0 -0.21011219753E+02  0.23763496919E+02  0.50065724478E+03  0.50801385889E+03  0.80088881410E+02 0.  0.
        -13    1    3    3    0    0 -0.47442264872E+01  0.22684196355E+02  0.48452369115E+03  0.48507761001E+03  0.00000000000E+00 0.  1.
         14    1    3    3    0    0 -0.16266993266E+02  0.10793005636E+01  0.16133553635E+02  0.22936248877E+02  0.00000000000E+00 0. -1.
          1    1    1    2  501    0  0.21011219753E+02 -0.23763496919E+02  0.83375626807E+03  0.83435944873E+03  0.00000000000E+00 0. -1.
<mgrwt>
<rscale>  1 0.86141767E+02</rscale>
<asrwt>0</asrwt>
<pdfrwt beam="1">  1       21 0.20590632E+00 0.86141767E+02</pdfrwt>
<pdfrwt beam="2">  1        2 0.61229297E-03 0.86141767E+02</pdfrwt>
<totfact> 0.42131094E+04</totfact>
</mgrwt>
</event>
<event>
 6    2  0.7993170E+000  0.9832607E+02  0.7546771E-02  0.1283856E+00
         21   -1    0    0  501  502  0.00000000000E+00  0.00000000000E+00  0.22017800430E+02  0.22017800430E+02  0.00000000000E+00 0.  1.
          2   -1    0    0  502    0 -0.00000000000E+00 -0.00000000000E+00 -0.27653802253E+03  0.27653802253E+03  0.00000000000E+00 0. -1.
         24    2    1    2    0    0  0.22253293976E+02  0.53245468535E+02 -0.15773135378E+03  0.18586876051E+03  0.79609843345E+02 0.  0.
        -13    1    3    3    0    0 -0.14704377448E+02  0.90830835822E+01  0.69853567908E+00  0.17297660986E+02  0.00000000000E+00 0.  1.
         14    1    3    3    0    0  0.36957671425E+02  0.44162384952E+02 -0.15842988946E+03  0.16857109953E+03  0.00000000000E+00 0. -1.
          1    1    1    2  501    0 -0.22253293976E+02 -0.53245468535E+02 -0.96788868323E+02  0.11268706245E+03  0.00000000000E+00 0. -1.
<mgrwt>
<rscale>  1 0.98326071E+02</rscale>
<asrwt>0</asrwt>
<pdfrwt beam="1">  1       21 0.33873538E-02 0.98326071E+02</pdfrwt>
<pdfrwt beam="2">  1        2 0.42544313E-01 0.98326071E+02</pdfrwt>
<totfact> 0.72622051E+05</totfact>
</mgrwt>
</event>
<event>
 6    2  0.7993170E+000  0.8472751E+02  0.7546771E-02  0.1316147E+00
          2   -1    0    0  502    0 -0.00000000000E+00  0.00000000000E+00  0.71782365857E+02  0.71782365857E+02  0.00000000000E+00 0. -1.
         21   -1    0    0  501  502  0.00000000000E+00 -0.00000000000E+00 -0.42970374235E+02  0.42970374235E+02  0.00000000000E+00 0.  1.
         24    2    1    2    0    0 -0.13975953020E+02 -0.16940508348E+02  0.35398415512E+02  0.91824829905E+02  0.81831799934E+02 0.  0.
        -13    1    3    3    0    0 -0.36153705843E+02 -0.38451876252E+02  0.15246104067E+02  0.54937063288E+02  0.00000000000E+00 0.  1.
         14    1    3    3    0    0  0.22177752823E+02  0.21511367904E+02  0.20152311445E+02  0.36887766617E+02  0.00000000000E+00 0. -1.
          1    1    1    2  501    0  0.13975953020E+02  0.16940508348E+02 -0.65864238888E+01  0.22927910187E+02  0.00000000000E+00 0. -1.
<mgrwt>
<rscale>  1 0.84727514E+02</rscale>
<asrwt>0</asrwt>
<pdfrwt beam="1">  1       21 0.66108268E-02 0.84727514E+02</pdfrwt>
<pdfrwt beam="2">  1        2 0.11043441E-01 0.84727514E+02</pdfrwt>
<totfact> 0.10550456E+06</totfact>
</mgrwt>
</event>
<event>
 6    2  0.7993170E+000  0.8476793E+02  0.7546771E-02  0.1316041E+00
         21   -1    0    0  501  502  0.00000000000E+00  0.00000000000E+00  0.40868103421E+02  0.40868103421E+02  0.00000000000E+00 0.  1.
         -1   -1    0    0    0  501 -0.00000000000E+00 -0.00000000000E+00 -0.12523176095E+03  0.12523176095E+03  0.00000000000E+00 0.  1.
         24    2    1    2    0    0  0.23225677988E+02  0.30341070186E+00 -0.10505724066E+03  0.13499120707E+03  0.81523481247E+02 0.  0.
        -13    1    3    3    0    0  0.48195777974E+02  0.61238896041E+01 -0.96363579634E+02  0.10791790638E+03  0.00000000000E+00 0.  1.
         14    1    3    3    0    0 -0.24970099987E+02 -0.58204789022E+01 -0.86936610294E+01  0.27073300687E+02  0.00000000000E+00 0. -1.
         -2    1    1    2    0  502 -0.23225677988E+02 -0.30341070186E+00  0.20693583134E+02  0.31108657300E+02  0.00000000000E+00 0.  1.
<mgrwt>
<rscale>  1 0.84767931E+02</rscale>
<asrwt>0</asrwt>
<pdfrwt beam="1">  1       21 0.62874007E-02 0.84767931E+02</pdfrwt>
<pdfrwt beam="2">  1       -1 0.19266424E-01 0.84767931E+02</pdfrwt>
<totfact> 0.33022732E+05</totfact>
</mgrwt>
</event>
<event>
 6    2  0.7993170E+000  0.8383314E+02  0.7546771E-02  0.1318513E+00
         21   -1    0    0  501  502  0.00000000000E+00  0.00000000000E+00  0.45932104046E+01  0.45932104046E+01  0.00000000000E+00 0. -1.
         -3   -1    0    0    0  501 -0.00000000000E+00 -0.00000000000E+00 -0.86670936167E+03  0.86670936167E+03  0.00000000000E+00 0.  1.
         24    2    1    2    0    0  0.19812512597E+02  0.13236255164E+02 -0.40601755731E+03  0.41458202128E+03  0.80375751455E+02 0.  0.
        -13    1    3    3    0    0  0.31276516603E+01  0.29425757452E+02 -0.37316027029E+03  0.37433173086E+03  0.00000000000E+00 0.  1.
         14    1    3    3    0    0  0.16684860936E+02 -0.16189502288E+02 -0.32857287016E+02  0.40250290420E+02  0.00000000000E+00 0. -1.
         -4    1    1    2    0  502 -0.19812512597E+02 -0.13236255164E+02 -0.45609859396E+03  0.45672055079E+03  0.00000000000E+00 0.  1.
<mgrwt>
<rscale>  1 0.83833141E+02</rscale>
<asrwt>0</asrwt>
<pdfrwt beam="1">  1       21 0.70664802E-03 0.83833141E+02</pdfrwt>
<pdfrwt beam="2">  1       -3 0.13333985E+00 0.83833141E+02</pdfrwt>
<totfact> 0.13268048E+05</totfact>
</mgrwt>
</event>
<event>
 6    2  0.7993170E+000  0.1078835E+03  0.7546771E-02  0.1264540E+00
         -3   -1    0    0    0  501 -0.00000000000E+00  0.00000000000E+00  0.10748308976E+03  0.10748308976E+03  0.00000000000E+00 0.  1.
         21   -1    0    0  501  502  0.00000000000E+00 -0.00000000000E+00 -0.92022592231E+02  0.92022592231E+02  0.00000000000E+00 0.  1.
         24    2    1    2    0    0  0.29868248929E+02 -0.58784015380E+02  0.56557742798E+02  0.12180975978E+03  0.85388327945E+02 0.  0.
        -13    1    3    3    0    0  0.17864163192E+02  0.78725249615E+01  0.50105601765E+02  0.53774308959E+02  0.00000000000E+00 0.  1.
         14    1    3    3    0    0  0.12004085737E+02 -0.66656540341E+02  0.64521410333E+01  0.68035450822E+02  0.00000000000E+00 0. -1.
         -4    1    1    2    0  502 -0.29868248929E+02  0.58784015380E+02 -0.41097245274E+02  0.77695922205E+02  0.00000000000E+00 0.  1.
<mgrwt>
<rscale>  1 0.10788345E+03</rscale>
<asrwt>0</asrwt>
<pdfrwt beam="1">  1       21 0.14157322E-01 0.10788345E+03</pdfrwt>
<pdfrwt beam="2">  1       -3 0.16535860E-01 0.10788345E+03</pdfrwt>
<totfact> 0.63682405E+04</totfact>
</mgrwt>
</event>
<event>
 6    2  0.7993170E+000  0.8558744E+02  0.7546771E-02  0.1313903E+00
          2   -1    0    0  502    0 -0.00000000000E+00  0.00000000000E+00  0.45394030525E+01  0.45394030525E+01  0.00000000000E+00 0. -1.
         21   -1    0    0  501  502  0.00000000000E+00 -0.00000000000E+00 -0.83096000005E+03  0.83096000005E+03  0.00000000000E+00 0.  1.
         24    2    1    2    0    0  0.20820430167E+02 -0.14273861077E+02 -0.43948860817E+03  0.44774484491E+03  0.81780046517E+02 0.  0.
        -11    1    3    3    0    0  0.31455108895E+02 -0.19778555771E+02 -0.43205606349E+03  0.43365084705E+03  0.00000000000E+00 0.  1.
         12    1    3    3    0    0 -0.10634678727E+02  0.55046946950E+01 -0.74325446766E+01  0.14093997860E+02  0.00000000000E+00 0. -1.
          1    1    1    2  501    0 -0.20820430167E+02  0.14273861077E+02 -0.38693198883E+03  0.38775455820E+03  0.00000000000E+00 0. -1.
<mgrwt>
<rscale>  1 0.85587437E+02</rscale>
<asrwt>0</asrwt>
<pdfrwt beam="1">  1       21 0.12783983E+00 0.85587437E+02</pdfrwt>
<pdfrwt beam="2">  1        2 0.69837065E-03 0.85587437E+02</pdfrwt>
<totfact> 0.12278169E+05</totfact>
</mgrwt>
</event>
<event>
 6    2  0.7993170E+000  0.9288969E+02  0.7546771E-02  0.1296001E+00
         21   -1    0    0  501  502  0.00000000000E+00  0.00000000000E+00  0.95300126257E+01  0.95300126257E+01  0.00000000000E+00 0. -1.
          2   -1    0    0  502    0 -0.00000000000E+00 -0.00000000000E+00 -0.12324673306E+04  0.12324673306E+04  0.00000000000E+00 0. -1.
         24    2    1    2    0    0 -0.18271246100E+02  0.44488054261E+02 -0.11551682674E+04  0.11588969845E+04  0.79469926595E+02 0.  0.
        -11    1    3    3    0    0  0.28531151723E+01  0.11511741061E+01 -0.37681747987E+00  0.30995902023E+01  0.00000000000E+00 0.  1.
         12    1    3    3    0    0 -0.21124361273E+02  0.43336880155E+02 -0.11547914499E+04  0.11557973943E+04  0.00000000000E+00 0. -1.
          1    1    1    2  501    0  0.18271246100E+02 -0.44488054261E+02 -0.67769050536E+02  0.83100358703E+02  0.00000000000E+00 0. -1.
<mgrwt>
<rscale>  1 0.92889691E+02</rscale>
<asrwt>0</asrwt>
<pdfrwt beam="1">  1       21 0.14661565E-02 0.92889691E+02</pdfrwt>
<pdfrwt beam="2">  1        2 0.18961027E+00 0.92889691E+02</pdfrwt>
<totfact> 0.48422711E+05</totfact>
</mgrwt>
</event>
<event>
 6    2  0.7993170E+000  0.8547933E+02  0.7546771E-02  0.1314184E+00
          2   -1    0    0  502    0 -0.00000000000E+00  0.00000000000E+00  0.44518042413E+03  0.44518042413E+03  0.00000000000E+00 0. -1.
         21   -1    0    0  501  502  0.00000000000E+00 -0.00000000000E+00 -0.90651651221E+01  0.90651651221E+01  0.00000000000E+00 0.  1.
         24    2    1    2    0    0 -0.19207366461E+02 -0.31887094311E+02  0.24354024605E+03  0.25810572761E+03  0.76948069944E+02 0.  0.
        -11    1    3    3    0    0  0.23754849846E+02 -0.22810186107E+01  0.30268183923E+02  0.38544245941E+02  0.00000000000E+00 0.  1.
         12    1    3    3    0    0 -0.42962216307E+02 -0.29606075700E+02  0.21327206213E+03  0.21956148167E+03  0.00000000000E+00 0. -1.
          1    1    1    2  501    0  0.19207366461E+02  0.31887094311E+02  0.19257501296E+03  0.19613986165E+03  0.00000000000E+00 0. -1.
<mgrwt>
<rscale>  1 0.85479326E+02</rscale>
<asrwt>0</asrwt>
<pdfrwt beam="1">  1       21 0.13946411E-02 0.85479326E+02</pdfrwt>
<pdfrwt beam="2">  1        2 0.68489279E-01 0.85479326E+02</pdfrwt>
<totfact> 0.18060727E+06</totfact>
</mgrwt>
</event>
<event>
 6    2  0.7993170E+000  0.8740041E+02  0.7546771E-02  0.1309272E+00
         21   -1    0    0  501  502  0.00000000000E+00  0.00000000000E+00  0.36935244100E+01  0.36935244100E+01  0.00000000000E+00 0. -1.
          2   -1    0    0  502    0 -0.00000000000E+00 -0.00000000000E+00 -0.22492549526E+04  0.22492549526E+04  0.00000000000E+00 0. -1.
         24    2    1    2    0    0 -0.16294001041E+02  0.34565935478E+02 -0.21175999513E+04  0.21194028371E+04  0.78603650666E+02 0.  0.
        -11    1    3    3    0    0  0.29547152560E+02 -0.58520705509E+00 -0.67426509780E+03  0.67491243788E+03  0.00000000000E+00 0.  1.
         12    1    3    3    0    0 -0.45841153601E+02  0.35151142533E+02 -0.14433348535E+04  0.14444903992E+04  0.00000000000E+00 0. -1.
          1    1    1    2  501    0  0.16294001041E+02 -0.34565935478E+02 -0.12796147695E+03  0.13354563995E+03  0.00000000000E+00 0. -1.
<mgrwt>
<rscale>  1 0.87400413E+02</rscale>
<asrwt>0</asrwt>
<pdfrwt beam="1">  1       21 0.56823536E-03 0.87400413E+02</pdfrwt>
<pdfrwt beam="2">  1        2 0.34603871E+00 0.87400413E+02</pdfrwt>
<totfact> 0.64289408E+05</totfact>
</mgrwt>
</event>
<event>
 6    2  0.7993170E+000  0.8808425E+02  0.7546771E-02  0.1307558E+00
         21   -1    0    0  501  502  0.00000000000E+00  0.00000000000E+00  0.34210028611E+01  0.34210028611E+01  0.00000000000E+00 0. -1.
          2   -1    0    0  502    0 -0.00000000000E+00 -0.00000000000E+00 -0.12769801612E+04  0.12769801612E+04  0.00000000000E+00 0. -1.
         24    2    1    2    0    0  0.63883105413E+01 -0.35083651220E+02 -0.10798749386E+04  0.10834614523E+04  0.80542923343E+02 0.  0.
        -13    1    3    3    0    0 -0.18847238452E+02  0.19584760593E+02 -0.40187265581E+03  0.40279078035E+03  0.00000000000E+00 0.  1.
         14    1    3    3    0    0  0.25235548993E+02 -0.54668411813E+02 -0.67800228277E+03  0.68067067193E+03  0.00000000000E+00 0. -1.
          1    1    1    2  501    0 -0.63883105413E+01  0.35083651220E+02 -0.19368421978E+03  0.19693971181E+03  0.00000000000E+00 0. -1.
<mgrwt>
<rscale>  1 0.88084253E+02</rscale>
<asrwt>0</asrwt>
<pdfrwt beam="1">  1       21 0.52630790E-03 0.88084253E+02</pdfrwt>
<pdfrwt beam="2">  1        2 0.19645857E+00 0.88084253E+02</pdfrwt>
<totfact> 0.22518227E+06</totfact>
</mgrwt>
</event>
<event>
 6    2  0.7993170E+000  0.9131602E+02  0.7546771E-02  0.1299696E+00
          2   -1    0    0  502    0 -0.00000000000E+00  0.00000000000E+00  0.32241911480E+03  0.32241911480E+03  0.00000000000E+00 0. -1.
         21   -1    0    0  501  502  0.00000000000E+00 -0.00000000000E+00 -0.30500938303E+02  0.30500938303E+02  0.00000000000E+00 0. -1.
         24    2    1    2    0    0  0.55360126069E+00 -0.31724407321E+02  0.30516647664E+03  0.31853601682E+03  0.85626345567E+02 0.  0.
        -13    1    3    3    0    0  0.36786393463E+02 -0.10291464650E+02  0.71076607723E+02  0.80690997974E+02  0.00000000000E+00 0.  1.
         14    1    3    3    0    0 -0.36232792202E+02 -0.21432942671E+02  0.23408986892E+03  0.23784501885E+03  0.00000000000E+00 0. -1.
          1    1    1    2  501    0 -0.55360126069E+00  0.31724407321E+02 -0.13248300141E+02  0.34384036279E+02  0.00000000000E+00 0. -1.
<mgrwt>
<rscale>  1 0.91316020E+02</rscale>
<asrwt>0</asrwt>
<pdfrwt beam="1">  1       21 0.46924523E-02 0.91316020E+02</pdfrwt>
<pdfrwt beam="2">  1        2 0.49602938E-01 0.91316020E+02</pdfrwt>
<totfact> 0.35923975E+05</totfact>
</mgrwt>
</event>
<event>
 6    2  0.7993170E+000  0.1104468E+03  0.7546771E-02  0.1259745E+00
          2   -1    0    0  502    0 -0.00000000000E+00  0.00000000000E+00  0.18310314414E+03  0.18310314414E+03  0.00000000000E+00 0. -1.
         21   -1    0    0  501  502  0.00000000000E+00 -0.00000000000E+00 -0.65607896334E+02  0.65607896334E+02  0.00000000000E+00 0. -1.
         24    2    1    2    0    0 -0.45671875850E+02  0.61163453539E+02  0.13083513532E+03  0.17122013203E+03  0.79822382103E+02 0.  0.
        -11    1    3    3    0    0  0.92580468562E+01 -0.61641793393E+01 -0.31191733356E+01  0.11551527207E+02  0.00000000000E+00 0.  1.
         12    1    3    3    0    0 -0.54929922707E+02  0.67327632878E+02  0.13395430866E+03  0.15966860482E+03  0.00000000000E+00 0. -1.
          1    1    1    2  501    0  0.45671875850E+02 -0.61163453539E+02 -0.13339887517E+02  0.77490908444E+02  0.00000000000E+00 0. -1.
<mgrwt>
<rscale>  1 0.11044682E+03</rscale>
<asrwt>0</asrwt>
<pdfrwt beam="1">  1       21 0.10093523E-01 0.11044682E+03</pdfrwt>
<pdfrwt beam="2">  1        2 0.28169714E-01 0.11044682E+03</pdfrwt>
<totfact> 0.18015783E+05</totfact>
</mgrwt>
</event>
<event>
 6    2  0.7993170E+000  0.9013432E+02  0.7546771E-02  0.1302527E+00
          2   -1    0    0  502    0 -0.00000000000E+00  0.00000000000E+00  0.95062047909E+03  0.95062047909E+03  0.00000000000E+00 0. -1.
         21   -1    0    0  501  502  0.00000000000E+00 -0.00000000000E+00 -0.33547281465E+01  0.33547281465E+01  0.00000000000E+00 0.  1.
         24    2    1    2    0    0 -0.10452385444E+02 -0.20255612368E+02  0.74954857483E+03  0.75494851575E+03  0.87204662772E+02 0.  0.
        -13    1    3    3    0    0 -0.61393925428E+01 -0.95208781317E+01  0.94309787333E+01  0.14740509525E+02  0.00000000000E+00 0.  1.
         14    1    3    3    0    0 -0.43129929015E+01 -0.10734734236E+02  0.74011759610E+03  0.74020800623E+03  0.00000000000E+00 0. -1.
          1    1    1    2  501    0  0.10452385444E+02  0.20255612368E+02  0.19771717611E+03  0.19902669148E+03  0.00000000000E+00 0. -1.
<mgrwt>
<rscale>  1 0.90134319E+02</rscale>
<asrwt>0</asrwt>
<pdfrwt beam="1">  1       21 0.51611278E-03 0.90134319E+02</pdfrwt>
<pdfrwt beam="2">  1        2 0.14624909E+00 0.90134319E+02</pdfrwt>
<totfact> 0.35447645E+06</totfact>
</mgrwt>
</event>
<event>
 6    2  0.7993170E+000  0.1139465E+03  0.7546771E-02  0.1253431E+00
          2   -1    0    0  502    0 -0.00000000000E+00  0.00000000000E+00  0.16373767667E+04  0.16373767667E+04  0.00000000000E+00 0. -1.
         21   -1    0    0  501  502  0.00000000000E+00 -0.00000000000E+00 -0.70729069753E+01  0.70729069753E+01  0.00000000000E+00 0.  1.
         24    2    1    2    0    0  0.58738830632E+02 -0.55343393223E+02  0.58236312989E+03  0.59340594735E+03  0.80440424536E+02 0.  0.
        -13    1    3    3    0    0  0.39049033122E+02 -0.72463595061E+02  0.50735663983E+03  0.51399081663E+03  0.00000000000E+00 0.  1.
         14    1    3    3    0    0  0.19689797511E+02  0.17120201837E+02  0.75006490059E+02  0.79415130724E+02  0.00000000000E+00 0. -1.
          1    1    1    2  501    0 -0.58738830632E+02  0.55343393223E+02  0.10479407298E+04  0.10510437263E+04  0.00000000000E+00 0. -1.
<mgrwt>
<rscale>  1 0.11394649E+03</rscale>
<asrwt>0</asrwt>
<pdfrwt beam="1">  1       21 0.10881408E-02 0.11394649E+03</pdfrwt>
<pdfrwt beam="2">  1        2 0.25190382E+00 0.11394649E+03</pdfrwt>
<totfact> 0.48145375E+05</totfact>
</mgrwt>
</event>
<event>
 6    2  0.7993170E+000  0.8749987E+02  0.7546771E-02  0.1309022E+00
          2   -1    0    0  502    0 -0.00000000000E+00  0.00000000000E+00  0.27635795141E+04  0.27635795141E+04  0.00000000000E+00 0. -1.
         21   -1    0    0  501  502  0.00000000000E+00 -0.00000000000E+00 -0.27735213930E+01  0.27735213930E+01  0.00000000000E+00 0.  1.
         24    2    1    2    0    0  0.31408089452E+02 -0.15292714858E+02  0.26133934133E+04  0.26148578086E+04  0.80224006301E+02 0.  0.
        -13    1    3    3    0    0  0.58443882731E+02 -0.53330825152E+01  0.17593005457E+04  0.17602791083E+04  0.00000000000E+00 0.  1.
         14    1    3    3    0    0 -0.27035793280E+02 -0.99596323429E+01  0.85409286764E+03  0.85457870027E+03  0.00000000000E+00 0. -1.
          1    1    1    2  501    0 -0.31408089452E+02  0.15292714858E+02  0.14741257940E+03  0.15149522691E+03  0.00000000000E+00 0. -1.
<mgrwt>
<rscale>  1 0.87499865E+02</rscale>
<asrwt>0</asrwt>
<pdfrwt beam="1">  1       21 0.42669781E-03 0.87499865E+02</pdfrwt>
<pdfrwt beam="2">  1        2 0.42516388E+00 0.87499865E+02</pdfrwt>
<totfact> 0.53498319E+05</totfact>
</mgrwt>
</event>
<event>
 6    2  0.7993170E+000  0.9218370E+02  0.7546771E-02  0.1297648E+00
          2   -1    0    0  502    0 -0.00000000000E+00  0.00000000000E+00  0.47535331933E+03  0.47535331933E+03  0.00000000000E+00 0. -1.
         21   -1    0    0  501  502  0.00000000000E+00 -0.00000000000E+00 -0.12830335492E+02  0.12830335492E+02  0.00000000000E+00 0.  1.
         24    2    1    2    0    0 -0.41302092152E+02  0.12597369738E+02  0.17851174235E+03  0.20090862662E+03  0.81444935696E+02 0.  0.
        -13    1    3    3    0    0  0.13210844819E+02 -0.14472058958E+02  0.10539901633E+02  0.22249863769E+02  0.00000000000E+00 0.  1.
         14    1    3    3    0    0 -0.54512936971E+02  0.27069428696E+02  0.16797184072E+03  0.17865876285E+03  0.00000000000E+00 0. -1.
          1    1    1    2  501    0  0.41302092152E+02 -0.12597369738E+02  0.28401124149E+03  0.28727502821E+03  0.00000000000E+00 0. -1.
<mgrwt>
<rscale>  1 0.92183698E+02</rscale>
<asrwt>0</asrwt>
<pdfrwt beam="1">  1       21 0.19738981E-02 0.92183698E+02</pdfrwt>
<pdfrwt beam="2">  1        2 0.73131266E-01 0.92183698E+02</pdfrwt>
<totfact> 0.97764139E+05</totfact>
</mgrwt>
</event>
<event>
 6    2  0.7993170E+000  0.1025233E+03  0.7546771E-02  0.1275077E+00
         21   -1    0    0  501  502  0.00000000000E+00  0.00000000000E+00  0.21621546000E+01  0.21621546000E+01  0.00000000000E+00 0. -1.
          2   -1    0    0  502    0 -0.00000000000E+00 -0.00000000000E+00 -0.24242845289E+04  0.24242845289E+04  0.00000000000E+00 0. -1.
         24    2    1    2    0    0 -0.38255039410E+02 -0.17098854308E+02 -0.17958084665E+04  0.17987326324E+04  0.93569309112E+02 0.  0.
        -13    1    3    3    0    0  0.23927647893E+02  0.13787113773E+02 -0.28644346239E+03  0.28777156563E+03  0.00000000000E+00 0.  1.
         14    1    3    3    0    0 -0.62182687303E+02 -0.30885968081E+02 -0.15093650041E+04  0.15109610667E+04  0.00000000000E+00 0. -1.
          1    1    1    2  501    0  0.38255039410E+02  0.17098854308E+02 -0.62631390784E+03  0.62771405115E+03  0.00000000000E+00 0. -1.
<mgrwt>
<rscale>  1 0.10252334E+03</rscale>
<asrwt>0</asrwt>
<pdfrwt beam="1">  1       21 0.33263925E-03 0.10252334E+03</pdfrwt>
<pdfrwt beam="2">  1        2 0.37296677E+00 0.10252334E+03</pdfrwt>
<totfact> 0.11902087E+06</totfact>
</mgrwt>
</event>
<event>
 6    2  0.7993170E+000  0.8470675E+02  0.7546771E-02  0.1316201E+00
         21   -1    0    0  501  502  0.00000000000E+00  0.00000000000E+00  0.93064246855E+01  0.93064246855E+01  0.00000000000E+00 0. -1.
          2   -1    0    0  502    0 -0.00000000000E+00 -0.00000000000E+00 -0.51950276012E+03  0.51950276012E+03  0.00000000000E+00 0. -1.
         24    2    1    2    0    0 -0.25211546389E+02 -0.16528426865E+02 -0.47488099118E+03  0.48237660459E+03  0.79160734602E+02 0.  0.
        -11    1    3    3    0    0  0.79681223141E+01 -0.23008022429E+02 -0.44971556120E+02  0.51140012996E+02  0.00000000000E+00 0.  1.
         12    1    3    3    0    0 -0.33179668703E+02  0.64795955644E+01 -0.42990943506E+03  0.43123659159E+03  0.00000000000E+00 0. -1.
          1    1    1    2  501    0  0.25211546389E+02  0.16528426865E+02 -0.35315344253E+02  0.46432580217E+02  0.00000000000E+00 0. -1.
<mgrwt>
<rscale>  1 0.84706746E+02</rscale>
<asrwt>0</asrwt>
<pdfrwt beam="1">  1       21 0.14317573E-02 0.84706746E+02</pdfrwt>
<pdfrwt beam="2">  1        2 0.79923524E-01 0.84706746E+02</pdfrwt>
<totfact> 0.14669514E+06</totfact>
</mgrwt>
</event>
<event>
 6    2  0.7993170E+000  0.8436541E+02  0.7546771E-02  0.1317100E+00
          2   -1    0    0  502    0 -0.00000000000E+00  0.00000000000E+00  0.62754886915E+03  0.62754886915E+03  0.00000000000E+00 0. -1.
         21   -1    0    0  501  502  0.00000000000E+00 -0.00000000000E+00 -0.46703049366E+01  0.46703049366E+01  0.00000000000E+00 0.  1.
         24    2    1    2    0    0  0.14468490954E+02  0.18958553377E+02  0.47665933209E+03  0.48406780615E+03  0.80924397512E+02 0.  0.
        -13    1    3    3    0    0  0.23786872613E+02  0.29555110657E+02  0.97131582966E+02  0.10427782259E+03  0.00000000000E+00 0.  1.
         14    1    3    3    0    0 -0.93183816586E+01 -0.10596557280E+02  0.37952774912E+03  0.37978998356E+03  0.00000000000E+00 0. -1.
          1    1    1    2  501    0 -0.14468490954E+02 -0.18958553377E+02  0.14621923213E+03  0.14815136793E+03  0.00000000000E+00 0. -1.
<mgrwt>
<rscale>  1 0.84365408E+02</rscale>
<asrwt>0</asrwt>
<pdfrwt beam="1">  1       21 0.71850895E-03 0.84365408E+02</pdfrwt>
<pdfrwt beam="2">  1        2 0.96545913E-01 0.84365408E+02</pdfrwt>
<totfact> 0.34924190E+06</totfact>
</mgrwt>
</event>
<event>
 6    2  0.7993170E+000  0.8236366E+02  0.7546771E-02  0.1322474E+00
          2   -1    0    0  502    0 -0.00000000000E+00  0.00000000000E+00  0.57779489795E+03  0.57779489795E+03  0.00000000000E+00 0. -1.
         21   -1    0    0  501  502  0.00000000000E+00 -0.00000000000E+00 -0.50531358879E+01  0.50531358879E+01  0.00000000000E+00 0.  1.
         24    2    1    2    0    0  0.15821089249E+02 -0.13407683223E+02  0.37043042276E+03  0.37947657359E+03  0.79710093217E+02 0.  0.
        -13    1    3    3    0    0  0.48199364982E+02 -0.13141819317E+02  0.22012768799E+03  0.22572568578E+03  0.00000000000E+00 0.  1.
         14    1    3    3    0    0 -0.32378275733E+02 -0.26586390639E+00  0.15030273477E+03  0.15375088781E+03  0.00000000000E+00 0. -1.
          1    1    1    2  501    0 -0.15821089249E+02  0.13407683223E+02  0.20231133929E+03  0.20337146024E+03  0.00000000000E+00 0. -1.
<mgrwt>
<rscale>  1 0.82363656E+02</rscale>
<asrwt>0</asrwt>
<pdfrwt beam="1">  1       21 0.77740598E-03 0.82363656E+02</pdfrwt>
<pdfrwt beam="2">  1        2 0.88891471E-01 0.82363656E+02</pdfrwt>
<totfact> 0.33800587E+06</totfact>
</mgrwt>
</event>
<event>
 6    2  0.7993170E+000  0.8305808E+02  0.7546771E-02  0.1320590E+00
          2   -1    0    0  502    0 -0.00000000000E+00  0.00000000000E+00  0.22125256057E+04  0.22125256057E+04  0.00000000000E+00 0. -1.
         21   -1    0    0  501  502  0.00000000000E+00 -0.00000000000E+00 -0.28000414518E+01  0.28000414518E+01  0.00000000000E+00 0. -1.
         24    2    1    2    0    0  0.21722298980E+02 -0.18377355900E+01  0.21522911883E+04  0.21538932201E+04  0.80146173378E+02 0.  0.
        -11    1    3    3    0    0 -0.14936150217E+02  0.30789409646E+00  0.86841956861E+02  0.88117585382E+02  0.00000000000E+00 0.  1.
         12    1    3    3    0    0  0.36658449198E+02 -0.21456296865E+01  0.20654492314E+04  0.20657756348E+04  0.00000000000E+00 0. -1.
          1    1    1    2  501    0 -0.21722298980E+02  0.18377355900E+01  0.57434376015E+02  0.61432427050E+02  0.00000000000E+00 0. -1.
<mgrwt>
<rscale>  1 0.83058080E+02</rscale>
<asrwt>0</asrwt>
<pdfrwt beam="1">  1       21 0.43077738E-03 0.83058080E+02</pdfrwt>
<pdfrwt beam="2">  1        2 0.34038716E+00 0.83058080E+02</pdfrwt>
<totfact> 0.10232294E+06</totfact>
</mgrwt>
</event>
<event>
 6    2  0.7993170E+000  0.8414524E+02  0.7546771E-02  0.1317683E+00
         21   -1    0    0  501  502  0.00000000000E+00  0.00000000000E+00  0.36362634076E+01  0.36362634076E+01  0.00000000000E+00 0. -1.
          2   -1    0    0  502    0 -0.00000000000E+00 -0.00000000000E+00 -0.14354287772E+04  0.14354287772E+04  0.00000000000E+00 0. -1.
         24    2    1    2    0    0  0.17899431655E+02 -0.19977812076E+02 -0.13570289221E+04  0.13596352145E+04  0.79755366837E+02 0.  0.
        -13    1    3    3    0    0 -0.18429272088E+02 -0.11711252711E+02 -0.11541318336E+03  0.11746060788E+03  0.00000000000E+00 0.  1.
         14    1    3    3    0    0  0.36328703743E+02 -0.82665593655E+01 -0.12416157387E+04  0.12421746066E+04  0.00000000000E+00 0. -1.
          1    1    1    2  501    0 -0.17899431655E+02  0.19977812076E+02 -0.74763591759E+02  0.79429826146E+02  0.00000000000E+00 0. -1.
<mgrwt>
<rscale>  1 0.84145239E+02</rscale>
<asrwt>0</asrwt>
<pdfrwt beam="1">  1       21 0.55942427E-03 0.84145239E+02</pdfrwt>
<pdfrwt beam="2">  1        2 0.22083554E+00 0.84145239E+02</pdfrwt>
<totfact> 0.16886602E+06</totfact>
</mgrwt>
</event>
<event>
 6    2  0.7993170E+000  0.9078132E+02  0.7546771E-02  0.1300971E+00
          2   -1    0    0  502    0 -0.00000000000E+00  0.00000000000E+00  0.14170601385E+03  0.14170601385E+03  0.00000000000E+00 0. -1.
         21   -1    0    0  501  502  0.00000000000E+00 -0.00000000000E+00 -0.26236399654E+03  0.26236399654E+03  0.00000000000E+00 0. -1.
         24    2    1    2    0    0  0.36527953745E+01  0.32293169907E+02  0.12599054172E+03  0.15528961260E+03  0.84764706344E+02 0.  0.
        -13    1    3    3    0    0  0.26079498519E+01 -0.16585966626E+02 -0.32583589653E+01  0.17102999576E+02  0.00000000000E+00 0.  1.
         14    1    3    3    0    0  0.10448455227E+01  0.48879136533E+02  0.12924890068E+03  0.13818661302E+03  0.00000000000E+00 0. -1.
          1    1    1    2  501    0 -0.36527953745E+01 -0.32293169907E+02 -0.24664852441E+03  0.24878039780E+03  0.00000000000E+00 0. -1.
<mgrwt>
<rscale>  1 0.90781315E+02</rscale>
<asrwt>0</asrwt>
<pdfrwt beam="1">  1       21 0.40363692E-01 0.90781315E+02</pdfrwt>
<pdfrwt beam="2">  1        2 0.21800925E-01 0.90781315E+02</pdfrwt>
<totfact> 0.18370123E+04</totfact>
</mgrwt>
</event>
<event>
 6    2  0.7993170E+000  0.8400760E+02  0.7546771E-02  0.1318048E+00
         21   -1    0    0  501  502  0.00000000000E+00  0.00000000000E+00  0.75512379699E+01  0.75512379699E+01  0.00000000000E+00 0.  1.
         -1   -1    0    0    0  501 -0.00000000000E+00 -0.00000000000E+00 -0.77073939532E+03  0.77073939532E+03  0.00000000000E+00 0.  1.
         24    2    1    2    0    0 -0.21781925384E+02 -0.15030774003E+02 -0.73438954348E+03  0.73917878596E+03  0.79730167466E+02 0.  0.
        -11    1    3    3    0    0 -0.51904027017E+02 -0.57375569057E+01 -0.42898388570E+03  0.43215057766E+03  0.00000000000E+00 0.  1.
         12    1    3    3    0    0  0.30122101634E+02 -0.92932170970E+01 -0.30540565777E+03  0.30702820830E+03  0.00000000000E+00 0. -1.
         -2    1    1    2    0  502  0.21781925384E+02  0.15030774003E+02 -0.28798613872E+02  0.39111847329E+02  0.00000000000E+00 0.  1.
<mgrwt>
<rscale>  1 0.84007595E+02</rscale>
<asrwt>0</asrwt>
<pdfrwt beam="1">  1       21 0.11617290E-02 0.84007595E+02</pdfrwt>
<pdfrwt beam="2">  1       -1 0.11857528E+00 0.84007595E+02</pdfrwt>
<totfact> 0.17983317E+05</totfact>
</mgrwt>
</event>
<event>
 6    2  0.7993170E+000  0.7251661E+02  0.7546771E-02  0.1351738E+00
         21   -1    0    0  501  502  0.00000000000E+00  0.00000000000E+00  0.14605984201E+02  0.14605984201E+02  0.00000000000E+00 0.  1.
          2   -1    0    0  502    0 -0.00000000000E+00 -0.00000000000E+00 -0.27032491118E+03  0.27032491118E+03  0.00000000000E+00 0. -1.
         24    2    1    2    0    0  0.18368717684E+02 -0.95454042594E+01 -0.25401124467E+03  0.26415974446E+03  0.69499162874E+02 0.  0.
        -13    1    3    3    0    0  0.14872328408E+02 -0.74086830381E+01 -0.85906024671E+01  0.18704897417E+02  0.00000000000E+00 0.  1.
         14    1    3    3    0    0  0.34963892767E+01 -0.21367212213E+01 -0.24542064220E+03  0.24545484704E+03  0.00000000000E+00 0. -1.
          1    1    1    2  501    0 -0.18368717684E+02  0.95454042594E+01 -0.17076823080E+01  0.20771150924E+02  0.00000000000E+00 0. -1.
<mgrwt>
<rscale>  1 0.72516606E+02</rscale>
<asrwt>0</asrwt>
<pdfrwt beam="1">  1       21 0.22470746E-02 0.72516606E+02</pdfrwt>
<pdfrwt beam="2">  1        2 0.41588445E-01 0.72516606E+02</pdfrwt>
<totfact> 0.13979581E+06</totfact>
</mgrwt>
</event>
<event>
 6    2  0.7993170E+000  0.9017248E+02  0.7546771E-02  0.1302435E+00
         -3   -1    0    0    0  501 -0.00000000000E+00  0.00000000000E+00  0.93633301345E+03  0.93633301345E+03  0.00000000000E+00 0.  1.
         21   -1    0    0  501  502  0.00000000000E+00 -0.00000000000E+00 -0.51055322770E+01  0.51055322770E+01  0.00000000000E+00 0. -1.
         24    2    1    2    0    0  0.57098242770E+01 -0.37274640182E+02  0.79468555767E+03  0.79978510324E+03  0.81908942762E+02 0.  0.
        -11    1    3    3    0    0  0.35469163848E+02 -0.34084869111E+02  0.65920829017E+03  0.66104115584E+03  0.00000000000E+00 0.  1.
         12    1    3    3    0    0 -0.29759339571E+02 -0.31897710714E+01  0.13547726750E+03  0.13874394740E+03  0.00000000000E+00 0. -1.
         -4    1    1    2    0  502 -0.57098242770E+01  0.37274640182E+02  0.13654192351E+03  0.14165344249E+03  0.00000000000E+00 0.  1.
<mgrwt>
<rscale>  1 0.90172478E+02</rscale>
<asrwt>0</asrwt>
<pdfrwt beam="1">  1       21 0.78546725E-03 0.90172478E+02</pdfrwt>
<pdfrwt beam="2">  1       -3 0.14405110E+00 0.90172478E+02</pdfrwt>
<totfact> 0.94514554E+04</totfact>
</mgrwt>
</event>
<event>
 6    2  0.7993170E+000  0.8420202E+02  0.7546771E-02  0.1317533E+00
          2   -1    0    0  502    0 -0.00000000000E+00  0.00000000000E+00  0.36402484016E+03  0.36402484016E+03  0.00000000000E+00 0. -1.
         21   -1    0    0  501  502  0.00000000000E+00 -0.00000000000E+00 -0.82284103022E+01  0.82284103022E+01  0.00000000000E+00 0. -1.
         24    2    1    2    0    0  0.22057394816E+02  0.91111814706E+01  0.29940422855E+03  0.31101908792E+03  0.80749233331E+02 0.  0.
        -11    1    3    3    0    0 -0.17390490854E+02  0.27633935103E+02  0.19759714744E+03  0.20027654934E+03  0.00000000000E+00 0.  1.
         12    1    3    3    0    0  0.39447885669E+02 -0.18522753633E+02  0.10180708111E+03  0.11074253858E+03  0.00000000000E+00 0. -1.
          1    1    1    2  501    0 -0.22057394816E+02 -0.91111814706E+01  0.56392201309E+02  0.61234162543E+02  0.00000000000E+00 0. -1.
<mgrwt>
<rscale>  1 0.84202025E+02</rscale>
<asrwt>0</asrwt>
<pdfrwt beam="1">  1       21 0.12659096E-02 0.84202025E+02</pdfrwt>
<pdfrwt beam="2">  1        2 0.56003809E-01 0.84202025E+02</pdfrwt>
<totfact> 0.25945256E+06</totfact>
</mgrwt>
</event>
<event>
 6    2  0.7993170E+000  0.9261636E+02  0.7546771E-02  0.1296637E+00
         21   -1    0    0  501  502  0.00000000000E+00  0.00000000000E+00  0.97838915711E+01  0.97838915711E+01  0.00000000000E+00 0. -1.
          2   -1    0    0  502    0 -0.00000000000E+00 -0.00000000000E+00 -0.56135112656E+03  0.56135112656E+03  0.00000000000E+00 0. -1.
         24    2    1    2    0    0 -0.13907361712E+02 -0.43981973246E+02 -0.45214184504E+03  0.46153010562E+03  0.80311653425E+02 0.  0.
        -11    1    3    3    0    0  0.23603507935E+02  0.86601066957E+01 -0.18385864851E+03  0.18556973262E+03  0.00000000000E+00 0.  1.
         12    1    3    3    0    0 -0.37510869646E+02 -0.52642079942E+02 -0.26828319653E+03  0.27596037299E+03  0.00000000000E+00 0. -1.
          1    1    1    2  501    0  0.13907361712E+02  0.43981973246E+02 -0.99425389952E+02  0.10960491252E+03  0.00000000000E+00 0. -1.
<mgrwt>
<rscale>  1 0.92616361E+02</rscale>
<asrwt>0</asrwt>
<pdfrwt beam="1">  1       21 0.15052139E-02 0.92616361E+02</pdfrwt>
<pdfrwt beam="2">  1        2 0.86361724E-01 0.92616361E+02</pdfrwt>
<totfact> 0.12567735E+06</totfact>
</mgrwt>
</event>
<event>
 6    2  0.7993170E+000  0.8578692E+02  0.7546771E-02  0.1313387E+00
         21   -1    0    0  501  502  0.00000000000E+00  0.00000000000E+00  0.29014452216E+03  0.29014452216E+03  0.00000000000E+00 0.  1.
         -1   -1    0    0    0  501 -0.00000000000E+00 -0.00000000000E+00 -0.16749595377E+03  0.16749595377E+03  0.00000000000E+00 0.  1.
         24    2    1    2    0    0  0.20538679033E+02 -0.21474243453E+02 -0.15566850649E+03  0.17774161091E+03  0.80476181996E+02 0.  0.
        -11    1    3    3    0    0  0.20763372056E+02  0.23468773051E+02 -0.10700683492E+03  0.11150050962E+03  0.00000000000E+00 0.  1.
         12    1    3    3    0    0 -0.22469302248E+00 -0.44943016504E+02 -0.48661671570E+02  0.66241101285E+02  0.00000000000E+00 0. -1.
         -2    1    1    2    0  502 -0.20538679033E+02  0.21474243453E+02  0.27831707488E+03  0.27989886502E+03  0.00000000000E+00 0.  1.
<mgrwt>
<rscale>  1 0.85786924E+02</rscale>
<asrwt>0</asrwt>
<pdfrwt beam="1">  1       21 0.44637619E-01 0.85786924E+02</pdfrwt>
<pdfrwt beam="2">  1       -1 0.25768608E-01 0.85786924E+02</pdfrwt>
<totfact> 0.59281278E+03</totfact>
</mgrwt>
</event>
<event>
 6    2  0.7993170E+000  0.1517103E+03  0.7546771E-02  0.1198387E+00
          2   -1    0    0  502    0 -0.00000000000E+00  0.00000000000E+00  0.76412631553E+03  0.76412631553E+03  0.00000000000E+00 0. -1.
         21   -1    0    0  501  502  0.00000000000E+00 -0.00000000000E+00 -0.24923130699E+02  0.24923130699E+02  0.00000000000E+00 0. -1.
         24    2    1    2    0    0 -0.10178188929E+03 -0.69872972520E+02  0.43782647988E+03  0.46336600551E+03  0.88171669470E+02 0.  0.
        -11    1    3    3    0    0 -0.31694821459E+01  0.82495080243E+01  0.11306755458E+01  0.89094571612E+01  0.00000000000E+00 0.  1.
         12    1    3    3    0    0 -0.98612407140E+02 -0.78122480544E+02  0.43669580434E+03  0.45445654834E+03  0.00000000000E+00 0. -1.
          1    1    1    2  501    0  0.10178188929E+03  0.69872972520E+02  0.30137670495E+03  0.32568344073E+03  0.00000000000E+00 0. -1.
<mgrwt>
<rscale>  1 0.15171034E+03</rscale>
<asrwt>0</asrwt>
<pdfrwt beam="1">  1       21 0.38343284E-02 0.15171034E+03</pdfrwt>
<pdfrwt beam="2">  1        2 0.11755788E+00 0.15171034E+03</pdfrwt>
<totfact> 0.19881741E+05</totfact>
</mgrwt>
</event>
<event>
 6    2  0.7993170E+000  0.8747721E+02  0.7546771E-02  0.1309079E+00
          2   -1    0    0  502    0 -0.00000000000E+00  0.00000000000E+00  0.50053990002E+03  0.50053990002E+03  0.00000000000E+00 0. -1.
         21   -1    0    0  501  502  0.00000000000E+00 -0.00000000000E+00 -0.73741928864E+01  0.73741928864E+01  0.00000000000E+00 0.  1.
         24    2    1    2    0    0  0.20039626695E+02  0.26166159194E+02  0.32614967693E+03  0.33767717308E+03  0.81030901122E+02 0.  0.
        -11    1    3    3    0    0  0.41435602981E+02 -0.12199075085E+02  0.14651633155E+03  0.15275065315E+03  0.00000000000E+00 0.  1.
         12    1    3    3    0    0 -0.21395976286E+02  0.38365234279E+02  0.17963334538E+03  0.18492651993E+03  0.00000000000E+00 0. -1.
          1    1    1    2  501    0 -0.20039626695E+02 -0.26166159194E+02  0.16701603021E+03  0.17023691982E+03  0.00000000000E+00 0. -1.
<mgrwt>
<rscale>  1 0.87477205E+02</rscale>
<asrwt>0</asrwt>
<pdfrwt beam="1">  1       21 0.11344916E-02 0.87477205E+02</pdfrwt>
<pdfrwt beam="2">  1        2 0.77006112E-01 0.87477205E+02</pdfrwt>
<totfact> 0.22102792E+06</totfact>
</mgrwt>
</event>
<event>
 6    2  0.7993170E+000  0.8275605E+02  0.7546771E-02  0.1321407E+00
         21   -1    0    0  501  502  0.00000000000E+00  0.00000000000E+00  0.15700388193E+02  0.15700388193E+02  0.00000000000E+00 0.  1.
          2   -1    0    0  502    0 -0.00000000000E+00 -0.00000000000E+00 -0.50322614982E+03  0.50322614982E+03  0.00000000000E+00 0. -1.
         24    2    1    2    0    0 -0.20822618322E+02 -0.69750046253E+00 -0.49089486855E+03  0.49782159020E+03  0.80090547265E+02 0.  0.
        -13    1    3    3    0    0 -0.20374651404E+01 -0.26881908463E+02 -0.60652746831E+02  0.66374271860E+02  0.00000000000E+00 0.  1.
         14    1    3    3    0    0 -0.18785153182E+02  0.26184408001E+02 -0.43024212172E+03  0.43144731834E+03  0.00000000000E+00 0. -1.
          1    1    1    2  501    0  0.20822618322E+02  0.69750046253E+00  0.33691069228E+01  0.21104947812E+02  0.00000000000E+00 0. -1.
<mgrwt>
<rscale>  1 0.82756049E+02</rscale>
<asrwt>0</asrwt>
<pdfrwt beam="1">  1       21 0.24154444E-02 0.82756049E+02</pdfrwt>
<pdfrwt beam="2">  1        2 0.77419406E-01 0.82756049E+02</pdfrwt>
<totfact> 0.65860613E+05</totfact>
</mgrwt>
</event>
<event>
 6    2  0.7993170E+000  0.8703665E+02  0.7546771E-02  0.1310191E+00
         21   -1    0    0  501  502  0.00000000000E+00  0.00000000000E+00  0.79796395482E+01  0.79796395482E+01  0.00000000000E+00 0. -1.
          2   -1    0    0  502    0 -0.00000000000E+00 -0.00000000000E+00 -0.69998960775E+03  0.69998960775E+03  0.00000000000E+00 0. -1.
         24    2    1    2    0    0  0.29683151146E+02 -0.78168892816E+01 -0.65074516341E+03  0.65653990417E+03  0.81444366584E+02 0.  0.
        -11    1    3    3    0    0 -0.25149168957E+01  0.32981416592E+02 -0.18827783286E+03  0.19116129575E+03  0.00000000000E+00 0.  1.
         12    1    3    3    0    0  0.32198068041E+02 -0.40798305874E+02 -0.46246733055E+03  0.46537860842E+03  0.00000000000E+00 0. -1.
          1    1    1    2  501    0 -0.29683151146E+02  0.78168892816E+01 -0.41264804794E+02  0.51429343129E+02  0.00000000000E+00 0. -1.
<mgrwt>
<rscale>  1 0.87036648E+02</rscale>
<asrwt>0</asrwt>
<pdfrwt beam="1">  1       21 0.12276370E-02 0.87036648E+02</pdfrwt>
<pdfrwt beam="2">  1        2 0.10769070E+00 0.87036648E+02</pdfrwt>
<totfact> 0.13422494E+06</totfact>
</mgrwt>
</event>
<event>
 6    2  0.7993170E+000  0.8689090E+02  0.7546771E-02  0.1310560E+00
         21   -1    0    0  501  502  0.00000000000E+00  0.00000000000E+00  0.33239454639E+02  0.33239454639E+02  0.00000000000E+00 0. -1.
          2   -1    0    0  502    0 -0.00000000000E+00 -0.00000000000E+00 -0.10466879388E+04  0.10466879388E+04  0.00000000000E+00 0. -1.
         24    2    1    2    0    0  0.32863827593E+02  0.95992965409E+01 -0.10355417057E+04  0.10391807605E+04  0.79861449114E+02 0.  0.
        -13    1    3    3    0    0  0.28658631178E+02 -0.24005040191E+02 -0.23780608586E+03  0.24072659506E+03  0.00000000000E+00 0.  1.
         14    1    3    3    0    0  0.42051964148E+01  0.33604336732E+02 -0.79773561982E+03  0.79845416541E+03  0.00000000000E+00 0. -1.
          1    1    1    2  501    0 -0.32863827593E+02 -0.95992965409E+01  0.22093221548E+02  0.40746632947E+02  0.00000000000E+00 0. -1.
<mgrwt>
<rscale>  1 0.86890901E+02</rscale>
<asrwt>0</asrwt>
<pdfrwt beam="1">  1       21 0.51137621E-02 0.86890901E+02</pdfrwt>
<pdfrwt beam="2">  1        2 0.16102892E+00 0.86890901E+02</pdfrwt>
<totfact> 0.80842686E+04</totfact>
</mgrwt>
</event>
<event>
 6    2  0.7993170E+000  0.8112722E+02  0.7546771E-02  0.1325883E+00
         21   -1    0    0  501  502  0.00000000000E+00  0.00000000000E+00  0.89815885481E+02  0.89815885481E+02  0.00000000000E+00 0. -1.
          4   -1    0    0  502    0 -0.00000000000E+00 -0.00000000000E+00 -0.58538623543E+02  0.58538623543E+02  0.00000000000E+00 0. -1.
         24    2    1    2    0    0 -0.36365539114E+02 -0.10636214477E+02 -0.20990121205E+02  0.83798635286E+02  0.71735936560E+02 0.  0.
        -13    1    3    3    0    0  0.12611817955E+02 -0.47997052242E+01  0.16881886981E+02  0.21612339772E+02  0.00000000000E+00 0.  1.
         14    1    3    3    0    0 -0.48977357069E+02 -0.58365092531E+01 -0.37872008186E+02  0.62186295514E+02  0.00000000000E+00 0. -1.
          3    1    1    2  501    0  0.36365539114E+02  0.10636214477E+02  0.52267383143E+02  0.64555873738E+02  0.00000000000E+00 0. -1.
<mgrwt>
<rscale>  1 0.81127222E+02</rscale>
<asrwt>0</asrwt>
<pdfrwt beam="1">  1       21 0.13817829E-01 0.81127222E+02</pdfrwt>
<pdfrwt beam="2">  1        4 0.90059420E-02 0.81127222E+02</pdfrwt>
<totfact> 0.15240020E+05</totfact>
</mgrwt>
</event>
<event>
 6    2  0.7993170E+000  0.1169783E+03  0.7546771E-02  0.1248167E+00
          2   -1    0    0  502    0 -0.00000000000E+00  0.00000000000E+00  0.92972086155E+03  0.92972086155E+03  0.00000000000E+00 0. -1.
         21   -1    0    0  501  502  0.00000000000E+00 -0.00000000000E+00 -0.11881388780E+02  0.11881388780E+02  0.00000000000E+00 0. -1.
         24    2    1    2    0    0  0.38207636894E+02 -0.75323338006E+02  0.65987316514E+03  0.67016156687E+03  0.80935176971E+02 0.  0.
        -13    1    3    3    0    0  0.28203777363E+02 -0.45872438833E+01  0.64863982809E+02  0.70878996394E+02  0.00000000000E+00 0.  1.
         14    1    3    3    0    0  0.10003859531E+02 -0.70736094123E+02  0.59500918233E+03  0.59928257047E+03  0.00000000000E+00 0. -1.
          1    1    1    2  501    0 -0.38207636894E+02  0.75323338006E+02  0.25796630763E+03  0.27144068346E+03  0.00000000000E+00 0. -1.
<mgrwt>
<rscale>  1 0.11697834E+03</rscale>
<asrwt>0</asrwt>
<pdfrwt beam="1">  1       21 0.18279067E-02 0.11697834E+03</pdfrwt>
<pdfrwt beam="2">  1        2 0.14303392E+00 0.11697834E+03</pdfrwt>
<totfact> 0.51391871E+05</totfact>
</mgrwt>
</event>
<event>
 6    2  0.7993170E+000  0.8836949E+02  0.7546771E-02  0.1306849E+00
          2   -1    0    0  502    0 -0.00000000000E+00  0.00000000000E+00  0.23313660081E+03  0.23313660081E+03  0.00000000000E+00 0. -1.
         21   -1    0    0  501  502  0.00000000000E+00 -0.00000000000E+00 -0.39605116440E+02  0.39605116440E+02  0.00000000000E+00 0. -1.
         24    2    1    2    0    0 -0.25632902749E+02 -0.28648383250E+02  0.21230390950E+03  0.22996111988E+03  0.79570038980E+02 0.  0.
        -13    1    3    3    0    0  0.13734885303E+02  0.11797852787E+02  0.11674804813E+02  0.21543849982E+02  0.00000000000E+00 0.  1.
         14    1    3    3    0    0 -0.39367788052E+02 -0.40446236037E+02  0.20062910469E+03  0.20841726990E+03  0.00000000000E+00 0. -1.
          1    1    1    2  501    0  0.25632902749E+02  0.28648383250E+02 -0.18772425126E+02  0.42780597370E+02  0.00000000000E+00 0. -1.
<mgrwt>
<rscale>  1 0.88369489E+02</rscale>
<asrwt>0</asrwt>
<pdfrwt beam="1">  1       21 0.60930950E-02 0.88369489E+02</pdfrwt>
<pdfrwt beam="2">  1        2 0.35867169E-01 0.88369489E+02</pdfrwt>
<totfact> 0.32534426E+05</totfact>
</mgrwt>
</event>
<event>
 6    2  0.7993170E+000  0.9681799E+02  0.7546771E-02  0.1287133E+00
         -1   -1    0    0    0  501 -0.00000000000E+00  0.00000000000E+00  0.14585843984E+03  0.14585843984E+03  0.00000000000E+00 0.  1.
         21   -1    0    0  501  502  0.00000000000E+00 -0.00000000000E+00 -0.71039161270E+02  0.71039161270E+02  0.00000000000E+00 0.  1.
         24    2    1    2    0    0 -0.27567035714E+02  0.53272935713E+02  0.11065008300E+03  0.14702776726E+03  0.75998528540E+02 0.  0.
        -13    1    3    3    0    0 -0.44276431194E+02  0.59419081507E+02  0.10467231990E+03  0.12824712145E+03  0.00000000000E+00 0.  1.
         14    1    3    3    0    0  0.16709395481E+02 -0.61461457944E+01  0.59777631000E+01  0.18780645813E+02  0.00000000000E+00 0. -1.
         -2    1    1    2    0  502  0.27567035714E+02 -0.53272935713E+02 -0.35830804422E+02  0.69869833856E+02  0.00000000000E+00 0.  1.
<mgrwt>
<rscale>  1 0.96817991E+02</rscale>
<asrwt>0</asrwt>
<pdfrwt beam="1">  1       21 0.10929102E-01 0.96817991E+02</pdfrwt>
<pdfrwt beam="2">  1       -1 0.22439760E-01 0.96817991E+02</pdfrwt>
<totfact> 0.10153457E+05</totfact>
</mgrwt>
</event>
<event>
 6    2  0.7993170E+000  0.9540593E+02  0.7546771E-02  0.1290264E+00
          2   -1    0    0  502    0 -0.00000000000E+00  0.00000000000E+00  0.56109715258E+03  0.56109715258E+03  0.00000000000E+00 0. -1.
         21   -1    0    0  501  502  0.00000000000E+00 -0.00000000000E+00 -0.12057857237E+02  0.12057857237E+02  0.00000000000E+00 0. -1.
         24    2    1    2    0    0 -0.49037591076E+02 -0.74432773575E+00  0.47402978130E+03  0.48353544410E+03  0.81835522730E+02 0.  0.
        -13    1    3    3    0    0  0.12115764262E+02 -0.16588312072E+02  0.40341006207E+02  0.45269864400E+02  0.00000000000E+00 0.  1.
         14    1    3    3    0    0 -0.61153355337E+02  0.15843984337E+02  0.43368877509E+03  0.43826557970E+03  0.00000000000E+00 0. -1.
          1    1    1    2  501    0  0.49037591076E+02  0.74432773575E+00  0.75009514044E+02  0.89619565718E+02  0.00000000000E+00 0. -1.
<mgrwt>
<rscale>  1 0.95405933E+02</rscale>
<asrwt>0</asrwt>
<pdfrwt beam="1">  1       21 0.18550554E-02 0.95405933E+02</pdfrwt>
<pdfrwt beam="2">  1        2 0.86322618E-01 0.95405933E+02</pdfrwt>
<totfact> 0.90417323E+05</totfact>
</mgrwt>
</event>
<event>
 6    2  0.7993170E+000  0.8438531E+02  0.7546771E-02  0.1317048E+00
         21   -1    0    0  501  502  0.00000000000E+00  0.00000000000E+00  0.72719737165E+02  0.72719737165E+02  0.00000000000E+00 0.  1.
          2   -1    0    0  502    0 -0.00000000000E+00 -0.00000000000E+00 -0.43886980466E+02  0.43886980466E+02  0.00000000000E+00 0. -1.
         24    2    1    2    0    0 -0.12674440318E+01  0.25691287334E+02  0.10535806126E+02  0.85040484731E+02  0.80369348469E+02 0.  0.
        -13    1    3    3    0    0  0.13154650432E+02  0.34478572240E+02  0.37891166804E+02  0.52891939778E+02  0.00000000000E+00 0.  1.
         14    1    3    3    0    0 -0.14422094464E+02 -0.87872849059E+01 -0.27355360678E+02  0.32148544953E+02  0.00000000000E+00 0. -1.
          1    1    1    2  501    0  0.12674440318E+01 -0.25691287334E+02  0.18296950573E+02  0.31566232901E+02  0.00000000000E+00 0. -1.
<mgrwt>
<rscale>  1 0.84385312E+02</rscale>
<asrwt>0</asrwt>
<pdfrwt beam="1">  1       21 0.11187652E-01 0.84385312E+02</pdfrwt>
<pdfrwt beam="2">  1        2 0.67518432E-02 0.84385312E+02</pdfrwt>
<totfact> 0.78316354E+05</totfact>
</mgrwt>
</event>
<event>
 6    2  0.7993170E+000  0.9947206E+02  0.7546771E-02  0.1281410E+00
          2   -1    0    0  502    0 -0.00000000000E+00  0.00000000000E+00  0.72080398218E+03  0.72080398218E+03  0.00000000000E+00 0. -1.
         21   -1    0    0  501  502  0.00000000000E+00 -0.00000000000E+00 -0.10545170636E+02  0.10545170636E+02  0.00000000000E+00 0.  1.
         24    2    1    2    0    0  0.23391851337E+02 -0.56570634594E+02  0.28841366769E+03  0.30508545415E+03  0.78404561195E+02 0.  0.
        -11    1    3    3    0    0  0.17139241055E+02 -0.48770091085E+02  0.73054277505E+02  0.89494149698E+02  0.00000000000E+00 0.  1.
         12    1    3    3    0    0  0.62526102819E+01 -0.78005435081E+01  0.21535939018E+03  0.21559130445E+03  0.00000000000E+00 0. -1.
          1    1    1    2  501    0 -0.23391851337E+02  0.56570634594E+02  0.42184514385E+03  0.42626369867E+03  0.00000000000E+00 0. -1.
<mgrwt>
<rscale>  1 0.99472060E+02</rscale>
<asrwt>0</asrwt>
<pdfrwt beam="1">  1       21 0.16223345E-02 0.99472060E+02</pdfrwt>
<pdfrwt beam="2">  1        2 0.11089288E+00 0.99472060E+02</pdfrwt>
<totfact> 0.84439226E+05</totfact>
</mgrwt>
</event>
<event>
 6    2  0.7993170E+000  0.8562439E+02  0.7546771E-02  0.1313808E+00
          2   -1    0    0  502    0 -0.00000000000E+00  0.00000000000E+00  0.11237300272E+04  0.11237300272E+04  0.00000000000E+00 0. -1.
         21   -1    0    0  501  502  0.00000000000E+00 -0.00000000000E+00 -0.45840220625E+01  0.45840220625E+01  0.00000000000E+00 0.  1.
         24    2    1    2    0    0 -0.42541895319E+02 -0.14637406422E+02  0.47928417250E+03  0.48687252317E+03  0.72852380120E+02 0.  0.
        -13    1    3    3    0    0 -0.55071757447E+02  0.48338924700E+01  0.23152736086E+03  0.23803609771E+03  0.00000000000E+00 0.  1.
         14    1    3    3    0    0  0.12529862128E+02 -0.19471298892E+02  0.24775681163E+03  0.24883642546E+03  0.00000000000E+00 0. -1.
          1    1    1    2  501    0  0.42541895319E+02  0.14637406422E+02  0.63986183265E+03  0.64144152610E+03  0.00000000000E+00 0. -1.
<mgrwt>
<rscale>  1 0.85624388E+02</rscale>
<asrwt>0</asrwt>
<pdfrwt beam="1">  1       21 0.70523506E-03 0.85624388E+02</pdfrwt>
<pdfrwt beam="2">  1        2 0.17288132E+00 0.85624388E+02</pdfrwt>
<totfact> 0.17333600E+06</totfact>
</mgrwt>
</event>
<event>
 6    2  0.7993170E+000  0.8835851E+02  0.7546771E-02  0.1306876E+00
         21   -1    0    0  501  502  0.00000000000E+00  0.00000000000E+00  0.40654511677E+02  0.40654511677E+02  0.00000000000E+00 0. -1.
         -1   -1    0    0    0  501 -0.00000000000E+00 -0.00000000000E+00 -0.11691949028E+03  0.11691949028E+03  0.00000000000E+00 0.  1.
         24    2    1    2    0    0 -0.36676198984E+02 -0.11225740511E+01 -0.20312922366E+02  0.90663342554E+02  0.80379245602E+02 0.  0.
        -13    1    3    3    0    0 -0.27418854498E+02 -0.27779455018E+02 -0.40284652297E+02  0.56092289254E+02  0.00000000000E+00 0.  1.
         14    1    3    3    0    0 -0.92573444862E+01  0.26656880967E+02  0.19971729932E+02  0.34571053300E+02  0.00000000000E+00 0. -1.
         -2    1    1    2    0  502  0.36676198984E+02  0.11225740511E+01 -0.55952056237E+02  0.66910659402E+02  0.00000000000E+00 0.  1.
<mgrwt>
<rscale>  1 0.88358513E+02</rscale>
<asrwt>0</asrwt>
<pdfrwt beam="1">  1       21 0.62545404E-02 0.88358513E+02</pdfrwt>
<pdfrwt beam="2">  1       -1 0.17987614E-01 0.88358513E+02</pdfrwt>
<totfact> 0.37279717E+05</totfact>
</mgrwt>
</event>
<event>
 6    2  0.7993170E+000  0.8844563E+02  0.7546771E-02  0.1306660E+00
          2   -1    0    0  502    0 -0.00000000000E+00  0.00000000000E+00  0.36648561601E+04  0.36648561601E+04  0.00000000000E+00 0. -1.
         21   -1    0    0  501  502  0.00000000000E+00 -0.00000000000E+00 -0.10291605715E+01  0.10291605715E+01  0.00000000000E+00 0.  1.
         24    2    1    2    0    0  0.18574869862E+02  0.28806710830E+02  0.25704626132E+04  0.25719838015E+04  0.81533900197E+02 0.  0.
        -11    1    3    3    0    0 -0.26297269754E+02  0.73176251893E+01  0.39019557609E+03  0.39114918079E+03  0.00000000000E+00 0.  1.
         12    1    3    3    0    0  0.44872139616E+02  0.21489085640E+02  0.21802670372E+04  0.21808346207E+04  0.00000000000E+00 0. -1.
          1    1    1    2  501    0 -0.18574869862E+02 -0.28806710830E+02  0.10933643863E+04  0.10939015191E+04  0.00000000000E+00 0. -1.
<mgrwt>
<rscale>  1 0.88445629E+02</rscale>
<asrwt>0</asrwt>
<pdfrwt beam="1">  1       21 0.15833533E-03 0.88445629E+02</pdfrwt>
<pdfrwt beam="2">  1        2 0.56381358E+00 0.88445629E+02</pdfrwt>
<totfact> 0.68867274E+05</totfact>
</mgrwt>
</event>
<event>
 6    2  0.7993170E+000  0.8724623E+02  0.7546771E-02  0.1309661E+00
         21   -1    0    0  501  502  0.00000000000E+00  0.00000000000E+00  0.19209444681E+02  0.19209444681E+02  0.00000000000E+00 0.  1.
          2   -1    0    0  502    0 -0.00000000000E+00 -0.00000000000E+00 -0.17855910803E+03  0.17855910803E+03  0.00000000000E+00 0. -1.
         24    2    1    2    0    0  0.58767568236E+01  0.28643064705E+02 -0.12792915412E+03  0.15484758084E+03  0.82200628891E+02 0.  0.
        -13    1    3    3    0    0 -0.35457794703E+02 -0.34231870465E+00 -0.39985731836E+02  0.53443719349E+02  0.00000000000E+00 0.  1.
         14    1    3    3    0    0  0.41334551527E+02  0.28985383410E+02 -0.87943422288E+02  0.10140386149E+03  0.00000000000E+00 0. -1.
          1    1    1    2  501    0 -0.58767568236E+01 -0.28643064705E+02 -0.31420509226E+02  0.42920971873E+02  0.00000000000E+00 0. -1.
<mgrwt>
<rscale>  1 0.87246231E+02</rscale>
<asrwt>0</asrwt>
<pdfrwt beam="1">  1       21 0.29552992E-02 0.87246231E+02</pdfrwt>
<pdfrwt beam="2">  1        2 0.27470632E-01 0.87246231E+02</pdfrwt>
<totfact> 0.14246523E+06</totfact>
</mgrwt>
</event>
<event>
 6    2  0.7993170E+000  0.8372421E+02  0.7546771E-02  0.1318803E+00
          2   -1    0    0  502    0 -0.00000000000E+00  0.00000000000E+00  0.14233653152E+02  0.14233653152E+02  0.00000000000E+00 0. -1.
         21   -1    0    0  501  502  0.00000000000E+00 -0.00000000000E+00 -0.54518510334E+03  0.54518510334E+03  0.00000000000E+00 0. -1.
         24    2    1    2    0    0 -0.19778880610E+02  0.70304921641E+01 -0.11146063461E+03  0.13940307072E+03  0.81050053181E+02 0.  0.
        -13    1    3    3    0    0  0.24481637876E+02  0.25797997706E+02 -0.50495856813E+02  0.61763410156E+02  0.00000000000E+00 0.  1.
         14    1    3    3    0    0 -0.44260518487E+02 -0.18767505542E+02 -0.60964777797E+02  0.77639660566E+02  0.00000000000E+00 0. -1.
          1    1    1    2  501    0  0.19778880610E+02 -0.70304921641E+01 -0.41949081558E+03  0.42001568577E+03  0.00000000000E+00 0. -1.
<mgrwt>
<rscale>  1 0.83724208E+02</rscale>
<asrwt>0</asrwt>
<pdfrwt beam="1">  1       21 0.83874633E-01 0.83724208E+02</pdfrwt>
<pdfrwt beam="2">  1        2 0.21897928E-02 0.83724208E+02</pdfrwt>
<totfact> 0.69113170E+04</totfact>
</mgrwt>
</event>
<event>
 6    2  0.7993170E+000  0.8312926E+02  0.7546771E-02  0.1320399E+00
          2   -1    0    0  502    0 -0.00000000000E+00  0.00000000000E+00  0.14331076367E+03  0.14331076367E+03  0.00000000000E+00 0. -1.
         21   -1    0    0  501  502  0.00000000000E+00 -0.00000000000E+00 -0.20357394797E+02  0.20357394797E+02  0.00000000000E+00 0. -1.
         24    2    1    2    0    0 -0.17265740148E+02  0.17053253090E+02  0.87381073110E+02  0.12060648816E+03  0.79508199730E+02 0.  0.
        -13    1    3    3    0    0  0.81875397700E+01 -0.18740228487E+02 -0.24659307864E+01  0.20598853994E+02  0.00000000000E+00 0.  1.
         14    1    3    3    0    0 -0.25453279918E+02  0.35793481577E+02  0.89847003897E+02  0.10000763416E+03  0.00000000000E+00 0. -1.
          1    1    1    2  501    0  0.17265740148E+02 -0.17053253090E+02  0.35572295765E+02  0.43061670310E+02  0.00000000000E+00 0. -1.
<mgrwt>
<rscale>  1 0.83129255E+02</rscale>
<asrwt>0</asrwt>
<pdfrwt beam="1">  1       21 0.31319070E-02 0.83129255E+02</pdfrwt>
<pdfrwt beam="2">  1        2 0.22047809E-01 0.83129255E+02</pdfrwt>
<totfact> 0.16374869E+06</totfact>
</mgrwt>
</event>
<event>
 6    2  0.7993170E+000  0.8338772E+02  0.7546771E-02  0.1319703E+00
         21   -1    0    0  501  502  0.00000000000E+00  0.00000000000E+00  0.11944236291E+03  0.11944236291E+03  0.00000000000E+00 0. -1.
         -1   -1    0    0    0  501 -0.00000000000E+00 -0.00000000000E+00 -0.31061354419E+02  0.31061354419E+02  0.00000000000E+00 0.  1.
         24    2    1    2    0    0  0.16702230273E+02 -0.28814477450E+02  0.41901231377E+02  0.93323228636E+02  0.76447846309E+02 0.  0.
        -13    1    3    3    0    0 -0.12240131938E+02  0.21798300295E+02  0.10668030913E+02  0.27180758069E+02  0.00000000000E+00 0.  1.
         14    1    3    3    0    0  0.28942362211E+02 -0.50612777745E+02  0.31233200465E+02  0.66142470567E+02  0.00000000000E+00 0. -1.
         -2    1    1    2    0  502 -0.16702230273E+02  0.28814477450E+02  0.46479777114E+02  0.57180488695E+02  0.00000000000E+00 0.  1.
<mgrwt>
<rscale>  1 0.83387720E+02</rscale>
<asrwt>0</asrwt>
<pdfrwt beam="1">  1       21 0.18375748E-01 0.83387720E+02</pdfrwt>
<pdfrwt beam="2">  1       -1 0.47786700E-02 0.83387720E+02</pdfrwt>
<totfact> 0.41728591E+05</totfact>
</mgrwt>
</event>
<event>
 6    2  0.7993170E+000  0.8383466E+02  0.7546771E-02  0.1318508E+00
         21   -1    0    0  501  502  0.00000000000E+00  0.00000000000E+00  0.42819862346E+01  0.42819862346E+01  0.00000000000E+00 0.  1.
          2   -1    0    0  502    0 -0.00000000000E+00 -0.00000000000E+00 -0.79062932350E+03  0.79062932350E+03  0.00000000000E+00 0. -1.
         24    2    1    2    0    0 -0.22465295828E+02  0.13497821331E+02 -0.46498671524E+03  0.47248375185E+03  0.79632717596E+02 0.  0.
        -11    1    3    3    0    0 -0.38657184441E+02  0.23327738818E+02 -0.14340822101E+03  0.15034786051E+03  0.00000000000E+00 0.  1.
         12    1    3    3    0    0  0.16191888613E+02 -0.98299174866E+01 -0.32157849423E+03  0.32213589134E+03  0.00000000000E+00 0. -1.
          1    1    1    2  501    0  0.22465295828E+02 -0.13497821331E+02 -0.32136062202E+03  0.32242755788E+03  0.00000000000E+00 0. -1.
<mgrwt>
<rscale>  1 0.83834661E+02</rscale>
<asrwt>0</asrwt>
<pdfrwt beam="1">  1       21 0.65876708E-03 0.83834661E+02</pdfrwt>
<pdfrwt beam="2">  1        2 0.12163529E+00 0.83834661E+02</pdfrwt>
<totfact> 0.30476319E+06</totfact>
</mgrwt>
</event>
<event>
 6    2  0.7993170E+000  0.8693637E+02  0.7546771E-02  0.1310445E+00
         21   -1    0    0  501  502  0.00000000000E+00  0.00000000000E+00  0.19208309486E+03  0.19208309486E+03  0.00000000000E+00 0. -1.
          2   -1    0    0  502    0 -0.00000000000E+00 -0.00000000000E+00 -0.17592496025E+02  0.17592496025E+02  0.00000000000E+00 0. -1.
         24    2    1    2    0    0  0.69804019386E+01 -0.27611136556E+02  0.11988091902E+03  0.14808567285E+03  0.82139094755E+02 0.  0.
        -13    1    3    3    0    0 -0.67587585180E+01  0.15281604776E+02  0.95342099953E+02  0.96795269950E+02  0.00000000000E+00 0.  1.
         14    1    3    3    0    0  0.13739160457E+02 -0.42892741332E+02  0.24538819064E+02  0.51290402904E+02  0.00000000000E+00 0. -1.
          1    1    1    2  501    0 -0.69804019386E+01  0.27611136556E+02  0.54609679820E+02  0.61589918032E+02  0.00000000000E+00 0. -1.
<mgrwt>
<rscale>  1 0.86936366E+02</rscale>
<asrwt>0</asrwt>
<pdfrwt beam="1">  1       21 0.29551244E-01 0.86936366E+02</pdfrwt>
<pdfrwt beam="2">  1        2 0.27065380E-02 0.86936366E+02</pdfrwt>
<totfact> 0.44135172E+05</totfact>
</mgrwt>
</event>
<event>
 6    2  0.7993170E+000  0.8454069E+02  0.7546771E-02  0.1316638E+00
          2   -1    0    0  502    0 -0.00000000000E+00  0.00000000000E+00  0.21797335364E+04  0.21797335364E+04  0.00000000000E+00 0. -1.
         21   -1    0    0  501  502  0.00000000000E+00 -0.00000000000E+00 -0.16673324436E+01  0.16673324436E+01  0.00000000000E+00 0. -1.
         24    2    1    2    0    0 -0.26941505167E+02  0.51698884685E+01  0.19242975505E+04  0.19261537300E+04  0.79965967805E+02 0.  0.
        -13    1    3    3    0    0  0.22706669074E+00 -0.40361787057E+01  0.41556400638E+01  0.57975548438E+01  0.00000000000E+00 0.  1.
         14    1    3    3    0    0 -0.27168571858E+02  0.92060671742E+01  0.19201419105E+04  0.19203561751E+04  0.00000000000E+00 0. -1.
          1    1    1    2  501    0  0.26941505167E+02 -0.51698884685E+01  0.25376865341E+03  0.25524713887E+03  0.00000000000E+00 0. -1.
<mgrwt>
<rscale>  1 0.84540691E+02</rscale>
<asrwt>0</asrwt>
<pdfrwt beam="1">  1       21 0.25651443E-03 0.84540691E+02</pdfrwt>
<pdfrwt beam="2">  1        2 0.33534134E+00 0.84540691E+02</pdfrwt>
<totfact> 0.23327598E+06</totfact>
</mgrwt>
</event>
<event>
 6    2  0.7993170E+000  0.1127542E+03  0.7546771E-02  0.1255553E+00
         -3   -1    0    0    0  501 -0.00000000000E+00  0.00000000000E+00  0.12525447374E+03  0.12525447374E+03  0.00000000000E+00 0.  1.
         21   -1    0    0  501  502  0.00000000000E+00 -0.00000000000E+00 -0.73536563255E+02  0.73536563255E+02  0.00000000000E+00 0. -1.
         24    2    1    2    0    0 -0.31467602062E+02  0.72574477373E+02  0.27417075006E+02  0.11603963006E+03  0.80350700039E+02 0.  0.
        -13    1    3    3    0    0 -0.38260388634E+01 -0.17588986890E+02  0.66237430376E+00  0.18012489360E+02  0.00000000000E+00 0.  1.
         14    1    3    3    0    0 -0.27641563199E+02  0.90163464263E+02  0.26754700702E+02  0.98027140699E+02  0.00000000000E+00 0. -1.
         -4    1    1    2    0  502  0.31467602062E+02 -0.72574477373E+02  0.24300835483E+02  0.82751406941E+02  0.00000000000E+00 0.  1.
<mgrwt>
<rscale>  1 0.11275416E+03</rscale>
<asrwt>0</asrwt>
<pdfrwt beam="1">  1       21 0.11313317E-01 0.11275416E+03</pdfrwt>
<pdfrwt beam="2">  1       -3 0.19269919E-01 0.11275416E+03</pdfrwt>
<totfact> 0.73053124E+04</totfact>
</mgrwt>
</event>
<event>
 6    2  0.7993170E+000  0.1026072E+03  0.7546771E-02  0.1274907E+00
          2   -1    0    0  502    0 -0.00000000000E+00  0.00000000000E+00  0.37467038282E+03  0.37467038282E+03  0.00000000000E+00 0. -1.
         21   -1    0    0  501  502  0.00000000000E+00 -0.00000000000E+00 -0.22824157108E+02  0.22824157108E+02  0.00000000000E+00 0. -1.
         24    2    1    2    0    0 -0.41114699837E+02  0.54441794938E+02  0.28096802611E+03  0.29911747574E+03  0.76641405396E+02 0.  0.
        -11    1    3    3    0    0 -0.25395760766E+02 -0.11154511967E+02  0.38562778963E+02  0.47502165461E+02  0.00000000000E+00 0.  1.
         12    1    3    3    0    0 -0.15718939071E+02  0.65596306905E+02  0.24240524715E+03  0.25161531028E+03  0.00000000000E+00 0. -1.
          1    1    1    2  501    0  0.41114699837E+02 -0.54441794938E+02  0.70878199606E+02  0.98377064187E+02  0.00000000000E+00 0. -1.
<mgrwt>
<rscale>  1 0.10260718E+03</rscale>
<asrwt>0</asrwt>
<pdfrwt beam="1">  1       21 0.35114091E-02 0.10260718E+03</pdfrwt>
<pdfrwt beam="2">  1        2 0.57641593E-01 0.10260718E+03</pdfrwt>
<totfact> 0.49951023E+05</totfact>
</mgrwt>
</event>
<event>
 6    2  0.7993170E+000  0.9963291E+02  0.7546771E-02  0.1281070E+00
         21   -1    0    0  501  502  0.00000000000E+00  0.00000000000E+00  0.86810266818E+03  0.86810266818E+03  0.00000000000E+00 0. -1.
          2   -1    0    0  502    0 -0.00000000000E+00 -0.00000000000E+00 -0.14147397490E+02  0.14147397490E+02  0.00000000000E+00 0. -1.
         24    2    1    2    0    0  0.31665358334E+02  0.50316608296E+02  0.18047024622E+03  0.20614612827E+03  0.79951613112E+02 0.  0.
        -11    1    3    3    0    0  0.46343028899E+02 -0.88736542214E+00  0.85772769825E+02  0.97495803952E+02  0.00000000000E+00 0.  1.
         12    1    3    3    0    0 -0.14677670564E+02  0.51203973718E+02  0.94697476395E+02  0.10865032431E+03  0.00000000000E+00 0. -1.
          1    1    1    2  501    0 -0.31665358334E+02 -0.50316608296E+02  0.67348502447E+03  0.67610393741E+03  0.00000000000E+00 0. -1.
<mgrwt>
<rscale>  1 0.99632908E+02</rscale>
<asrwt>0</asrwt>
<pdfrwt beam="1">  1       21 0.13355422E+00 0.99632908E+02</pdfrwt>
<pdfrwt beam="2">  1        2 0.21765234E-02 0.99632908E+02</pdfrwt>
<totfact> 0.23503444E+04</totfact>
</mgrwt>
</event>
<event>
 6    2  0.7993170E+000  0.8733212E+02  0.7546771E-02  0.1309444E+00
          2   -1    0    0  502    0 -0.00000000000E+00  0.00000000000E+00  0.13251553152E+04  0.13251553152E+04  0.00000000000E+00 0. -1.
         21   -1    0    0  501  502  0.00000000000E+00 -0.00000000000E+00 -0.25833673897E+01  0.25833673897E+01  0.00000000000E+00 0.  1.
         24    2    1    2    0    0  0.24557555166E+02 -0.10767834750E+02  0.11200015344E+04  0.11234012358E+04  0.83113655341E+02 0.  0.
        -13    1    3    3    0    0 -0.24284068639E+02 -0.26490841639E+02  0.48590128582E+03  0.48722842717E+03  0.00000000000E+00 0.  1.
         14    1    3    3    0    0  0.48841623805E+02  0.15723006889E+02  0.63410024857E+03  0.63617280860E+03  0.00000000000E+00 0. -1.
          1    1    1    2  501    0 -0.24557555166E+02  0.10767834750E+02  0.20257041337E+03  0.20433744678E+03  0.00000000000E+00 0. -1.
<mgrwt>
<rscale>  1 0.87332122E+02</rscale>
<asrwt>0</asrwt>
<pdfrwt beam="1">  1       21 0.39744219E-03 0.87332122E+02</pdfrwt>
<pdfrwt beam="2">  1        2 0.20386951E+00 0.87332122E+02</pdfrwt>
<totfact> 0.32590614E+06</totfact>
</mgrwt>
</event>
<event>
 6    2  0.7993170E+000  0.8030945E+02  0.7546771E-02  0.1328176E+00
          2   -1    0    0  502    0 -0.00000000000E+00  0.00000000000E+00  0.96325760368E+03  0.96325760368E+03  0.00000000000E+00 0. -1.
         21   -1    0    0  501  502  0.00000000000E+00 -0.00000000000E+00 -0.28066341554E+01  0.28066341554E+01  0.00000000000E+00 0.  1.
         24    2    1    2    0    0  0.20870031707E+02 -0.78154429115E+01  0.67912766784E+03  0.68385963220E+03  0.77155479098E+02 0.  0.
        -13    1    3    3    0    0  0.12375154719E+02 -0.41556142573E+02  0.29655884432E+03  0.29971187094E+03  0.00000000000E+00 0.  1.
         14    1    3    3    0    0  0.84948769881E+01  0.33740699662E+02  0.38256882352E+03  0.38414776126E+03  0.00000000000E+00 0. -1.
          1    1    1    2  501    0 -0.20870031707E+02  0.78154429115E+01  0.28132330168E+03  0.28220460563E+03  0.00000000000E+00 0. -1.
<mgrwt>
<rscale>  1 0.80309447E+02</rscale>
<asrwt>0</asrwt>
<pdfrwt beam="1">  1       21 0.43179064E-03 0.80309447E+02</pdfrwt>
<pdfrwt beam="2">  1        2 0.14819321E+00 0.80309447E+02</pdfrwt>
<totfact> 0.45143874E+06</totfact>
</mgrwt>
</event>
<event>
 6    2  0.7993170E+000  0.8133528E+02  0.7546771E-02  0.1325304E+00
         21   -1    0    0  501  502  0.00000000000E+00  0.00000000000E+00  0.67371986432E+01  0.67371986432E+01  0.00000000000E+00 0.  1.
         -3   -1    0    0    0  501 -0.00000000000E+00 -0.00000000000E+00 -0.50726204176E+03  0.50726204176E+03  0.00000000000E+00 0.  1.
         24    2    1    2    0    0 -0.61511451015E+01 -0.22221983832E+02 -0.46197215707E+03  0.46907750009E+03  0.77998551462E+02 0.  0.
        -13    1    3    3    0    0 -0.42342140017E+00 -0.39332085180E+02 -0.43407678805E+03  0.43585530872E+03  0.00000000000E+00 0.  1.
         14    1    3    3    0    0 -0.57277237014E+01  0.17110101348E+02 -0.27895369016E+02  0.33222191371E+02  0.00000000000E+00 0. -1.
         -4    1    1    2    0  502  0.61511451015E+01  0.22221983832E+02 -0.38552686050E+02  0.44921740318E+02  0.00000000000E+00 0.  1.
<mgrwt>
<rscale>  1 0.81335276E+02</rscale>
<asrwt>0</asrwt>
<pdfrwt beam="1">  1       21 0.10364917E-02 0.81335276E+02</pdfrwt>
<pdfrwt beam="2">  1       -3 0.78040346E-01 0.81335276E+02</pdfrwt>
<totfact> 0.24362572E+05</totfact>
</mgrwt>
</event>
<event>
 6    2  0.7993170E+000  0.8308492E+02  0.7546771E-02  0.1320518E+00
         21   -1    0    0  501  502  0.00000000000E+00  0.00000000000E+00  0.51480056196E+02  0.51480056196E+02  0.00000000000E+00 0.  1.
         -1   -1    0    0    0  501 -0.00000000000E+00 -0.00000000000E+00 -0.59999957634E+03  0.59999957634E+03  0.00000000000E+00 0.  1.
         24    2    1    2    0    0 -0.80233876552E+01 -0.21606252481E+02 -0.59437705512E+03  0.60015596928E+03  0.79824175029E+02 0.  0.
        -13    1    3    3    0    0 -0.39236929588E+02  0.68878878968E+01 -0.33465090261E+03  0.33701365886E+03  0.00000000000E+00 0.  1.
         14    1    3    3    0    0  0.31213541933E+02 -0.28494140378E+02 -0.25972615251E+03  0.26314231042E+03  0.00000000000E+00 0. -1.
         -2    1    1    2    0  502  0.80233876552E+01  0.21606252481E+02  0.45857534975E+02  0.51323663253E+02  0.00000000000E+00 0.  1.
<mgrwt>
<rscale>  1 0.83084919E+02</rscale>
<asrwt>0</asrwt>
<pdfrwt beam="1">  1       21 0.79200087E-02 0.83084919E+02</pdfrwt>
<pdfrwt beam="2">  1       -1 0.92307627E-01 0.83084919E+02</pdfrwt>
<totfact> 0.13753651E+04</totfact>
</mgrwt>
</event>
<event>
 6    2  0.7993170E+000  0.8760709E+02  0.7546771E-02  0.1308752E+00
         21   -1    0    0  501  502  0.00000000000E+00  0.00000000000E+00  0.10275294394E+02  0.10275294394E+02  0.00000000000E+00 0.  1.
          2   -1    0    0  502    0 -0.00000000000E+00 -0.00000000000E+00 -0.49934017662E+03  0.49934017662E+03  0.00000000000E+00 0. -1.
         24    2    1    2    0    0 -0.13269739089E+02  0.28235587538E+02 -0.45526690742E+03  0.46361941162E+03  0.81863712695E+02 0.  0.
        -13    1    3    3    0    0  0.22000584108E+02  0.40721757435E+02 -0.18154923271E+03  0.18735637466E+03  0.00000000000E+00 0.  1.
         14    1    3    3    0    0 -0.35270323197E+02 -0.12486169897E+02 -0.27371767471E+03  0.27626303695E+03  0.00000000000E+00 0. -1.
          1    1    1    2  501    0  0.13269739089E+02 -0.28235587538E+02 -0.33797974803E+02  0.45996059395E+02  0.00000000000E+00 0. -1.
<mgrwt>
<rscale>  1 0.87607088E+02</rscale>
<asrwt>0</asrwt>
<pdfrwt beam="1">  1       21 0.15808146E-02 0.87607088E+02</pdfrwt>
<pdfrwt beam="2">  1        2 0.76821564E-01 0.87607088E+02</pdfrwt>
<totfact> 0.13137923E+06</totfact>
</mgrwt>
</event>
<event>
 6    2  0.7993170E+000  0.9973341E+02  0.7546771E-02  0.1280858E+00
          2   -1    0    0  502    0 -0.00000000000E+00  0.00000000000E+00  0.44943562170E+03  0.44943562170E+03  0.00000000000E+00 0. -1.
         21   -1    0    0  501  502  0.00000000000E+00 -0.00000000000E+00 -0.17950467333E+02  0.17950467333E+02  0.00000000000E+00 0.  1.
         24    2    1    2    0    0  0.59506980989E+02  0.61272930503E+01  0.15362655738E+03  0.18316078328E+03  0.79800556988E+02 0.  0.
        -11    1    3    3    0    0  0.66931188342E+02  0.49539708957E+00  0.62556479880E+02  0.91615187421E+02  0.00000000000E+00 0.  1.
         12    1    3    3    0    0 -0.74242073529E+01  0.56318959607E+01  0.91070077495E+02  0.91545595863E+02  0.00000000000E+00 0. -1.
          1    1    1    2  501    0 -0.59506980989E+02 -0.61272930503E+01  0.27785859699E+03  0.28422530574E+03  0.00000000000E+00 0. -1.
<mgrwt>
<rscale>  1 0.99733412E+02</rscale>
<asrwt>0</asrwt>
<pdfrwt beam="1">  1       21 0.27616107E-02 0.99733412E+02</pdfrwt>
<pdfrwt beam="2">  1        2 0.69143933E-01 0.99733412E+02</pdfrwt>
<totfact> 0.60836120E+05</totfact>
</mgrwt>
</event>
<event>
 6    2  0.7993170E+000  0.8623281E+02  0.7546771E-02  0.1312240E+00
         -1   -1    0    0    0  501 -0.00000000000E+00  0.00000000000E+00  0.13160944213E+02  0.13160944213E+02  0.00000000000E+00 0.  1.
         21   -1    0    0  501  502  0.00000000000E+00 -0.00000000000E+00 -0.33955797720E+03  0.33955797720E+03  0.00000000000E+00 0. -1.
         24    2    1    2    0    0 -0.29751770536E+02  0.11531187863E+02 -0.14634641474E+03  0.16986279963E+03  0.80112180386E+02 0.  0.
        -13    1    3    3    0    0 -0.22158419227E+02 -0.31245512824E+01  0.21118957559E+00  0.22378627402E+02  0.00000000000E+00 0.  1.
         14    1    3    3    0    0 -0.75933513087E+01  0.14655739145E+02 -0.14655760432E+03  0.14748417223E+03  0.00000000000E+00 0. -1.
         -2    1    1    2    0  502  0.29751770536E+02 -0.11531187863E+02 -0.18005061824E+03  0.18285612178E+03  0.00000000000E+00 0.  1.
<mgrwt>
<rscale>  1 0.86232810E+02</rscale>
<asrwt>0</asrwt>
<pdfrwt beam="1">  1       21 0.52239697E-01 0.86232810E+02</pdfrwt>
<pdfrwt beam="2">  1       -1 0.20247603E-02 0.86232810E+02</pdfrwt>
<totfact> 0.19398248E+05</totfact>
</mgrwt>
</event>
<event>
 6    2  0.7993170E+000  0.8468733E+02  0.7546771E-02  0.1316252E+00
         -1   -1    0    0    0  501 -0.00000000000E+00  0.00000000000E+00  0.72065892176E+03  0.72065892176E+03  0.00000000000E+00 0.  1.
         21   -1    0    0  501  502  0.00000000000E+00 -0.00000000000E+00 -0.44756661907E+01  0.44756661907E+01  0.00000000000E+00 0. -1.
         24    2    1    2    0    0 -0.24930572875E+02 -0.13822563000E+02  0.56076467620E+03  0.56712341264E+03  0.79745510046E+02 0.  0.
        -11    1    3    3    0    0  0.61341494553E+01  0.15911319553E+02  0.40977766565E+03  0.41013233613E+03  0.00000000000E+00 0.  1.
         12    1    3    3    0    0 -0.31064722330E+02 -0.29733882552E+02  0.15098701056E+03  0.15699107650E+03  0.00000000000E+00 0. -1.
         -2    1    1    2    0  502  0.24930572875E+02  0.13822563000E+02  0.15541857937E+03  0.15801117532E+03  0.00000000000E+00 0.  1.
<mgrwt>
<rscale>  1 0.84687325E+02</rscale>
<asrwt>0</asrwt>
<pdfrwt beam="1">  1       21 0.68856460E-03 0.84687325E+02</pdfrwt>
<pdfrwt beam="2">  1       -1 0.11087051E+00 0.84687325E+02</pdfrwt>
<totfact> 0.47311310E+05</totfact>
</mgrwt>
</event>
<event>
 6    2  0.7993170E+000  0.1019702E+03  0.7546771E-02  0.1276207E+00
         21   -1    0    0  501  502  0.00000000000E+00  0.00000000000E+00  0.34389352194E+01  0.34389352194E+01  0.00000000000E+00 0. -1.
          2   -1    0    0  502    0 -0.00000000000E+00 -0.00000000000E+00 -0.21873166193E+04  0.21873166193E+04  0.00000000000E+00 0. -1.
         24    2    1    2    0    0 -0.61801948395E+02 -0.79344455024E+01 -0.98608485163E+03  0.99134315433E+03  0.80718515709E+02 0.  0.
        -13    1    3    3    0    0 -0.83596042876E+01 -0.31416297983E+02 -0.59900374966E+03  0.59988528809E+03  0.00000000000E+00 0.  1.
         14    1    3    3    0    0 -0.53442344107E+02  0.23481852481E+02 -0.38708110197E+03  0.39145786624E+03  0.00000000000E+00 0. -1.
          1    1    1    2  501    0  0.61801948395E+02  0.79344455024E+01 -0.11977928325E+04  0.11994124002E+04  0.00000000000E+00 0. -1.
<mgrwt>
<rscale>  1 0.10197017E+03</rscale>
<asrwt>0</asrwt>
<pdfrwt beam="1">  1       21 0.52906727E-03 0.10197017E+03</pdfrwt>
<pdfrwt beam="2">  1        2 0.33651005E+00 0.10197017E+03</pdfrwt>
<totfact> 0.77555284E+05</totfact>
</mgrwt>
</event>
<event>
 6    2  0.7993170E+000  0.8354928E+02  0.7546771E-02  0.1319271E+00
         21   -1    0    0  501  502  0.00000000000E+00  0.00000000000E+00  0.75829972601E+01  0.75829972601E+01  0.00000000000E+00 0.  1.
          2   -1    0    0  502    0 -0.00000000000E+00 -0.00000000000E+00 -0.38834785239E+03  0.38834785239E+03  0.00000000000E+00 0. -1.
         24    2    1    2    0    0 -0.71532943711E+01  0.21345097290E+02 -0.32974801726E+03  0.34016795387E+03  0.80459301264E+02 0.  0.
        -13    1    3    3    0    0 -0.53040368739E+01  0.38013687131E+02 -0.69614204287E+02  0.79494091950E+02  0.00000000000E+00 0.  1.
         14    1    3    3    0    0 -0.18492574972E+01 -0.16668589841E+02 -0.26013381297E+03  0.26067386192E+03  0.00000000000E+00 0. -1.
          1    1    1    2  501    0  0.71532943711E+01 -0.21345097290E+02 -0.51016837873E+02  0.55762895775E+02  0.00000000000E+00 0. -1.
<mgrwt>
<rscale>  1 0.83549279E+02</rscale>
<asrwt>0</asrwt>
<pdfrwt beam="1">  1       21 0.11666148E-02 0.83549279E+02</pdfrwt>
<pdfrwt beam="2">  1        2 0.59745834E-01 0.83549279E+02</pdfrwt>
<totfact> 0.27537346E+06</totfact>
</mgrwt>
</event>
<event>
 6    2  0.7993170E+000  0.9711469E+02  0.7546771E-02  0.1286483E+00
          2   -1    0    0  502    0 -0.00000000000E+00  0.00000000000E+00  0.77593086666E+03  0.77593086666E+03  0.00000000000E+00 0. -1.
         21   -1    0    0  501  502  0.00000000000E+00 -0.00000000000E+00 -0.14835924713E+02  0.14835924713E+02  0.00000000000E+00 0. -1.
         24    2    1    2    0    0  0.53536628740E+02  0.10311853582E+02  0.70811898798E+03  0.71474734228E+03  0.80366393620E+02 0.  0.
        -11    1    3    3    0    0 -0.14758119008E+02  0.13698247998E+01  0.33637815241E+02  0.36758415510E+02  0.00000000000E+00 0.  1.
         12    1    3    3    0    0  0.68294747748E+02  0.89420287821E+01  0.67448117273E+03  0.67798892677E+03  0.00000000000E+00 0. -1.
          1    1    1    2  501    0 -0.53536628740E+02 -0.10311853582E+02  0.52975953967E+02  0.76019449089E+02  0.00000000000E+00 0. -1.
<mgrwt>
<rscale>  1 0.97114686E+02</rscale>
<asrwt>0</asrwt>
<pdfrwt beam="1">  1       21 0.22824506E-02 0.97114686E+02</pdfrwt>
<pdfrwt beam="2">  1        2 0.11937395E+00 0.97114686E+02</pdfrwt>
<totfact> 0.44684737E+05</totfact>
</mgrwt>
</event>
<event>
 6    2  0.7993170E+000  0.8557729E+02  0.7546771E-02  0.1313930E+00
         21   -1    0    0  501  502  0.00000000000E+00  0.00000000000E+00  0.16089244025E+01  0.16089244025E+01  0.00000000000E+00 0. -1.
          2   -1    0    0  502    0 -0.00000000000E+00 -0.00000000000E+00 -0.23710589427E+04  0.23710589427E+04  0.00000000000E+00 0. -1.
         24    2    1    2    0    0 -0.13358416454E+02 -0.26405465942E+02 -0.13029144170E+04  0.13057218119E+04  0.80298045234E+02 0.  0.
        -13    1    3    3    0    0 -0.46298312858E+02 -0.93764996862E+01 -0.61690965219E+03  0.61871558207E+03  0.00000000000E+00 0.  1.
         14    1    3    3    0    0  0.32939896404E+02 -0.17028966256E+02 -0.68600476481E+03  0.68700622981E+03  0.00000000000E+00 0. -1.
          1    1    1    2  501    0  0.13358416454E+02  0.26405465942E+02 -0.10665356013E+04  0.10669460552E+04  0.00000000000E+00 0. -1.
<mgrwt>
<rscale>  1 0.85577287E+02</rscale>
<asrwt>0</asrwt>
<pdfrwt beam="1">  1       21 0.24752613E-03 0.85577287E+02</pdfrwt>
<pdfrwt beam="2">  1        2 0.36477933E+00 0.85577287E+02</pdfrwt>
<totfact> 0.19669432E+06</totfact>
</mgrwt>
</event>
<event>
 6    2  0.7993170E+000  0.8344331E+02  0.7546771E-02  0.1319554E+00
          2   -1    0    0  502    0 -0.00000000000E+00  0.00000000000E+00  0.11290637882E+04  0.11290637882E+04  0.00000000000E+00 0. -1.
         21   -1    0    0  501  502  0.00000000000E+00 -0.00000000000E+00 -0.20819047729E+02  0.20819047729E+02  0.00000000000E+00 0. -1.
         24    2    1    2    0    0  0.10181843482E+02 -0.23274686452E+02  0.11191358578E+04  0.11222423330E+04  0.79482103336E+02 0.  0.
        -13    1    3    3    0    0 -0.23795223157E+02  0.17971021417E+02  0.43745115016E+03  0.43846628038E+03  0.00000000000E+00 0.  1.
         14    1    3    3    0    0  0.33977066639E+02 -0.41245707869E+02  0.68168470764E+03  0.68377605259E+03  0.00000000000E+00 0. -1.
          1    1    1    2  501    0 -0.10181843482E+02  0.23274686452E+02 -0.10891117336E+02  0.27640502943E+02  0.00000000000E+00 0. -1.
<mgrwt>
<rscale>  1 0.83443308E+02</rscale>
<asrwt>0</asrwt>
<pdfrwt beam="1">  1       21 0.32029313E-02 0.83443308E+02</pdfrwt>
<pdfrwt beam="2">  1        2 0.17370207E+00 0.83443308E+02</pdfrwt>
<totfact> 0.15673044E+05</totfact>
</mgrwt>
</event>
<event>
 6    2  0.7993170E+000  0.9211921E+02  0.7546771E-02  0.1297799E+00
         21   -1    0    0  501  502  0.00000000000E+00  0.00000000000E+00  0.26424864383E+02  0.26424864383E+02  0.00000000000E+00 0.  1.
          4   -1    0    0  502    0 -0.00000000000E+00 -0.00000000000E+00 -0.17171073992E+03  0.17171073992E+03  0.00000000000E+00 0. -1.
         24    2    1    2    0    0  0.41302574161E+02  0.86244278710E+01 -0.92323341938E+02  0.13042066242E+03  0.81888133036E+02 0.  0.
        -13    1    3    3    0    0  0.32046950575E+02  0.30304701337E+01  0.49322741732E+01  0.32565597168E+02  0.00000000000E+00 0.  1.
         14    1    3    3    0    0  0.92556235862E+01  0.55939577373E+01 -0.97255616111E+02  0.97855065256E+02  0.00000000000E+00 0. -1.
          3    1    1    2  501    0 -0.41302574161E+02 -0.86244278710E+01 -0.52962533598E+02  0.67714941878E+02  0.00000000000E+00 0. -1.
<mgrwt>
<rscale>  1 0.92119215E+02</rscale>
<asrwt>0</asrwt>
<pdfrwt beam="1">  1       21 0.40653636E-02 0.92119215E+02</pdfrwt>
<pdfrwt beam="2">  1        4 0.26417038E-01 0.92119215E+02</pdfrwt>
<totfact> 0.19294831E+05</totfact>
</mgrwt>
</event>
<event>
 6    2  0.7993170E+000  0.1831703E+03  0.7546771E-02  0.1164770E+00
         21   -1    0    0  501  502  0.00000000000E+00  0.00000000000E+00  0.31584597561E+02  0.31584597561E+02  0.00000000000E+00 0. -1.
          2   -1    0    0  502    0 -0.00000000000E+00 -0.00000000000E+00 -0.98855242298E+03  0.98855242298E+03  0.00000000000E+00 0. -1.
         24    2    1    2    0    0  0.48264906025E+02  0.15762434994E+03 -0.59147505187E+03  0.61918826525E+03  0.79852576664E+02 0.  0.
        -13    1    3    3    0    0  0.40672300879E+02  0.95635748123E+02 -0.23042529492E+03  0.25277707355E+03  0.00000000000E+00 0.  1.
         14    1    3    3    0    0  0.75926051457E+01  0.61988601817E+02 -0.36104975695E+03  0.36641119170E+03  0.00000000000E+00 0. -1.
          1    1    1    2  501    0 -0.48264906025E+02 -0.15762434994E+03 -0.36549277356E+03  0.40094875529E+03  0.00000000000E+00 0. -1.
<mgrwt>
<rscale>  1 0.18317033E+03</rscale>
<asrwt>0</asrwt>
<pdfrwt beam="1">  1       21 0.48591694E-02 0.18317033E+03</pdfrwt>
<pdfrwt beam="2">  1        2 0.15208497E+00 0.18317033E+03</pdfrwt>
<totfact> 0.95808704E+04</totfact>
</mgrwt>
</event>
<event>
 6    2  0.7993170E+000  0.6519004E+02  0.7546771E-02  0.1377258E+00
         21   -1    0    0  501  502  0.00000000000E+00  0.00000000000E+00  0.57134222439E+02  0.57134222439E+02  0.00000000000E+00 0. -1.
          4   -1    0    0  502    0 -0.00000000000E+00 -0.00000000000E+00 -0.49128349100E+02  0.49128349100E+02  0.00000000000E+00 0. -1.
         24    2    1    2    0    0  0.10648114096E+02  0.27584993890E+02 -0.17186083833E+02  0.67417379714E+02  0.58098428449E+02 0.  0.
        -11    1    3    3    0    0 -0.20143567942E+02 -0.41338459647E+01 -0.19356280462E+01  0.20654265124E+02  0.00000000000E+00 0.  1.
         12    1    3    3    0    0  0.30791682038E+02  0.31718839855E+02 -0.15250455787E+02  0.46763114590E+02  0.00000000000E+00 0. -1.
          3    1    1    2  501    0 -0.10648114096E+02 -0.27584993890E+02  0.25191957172E+02  0.38845191824E+02  0.00000000000E+00 0. -1.
<mgrwt>
<rscale>  1 0.65190042E+02</rscale>
<asrwt>0</asrwt>
<pdfrwt beam="1">  1       21 0.87898804E-02 0.65190042E+02</pdfrwt>
<pdfrwt beam="2">  1        4 0.75582076E-02 0.65190042E+02</pdfrwt>
<totfact> 0.42542295E+05</totfact>
</mgrwt>
</event>
<event>
 6    2  0.7993170E+000  0.8898454E+02  0.7546771E-02  0.1305330E+00
         21   -1    0    0  501  502  0.00000000000E+00  0.00000000000E+00  0.46823009860E+02  0.46823009860E+02  0.00000000000E+00 0.  1.
         -1   -1    0    0    0  501 -0.00000000000E+00 -0.00000000000E+00 -0.24829182983E+03  0.24829182983E+03  0.00000000000E+00 0.  1.
         24    2    1    2    0    0 -0.41580843783E+02  0.17679060458E+01 -0.22868489982E+03  0.24538751256E+03  0.78652119185E+02 0.  0.
        -13    1    3    3    0    0 -0.42287736497E+02 -0.32623832945E+02 -0.11902427510E+03  0.13045821246E+03  0.00000000000E+00 0.  1.
         14    1    3    3    0    0  0.70689271400E+00  0.34391738990E+02 -0.10966062472E+03  0.11492930010E+03  0.00000000000E+00 0. -1.
         -2    1    1    2    0  502  0.41580843783E+02 -0.17679060458E+01  0.27216079848E+02  0.49727327133E+02  0.00000000000E+00 0.  1.
<mgrwt>
<rscale>  1 0.88984537E+02</rscale>
<asrwt>0</asrwt>
<pdfrwt beam="1">  1       21 0.72035401E-02 0.88984537E+02</pdfrwt>
<pdfrwt beam="2">  1       -1 0.38198742E-01 0.88984537E+02</pdfrwt>
<totfact> 0.85603041E+04</totfact>
</mgrwt>
</event>
<event>
 6    2  0.7993170E+000  0.9035164E+02  0.7546771E-02  0.1302002E+00
          2   -1    0    0  502    0 -0.00000000000E+00  0.00000000000E+00  0.51270742859E+03  0.51270742859E+03  0.00000000000E+00 0. -1.
         21   -1    0    0  501  502  0.00000000000E+00 -0.00000000000E+00 -0.96822653267E+01  0.96822653267E+01  0.00000000000E+00 0. -1.
         24    2    1    2    0    0 -0.22181577995E+02  0.35253919911E+02  0.41871313539E+03  0.42835045043E+03  0.80178284867E+02 0.  0.
        -13    1    3    3    0    0  0.15446146324E+02 -0.36085082843E+01  0.17954899956E+02  0.23957946505E+02  0.00000000000E+00 0.  1.
         14    1    3    3    0    0 -0.37627724319E+02  0.38862428195E+02  0.40075823543E+03  0.40439250392E+03  0.00000000000E+00 0. -1.
          1    1    1    2  501    0  0.22181577995E+02 -0.35253919911E+02  0.84312027874E+02  0.94039243487E+02  0.00000000000E+00 0. -1.
<mgrwt>
<rscale>  1 0.90351639E+02</rscale>
<asrwt>0</asrwt>
<pdfrwt beam="1">  1       21 0.14895797E-02 0.90351639E+02</pdfrwt>
<pdfrwt beam="2">  1        2 0.78878045E-01 0.90351639E+02</pdfrwt>
<totfact> 0.14074357E+06</totfact>
</mgrwt>
</event>
<event>
 6    2  0.7993170E+000  0.8311555E+02  0.7546771E-02  0.1320435E+00
          2   -1    0    0  502    0 -0.00000000000E+00  0.00000000000E+00  0.18147627443E+04  0.18147627443E+04  0.00000000000E+00 0. -1.
         21   -1    0    0  501  502  0.00000000000E+00 -0.00000000000E+00 -0.21098659602E+02  0.21098659602E+02  0.00000000000E+00 0. -1.
         24    2    1    2    0    0 -0.16020477370E+02 -0.28082511612E+02  0.18008291021E+04  0.18027461411E+04  0.76569648013E+02 0.  0.
        -13    1    3    3    0    0  0.23348804249E+02 -0.22433389257E+02  0.38521529628E+03  0.38657372919E+03  0.00000000000E+00 0.  1.
         14    1    3    3    0    0 -0.39369281618E+02 -0.56491223543E+01  0.14156138058E+04  0.14161724119E+04  0.00000000000E+00 0. -1.
          1    1    1    2  501    0  0.16020477370E+02  0.28082511612E+02 -0.71650174632E+01  0.33115262777E+02  0.00000000000E+00 0. -1.
<mgrwt>
<rscale>  1 0.83115547E+02</rscale>
<asrwt>0</asrwt>
<pdfrwt beam="1">  1       21 0.32459491E-02 0.83115547E+02</pdfrwt>
<pdfrwt beam="2">  1        2 0.27919415E+00 0.83115547E+02</pdfrwt>
<totfact> 0.67937439E+04</totfact>
</mgrwt>
</event>
<event>
 6    2  0.7993170E+000  0.8331037E+02  0.7546771E-02  0.1319911E+00
         21   -1    0    0  501  502  0.00000000000E+00  0.00000000000E+00  0.72255706717E+01  0.72255706717E+01  0.00000000000E+00 0. -1.
          2   -1    0    0  502    0 -0.00000000000E+00 -0.00000000000E+00 -0.75037841993E+03  0.75037841993E+03  0.00000000000E+00 0. -1.
         24    2    1    2    0    0 -0.47943251828E+01  0.20389058677E+02 -0.72533965317E+03  0.73010836872E+03  0.80634473698E+02 0.  0.
        -11    1    3    3    0    0  0.36887146293E+01  0.30583019638E+02 -0.10020495083E+03  0.10483300948E+03  0.00000000000E+00 0.  1.
         12    1    3    3    0    0 -0.84830398121E+01 -0.10193960961E+02 -0.62513470234E+03  0.62527535924E+03  0.00000000000E+00 0. -1.
          1    1    1    2  501    0  0.47943251828E+01 -0.20389058677E+02 -0.17813196088E+02  0.27495621880E+02  0.00000000000E+00 0. -1.
<mgrwt>
<rscale>  1 0.83310369E+02</rscale>
<asrwt>0</asrwt>
<pdfrwt beam="1">  1       21 0.11116262E-02 0.83310369E+02</pdfrwt>
<pdfrwt beam="2">  1        2 0.11544284E+00 0.83310369E+02</pdfrwt>
<totfact> 0.14389795E+06</totfact>
</mgrwt>
</event>
<event>
 6    2  0.7993170E+000  0.8476098E+02  0.7546771E-02  0.1316059E+00
          2   -1    0    0  502    0 -0.00000000000E+00  0.00000000000E+00  0.26561655850E+03  0.26561655850E+03  0.00000000000E+00 0. -1.
         21   -1    0    0  501  502  0.00000000000E+00 -0.00000000000E+00 -0.14304538867E+02  0.14304538867E+02  0.00000000000E+00 0. -1.
         24    2    1    2    0    0  0.26719428234E+02  0.20614702461E+01  0.23168696881E+03  0.24670483442E+03  0.80412973466E+02 0.  0.
        -13    1    3    3    0    0  0.24010363668E+02  0.75512231017E+01  0.13747637373E+02  0.28679540916E+02  0.00000000000E+00 0.  1.
         14    1    3    3    0    0  0.27090645662E+01 -0.54897528556E+01  0.21793933144E+03  0.21802529350E+03  0.00000000000E+00 0. -1.
          1    1    1    2  501    0 -0.26719428234E+02 -0.20614702461E+01  0.19625050821E+02  0.33216262951E+02  0.00000000000E+00 0. -1.
<mgrwt>
<rscale>  1 0.84760980E+02</rscale>
<asrwt>0</asrwt>
<pdfrwt beam="1">  1       21 0.22006985E-02 0.84760980E+02</pdfrwt>
<pdfrwt beam="2">  1        2 0.40864082E-01 0.84760980E+02</pdfrwt>
<totfact> 0.14998918E+06</totfact>
</mgrwt>
</event>
<event>
 6    2  0.7993170E+000  0.4427906E+03  0.7546771E-02  0.1029894E+00
         -1   -1    0    0    0  501 -0.00000000000E+00  0.00000000000E+00  0.13082948973E+03  0.13082948973E+03  0.00000000000E+00 0.  1.
         21   -1    0    0  501  502  0.00000000000E+00 -0.00000000000E+00 -0.17583235415E+04  0.17583235415E+04  0.00000000000E+00 0.  1.
         24    2    1    2    0    0  0.32375004521E+03 -0.29135624955E+03 -0.11990566920E+04  0.12782020290E+04  0.79755377338E+02 0.  0.
        -11    1    3    3    0    0  0.22765293672E+03 -0.21043722928E+03 -0.94912634768E+03  0.99847409127E+03  0.00000000000E+00 0.  1.
         12    1    3    3    0    0  0.96097108496E+02 -0.80919020272E+02 -0.24993034436E+03  0.27972793771E+03  0.00000000000E+00 0. -1.
         -2    1    1    2    0  502 -0.32375004521E+03  0.29135624955E+03 -0.42843735968E+03  0.61095100221E+03  0.00000000000E+00 0.  1.
<mgrwt>
<rscale>  1 0.44279056E+03</rscale>
<asrwt>0</asrwt>
<pdfrwt beam="1">  1       21 0.27051131E+00 0.44279056E+03</pdfrwt>
<pdfrwt beam="2">  1       -1 0.20127614E-01 0.44279056E+03</pdfrwt>
<totfact> 0.77594786E+01</totfact>
</mgrwt>
</event>
<event>
 6    2  0.7993170E+000  0.8353585E+02  0.7546771E-02  0.1319306E+00
          2   -1    0    0  502    0 -0.00000000000E+00  0.00000000000E+00  0.73309199335E+03  0.73309199335E+03  0.00000000000E+00 0. -1.
         21   -1    0    0  501  502  0.00000000000E+00 -0.00000000000E+00 -0.48194004447E+01  0.48194004447E+01  0.00000000000E+00 0. -1.
         24    2    1    2    0    0  0.14715529254E+02 -0.18349662259E+02  0.66814450233E+03  0.67334635540E+03  0.80155981904E+02 0.  0.
        -13    1    3    3    0    0 -0.54693733098E+01 -0.44330389038E+02  0.25403103332E+03  0.25792801966E+03  0.00000000000E+00 0.  1.
         14    1    3    3    0    0  0.20184902564E+02  0.25980726778E+02  0.41411346901E+03  0.41541833574E+03  0.00000000000E+00 0. -1.
          1    1    1    2  501    0 -0.14715529254E+02  0.18349662259E+02  0.60128090576E+02  0.64565038392E+02  0.00000000000E+00 0. -1.
<mgrwt>
<rscale>  1 0.83535851E+02</rscale>
<asrwt>0</asrwt>
<pdfrwt beam="1">  1       21 0.74144680E-03 0.83535851E+02</pdfrwt>
<pdfrwt beam="2">  1        2 0.11278330E+00 0.83535851E+02</pdfrwt>
<totfact> 0.27779701E+06</totfact>
</mgrwt>
</event>
<event>
 6    2  0.7993170E+000  0.8531985E+02  0.7546771E-02  0.1314598E+00
         21   -1    0    0  501  502  0.00000000000E+00  0.00000000000E+00  0.71990179473E+02  0.71990179473E+02  0.00000000000E+00 0. -1.
         -1   -1    0    0    0  501 -0.00000000000E+00 -0.00000000000E+00 -0.97089479838E+02  0.97089479838E+02  0.00000000000E+00 0.  1.
         24    2    1    2    0    0  0.28368987272E+02 -0.10863258657E+02  0.42241521555E+02  0.95204114479E+02  0.79728711534E+02 0.  0.
        -13    1    3    3    0    0  0.27072178533E+02 -0.12606596533E+02 -0.18036070299E+02  0.34887375345E+02  0.00000000000E+00 0.  1.
         14    1    3    3    0    0  0.12968087392E+01  0.17433378758E+01  0.60277591855E+02  0.60316739133E+02  0.00000000000E+00 0. -1.
         -2    1    1    2    0  502 -0.28368987272E+02  0.10863258657E+02 -0.67340821920E+02  0.73875544833E+02  0.00000000000E+00 0.  1.
<mgrwt>
<rscale>  1 0.85319853E+02</rscale>
<asrwt>0</asrwt>
<pdfrwt beam="1">  1       21 0.11075412E-01 0.85319853E+02</pdfrwt>
<pdfrwt beam="2">  1       -1 0.14936843E-01 0.85319853E+02</pdfrwt>
<totfact> 0.18674214E+05</totfact>
</mgrwt>
</event>
<event>
 6    2  0.7993170E+000  0.8258412E+02  0.7546771E-02  0.1321874E+00
          2   -1    0    0  502    0 -0.00000000000E+00  0.00000000000E+00  0.56791711073E+03  0.56791711073E+03  0.00000000000E+00 0. -1.
         21   -1    0    0  501  502  0.00000000000E+00 -0.00000000000E+00 -0.11483400403E+02  0.11483400403E+02  0.00000000000E+00 0. -1.
         24    2    1    2    0    0 -0.68172712176E+01 -0.21232705904E+02  0.55003527157E+03  0.55620044636E+03  0.79516247201E+02 0.  0.
        -13    1    3    3    0    0 -0.33353771672E+01  0.21688809750E+02  0.53840710385E+02  0.58140788643E+02  0.00000000000E+00 0.  1.
         14    1    3    3    0    0 -0.34818940503E+01 -0.42921515654E+02  0.49619456119E+03  0.49805965772E+03  0.00000000000E+00 0. -1.
          1    1    1    2  501    0  0.68172712176E+01  0.21232705904E+02  0.63984387493E+01  0.23200064769E+02  0.00000000000E+00 0. -1.
<mgrwt>
<rscale>  1 0.82584118E+02</rscale>
<asrwt>0</asrwt>
<pdfrwt beam="1">  1       21 0.17666774E-02 0.82584118E+02</pdfrwt>
<pdfrwt beam="2">  1        2 0.87371841E-01 0.82584118E+02</pdfrwt>
<totfact> 0.95161758E+05</totfact>
</mgrwt>
</event>
<event>
 6    2  0.7993170E+000  0.8516121E+02  0.7546771E-02  0.1315011E+00
          2   -1    0    0  502    0 -0.00000000000E+00  0.00000000000E+00  0.63115337473E+03  0.63115337473E+03  0.00000000000E+00 0. -1.
         21   -1    0    0  501  502  0.00000000000E+00 -0.00000000000E+00 -0.50996345352E+01  0.50996345352E+01  0.00000000000E+00 0.  1.
         24    2    1    2    0    0 -0.27923284277E+02 -0.32163730348E+01  0.48635493465E+03  0.49375454917E+03  0.80388914051E+02 0.  0.
        -11    1    3    3    0    0  0.10141736330E+02 -0.21645775596E+02  0.50709308551E+02  0.56060934621E+02  0.00000000000E+00 0.  1.
         12    1    3    3    0    0 -0.38065020607E+02  0.18429402561E+02  0.43564562610E+03  0.43769361455E+03  0.00000000000E+00 0. -1.
          1    1    1    2  501    0  0.27923284277E+02  0.32163730348E+01  0.13969880554E+03  0.14249846009E+03  0.00000000000E+00 0. -1.
<mgrwt>
<rscale>  1 0.85161214E+02</rscale>
<asrwt>0</asrwt>
<pdfrwt beam="1">  1       21 0.78455966E-03 0.85161214E+02</pdfrwt>
<pdfrwt beam="2">  1        2 0.97100457E-01 0.85161214E+02</pdfrwt>
<totfact> 0.30319484E+06</totfact>
</mgrwt>
</event>
<event>
 6    2  0.7993170E+000  0.8920915E+02  0.7546771E-02  0.1304778E+00
          2   -1    0    0  502    0 -0.00000000000E+00  0.00000000000E+00  0.20982908086E+03  0.20982908086E+03  0.00000000000E+00 0. -1.
         21   -1    0    0  501  502  0.00000000000E+00 -0.00000000000E+00 -0.19366504553E+02  0.19366504553E+02  0.00000000000E+00 0.  1.
         24    2    1    2    0    0 -0.16596496713E+02 -0.33215605775E+02  0.14781701332E+03  0.17265034501E+03  0.81114437888E+02 0.  0.
        -11    1    3    3    0    0 -0.50290692491E+01 -0.59193460280E+02  0.85063000921E+02  0.10375389826E+03  0.00000000000E+00 0.  1.
         12    1    3    3    0    0 -0.11567427464E+02  0.25977854505E+02  0.62754012399E+02  0.68896446751E+02  0.00000000000E+00 0. -1.
          1    1    1    2  501    0  0.16596496713E+02  0.33215605775E+02  0.42645562986E+02  0.56545240406E+02  0.00000000000E+00 0. -1.
<mgrwt>
<rscale>  1 0.89209149E+02</rscale>
<asrwt>0</asrwt>
<pdfrwt beam="1">  1       21 0.29794624E-02 0.89209149E+02</pdfrwt>
<pdfrwt beam="2">  1        2 0.32281396E-01 0.89209149E+02</pdfrwt>
<totfact> 0.11862573E+06</totfact>
</mgrwt>
</event>
<event>
 6    2  0.7993170E+000  0.8809166E+02  0.7546771E-02  0.1307540E+00
          2   -1    0    0  502    0 -0.00000000000E+00  0.00000000000E+00  0.12115656982E+03  0.12115656982E+03  0.00000000000E+00 0. -1.
         21   -1    0    0  501  502  0.00000000000E+00 -0.00000000000E+00 -0.32310173573E+02  0.32310173573E+02  0.00000000000E+00 0.  1.
         24    2    1    2    0    0 -0.29651636093E+02  0.20716055173E+02  0.54507404894E+02  0.10359149109E+03  0.80322882005E+02 0.  0.
        -11    1    3    3    0    0 -0.10153226984E+01  0.14312927992E+02 -0.19366631224E+02  0.24103053600E+02  0.00000000000E+00 0.  1.
         12    1    3    3    0    0 -0.28636313394E+02  0.64031271812E+01  0.73874036118E+02  0.79488437492E+02  0.00000000000E+00 0. -1.
          1    1    1    2  501    0  0.29651636093E+02 -0.20716055173E+02  0.34338991351E+02  0.49875252299E+02  0.00000000000E+00 0. -1.
<mgrwt>
<rscale>  1 0.88091656E+02</rscale>
<asrwt>0</asrwt>
<pdfrwt beam="1">  1       21 0.49707960E-02 0.88091656E+02</pdfrwt>
<pdfrwt beam="2">  1        2 0.18639472E-01 0.88091656E+02</pdfrwt>
<totfact> 0.93036264E+05</totfact>
</mgrwt>
</event>
<event>
 6    2  0.7993170E+000  0.8244477E+02  0.7546771E-02  0.1322253E+00
         21   -1    0    0  501  502  0.00000000000E+00  0.00000000000E+00  0.11829428834E+03  0.11829428834E+03  0.00000000000E+00 0. -1.
         -1   -1    0    0    0  501 -0.00000000000E+00 -0.00000000000E+00 -0.23576097581E+02  0.23576097581E+02  0.00000000000E+00 0.  1.
         24    2    1    2    0    0 -0.13402250775E+02  0.15512879999E+02  0.61581593621E+02  0.10290496739E+03  0.79855305824E+02 0.  0.
        -11    1    3    3    0    0 -0.20779474780E+02  0.96754064525E+01 -0.13921504922E+02  0.26818060359E+02  0.00000000000E+00 0.  1.
         12    1    3    3    0    0  0.73772240053E+01  0.58374735463E+01  0.75503098543E+02  0.76086907027E+02  0.00000000000E+00 0. -1.
         -2    1    1    2    0  502  0.13402250775E+02 -0.15512879999E+02  0.33136597142E+02  0.38965418538E+02  0.00000000000E+00 0.  1.
<mgrwt>
<rscale>  1 0.82444767E+02</rscale>
<asrwt>0</asrwt>
<pdfrwt beam="1">  1       21 0.18199121E-01 0.82444767E+02</pdfrwt>
<pdfrwt beam="2">  1       -1 0.36270920E-02 0.82444767E+02</pdfrwt>
<totfact> 0.63264203E+05</totfact>
</mgrwt>
</event>
<event>
 6    2  0.7993170E+000  0.1088549E+03  0.7546771E-02  0.1262705E+00
         21   -1    0    0  501  502  0.00000000000E+00  0.00000000000E+00  0.19322830713E+02  0.19322830713E+02  0.00000000000E+00 0. -1.
          2   -1    0    0  502    0 -0.00000000000E+00 -0.00000000000E+00 -0.47998297459E+03  0.47998297459E+03  0.00000000000E+00 0. -1.
         24    2    1    2    0    0  0.30681009550E+02  0.66036526225E+02 -0.35245103337E+03  0.36887820569E+03  0.80915094818E+02 0.  0.
        -11    1    3    3    0    0 -0.24986865379E+01  0.10314920213E+02 -0.10515541836E+00  0.10613767997E+02  0.00000000000E+00 0.  1.
         12    1    3    3    0    0  0.33179696088E+02  0.55721606012E+02 -0.35234587795E+03  0.35826443770E+03  0.00000000000E+00 0. -1.
          1    1    1    2  501    0 -0.30681009550E+02 -0.66036526225E+02 -0.10820911050E+03  0.13042759961E+03  0.00000000000E+00 0. -1.
<mgrwt>
<rscale>  1 0.10885495E+03</rscale>
<asrwt>0</asrwt>
<pdfrwt beam="1">  1       21 0.29727432E-02 0.10885495E+03</pdfrwt>
<pdfrwt beam="2">  1        2 0.73843534E-01 0.10885495E+03</pdfrwt>
<totfact> 0.50616371E+05</totfact>
</mgrwt>
</event>
<event>
 6    2  0.7993170E+000  0.8369821E+02  0.7546771E-02  0.1318872E+00
          2   -1    0    0  502    0 -0.00000000000E+00  0.00000000000E+00  0.27993633496E+01  0.27993633496E+01  0.00000000000E+00 0. -1.
         21   -1    0    0  501  502  0.00000000000E+00 -0.00000000000E+00 -0.19324011700E+04  0.19324011700E+04  0.00000000000E+00 0.  1.
         24    2    1    2    0    0 -0.29900639959E+00  0.24513507454E+02 -0.18503864556E+04  0.18522784416E+04  0.80027425428E+02 0.  0.
        -13    1    3    3    0    0 -0.15304558542E+02  0.79317083887E+01 -0.17127697675E+04  0.17128565082E+04  0.00000000000E+00 0.  1.
         14    1    3    3    0    0  0.15005552142E+02  0.16581799065E+02 -0.13761668812E+03  0.13942193337E+03  0.00000000000E+00 0. -1.
          1    1    1    2  501    0  0.29900639959E+00 -0.24513507454E+02 -0.79215351052E+02  0.82922091718E+02  0.00000000000E+00 0. -1.
<mgrwt>
<rscale>  1 0.83698209E+02</rscale>
<asrwt>0</asrwt>
<pdfrwt beam="1">  1       21 0.29729242E+00 0.83698209E+02</pdfrwt>
<pdfrwt beam="2">  1        2 0.43067138E-03 0.83698209E+02</pdfrwt>
<totfact> 0.20929135E+04</totfact>
</mgrwt>
</event>
<event>
 6    2  0.7993170E+000  0.8715079E+02  0.7546771E-02  0.1309902E+00
         21   -1    0    0  501  502  0.00000000000E+00  0.00000000000E+00  0.41542527583E+01  0.41542527583E+01  0.00000000000E+00 0.  1.
          2   -1    0    0  502    0 -0.00000000000E+00 -0.00000000000E+00 -0.88074303762E+03  0.88074303762E+03  0.00000000000E+00 0. -1.
         24    2    1    2    0    0 -0.11827854697E+01  0.33804854102E+02 -0.63080205551E+03  0.63679391783E+03  0.80318699022E+02 0.  0.
        -13    1    3    3    0    0  0.63980782945E+01  0.59513655185E+02 -0.46557680871E+03  0.46940875084E+03  0.00000000000E+00 0.  1.
         14    1    3    3    0    0 -0.75808637642E+01 -0.25708801083E+02 -0.16522524680E+03  0.16738516699E+03  0.00000000000E+00 0. -1.
          1    1    1    2  501    0  0.11827854697E+01 -0.33804854102E+02 -0.24578672935E+03  0.24810337255E+03  0.00000000000E+00 0. -1.
<mgrwt>
<rscale>  1 0.87150792E+02</rscale>
<asrwt>0</asrwt>
<pdfrwt beam="1">  1       21 0.63911622E-03 0.87150792E+02</pdfrwt>
<pdfrwt beam="2">  1        2 0.13549884E+00 0.87150792E+02</pdfrwt>
<totfact> 0.28058305E+06</totfact>
</mgrwt>
</event>
<event>
 6    2  0.7993170E+000  0.1217176E+03  0.7546771E-02  0.1240290E+00
         21   -1    0    0  501  502  0.00000000000E+00  0.00000000000E+00  0.60435339862E+02  0.60435339862E+02  0.00000000000E+00 0.  1.
         -1   -1    0    0    0  501 -0.00000000000E+00 -0.00000000000E+00 -0.20472798918E+03  0.20472798918E+03  0.00000000000E+00 0.  1.
         24    2    1    2    0    0  0.66156314431E+02  0.62368059773E+02 -0.43095054394E+02  0.12912147505E+03  0.80924278104E+02 0.  0.
        -11    1    3    3    0    0  0.77865390985E+02  0.71974140199E+02 -0.33533761076E+02  0.11121065193E+03  0.00000000000E+00 0.  1.
         12    1    3    3    0    0 -0.11709076554E+02 -0.96060804259E+01 -0.95612933187E+01  0.17910823120E+02  0.00000000000E+00 0. -1.
         -2    1    1    2    0  502 -0.66156314431E+02 -0.62368059773E+02 -0.10119759492E+03  0.13604185399E+03  0.00000000000E+00 0.  1.
<mgrwt>
<rscale>  1 0.12171759E+03</rscale>
<asrwt>0</asrwt>
<pdfrwt beam="1">  1       21 0.92977446E-02 0.12171759E+03</pdfrwt>
<pdfrwt beam="2">  1       -1 0.31496614E-01 0.12171759E+03</pdfrwt>
<totfact> 0.77974744E+04</totfact>
</mgrwt>
</event>
<event>
 6    2  0.7993170E+000  0.9089353E+02  0.7546771E-02  0.1300702E+00
         21   -1    0    0  501  502  0.00000000000E+00  0.00000000000E+00  0.32919640491E+02  0.32919640491E+02  0.00000000000E+00 0.  1.
         -3   -1    0    0    0  501 -0.00000000000E+00 -0.00000000000E+00 -0.14533779345E+03  0.14533779345E+03  0.00000000000E+00 0.  1.
         24    2    1    2    0    0  0.15786909458E+02  0.37846594620E+02 -0.10060215389E+03  0.13558180778E+03  0.81117458039E+02 0.  0.
        -13    1    3    3    0    0  0.17506419151E+02  0.62744397590E+02 -0.64317007901E+02  0.91542403539E+02  0.00000000000E+00 0.  1.
         14    1    3    3    0    0 -0.17195096932E+01 -0.24897802970E+02 -0.36285145987E+02  0.44039404238E+02  0.00000000000E+00 0. -1.
         -4    1    1    2    0  502 -0.15786909458E+02 -0.37846594620E+02 -0.11815999074E+02  0.42675626166E+02  0.00000000000E+00 0.  1.
<mgrwt>
<rscale>  1 0.90893527E+02</rscale>
<asrwt>0</asrwt>
<pdfrwt beam="1">  1       21 0.50645600E-02 0.90893527E+02</pdfrwt>
<pdfrwt beam="2">  1       -3 0.22359661E-01 0.90893527E+02</pdfrwt>
<totfact> 0.21589181E+05</totfact>
</mgrwt>
</event>
<event>
 6    2  0.7993170E+000  0.8637869E+02  0.7546771E-02  0.1311866E+00
         21   -1    0    0  501  502  0.00000000000E+00  0.00000000000E+00  0.12154226906E+02  0.12154226906E+02  0.00000000000E+00 0. -1.
         -1   -1    0    0    0  501 -0.00000000000E+00 -0.00000000000E+00 -0.32557230361E+03  0.32557230361E+03  0.00000000000E+00 0.  1.
         24    2    1    2    0    0 -0.10235043255E+02  0.18960067368E+02 -0.15161080854E+03  0.17449101876E+03  0.83648300037E+02 0.  0.
        -11    1    3    3    0    0  0.16877944311E+02 -0.27327891805E+02 -0.46986921018E+02  0.56916161338E+02  0.00000000000E+00 0.  1.
         12    1    3    3    0    0 -0.27112987566E+02  0.46287959173E+02 -0.10462388752E+03  0.11757485742E+03  0.00000000000E+00 0. -1.
         -2    1    1    2    0  502  0.10235043255E+02 -0.18960067368E+02 -0.16180726817E+03  0.16323551175E+03  0.00000000000E+00 0.  1.
<mgrwt>
<rscale>  1 0.86378692E+02</rscale>
<asrwt>0</asrwt>
<pdfrwt beam="1">  1       21 0.18698808E-02 0.86378692E+02</pdfrwt>
<pdfrwt beam="2">  1       -1 0.50088054E-01 0.86378692E+02</pdfrwt>
<totfact> 0.48451725E+05</totfact>
</mgrwt>
</event>
<event>
 6    2  0.7993170E+000  0.9431075E+02  0.7546771E-02  0.1292736E+00
         21   -1    0    0  501  502  0.00000000000E+00  0.00000000000E+00  0.92176498853E+01  0.92176498853E+01  0.00000000000E+00 0. -1.
          2   -1    0    0  502    0 -0.00000000000E+00 -0.00000000000E+00 -0.59801901038E+03  0.59801901038E+03  0.00000000000E+00 0. -1.
         24    2    1    2    0    0  0.97689175287E+01 -0.48934373344E+02 -0.44896695848E+03  0.45876557004E+03  0.80028206327E+02 0.  0.
        -13    1    3    3    0    0  0.41514228395E+02 -0.15902220362E+02 -0.15496765814E+03  0.16121813434E+03  0.00000000000E+00 0.  1.
         14    1    3    3    0    0 -0.31745310866E+02 -0.33032152982E+02 -0.29399930034E+03  0.29754743570E+03  0.00000000000E+00 0. -1.
          1    1    1    2  501    0 -0.97689175287E+01  0.48934373344E+02 -0.13983440201E+03  0.14847109022E+03  0.00000000000E+00 0. -1.
<mgrwt>
<rscale>  1 0.94310755E+02</rscale>
<asrwt>0</asrwt>
<pdfrwt beam="1">  1       21 0.14181002E-02 0.94310755E+02</pdfrwt>
<pdfrwt beam="2">  1        2 0.92002908E-01 0.94310755E+02</pdfrwt>
<totfact> 0.12896229E+06</totfact>
</mgrwt>
</event>
<event>
 6    2  0.7993170E+000  0.8895442E+02  0.7546771E-02  0.1305404E+00
         21   -1    0    0  501  502  0.00000000000E+00  0.00000000000E+00  0.67091731275E+01  0.67091731275E+01  0.00000000000E+00 0.  1.
          2   -1    0    0  502    0 -0.00000000000E+00 -0.00000000000E+00 -0.83627328222E+03  0.83627328222E+03  0.00000000000E+00 0. -1.
         24    2    1    2    0    0  0.44551256734E+01  0.20231424134E+02 -0.80871036230E+03  0.81358794187E+03  0.86508556795E+02 0.  0.
        -11    1    3    3    0    0  0.24297010327E+02  0.22713329965E+02 -0.11826198648E+03  0.12285006111E+03  0.00000000000E+00 0.  1.
         12    1    3    3    0    0 -0.19841884654E+02 -0.24819058316E+01 -0.69044837582E+03  0.69073788076E+03  0.00000000000E+00 0. -1.
          1    1    1    2  501    0 -0.44551256734E+01 -0.20231424134E+02 -0.20853746793E+02  0.29394513477E+02  0.00000000000E+00 0. -1.
<mgrwt>
<rscale>  1 0.88954421E+02</rscale>
<asrwt>0</asrwt>
<pdfrwt beam="1">  1       21 0.10321804E-02 0.88954421E+02</pdfrwt>
<pdfrwt beam="2">  1        2 0.12865743E+00 0.88954421E+02</pdfrwt>
<totfact> 0.14257408E+06</totfact>
</mgrwt>
</event>
<event>
 6    2  0.7993170E+000  0.8973426E+02  0.7546771E-02  0.1303496E+00
         21   -1    0    0  501  502  0.00000000000E+00  0.00000000000E+00  0.20196994011E+02  0.20196994011E+02  0.00000000000E+00 0. -1.
          2   -1    0    0  502    0 -0.00000000000E+00 -0.00000000000E+00 -0.42794247191E+03  0.42794247191E+03  0.00000000000E+00 0. -1.
         24    2    1    2    0    0  0.34335505731E+02 -0.22066952162E+02 -0.39546340451E+03  0.40551638933E+03  0.79914706894E+02 0.  0.
        -11    1    3    3    0    0 -0.17490062330E+02 -0.21540927282E+02 -0.60404503700E+02  0.66472685336E+02  0.00000000000E+00 0.  1.
         12    1    3    3    0    0  0.51825568061E+02 -0.52602488038E+00 -0.33505890081E+03  0.33904370399E+03  0.00000000000E+00 0. -1.
          1    1    1    2  501    0 -0.34335505731E+02  0.22066952162E+02 -0.12282073395E+02  0.42623076595E+02  0.00000000000E+00 0. -1.
<mgrwt>
<rscale>  1 0.89734262E+02</rscale>
<asrwt>0</asrwt>
<pdfrwt beam="1">  1       21 0.31072301E-02 0.89734262E+02</pdfrwt>
<pdfrwt beam="2">  1        2 0.65837297E-01 0.89734262E+02</pdfrwt>
<totfact> 0.52463610E+05</totfact>
</mgrwt>
</event>
<event>
 6    2  0.7993170E+000  0.8101033E+02  0.7546771E-02  0.1326208E+00
         -1   -1    0    0    0  501 -0.00000000000E+00  0.00000000000E+00  0.97238432668E+02  0.97238432668E+02  0.00000000000E+00 0.  1.
         21   -1    0    0  501  502  0.00000000000E+00 -0.00000000000E+00 -0.11564342436E+03  0.11564342436E+03  0.00000000000E+00 0.  1.
         24    2    1    2    0    0 -0.21104390032E+02 -0.12081469930E+02  0.78600489833E+02  0.11287475408E+03  0.77274290109E+02 0.  0.
        -13    1    3    3    0    0 -0.18362627353E+02 -0.37607076414E+01  0.93624859520E+02  0.95482685998E+02  0.00000000000E+00 0.  1.
         14    1    3    3    0    0 -0.27417626790E+01 -0.83207622884E+01 -0.15024369686E+02  0.17392068081E+02  0.00000000000E+00 0. -1.
         -2    1    1    2    0  502  0.21104390032E+02  0.12081469930E+02 -0.97005481527E+02  0.10000710295E+03  0.00000000000E+00 0.  1.
<mgrwt>
<rscale>  1 0.81010327E+02</rscale>
<asrwt>0</asrwt>
<pdfrwt beam="1">  1       21 0.17791296E-01 0.81010327E+02</pdfrwt>
<pdfrwt beam="2">  1       -1 0.14959759E-01 0.81010327E+02</pdfrwt>
<totfact> 0.80127245E+04</totfact>
</mgrwt>
</event>
<event>
 6    2  0.7993170E+000  0.9487672E+02  0.7546771E-02  0.1291454E+00
         21   -1    0    0  501  502  0.00000000000E+00  0.00000000000E+00  0.38765816927E+02  0.38765816927E+02  0.00000000000E+00 0.  1.
         -1   -1    0    0    0  501 -0.00000000000E+00 -0.00000000000E+00 -0.15343947222E+03  0.15343947222E+03  0.00000000000E+00 0.  1.
         24    2    1    2    0    0 -0.29844680617E+02  0.43926821595E+02 -0.46132234923E+02  0.10549775243E+03  0.78621384194E+02 0.  0.
        -11    1    3    3    0    0 -0.30477805090E+02  0.50403187512E+02 -0.63702911882E+02  0.86760814292E+02  0.00000000000E+00 0.  1.
         12    1    3    3    0    0  0.63312447229E+00 -0.64763659162E+01  0.17570676959E+02  0.18736938140E+02  0.00000000000E+00 0. -1.
         -2    1    1    2    0  502  0.29844680617E+02 -0.43926821595E+02 -0.68541420369E+02  0.86707536713E+02  0.00000000000E+00 0.  1.
<mgrwt>
<rscale>  1 0.94876724E+02</rscale>
<asrwt>0</asrwt>
<pdfrwt beam="1">  1       21 0.59639718E-02 0.94876724E+02</pdfrwt>
<pdfrwt beam="2">  1       -1 0.23606073E-01 0.94876724E+02</pdfrwt>
<totfact> 0.26362898E+05</totfact>
</mgrwt>
</event>
<event>
 6    2  0.7993170E+000  0.9619826E+02  0.7546771E-02  0.1288500E+00
         21   -1    0    0  501  502  0.00000000000E+00  0.00000000000E+00  0.30246549943E+01  0.30246549943E+01  0.00000000000E+00 0. -1.
          2   -1    0    0  502    0 -0.00000000000E+00 -0.00000000000E+00 -0.18852560122E+04  0.18852560122E+04  0.00000000000E+00 0. -1.
         24    2    1    2    0    0 -0.49080799712E+02  0.22448944773E+02 -0.12991975469E+04  0.13027541486E+04  0.79631813948E+02 0.  0.
        -13    1    3    3    0    0  0.20583314574E+02  0.14696120100E+02 -0.42438649104E+03  0.42513943896E+03  0.00000000000E+00 0.  1.
         14    1    3    3    0    0 -0.69664114286E+02  0.77528246730E+01 -0.87481105589E+03  0.87761470967E+03  0.00000000000E+00 0. -1.
          1    1    1    2  501    0  0.49080799712E+02 -0.22448944773E+02 -0.58303381031E+03  0.58552651861E+03  0.00000000000E+00 0. -1.
<mgrwt>
<rscale>  1 0.96198263E+02</rscale>
<asrwt>0</asrwt>
<pdfrwt beam="1">  1       21 0.46533293E-03 0.96198263E+02</pdfrwt>
<pdfrwt beam="2">  1        2 0.29003852E+00 0.96198263E+02</pdfrwt>
<totfact> 0.13393754E+06</totfact>
</mgrwt>
</event>
<event>
 6    2  0.7993170E+000  0.8511401E+02  0.7546771E-02  0.1315135E+00
         21   -1    0    0  501  502  0.00000000000E+00  0.00000000000E+00  0.11686498985E+03  0.11686498985E+03  0.00000000000E+00 0. -1.
         -1   -1    0    0    0  501 -0.00000000000E+00 -0.00000000000E+00 -0.32671946003E+02  0.32671946003E+02  0.00000000000E+00 0.  1.
         24    2    1    2    0    0  0.25305774919E+02  0.84024060601E+01  0.88202702157E+02  0.12257288513E+03  0.80829529434E+02 0.  0.
        -13    1    3    3    0    0  0.18066250272E+02 -0.35896740994E+02  0.39777791229E+02  0.56544125140E+02  0.00000000000E+00 0.  1.
         14    1    3    3    0    0  0.72395246464E+01  0.44299147054E+02  0.48424910929E+02  0.66028759986E+02  0.00000000000E+00 0. -1.
         -2    1    1    2    0  502 -0.25305774919E+02 -0.84024060601E+01 -0.40096583107E+01  0.26964050727E+02  0.00000000000E+00 0.  1.
<mgrwt>
<rscale>  1 0.85114015E+02</rscale>
<asrwt>0</asrwt>
<pdfrwt beam="1">  1       21 0.17979229E-01 0.85114015E+02</pdfrwt>
<pdfrwt beam="2">  1       -1 0.50264533E-02 0.85114015E+02</pdfrwt>
<totfact> 0.40410882E+05</totfact>
</mgrwt>
</event>
<event>
 6    2  0.7993170E+000  0.9585955E+02  0.7546771E-02  0.1289252E+00
         21   -1    0    0  501  502  0.00000000000E+00  0.00000000000E+00  0.38924505893E+01  0.38924505893E+01  0.00000000000E+00 0. -1.
          2   -1    0    0  502    0 -0.00000000000E+00 -0.00000000000E+00 -0.15467573161E+04  0.15467573161E+04  0.00000000000E+00 0. -1.
         24    2    1    2    0    0  0.15929558719E+02  0.48923714612E+02 -0.12146287019E+04  0.12184054894E+04  0.80881224147E+02 0.  0.
        -11    1    3    3    0    0 -0.34572079812E+01  0.40290450375E+02 -0.22864830966E+03  0.23219673165E+03  0.00000000000E+00 0.  1.
         12    1    3    3    0    0  0.19386766700E+02  0.86332642367E+01 -0.98598039220E+03  0.98620875771E+03  0.00000000000E+00 0. -1.
          1    1    1    2  501    0 -0.15929558719E+02 -0.48923714612E+02 -0.32823616367E+03  0.33224427736E+03  0.00000000000E+00 0. -1.
<mgrwt>
<rscale>  1 0.95859549E+02</rscale>
<asrwt>0</asrwt>
<pdfrwt beam="1">  1       21 0.59883828E-03 0.95859549E+02</pdfrwt>
<pdfrwt beam="2">  1        2 0.23796277E+00 0.95859549E+02</pdfrwt>
<totfact> 0.13466231E+06</totfact>
</mgrwt>
</event>
<event>
 6    2  0.7993170E+000  0.1042618E+03  0.7546771E-02  0.1271581E+00
         21   -1    0    0  501  502  0.00000000000E+00  0.00000000000E+00  0.40182387698E+02  0.40182387698E+02  0.00000000000E+00 0. -1.
          2   -1    0    0  502    0 -0.00000000000E+00 -0.00000000000E+00 -0.18403303816E+03  0.18403303816E+03  0.00000000000E+00 0. -1.
         24    2    1    2    0    0  0.64638897170E+02  0.12498815073E+02 -0.10396989807E+03  0.14724217195E+03  0.80846212594E+02 0.  0.
        -11    1    3    3    0    0  0.50821519451E+02  0.10330363923E+02 -0.11709260008E+03  0.12806334468E+03  0.00000000000E+00 0.  1.
         12    1    3    3    0    0  0.13817377719E+02  0.21684511499E+01  0.13122702009E+02  0.19178827270E+02  0.00000000000E+00 0. -1.
          1    1    1    2  501    0 -0.64638897170E+02 -0.12498815073E+02 -0.39880752395E+02  0.76973253908E+02  0.00000000000E+00 0. -1.
<mgrwt>
<rscale>  1 0.10426177E+03</rscale>
<asrwt>0</asrwt>
<pdfrwt beam="1">  1       21 0.61819058E-02 0.10426177E+03</pdfrwt>
<pdfrwt beam="2">  1        2 0.28312775E-01 0.10426177E+03</pdfrwt>
<totfact> 0.41381445E+05</totfact>
</mgrwt>
</event>
<event>
 6    2  0.7993170E+000  0.8599637E+02  0.7546771E-02  0.1312847E+00
         21   -1    0    0  501  502  0.00000000000E+00  0.00000000000E+00  0.66505313606E+01  0.66505313606E+01  0.00000000000E+00 0.  1.
          2   -1    0    0  502    0 -0.00000000000E+00 -0.00000000000E+00 -0.53926419853E+03  0.53926419853E+03  0.00000000000E+00 0. -1.
         24    2    1    2    0    0  0.14043025721E+02 -0.23196845071E+02 -0.46810191802E+03  0.47593569038E+03  0.81609285807E+02 0.  0.
        -11    1    3    3    0    0 -0.24905202168E+02 -0.19449535483E+02 -0.82355442444E+02  0.88209820461E+02  0.00000000000E+00 0.  1.
         12    1    3    3    0    0  0.38948227889E+02 -0.37473095877E+01 -0.38574647558E+03  0.38772586992E+03  0.00000000000E+00 0. -1.
          1    1    1    2  501    0 -0.14043025721E+02  0.23196845071E+02 -0.64511749149E+02  0.69979039511E+02  0.00000000000E+00 0. -1.
<mgrwt>
<rscale>  1 0.85996370E+02</rscale>
<asrwt>0</asrwt>
<pdfrwt beam="1">  1       21 0.10231582E-02 0.85996370E+02</pdfrwt>
<pdfrwt beam="2">  1        2 0.82963758E-01 0.85996370E+02</pdfrwt>
<totfact> 0.23913388E+06</totfact>
</mgrwt>
</event>
<event>
 6    2  0.7993170E+000  0.8885075E+02  0.7546771E-02  0.1305659E+00
         21   -1    0    0  501  502  0.00000000000E+00  0.00000000000E+00  0.87417943582E+02  0.87417943582E+02  0.00000000000E+00 0. -1.
          2   -1    0    0  502    0 -0.00000000000E+00 -0.00000000000E+00 -0.57470490546E+02  0.57470490546E+02  0.00000000000E+00 0. -1.
         24    2    1    2    0    0  0.25570403888E+02  0.20041982368E+02 -0.14300178880E+02  0.89994176302E+02  0.82697823672E+02 0.  0.
        -11    1    3    3    0    0  0.47359871183E+02  0.20074457040E+02  0.14906459540E+02  0.53555053543E+02  0.00000000000E+00 0.  1.
         12    1    3    3    0    0 -0.21789467296E+02 -0.32474672214E-01 -0.29206638420E+02  0.36439122759E+02  0.00000000000E+00 0. -1.
          1    1    1    2  501    0 -0.25570403888E+02 -0.20041982368E+02  0.44247631915E+02  0.54894257826E+02  0.00000000000E+00 0. -1.
<mgrwt>
<rscale>  1 0.88850755E+02</rscale>
<asrwt>0</asrwt>
<pdfrwt beam="1">  1       21 0.13448914E-01 0.88850755E+02</pdfrwt>
<pdfrwt beam="2">  1        2 0.88416140E-02 0.88850755E+02</pdfrwt>
<totfact> 0.40770427E+05</totfact>
</mgrwt>
</event>
<event>
 6    2  0.7993170E+000  0.8421409E+02  0.7546771E-02  0.1317501E+00
         21   -1    0    0  501  502  0.00000000000E+00  0.00000000000E+00  0.74501747745E+03  0.74501747745E+03  0.00000000000E+00 0.  1.
         -3   -1    0    0    0  501 -0.00000000000E+00 -0.00000000000E+00 -0.60567061622E+02  0.60567061622E+02  0.00000000000E+00 0.  1.
         24    2    1    2    0    0  0.19744791274E+02 -0.79845681361E+01 -0.31058427422E+02  0.89758781727E+02  0.81476394572E+02 0.  0.
        -13    1    3    3    0    0  0.21754886001E+02  0.22620853091E+02 -0.45964512505E+02  0.55657115172E+02  0.00000000000E+00 0.  1.
         14    1    3    3    0    0 -0.20100947265E+01 -0.30605421227E+02  0.14906085083E+02  0.34101666555E+02  0.00000000000E+00 0. -1.
         -4    1    1    2    0  502 -0.19744791274E+02  0.79845681361E+01  0.71550884325E+03  0.71582575734E+03  0.00000000000E+00 0.  1.
<mgrwt>
<rscale>  1 0.84214090E+02</rscale>
<asrwt>0</asrwt>
<pdfrwt beam="1">  1       21 0.11461807E+00 0.84214090E+02</pdfrwt>
<pdfrwt beam="2">  1       -3 0.93180100E-02 0.84214090E+02</pdfrwt>
<totfact> 0.24081689E+03</totfact>
</mgrwt>
</event>
<event>
 6    2  0.7993170E+000  0.8372097E+02  0.7546771E-02  0.1318812E+00
         21   -1    0    0  501  502  0.00000000000E+00  0.00000000000E+00  0.30097999174E+02  0.30097999174E+02  0.00000000000E+00 0.  1.
          2   -1    0    0  502    0 -0.00000000000E+00 -0.00000000000E+00 -0.19961396727E+03  0.19961396727E+03  0.00000000000E+00 0. -1.
         24    2    1    2    0    0  0.22991389371E+01 -0.20329469401E+02 -0.18565144590E+03  0.20365573859E+03  0.81182677541E+02 0.  0.
        -11    1    3    3    0    0 -0.57273281953E+01 -0.45395846873E+01  0.70426015676E+01  0.10149303140E+02  0.00000000000E+00 0.  1.
         12    1    3    3    0    0  0.80264671325E+01 -0.15789884714E+02 -0.19269404746E+03  0.19350643545E+03  0.00000000000E+00 0. -1.
          1    1    1    2  501    0 -0.22991389371E+01  0.20329469401E+02  0.16135477800E+02  0.26056227851E+02  0.00000000000E+00 0. -1.
<mgrwt>
<rscale>  1 0.83720968E+02</rscale>
<asrwt>0</asrwt>
<pdfrwt beam="1">  1       21 0.46304614E-02 0.83720968E+02</pdfrwt>
<pdfrwt beam="2">  1        2 0.30709841E-01 0.83720968E+02</pdfrwt>
<totfact> 0.60317998E+05</totfact>
</mgrwt>
</event>
<event>
 6    2  0.7993170E+000  0.8423247E+02  0.7546771E-02  0.1317452E+00
         21   -1    0    0  501  502  0.00000000000E+00  0.00000000000E+00  0.25604439014E+03  0.25604439014E+03  0.00000000000E+00 0.  1.
         -1   -1    0    0    0  501 -0.00000000000E+00 -0.00000000000E+00 -0.48133532407E+02  0.48133532407E+02  0.00000000000E+00 0.  1.
         24    2    1    2    0    0  0.25381824154E+02  0.29902843834E+01 -0.99545094403E+01  0.84818635049E+02  0.80261633395E+02 0.  0.
        -11    1    3    3    0    0  0.43923351254E+02  0.18253629530E+02 -0.27622296865E+02  0.55004064035E+02  0.00000000000E+00 0.  1.
         12    1    3    3    0    0 -0.18541527100E+02 -0.15263345146E+02  0.17667787424E+02  0.29814571013E+02  0.00000000000E+00 0. -1.
         -2    1    1    2    0  502 -0.25381824154E+02 -0.29902843834E+01  0.21786536717E+03  0.21935928750E+03  0.00000000000E+00 0.  1.
<mgrwt>
<rscale>  1 0.84232468E+02</rscale>
<asrwt>0</asrwt>
<pdfrwt beam="1">  1       21 0.39391444E-01 0.84232468E+02</pdfrwt>
<pdfrwt beam="2">  1       -1 0.74051589E-02 0.84232468E+02</pdfrwt>
<totfact> 0.52106372E+04</totfact>
</mgrwt>
</event>
<event>
 6    2  0.7993170E+000  0.8423002E+02  0.7546771E-02  0.1317458E+00
         21   -1    0    0  501  502  0.00000000000E+00  0.00000000000E+00  0.58617780907E+02  0.58617780907E+02  0.00000000000E+00 0.  1.
          2   -1    0    0  502    0 -0.00000000000E+00 -0.00000000000E+00 -0.52680235290E+02  0.52680235290E+02  0.00000000000E+00 0. -1.
         24    2    1    2    0    0  0.24560233651E+02  0.10382060179E+02  0.76625639632E+01  0.84577837701E+02  0.79898081912E+02 0.  0.
        -13    1    3    3    0    0 -0.85347296221E+00 -0.63120371227E+01  0.39817080783E+02  0.40323320186E+02  0.00000000000E+00 0.  1.
         14    1    3    3    0    0  0.25413706613E+02  0.16694097302E+02 -0.32154516820E+02  0.44254517515E+02  0.00000000000E+00 0. -1.
          1    1    1    2  501    0 -0.24560233651E+02 -0.10382060179E+02 -0.17250183462E+01  0.26720178496E+02  0.00000000000E+00 0. -1.
<mgrwt>
<rscale>  1 0.84230017E+02</rscale>
<asrwt>0</asrwt>
<pdfrwt beam="1">  1       21 0.90181201E-02 0.84230017E+02</pdfrwt>
<pdfrwt beam="2">  1        2 0.81046516E-02 0.84230017E+02</pdfrwt>
<totfact> 0.90553995E+05</totfact>
</mgrwt>
</event>
<event>
 6    2  0.7993170E+000  0.8327201E+02  0.7546771E-02  0.1320014E+00
         21   -1    0    0  501  502  0.00000000000E+00  0.00000000000E+00  0.12346862831E+03  0.12346862831E+03  0.00000000000E+00 0.  1.
         -3   -1    0    0    0  501 -0.00000000000E+00 -0.00000000000E+00 -0.22061577331E+02  0.22061577331E+02  0.00000000000E+00 0.  1.
         24    2    1    2    0    0 -0.20063554898E+02  0.45265669543E+01  0.75081134276E+02  0.11212227344E+03  0.80691953961E+02 0.  0.
        -13    1    3    3    0    0 -0.38007957096E+02 -0.18695773596E+02  0.14436592693E+02  0.44749882252E+02  0.00000000000E+00 0.  1.
         14    1    3    3    0    0  0.17944402198E+02  0.23222340550E+02  0.60644541583E+02  0.67372391190E+02  0.00000000000E+00 0. -1.
         -4    1    1    2    0  502  0.20063554898E+02 -0.45265669543E+01  0.26325916700E+02  0.33407932197E+02  0.00000000000E+00 0.  1.
<mgrwt>
<rscale>  1 0.83272009E+02</rscale>
<asrwt>0</asrwt>
<pdfrwt beam="1">  1       21 0.18995173E-01 0.83272009E+02</pdfrwt>
<pdfrwt beam="2">  1       -3 0.33940889E-02 0.83272009E+02</pdfrwt>
<totfact> 0.46469909E+05</totfact>
</mgrwt>
</event>
<event>
 6    2  0.7993170E+000  0.8427211E+02  0.7546771E-02  0.1317347E+00
         -1   -1    0    0    0  501 -0.00000000000E+00  0.00000000000E+00  0.56930031186E+02  0.56930031186E+02  0.00000000000E+00 0.  1.
         21   -1    0    0  501  502  0.00000000000E+00 -0.00000000000E+00 -0.50904899822E+02  0.50904899822E+02  0.00000000000E+00 0. -1.
         24    2    1    2    0    0 -0.99042627690E+00  0.23216635164E+02  0.71127141420E+01  0.84571742730E+02  0.81004912650E+02 0.  0.
        -13    1    3    3    0    0  0.35572551225E+02  0.16421421421E+02  0.21506299647E+02  0.44694411359E+02  0.00000000000E+00 0.  1.
         14    1    3    3    0    0 -0.36562977502E+02  0.67952137425E+01 -0.14393585505E+02  0.39877331372E+02  0.00000000000E+00 0. -1.
         -2    1    1    2    0  502  0.99042627690E+00 -0.23216635164E+02 -0.10875827775E+01  0.23263188278E+02  0.00000000000E+00 0.  1.
<mgrwt>
<rscale>  1 0.84272113E+02</rscale>
<asrwt>0</asrwt>
<pdfrwt beam="1">  1       21 0.78315230E-02 0.84272113E+02</pdfrwt>
<pdfrwt beam="2">  1       -1 0.87584664E-02 0.84272113E+02</pdfrwt>
<totfact> 0.76234235E+05</totfact>
</mgrwt>
</event>
<event>
 6    2  0.7993170E+000  0.1069687E+03  0.7546771E-02  0.1266289E+00
          2   -1    0    0  502    0 -0.00000000000E+00  0.00000000000E+00  0.24702214020E+04  0.24702214020E+04  0.00000000000E+00 0. -1.
         21   -1    0    0  501  502  0.00000000000E+00 -0.00000000000E+00 -0.29155172664E+01  0.29155172664E+01  0.00000000000E+00 0.  1.
         24    2    1    2    0    0 -0.21465542123E+02 -0.56768781537E+02  0.13807304482E+04  0.13848678150E+04  0.88084222981E+02 0.  0.
        -13    1    3    3    0    0  0.37709855829E+01 -0.54894909359E+02  0.12736391512E+04  0.12748271879E+04  0.00000000000E+00 0.  1.
         14    1    3    3    0    0 -0.25236527706E+02 -0.18738721772E+01  0.10709129700E+03  0.11004062714E+03  0.00000000000E+00 0. -1.
          1    1    1    2  501    0  0.21465542123E+02  0.56768781537E+02  0.10865754366E+04  0.10882691043E+04  0.00000000000E+00 0. -1.
<mgrwt>
<rscale>  1 0.10696866E+03</rscale>
<asrwt>0</asrwt>
<pdfrwt beam="1">  1       21 0.44854309E-03 0.10696866E+03</pdfrwt>
<pdfrwt beam="2">  1        2 0.38003239E+00 0.10696866E+03</pdfrwt>
<totfact> 0.71410453E+05</totfact>
</mgrwt>
</event>
<event>
 6    2  0.7993170E+000  0.8387332E+02  0.7546771E-02  0.1318405E+00
         21   -1    0    0  501  502  0.00000000000E+00  0.00000000000E+00  0.16927965920E+02  0.16927965920E+02  0.00000000000E+00 0. -1.
         -1   -1    0    0    0  501 -0.00000000000E+00 -0.00000000000E+00 -0.19312989434E+03  0.19312989434E+03  0.00000000000E+00 0.  1.
         24    2    1    2    0    0  0.22038948514E+02  0.96430301361E+01 -0.10201103086E+03  0.13206431846E+03  0.80349427570E+02 0.  0.
        -13    1    3    3    0    0 -0.22483107518E+02  0.63644537068E+01 -0.77895264366E+02  0.81324464986E+02  0.00000000000E+00 0.  1.
         14    1    3    3    0    0  0.44522056032E+02  0.32785764293E+01 -0.24115766491E+02  0.50739853470E+02  0.00000000000E+00 0. -1.
         -2    1    1    2    0  502 -0.22038948514E+02 -0.96430301361E+01 -0.74190897559E+02  0.77993541800E+02  0.00000000000E+00 0.  1.
<mgrwt>
<rscale>  1 0.83873320E+02</rscale>
<asrwt>0</asrwt>
<pdfrwt beam="1">  1       21 0.26043025E-02 0.83873320E+02</pdfrwt>
<pdfrwt beam="2">  1       -1 0.29712291E-01 0.83873320E+02</pdfrwt>
<totfact> 0.69849774E+05</totfact>
</mgrwt>
</event>
<event>
 6    2  0.7993170E+000  0.1107832E+03  0.7546771E-02  0.1259126E+00
          2   -1    0    0  502    0 -0.00000000000E+00  0.00000000000E+00  0.24988373423E+03  0.24988373423E+03  0.00000000000E+00 0. -1.
         21   -1    0    0  501  502  0.00000000000E+00 -0.00000000000E+00 -0.35433036398E+02  0.35433036398E+02  0.00000000000E+00 0. -1.
         24    2    1    2    0    0  0.58138326421E+02 -0.47927921910E+02  0.10650696494E+03  0.15367711031E+03  0.81214345746E+02 0.  0.
        -13    1    3    3    0    0  0.26990756453E+02 -0.50359325279E+02  0.18135313168E+02  0.59945409834E+02  0.00000000000E+00 0.  1.
         14    1    3    3    0    0  0.31147569968E+02  0.24314033696E+01  0.88371651772E+02  0.93731700476E+02  0.00000000000E+00 0. -1.
          1    1    1    2  501    0 -0.58138326421E+02  0.47927921910E+02  0.10794373289E+03  0.13163966031E+03  0.00000000000E+00 0. -1.
<mgrwt>
<rscale>  1 0.11078321E+03</rscale>
<asrwt>0</asrwt>
<pdfrwt beam="1">  1       21 0.54512365E-02 0.11078321E+03</pdfrwt>
<pdfrwt beam="2">  1        2 0.38443650E-01 0.11078321E+03</pdfrwt>
<totfact> 0.37066143E+05</totfact>
</mgrwt>
</event>
<event>
 6    2  0.7993170E+000  0.8334435E+02  0.7546771E-02  0.1319820E+00
          2   -1    0    0  502    0 -0.00000000000E+00  0.00000000000E+00  0.32302713215E+04  0.32302713215E+04  0.00000000000E+00 0. -1.
         21   -1    0    0  501  502  0.00000000000E+00 -0.00000000000E+00 -0.95600998919E+00  0.95600998919E+00  0.00000000000E+00 0. -1.
         24    2    1    2    0    0 -0.10053866064E+02 -0.19210222118E+02  0.29009300393E+04  0.29021270430E+04  0.80474642815E+02 0.  0.
        -11    1    3    3    0    0 -0.15910960683E+02  0.29265135020E+02  0.14259464759E+04  0.14263355001E+04  0.00000000000E+00 0.  1.
         12    1    3    3    0    0  0.58570946190E+01 -0.48475357138E+02  0.14749835634E+04  0.14757915429E+04  0.00000000000E+00 0. -1.
          1    1    1    2  501    0  0.10053866064E+02  0.19210222118E+02  0.32838527217E+03  0.32910028842E+03  0.00000000000E+00 0. -1.
<mgrwt>
<rscale>  1 0.83344352E+02</rscale>
<asrwt>0</asrwt>
<pdfrwt beam="1">  1       21 0.14708105E-03 0.83344352E+02</pdfrwt>
<pdfrwt beam="2">  1        2 0.49695608E+00 0.83344352E+02</pdfrwt>
<totfact> 0.14408886E+06</totfact>
</mgrwt>
</event>
<event>
 6    2  0.7993170E+000  0.9052928E+02  0.7546771E-02  0.1301575E+00
         21   -1    0    0  501  502  0.00000000000E+00  0.00000000000E+00  0.66196640506E+01  0.66196640506E+01  0.00000000000E+00 0.  1.
          2   -1    0    0  502    0 -0.00000000000E+00 -0.00000000000E+00 -0.50482008918E+03  0.50482008918E+03  0.00000000000E+00 0. -1.
         24    2    1    2    0    0  0.21337408238E+02  0.31384218423E+01 -0.34290508580E+03  0.35465398506E+03  0.87922787562E+02 0.  0.
        -13    1    3    3    0    0  0.50607247855E+02 -0.73321561111E+01 -0.13357799569E+03  0.14303123778E+03  0.00000000000E+00 0.  1.
         14    1    3    3    0    0 -0.29269839617E+02  0.10470577953E+02 -0.20932709010E+03  0.21162274728E+03  0.00000000000E+00 0. -1.
          1    1    1    2  501    0 -0.21337408238E+02 -0.31384218423E+01 -0.15529533933E+03  0.15678576816E+03  0.00000000000E+00 0. -1.
<mgrwt>
<rscale>  1 0.90529284E+02</rscale>
<asrwt>0</asrwt>
<pdfrwt beam="1">  1       21 0.10184096E-02 0.90529284E+02</pdfrwt>
<pdfrwt beam="2">  1        2 0.77664650E-01 0.90529284E+02</pdfrwt>
<totfact> 0.26039823E+06</totfact>
</mgrwt>
</event>
<event>
 6    2  0.7993170E+000  0.8279269E+02  0.7546771E-02  0.1321308E+00
         21   -1    0    0  501  502  0.00000000000E+00  0.00000000000E+00  0.94356853394E+03  0.94356853394E+03  0.00000000000E+00 0. -1.
         -1   -1    0    0    0  501 -0.00000000000E+00 -0.00000000000E+00 -0.32414204081E+01  0.32414204081E+01  0.00000000000E+00 0.  1.
         24    2    1    2    0    0 -0.87730803663E+00 -0.27413082453E+02  0.73896494636E+03  0.74358847633E+03  0.78117753589E+02 0.  0.
        -13    1    3    3    0    0 -0.24883768628E+02 -0.16634429414E+02  0.10788654607E+03  0.11196165864E+03  0.00000000000E+00 0.  1.
         14    1    3    3    0    0  0.24006460592E+02 -0.10778653039E+02  0.63107840029E+03  0.63162681769E+03  0.00000000000E+00 0. -1.
         -2    1    1    2    0  502  0.87730803663E+00  0.27413082453E+02  0.20136216717E+03  0.20322147802E+03  0.00000000000E+00 0.  1.
<mgrwt>
<rscale>  1 0.82792694E+02</rscale>
<asrwt>0</asrwt>
<pdfrwt beam="1">  1       21 0.14516417E+00 0.82792694E+02</pdfrwt>
<pdfrwt beam="2">  1       -1 0.49868081E-03 0.82792694E+02</pdfrwt>
<totfact> 0.13883634E+05</totfact>
</mgrwt>
</event>
<event>
 6    2  0.7993170E+000  0.8908729E+02  0.7546771E-02  0.1305077E+00
         21   -1    0    0  501  502  0.00000000000E+00  0.00000000000E+00  0.11888759391E+03  0.11888759391E+03  0.00000000000E+00 0.  1.
         -1   -1    0    0    0  501 -0.00000000000E+00 -0.00000000000E+00 -0.23859746470E+03  0.23859746470E+03  0.00000000000E+00 0.  1.
         24    2    1    2    0    0  0.22710590064E+02  0.29588002929E+02 -0.22702174157E+03  0.24387582294E+03  0.80903183202E+02 0.  0.
        -13    1    3    3    0    0  0.24967690256E+02  0.56655240183E+02 -0.15584651863E+03  0.16769418346E+03  0.00000000000E+00 0.  1.
         14    1    3    3    0    0 -0.22571001921E+01 -0.27067237254E+02 -0.71175222944E+02  0.76181639487E+02  0.00000000000E+00 0. -1.
         -2    1    1    2    0  502 -0.22710590064E+02 -0.29588002929E+02  0.10731187078E+03  0.11360923566E+03  0.00000000000E+00 0.  1.
<mgrwt>
<rscale>  1 0.89087294E+02</rscale>
<asrwt>0</asrwt>
<pdfrwt beam="1">  1       21 0.18290399E-01 0.89087294E+02</pdfrwt>
<pdfrwt beam="2">  1       -1 0.36707302E-01 0.89087294E+02</pdfrwt>
<totfact> 0.17930502E+04</totfact>
</mgrwt>
</event>
<event>
 6    2  0.7993170E+000  0.8611157E+02  0.7546771E-02  0.1312551E+00
         -1   -1    0    0    0  501 -0.00000000000E+00  0.00000000000E+00  0.40388836546E+03  0.40388836546E+03  0.00000000000E+00 0.  1.
         21   -1    0    0  501  502  0.00000000000E+00 -0.00000000000E+00 -0.84679551514E+01  0.84679551514E+01  0.00000000000E+00 0. -1.
         24    2    1    2    0    0 -0.13686044722E+02 -0.20351898328E+02  0.35304705009E+03  0.36339705957E+03  0.82545113362E+02 0.  0.
        -13    1    3    3    0    0 -0.43527245535E+01  0.24257664241E+02  0.24355092293E+03  0.24479467426E+03  0.00000000000E+00 0.  1.
         14    1    3    3    0    0 -0.93333201688E+01 -0.44609562569E+02  0.10949612716E+03  0.11860238531E+03  0.00000000000E+00 0. -1.
         -2    1    1    2    0  502  0.13686044722E+02  0.20351898328E+02  0.42373360221E+02  0.48959261046E+02  0.00000000000E+00 0.  1.
<mgrwt>
<rscale>  1 0.86111575E+02</rscale>
<asrwt>0</asrwt>
<pdfrwt beam="1">  1       21 0.13027626E-02 0.86111575E+02</pdfrwt>
<pdfrwt beam="2">  1       -1 0.62136657E-01 0.86111575E+02</pdfrwt>
<totfact> 0.57660560E+05</totfact>
</mgrwt>
</event>
<event>
 6    2  0.7993170E+000  0.8365279E+02  0.7546771E-02  0.1318994E+00
         21   -1    0    0  501  502  0.00000000000E+00  0.00000000000E+00  0.31484818010E+01  0.31484818010E+01  0.00000000000E+00 0. -1.
         -1   -1    0    0    0  501 -0.00000000000E+00 -0.00000000000E+00 -0.87739852003E+03  0.87739852003E+03  0.00000000000E+00 0.  1.
         24    2    1    2    0    0  0.65566990542E+01 -0.20077220712E+02 -0.66765812669E+03  0.67287826801E+03  0.80942598978E+02 0.  0.
        -11    1    3    3    0    0  0.42926540004E+02 -0.73325763270E+01 -0.41813242233E+03  0.42039407360E+03  0.00000000000E+00 0.  1.
         12    1    3    3    0    0 -0.36369840950E+02 -0.12744644385E+02 -0.24952570436E+03  0.25248419441E+03  0.00000000000E+00 0. -1.
         -2    1    1    2    0  502 -0.65566990542E+01  0.20077220712E+02 -0.20659191154E+03  0.20766873382E+03  0.00000000000E+00 0.  1.
<mgrwt>
<rscale>  1 0.83652791E+02</rscale>
<asrwt>0</asrwt>
<pdfrwt beam="1">  1       21 0.48438149E-03 0.83652791E+02</pdfrwt>
<pdfrwt beam="2">  1       -1 0.13498448E+00 0.83652791E+02</pdfrwt>
<totfact> 0.51155451E+05</totfact>
</mgrwt>
</event>
<event>
 6    2  0.7993170E+000  0.1087375E+03  0.7546771E-02  0.1262926E+00
         21   -1    0    0  501  502  0.00000000000E+00  0.00000000000E+00  0.29755136841E+01  0.29755136841E+01  0.00000000000E+00 0. -1.
          2   -1    0    0  502    0 -0.00000000000E+00 -0.00000000000E+00 -0.43262134751E+04  0.43262134751E+04  0.00000000000E+00 0. -1.
         24    2    1    2    0    0 -0.52648416792E+02 -0.49369328481E+02 -0.37288456159E+04  0.37304307347E+04  0.81330517300E+02 0.  0.
        -13    1    3    3    0    0 -0.23409394463E+02 -0.29461755300E+02 -0.50833857421E+03  0.50972943882E+03  0.00000000000E+00 0.  1.
         14    1    3    3    0    0 -0.29239022329E+02 -0.19907573181E+02 -0.32205070417E+04  0.32207012959E+04  0.00000000000E+00 0. -1.
          1    1    1    2  501    0  0.52648416792E+02  0.49369328481E+02 -0.59439234549E+03  0.59875825402E+03  0.00000000000E+00 0. -1.
<mgrwt>
<rscale>  1 0.10873748E+03</rscale>
<asrwt>0</asrwt>
<pdfrwt beam="1">  1       21 0.45776922E-03 0.10873748E+03</pdfrwt>
<pdfrwt beam="2">  1        2 0.66557438E+00 0.10873748E+03</pdfrwt>
<totfact> 0.44128660E+04</totfact>
</mgrwt>
</event>
<event>
 6    2  0.7993170E+000  0.1006292E+03  0.7546771E-02  0.1278978E+00
         21   -1    0    0  501  502  0.00000000000E+00  0.00000000000E+00  0.92244255959E+03  0.92244255959E+03  0.00000000000E+00 0. -1.
          4   -1    0    0  502    0 -0.00000000000E+00 -0.00000000000E+00 -0.87324549663E+01  0.87324549663E+01  0.00000000000E+00 0. -1.
         24    2    1    2    0    0 -0.37011115309E+02 -0.47336835464E+02  0.34724641525E+03  0.36153327625E+03  0.80719503715E+02 0.  0.
        -11    1    3    3    0    0 -0.19110378746E+02  0.60344777366E+00  0.25760555599E+03  0.25831413667E+03  0.00000000000E+00 0.  1.
         12    1    3    3    0    0 -0.17900736563E+02 -0.47940283238E+02  0.89640859266E+02  0.10321913958E+03  0.00000000000E+00 0. -1.
          3    1    1    2  501    0  0.37011115309E+02  0.47336835464E+02  0.56646368937E+03  0.56964173830E+03  0.00000000000E+00 0. -1.
<mgrwt>
<rscale>  1 0.10062921E+03</rscale>
<asrwt>0</asrwt>
<pdfrwt beam="1">  1       21 0.14191416E+00 0.10062921E+03</pdfrwt>
<pdfrwt beam="2">  1        4 0.13434553E-02 0.10062921E+03</pdfrwt>
<totfact> 0.26210814E+04</totfact>
</mgrwt>
</event>
<event>
 6    2  0.7993170E+000  0.9059630E+02  0.7546771E-02  0.1301414E+00
         -1   -1    0    0    0  501 -0.00000000000E+00  0.00000000000E+00  0.34247535950E+03  0.34247535950E+03  0.00000000000E+00 0.  1.
         21   -1    0    0  501  502  0.00000000000E+00 -0.00000000000E+00 -0.15994481281E+03  0.15994481281E+03  0.00000000000E+00 0.  1.
         24    2    1    2    0    0  0.15602185629E+02 -0.38693403843E+02  0.33360660362E+03  0.34568924786E+03  0.80418172135E+02 0.  0.
        -11    1    3    3    0    0 -0.57499342777E+01 -0.39037451578E+02  0.31471023111E+03  0.31717426430E+03  0.00000000000E+00 0.  1.
         12    1    3    3    0    0  0.21352119906E+02  0.34404773511E+00  0.18896372514E+02  0.28514983562E+02  0.00000000000E+00 0. -1.
         -2    1    1    2    0  502 -0.15602185629E+02  0.38693403843E+02 -0.15107605694E+03  0.15673092445E+03  0.00000000000E+00 0.  1.
<mgrwt>
<rscale>  1 0.90596303E+02</rscale>
<asrwt>0</asrwt>
<pdfrwt beam="1">  1       21 0.24606894E-01 0.90596303E+02</pdfrwt>
<pdfrwt beam="2">  1       -1 0.52688517E-01 0.90596303E+02</pdfrwt>
<totfact> 0.54891128E+03</totfact>
</mgrwt>
</event>
<event>
 6    2  0.7993170E+000  0.8383325E+02  0.7546771E-02  0.1318512E+00
          2   -1    0    0  502    0 -0.00000000000E+00  0.00000000000E+00  0.15003133710E+03  0.15003133710E+03  0.00000000000E+00 0. -1.
         21   -1    0    0  501  502  0.00000000000E+00 -0.00000000000E+00 -0.73677011901E+02  0.73677011901E+02  0.00000000000E+00 0. -1.
         24    2    1    2    0    0 -0.46727375376E+01 -0.21161869633E+02  0.13627083655E+03  0.15999298560E+03  0.80983673323E+02 0.  0.
        -11    1    3    3    0    0  0.10884856377E+02  0.17050426382E+02  0.29603934003E+01  0.20444096147E+02  0.00000000000E+00 0.  1.
         12    1    3    3    0    0 -0.15557593915E+02 -0.38212296015E+02  0.13331044314E+03  0.13954888945E+03  0.00000000000E+00 0. -1.
          1    1    1    2  501    0  0.46727375376E+01  0.21161869633E+02 -0.59916511344E+02  0.63715363407E+02  0.00000000000E+00 0. -1.
<mgrwt>
<rscale>  1 0.83833254E+02</rscale>
<asrwt>0</asrwt>
<pdfrwt beam="1">  1       21 0.11334925E-01 0.83833254E+02</pdfrwt>
<pdfrwt beam="2">  1        2 0.23081744E-01 0.83833254E+02</pdfrwt>
<totfact> 0.17983948E+05</totfact>
</mgrwt>
</event>
<event>
 6    2  0.7993170E+000  0.1196263E+03  0.7546771E-02  0.1243715E+00
         21   -1    0    0  501  502  0.00000000000E+00  0.00000000000E+00  0.72872412604E+02  0.72872412604E+02  0.00000000000E+00 0.  1.
          2   -1    0    0  502    0 -0.00000000000E+00 -0.00000000000E+00 -0.16291015664E+03  0.16291015664E+03  0.00000000000E+00 0. -1.
         24    2    1    2    0    0  0.83946908949E+02 -0.36199068599E+02 -0.79781559034E+02  0.14378993138E+03  0.77155629190E+02 0.  0.
        -11    1    3    3    0    0  0.71183805277E+02 -0.52165578819E+02 -0.35698894105E+02  0.95198701607E+02  0.00000000000E+00 0.  1.
         12    1    3    3    0    0  0.12763103672E+02  0.15966510220E+02 -0.44082664929E+02  0.48591229777E+02  0.00000000000E+00 0. -1.
          1    1    1    2  501    0 -0.83946908949E+02  0.36199068599E+02 -0.10256185002E+02  0.91992637860E+02  0.00000000000E+00 0. -1.
<mgrwt>
<rscale>  1 0.11962628E+03</rscale>
<asrwt>0</asrwt>
<pdfrwt beam="1">  1       21 0.11211141E-01 0.11962628E+03</pdfrwt>
<pdfrwt beam="2">  1        2 0.25063101E-01 0.11962628E+03</pdfrwt>
<totfact> 0.17096149E+05</totfact>
</mgrwt>
</event>
<event>
 6    2  0.7993170E+000  0.8881998E+02  0.7546771E-02  0.1305735E+00
         21   -1    0    0  501  502  0.00000000000E+00  0.00000000000E+00  0.53341409497E+02  0.53341409497E+02  0.00000000000E+00 0. -1.
         -1   -1    0    0    0  501 -0.00000000000E+00 -0.00000000000E+00 -0.83284747406E+02  0.83284747406E+02  0.00000000000E+00 0.  1.
         24    2    1    2    0    0  0.35908566372E+02 -0.75695557275E+01 -0.41658119820E+02  0.98103962937E+02  0.80884270932E+02 0.  0.
        -13    1    3    3    0    0  0.14441110896E+02  0.31223635700E+02 -0.41319409703E+02  0.53765739356E+02  0.00000000000E+00 0.  1.
         14    1    3    3    0    0  0.21467455476E+02 -0.38793191428E+02 -0.33871011756E+00  0.44338223581E+02  0.00000000000E+00 0. -1.
         -2    1    1    2    0  502 -0.35908566372E+02  0.75695557275E+01  0.11714781911E+02  0.38522193967E+02  0.00000000000E+00 0.  1.
<mgrwt>
<rscale>  1 0.88819979E+02</rscale>
<asrwt>0</asrwt>
<pdfrwt beam="1">  1       21 0.82063707E-02 0.88819979E+02</pdfrwt>
<pdfrwt beam="2">  1       -1 0.12813038E-01 0.88819979E+02</pdfrwt>
<totfact> 0.39821991E+05</totfact>
</mgrwt>
</event>
<event>
 6    2  0.7993170E+000  0.1075197E+03  0.7546771E-02  0.1265233E+00
         21   -1    0    0  501  502  0.00000000000E+00  0.00000000000E+00  0.21601127889E+02  0.21601127889E+02  0.00000000000E+00 0. -1.
          2   -1    0    0  502    0 -0.00000000000E+00 -0.00000000000E+00 -0.36998541016E+03  0.36998541016E+03  0.00000000000E+00 0. -1.
         24    2    1    2    0    0 -0.53744404528E+02  0.43096036850E+02 -0.24246562312E+03  0.26523586822E+03  0.82551547433E+02 0.  0.
        -11    1    3    3    0    0  0.12952895524E+02  0.36444703869E+02 -0.66409943365E+02  0.76852290274E+02  0.00000000000E+00 0.  1.
         12    1    3    3    0    0 -0.66697300052E+02  0.66513329806E+01 -0.17605567975E+03  0.18838357794E+03  0.00000000000E+00 0. -1.
          1    1    1    2  501    0  0.53744404528E+02 -0.43096036850E+02 -0.10591865915E+03  0.12635066983E+03  0.00000000000E+00 0. -1.
<mgrwt>
<rscale>  1 0.10751971E+03</rscale>
<asrwt>0</asrwt>
<pdfrwt beam="1">  1       21 0.33232507E-02 0.10751971E+03</pdfrwt>
<pdfrwt beam="2">  1        2 0.56920827E-01 0.10751971E+03</pdfrwt>
<totfact> 0.55611208E+05</totfact>
</mgrwt>
</event>
<event>
 6    2  0.7993170E+000  0.8554528E+02  0.7546771E-02  0.1314013E+00
          2   -1    0    0  502    0 -0.00000000000E+00  0.00000000000E+00  0.89186713610E+03  0.89186713610E+03  0.00000000000E+00 0. -1.
         21   -1    0    0  501  502  0.00000000000E+00 -0.00000000000E+00 -0.38114982817E+01  0.38114982817E+01  0.00000000000E+00 0.  1.
         24    2    1    2    0    0 -0.28705721865E+02  0.89545273143E+01  0.60218332389E+03  0.60822919205E+03  0.80086156488E+02 0.  0.
        -13    1    3    3    0    0 -0.42974243726E+02  0.84932906585E+01  0.16210814275E+03  0.16792251652E+03  0.00000000000E+00 0.  1.
         14    1    3    3    0    0  0.14268521860E+02  0.46123665584E+00  0.44007518114E+03  0.44030667552E+03  0.00000000000E+00 0. -1.
          1    1    1    2  501    0  0.28705721865E+02 -0.89545273143E+01  0.28587231393E+03  0.28744944234E+03  0.00000000000E+00 0. -1.
<mgrwt>
<rscale>  1 0.85545277E+02</rscale>
<asrwt>0</asrwt>
<pdfrwt beam="1">  1       21 0.58638506E-03 0.85545277E+02</pdfrwt>
<pdfrwt beam="2">  1        2 0.13721016E+00 0.85545277E+02</pdfrwt>
<totfact> 0.31462453E+06</totfact>
</mgrwt>
</event>
<event>
 6    2  0.7993170E+000  0.8279391E+02  0.7546771E-02  0.1321305E+00
          4   -1    0    0  502    0 -0.00000000000E+00  0.00000000000E+00  0.10646878535E+03  0.10646878535E+03  0.00000000000E+00 0. -1.
         21   -1    0    0  501  502  0.00000000000E+00 -0.00000000000E+00 -0.31506905859E+02  0.31506905859E+02  0.00000000000E+00 0. -1.
         24    2    1    2    0    0  0.21933186989E+02  0.39326752769E+01  0.80000695827E+02  0.11513011622E+03  0.79738959751E+02 0.  0.
        -11    1    3    3    0    0 -0.16693333735E+02  0.10878081950E+02 -0.58233761474E+01  0.20758414387E+02  0.00000000000E+00 0.  1.
         12    1    3    3    0    0  0.38626520724E+02 -0.69454066730E+01  0.85824071975E+02  0.94371701836E+02  0.00000000000E+00 0. -1.
          3    1    1    2  501    0 -0.21933186989E+02 -0.39326752769E+01 -0.50388163373E+01  0.22845574985E+02  0.00000000000E+00 0. -1.
<mgrwt>
<rscale>  1 0.82793915E+02</rscale>
<asrwt>0</asrwt>
<pdfrwt beam="1">  1       21 0.48472163E-02 0.82793915E+02</pdfrwt>
<pdfrwt beam="2">  1        4 0.16379813E-01 0.82793915E+02</pdfrwt>
<totfact> 0.33239669E+05</totfact>
</mgrwt>
</event>
<event>
 6    2  0.7993170E+000  0.8579254E+02  0.7546771E-02  0.1313373E+00
         21   -1    0    0  501  502  0.00000000000E+00  0.00000000000E+00  0.12540253026E+03  0.12540253026E+03  0.00000000000E+00 0.  1.
          2   -1    0    0  502    0 -0.00000000000E+00 -0.00000000000E+00 -0.29177565883E+02  0.29177565883E+02  0.00000000000E+00 0. -1.
         24    2    1    2    0    0  0.13174306418E+01  0.28446245678E+02  0.91994407673E+02  0.12579082511E+03  0.80928586557E+02 0.  0.
        -13    1    3    3    0    0 -0.49519803085E+00  0.46378239832E+02  0.96626731107E+02  0.10718167528E+03  0.00000000000E+00 0.  1.
         14    1    3    3    0    0  0.18126286727E+01 -0.17931994154E+02 -0.46323234346E+01  0.18609149831E+02  0.00000000000E+00 0. -1.
          1    1    1    2  501    0 -0.13174306418E+01 -0.28446245678E+02  0.42305567056E+01  0.28789271035E+02  0.00000000000E+00 0. -1.
<mgrwt>
<rscale>  1 0.85792544E+02</rscale>
<asrwt>0</asrwt>
<pdfrwt beam="1">  1       21 0.19292697E-01 0.85792544E+02</pdfrwt>
<pdfrwt beam="2">  1        2 0.44888564E-02 0.85792544E+02</pdfrwt>
<totfact> 0.50096941E+05</totfact>
</mgrwt>
</event>
<event>
 6    2  0.7993170E+000  0.9772528E+02  0.7546771E-02  0.1285153E+00
         21   -1    0    0  501  502  0.00000000000E+00  0.00000000000E+00  0.20434685873E+02  0.20434685873E+02  0.00000000000E+00 0. -1.
          2   -1    0    0  502    0 -0.00000000000E+00 -0.00000000000E+00 -0.32024673310E+03  0.32024673310E+03  0.00000000000E+00 0. -1.
         24    2    1    2    0    0  0.54440101632E+02  0.46514715538E+00 -0.24338862418E+03  0.26227514565E+03  0.81155952459E+02 0.  0.
        -11    1    3    3    0    0 -0.10233804210E+02 -0.48822344724E+01 -0.10376477187E+01  0.11386117637E+02  0.00000000000E+00 0.  1.
         12    1    3    3    0    0  0.64673905843E+02  0.53473816278E+01 -0.24235097646E+03  0.25088902802E+03  0.00000000000E+00 0. -1.
          1    1    1    2  501    0 -0.54440101632E+02 -0.46514715538E+00 -0.56423423045E+02  0.78406273319E+02  0.00000000000E+00 0. -1.
<mgrwt>
<rscale>  1 0.97725276E+02</rscale>
<asrwt>0</asrwt>
<pdfrwt beam="1">  1       21 0.31437981E-02 0.97725276E+02</pdfrwt>
<pdfrwt beam="2">  1        2 0.49268724E-01 0.97725276E+02</pdfrwt>
<totfact> 0.70313306E+05</totfact>
</mgrwt>
</event>
<event>
 6    2  0.7993170E+000  0.8334920E+02  0.7546771E-02  0.1319807E+00
         21   -1    0    0  501  502  0.00000000000E+00  0.00000000000E+00  0.17914745505E+03  0.17914745505E+03  0.00000000000E+00 0. -1.
         -3   -1    0    0    0  501 -0.00000000000E+00 -0.00000000000E+00 -0.17456304757E+02  0.17456304757E+02  0.00000000000E+00 0.  1.
         24    2    1    2    0    0  0.17713291442E+02 -0.12220320205E+02  0.94276793371E+02  0.12583800228E+03  0.80523239684E+02 0.  0.
        -11    1    3    3    0    0  0.35932604011E+02  0.23527625097E+02  0.53846607214E+02  0.68877850447E+02  0.00000000000E+00 0.  1.
         12    1    3    3    0    0 -0.18219312569E+02 -0.35747945303E+02  0.40430186157E+02  0.56960151831E+02  0.00000000000E+00 0. -1.
         -4    1    1    2    0  502 -0.17713291442E+02  0.12220320205E+02  0.67414356917E+02  0.70765757525E+02  0.00000000000E+00 0.  1.
<mgrwt>
<rscale>  1 0.83349199E+02</rscale>
<asrwt>0</asrwt>
<pdfrwt beam="1">  1       21 0.27561146E-01 0.83349199E+02</pdfrwt>
<pdfrwt beam="2">  1       -3 0.26855855E-02 0.83349199E+02</pdfrwt>
<totfact> 0.33381716E+05</totfact>
</mgrwt>
</event>
<event>
 6    2  0.7993170E+000  0.8744949E+02  0.7546771E-02  0.1309148E+00
          2   -1    0    0  502    0 -0.00000000000E+00  0.00000000000E+00  0.37339777433E+02  0.37339777433E+02  0.00000000000E+00 0. -1.
         21   -1    0    0  501  502  0.00000000000E+00 -0.00000000000E+00 -0.15240138866E+03  0.15240138866E+03  0.00000000000E+00 0.  1.
         24    2    1    2    0    0 -0.53696093995E+01  0.34494748628E+02 -0.21751027182E+02  0.90113933456E+02  0.80179133392E+02 0.  0.
        -13    1    3    3    0    0 -0.44668302730E+01  0.26628367944E+02 -0.52136805273E+02  0.58713448341E+02  0.00000000000E+00 0.  1.
         14    1    3    3    0    0 -0.90277912652E+00  0.78663806837E+01  0.30385778091E+02  0.31400485115E+02  0.00000000000E+00 0. -1.
          1    1    1    2  501    0  0.53696093995E+01 -0.34494748628E+02 -0.93310584050E+02  0.99627232641E+02  0.00000000000E+00 0. -1.
<mgrwt>
<rscale>  1 0.87449493E+02</rscale>
<asrwt>0</asrwt>
<pdfrwt beam="1">  1       21 0.23446367E-01 0.87449493E+02</pdfrwt>
<pdfrwt beam="2">  1        2 0.57445813E-02 0.87449493E+02</pdfrwt>
<totfact> 0.25529688E+05</totfact>
</mgrwt>
</event>
<event>
 6    2  0.7993170E+000  0.1043335E+03  0.7546771E-02  0.1271438E+00
         -1   -1    0    0    0  501 -0.00000000000E+00  0.00000000000E+00  0.21336352811E+03  0.21336352811E+03  0.00000000000E+00 0.  1.
         21   -1    0    0  501  502  0.00000000000E+00 -0.00000000000E+00 -0.50956588846E+02  0.50956588846E+02  0.00000000000E+00 0.  1.
         24    2    1    2    0    0 -0.61340977337E+02 -0.27803726958E+02  0.16689428123E+03  0.19682271722E+03  0.79685118907E+02 0.  0.
        -13    1    3    3    0    0 -0.53952349546E+02 -0.54310594123E+02  0.12872359889E+03  0.14976735814E+03  0.00000000000E+00 0.  1.
         14    1    3    3    0    0 -0.73886277904E+01  0.26506867165E+02  0.38170682342E+02  0.47055359078E+02  0.00000000000E+00 0. -1.
         -2    1    1    2    0  502  0.61340977337E+02  0.27803726958E+02 -0.44873419602E+01  0.67497399737E+02  0.00000000000E+00 0.  1.
<mgrwt>
<rscale>  1 0.10433351E+03</rscale>
<asrwt>0</asrwt>
<pdfrwt beam="1">  1       21 0.78394753E-02 0.10433351E+03</pdfrwt>
<pdfrwt beam="2">  1       -1 0.32825158E-01 0.10433351E+03</pdfrwt>
<totfact> 0.96836097E+04</totfact>
</mgrwt>
</event>
<event>
 6    2  0.7993170E+000  0.8913821E+02  0.7546771E-02  0.1304952E+00
         21   -1    0    0  501  502  0.00000000000E+00  0.00000000000E+00  0.36693533791E+01  0.36693533791E+01  0.00000000000E+00 0.  1.
          2   -1    0    0  502    0 -0.00000000000E+00 -0.00000000000E+00 -0.12884199016E+04  0.12884199016E+04  0.00000000000E+00 0. -1.
         24    2    1    2    0    0  0.34724006114E+02 -0.24471024509E+01 -0.11281693680E+04  0.11316853557E+04  0.82060200196E+02 0.  0.
        -13    1    3    3    0    0  0.22976939926E+01 -0.24490896191E+01 -0.32382120840E+00  0.33737661183E+01  0.00000000000E+00 0.  1.
         14    1    3    3    0    0  0.32426312122E+02  0.19871682537E-02 -0.11278455468E+04  0.11283115896E+04  0.00000000000E+00 0. -1.
          1    1    1    2  501    0 -0.34724006114E+02  0.24471024509E+01 -0.15658118023E+03  0.16040389931E+03  0.00000000000E+00 0. -1.
<mgrwt>
<rscale>  1 0.89138215E+02</rscale>
<asrwt>0</asrwt>
<pdfrwt beam="1">  1       21 0.56451579E-03 0.89138215E+02</pdfrwt>
<pdfrwt beam="2">  1        2 0.19821849E+00 0.89138215E+02</pdfrwt>
<totfact> 0.19961714E+06</totfact>
</mgrwt>
</event>
<event>
 6    2  0.7993170E+000  0.1107950E+03  0.7546771E-02  0.1259105E+00
         -1   -1    0    0    0  501 -0.00000000000E+00  0.00000000000E+00  0.20925909077E+02  0.20925909077E+02  0.00000000000E+00 0.  1.
         21   -1    0    0  501  502  0.00000000000E+00 -0.00000000000E+00 -0.52809318580E+03  0.52809318580E+03  0.00000000000E+00 0.  1.
         24    2    1    2    0    0  0.63274315283E+02 -0.43484890483E+02 -0.16781758610E+03  0.20109268427E+03  0.79880853687E+02 0.  0.
        -13    1    3    3    0    0  0.53373413387E+02 -0.66697429812E+02 -0.12526924901E+03  0.15162339248E+03  0.00000000000E+00 0.  1.
         14    1    3    3    0    0  0.99009018962E+01  0.23212539329E+02 -0.42548337093E+02  0.49469291786E+02  0.00000000000E+00 0. -1.
         -2    1    1    2    0  502 -0.63274315283E+02  0.43484890483E+02 -0.33934969062E+03  0.34792641061E+03  0.00000000000E+00 0.  1.
<mgrwt>
<rscale>  1 0.11079497E+03</rscale>
<asrwt>0</asrwt>
<pdfrwt beam="1">  1       21 0.81245106E-01 0.11079497E+03</pdfrwt>
<pdfrwt beam="2">  1       -1 0.32193706E-02 0.11079497E+03</pdfrwt>
<totfact> 0.39274578E+04</totfact>
</mgrwt>
</event>
<event>
 6    2  0.7993170E+000  0.8595278E+02  0.7546771E-02  0.1312960E+00
         21   -1    0    0  501  502  0.00000000000E+00  0.00000000000E+00  0.37884427489E+01  0.37884427489E+01  0.00000000000E+00 0.  1.
          2   -1    0    0  502    0 -0.00000000000E+00 -0.00000000000E+00 -0.90525314922E+03  0.90525314922E+03  0.00000000000E+00 0. -1.
         24    2    1    2    0    0 -0.30767960334E+02  0.45737949838E+01 -0.67506442636E+03  0.68051440799E+03  0.80126729369E+02 0.  0.
        -11    1    3    3    0    0  0.67343012223E+01  0.21374548709E+02 -0.59509486486E+02  0.63589316141E+02  0.00000000000E+00 0.  1.
         12    1    3    3    0    0 -0.37502261557E+02 -0.16800753725E+02 -0.61555493988E+03  0.61692509185E+03  0.00000000000E+00 0. -1.
          1    1    1    2  501    0  0.30767960334E+02 -0.45737949838E+01 -0.22640028010E+03  0.22852718397E+03  0.00000000000E+00 0. -1.
<mgrwt>
<rscale>  1 0.85952776E+02</rscale>
<asrwt>0</asrwt>
<pdfrwt beam="1">  1       21 0.58283774E-03 0.85952776E+02</pdfrwt>
<pdfrwt beam="2">  1        2 0.13926962E+00 0.85952776E+02</pdfrwt>
<totfact> 0.31174776E+06</totfact>
</mgrwt>
</event>
<event>
 6    2  0.7993170E+000  0.9407678E+02  0.7546771E-02  0.1293269E+00
         21   -1    0    0  501  502  0.00000000000E+00  0.00000000000E+00  0.11770314261E+04  0.11770314261E+04  0.00000000000E+00 0.  1.
          4   -1    0    0  502    0 -0.00000000000E+00 -0.00000000000E+00 -0.54996439960E+01  0.54996439960E+01  0.00000000000E+00 0. -1.
         24    2    1    2    0    0  0.43473629947E+02 -0.48993162389E+02  0.76375289432E+03  0.76952512851E+03  0.67528907638E+02 0.  0.
        -13    1    3    3    0    0  0.18985062304E+02  0.33853940761E+01  0.45477460256E+03  0.45518329563E+03  0.00000000000E+00 0.  1.
         14    1    3    3    0    0  0.24488567643E+02 -0.52378556465E+02  0.30897829176E+03  0.31434183288E+03  0.00000000000E+00 0. -1.
          3    1    1    2  501    0 -0.43473629947E+02  0.48993162389E+02  0.40777888778E+03  0.41300594158E+03  0.00000000000E+00 0. -1.
<mgrwt>
<rscale>  1 0.94076776E+02</rscale>
<asrwt>0</asrwt>
<pdfrwt beam="1">  1       21 0.18108156E+00 0.94076776E+02</pdfrwt>
<pdfrwt beam="2">  1        4 0.84610001E-03 0.94076776E+02</pdfrwt>
<totfact> 0.27535701E+04</totfact>
</mgrwt>
</event>
<event>
 6    2  0.7993170E+000  0.8525435E+02  0.7546771E-02  0.1314769E+00
         21   -1    0    0  501  502  0.00000000000E+00  0.00000000000E+00  0.49978454657E+01  0.49978454657E+01  0.00000000000E+00 0. -1.
          2   -1    0    0  502    0 -0.00000000000E+00 -0.00000000000E+00 -0.94323776989E+03  0.94323776989E+03  0.00000000000E+00 0. -1.
         24    2    1    2    0    0 -0.25178396748E+02 -0.36728681673E+01 -0.38129898191E+03  0.39071372783E+03  0.81368678768E+02 0.  0.
        -13    1    3    3    0    0  0.25863101409E+01  0.33931740552E+02 -0.10191455548E+03  0.10744593355E+03  0.00000000000E+00 0.  1.
         14    1    3    3    0    0 -0.27764706889E+02 -0.37604608719E+02 -0.27938442643E+03  0.28326779428E+03  0.00000000000E+00 0. -1.
          1    1    1    2  501    0  0.25178396748E+02  0.36728681673E+01 -0.55694094251E+03  0.55752188753E+03  0.00000000000E+00 0. -1.
<mgrwt>
<rscale>  1 0.85254346E+02</rscale>
<asrwt>0</asrwt>
<pdfrwt beam="1">  1       21 0.76889926E-03 0.85254346E+02</pdfrwt>
<pdfrwt beam="2">  1        2 0.14511351E+00 0.85254346E+02</pdfrwt>
<totfact> 0.19261864E+06</totfact>
</mgrwt>
</event>
<event>
 6    2  0.7993170E+000  0.8028543E+02  0.7546771E-02  0.1328243E+00
          2   -1    0    0  502    0 -0.00000000000E+00  0.00000000000E+00  0.13534924700E+04  0.13534924700E+04  0.00000000000E+00 0. -1.
         21   -1    0    0  501  502  0.00000000000E+00 -0.00000000000E+00 -0.21654353104E+01  0.21654353104E+01  0.00000000000E+00 0.  1.
         24    2    1    2    0    0 -0.25570727126E+02  0.40435358937E+01  0.89361000841E+03  0.89720933850E+03  0.75996958392E+02 0.  0.
        -11    1    3    3    0    0 -0.11790670755E+02 -0.16167614201E+02  0.60163552740E+02  0.63403980507E+02  0.00000000000E+00 0.  1.
         12    1    3    3    0    0 -0.13780056371E+02  0.20211150095E+02  0.83344645567E+03  0.83380535799E+03  0.00000000000E+00 0. -1.
          1    1    1    2  501    0  0.25570727126E+02 -0.40435358937E+01  0.45771702630E+03  0.45844856683E+03  0.00000000000E+00 0. -1.
<mgrwt>
<rscale>  1 0.80285428E+02</rscale>
<asrwt>0</asrwt>
<pdfrwt beam="1">  1       21 0.33314498E-03 0.80285428E+02</pdfrwt>
<pdfrwt beam="2">  1        2 0.20822893E+00 0.80285428E+02</pdfrwt>
<totfact> 0.40820355E+06</totfact>
</mgrwt>
</event>
<event>
 6    2  0.7993170E+000  0.1019365E+03  0.7546771E-02  0.1276276E+00
         21   -1    0    0  501  502  0.00000000000E+00  0.00000000000E+00  0.23876038986E+02  0.23876038986E+02  0.00000000000E+00 0.  1.
          2   -1    0    0  502    0 -0.00000000000E+00 -0.00000000000E+00 -0.28316144922E+03  0.28316144922E+03  0.00000000000E+00 0. -1.
         24    2    1    2    0    0 -0.57375825197E+02  0.24634051879E+02 -0.15639366102E+03  0.18668162468E+03  0.80574375310E+02 0.  0.
        -11    1    3    3    0    0 -0.47616528034E+02 -0.12400836343E+02 -0.37773568550E+02  0.62031902801E+02  0.00000000000E+00 0.  1.
         12    1    3    3    0    0 -0.97592971628E+01  0.37034888223E+02 -0.11862009247E+03  0.12464972188E+03  0.00000000000E+00 0. -1.
          1    1    1    2  501    0  0.57375825197E+02 -0.24634051879E+02 -0.10289174921E+03  0.12035586352E+03  0.00000000000E+00 0. -1.
<mgrwt>
<rscale>  1 0.10193651E+03</rscale>
<asrwt>0</asrwt>
<pdfrwt beam="1">  1       21 0.36732368E-02 0.10193651E+03</pdfrwt>
<pdfrwt beam="2">  1        2 0.43563300E-01 0.10193651E+03</pdfrwt>
<totfact> 0.62218230E+05</totfact>
</mgrwt>
</event>
<event>
 6    2  0.7993170E+000  0.8418102E+02  0.7546771E-02  0.1317588E+00
         21   -1    0    0  501  502  0.00000000000E+00  0.00000000000E+00  0.59239784558E+02  0.59239784558E+02  0.00000000000E+00 0.  1.
         -1   -1    0    0    0  501 -0.00000000000E+00 -0.00000000000E+00 -0.55026129376E+02  0.55026129376E+02  0.00000000000E+00 0.  1.
         24    2    1    2    0    0  0.28742776314E+01  0.22595416594E+02 -0.13699452667E+02  0.85288444137E+02  0.81040911748E+02 0.  0.
        -13    1    3    3    0    0  0.32077200134E+02  0.33605546365E+02  0.81821727023E+01  0.47172316723E+02  0.00000000000E+00 0.  1.
         14    1    3    3    0    0 -0.29202922502E+02 -0.11010129771E+02 -0.21881625369E+02  0.38116127414E+02  0.00000000000E+00 0. -1.
         -2    1    1    2    0  502 -0.28742776314E+01 -0.22595416594E+02  0.17913107850E+02  0.28977469797E+02  0.00000000000E+00 0.  1.
<mgrwt>
<rscale>  1 0.84181017E+02</rscale>
<asrwt>0</asrwt>
<pdfrwt beam="1">  1       21 0.91138130E-02 0.84181017E+02</pdfrwt>
<pdfrwt beam="2">  1       -1 0.84655584E-02 0.84181017E+02</pdfrwt>
<totfact> 0.61877179E+05</totfact>
</mgrwt>
</event>
<event>
 6    2  0.7993170E+000  0.8621906E+02  0.7546771E-02  0.1312275E+00
         21   -1    0    0  501  502  0.00000000000E+00  0.00000000000E+00  0.65648576997E+02  0.65648576997E+02  0.00000000000E+00 0. -1.
          2   -1    0    0  502    0 -0.00000000000E+00 -0.00000000000E+00 -0.84238880701E+02  0.84238880701E+02  0.00000000000E+00 0. -1.
         24    2    1    2    0    0  0.26082183674E+02 -0.61068549821E+01 -0.56782514996E+02  0.10323749536E+03  0.81952135149E+02 0.  0.
        -13    1    3    3    0    0 -0.16521451958E+02  0.20408549508E+02  0.15343527722E+01  0.26302500000E+02  0.00000000000E+00 0.  1.
         14    1    3    3    0    0  0.42603635632E+02 -0.26515404490E+02 -0.58316867769E+02  0.76934995358E+02  0.00000000000E+00 0. -1.
          1    1    1    2  501    0 -0.26082183674E+02  0.61068549821E+01  0.38192211292E+02  0.46649962340E+02  0.00000000000E+00 0. -1.
<mgrwt>
<rscale>  1 0.86219061E+02</rscale>
<asrwt>0</asrwt>
<pdfrwt beam="1">  1       21 0.10099781E-01 0.86219061E+02</pdfrwt>
<pdfrwt beam="2">  1        2 0.12959828E-01 0.86219061E+02</pdfrwt>
<totfact> 0.42391873E+05</totfact>
</mgrwt>
</event>
<event>
 6    2  0.7993170E+000  0.8244630E+02  0.7546771E-02  0.1322249E+00
          2   -1    0    0  502    0 -0.00000000000E+00  0.00000000000E+00  0.33632935999E+03  0.33632935999E+03  0.00000000000E+00 0. -1.
         21   -1    0    0  501  502  0.00000000000E+00 -0.00000000000E+00 -0.94268138950E+01  0.94268138950E+01  0.00000000000E+00 0.  1.
         24    2    1    2    0    0 -0.13443952668E+02 -0.25356085214E+02  0.21598778309E+03  0.23118848396E+03  0.77289855441E+02 0.  0.
        -13    1    3    3    0    0 -0.77593927228E+01  0.17864634980E+01 -0.43766729695E+01  0.90859723496E+01  0.00000000000E+00 0.  1.
         14    1    3    3    0    0 -0.56845599451E+01 -0.27142548712E+02  0.22036445605E+03  0.22210251161E+03  0.00000000000E+00 0. -1.
          1    1    1    2  501    0  0.13443952668E+02  0.25356085214E+02  0.11091476301E+03  0.11456768992E+03  0.00000000000E+00 0. -1.
<mgrwt>
<rscale>  1 0.82446302E+02</rscale>
<asrwt>0</asrwt>
<pdfrwt beam="1">  1       21 0.14502793E-02 0.82446302E+02</pdfrwt>
<pdfrwt beam="2">  1        2 0.51742969E-01 0.82446302E+02</pdfrwt>
<totfact> 0.22686747E+06</totfact>
</mgrwt>
</event>
<event>
 6    2  0.7993170E+000  0.8508204E+02  0.7546771E-02  0.1315218E+00
          2   -1    0    0  502    0 -0.00000000000E+00  0.00000000000E+00  0.31284030542E+02  0.31284030542E+02  0.00000000000E+00 0. -1.
         21   -1    0    0  501  502  0.00000000000E+00 -0.00000000000E+00 -0.11275308862E+03  0.11275308862E+03  0.00000000000E+00 0.  1.
         24    2    1    2    0    0  0.27768725406E+02  0.93008239314E+01 -0.76332999874E+02  0.11430520819E+03  0.79883329375E+02 0.  0.
        -11    1    3    3    0    0  0.46207547878E+01 -0.11710625141E+02 -0.81632245967E+02  0.82597298367E+02  0.00000000000E+00 0.  1.
         12    1    3    3    0    0  0.23147970618E+02  0.21011449073E+02  0.52992460932E+01  0.31707909818E+02  0.00000000000E+00 0. -1.
          1    1    1    2  501    0 -0.27768725406E+02 -0.93008239314E+01 -0.51360582043E+01  0.29731910977E+02  0.00000000000E+00 0. -1.
<mgrwt>
<rscale>  1 0.85082041E+02</rscale>
<asrwt>0</asrwt>
<pdfrwt beam="1">  1       21 0.17346629E-01 0.85082041E+02</pdfrwt>
<pdfrwt beam="2">  1        2 0.48129277E-02 0.85082041E+02</pdfrwt>
<totfact> 0.55460393E+05</totfact>
</mgrwt>
</event>
<event>
 6    2  0.7993170E+000  0.8287225E+02  0.7546771E-02  0.1321092E+00
          2   -1    0    0  502    0 -0.00000000000E+00  0.00000000000E+00  0.30388242478E+04  0.30388242478E+04  0.00000000000E+00 0. -1.
         21   -1    0    0  501  502  0.00000000000E+00 -0.00000000000E+00 -0.11333261148E+01  0.11333261148E+01  0.00000000000E+00 0. -1.
         24    2    1    2    0    0 -0.19622581843E+02  0.56940202607E+01  0.28409661905E+04  0.28421746438E+04  0.80314025615E+02 0.  0.
        -11    1    3    3    0    0  0.65115271824E+01 -0.85499999970E+01  0.54502859837E+02  0.55552355635E+02  0.00000000000E+00 0.  1.
         12    1    3    3    0    0 -0.26134109026E+02  0.14244020258E+02  0.27864633307E+04  0.27866222882E+04  0.00000000000E+00 0. -1.
          1    1    1    2  501    0  0.19622581843E+02 -0.56940202607E+01  0.19672473117E+03  0.19778293010E+03  0.00000000000E+00 0. -1.
<mgrwt>
<rscale>  1 0.82872253E+02</rscale>
<asrwt>0</asrwt>
<pdfrwt beam="1">  1       21 0.17436030E-03 0.82872253E+02</pdfrwt>
<pdfrwt beam="2">  1        2 0.46750490E+00 0.82872253E+02</pdfrwt>
<totfact> 0.14462120E+06</totfact>
</mgrwt>
</event>
<event>
 6    2  0.7993170E+000  0.1539077E+03  0.7546771E-02  0.1195752E+00
          2   -1    0    0  502    0 -0.00000000000E+00  0.00000000000E+00  0.24172946095E+04  0.24172946095E+04  0.00000000000E+00 0. -1.
         21   -1    0    0  501  502  0.00000000000E+00 -0.00000000000E+00 -0.92111411368E+01  0.92111411368E+01  0.00000000000E+00 0.  1.
         24    2    1    2    0    0 -0.94286025096E+02  0.90524991793E+02  0.92947803925E+03  0.94213428646E+03  0.81258597102E+02 0.  0.
        -11    1    3    3    0    0 -0.93838889084E+02  0.90216649651E+02  0.66312503962E+03  0.67578073304E+03  0.00000000000E+00 0.  1.
         12    1    3    3    0    0 -0.44713601171E+00  0.30834214214E+00  0.26635299963E+03  0.26635355341E+03  0.00000000000E+00 0. -1.
          1    1    1    2  501    0  0.94286025096E+02 -0.90524991793E+02  0.14786054291E+04  0.14843714642E+04  0.00000000000E+00 0. -1.
<mgrwt>
<rscale>  1 0.15390773E+03</rscale>
<asrwt>0</asrwt>
<pdfrwt beam="1">  1       21 0.14171006E-02 0.15390773E+03</pdfrwt>
<pdfrwt beam="2">  1        2 0.37189097E+00 0.15390773E+03</pdfrwt>
<totfact> 0.12574763E+05</totfact>
</mgrwt>
</event>
<event>
 6    2  0.7993170E+000  0.8752486E+02  0.7546771E-02  0.1308959E+00
         -1   -1    0    0    0  501 -0.00000000000E+00  0.00000000000E+00  0.31236671549E+03  0.31236671549E+03  0.00000000000E+00 0.  1.
         21   -1    0    0  501  502  0.00000000000E+00 -0.00000000000E+00 -0.16849144978E+02  0.16849144978E+02  0.00000000000E+00 0.  1.
         24    2    1    2    0    0  0.17759870623E+01 -0.31622236311E+02  0.28111049823E+03  0.29442098023E+03  0.81593390797E+02 0.  0.
        -13    1    3    3    0    0  0.25755463224E+02 -0.29199946169E+02  0.25836150490E+03  0.26127887009E+03  0.00000000000E+00 0.  1.
         14    1    3    3    0    0 -0.23979476162E+02 -0.24222901418E+01  0.22748993332E+02  0.33142110134E+02  0.00000000000E+00 0. -1.
         -2    1    1    2    0  502 -0.17759870623E+01  0.31622236311E+02  0.14407072279E+02  0.34794880241E+02  0.00000000000E+00 0.  1.
<mgrwt>
<rscale>  1 0.87524862E+02</rscale>
<asrwt>0</asrwt>
<pdfrwt beam="1">  1       21 0.25921764E-02 0.87524862E+02</pdfrwt>
<pdfrwt beam="2">  1       -1 0.48056413E-01 0.87524862E+02</pdfrwt>
<totfact> 0.30950792E+05</totfact>
</mgrwt>
</event>
<event>
 6    2  0.7993170E+000  0.8676822E+02  0.7546771E-02  0.1310872E+00
          2   -1    0    0  502    0 -0.00000000000E+00  0.00000000000E+00  0.63265390025E+03  0.63265390025E+03  0.00000000000E+00 0. -1.
         21   -1    0    0  501  502  0.00000000000E+00 -0.00000000000E+00 -0.91590453640E+01  0.91590453640E+01  0.00000000000E+00 0. -1.
         24    2    1    2    0    0  0.19662475348E+01  0.29128193054E+02  0.59403195723E+03  0.60033548067E+03  0.81709273535E+02 0.  0.
        -13    1    3    3    0    0 -0.86602874099E+01 -0.25914743543E+02  0.12414593629E+03  0.12711722153E+03  0.00000000000E+00 0.  1.
         14    1    3    3    0    0  0.10626534945E+02  0.55042936597E+02  0.46988602093E+03  0.47321825914E+03  0.00000000000E+00 0. -1.
          1    1    1    2  501    0 -0.19662475348E+01 -0.29128193054E+02  0.29462897662E+02  0.41477464949E+02  0.00000000000E+00 0. -1.
<mgrwt>
<rscale>  1 0.86768215E+02</rscale>
<asrwt>0</asrwt>
<pdfrwt beam="1">  1       21 0.14090844E-02 0.86768215E+02</pdfrwt>
<pdfrwt beam="2">  1        2 0.97331335E-01 0.86768215E+02</pdfrwt>
<totfact> 0.12128603E+06</totfact>
</mgrwt>
</event>
<event>
 6    2  0.7993170E+000  0.8392792E+02  0.7546771E-02  0.1318260E+00
         -3   -1    0    0    0  501 -0.00000000000E+00  0.00000000000E+00  0.39901913144E+03  0.39901913144E+03  0.00000000000E+00 0.  1.
         21   -1    0    0  501  502  0.00000000000E+00 -0.00000000000E+00 -0.79114279322E+01  0.79114279322E+01  0.00000000000E+00 0.  1.
         24    2    1    2    0    0 -0.25162067406E+02  0.10777741514E+02  0.26883179584E+03  0.28162817733E+03  0.79338555986E+02 0.  0.
        -11    1    3    3    0    0  0.19833641631E+02  0.68366562043E+01  0.20890126449E+02  0.29605921561E+02  0.00000000000E+00 0.  1.
         12    1    3    3    0    0 -0.44995709037E+02  0.39410853100E+01  0.24794166939E+03  0.25202225577E+03  0.00000000000E+00 0. -1.
         -4    1    1    2    0  502  0.25162067406E+02 -0.10777741514E+02  0.12227590767E+03  0.12530238204E+03  0.00000000000E+00 0.  1.
<mgrwt>
<rscale>  1 0.83927920E+02</rscale>
<asrwt>0</asrwt>
<pdfrwt beam="1">  1       21 0.12171431E-02 0.83927920E+02</pdfrwt>
<pdfrwt beam="2">  1       -3 0.61387543E-01 0.83927920E+02</pdfrwt>
<totfact> 0.31453015E+05</totfact>
</mgrwt>
</event>
<event>
 6    2  0.7993170E+000  0.8238279E+02  0.7546771E-02  0.1322422E+00
          2   -1    0    0  502    0 -0.00000000000E+00  0.00000000000E+00  0.67911425025E+03  0.67911425025E+03  0.00000000000E+00 0. -1.
         21   -1    0    0  501  502  0.00000000000E+00 -0.00000000000E+00 -0.84298807716E+01  0.84298807716E+01  0.00000000000E+00 0. -1.
         24    2    1    2    0    0  0.22539913229E+02  0.45440943249E+01  0.65391802606E+03  0.65908702728E+03  0.79108964382E+02 0.  0.
        -11    1    3    3    0    0  0.19856587776E+02  0.37231143868E+02  0.49644296806E+03  0.49823294019E+03  0.00000000000E+00 0.  1.
         12    1    3    3    0    0  0.26833254528E+01 -0.32687049543E+02  0.15747505800E+03  0.16085408710E+03  0.00000000000E+00 0. -1.
          1    1    1    2  501    0 -0.22539913229E+02 -0.45440943249E+01  0.16766343421E+02  0.28457103740E+02  0.00000000000E+00 0. -1.
<mgrwt>
<rscale>  1 0.82382794E+02</rscale>
<asrwt>0</asrwt>
<pdfrwt beam="1">  1       21 0.12969053E-02 0.82382794E+02</pdfrwt>
<pdfrwt beam="2">  1        2 0.10447907E+00 0.82382794E+02</pdfrwt>
<totfact> 0.12683211E+06</totfact>
</mgrwt>
</event>
<event>
 6    2  0.7993170E+000  0.8564141E+02  0.7546771E-02  0.1313764E+00
         -1   -1    0    0    0  501 -0.00000000000E+00  0.00000000000E+00  0.83111052682E+02  0.83111052682E+02  0.00000000000E+00 0.  1.
         21   -1    0    0  501  502  0.00000000000E+00 -0.00000000000E+00 -0.80261217252E+02  0.80261217252E+02  0.00000000000E+00 0.  1.
         24    2    1    2    0    0 -0.28094620166E+02 -0.10118993958E+02  0.56058322897E+02  0.10235715001E+03  0.80266735768E+02 0.  0.
        -11    1    3    3    0    0 -0.43306766848E+02 -0.59312528221E+01  0.69182358606E+02  0.81834311613E+02  0.00000000000E+00 0.  1.
         12    1    3    3    0    0  0.15212146682E+02 -0.41877411363E+01 -0.13124035709E+02  0.20522838395E+02  0.00000000000E+00 0. -1.
         -2    1    1    2    0  502  0.28094620166E+02  0.10118993958E+02 -0.53208487467E+02  0.61015119926E+02  0.00000000000E+00 0.  1.
<mgrwt>
<rscale>  1 0.85641407E+02</rscale>
<asrwt>0</asrwt>
<pdfrwt beam="1">  1       21 0.12347880E-01 0.85641407E+02</pdfrwt>
<pdfrwt beam="2">  1       -1 0.12786316E-01 0.85641407E+02</pdfrwt>
<totfact> 0.19617970E+05</totfact>
</mgrwt>
</event>
<event>
 6    2  0.7993170E+000  0.8460056E+02  0.7546771E-02  0.1316480E+00
          2   -1    0    0  502    0 -0.00000000000E+00  0.00000000000E+00  0.58438528796E+02  0.58438528796E+02  0.00000000000E+00 0. -1.
         21   -1    0    0  501  502  0.00000000000E+00 -0.00000000000E+00 -0.53671072969E+02  0.53671072969E+02  0.00000000000E+00 0. -1.
         24    2    1    2    0    0  0.69368999879E+01  0.23984053261E+02  0.13476388305E+02  0.85667194591E+02  0.80832541684E+02 0.  0.
        -11    1    3    3    0    0 -0.21014532102E+02 -0.85603789733E+01 -0.20779626111E+02  0.30768222388E+02  0.00000000000E+00 0.  1.
         12    1    3    3    0    0  0.27951432089E+02  0.32544432234E+02  0.34256014416E+02  0.54898972203E+02  0.00000000000E+00 0. -1.
          1    1    1    2  501    0 -0.69368999879E+01 -0.23984053261E+02 -0.87089324786E+01  0.26442407174E+02  0.00000000000E+00 0. -1.
<mgrwt>
<rscale>  1 0.84600563E+02</rscale>
<asrwt>0</asrwt>
<pdfrwt beam="1">  1       21 0.82570882E-02 0.84600563E+02</pdfrwt>
<pdfrwt beam="2">  1        2 0.89905428E-02 0.84600563E+02</pdfrwt>
<totfact> 0.92754131E+05</totfact>
</mgrwt>
</event>
<event>
 6    2  0.7993170E+000  0.8324575E+02  0.7546771E-02  0.1320085E+00
          2   -1    0    0  502    0 -0.00000000000E+00  0.00000000000E+00  0.56234326537E+02  0.56234326537E+02  0.00000000000E+00 0. -1.
         21   -1    0    0  501  502  0.00000000000E+00 -0.00000000000E+00 -0.74702232817E+02  0.74702232817E+02  0.00000000000E+00 0. -1.
         24    2    1    2    0    0 -0.35581180333E-01 -0.21176234788E+02  0.21259618964E+02  0.85917558390E+02  0.80507274549E+02 0.  0.
        -13    1    3    3    0    0  0.17033385262E+02  0.27108733348E+02  0.73425860177E+01  0.32847118696E+02  0.00000000000E+00 0.  1.
         14    1    3    3    0    0 -0.17068966442E+02 -0.48284968135E+02  0.13917032946E+02  0.53070439694E+02  0.00000000000E+00 0. -1.
          1    1    1    2  501    0  0.35581180333E-01  0.21176234788E+02 -0.39727525244E+02  0.45019000964E+02  0.00000000000E+00 0. -1.
<mgrwt>
<rscale>  1 0.83245753E+02</rscale>
<asrwt>0</asrwt>
<pdfrwt beam="1">  1       21 0.11492651E-01 0.83245753E+02</pdfrwt>
<pdfrwt beam="2">  1        2 0.86514349E-02 0.83245753E+02</pdfrwt>
<totfact> 0.54844122E+05</totfact>
</mgrwt>
</event>
<event>
 6    2  0.7993170E+000  0.8709181E+02  0.7546771E-02  0.1310051E+00
          2   -1    0    0  502    0 -0.00000000000E+00  0.00000000000E+00  0.43585410650E+03  0.43585410650E+03  0.00000000000E+00 0. -1.
         21   -1    0    0  501  502  0.00000000000E+00 -0.00000000000E+00 -0.37114308897E+02  0.37114308897E+02  0.00000000000E+00 0. -1.
         24    2    1    2    0    0 -0.29554696640E+02  0.16694978407E+02  0.42259770990E+03  0.43147862898E+03  0.80204616199E+02 0.  0.
        -13    1    3    3    0    0 -0.24769906747E+02  0.22513884608E+02  0.59238522140E+02  0.68041353497E+02  0.00000000000E+00 0.  1.
         14    1    3    3    0    0 -0.47847898937E+01 -0.58189062016E+01  0.36335918776E+03  0.36343727549E+03  0.00000000000E+00 0. -1.
          1    1    1    2  501    0  0.29554696640E+02 -0.16694978407E+02 -0.23857912296E+02  0.41489786413E+02  0.00000000000E+00 0. -1.
<mgrwt>
<rscale>  1 0.87091807E+02</rscale>
<asrwt>0</asrwt>
<pdfrwt beam="1">  1       21 0.57098940E-02 0.87091807E+02</pdfrwt>
<pdfrwt beam="2">  1        2 0.67054474E-01 0.87091807E+02</pdfrwt>
<totfact> 0.18815443E+05</totfact>
</mgrwt>
</event>
<event>
 6    2  0.7993170E+000  0.8605956E+02  0.7546771E-02  0.1312685E+00
         21   -1    0    0  501  502  0.00000000000E+00  0.00000000000E+00  0.87153102979E+02  0.87153102979E+02  0.00000000000E+00 0.  1.
          2   -1    0    0  502    0 -0.00000000000E+00 -0.00000000000E+00 -0.52014782942E+02  0.52014782942E+02  0.00000000000E+00 0. -1.
         24    2    1    2    0    0 -0.19754010195E+02  0.22688534778E+02  0.55895588583E+02  0.10261853946E+03  0.80630374482E+02 0.  0.
        -13    1    3    3    0    0 -0.11914466300E+02  0.14904381118E+01  0.73184443846E+02  0.74162920209E+02  0.00000000000E+00 0.  1.
         14    1    3    3    0    0 -0.78395438958E+01  0.21198096666E+02 -0.17288855263E+02  0.28455619253E+02  0.00000000000E+00 0. -1.
          1    1    1    2  501    0  0.19754010195E+02 -0.22688534778E+02 -0.20757268545E+02  0.36549346459E+02  0.00000000000E+00 0. -1.
<mgrwt>
<rscale>  1 0.86059560E+02</rscale>
<asrwt>0</asrwt>
<pdfrwt beam="1">  1       21 0.13408170E-01 0.86059560E+02</pdfrwt>
<pdfrwt beam="2">  1        2 0.80022743E-02 0.86059560E+02</pdfrwt>
<totfact> 0.46211460E+05</totfact>
</mgrwt>
</event>
<event>
 6    2  0.7993170E+000  0.9392936E+02  0.7546771E-02  0.1293606E+00
         21   -1    0    0  501  502  0.00000000000E+00  0.00000000000E+00  0.88070080620E+02  0.88070080620E+02  0.00000000000E+00 0. -1.
          2   -1    0    0  502    0 -0.00000000000E+00 -0.00000000000E+00 -0.85499718415E+02  0.85499718415E+02  0.00000000000E+00 0. -1.
         24    2    1    2    0    0 -0.80353543427E+01  0.43919304907E+02 -0.48518608634E+02  0.10572029495E+03  0.82639295243E+02 0.  0.
        -11    1    3    3    0    0  0.30599890561E+02 -0.55496826599E+01 -0.14278087412E+02  0.34220111924E+02  0.00000000000E+00 0.  1.
         12    1    3    3    0    0 -0.38635244903E+02  0.49468987567E+02 -0.34240521221E+02  0.71500183029E+02  0.00000000000E+00 0. -1.
          1    1    1    2  501    0  0.80353543427E+01 -0.43919304907E+02  0.51088970839E+02  0.67849504083E+02  0.00000000000E+00 0. -1.
<mgrwt>
<rscale>  1 0.93929364E+02</rscale>
<asrwt>0</asrwt>
<pdfrwt beam="1">  1       21 0.13549243E-01 0.93929364E+02</pdfrwt>
<pdfrwt beam="2">  1        2 0.13153803E-01 0.93929364E+02</pdfrwt>
<totfact> 0.25074518E+05</totfact>
</mgrwt>
</event>
<event>
 6    2  0.7993170E+000  0.8772960E+02  0.7546771E-02  0.1308445E+00
          2   -1    0    0  502    0 -0.00000000000E+00  0.00000000000E+00  0.89820116958E+03  0.89820116958E+03  0.00000000000E+00 0. -1.
         21   -1    0    0  501  502  0.00000000000E+00 -0.00000000000E+00 -0.40920120536E+01  0.40920120536E+01  0.00000000000E+00 0.  1.
         24    2    1    2    0    0 -0.33135868238E+02  0.45973798569E+01  0.66057934265E+03  0.66637943447E+03  0.81100931443E+02 0.  0.
        -11    1    3    3    0    0 -0.42593222349E+02  0.14714441918E+02  0.17847223041E+03  0.18407344843E+03  0.00000000000E+00 0.  1.
         12    1    3    3    0    0  0.94573541111E+01 -0.10117062061E+02  0.48210711225E+03  0.48230598604E+03  0.00000000000E+00 0. -1.
          1    1    1    2  501    0  0.33135868238E+02 -0.45973798569E+01  0.23352981487E+03  0.23591374716E+03  0.00000000000E+00 0. -1.
<mgrwt>
<rscale>  1 0.87729600E+02</rscale>
<asrwt>0</asrwt>
<pdfrwt beam="1">  1       21 0.62954103E-03 0.87729600E+02</pdfrwt>
<pdfrwt beam="2">  1        2 0.13818464E+00 0.87729600E+02</pdfrwt>
<totfact> 0.28029837E+06</totfact>
</mgrwt>
</event>
<event>
 6    2  0.7993170E+000  0.9498948E+02  0.7546771E-02  0.1291200E+00
          2   -1    0    0  502    0 -0.00000000000E+00  0.00000000000E+00  0.74739670337E+03  0.74739670337E+03  0.00000000000E+00 0. -1.
         21   -1    0    0  501  502  0.00000000000E+00 -0.00000000000E+00 -0.73113826845E+01  0.73113826845E+01  0.00000000000E+00 0.  1.
         24    2    1    2    0    0 -0.46397037417E+02 -0.20304168623E+02  0.54138022922E+03  0.54965039242E+03  0.80362036760E+02 0.  0.
        -11    1    3    3    0    0 -0.32322816092E+02  0.39746356419E+01  0.67555952385E+02  0.74995792357E+02  0.00000000000E+00 0.  1.
         12    1    3    3    0    0 -0.14074221325E+02 -0.24278804265E+02  0.47382427683E+03  0.47465460006E+03  0.00000000000E+00 0. -1.
          1    1    1    2  501    0  0.46397037417E+02  0.20304168623E+02  0.19870509147E+03  0.20505769363E+03  0.00000000000E+00 0. -1.
<mgrwt>
<rscale>  1 0.94989480E+02</rscale>
<asrwt>0</asrwt>
<pdfrwt beam="1">  1       21 0.11248287E-02 0.94989480E+02</pdfrwt>
<pdfrwt beam="2">  1        2 0.11498405E+00 0.94989480E+02</pdfrwt>
<totfact> 0.14373849E+06</totfact>
</mgrwt>
</event>
<event>
 6    2  0.7993170E+000  0.1495326E+03  0.7546771E-02  0.1201049E+00
          2   -1    0    0  502    0 -0.00000000000E+00  0.00000000000E+00  0.23491254007E+04  0.23491254007E+04  0.00000000000E+00 0. -1.
         21   -1    0    0  501  502  0.00000000000E+00 -0.00000000000E+00 -0.14467998228E+02  0.14467998228E+02  0.00000000000E+00 0.  1.
         24    2    1    2    0    0  0.28959179366E+02 -0.12596348154E+03  0.44361507912E+03  0.46813923133E+03  0.75196866539E+02 0.  0.
        -13    1    3    3    0    0  0.37396073863E+02 -0.39505846951E+02  0.10139170997E+03  0.11506283994E+03  0.00000000000E+00 0.  1.
         14    1    3    3    0    0 -0.84368944973E+01 -0.86457634586E+02  0.34222336915E+03  0.35307639139E+03  0.00000000000E+00 0. -1.
          1    1    1    2  501    0 -0.28959179366E+02  0.12596348154E+03  0.18910423233E+04  0.18954541676E+04  0.00000000000E+00 0. -1.
<mgrwt>
<rscale>  1 0.14953261E+03</rscale>
<asrwt>0</asrwt>
<pdfrwt beam="1">  1       21 0.22258477E-02 0.14953261E+03</pdfrwt>
<pdfrwt beam="2">  1        2 0.36140360E+00 0.14953261E+03</pdfrwt>
<totfact> 0.66027040E+04</totfact>
</mgrwt>
</event>
<event>
 6    2  0.7993170E+000  0.1199921E+03  0.7546771E-02  0.1243110E+00
          2   -1    0    0  502    0 -0.00000000000E+00  0.00000000000E+00  0.44973353656E+03  0.44973353656E+03  0.00000000000E+00 0. -1.
         21   -1    0    0  501  502  0.00000000000E+00 -0.00000000000E+00 -0.43654839691E+02  0.43654839691E+02  0.00000000000E+00 0. -1.
         24    2    1    2    0    0  0.64606798786E+02  0.61239689806E+02  0.38309953714E+03  0.40145155099E+03  0.80459644435E+02 0.  0.
        -11    1    3    3    0    0  0.30294268462E+02 -0.13178472861E+02  0.64328985500E+02  0.72316203054E+02  0.00000000000E+00 0.  1.
         12    1    3    3    0    0  0.34312530324E+02  0.74418162667E+02  0.31877055164E+03  0.32913534794E+03  0.00000000000E+00 0. -1.
          1    1    1    2  501    0 -0.64606798786E+02 -0.61239689806E+02  0.22979159734E+02  0.91936825261E+02  0.00000000000E+00 0. -1.
<mgrwt>
<rscale>  1 0.11999205E+03</rscale>
<asrwt>0</asrwt>
<pdfrwt beam="1">  1       21 0.67161295E-02 0.11999205E+03</pdfrwt>
<pdfrwt beam="2">  1        2 0.69189772E-01 0.11999205E+03</pdfrwt>
<totfact> 0.14039236E+05</totfact>
</mgrwt>
</event>
<event>
 6    2  0.7993170E+000  0.8652190E+02  0.7546771E-02  0.1311500E+00
         21   -1    0    0  501  502  0.00000000000E+00  0.00000000000E+00  0.21788813036E+03  0.21788813036E+03  0.00000000000E+00 0.  1.
         -3   -1    0    0    0  501 -0.00000000000E+00 -0.00000000000E+00 -0.23361683396E+02  0.23361683396E+02  0.00000000000E+00 0.  1.
         24    2    1    2    0    0 -0.21035784569E+02 -0.20981641812E+02  0.64621693493E+02  0.10799074840E+03  0.81260722027E+02 0.  0.
        -11    1    3    3    0    0 -0.41049206380E+02 -0.20380963856E+02  0.62179871338E+01  0.46250236714E+02  0.00000000000E+00 0.  1.
         12    1    3    3    0    0  0.20013421811E+02 -0.60067795657E+00  0.58403706359E+02  0.61740511685E+02  0.00000000000E+00 0. -1.
         -4    1    1    2    0  502  0.21035784569E+02  0.20981641812E+02  0.12990475347E+03  0.13325906536E+03  0.00000000000E+00 0.  1.
<mgrwt>
<rscale>  1 0.86521896E+02</rscale>
<asrwt>0</asrwt>
<pdfrwt beam="1">  1       21 0.33521250E-01 0.86521896E+02</pdfrwt>
<pdfrwt beam="2">  1       -3 0.35941053E-02 0.86521896E+02</pdfrwt>
<totfact> 0.14785235E+05</totfact>
</mgrwt>
</event>
<event>
 6    2  0.7993170E+000  0.8400257E+02  0.7546771E-02  0.1318062E+00
         21   -1    0    0  501  502  0.00000000000E+00  0.00000000000E+00  0.57544733732E+01  0.57544733732E+01  0.00000000000E+00 0. -1.
          2   -1    0    0  502    0 -0.00000000000E+00 -0.00000000000E+00 -0.94174494515E+03  0.94174494515E+03  0.00000000000E+00 0. -1.
         24    2    1    2    0    0 -0.23810111926E+02 -0.69789088379E+01 -0.31484438934E+03  0.32585797659E+03  0.80254624863E+02 0.  0.
        -11    1    3    3    0    0  0.79915336835E+00  0.35135563765E+02 -0.13893136487E+03  0.14330760842E+03  0.00000000000E+00 0.  1.
         12    1    3    3    0    0 -0.24609265295E+02 -0.42114472603E+02 -0.17591302447E+03  0.18255036817E+03  0.00000000000E+00 0. -1.
          1    1    1    2  501    0  0.23810111926E+02  0.69789088379E+01 -0.62114608243E+03  0.62164144193E+03  0.00000000000E+00 0. -1.
<mgrwt>
<rscale>  1 0.84002568E+02</rscale>
<asrwt>0</asrwt>
<pdfrwt beam="1">  1       21 0.88530425E-03 0.84002568E+02</pdfrwt>
<pdfrwt beam="2">  1        2 0.14488373E+00 0.84002568E+02</pdfrwt>
<totfact> 0.15487885E+06</totfact>
</mgrwt>
</event>
<event>
 6    2  0.7993170E+000  0.8793316E+02  0.7546771E-02  0.1307935E+00
          2   -1    0    0  502    0 -0.00000000000E+00  0.00000000000E+00  0.74956314529E+01  0.74956314529E+01  0.00000000000E+00 0. -1.
         21   -1    0    0  501  502  0.00000000000E+00 -0.00000000000E+00 -0.10901320322E+04  0.10901320322E+04  0.00000000000E+00 0. -1.
         24    2    1    2    0    0 -0.30921353964E+02  0.14092647800E+02 -0.26346548194E+03  0.27775222978E+03  0.81101837953E+02 0.  0.
        -11    1    3    3    0    0 -0.23102050180E+02 -0.29575205623E+02 -0.17263610204E+03  0.17666811041E+03  0.00000000000E+00 0.  1.
         12    1    3    3    0    0 -0.78193037846E+01  0.43667853423E+02 -0.90829379902E+02  0.10108411936E+03  0.00000000000E+00 0. -1.
          1    1    1    2  501    0  0.30921353964E+02 -0.14092647800E+02 -0.81917091877E+03  0.81987543384E+03  0.00000000000E+00 0. -1.
<mgrwt>
<rscale>  1 0.87933162E+02</rscale>
<asrwt>0</asrwt>
<pdfrwt beam="1">  1       21 0.16771254E+00 0.87933162E+02</pdfrwt>
<pdfrwt beam="2">  1        2 0.11531746E-02 0.87933162E+02</pdfrwt>
<totfact> 0.31099612E+04</totfact>
</mgrwt>
</event>
<event>
 6    2  0.7993170E+000  0.8622435E+02  0.7546771E-02  0.1312261E+00
         21   -1    0    0  501  502  0.00000000000E+00  0.00000000000E+00  0.23458191013E+01  0.23458191013E+01  0.00000000000E+00 0.  1.
          2   -1    0    0  502    0 -0.00000000000E+00 -0.00000000000E+00 -0.16531054840E+04  0.16531054840E+04  0.00000000000E+00 0. -1.
         24    2    1    2    0    0  0.33640776202E+02  0.41595838529E+01 -0.13582609767E+04  0.13609950473E+04  0.79281990926E+02 0.  0.
        -13    1    3    3    0    0  0.22017351456E+02 -0.22511802617E+02 -0.20835098763E+03  0.21071705927E+03  0.00000000000E+00 0.  1.
         14    1    3    3    0    0  0.11623424746E+02  0.26671386470E+02 -0.11499099891E+04  0.11502779881E+04  0.00000000000E+00 0. -1.
          1    1    1    2  501    0 -0.33640776202E+02 -0.41595838529E+01 -0.29249868816E+03  0.29445625572E+03  0.00000000000E+00 0. -1.
<mgrwt>
<rscale>  1 0.86224347E+02</rscale>
<asrwt>0</asrwt>
<pdfrwt beam="1">  1       21 0.36089340E-03 0.86224347E+02</pdfrwt>
<pdfrwt beam="2">  1        2 0.25432522E+00 0.86224347E+02</pdfrwt>
<totfact> 0.25614689E+06</totfact>
</mgrwt>
</event>
<event>
 6    2  0.7993170E+000  0.9130952E+02  0.7546771E-02  0.1299711E+00
          2   -1    0    0  502    0 -0.00000000000E+00  0.00000000000E+00  0.14835916657E+04  0.14835916657E+04  0.00000000000E+00 0. -1.
         21   -1    0    0  501  502  0.00000000000E+00 -0.00000000000E+00 -0.36163931036E+01  0.36163931036E+01  0.00000000000E+00 0. -1.
         24    2    1    2    0    0 -0.37923862806E+02  0.22173942148E+02  0.12313999628E+04  0.12347806678E+04  0.80047024615E+02 0.  0.
        -11    1    3    3    0    0 -0.20563260408E+01  0.42731225568E+02  0.38457133217E+03  0.38694353030E+03  0.00000000000E+00 0.  1.
         12    1    3    3    0    0 -0.35867536765E+02 -0.20557283420E+02  0.84682863060E+03  0.84783713748E+03  0.00000000000E+00 0. -1.
          1    1    1    2  501    0  0.37923862806E+02 -0.22173942148E+02  0.24857530987E+03  0.25242739106E+03  0.00000000000E+00 0. -1.
<mgrwt>
<rscale>  1 0.91309524E+02</rscale>
<asrwt>0</asrwt>
<pdfrwt beam="1">  1       21 0.55636935E-03 0.91309524E+02</pdfrwt>
<pdfrwt beam="2">  1        2 0.22824439E+00 0.91309524E+02</pdfrwt>
<totfact> 0.16189728E+06</totfact>
</mgrwt>
</event>
<event>
 6    2  0.7993170E+000  0.8360223E+02  0.7546771E-02  0.1319129E+00
         21   -1    0    0  501  502  0.00000000000E+00  0.00000000000E+00  0.70922957402E+01  0.70922957402E+01  0.00000000000E+00 0.  1.
          2   -1    0    0  502    0 -0.00000000000E+00 -0.00000000000E+00 -0.39770282918E+03  0.39770282918E+03  0.00000000000E+00 0. -1.
         24    2    1    2    0    0  0.73746928240E+01  0.20829276528E+02 -0.29152405204E+03  0.30327480355E+03  0.80629329004E+02 0.  0.
        -11    1    3    3    0    0 -0.21179990546E+02  0.31878053418E+02 -0.71210576109E+02  0.80843975898E+02  0.00000000000E+00 0.  1.
         12    1    3    3    0    0  0.28554683370E+02 -0.11048776890E+02 -0.22031347593E+03  0.22243082765E+03  0.00000000000E+00 0. -1.
          1    1    1    2  501    0 -0.73746928240E+01 -0.20829276528E+02 -0.99086481399E+02  0.10152032137E+03  0.00000000000E+00 0. -1.
<mgrwt>
<rscale>  1 0.83602234E+02</rscale>
<asrwt>0</asrwt>
<pdfrwt beam="1">  1       21 0.10911222E-02 0.83602234E+02</pdfrwt>
<pdfrwt beam="2">  1        2 0.61185061E-01 0.83602234E+02</pdfrwt>
<totfact> 0.29827506E+06</totfact>
</mgrwt>
</event>
<event>
 6    2  0.7993170E+000  0.8422727E+02  0.7546771E-02  0.1317466E+00
         21   -1    0    0  501  502  0.00000000000E+00  0.00000000000E+00  0.43978595892E+03  0.43978595892E+03  0.00000000000E+00 0. -1.
          2   -1    0    0  502    0 -0.00000000000E+00 -0.00000000000E+00 -0.11110325484E+02  0.11110325484E+02  0.00000000000E+00 0. -1.
         24    2    1    2    0    0 -0.38293264189E+01 -0.25342239235E+02  0.15833841848E+03  0.17934683657E+03  0.80233036772E+02 0.  0.
        -11    1    3    3    0    0  0.75896125788E+01  0.22788661679E+02  0.10007194231E+03  0.10291413391E+03  0.00000000000E+00 0.  1.
         12    1    3    3    0    0 -0.11418938998E+02 -0.48130900914E+02  0.58266476172E+02  0.76432702662E+02  0.00000000000E+00 0. -1.
          1    1    1    2  501    0  0.38293264189E+01  0.25342239235E+02  0.27033721495E+03  0.27154944783E+03  0.00000000000E+00 0. -1.
<mgrwt>
<rscale>  1 0.84227270E+02</rscale>
<asrwt>0</asrwt>
<pdfrwt beam="1">  1       21 0.67659365E-01 0.84227270E+02</pdfrwt>
<pdfrwt beam="2">  1        2 0.17092812E-02 0.84227270E+02</pdfrwt>
<totfact> 0.15417585E+05</totfact>
</mgrwt>
</event>
<event>
 6    2  0.7993170E+000  0.8235057E+02  0.7546771E-02  0.1322510E+00
         21   -1    0    0  501  502  0.00000000000E+00  0.00000000000E+00  0.79586897280E+01  0.79586897280E+01  0.00000000000E+00 0.  1.
          2   -1    0    0  502    0 -0.00000000000E+00 -0.00000000000E+00 -0.36495185008E+03  0.36495185008E+03  0.00000000000E+00 0. -1.
         24    2    1    2    0    0 -0.21506971067E+02  0.13563289626E+02 -0.27055838159E+03  0.28281346100E+03  0.78326899879E+02 0.  0.
        -13    1    3    3    0    0 -0.31581013120E+02 -0.22783115727E+02 -0.85496302503E+02  0.93947051543E+02  0.00000000000E+00 0.  1.
         14    1    3    3    0    0  0.10074042053E+02  0.36346405353E+02 -0.18506207909E+03  0.18886640946E+03  0.00000000000E+00 0. -1.
          1    1    1    2  501    0  0.21506971067E+02 -0.13563289626E+02 -0.86434778756E+02  0.90097078802E+02  0.00000000000E+00 0. -1.
<mgrwt>
<rscale>  1 0.82350567E+02</rscale>
<asrwt>0</asrwt>
<pdfrwt beam="1">  1       21 0.12244137E-02 0.82350567E+02</pdfrwt>
<pdfrwt beam="2">  1        2 0.56146441E-01 0.82350567E+02</pdfrwt>
<totfact> 0.27188847E+06</totfact>
</mgrwt>
</event>
<event>
 6    2  0.7993170E+000  0.1147783E+03  0.7546771E-02  0.1251969E+00
         21   -1    0    0  501  502  0.00000000000E+00  0.00000000000E+00  0.95304746797E+02  0.95304746797E+02  0.00000000000E+00 0. -1.
          4   -1    0    0  502    0 -0.00000000000E+00 -0.00000000000E+00 -0.12334341244E+03  0.12334341244E+03  0.00000000000E+00 0. -1.
         24    2    1    2    0    0 -0.75718113952E+02  0.17883020828E+02 -0.65656048932E+02  0.13222997400E+03  0.84386101037E+02 0.  0.
        -13    1    3    3    0    0 -0.37495056285E+01 -0.35185297786E+01  0.18644335190E+02  0.19340374322E+02  0.00000000000E+00 0.  1.
         14    1    3    3    0    0 -0.71968608323E+02  0.21401550606E+02 -0.84300384121E+02  0.11288959968E+03  0.00000000000E+00 0. -1.
          3    1    1    2  501    0  0.75718113952E+02 -0.17883020828E+02  0.37617383289E+02  0.86418185238E+02  0.00000000000E+00 0. -1.
<mgrwt>
<rscale>  1 0.11477826E+03</rscale>
<asrwt>0</asrwt>
<pdfrwt beam="1">  1       21 0.14662269E-01 0.11477826E+03</pdfrwt>
<pdfrwt beam="2">  1        4 0.18975910E-01 0.11477826E+03</pdfrwt>
<totfact> 0.40327319E+04</totfact>
</mgrwt>
</event>
<event>
 6    2  0.7993170E+000  0.1149869E+03  0.7546771E-02  0.1251604E+00
          2   -1    0    0  502    0 -0.00000000000E+00  0.00000000000E+00  0.46062108129E+03  0.46062108129E+03  0.00000000000E+00 0. -1.
         21   -1    0    0  501  502  0.00000000000E+00 -0.00000000000E+00 -0.28673569368E+02  0.28673569368E+02  0.00000000000E+00 0. -1.
         24    2    1    2    0    0  0.88154532160E+02  0.21251250648E+01  0.35186624368E+03  0.37017812275E+03  0.73798722390E+02 0.  0.
        -13    1    3    3    0    0 -0.59812914817E+01  0.16371482432E+02  0.31946526377E+02  0.36392057271E+02  0.00000000000E+00 0.  1.
         14    1    3    3    0    0  0.94135823641E+02 -0.14246357367E+02  0.31991971730E+03  0.33378606548E+03  0.00000000000E+00 0. -1.
          1    1    1    2  501    0 -0.88154532160E+02 -0.21251250648E+01  0.80081268240E+02  0.11911652790E+03  0.00000000000E+00 0. -1.
<mgrwt>
<rscale>  1 0.11498691E+03</rscale>
<asrwt>0</asrwt>
<pdfrwt beam="1">  1       21 0.44113187E-02 0.11498691E+03</pdfrwt>
<pdfrwt beam="2">  1        2 0.70864776E-01 0.11498691E+03</pdfrwt>
<totfact> 0.27706965E+05</totfact>
</mgrwt>
</event>
<event>
 6    2  0.7993170E+000  0.8356498E+02  0.7546771E-02  0.1319228E+00
         -1   -1    0    0    0  501 -0.00000000000E+00  0.00000000000E+00  0.54321314371E+02  0.54321314371E+02  0.00000000000E+00 0.  1.
         21   -1    0    0  501  502  0.00000000000E+00 -0.00000000000E+00 -0.62037366403E+02  0.62037366403E+02  0.00000000000E+00 0.  1.
         24    2    1    2    0    0 -0.79831286398E+01 -0.24050165943E+02  0.11773388536E+02  0.84390272644E+02  0.79630174020E+02 0.  0.
        -11    1    3    3    0    0  0.27018956229E+02 -0.37307693719E+02  0.47488195008E+01  0.46308091010E+02  0.00000000000E+00 0.  1.
         12    1    3    3    0    0 -0.35002084868E+02  0.13257527776E+02  0.70245690351E+01  0.38082181634E+02  0.00000000000E+00 0. -1.
         -2    1    1    2    0  502  0.79831286398E+01  0.24050165943E+02 -0.19489440568E+02  0.31968408131E+02  0.00000000000E+00 0.  1.
<mgrwt>
<rscale>  1 0.83564977E+02</rscale>
<asrwt>0</asrwt>
<pdfrwt beam="1">  1       21 0.95442102E-02 0.83564977E+02</pdfrwt>
<pdfrwt beam="2">  1       -1 0.83571253E-02 0.83564977E+02</pdfrwt>
<totfact> 0.58212410E+05</totfact>
</mgrwt>
</event>
<event>
 6    2  0.7993170E+000  0.8580525E+02  0.7546771E-02  0.1313340E+00
         -1   -1    0    0    0  501 -0.00000000000E+00  0.00000000000E+00  0.12890770974E+03  0.12890770974E+03  0.00000000000E+00 0.  1.
         21   -1    0    0  501  502  0.00000000000E+00 -0.00000000000E+00 -0.29357099415E+02  0.29357099415E+02  0.00000000000E+00 0. -1.
         24    2    1    2    0    0 -0.25913436317E+02  0.20370183971E+02  0.89070743323E+02  0.12367755443E+03  0.79221774643E+02 0.  0.
        -11    1    3    3    0    0 -0.20002276525E+02 -0.24295811815E+02  0.65865211688E+02  0.72997285214E+02  0.00000000000E+00 0.  1.
         12    1    3    3    0    0 -0.59111597927E+01  0.44665995786E+02  0.23205531635E+02  0.50680269219E+02  0.00000000000E+00 0. -1.
         -2    1    1    2    0  502  0.25913436317E+02 -0.20370183971E+02  0.10479867001E+02  0.34587254721E+02  0.00000000000E+00 0.  1.
<mgrwt>
<rscale>  1 0.85805245E+02</rscale>
<asrwt>0</asrwt>
<pdfrwt beam="1">  1       21 0.45164769E-02 0.85805245E+02</pdfrwt>
<pdfrwt beam="2">  1       -1 0.19831955E-01 0.85805245E+02</pdfrwt>
<totfact> 0.54831625E+05</totfact>
</mgrwt>
</event>
<event>
 6    2  0.7993170E+000  0.9672744E+02  0.7546771E-02  0.1287332E+00
         21   -1    0    0  501  502  0.00000000000E+00  0.00000000000E+00  0.23781229203E+02  0.23781229203E+02  0.00000000000E+00 0. -1.
          2   -1    0    0  502    0 -0.00000000000E+00 -0.00000000000E+00 -0.75955956756E+03  0.75955956756E+03  0.00000000000E+00 0. -1.
         24    2    1    2    0    0  0.58000727128E+02  0.68277795052E+01 -0.71475571044E+03  0.72127104725E+03  0.77107036453E+02 0.  0.
        -11    1    3    3    0    0  0.18075824496E+02  0.15552680490E+01 -0.28179345068E+02  0.33514620367E+02  0.00000000000E+00 0.  1.
         12    1    3    3    0    0  0.39924902632E+02  0.52725114561E+01 -0.68657636537E+03  0.68775642688E+03  0.00000000000E+00 0. -1.
          1    1    1    2  501    0 -0.58000727128E+02 -0.68277795052E+01 -0.21022627916E+02  0.62069749515E+02  0.00000000000E+00 0. -1.
<mgrwt>
<rscale>  1 0.96727442E+02</rscale>
<asrwt>0</asrwt>
<pdfrwt beam="1">  1       21 0.36586501E-02 0.96727442E+02</pdfrwt>
<pdfrwt beam="2">  1        2 0.11685533E+00 0.96727442E+02</pdfrwt>
<totfact> 0.21281690E+05</totfact>
</mgrwt>
</event>
<event>
 6    2  0.7993170E+000  0.8219986E+02  0.7546771E-02  0.1322922E+00
         21   -1    0    0  501  502  0.00000000000E+00  0.00000000000E+00  0.21539205039E+01  0.21539205039E+01  0.00000000000E+00 0.  1.
          2   -1    0    0  502    0 -0.00000000000E+00 -0.00000000000E+00 -0.12802522901E+04  0.12802522901E+04  0.00000000000E+00 0. -1.
         24    2    1    2    0    0  0.20057311352E+02  0.61569344891E+01 -0.90780409953E+03  0.91151801987E+03  0.79477127816E+02 0.  0.
        -13    1    3    3    0    0  0.26832482960E+02  0.38291732425E+02 -0.64042161601E+03  0.64212622214E+03  0.00000000000E+00 0.  1.
         14    1    3    3    0    0 -0.67751716086E+01 -0.32134797936E+02 -0.26738248352E+03  0.26939179772E+03  0.00000000000E+00 0. -1.
          1    1    1    2  501    0 -0.20057311352E+02 -0.61569344891E+01 -0.37029427002E+03  0.37088819069E+03  0.00000000000E+00 0. -1.
<mgrwt>
<rscale>  1 0.82199863E+02</rscale>
<asrwt>0</asrwt>
<pdfrwt beam="1">  1       21 0.33137239E-03 0.82199863E+02</pdfrwt>
<pdfrwt beam="2">  1        2 0.19696189E+00 0.82199863E+02</pdfrwt>
<totfact> 0.45066774E+06</totfact>
</mgrwt>
</event>
<event>
 6    2  0.7993170E+000  0.1454316E+03  0.7546771E-02  0.1206202E+00
          2   -1    0    0  502    0 -0.00000000000E+00  0.00000000000E+00  0.15848703327E+04  0.15848703327E+04  0.00000000000E+00 0. -1.
         21   -1    0    0  501  502  0.00000000000E+00 -0.00000000000E+00 -0.14846230802E+02  0.14846230802E+02  0.00000000000E+00 0. -1.
         24    2    1    2    0    0  0.10507629127E+03 -0.55636860029E+02  0.12479807443E+04  0.12564259995E+04  0.83748831728E+02 0.  0.
        -13    1    3    3    0    0 -0.56902519589E+00 -0.13575598256E+02  0.27642262180E+02  0.30801222639E+02  0.00000000000E+00 0.  1.
         14    1    3    3    0    0  0.10564531647E+03 -0.42061261773E+02  0.12203384821E+04  0.12256247769E+04  0.00000000000E+00 0. -1.
          1    1    1    2  501    0 -0.10507629127E+03  0.55636860029E+02  0.32204335761E+03  0.34329056404E+03  0.00000000000E+00 0. -1.
<mgrwt>
<rscale>  1 0.14543161E+03</rscale>
<asrwt>0</asrwt>
<pdfrwt beam="1">  1       21 0.22840368E-02 0.14543161E+03</pdfrwt>
<pdfrwt beam="2">  1        2 0.24382607E+00 0.14543161E+03</pdfrwt>
<totfact> 0.15710637E+05</totfact>
</mgrwt>
</event>
<event>
 6    2  0.7993170E+000  0.9509798E+02  0.7546771E-02  0.1290956E+00
         -3   -1    0    0    0  501 -0.00000000000E+00  0.00000000000E+00  0.38236702023E+03  0.38236702023E+03  0.00000000000E+00 0.  1.
         21   -1    0    0  501  502  0.00000000000E+00 -0.00000000000E+00 -0.20288889024E+02  0.20288889024E+02  0.00000000000E+00 0. -1.
         24    2    1    2    0    0  0.49155694427E+02 -0.14290611843E+02  0.10989267003E+03  0.14532730472E+03  0.80144386514E+02 0.  0.
        -11    1    3    3    0    0 -0.40001121938E+01 -0.31093951818E+02  0.70229166389E+02  0.76908845713E+02  0.00000000000E+00 0.  1.
         12    1    3    3    0    0  0.53155806621E+02  0.16803339975E+02  0.39663503637E+02  0.68418459005E+02  0.00000000000E+00 0. -1.
         -4    1    1    2    0  502 -0.49155694427E+02  0.14290611843E+02  0.25218546118E+03  0.25732860453E+03  0.00000000000E+00 0.  1.
<mgrwt>
<rscale>  1 0.95097984E+02</rscale>
<asrwt>0</asrwt>
<pdfrwt beam="1">  1       21 0.31213678E-02 0.95097984E+02</pdfrwt>
<pdfrwt beam="2">  1       -3 0.58825690E-01 0.95097984E+02</pdfrwt>
<totfact> 0.77610853E+04</totfact>
</mgrwt>
</event>
<event>
 6    2  0.7993170E+000  0.8910269E+02  0.7546771E-02  0.1305039E+00
          2   -1    0    0  502    0 -0.00000000000E+00  0.00000000000E+00  0.26245402215E+04  0.26245402215E+04  0.00000000000E+00 0. -1.
         21   -1    0    0  501  502  0.00000000000E+00 -0.00000000000E+00 -0.16337082262E+01  0.16337082262E+01  0.00000000000E+00 0.  1.
         24    2    1    2    0    0 -0.13788483481E+02  0.37268452314E+02  0.15797630014E+04  0.15822738166E+04  0.79751052032E+02 0.  0.
        -13    1    3    3    0    0 -0.20732778706E+01  0.54049170416E+02  0.63806640598E+03  0.64035486236E+03  0.00000000000E+00 0.  1.
         14    1    3    3    0    0 -0.11715205610E+02 -0.16780718101E+02  0.94169659542E+03  0.94191895425E+03  0.00000000000E+00 0. -1.
          1    1    1    2  501    0  0.13788483481E+02 -0.37268452314E+02  0.10431435119E+04  0.10439001131E+04  0.00000000000E+00 0. -1.
<mgrwt>
<rscale>  1 0.89102694E+02</rscale>
<asrwt>0</asrwt>
<pdfrwt beam="1">  1       21 0.25134183E-03 0.89102694E+02</pdfrwt>
<pdfrwt beam="2">  1        2 0.40377204E+00 0.89102694E+02</pdfrwt>
<totfact> 0.14183370E+06</totfact>
</mgrwt>
</event>
<event>
 6    2  0.7993170E+000  0.9803492E+02  0.7546771E-02  0.1284483E+00
         21   -1    0    0  501  502  0.00000000000E+00  0.00000000000E+00  0.14626863405E+02  0.14626863405E+02  0.00000000000E+00 0. -1.
          2   -1    0    0  502    0 -0.00000000000E+00 -0.00000000000E+00 -0.46208572216E+03  0.46208572216E+03  0.00000000000E+00 0. -1.
         24    2    1    2    0    0 -0.82773643863E+01  0.55694114981E+02 -0.35652434413E+03  0.36975729044E+03  0.80252705082E+02 0.  0.
        -13    1    3    3    0    0  0.11799279035E+02 -0.17175161186E+02 -0.52646444635E+02  0.56620290358E+02  0.00000000000E+00 0.  1.
         14    1    3    3    0    0 -0.20076643421E+02  0.72869276167E+02 -0.30387789950E+03  0.31313700009E+03  0.00000000000E+00 0. -1.
          1    1    1    2  501    0  0.82773643863E+01 -0.55694114981E+02 -0.90934514626E+02  0.10695529512E+03  0.00000000000E+00 0. -1.
<mgrwt>
<rscale>  1 0.98034922E+02</rscale>
<asrwt>0</asrwt>
<pdfrwt beam="1">  1       21 0.22502869E-02 0.98034922E+02</pdfrwt>
<pdfrwt beam="2">  1        2 0.71090105E-01 0.98034922E+02</pdfrwt>
<totfact> 0.82114854E+05</totfact>
</mgrwt>
</event>
<event>
 6    2  0.7993170E+000  0.7977469E+02  0.7546771E-02  0.1329692E+00
         21   -1    0    0  501  502  0.00000000000E+00  0.00000000000E+00  0.61366132973E+01  0.61366132973E+01  0.00000000000E+00 0.  1.
          2   -1    0    0  502    0 -0.00000000000E+00 -0.00000000000E+00 -0.61052027984E+03  0.61052027984E+03  0.00000000000E+00 0. -1.
         24    2    1    2    0    0  0.35395551593E+01 -0.28971127046E+02 -0.28536512545E+03  0.29630601642E+03  0.74243827287E+02 0.  0.
        -13    1    3    3    0    0  0.31526081069E+02 -0.30312634076E+02 -0.10448970020E+03  0.11327332881E+03  0.00000000000E+00 0.  1.
         14    1    3    3    0    0 -0.27986525910E+02  0.13415070299E+01 -0.18087542525E+03  0.18303268761E+03  0.00000000000E+00 0. -1.
          1    1    1    2  501    0 -0.35395551593E+01  0.28971127046E+02 -0.31901854109E+03  0.32035087672E+03  0.00000000000E+00 0. -1.
<mgrwt>
<rscale>  1 0.79774686E+02</rscale>
<asrwt>0</asrwt>
<pdfrwt beam="1">  1       21 0.94409416E-03 0.79774686E+02</pdfrwt>
<pdfrwt beam="2">  1        2 0.93926216E-01 0.79774686E+02</pdfrwt>
<totfact> 0.23429304E+06</totfact>
</mgrwt>
</event>
<event>
 6    2  0.7993170E+000  0.8240819E+02  0.7546771E-02  0.1322353E+00
          2   -1    0    0  502    0 -0.00000000000E+00  0.00000000000E+00  0.76591808775E+02  0.76591808775E+02  0.00000000000E+00 0. -1.
         21   -1    0    0  501  502  0.00000000000E+00 -0.00000000000E+00 -0.38883709924E+02  0.38883709924E+02  0.00000000000E+00 0. -1.
         24    2    1    2    0    0  0.10180976058E+02  0.17788313167E+02  0.44786344947E+02  0.93791932128E+02  0.79818753935E+02 0.  0.
        -11    1    3    3    0    0 -0.31588832446E+02 -0.59189607675E+01  0.28850845813E+02  0.43188652862E+02  0.00000000000E+00 0.  1.
         12    1    3    3    0    0  0.41769808504E+02  0.23707273934E+02  0.15935499134E+02  0.50603279266E+02  0.00000000000E+00 0. -1.
          1    1    1    2  501    0 -0.10180976058E+02 -0.17788313167E+02 -0.70782460957E+01  0.21683586571E+02  0.00000000000E+00 0. -1.
<mgrwt>
<rscale>  1 0.82408190E+02</rscale>
<asrwt>0</asrwt>
<pdfrwt beam="1">  1       21 0.59821092E-02 0.82408190E+02</pdfrwt>
<pdfrwt beam="2">  1        2 0.11783355E-01 0.82408190E+02</pdfrwt>
<totfact> 0.11514390E+06</totfact>
</mgrwt>
</event>
<event>
 6    2  0.7993170E+000  0.1009817E+03  0.7546771E-02  0.1278245E+00
          2   -1    0    0  502    0 -0.00000000000E+00  0.00000000000E+00  0.16454248956E+04  0.16454248956E+04  0.00000000000E+00 0. -1.
         21   -1    0    0  501  502  0.00000000000E+00 -0.00000000000E+00 -0.62825683311E+01  0.62825683311E+01  0.00000000000E+00 0. -1.
         24    2    1    2    0    0 -0.58324975646E+02  0.32195564181E+02  0.13946462767E+04  0.13982973697E+04  0.75887678381E+02 0.  0.
        -11    1    3    3    0    0 -0.15709954805E+02 -0.23815820639E+02  0.28605304493E+03  0.28747232999E+03  0.00000000000E+00 0.  1.
         12    1    3    3    0    0 -0.42615020840E+02  0.56011384820E+02  0.11085932318E+04  0.11108250397E+04  0.00000000000E+00 0. -1.
          1    1    1    2  501    0  0.58324975646E+02 -0.32195564181E+02  0.24449605051E+03  0.25341009422E+03  0.00000000000E+00 0. -1.
<mgrwt>
<rscale>  1 0.10098167E+03</rscale>
<asrwt>0</asrwt>
<pdfrwt beam="1">  1       21 0.96655029E-03 0.10098167E+03</pdfrwt>
<pdfrwt beam="2">  1        2 0.25314195E+00 0.10098167E+03</pdfrwt>
<totfact> 0.57192143E+05</totfact>
</mgrwt>
</event>
<event>
 6    2  0.7993170E+000  0.8126018E+02  0.7546771E-02  0.1325513E+00
         21   -1    0    0  501  502  0.00000000000E+00  0.00000000000E+00  0.37817991491E+02  0.37817991491E+02  0.00000000000E+00 0. -1.
         -1   -1    0    0    0  501 -0.00000000000E+00 -0.00000000000E+00 -0.69545608120E+02  0.69545608120E+02  0.00000000000E+00 0.  1.
         24    2    1    2    0    0  0.12223681681E+02 -0.17274952803E+02 -0.27466304872E+02  0.85776539457E+02  0.78456194336E+02 0.  0.
        -13    1    3    3    0    0 -0.98405333055E+01 -0.41994735700E+02 -0.30008997111E+02  0.52544588969E+02  0.00000000000E+00 0.  1.
         14    1    3    3    0    0  0.22064214986E+02  0.24719782897E+02  0.25426922390E+01  0.33231950488E+02  0.00000000000E+00 0. -1.
         -2    1    1    2    0  502 -0.12223681681E+02  0.17274952803E+02 -0.42613117565E+01  0.21587060154E+02  0.00000000000E+00 0.  1.
<mgrwt>
<rscale>  1 0.81260180E+02</rscale>
<asrwt>0</asrwt>
<pdfrwt beam="1">  1       21 0.58181526E-02 0.81260180E+02</pdfrwt>
<pdfrwt beam="2">  1       -1 0.10699324E-01 0.81260180E+02</pdfrwt>
<totfact> 0.92734855E+05</totfact>
</mgrwt>
</event>
<event>
 6    2  0.7993170E+000  0.8970869E+02  0.7546771E-02  0.1303559E+00
          2   -1    0    0  502    0 -0.00000000000E+00  0.00000000000E+00  0.10338599446E+04  0.10338599446E+04  0.00000000000E+00 0. -1.
         21   -1    0    0  501  502  0.00000000000E+00 -0.00000000000E+00 -0.13433885285E+02  0.13433885285E+02  0.00000000000E+00 0. -1.
         24    2    1    2    0    0  0.24765507635E+02  0.24195229701E+02  0.10056608202E+04  0.10096540664E+04  0.82758136033E+02 0.  0.
        -11    1    3    3    0    0 -0.68462867813E+01  0.25754062758E+02  0.10151536617E+03  0.10495481389E+03  0.00000000000E+00 0.  1.
         12    1    3    3    0    0  0.31611794416E+02 -0.15588330566E+01  0.90414545400E+03  0.90469925251E+03  0.00000000000E+00 0. -1.
          1    1    1    2  501    0 -0.24765507635E+02 -0.24195229701E+02  0.14765239169E+02  0.37639763501E+02  0.00000000000E+00 0. -1.
<mgrwt>
<rscale>  1 0.89708687E+02</rscale>
<asrwt>0</asrwt>
<pdfrwt beam="1">  1       21 0.20667524E-02 0.89708687E+02</pdfrwt>
<pdfrwt beam="2">  1        2 0.15905531E+00 0.89708687E+02</pdfrwt>
<totfact> 0.36079156E+05</totfact>
</mgrwt>
</event>
<event>
 6    2  0.7993170E+000  0.9050606E+02  0.7546771E-02  0.1301631E+00
         21   -1    0    0  501  502  0.00000000000E+00  0.00000000000E+00  0.24553621932E+02  0.24553621932E+02  0.00000000000E+00 0. -1.
          2   -1    0    0  502    0 -0.00000000000E+00 -0.00000000000E+00 -0.16082314902E+03  0.16082314902E+03  0.00000000000E+00 0. -1.
         24    2    1    2    0    0 -0.22363334201E+02  0.65759121348E+01 -0.13434489208E+03  0.16198733836E+03  0.87452766818E+02 0.  0.
        -13    1    3    3    0    0  0.23683220219E+02  0.28979172121E+02 -0.73356538724E+02  0.82352104469E+02  0.00000000000E+00 0.  1.
         14    1    3    3    0    0 -0.46046554420E+02 -0.22403259987E+02 -0.60988353352E+02  0.79635233889E+02  0.00000000000E+00 0. -1.
          1    1    1    2  501    0  0.22363334201E+02 -0.65759121348E+01 -0.19246350074E+01  0.23389432591E+02  0.00000000000E+00 0. -1.
<mgrwt>
<rscale>  1 0.90506065E+02</rscale>
<asrwt>0</asrwt>
<pdfrwt beam="1">  1       21 0.37774804E-02 0.90506065E+02</pdfrwt>
<pdfrwt beam="2">  1        2 0.24742022E-01 0.90506065E+02</pdfrwt>
<totfact> 0.10734380E+06</totfact>
</mgrwt>
</event>
<event>
 6    2  0.7993170E+000  0.9494118E+02  0.7546771E-02  0.1291309E+00
         21   -1    0    0  501  502  0.00000000000E+00  0.00000000000E+00  0.56832571625E+03  0.56832571625E+03  0.00000000000E+00 0. -1.
          2   -1    0    0  502    0 -0.00000000000E+00 -0.00000000000E+00 -0.10735173578E+02  0.10735173578E+02  0.00000000000E+00 0. -1.
         24    2    1    2    0    0  0.18023969325E+02  0.48795064379E+02  0.25643660281E+03  0.27344754379E+03  0.79422957448E+02 0.  0.
        -11    1    3    3    0    0  0.20643877308E+02 -0.14105773354E+02  0.12790760744E+03  0.13032842573E+03  0.00000000000E+00 0.  1.
         12    1    3    3    0    0 -0.26199079826E+01  0.62900837733E+02  0.12852899537E+03  0.14311911806E+03  0.00000000000E+00 0. -1.
          1    1    1    2  501    0 -0.18023969325E+02 -0.48795064379E+02  0.30115393987E+03  0.30561334604E+03  0.00000000000E+00 0. -1.
<mgrwt>
<rscale>  1 0.94941182E+02</rscale>
<asrwt>0</asrwt>
<pdfrwt beam="1">  1       21 0.87434702E-01 0.94941182E+02</pdfrwt>
<pdfrwt beam="2">  1        2 0.16515656E-02 0.94941182E+02</pdfrwt>
<totfact> 0.92676988E+04</totfact>
</mgrwt>
</event>
<event>
 6    2  0.7993170E+000  0.9211599E+02  0.7546771E-02  0.1297807E+00
         21   -1    0    0  501  502  0.00000000000E+00  0.00000000000E+00  0.44510632132E+02  0.44510632132E+02  0.00000000000E+00 0.  1.
         -1   -1    0    0    0  501 -0.00000000000E+00 -0.00000000000E+00 -0.20907756575E+03  0.20907756575E+03  0.00000000000E+00 0.  1.
         24    2    1    2    0    0  0.43385247783E+02 -0.16888785208E+02 -0.18191230758E+03  0.20390547665E+03  0.79484872567E+02 0.  0.
        -13    1    3    3    0    0  0.21702129500E+02 -0.48866115746E+02 -0.10398117456E+03  0.11692289919E+03  0.00000000000E+00 0.  1.
         14    1    3    3    0    0  0.21683118283E+02  0.31977330538E+02 -0.77931133021E+02  0.86982577455E+02  0.00000000000E+00 0. -1.
         -2    1    1    2    0  502 -0.43385247783E+02  0.16888785208E+02  0.17345373964E+02  0.49682721231E+02  0.00000000000E+00 0.  1.
<mgrwt>
<rscale>  1 0.92115991E+02</rscale>
<asrwt>0</asrwt>
<pdfrwt beam="1">  1       21 0.68477896E-02 0.92115991E+02</pdfrwt>
<pdfrwt beam="2">  1       -1 0.32165779E-01 0.92115991E+02</pdfrwt>
<totfact> 0.12518173E+05</totfact>
</mgrwt>
</event>
<event>
 6    2  0.7993170E+000  0.9097320E+02  0.7546771E-02  0.1300512E+00
         21   -1    0    0  501  502  0.00000000000E+00  0.00000000000E+00  0.34838233950E+01  0.34838233950E+01  0.00000000000E+00 0. -1.
          2   -1    0    0  502    0 -0.00000000000E+00 -0.00000000000E+00 -0.12627085675E+04  0.12627085675E+04  0.00000000000E+00 0. -1.
         24    2    1    2    0    0  0.13017244624E+02  0.39327504867E+02 -0.90049601432E+03  0.90507966214E+03  0.80993960970E+02 0.  0.
        -13    1    3    3    0    0 -0.12912975103E+02 -0.20908139795E+02 -0.30321643986E+03  0.30421062545E+03  0.00000000000E+00 0.  1.
         14    1    3    3    0    0  0.25930219727E+02  0.60235644662E+02 -0.59727957446E+03  0.60086903669E+03  0.00000000000E+00 0. -1.
          1    1    1    2  501    0 -0.13017244624E+02 -0.39327504867E+02 -0.35872872975E+03  0.36111272872E+03  0.00000000000E+00 0. -1.
<mgrwt>
<rscale>  1 0.90973199E+02</rscale>
<asrwt>0</asrwt>
<pdfrwt beam="1">  1       21 0.53597259E-03 0.90973199E+02</pdfrwt>
<pdfrwt beam="2">  1        2 0.19426294E+00 0.90973199E+02</pdfrwt>
<totfact> 0.22349431E+06</totfact>
</mgrwt>
</event>
<event>
 6    2  0.7993170E+000  0.8758102E+02  0.7546771E-02  0.1308818E+00
         21   -1    0    0  501  502  0.00000000000E+00  0.00000000000E+00  0.15641448422E+02  0.15641448422E+02  0.00000000000E+00 0.  1.
         -1   -1    0    0    0  501 -0.00000000000E+00 -0.00000000000E+00 -0.40735398134E+03  0.40735398134E+03  0.00000000000E+00 0.  1.
         24    2    1    2    0    0 -0.25199190041E+02 -0.16040481522E+02 -0.38150409080E+03  0.39142790663E+03  0.82329451359E+02 0.  0.
        -11    1    3    3    0    0 -0.47955303633E+02 -0.16325502720E+02 -0.34284695900E+03  0.34656928670E+03  0.00000000000E+00 0.  1.
         12    1    3    3    0    0  0.22756113592E+02  0.28502119832E+00 -0.38657131802E+02  0.44858619930E+02  0.00000000000E+00 0. -1.
         -2    1    1    2    0  502  0.25199190041E+02  0.16040481522E+02 -0.10208442110E+02  0.31567523129E+02  0.00000000000E+00 0.  1.
<mgrwt>
<rscale>  1 0.87581018E+02</rscale>
<asrwt>0</asrwt>
<pdfrwt beam="1">  1       21 0.24063766E-02 0.87581018E+02</pdfrwt>
<pdfrwt beam="2">  1       -1 0.62669846E-01 0.87581018E+02</pdfrwt>
<totfact> 0.21402112E+05</totfact>
</mgrwt>
</event>
<event>
 6    2  0.7993170E+000  0.9248837E+02  0.7546771E-02  0.1296935E+00
         -1   -1    0    0    0  501 -0.00000000000E+00  0.00000000000E+00  0.37892650766E+03  0.37892650766E+03  0.00000000000E+00 0.  1.
         21   -1    0    0  501  502  0.00000000000E+00 -0.00000000000E+00 -0.12868300957E+02  0.12868300957E+02  0.00000000000E+00 0.  1.
         24    2    1    2    0    0  0.33296753784E+02  0.31128087589E+02  0.27156145898E+03  0.28687928555E+03  0.80476498598E+02 0.  0.
        -11    1    3    3    0    0  0.49648940651E+02  0.36499048746E+02  0.25715208420E+03  0.26443220733E+03  0.00000000000E+00 0.  1.
         12    1    3    3    0    0 -0.16352186866E+02 -0.53709611573E+01  0.14409374782E+02  0.22447078221E+02  0.00000000000E+00 0. -1.
         -2    1    1    2    0  502 -0.33296753784E+02 -0.31128087589E+02  0.94496747724E+02  0.10491552306E+03  0.00000000000E+00 0.  1.
<mgrwt>
<rscale>  1 0.92488369E+02</rscale>
<asrwt>0</asrwt>
<pdfrwt beam="1">  1       21 0.19797389E-02 0.92488369E+02</pdfrwt>
<pdfrwt beam="2">  1       -1 0.58296377E-01 0.92488369E+02</pdfrwt>
<totfact> 0.33709844E+05</totfact>
</mgrwt>
</event>
<event>
 6    2  0.7993170E+000  0.8506929E+02  0.7546771E-02  0.1315251E+00
         -3   -1    0    0    0  501 -0.00000000000E+00  0.00000000000E+00  0.10229476033E+03  0.10229476033E+03  0.00000000000E+00 0.  1.
         21   -1    0    0  501  502  0.00000000000E+00 -0.00000000000E+00 -0.40935254521E+02  0.40935254521E+02  0.00000000000E+00 0. -1.
         24    2    1    2    0    0  0.99849302005E+01  0.26290511561E+02  0.73666386117E+02  0.11253230920E+03  0.80286327239E+02 0.  0.
        -13    1    3    3    0    0 -0.35293538985E+02  0.81055629654E+01  0.29245592312E+02  0.46547166560E+02  0.00000000000E+00 0.  1.
         14    1    3    3    0    0  0.45278469186E+02  0.18184948596E+02  0.44420793804E+02  0.65985142641E+02  0.00000000000E+00 0. -1.
         -4    1    1    2    0  502 -0.99849302005E+01 -0.26290511561E+02 -0.12306880306E+02  0.30697705649E+02  0.00000000000E+00 0.  1.
<mgrwt>
<rscale>  1 0.85069290E+02</rscale>
<asrwt>0</asrwt>
<pdfrwt beam="1">  1       21 0.62977315E-02 0.85069290E+02</pdfrwt>
<pdfrwt beam="2">  1       -3 0.15737655E-01 0.85069290E+02</pdfrwt>
<totfact> 0.27242396E+05</totfact>
</mgrwt>
</event>
<event>
 6    2  0.7993170E+000  0.8382338E+02  0.7546771E-02  0.1318539E+00
          2   -1    0    0  502    0 -0.00000000000E+00  0.00000000000E+00  0.34125136248E+02  0.34125136248E+02  0.00000000000E+00 0. -1.
         21   -1    0    0  501  502  0.00000000000E+00 -0.00000000000E+00 -0.13216362672E+03  0.13216362672E+03  0.00000000000E+00 0.  1.
         24    2    1    2    0    0 -0.23797946689E+02 -0.53245064051E+01 -0.11066491860E+03  0.13882752989E+03  0.80197669617E+02 0.  0.
        -11    1    3    3    0    0 -0.13618212431E+02 -0.42825914449E+02 -0.61065023015E+02  0.75818544526E+02  0.00000000000E+00 0.  1.
         12    1    3    3    0    0 -0.10179734258E+02  0.37501408044E+02 -0.49599895584E+02  0.63008985365E+02  0.00000000000E+00 0. -1.
          1    1    1    2  501    0  0.23797946689E+02  0.53245064051E+01  0.12626428124E+02  0.27461233080E+02  0.00000000000E+00 0. -1.
<mgrwt>
<rscale>  1 0.83823379E+02</rscale>
<asrwt>0</asrwt>
<pdfrwt beam="1">  1       21 0.20332866E-01 0.83823379E+02</pdfrwt>
<pdfrwt beam="2">  1        2 0.52500210E-02 0.83823379E+02</pdfrwt>
<totfact> 0.37109978E+05</totfact>
</mgrwt>
</event>
<event>
 6    2  0.7993170E+000  0.8730768E+02  0.7546771E-02  0.1309506E+00
          2   -1    0    0  502    0 -0.00000000000E+00  0.00000000000E+00  0.99946075226E+03  0.99946075226E+03  0.00000000000E+00 0. -1.
         21   -1    0    0  501  502  0.00000000000E+00 -0.00000000000E+00 -0.36801544827E+01  0.36801544827E+01  0.00000000000E+00 0. -1.
         24    2    1    2    0    0 -0.12159040617E+02  0.28878864772E+02  0.81519418104E+03  0.81985619650E+03  0.81491097896E+02 0.  0.
        -13    1    3    3    0    0 -0.35472293989E+02 -0.12115999410E+02  0.26394943471E+03  0.26659779662E+03  0.00000000000E+00 0.  1.
         14    1    3    3    0    0  0.23313253372E+02  0.40994864182E+02  0.55124474633E+03  0.55325839987E+03  0.00000000000E+00 0. -1.
          1    1    1    2  501    0  0.12159040617E+02 -0.28878864772E+02  0.18058641674E+03  0.18328471024E+03  0.00000000000E+00 0. -1.
<mgrwt>
<rscale>  1 0.87307675E+02</rscale>
<asrwt>0</asrwt>
<pdfrwt beam="1">  1       21 0.56617841E-03 0.87307675E+02</pdfrwt>
<pdfrwt beam="2">  1        2 0.15376298E+00 0.87307675E+02</pdfrwt>
<totfact> 0.28668387E+06</totfact>
</mgrwt>
</event>
<event>
 6    2  0.7993170E+000  0.8952902E+02  0.7546771E-02  0.1303996E+00
          2   -1    0    0  502    0 -0.00000000000E+00  0.00000000000E+00  0.12343991183E+04  0.12343991183E+04  0.00000000000E+00 0. -1.
         21   -1    0    0  501  502  0.00000000000E+00 -0.00000000000E+00 -0.35303954805E+01  0.35303954805E+01  0.00000000000E+00 0. -1.
         24    2    1    2    0    0 -0.35755472909E+02 -0.17049780166E+02  0.96221123296E+03  0.96636737410E+03  0.80288828965E+02 0.  0.
        -13    1    3    3    0    0  0.22457360444E+02  0.93327976536E+01  0.34493613882E+03  0.34579238570E+03  0.00000000000E+00 0.  1.
         14    1    3    3    0    0 -0.58212833352E+02 -0.26382577820E+02  0.61727509414E+03  0.62057498840E+03  0.00000000000E+00 0. -1.
          1    1    1    2  501    0  0.35755472909E+02  0.17049780166E+02  0.26865748985E+03  0.27156213966E+03  0.00000000000E+00 0. -1.
<mgrwt>
<rscale>  1 0.89529017E+02</rscale>
<asrwt>0</asrwt>
<pdfrwt beam="1">  1       21 0.54313875E-03 0.89529017E+02</pdfrwt>
<pdfrwt beam="2">  1        2 0.18990721E+00 0.89529017E+02</pdfrwt>
<totfact> 0.22643383E+06</totfact>
</mgrwt>
</event>
<event>
 6    2  0.7993170E+000  0.8088188E+02  0.7546771E-02  0.1326567E+00
          2   -1    0    0  502    0 -0.00000000000E+00  0.00000000000E+00  0.49180019729E+03  0.49180019729E+03  0.00000000000E+00 0. -1.
         21   -1    0    0  501  502  0.00000000000E+00 -0.00000000000E+00 -0.10520844340E+02  0.10520844340E+02  0.00000000000E+00 0.  1.
         24    2    1    2    0    0  0.17848053910E+02 -0.24686530262E+02  0.45486825461E+03  0.46200325498E+03  0.74925968494E+02 0.  0.
        -11    1    3    3    0    0  0.25230117598E+02 -0.49154240782E+02  0.32001950858E+03  0.32475403629E+03  0.00000000000E+00 0.  1.
         12    1    3    3    0    0 -0.73820636883E+01  0.24467710520E+02  0.13484874604E+03  0.13724921869E+03  0.00000000000E+00 0. -1.
          1    1    1    2  501    0 -0.17848053910E+02  0.24686530262E+02  0.26411098335E+02  0.40317786646E+02  0.00000000000E+00 0. -1.
<mgrwt>
<rscale>  1 0.80881880E+02</rscale>
<asrwt>0</asrwt>
<pdfrwt beam="1">  1       21 0.16185918E-02 0.80881880E+02</pdfrwt>
<pdfrwt beam="2">  1        2 0.75661551E-01 0.80881880E+02</pdfrwt>
<totfact> 0.12756229E+06</totfact>
</mgrwt>
</event>
<event>
 6    2  0.7993170E+000  0.8599794E+02  0.7546771E-02  0.1312843E+00
         21   -1    0    0  501  502  0.00000000000E+00  0.00000000000E+00  0.19594258593E+03  0.19594258593E+03  0.00000000000E+00 0. -1.
          4   -1    0    0  502    0 -0.00000000000E+00 -0.00000000000E+00 -0.10906277234E+03  0.10906277234E+03  0.00000000000E+00 0. -1.
         24    2    1    2    0    0  0.36830930999E+02 -0.10202256455E+01 -0.89910254268E+02  0.12441663650E+03  0.77705130310E+02 0.  0.
        -13    1    3    3    0    0 -0.14456469361E+02 -0.76346435445E+01  0.43374184960E+01  0.16914209637E+02  0.00000000000E+00 0.  1.
         14    1    3    3    0    0  0.51287400359E+02  0.66144178990E+01 -0.94247672764E+02  0.10750242686E+03  0.00000000000E+00 0. -1.
          3    1    1    2  501    0 -0.36830930999E+02  0.10202256455E+01  0.17679006786E+03  0.18058872177E+03  0.00000000000E+00 0. -1.
<mgrwt>
<rscale>  1 0.85997940E+02</rscale>
<asrwt>0</asrwt>
<pdfrwt beam="1">  1       21 0.30145013E-01 0.85997940E+02</pdfrwt>
<pdfrwt beam="2">  1        4 0.16778888E-01 0.85997940E+02</pdfrwt>
<totfact> 0.12800953E+04</totfact>
</mgrwt>
</event>
<event>
 6    2  0.7993170E+000  0.8342816E+02  0.7546771E-02  0.1319595E+00
         21   -1    0    0  501  502  0.00000000000E+00  0.00000000000E+00  0.12357008959E+03  0.12357008959E+03  0.00000000000E+00 0.  1.
         -1   -1    0    0    0  501 -0.00000000000E+00 -0.00000000000E+00 -0.91795664945E+02  0.91795664945E+02  0.00000000000E+00 0.  1.
         24    2    1    2    0    0 -0.18493260876E+02  0.11395667286E+02 -0.71473350883E+02  0.10985762650E+03  0.80550582137E+02 0.  0.
        -11    1    3    3    0    0 -0.48400112850E+02 -0.37279801941E+01 -0.51825110561E+02  0.71009230702E+02  0.00000000000E+00 0.  1.
         12    1    3    3    0    0  0.29906851975E+02  0.15123647480E+02 -0.19648240322E+02  0.38848395795E+02  0.00000000000E+00 0. -1.
         -2    1    1    2    0  502  0.18493260876E+02 -0.11395667286E+02  0.10324777553E+03  0.10550812804E+03  0.00000000000E+00 0.  1.
<mgrwt>
<rscale>  1 0.83428162E+02</rscale>
<asrwt>0</asrwt>
<pdfrwt beam="1">  1       21 0.19010783E-01 0.83428162E+02</pdfrwt>
<pdfrwt beam="2">  1       -1 0.14122410E-01 0.83428162E+02</pdfrwt>
<totfact> 0.77797884E+04</totfact>
</mgrwt>
</event>
<event>
 6    2  0.7993170E+000  0.8919410E+02  0.7546771E-02  0.1304815E+00
         21   -1    0    0  501  502  0.00000000000E+00  0.00000000000E+00  0.43902852427E+03  0.43902852427E+03  0.00000000000E+00 0. -1.
         -1   -1    0    0    0  501 -0.00000000000E+00 -0.00000000000E+00 -0.11058769395E+02  0.11058769395E+02  0.00000000000E+00 0.  1.
         24    2    1    2    0    0  0.38427053941E+02 -0.23015660791E+01  0.20135187725E+03  0.22022298991E+03  0.80459002805E+02 0.  0.
        -11    1    3    3    0    0 -0.18130745926E+02  0.19678816944E+02  0.83258992034E+02  0.87453070494E+02  0.00000000000E+00 0.  1.
         12    1    3    3    0    0  0.56557799868E+02 -0.21980383023E+02  0.11809288521E+03  0.13276991941E+03  0.00000000000E+00 0. -1.
         -2    1    1    2    0  502 -0.38427053941E+02  0.23015660791E+01  0.22661787763E+03  0.22986430376E+03  0.00000000000E+00 0.  1.
<mgrwt>
<rscale>  1 0.89194096E+02</rscale>
<asrwt>0</asrwt>
<pdfrwt beam="1">  1       21 0.67542836E-01 0.89194096E+02</pdfrwt>
<pdfrwt beam="2">  1       -1 0.17013495E-02 0.89194096E+02</pdfrwt>
<totfact> 0.14538832E+05</totfact>
</mgrwt>
</event>
<event>
 6    2  0.7993170E+000  0.8358557E+02  0.7546771E-02  0.1319173E+00
          2   -1    0    0  502    0 -0.00000000000E+00  0.00000000000E+00  0.17045586585E+04  0.17045586585E+04  0.00000000000E+00 0. -1.
         21   -1    0    0  501  502  0.00000000000E+00 -0.00000000000E+00 -0.11684747463E+02  0.11684747463E+02  0.00000000000E+00 0. -1.
         24    2    1    2    0    0 -0.12718106122E+02 -0.23510677223E+02  0.16867512476E+04  0.16888209850E+04  0.79196248733E+02 0.  0.
        -13    1    3    3    0    0 -0.27981795429E+01 -0.20899790709E+01  0.22504674118E+01  0.41548074375E+01  0.00000000000E+00 0.  1.
         14    1    3    3    0    0 -0.99199265791E+01 -0.21420698152E+02  0.16845007802E+04  0.16846661775E+04  0.00000000000E+00 0. -1.
          1    1    1    2  501    0  0.12718106122E+02  0.23510677223E+02  0.61226634609E+01  0.27422421021E+02  0.00000000000E+00 0. -1.
<mgrwt>
<rscale>  1 0.83585573E+02</rscale>
<asrwt>0</asrwt>
<pdfrwt beam="1">  1       21 0.17976548E-02 0.83585573E+02</pdfrwt>
<pdfrwt beam="2">  1        2 0.26223960E+00 0.83585573E+02</pdfrwt>
<totfact> 0.19949477E+05</totfact>
</mgrwt>
</event>
<event>
 6    2  0.7993170E+000  0.8285615E+02  0.7546771E-02  0.1321136E+00
         21   -1    0    0  501  502  0.00000000000E+00  0.00000000000E+00  0.13744291793E+01  0.13744291793E+01  0.00000000000E+00 0. -1.
          2   -1    0    0  502    0 -0.00000000000E+00 -0.00000000000E+00 -0.37375696799E+04  0.37375696799E+04  0.00000000000E+00 0. -1.
         24    2    1    2    0    0 -0.11692100472E+02 -0.19097149025E+02 -0.35974100990E+04  0.35983641508E+04  0.79773024929E+02 0.  0.
        -13    1    3    3    0    0 -0.23852941864E+01 -0.43002663408E+02 -0.11296481366E+04  0.11304688546E+04  0.00000000000E+00 0.  1.
         14    1    3    3    0    0 -0.93068062859E+01  0.23905514383E+02 -0.24677619624E+04  0.24678952963E+04  0.00000000000E+00 0. -1.
          1    1    1    2  501    0  0.11692100472E+02  0.19097149025E+02 -0.13878515174E+03  0.14057995823E+03  0.00000000000E+00 0. -1.
<mgrwt>
<rscale>  1 0.82856151E+02</rscale>
<asrwt>0</asrwt>
<pdfrwt beam="1">  1       21 0.21145428E-03 0.82856151E+02</pdfrwt>
<pdfrwt beam="2">  1        2 0.57500083E+00 0.82856151E+02</pdfrwt>
<totfact> 0.39969199E+05</totfact>
</mgrwt>
</event>
<event>
 6    2  0.7993170E+000  0.1010118E+03  0.7546771E-02  0.1278183E+00
         21   -1    0    0  501  502  0.00000000000E+00  0.00000000000E+00  0.42287294099E+01  0.42287294099E+01  0.00000000000E+00 0.  1.
          2   -1    0    0  502    0 -0.00000000000E+00 -0.00000000000E+00 -0.19502437621E+04  0.19502437621E+04  0.00000000000E+00 0. -1.
         24    2    1    2    0    0 -0.44316535430E+02  0.40594795984E+02 -0.72784826755E+03  0.73482411576E+03  0.81187977902E+02 0.  0.
        -13    1    3    3    0    0 -0.46642158690E+02 -0.11251282234E+02 -0.29511893631E+03  0.29899376062E+03  0.00000000000E+00 0.  1.
         14    1    3    3    0    0  0.23256232594E+01  0.51846078218E+02 -0.43272933124E+03  0.43583035514E+03  0.00000000000E+00 0. -1.
          1    1    1    2  501    0  0.44316535430E+02 -0.40594795984E+02 -0.12181667651E+04  0.12196483757E+04  0.00000000000E+00 0. -1.
<mgrwt>
<rscale>  1 0.10101178E+03</rscale>
<asrwt>0</asrwt>
<pdfrwt beam="1">  1       21 0.65057459E-03 0.10101178E+03</pdfrwt>
<pdfrwt beam="2">  1        2 0.30003712E+00 0.10101178E+03</pdfrwt>
<totfact> 0.74325484E+05</totfact>
</mgrwt>
</event>
<event>
 6    2  0.7993170E+000  0.9013082E+02  0.7546771E-02  0.1302535E+00
         21   -1    0    0  501  502  0.00000000000E+00  0.00000000000E+00  0.12672582894E+01  0.12672582894E+01  0.00000000000E+00 0. -1.
          2   -1    0    0  502    0 -0.00000000000E+00 -0.00000000000E+00 -0.41593241140E+04  0.41593241140E+04  0.00000000000E+00 0. -1.
         24    2    1    2    0    0  0.28080634728E+01  0.39841518697E+02 -0.35904174095E+04  0.35915485156E+04  0.80798105032E+02 0.  0.
        -13    1    3    3    0    0  0.17448349633E+02 -0.21123226759E+02 -0.11384892856E+04  0.11388189009E+04  0.00000000000E+00 0.  1.
         14    1    3    3    0    0 -0.14640286161E+02  0.60964745456E+02 -0.24519281239E+04  0.24527296148E+04  0.00000000000E+00 0. -1.
          1    1    1    2  501    0 -0.28080634728E+01 -0.39841518697E+02 -0.56763944625E+03  0.56904285671E+03  0.00000000000E+00 0. -1.
<mgrwt>
<rscale>  1 0.90130825E+02</rscale>
<asrwt>0</asrwt>
<pdfrwt beam="1">  1       21 0.19495968E-03 0.90130825E+02</pdfrwt>
<pdfrwt beam="2">  1        2 0.63990630E+00 0.90130825E+02</pdfrwt>
<totfact> 0.22215780E+05</totfact>
</mgrwt>
</event>
<event>
 6    2  0.7993170E+000  0.8816698E+02  0.7546771E-02  0.1307352E+00
          2   -1    0    0  502    0 -0.00000000000E+00  0.00000000000E+00  0.26043745213E+04  0.26043745213E+04  0.00000000000E+00 0. -1.
         21   -1    0    0  501  502  0.00000000000E+00 -0.00000000000E+00 -0.17086841335E+01  0.17086841335E+01  0.00000000000E+00 0. -1.
         24    2    1    2    0    0  0.24886927993E+02 -0.25791594932E+02  0.22178874785E+04  0.22196392239E+04  0.80553407743E+02 0.  0.
        -13    1    3    3    0    0 -0.25952388969E+02  0.63304193266E+01  0.87164764021E+03  0.87205688426E+03  0.00000000000E+00 0.  1.
         14    1    3    3    0    0  0.50839316962E+02 -0.32122014258E+02  0.13462398383E+04  0.13475823397E+04  0.00000000000E+00 0. -1.
          1    1    1    2  501    0 -0.24886927993E+02  0.25791594932E+02  0.38477835867E+03  0.38644398152E+03  0.00000000000E+00 0. -1.
<mgrwt>
<rscale>  1 0.88166984E+02</rscale>
<asrwt>0</asrwt>
<pdfrwt beam="1">  1       21 0.26287657E-03 0.88166984E+02</pdfrwt>
<pdfrwt beam="2">  1        2 0.40066983E+00 0.88166984E+02</pdfrwt>
<totfact> 0.13582702E+06</totfact>
</mgrwt>
</event>
<event>
 6    2  0.7993170E+000  0.8201265E+02  0.7546771E-02  0.1323435E+00
         -3   -1    0    0    0  501 -0.00000000000E+00  0.00000000000E+00  0.10673071038E+03  0.10673071038E+03  0.00000000000E+00 0.  1.
         21   -1    0    0  501  502  0.00000000000E+00 -0.00000000000E+00 -0.35513293375E+02  0.35513293375E+02  0.00000000000E+00 0.  1.
         24    2    1    2    0    0  0.34440064133E+02 -0.12685873044E+02  0.65795853126E+02  0.10514356242E+03  0.73341836884E+02 0.  0.
        -13    1    3    3    0    0  0.33544986043E+02 -0.59893606549E+01  0.81342976503E+02  0.88191940426E+02  0.00000000000E+00 0.  1.
         14    1    3    3    0    0  0.89507808937E+00 -0.66965123891E+01 -0.15547123377E+02  0.16951621995E+02  0.00000000000E+00 0. -1.
         -4    1    1    2    0  502 -0.34440064133E+02  0.12685873044E+02  0.54215638783E+01  0.37100441335E+02  0.00000000000E+00 0.  1.
<mgrwt>
<rscale>  1 0.82012648E+02</rscale>
<asrwt>0</asrwt>
<pdfrwt beam="1">  1       21 0.54635836E-02 0.82012648E+02</pdfrwt>
<pdfrwt beam="2">  1       -3 0.16420109E-01 0.82012648E+02</pdfrwt>
<totfact> 0.31952718E+05</totfact>
</mgrwt>
</event>
<event>
 6    2  0.7993170E+000  0.1169576E+03  0.7546771E-02  0.1248202E+00
         21   -1    0    0  501  502  0.00000000000E+00  0.00000000000E+00  0.10868603697E+02  0.10868603697E+02  0.00000000000E+00 0.  1.
         -1   -1    0    0    0  501 -0.00000000000E+00 -0.00000000000E+00 -0.12856889714E+04  0.12856889714E+04  0.00000000000E+00 0.  1.
         24    2    1    2    0    0 -0.70080436883E+02  0.59021402592E+02 -0.10011169322E+04  0.10079256916E+04  0.72693150548E+02 0.  0.
        -13    1    3    3    0    0 -0.65066994036E+02  0.50737947670E+02 -0.98890400022E+03  0.99234025147E+03  0.00000000000E+00 0.  1.
         14    1    3    3    0    0 -0.50134428471E+01  0.82834549212E+01 -0.12212931990E+02  0.15585440077E+02  0.00000000000E+00 0. -1.
         -2    1    1    2    0  502  0.70080436883E+02 -0.59021402592E+02 -0.27370343547E+03  0.28863188352E+03  0.00000000000E+00 0.  1.
<mgrwt>
<rscale>  1 0.11695763E+03</rscale>
<asrwt>0</asrwt>
<pdfrwt beam="1">  1       21 0.16720941E-02 0.11695763E+03</pdfrwt>
<pdfrwt beam="2">  1       -1 0.19779816E+00 0.11695763E+03</pdfrwt>
<totfact> 0.26950870E+04</totfact>
</mgrwt>
</event>
<event>
 6    2  0.7993170E+000  0.8997032E+02  0.7546771E-02  0.1302924E+00
          2   -1    0    0  502    0 -0.00000000000E+00  0.00000000000E+00  0.18196420013E+03  0.18196420013E+03  0.00000000000E+00 0. -1.
         21   -1    0    0  501  502  0.00000000000E+00 -0.00000000000E+00 -0.20804712622E+03  0.20804712622E+03  0.00000000000E+00 0. -1.
         24    2    1    2    0    0 -0.48384404924E+01  0.41992493236E+02  0.16843252930E+03  0.19095595120E+03  0.79422152931E+02 0.  0.
        -11    1    3    3    0    0  0.27578384879E+02  0.41897761863E+02  0.13661934768E+03  0.14553637319E+03  0.00000000000E+00 0.  1.
         12    1    3    3    0    0 -0.32416825372E+02  0.94731372734E-01  0.31813181621E+02  0.45419578004E+02  0.00000000000E+00 0. -1.
          1    1    1    2  501    0  0.48384404924E+01 -0.41992493236E+02 -0.19451545539E+03  0.19905537516E+03  0.00000000000E+00 0. -1.
<mgrwt>
<rscale>  1 0.89970319E+02</rscale>
<asrwt>0</asrwt>
<pdfrwt beam="1">  1       21 0.32007250E-01 0.89970319E+02</pdfrwt>
<pdfrwt beam="2">  1        2 0.27994492E-01 0.89970319E+02</pdfrwt>
<totfact> 0.21993352E+04</totfact>
</mgrwt>
</event>
<event>
 6    2  0.7993170E+000  0.8702210E+02  0.7546771E-02  0.1310228E+00
         -1   -1    0    0    0  501 -0.00000000000E+00  0.00000000000E+00  0.49819367816E+03  0.49819367816E+03  0.00000000000E+00 0.  1.
         21   -1    0    0  501  502  0.00000000000E+00 -0.00000000000E+00 -0.75498904950E+01  0.75498904950E+01  0.00000000000E+00 0.  1.
         24    2    1    2    0    0 -0.21973255655E+02 -0.20890424945E+02  0.41912241691E+03  0.42806126505E+03  0.81569678576E+02 0.  0.
        -11    1    3    3    0    0 -0.39534955008E+02 -0.38873021554E+02  0.35290252676E+03  0.35723146259E+03  0.00000000000E+00 0.  1.
         12    1    3    3    0    0  0.17561699353E+02  0.17982596609E+02  0.66219890145E+02  0.70829802455E+02  0.00000000000E+00 0. -1.
         -2    1    1    2    0  502  0.21973255655E+02  0.20890424945E+02  0.71521370759E+02  0.77682303607E+02  0.00000000000E+00 0.  1.
<mgrwt>
<rscale>  1 0.87022102E+02</rscale>
<asrwt>0</asrwt>
<pdfrwt beam="1">  1       21 0.11615220E-02 0.87022102E+02</pdfrwt>
<pdfrwt beam="2">  1       -1 0.76645156E-01 0.87022102E+02</pdfrwt>
<totfact> 0.45974879E+05</totfact>
</mgrwt>
</event>
<event>
 6    2  0.7993170E+000  0.7694585E+02  0.7546771E-02  0.1337949E+00
          2   -1    0    0  502    0 -0.00000000000E+00  0.00000000000E+00  0.98807348185E+02  0.98807348185E+02  0.00000000000E+00 0. -1.
         21   -1    0    0  501  502  0.00000000000E+00 -0.00000000000E+00 -0.43240150834E+02  0.43240150834E+02  0.00000000000E+00 0.  1.
         24    2    1    2    0    0 -0.32643294707E+02 -0.30689679545E+01 -0.67193118373E+00  0.76948782963E+02  0.69610778292E+02 0.  0.
        -13    1    3    3    0    0 -0.31097391839E+02 -0.25788318295E+02 -0.21782215192E+02  0.45897168086E+02  0.00000000000E+00 0.  1.
         14    1    3    3    0    0 -0.15459028685E+01  0.22719350341E+02  0.21110284008E+02  0.31051614877E+02  0.00000000000E+00 0. -1.
          1    1    1    2  501    0  0.32643294707E+02  0.30689679545E+01  0.56239128535E+02  0.65098716055E+02  0.00000000000E+00 0. -1.
<mgrwt>
<rscale>  1 0.76945849E+02</rscale>
<asrwt>0</asrwt>
<pdfrwt beam="1">  1       21 0.66523309E-02 0.76945849E+02</pdfrwt>
<pdfrwt beam="2">  1        2 0.15201130E-01 0.76945849E+02</pdfrwt>
<totfact> 0.71008943E+05</totfact>
</mgrwt>
</event>
<event>
 6    2  0.7993170E+000  0.8637898E+02  0.7546771E-02  0.1311865E+00
          2   -1    0    0  502    0 -0.00000000000E+00  0.00000000000E+00  0.27141591749E+03  0.27141591749E+03  0.00000000000E+00 0. -1.
         21   -1    0    0  501  502  0.00000000000E+00 -0.00000000000E+00 -0.11752925113E+02  0.11752925113E+02  0.00000000000E+00 0.  1.
         24    2    1    2    0    0  0.82706492460E+01 -0.21904649295E+02  0.17253830345E+03  0.19295283116E+03  0.83145123707E+02 0.  0.
        -11    1    3    3    0    0  0.36799950013E+02 -0.44208674958E+01  0.33550879076E+02  0.49994418460E+02  0.00000000000E+00 0.  1.
         12    1    3    3    0    0 -0.28529300767E+02 -0.17483781799E+02  0.13898742437E+03  0.14295841270E+03  0.00000000000E+00 0. -1.
          1    1    1    2  501    0 -0.82706492460E+01  0.21904649295E+02  0.87124688927E+02  0.90216011441E+02  0.00000000000E+00 0. -1.
<mgrwt>
<rscale>  1 0.86378984E+02</rscale>
<asrwt>0</asrwt>
<pdfrwt beam="1">  1       21 0.18081425E-02 0.86378984E+02</pdfrwt>
<pdfrwt beam="2">  1        2 0.41756290E-01 0.86378984E+02</pdfrwt>
<totfact> 0.20117114E+06</totfact>
</mgrwt>
</event>
<event>
 6    2  0.7993170E+000  0.8617229E+02  0.7546771E-02  0.1312395E+00
          2   -1    0    0  502    0 -0.00000000000E+00  0.00000000000E+00  0.14487482180E+04  0.14487482180E+04  0.00000000000E+00 0. -1.
         21   -1    0    0  501  502  0.00000000000E+00 -0.00000000000E+00 -0.21876477653E+01  0.21876477653E+01  0.00000000000E+00 0.  1.
         24    2    1    2    0    0  0.20030026679E+02 -0.11020828810E+02  0.12667764819E+04  0.12697040279E+04  0.83084311055E+02 0.  0.
        -13    1    3    3    0    0  0.60372569179E+01 -0.46569680200E+01  0.88413851746E+01  0.11675012378E+02  0.00000000000E+00 0.  1.
         14    1    3    3    0    0  0.13992769761E+02 -0.63638607902E+01  0.12579350967E+04  0.12580290155E+04  0.00000000000E+00 0. -1.
          1    1    1    2  501    0 -0.20030026679E+02  0.11020828810E+02  0.17978408836E+03  0.18123183788E+03  0.00000000000E+00 0. -1.
<mgrwt>
<rscale>  1 0.86172289E+02</rscale>
<asrwt>0</asrwt>
<pdfrwt beam="1">  1       21 0.33656235E-03 0.86172289E+02</pdfrwt>
<pdfrwt beam="2">  1        2 0.22288357E+00 0.86172289E+02</pdfrwt>
<totfact> 0.36148597E+06</totfact>
</mgrwt>
</event>
<event>
 6    2  0.7993170E+000  0.8237417E+02  0.7546771E-02  0.1322446E+00
         21   -1    0    0  501  502  0.00000000000E+00  0.00000000000E+00  0.24763719627E+03  0.24763719627E+03  0.00000000000E+00 0.  1.
         -1   -1    0    0    0  501 -0.00000000000E+00 -0.00000000000E+00 -0.34192272804E+02  0.34192272804E+02  0.00000000000E+00 0.  1.
         24    2    1    2    0    0 -0.76180475298E+01 -0.23090861130E+02  0.17284790955E+02  0.84168091707E+02  0.78703755611E+02 0.  0.
        -13    1    3    3    0    0 -0.39222172147E+00 -0.41715460719E+02 -0.16546418571E+02  0.44878920089E+02  0.00000000000E+00 0.  1.
         14    1    3    3    0    0 -0.72258258083E+01  0.18624599588E+02  0.33831209526E+02  0.39289171618E+02  0.00000000000E+00 0. -1.
         -2    1    1    2    0  502  0.76180475298E+01  0.23090861130E+02  0.19616013251E+03  0.19766137736E+03  0.00000000000E+00 0.  1.
<mgrwt>
<rscale>  1 0.82374169E+02</rscale>
<asrwt>0</asrwt>
<pdfrwt beam="1">  1       21 0.38098029E-01 0.82374169E+02</pdfrwt>
<pdfrwt beam="2">  1       -1 0.52603498E-02 0.82374169E+02</pdfrwt>
<totfact> 0.91947221E+04</totfact>
</mgrwt>
</event>
<event>
 6    2  0.7993170E+000  0.8864152E+02  0.7546771E-02  0.1306175E+00
          2   -1    0    0  502    0 -0.00000000000E+00  0.00000000000E+00  0.26201095182E+04  0.26201095182E+04  0.00000000000E+00 0. -1.
         21   -1    0    0  501  502  0.00000000000E+00 -0.00000000000E+00 -0.36483599345E+01  0.36483599345E+01  0.00000000000E+00 0. -1.
         24    2    1    2    0    0  0.74484730599E+01 -0.40253920963E+02  0.24725240686E+04  0.24741124850E+04  0.78622266190E+02 0.  0.
        -13    1    3    3    0    0 -0.18779867649E+01  0.23493215035E+02  0.53813575864E+03  0.53865160607E+03  0.00000000000E+00 0.  1.
         14    1    3    3    0    0  0.93264598248E+01 -0.63747135997E+02  0.19343883100E+04  0.19354608789E+04  0.00000000000E+00 0. -1.
          1    1    1    2  501    0 -0.74484730599E+01  0.40253920963E+02  0.14393708965E+03  0.14964539312E+03  0.00000000000E+00 0. -1.
<mgrwt>
<rscale>  1 0.88641518E+02</rscale>
<asrwt>0</asrwt>
<pdfrwt beam="1">  1       21 0.56128824E-03 0.88641518E+02</pdfrwt>
<pdfrwt beam="2">  1        2 0.40309227E+00 0.88641518E+02</pdfrwt>
<totfact> 0.42020198E+05</totfact>
</mgrwt>
</event>
<event>
 6    2  0.7993170E+000  0.8763837E+02  0.7546771E-02  0.1308674E+00
          2   -1    0    0  502    0 -0.00000000000E+00  0.00000000000E+00  0.24102279790E+03  0.24102279790E+03  0.00000000000E+00 0. -1.
         21   -1    0    0  501  502  0.00000000000E+00 -0.00000000000E+00 -0.15300379184E+02  0.15300379184E+02  0.00000000000E+00 0.  1.
         24    2    1    2    0    0 -0.23684581869E+02  0.60958006296E+01  0.20918192988E+03  0.22679850986E+03  0.84156794635E+02 0.  0.
        -13    1    3    3    0    0  0.15066308600E+02  0.54048695618E+00  0.11549497626E+01  0.15120174930E+02  0.00000000000E+00 0.  1.
         14    1    3    3    0    0 -0.38750890468E+02  0.55553136735E+01  0.20802698012E+03  0.21167833493E+03  0.00000000000E+00 0. -1.
          1    1    1    2  501    0  0.23684581869E+02 -0.60958006296E+01  0.16540488831E+02  0.29524667219E+02  0.00000000000E+00 0. -1.
<mgrwt>
<rscale>  1 0.87638372E+02</rscale>
<asrwt>0</asrwt>
<pdfrwt beam="1">  1       21 0.23539047E-02 0.87638372E+02</pdfrwt>
<pdfrwt beam="2">  1        2 0.37080428E-01 0.87638372E+02</pdfrwt>
<totfact> 0.14965307E+06</totfact>
</mgrwt>
</event>
<event>
 6    2  0.7993170E+000  0.7203648E+02  0.7546771E-02  0.1353302E+00
         21   -1    0    0  501  502  0.00000000000E+00  0.00000000000E+00  0.17023639583E+02  0.17023639583E+02  0.00000000000E+00 0. -1.
          2   -1    0    0  502    0 -0.00000000000E+00 -0.00000000000E+00 -0.82799337299E+03  0.82799337299E+03  0.00000000000E+00 0. -1.
         24    2    1    2    0    0 -0.89727479649E+01  0.18169587348E+02 -0.81976662966E+03  0.82292562298E+03  0.69127489071E+02 0.  0.
        -13    1    3    3    0    0 -0.95969023854E+01 -0.22353302886E+02 -0.15237616811E+03  0.15430575911E+03  0.00000000000E+00 0.  1.
         14    1    3    3    0    0  0.62415442051E+00  0.40522890234E+02 -0.66739046155E+03  0.66861986388E+03  0.00000000000E+00 0. -1.
          1    1    1    2  501    0  0.89727479649E+01 -0.18169587348E+02  0.87968962521E+01  0.22091389592E+02  0.00000000000E+00 0. -1.
<mgrwt>
<rscale>  1 0.72036476E+02</rscale>
<asrwt>0</asrwt>
<pdfrwt beam="1">  1       21 0.26190213E-02 0.72036476E+02</pdfrwt>
<pdfrwt beam="2">  1        2 0.12738360E+00 0.72036476E+02</pdfrwt>
<totfact> 0.32468174E+05</totfact>
</mgrwt>
</event>
<event>
 6    2  0.7993170E+000  0.9304392E+02  0.7546771E-02  0.1295643E+00
          2   -1    0    0  502    0 -0.00000000000E+00  0.00000000000E+00  0.14375550248E+04  0.14375550248E+04  0.00000000000E+00 0. -1.
         21   -1    0    0  501  502  0.00000000000E+00 -0.00000000000E+00 -0.64659381569E+01  0.64659381569E+01  0.00000000000E+00 0. -1.
         24    2    1    2    0    0  0.22984511871E+02  0.42443810471E+02  0.13151307513E+04  0.13184180156E+04  0.79544994675E+02 0.  0.
        -13    1    3    3    0    0  0.25880747136E+02 -0.72060314348E+01  0.16177984869E+03  0.16399530299E+03  0.00000000000E+00 0.  1.
         14    1    3    3    0    0 -0.28962352649E+01  0.49649841906E+02  0.11533509026E+04  0.11544227126E+04  0.00000000000E+00 0. -1.
          1    1    1    2  501    0 -0.22984511871E+02 -0.42443810471E+02  0.11595833534E+03  0.12560294729E+03  0.00000000000E+00 0. -1.
<mgrwt>
<rscale>  1 0.93043920E+02</rscale>
<asrwt>0</asrwt>
<pdfrwt beam="1">  1       21 0.99476086E-03 0.93043920E+02</pdfrwt>
<pdfrwt beam="2">  1        2 0.22116206E+00 0.93043920E+02</pdfrwt>
<totfact> 0.69541405E+05</totfact>
</mgrwt>
</event>
<event>
 6    2  0.7993170E+000  0.9058439E+02  0.7546771E-02  0.1301443E+00
         21   -1    0    0  501  502  0.00000000000E+00  0.00000000000E+00  0.12045592755E+03  0.12045592755E+03  0.00000000000E+00 0. -1.
         -1   -1    0    0    0  501 -0.00000000000E+00 -0.00000000000E+00 -0.31705974781E+02  0.31705974781E+02  0.00000000000E+00 0.  1.
         24    2    1    2    0    0 -0.10137868536E+02 -0.28865938222E+02  0.78589887888E+02  0.11992456860E+03  0.85261438572E+02 0.  0.
        -13    1    3    3    0    0 -0.26160238829E+02  0.10992670009E+02 -0.21608472016E+01  0.28458147342E+02  0.00000000000E+00 0.  1.
         14    1    3    3    0    0  0.16022370293E+02 -0.39858608231E+02  0.80750735090E+02  0.91466421256E+02  0.00000000000E+00 0. -1.
         -2    1    1    2    0  502  0.10137868536E+02  0.28865938222E+02  0.10160064884E+02  0.32237333735E+02  0.00000000000E+00 0.  1.
<mgrwt>
<rscale>  1 0.90584390E+02</rscale>
<asrwt>0</asrwt>
<pdfrwt beam="1">  1       21 0.18531681E-01 0.90584390E+02</pdfrwt>
<pdfrwt beam="2">  1       -1 0.48778424E-02 0.90584390E+02</pdfrwt>
<totfact> 0.40230939E+05</totfact>
</mgrwt>
</event>
<event>
 6    2  0.7993170E+000  0.9067778E+02  0.7546771E-02  0.1301219E+00
         21   -1    0    0  501  502  0.00000000000E+00  0.00000000000E+00  0.16332947713E+01  0.16332947713E+01  0.00000000000E+00 0.  1.
          2   -1    0    0  502    0 -0.00000000000E+00 -0.00000000000E+00 -0.26566322526E+04  0.26566322526E+04  0.00000000000E+00 0. -1.
         24    2    1    2    0    0 -0.31562072144E+02 -0.21136525108E+02 -0.15841797197E+04  0.15867727766E+04  0.82337981055E+02 0.  0.
        -13    1    3    3    0    0 -0.10340932988E+02  0.40882030266E+01 -0.26424816754E+02  0.28669133917E+02  0.00000000000E+00 0.  1.
         14    1    3    3    0    0 -0.21221139155E+02 -0.25224728134E+02 -0.15577549029E+04  0.15581036427E+04  0.00000000000E+00 0. -1.
          1    1    1    2  501    0  0.31562072144E+02  0.21136525108E+02 -0.10708192382E+04  0.10714927708E+04  0.00000000000E+00 0. -1.
<mgrwt>
<rscale>  1 0.90677782E+02</rscale>
<asrwt>0</asrwt>
<pdfrwt beam="1">  1       21 0.25127702E-03 0.90677782E+02</pdfrwt>
<pdfrwt beam="2">  1        2 0.40871118E+00 0.90677782E+02</pdfrwt>
<totfact> 0.13647504E+06</totfact>
</mgrwt>
</event>
<event>
 6    2  0.7993170E+000  0.9464687E+02  0.7546771E-02  0.1291973E+00
          2   -1    0    0  502    0 -0.00000000000E+00  0.00000000000E+00  0.13467428099E+03  0.13467428099E+03  0.00000000000E+00 0. -1.
         21   -1    0    0  501  502  0.00000000000E+00 -0.00000000000E+00 -0.76111110643E+02  0.76111110643E+02  0.00000000000E+00 0. -1.
         24    2    1    2    0    0  0.60097868119E+01 -0.48683210775E+02  0.10630614783E+03  0.14233420867E+03  0.80943544169E+02 0.  0.
        -11    1    3    3    0    0 -0.17937121691E+02 -0.51147434524E+02  0.29218959422E+02  0.61575546954E+02  0.00000000000E+00 0.  1.
         12    1    3    3    0    0  0.23946908503E+02  0.24642237493E+01  0.77087188412E+02  0.80758661720E+02  0.00000000000E+00 0. -1.
          1    1    1    2  501    0 -0.60097868119E+01  0.48683210775E+02 -0.47742977488E+02  0.68451182958E+02  0.00000000000E+00 0. -1.
<mgrwt>
<rscale>  1 0.94646869E+02</rscale>
<asrwt>0</asrwt>
<pdfrwt beam="1">  1       21 0.11709402E-01 0.94646869E+02</pdfrwt>
<pdfrwt beam="2">  1        2 0.20719120E-01 0.94646869E+02</pdfrwt>
<totfact> 0.19291666E+05</totfact>
</mgrwt>
</event>
<event>
 6    2  0.7993170E+000  0.8733603E+02  0.7546771E-02  0.1309434E+00
         -1   -1    0    0    0  501 -0.00000000000E+00  0.00000000000E+00  0.43571529942E+02  0.43571529942E+02  0.00000000000E+00 0.  1.
         21   -1    0    0  501  502  0.00000000000E+00 -0.00000000000E+00 -0.15773782456E+03  0.15773782456E+03  0.00000000000E+00 0. -1.
         24    2    1    2    0    0  0.16452760485E+02  0.28390339616E+02 -0.51788296313E+01  0.87489443084E+02  0.80937492324E+02 0.  0.
        -11    1    3    3    0    0 -0.30114660044E+02 -0.43256231137E+01 -0.15748178804E+01  0.30464468093E+02  0.00000000000E+00 0.  1.
         12    1    3    3    0    0  0.46567420528E+02  0.32715962730E+02 -0.36040117510E+01  0.57024974991E+02  0.00000000000E+00 0. -1.
         -2    1    1    2    0  502 -0.16452760485E+02 -0.28390339616E+02 -0.10898746499E+03  0.11381991142E+03  0.00000000000E+00 0.  1.
<mgrwt>
<rscale>  1 0.87336031E+02</rscale>
<asrwt>0</asrwt>
<pdfrwt beam="1">  1       21 0.24267357E-01 0.87336031E+02</pdfrwt>
<pdfrwt beam="2">  1       -1 0.67033123E-02 0.87336031E+02</pdfrwt>
<totfact> 0.15298596E+05</totfact>
</mgrwt>
</event>
<event>
 6    2  0.7993170E+000  0.8912483E+02  0.7546771E-02  0.1304985E+00
         -1   -1    0    0    0  501 -0.00000000000E+00  0.00000000000E+00  0.12997178968E+04  0.12997178968E+04  0.00000000000E+00 0.  1.
         21   -1    0    0  501  502  0.00000000000E+00 -0.00000000000E+00 -0.22819210321E+02  0.22819210321E+02  0.00000000000E+00 0.  1.
         24    2    1    2    0    0 -0.12178087261E+02  0.35929987594E+02  0.12812541514E+04  0.12843501998E+04  0.80647166322E+02 0.  0.
        -11    1    3    3    0    0 -0.32541811093E+02  0.52861084467E+02  0.96115238023E+03  0.96315479635E+03  0.00000000000E+00 0.  1.
         12    1    3    3    0    0  0.20363723833E+02 -0.16931096873E+02  0.32010177117E+03  0.32119540345E+03  0.00000000000E+00 0. -1.
         -2    1    1    2    0  502  0.12178087261E+02 -0.35929987594E+02 -0.43554648982E+01  0.38186907342E+02  0.00000000000E+00 0.  1.
<mgrwt>
<rscale>  1 0.89124830E+02</rscale>
<asrwt>0</asrwt>
<pdfrwt beam="1">  1       21 0.35106488E-02 0.89124830E+02</pdfrwt>
<pdfrwt beam="2">  1       -1 0.19995654E+00 0.89124830E+02</pdfrwt>
<totfact> 0.78457058E+03</totfact>
</mgrwt>
</event>
<event>
 6    2  0.7993170E+000  0.8519593E+02  0.7546771E-02  0.1314921E+00
         -1   -1    0    0    0  501 -0.00000000000E+00  0.00000000000E+00  0.30374495409E+03  0.30374495409E+03  0.00000000000E+00 0.  1.
         21   -1    0    0  501  502  0.00000000000E+00 -0.00000000000E+00 -0.23689022001E+03  0.23689022001E+03  0.00000000000E+00 0.  1.
         24    2    1    2    0    0 -0.76317616978E+01  0.24661617204E+02  0.29703512026E+03  0.30901166638E+03  0.81190566799E+02 0.  0.
        -13    1    3    3    0    0 -0.23862619013E+02  0.99314748544E+01  0.28015971226E+03  0.28134946802E+03  0.00000000000E+00 0.  1.
         14    1    3    3    0    0  0.16230857315E+02  0.14730142350E+02  0.16875408002E+02  0.27662198359E+02  0.00000000000E+00 0. -1.
         -2    1    1    2    0  502  0.76317616978E+01 -0.24661617204E+02 -0.23018038618E+03  0.23162350773E+03  0.00000000000E+00 0.  1.
<mgrwt>
<rscale>  1 0.85195935E+02</rscale>
<asrwt>0</asrwt>
<pdfrwt beam="1">  1       21 0.36444650E-01 0.85195935E+02</pdfrwt>
<pdfrwt beam="2">  1       -1 0.46729993E-01 0.85195935E+02</pdfrwt>
<totfact> 0.32254089E+03</totfact>
</mgrwt>
</event>
<event>
 6    2  0.7993170E+000  0.1026206E+03  0.7546771E-02  0.1274880E+00
         21   -1    0    0  501  502  0.00000000000E+00  0.00000000000E+00  0.55912067462E+01  0.55912067462E+01  0.00000000000E+00 0.  1.
         -1   -1    0    0    0  501 -0.00000000000E+00 -0.00000000000E+00 -0.16464986791E+04  0.16464986791E+04  0.00000000000E+00 0.  1.
         24    2    1    2    0    0  0.12662230701E+02  0.61761962419E+02 -0.13744329559E+04  0.13782586605E+04  0.80969826006E+02 0.  0.
        -13    1    3    3    0    0  0.33140644572E+02  0.59842256871E+02 -0.12687522855E+04  0.12705950417E+04  0.00000000000E+00 0.  1.
         14    1    3    3    0    0 -0.20478413871E+02  0.19197055479E+01 -0.10568067045E+03  0.10766361879E+03  0.00000000000E+00 0. -1.
         -2    1    1    2    0  502 -0.12662230701E+02 -0.61761962419E+02 -0.26647451642E+03  0.27383122537E+03  0.00000000000E+00 0.  1.
<mgrwt>
<rscale>  1 0.10262059E+03</rscale>
<asrwt>0</asrwt>
<pdfrwt beam="1">  1       21 0.86018613E-03 0.10262059E+03</pdfrwt>
<pdfrwt beam="2">  1       -1 0.25330735E+00 0.10262059E+03</pdfrwt>
<totfact> 0.34243962E+04</totfact>
</mgrwt>
</event>
<event>
 6    2  0.7993170E+000  0.8660887E+02  0.7546771E-02  0.1311278E+00
          2   -1    0    0  502    0 -0.00000000000E+00  0.00000000000E+00  0.20624614848E+04  0.20624614848E+04  0.00000000000E+00 0. -1.
         21   -1    0    0  501  502  0.00000000000E+00 -0.00000000000E+00 -0.25795712474E+01  0.25795712474E+01  0.00000000000E+00 0.  1.
         24    2    1    2    0    0 -0.16163496743E+01  0.34958622529E+02  0.18671518887E+04  0.18691595093E+04  0.79223594136E+02 0.  0.
        -13    1    3    3    0    0 -0.11762420910E+02  0.57695178081E+02  0.10700120871E+04  0.10716309788E+04  0.00000000000E+00 0.  1.
         14    1    3    3    0    0  0.10146071235E+02 -0.22736555552E+02  0.79713980156E+03  0.79752853049E+03  0.00000000000E+00 0. -1.
          1    1    1    2  501    0  0.16163496743E+01 -0.34958622529E+02  0.19273002488E+03  0.19588154678E+03  0.00000000000E+00 0. -1.
<mgrwt>
<rscale>  1 0.86608866E+02</rscale>
<asrwt>0</asrwt>
<pdfrwt beam="1">  1       21 0.39685876E-03 0.86608866E+02</pdfrwt>
<pdfrwt beam="2">  1        2 0.31730045E+00 0.86608866E+02</pdfrwt>
<totfact> 0.13831647E+06</totfact>
</mgrwt>
</event>
<event>
 6    2  0.7993170E+000  0.9009043E+02  0.7546771E-02  0.1302633E+00
         21   -1    0    0  501  502  0.00000000000E+00  0.00000000000E+00  0.10143227579E+02  0.10143227579E+02  0.00000000000E+00 0.  1.
          2   -1    0    0  502    0 -0.00000000000E+00 -0.00000000000E+00 -0.42692278191E+03  0.42692278191E+03  0.00000000000E+00 0. -1.
         24    2    1    2    0    0  0.16751110622E+02  0.37257127084E+02 -0.30639875040E+03  0.31936887655E+03  0.80296898048E+02 0.  0.
        -11    1    3    3    0    0 -0.15350010164E+02  0.29643869604E+01 -0.85107591747E+01  0.17800096174E+02  0.00000000000E+00 0.  1.
         12    1    3    3    0    0  0.32101120785E+02  0.34292740123E+02 -0.29788799122E+03  0.30156878037E+03  0.00000000000E+00 0. -1.
          1    1    1    2  501    0 -0.16751110622E+02 -0.37257127084E+02 -0.11038080393E+03  0.11769713294E+03  0.00000000000E+00 0. -1.
<mgrwt>
<rscale>  1 0.90090427E+02</rscale>
<asrwt>0</asrwt>
<pdfrwt beam="1">  1       21 0.15604964E-02 0.90090427E+02</pdfrwt>
<pdfrwt beam="2">  1        2 0.65680436E-01 0.90090427E+02</pdfrwt>
<totfact> 0.15901067E+06</totfact>
</mgrwt>
</event>
<event>
 6    2  0.7993170E+000  0.8727961E+02  0.7546771E-02  0.1309576E+00
          2   -1    0    0  502    0 -0.00000000000E+00  0.00000000000E+00  0.66299678026E+02  0.66299678026E+02  0.00000000000E+00 0. -1.
         21   -1    0    0  501  502  0.00000000000E+00 -0.00000000000E+00 -0.63168657560E+02  0.63168657560E+02  0.00000000000E+00 0. -1.
         24    2    1    2    0    0 -0.35954339027E+02 -0.21014273109E+01  0.20239614592E+02  0.89595607005E+02  0.79502203140E+02 0.  0.
        -13    1    3    3    0    0  0.25007559481E+02  0.35502272855E+01  0.11494843351E+02  0.27750920140E+02  0.00000000000E+00 0.  1.
         14    1    3    3    0    0 -0.60961898508E+02 -0.56516545964E+01  0.87447712412E+01  0.61844686865E+02  0.00000000000E+00 0. -1.
          1    1    1    2  501    0  0.35954339027E+02  0.21014273109E+01 -0.17108594126E+02  0.39872728582E+02  0.00000000000E+00 0. -1.
<mgrwt>
<rscale>  1 0.87279613E+02</rscale>
<asrwt>0</asrwt>
<pdfrwt beam="1">  1       21 0.97182551E-02 0.87279613E+02</pdfrwt>
<pdfrwt beam="2">  1        2 0.10199950E-01 0.87279613E+02</pdfrwt>
<totfact> 0.60345412E+05</totfact>
</mgrwt>
</event>
<event>
 6    2  0.7993170E+000  0.8018642E+02  0.7546771E-02  0.1328523E+00
         21   -1    0    0  501  502  0.00000000000E+00  0.00000000000E+00  0.41265138637E+01  0.41265138637E+01  0.00000000000E+00 0.  1.
          2   -1    0    0  502    0 -0.00000000000E+00 -0.00000000000E+00 -0.61802987883E+03  0.61802987883E+03  0.00000000000E+00 0. -1.
         24    2    1    2    0    0 -0.20310358970E+02 -0.34715524478E+01 -0.47146612892E+03  0.47823652412E+03  0.77493870243E+02 0.  0.
        -11    1    3    3    0    0  0.87109249297E+00 -0.24504219959E+02 -0.49739261529E+02  0.55454573620E+02  0.00000000000E+00 0.  1.
         12    1    3    3    0    0 -0.21181451463E+02  0.21032667511E+02 -0.42172686740E+03  0.42278195050E+03  0.00000000000E+00 0. -1.
          1    1    1    2  501    0  0.20310358970E+02  0.34715524478E+01 -0.14243723604E+03  0.14391986857E+03  0.00000000000E+00 0. -1.
<mgrwt>
<rscale>  1 0.80186422E+02</rscale>
<asrwt>0</asrwt>
<pdfrwt beam="1">  1       21 0.63484830E-03 0.80186422E+02</pdfrwt>
<pdfrwt beam="2">  1        2 0.95081517E-01 0.80186422E+02</pdfrwt>
<totfact> 0.42720506E+06</totfact>
</mgrwt>
</event>
<event>
 6    2  0.7993170E+000  0.9625569E+02  0.7546771E-02  0.1288373E+00
          2   -1    0    0  502    0 -0.00000000000E+00  0.00000000000E+00  0.32028791767E+04  0.32028791767E+04  0.00000000000E+00 0. -1.
         21   -1    0    0  501  502  0.00000000000E+00 -0.00000000000E+00 -0.26537408182E+01  0.26537408182E+01  0.00000000000E+00 0. -1.
         24    2    1    2    0    0 -0.51062867151E+02  0.17211272105E+02  0.28049925162E+04  0.28066435781E+04  0.79759101996E+02 0.  0.
        -11    1    3    3    0    0  0.99690265087E+01  0.31313034120E+02  0.11387372989E+04  0.11392113603E+04  0.00000000000E+00 0.  1.
         12    1    3    3    0    0 -0.61031893659E+02 -0.14101762015E+02  0.16662552173E+04  0.16674322178E+04  0.00000000000E+00 0. -1.
          1    1    1    2  501    0  0.51062867151E+02 -0.17211272105E+02  0.39523291973E+03  0.39888933945E+03  0.00000000000E+00 0. -1.
<mgrwt>
<rscale>  1 0.96255694E+02</rscale>
<asrwt>0</asrwt>
<pdfrwt beam="1">  1       21 0.40827038E-03 0.96255694E+02</pdfrwt>
<pdfrwt beam="2">  1        2 0.49274755E+00 0.96255694E+02</pdfrwt>
<totfact> 0.32207235E+05</totfact>
</mgrwt>
</event>
<event>
 6    2  0.7993170E+000  0.8184630E+02  0.7546771E-02  0.1323892E+00
         21   -1    0    0  501  502  0.00000000000E+00  0.00000000000E+00  0.45615284827E+02  0.45615284827E+02  0.00000000000E+00 0.  1.
         -1   -1    0    0    0  501 -0.00000000000E+00 -0.00000000000E+00 -0.18941968999E+03  0.18941968999E+03  0.00000000000E+00 0.  1.
         24    2    1    2    0    0 -0.20586218484E+02  0.43066879589E+00 -0.17754821619E+03  0.19550495268E+03  0.79213885032E+02 0.  0.
        -13    1    3    3    0    0 -0.22092616485E+02  0.10119051086E+02 -0.18278235984E+03  0.18439053654E+03  0.00000000000E+00 0.  1.
         14    1    3    3    0    0  0.15063980012E+01 -0.96883822904E+01  0.52341436466E+01  0.11114416137E+02  0.00000000000E+00 0. -1.
         -2    1    1    2    0  502  0.20586218484E+02 -0.43066879589E+00  0.33743811032E+02  0.39530022136E+02  0.00000000000E+00 0.  1.
<mgrwt>
<rscale>  1 0.81846304E+02</rscale>
<asrwt>0</asrwt>
<pdfrwt beam="1">  1       21 0.70177360E-02 0.81846304E+02</pdfrwt>
<pdfrwt beam="2">  1       -1 0.29141491E-01 0.81846304E+02</pdfrwt>
<totfact> 0.14032323E+05</totfact>
</mgrwt>
</event>
<event>
 6    2  0.7993170E+000  0.8589807E+02  0.7546771E-02  0.1313101E+00
          2   -1    0    0  502    0 -0.00000000000E+00  0.00000000000E+00  0.26753072213E+03  0.26753072213E+03  0.00000000000E+00 0. -1.
         21   -1    0    0  501  502  0.00000000000E+00 -0.00000000000E+00 -0.16361777375E+02  0.16361777375E+02  0.00000000000E+00 0. -1.
         24    2    1    2    0    0 -0.28549432174E+02 -0.24829433989E+01  0.23667042966E+03  0.25177642837E+03  0.80976802358E+02 0.  0.
        -11    1    3    3    0    0 -0.96717042999E+01  0.36556298609E+02  0.70039831218E+02  0.79595746049E+02  0.00000000000E+00 0.  1.
         12    1    3    3    0    0 -0.18877727874E+02 -0.39039242007E+02  0.16663059844E+03  0.17218068232E+03  0.00000000000E+00 0. -1.
          1    1    1    2  501    0  0.28549432174E+02  0.24829433989E+01  0.14498515095E+02  0.32116071138E+02  0.00000000000E+00 0. -1.
<mgrwt>
<rscale>  1 0.85898065E+02</rscale>
<asrwt>0</asrwt>
<pdfrwt beam="1">  1       21 0.25171967E-02 0.85898065E+02</pdfrwt>
<pdfrwt beam="2">  1        2 0.41158569E-01 0.85898065E+02</pdfrwt>
<totfact> 0.12013426E+06</totfact>
</mgrwt>
</event>
<event>
 6    2  0.7993170E+000  0.1087112E+03  0.7546771E-02  0.1262975E+00
         -1   -1    0    0    0  501 -0.00000000000E+00  0.00000000000E+00  0.35934576647E+02  0.35934576647E+02  0.00000000000E+00 0.  1.
         21   -1    0    0  501  502  0.00000000000E+00 -0.00000000000E+00 -0.58491593076E+03  0.58491593076E+03  0.00000000000E+00 0.  1.
         24    2    1    2    0    0 -0.73321057547E+02  0.10209827787E+02 -0.55896806746E+02  0.12223984876E+03  0.79610988926E+02 0.  0.
        -13    1    3    3    0    0 -0.47212189220E+02  0.11204323572E+02  0.11575739046E+02  0.49885122152E+02  0.00000000000E+00 0.  1.
         14    1    3    3    0    0 -0.26108868327E+02 -0.99449578485E+00 -0.67472545792E+02  0.72354726610E+02  0.00000000000E+00 0. -1.
         -2    1    1    2    0  502  0.73321057547E+02 -0.10209827787E+02 -0.49308454737E+03  0.49861065865E+03  0.00000000000E+00 0.  1.
<mgrwt>
<rscale>  1 0.10871121E+03</rscale>
<asrwt>0</asrwt>
<pdfrwt beam="1">  1       21 0.89987064E-01 0.10871121E+03</pdfrwt>
<pdfrwt beam="2">  1       -1 0.55283966E-02 0.10871121E+03</pdfrwt>
<totfact> 0.14143324E+04</totfact>
</mgrwt>
</event>
<event>
 6    2  0.7993170E+000  0.1270214E+03  0.7546771E-02  0.1231944E+00
          2   -1    0    0  502    0 -0.00000000000E+00  0.00000000000E+00  0.18492953063E+04  0.18492953063E+04  0.00000000000E+00 0. -1.
         21   -1    0    0  501  502  0.00000000000E+00 -0.00000000000E+00 -0.74845785070E+01  0.74845785070E+01  0.00000000000E+00 0. -1.
         24    2    1    2    0    0 -0.73702782980E+02 -0.65345067604E+02  0.76501560692E+03  0.77548907729E+03  0.80201945674E+02 0.  0.
        -11    1    3    3    0    0 -0.25365873726E+02 -0.10583799149E+02  0.52686618039E+02  0.59424944886E+02  0.00000000000E+00 0.  1.
         12    1    3    3    0    0 -0.48336909254E+02 -0.54761268456E+02  0.71232898888E+03  0.71606413241E+03  0.00000000000E+00 0. -1.
          1    1    1    2  501    0  0.73702782980E+02  0.65345067604E+02  0.10767951209E+04  0.10812908075E+04  0.00000000000E+00 0. -1.
<mgrwt>
<rscale>  1 0.12702138E+03</rscale>
<asrwt>0</asrwt>
<pdfrwt beam="1">  1       21 0.11514751E-02 0.12702138E+03</pdfrwt>
<pdfrwt beam="2">  1        2 0.28450661E+00 0.12702138E+03</pdfrwt>
<totfact> 0.34442014E+05</totfact>
</mgrwt>
</event>
<event>
 6    2  0.7993170E+000  0.8693893E+02  0.7546771E-02  0.1310439E+00
          2   -1    0    0  502    0 -0.00000000000E+00  0.00000000000E+00  0.69967503219E+03  0.69967503219E+03  0.00000000000E+00 0. -1.
         21   -1    0    0  501  502  0.00000000000E+00 -0.00000000000E+00 -0.55605289256E+01  0.55605289256E+01  0.00000000000E+00 0.  1.
         24    2    1    2    0    0  0.13968857092E+02  0.25910010167E+02  0.60901244369E+03  0.61518658478E+03  0.81804155936E+02 0.  0.
        -13    1    3    3    0    0  0.43946024648E+02  0.18460381759E+02  0.22828887447E+03  0.23321202581E+03  0.00000000000E+00 0.  1.
         14    1    3    3    0    0 -0.29977167557E+02  0.74496284081E+01  0.38072356922E+03  0.38197455897E+03  0.00000000000E+00 0. -1.
          1    1    1    2  501    0 -0.13968857092E+02 -0.25910010167E+02  0.85102059571E+02  0.90048976332E+02  0.00000000000E+00 0. -1.
<mgrwt>
<rscale>  1 0.86938930E+02</rscale>
<asrwt>0</asrwt>
<pdfrwt beam="1">  1       21 0.85546654E-03 0.86938930E+02</pdfrwt>
<pdfrwt beam="2">  1        2 0.10764224E+00 0.86938930E+02</pdfrwt>
<totfact> 0.23612729E+06</totfact>
</mgrwt>
</event>
<event>
 6    2  0.7993170E+000  0.8431439E+02  0.7546771E-02  0.1317235E+00
          2   -1    0    0  502    0 -0.00000000000E+00  0.00000000000E+00  0.26815120751E+04  0.26815120751E+04  0.00000000000E+00 0. -1.
         21   -1    0    0  501  502  0.00000000000E+00 -0.00000000000E+00 -0.16570569878E+01  0.16570569878E+01  0.00000000000E+00 0. -1.
         24    2    1    2    0    0 -0.94894736106E+01  0.19452440640E+02  0.25591801216E+04  0.25605686500E+04  0.81489073443E+02 0.  0.
        -11    1    3    3    0    0 -0.38009885364E+02  0.20289513834E+02  0.80172687241E+03  0.80288379838E+03  0.00000000000E+00 0.  1.
         12    1    3    3    0    0  0.28520411753E+02 -0.83707319459E+00  0.17574532492E+04  0.17576848516E+04  0.00000000000E+00 0. -1.
          1    1    1    2  501    0  0.94894736106E+01 -0.19452440640E+02  0.12067489651E+03  0.12260048207E+03  0.00000000000E+00 0. -1.
<mgrwt>
<rscale>  1 0.84314392E+02</rscale>
<asrwt>0</asrwt>
<pdfrwt beam="1">  1       21 0.25493399E-03 0.84314392E+02</pdfrwt>
<pdfrwt beam="2">  1        2 0.41253685E+00 0.84314392E+02</pdfrwt>
<totfact> 0.12915089E+06</totfact>
</mgrwt>
</event>
<event>
 6    2  0.7993170E+000  0.8571265E+02  0.7546771E-02  0.1313579E+00
         21   -1    0    0  501  502  0.00000000000E+00  0.00000000000E+00  0.16109743918E+02  0.16109743918E+02  0.00000000000E+00 0. -1.
          2   -1    0    0  502    0 -0.00000000000E+00 -0.00000000000E+00 -0.70494817206E+03  0.70494817206E+03  0.00000000000E+00 0. -1.
         24    2    1    2    0    0 -0.21523349945E+02 -0.20094502760E+02 -0.68615779141E+03  0.69149054465E+03  0.80496055722E+02 0.  0.
        -13    1    3    3    0    0 -0.42487846210E+00  0.22992711025E+02 -0.74849341400E+02  0.78302421355E+02  0.00000000000E+00 0.  1.
         14    1    3    3    0    0 -0.21098471483E+02 -0.43087213785E+02 -0.61130845001E+03  0.61318812329E+03  0.00000000000E+00 0. -1.
          1    1    1    2  501    0  0.21523349945E+02  0.20094502760E+02 -0.26806367270E+01  0.29567371329E+02  0.00000000000E+00 0. -1.
<mgrwt>
<rscale>  1 0.85712651E+02</rscale>
<asrwt>0</asrwt>
<pdfrwt beam="1">  1       21 0.24784225E-02 0.85712651E+02</pdfrwt>
<pdfrwt beam="2">  1        2 0.10845355E+00 0.85712651E+02</pdfrwt>
<totfact> 0.43496260E+05</totfact>
</mgrwt>
</event>
<event>
 6    2  0.7993170E+000  0.9931259E+02  0.7546771E-02  0.1281748E+00
         21   -1    0    0  501  502  0.00000000000E+00  0.00000000000E+00  0.33319413666E+03  0.33319413666E+03  0.00000000000E+00 0.  1.
          2   -1    0    0  502    0 -0.00000000000E+00 -0.00000000000E+00 -0.21032012182E+02  0.21032012182E+02  0.00000000000E+00 0. -1.
         24    2    1    2    0    0  0.52285022005E+02  0.13291503231E+02  0.26342287632E+03  0.28152194061E+03  0.83382274429E+02 0.  0.
        -11    1    3    3    0    0  0.60934055703E+02  0.37764554527E+02  0.21415025809E+03  0.22583058642E+03  0.00000000000E+00 0.  1.
         12    1    3    3    0    0 -0.86490336984E+01 -0.24473051296E+02  0.49272618234E+02  0.55691354188E+02  0.00000000000E+00 0. -1.
          1    1    1    2  501    0 -0.52285022005E+02 -0.13291503231E+02  0.48739248153E+02  0.72704208233E+02  0.00000000000E+00 0. -1.
<mgrwt>
<rscale>  1 0.99312594E+02</rscale>
<asrwt>0</asrwt>
<pdfrwt beam="1">  1       21 0.51260633E-01 0.99312594E+02</pdfrwt>
<pdfrwt beam="2">  1        2 0.32356944E-02 0.99312594E+02</pdfrwt>
<totfact> 0.11844786E+05</totfact>
</mgrwt>
</event>
<event>
 6    2  0.7993170E+000  0.8466973E+02  0.7546771E-02  0.1316298E+00
         21   -1    0    0  501  502  0.00000000000E+00  0.00000000000E+00  0.20404530481E+04  0.20404530481E+04  0.00000000000E+00 0.  1.
          2   -1    0    0  502    0 -0.00000000000E+00 -0.00000000000E+00 -0.13784660370E+01  0.13784660370E+01  0.00000000000E+00 0. -1.
         24    2    1    2    0    0  0.88693782703E+01 -0.19086068766E+02  0.15623871550E+04  0.15646797070E+04  0.82012313924E+02 0.  0.
        -11    1    3    3    0    0 -0.30885203601E+02 -0.12857557150E+02  0.11106891494E+04  0.11111928722E+04  0.00000000000E+00 0.  1.
         12    1    3    3    0    0  0.39754581871E+02 -0.62285116163E+01  0.45169800556E+03  0.45348683483E+03  0.00000000000E+00 0. -1.
          1    1    1    2  501    0 -0.88693782703E+01  0.19086068766E+02  0.47668742708E+03  0.47715180711E+03  0.00000000000E+00 0. -1.
<mgrwt>
<rscale>  1 0.84669732E+02</rscale>
<asrwt>0</asrwt>
<pdfrwt beam="1">  1       21 0.31391344E+00 0.84669732E+02</pdfrwt>
<pdfrwt beam="2">  1        2 0.21207333E-03 0.84669732E+02</pdfrwt>
<totfact> 0.44936317E+04</totfact>
</mgrwt>
</event>
<event>
 6    2  0.7993170E+000  0.8077634E+02  0.7546771E-02  0.1326863E+00
          2   -1    0    0  502    0 -0.00000000000E+00  0.00000000000E+00  0.18573599987E+04  0.18573599987E+04  0.00000000000E+00 0. -1.
         21   -1    0    0  501  502  0.00000000000E+00 -0.00000000000E+00 -0.15859974223E+01  0.15859974223E+01  0.00000000000E+00 0.  1.
         24    2    1    2    0    0  0.24090425560E+00  0.20432874422E+02  0.16880906106E+04  0.16900221082E+04  0.78148936745E+02 0.  0.
        -11    1    3    3    0    0 -0.28119816584E+02 -0.12656497749E+01  0.26637454733E+03  0.26785765888E+03  0.00000000000E+00 0.  1.
         12    1    3    3    0    0  0.28360720840E+02  0.21698524197E+02  0.14217160633E+04  0.14221644493E+04  0.00000000000E+00 0. -1.
          1    1    1    2  501    0 -0.24090425560E+00 -0.20432874422E+02  0.16768339072E+03  0.16892388794E+03  0.00000000000E+00 0. -1.
<mgrwt>
<rscale>  1 0.80776338E+02</rscale>
<asrwt>0</asrwt>
<pdfrwt beam="1">  1       21 0.24400109E-03 0.80776338E+02</pdfrwt>
<pdfrwt beam="2">  1        2 0.28574595E+00 0.80776338E+02</pdfrwt>
<totfact> 0.36359013E+06</totfact>
</mgrwt>
</event>
<event>
 6    2  0.7993170E+000  0.1320827E+03  0.7546771E-02  0.1224398E+00
         21   -1    0    0  501  502  0.00000000000E+00  0.00000000000E+00  0.47252740931E+02  0.47252740931E+02  0.00000000000E+00 0.  1.
          2   -1    0    0  502    0 -0.00000000000E+00 -0.00000000000E+00 -0.28699249886E+03  0.28699249886E+03  0.00000000000E+00 0. -1.
         24    2    1    2    0    0  0.52137805669E+02 -0.86174983658E+02 -0.14091566320E+03  0.19314002980E+03  0.85448044951E+02 0.  0.
        -13    1    3    3    0    0  0.64308397178E+02 -0.86592441734E+02 -0.89069201815E+02  0.13988260658E+03  0.00000000000E+00 0.  1.
         14    1    3    3    0    0 -0.12170591509E+02  0.41745807568E+00 -0.51846461385E+02  0.53257423211E+02  0.00000000000E+00 0. -1.
          1    1    1    2  501    0 -0.52137805669E+02  0.86174983658E+02 -0.98824094727E+02  0.14110520999E+03  0.00000000000E+00 0. -1.
<mgrwt>
<rscale>  1 0.13208273E+03</rscale>
<asrwt>0</asrwt>
<pdfrwt beam="1">  1       21 0.72696526E-02 0.13208273E+03</pdfrwt>
<pdfrwt beam="2">  1        2 0.44152691E-01 0.13208273E+03</pdfrwt>
<totfact> 0.19846048E+05</totfact>
</mgrwt>
</event>
<event>
 6    2  0.7993170E+000  0.8472471E+02  0.7546771E-02  0.1316154E+00
         21   -1    0    0  501  502  0.00000000000E+00  0.00000000000E+00  0.47973679495E+01  0.47973679495E+01  0.00000000000E+00 0.  1.
         -3   -1    0    0    0  501 -0.00000000000E+00 -0.00000000000E+00 -0.72523168466E+03  0.72523168466E+03  0.00000000000E+00 0.  1.
         24    2    1    2    0    0 -0.21894828729E+01 -0.24304620425E+02 -0.64975533960E+03  0.65525588754E+03  0.81134261610E+02 0.  0.
        -13    1    3    3    0    0 -0.19509717685E+02 -0.42730842950E+02 -0.56114231297E+03  0.56310500746E+03  0.00000000000E+00 0.  1.
         14    1    3    3    0    0  0.17320234812E+02  0.18426222526E+02 -0.88613026633E+02  0.92150880080E+02  0.00000000000E+00 0. -1.
         -4    1    1    2    0  502  0.21894828729E+01  0.24304620425E+02 -0.70678977112E+02  0.74773165071E+02  0.00000000000E+00 0.  1.
<mgrwt>
<rscale>  1 0.84724712E+02</rscale>
<asrwt>0</asrwt>
<pdfrwt beam="1">  1       21 0.73805622E-03 0.84724712E+02</pdfrwt>
<pdfrwt beam="2">  1       -3 0.11157416E+00 0.84724712E+02</pdfrwt>
<totfact> 0.18846517E+05</totfact>
</mgrwt>
</event>
<event>
 6    2  0.7993170E+000  0.9410759E+02  0.7546771E-02  0.1293199E+00
         21   -1    0    0  501  502  0.00000000000E+00  0.00000000000E+00  0.12724647222E+02  0.12724647222E+02  0.00000000000E+00 0. -1.
          2   -1    0    0  502    0 -0.00000000000E+00 -0.00000000000E+00 -0.11509059295E+04  0.11509059295E+04  0.00000000000E+00 0. -1.
         24    2    1    2    0    0 -0.71086724723E+00  0.48724317216E+02 -0.10934224081E+04  0.10974647152E+04  0.80508844171E+02 0.  0.
        -13    1    3    3    0    0 -0.22388119473E+02  0.43667778313E+02 -0.32169069232E+03  0.32541205307E+03  0.00000000000E+00 0.  1.
         14    1    3    3    0    0  0.21677252226E+02  0.50565389030E+01 -0.77173171581E+03  0.77205266209E+03  0.00000000000E+00 0. -1.
          1    1    1    2  501    0  0.71086724723E+00 -0.48724317216E+02 -0.44758874116E+02  0.66165861533E+02  0.00000000000E+00 0. -1.
<mgrwt>
<rscale>  1 0.94107590E+02</rscale>
<asrwt>0</asrwt>
<pdfrwt beam="1">  1       21 0.19576375E-02 0.94107590E+02</pdfrwt>
<pdfrwt beam="2">  1        2 0.17706250E+00 0.94107590E+02</pdfrwt>
<totfact> 0.33881356E+05</totfact>
</mgrwt>
</event>
<event>
 6    2  0.7993170E+000  0.8521873E+02  0.7546771E-02  0.1314862E+00
         21   -1    0    0  501  502  0.00000000000E+00  0.00000000000E+00  0.11282563512E+03  0.11282563512E+03  0.00000000000E+00 0. -1.
         -3   -1    0    0    0  501 -0.00000000000E+00 -0.00000000000E+00 -0.33022611122E+02  0.33022611122E+02  0.00000000000E+00 0.  1.
         24    2    1    2    0    0  0.10312853427E+02  0.21224563494E+02  0.86390232618E+02  0.12134868790E+03  0.81886474596E+02 0.  0.
        -13    1    3    3    0    0  0.21424415271E+02 -0.11017192026E+01 -0.86201760415E+01  0.23119835421E+02  0.00000000000E+00 0.  1.
         14    1    3    3    0    0 -0.11111561843E+02  0.22326282696E+02  0.95010408660E+02  0.98228852479E+02  0.00000000000E+00 0. -1.
         -4    1    1    2    0  502 -0.10312853427E+02 -0.21224563494E+02 -0.65872086246E+01  0.24499558339E+02  0.00000000000E+00 0.  1.
<mgrwt>
<rscale>  1 0.85218729E+02</rscale>
<asrwt>0</asrwt>
<pdfrwt beam="1">  1       21 0.17357790E-01 0.85218729E+02</pdfrwt>
<pdfrwt beam="2">  1       -3 0.50804018E-02 0.85218729E+02</pdfrwt>
<totfact> 0.29385666E+05</totfact>
</mgrwt>
</event>
<event>
 6    2  0.7993170E+000  0.9909494E+02  0.7546771E-02  0.1282211E+00
         21   -1    0    0  501  502  0.00000000000E+00  0.00000000000E+00  0.29400757472E+02  0.29400757472E+02  0.00000000000E+00 0. -1.
          2   -1    0    0  502    0 -0.00000000000E+00 -0.00000000000E+00 -0.67500780107E+03  0.67500780107E+03  0.00000000000E+00 0. -1.
         24    2    1    2    0    0 -0.30056805157E+02  0.24070918428E+02 -0.65685831016E+03  0.66429108542E+03  0.91307096603E+02 0.  0.
        -13    1    3    3    0    0  0.24457784174E+02  0.35775079360E+02 -0.28532306730E+03  0.28859537807E+03  0.00000000000E+00 0.  1.
         14    1    3    3    0    0 -0.54514589331E+02 -0.11704160932E+02 -0.37153524286E+03  0.37569570735E+03  0.00000000000E+00 0. -1.
          1    1    1    2  501    0  0.30056805157E+02 -0.24070918428E+02  0.11251266565E+02  0.40117473120E+02  0.00000000000E+00 0. -1.
<mgrwt>
<rscale>  1 0.99094937E+02</rscale>
<asrwt>0</asrwt>
<pdfrwt beam="1">  1       21 0.45231939E-02 0.99094937E+02</pdfrwt>
<pdfrwt beam="2">  1        2 0.10384734E+00 0.99094937E+02</pdfrwt>
<totfact> 0.17249881E+05</totfact>
</mgrwt>
</event>
<event>
 6    2  0.7993170E+000  0.1054368E+03  0.7546771E-02  0.1269261E+00
         21   -1    0    0  501  502  0.00000000000E+00  0.00000000000E+00  0.11521481079E+03  0.11521481079E+03  0.00000000000E+00 0.  1.
          2   -1    0    0  502    0 -0.00000000000E+00 -0.00000000000E+00 -0.91691926357E+02  0.91691926357E+02  0.00000000000E+00 0. -1.
         24    2    1    2    0    0 -0.30617546561E+02 -0.61963728736E+02  0.67308288629E+02  0.12508926066E+03  0.79623988716E+02 0.  0.
        -13    1    3    3    0    0 -0.26153503042E+02 -0.62981577796E+02  0.83760625545E+02  0.10801169962E+03  0.00000000000E+00 0.  1.
         14    1    3    3    0    0 -0.44640435192E+01  0.10178490598E+01 -0.16452336916E+02  0.17077561045E+02  0.00000000000E+00 0. -1.
          1    1    1    2  501    0  0.30617546561E+02  0.61963728736E+02 -0.43785404201E+02  0.81817476479E+02  0.00000000000E+00 0. -1.
<mgrwt>
<rscale>  1 0.10543679E+03</rscale>
<asrwt>0</asrwt>
<pdfrwt beam="1">  1       21 0.17725356E-01 0.10543679E+03</pdfrwt>
<pdfrwt beam="2">  1        2 0.14106450E-01 0.10543679E+03</pdfrwt>
<totfact> 0.14364343E+05</totfact>
</mgrwt>
</event>
<event>
 6    2  0.7993170E+000  0.9172385E+02  0.7546771E-02  0.1298730E+00
          2   -1    0    0  502    0 -0.00000000000E+00  0.00000000000E+00  0.11326017046E+02  0.11326017046E+02  0.00000000000E+00 0. -1.
         21   -1    0    0  501  502  0.00000000000E+00 -0.00000000000E+00 -0.45918558919E+03  0.45918558919E+03  0.00000000000E+00 0. -1.
         24    2    1    2    0    0  0.33514936203E+02  0.17543711128E+02 -0.20317473040E+03  0.22291979594E+03  0.83559748671E+02 0.  0.
        -13    1    3    3    0    0  0.27869672482E+01  0.46441462146E+02 -0.77918632163E+02  0.90751803458E+02  0.00000000000E+00 0.  1.
         14    1    3    3    0    0  0.30727968955E+02 -0.28897751018E+02 -0.12525609824E+03  0.13216799248E+03  0.00000000000E+00 0. -1.
          1    1    1    2  501    0 -0.33514936203E+02 -0.17543711128E+02 -0.24468484174E+03  0.24759181030E+03  0.00000000000E+00 0. -1.
<mgrwt>
<rscale>  1 0.91723848E+02</rscale>
<asrwt>0</asrwt>
<pdfrwt beam="1">  1       21 0.70643928E-01 0.91723848E+02</pdfrwt>
<pdfrwt beam="2">  1        2 0.17424644E-02 0.91723848E+02</pdfrwt>
<totfact> 0.13766509E+05</totfact>
</mgrwt>
</event>
<event>
 6    2  0.7993170E+000  0.1051774E+03  0.7546771E-02  0.1269770E+00
         21   -1    0    0  501  502  0.00000000000E+00  0.00000000000E+00  0.24391600442E+02  0.24391600442E+02  0.00000000000E+00 0. -1.
          2   -1    0    0  502    0 -0.00000000000E+00 -0.00000000000E+00 -0.31781357723E+03  0.31781357723E+03  0.00000000000E+00 0. -1.
         24    2    1    2    0    0  0.68797796719E+02  0.98859690334E+01 -0.19734674795E+03  0.22362474584E+03  0.78939336253E+02 0.  0.
        -11    1    3    3    0    0  0.13641136852E+02  0.30874218594E+02 -0.26624757076E+02  0.42990413789E+02  0.00000000000E+00 0.  1.
         12    1    3    3    0    0  0.55156659867E+02 -0.20988249560E+02 -0.17072199088E+03  0.18063433205E+03  0.00000000000E+00 0. -1.
          1    1    1    2  501    0 -0.68797796719E+02 -0.98859690334E+01 -0.96075228832E+02  0.11858043183E+03  0.00000000000E+00 0. -1.
<mgrwt>
<rscale>  1 0.10517741E+03</rscale>
<asrwt>0</asrwt>
<pdfrwt beam="1">  1       21 0.37525541E-02 0.10517741E+03</pdfrwt>
<pdfrwt beam="2">  1        2 0.48894395E-01 0.10517741E+03</pdfrwt>
<totfact> 0.53352106E+05</totfact>
</mgrwt>
</event>
<event>
 6    2  0.7993170E+000  0.7576086E+02  0.7546771E-02  0.1341531E+00
         21   -1    0    0  501  502  0.00000000000E+00  0.00000000000E+00  0.14212814250E+03  0.14212814250E+03  0.00000000000E+00 0. -1.
          2   -1    0    0  502    0 -0.00000000000E+00 -0.00000000000E+00 -0.20613387378E+03  0.20613387378E+03  0.00000000000E+00 0. -1.
         24    2    1    2    0    0  0.11687945318E+02 -0.17837217745E+02 -0.19830289251E+03  0.21228223132E+03  0.72697552612E+02 0.  0.
        -11    1    3    3    0    0 -0.16025355109E+02 -0.25206390920E+02 -0.32999813588E+02  0.44510244286E+02  0.00000000000E+00 0.  1.
         12    1    3    3    0    0  0.27713300428E+02  0.73691731745E+01 -0.16530307892E+03  0.16777198704E+03  0.00000000000E+00 0. -1.
          1    1    1    2  501    0 -0.11687945318E+02  0.17837217745E+02  0.13429716123E+03  0.13597978496E+03  0.00000000000E+00 0. -1.
<mgrwt>
<rscale>  1 0.75760864E+02</rscale>
<asrwt>0</asrwt>
<pdfrwt beam="1">  1       21 0.21865868E-01 0.75760864E+02</pdfrwt>
<pdfrwt beam="2">  1        2 0.31712904E-01 0.75760864E+02</pdfrwt>
<totfact> 0.39318655E+04</totfact>
</mgrwt>
</event>
<event>
 6    2  0.7993170E+000  0.1020246E+03  0.7546771E-02  0.1276095E+00
         21   -1    0    0  501  502  0.00000000000E+00  0.00000000000E+00  0.16432358214E+02  0.16432358214E+02  0.00000000000E+00 0. -1.
          2   -1    0    0  502    0 -0.00000000000E+00 -0.00000000000E+00 -0.78478879237E+03  0.78478879237E+03  0.00000000000E+00 0. -1.
         24    2    1    2    0    0  0.19591260459E+02 -0.57365850141E+02 -0.70926811518E+03  0.71656840292E+03  0.82063137836E+02 0.  0.
        -13    1    3    3    0    0 -0.27767859092E+02 -0.62777749534E+01 -0.12722367999E+03  0.13036997050E+03  0.00000000000E+00 0.  1.
         14    1    3    3    0    0  0.47359119551E+02 -0.51088075187E+02 -0.58204443519E+03  0.58619843242E+03  0.00000000000E+00 0. -1.
          1    1    1    2  501    0 -0.19591260459E+02  0.57365850141E+02 -0.59088318969E+02  0.84652747665E+02  0.00000000000E+00 0. -1.
<mgrwt>
<rscale>  1 0.10202459E+03</rscale>
<asrwt>0</asrwt>
<pdfrwt beam="1">  1       21 0.25280546E-02 0.10202459E+03</pdfrwt>
<pdfrwt beam="2">  1        2 0.12073676E+00 0.10202459E+03</pdfrwt>
<totfact> 0.37477077E+05</totfact>
</mgrwt>
</event>
<event>
 6    2  0.7993170E+000  0.8408975E+02  0.7546771E-02  0.1317830E+00
          2   -1    0    0  502    0 -0.00000000000E+00  0.00000000000E+00  0.21887270406E+03  0.21887270406E+03  0.00000000000E+00 0. -1.
         21   -1    0    0  501  502  0.00000000000E+00 -0.00000000000E+00 -0.15179381568E+02  0.15179381568E+02  0.00000000000E+00 0.  1.
         24    2    1    2    0    0  0.72573187164E+01  0.21817197494E+02  0.18873933355E+03  0.20662435210E+03  0.80885277210E+02 0.  0.
        -11    1    3    3    0    0  0.17355796684E+02  0.35124203660E+01  0.10119747156E+01  0.17736540480E+02  0.00000000000E+00 0.  1.
         12    1    3    3    0    0 -0.10098477967E+02  0.18304777128E+02  0.18772735883E+03  0.18888781162E+03  0.00000000000E+00 0. -1.
          1    1    1    2  501    0 -0.72573187164E+01 -0.21817197494E+02  0.14953988945E+02  0.27427733534E+02  0.00000000000E+00 0. -1.
<mgrwt>
<rscale>  1 0.84089755E+02</rscale>
<asrwt>0</asrwt>
<pdfrwt beam="1">  1       21 0.23352896E-02 0.84089755E+02</pdfrwt>
<pdfrwt beam="2">  1        2 0.33672721E-01 0.84089755E+02</pdfrwt>
<totfact> 0.16695868E+06</totfact>
</mgrwt>
</event>
<event>
 6    2  0.7993170E+000  0.9756566E+02  0.7546771E-02  0.1285500E+00
          2   -1    0    0  502    0 -0.00000000000E+00  0.00000000000E+00  0.52679245190E+02  0.52679245190E+02  0.00000000000E+00 0. -1.
         21   -1    0    0  501  502  0.00000000000E+00 -0.00000000000E+00 -0.11516249411E+03  0.11516249411E+03  0.00000000000E+00 0.  1.
         24    2    1    2    0    0 -0.20095612352E+02 -0.51446294953E+02 -0.23847311831E+02  0.10043780369E+03  0.80427005597E+02 0.  0.
        -13    1    3    3    0    0 -0.36757445128E+02 -0.48511730461E+02 -0.43271496709E+02  0.74678780065E+02  0.00000000000E+00 0.  1.
         14    1    3    3    0    0  0.16661832776E+02 -0.29345644923E+01  0.19424184878E+02  0.25759023630E+02  0.00000000000E+00 0. -1.
          1    1    1    2  501    0  0.20095612352E+02  0.51446294953E+02 -0.38635937085E+02  0.67403935602E+02  0.00000000000E+00 0. -1.
<mgrwt>
<rscale>  1 0.97565661E+02</rscale>
<asrwt>0</asrwt>
<pdfrwt beam="1">  1       21 0.17717307E-01 0.97565661E+02</pdfrwt>
<pdfrwt beam="2">  1        2 0.81044992E-02 0.97565661E+02</pdfrwt>
<totfact> 0.27920088E+05</totfact>
</mgrwt>
</event>
<event>
 6    2  0.7993170E+000  0.8524393E+02  0.7546771E-02  0.1314796E+00
         21   -1    0    0  501  502  0.00000000000E+00  0.00000000000E+00  0.74953233316E+01  0.74953233316E+01  0.00000000000E+00 0.  1.
         -1   -1    0    0    0  501 -0.00000000000E+00 -0.00000000000E+00 -0.12174548461E+04  0.12174548461E+04  0.00000000000E+00 0.  1.
         24    2    1    2    0    0 -0.22299099708E+02 -0.46881768529E+01 -0.11942143893E+04  0.11972529118E+04  0.82141940564E+02 0.  0.
        -11    1    3    3    0    0 -0.45429592565E+02 -0.39219771646E+01 -0.38245359618E+03  0.38516228141E+03  0.00000000000E+00 0.  1.
         12    1    3    3    0    0  0.23130492857E+02 -0.76619968824E+00 -0.81176079312E+03  0.81209063042E+03  0.00000000000E+00 0. -1.
         -2    1    1    2    0  502  0.22299099708E+02  0.46881768529E+01 -0.15745133415E+02  0.27697257558E+02  0.00000000000E+00 0.  1.
<mgrwt>
<rscale>  1 0.85243928E+02</rscale>
<asrwt>0</asrwt>
<pdfrwt beam="1">  1       21 0.11531274E-02 0.85243928E+02</pdfrwt>
<pdfrwt beam="2">  1       -1 0.18730063E+00 0.85243928E+02</pdfrwt>
<totfact> 0.56366721E+04</totfact>
</mgrwt>
</event>
<event>
 6    2  0.7993170E+000  0.1087964E+03  0.7546771E-02  0.1262815E+00
         21   -1    0    0  501  502  0.00000000000E+00  0.00000000000E+00  0.10115286989E+04  0.10115286989E+04  0.00000000000E+00 0.  1.
          2   -1    0    0  502    0 -0.00000000000E+00 -0.00000000000E+00 -0.85388553068E+01  0.85388553068E+01  0.00000000000E+00 0. -1.
         24    2    1    2    0    0  0.71093971289E+02 -0.78658564141E+01  0.72023578403E+03  0.72840665068E+03  0.81978287950E+02 0.  0.
        -11    1    3    3    0    0  0.83088805255E+02 -0.18059315273E+02  0.67839318815E+03  0.68370110879E+03  0.00000000000E+00 0.  1.
         12    1    3    3    0    0 -0.11994833966E+02  0.10193458858E+02  0.41842595885E+02  0.44705541891E+02  0.00000000000E+00 0. -1.
          1    1    1    2  501    0 -0.71093971289E+02  0.78658564141E+01  0.28275405954E+03  0.29166090351E+03  0.00000000000E+00 0. -1.
<mgrwt>
<rscale>  1 0.10879643E+03</rscale>
<asrwt>0</asrwt>
<pdfrwt beam="1">  1       21 0.15561971E+00 0.10879643E+03</pdfrwt>
<pdfrwt beam="2">  1        2 0.13136708E-02 0.10879643E+03</pdfrwt>
<totfact> 0.31679676E+04</totfact>
</mgrwt>
</event>
<event>
 6    2  0.7993170E+000  0.1352938E+03  0.7546771E-02  0.1219806E+00
          2   -1    0    0  502    0 -0.00000000000E+00  0.00000000000E+00  0.30448379097E+04  0.30448379097E+04  0.00000000000E+00 0. -1.
         21   -1    0    0  501  502  0.00000000000E+00 -0.00000000000E+00 -0.49808792149E+01  0.49808792149E+01  0.00000000000E+00 0. -1.
         24    2    1    2    0    0 -0.74601829526E+02 -0.78272250175E+02  0.19165852118E+04  0.19213545419E+04  0.81316809527E+02 0.  0.
        -11    1    3    3    0    0 -0.62912404002E+01  0.13288554768E+02  0.89319529036E+02  0.90521509382E+02  0.00000000000E+00 0.  1.
         12    1    3    3    0    0 -0.68310589126E+02 -0.91560804943E+02  0.18272656827E+04  0.18308330325E+04  0.00000000000E+00 0. -1.
          1    1    1    2  501    0  0.74601829526E+02  0.78272250175E+02  0.11232718187E+04  0.11284642470E+04  0.00000000000E+00 0. -1.
<mgrwt>
<rscale>  1 0.13529376E+03</rscale>
<asrwt>0</asrwt>
<pdfrwt beam="1">  1       21 0.76629154E-03 0.13529376E+03</pdfrwt>
<pdfrwt beam="2">  1        2 0.46843511E+00 0.13529376E+03</pdfrwt>
<totfact> 0.14976427E+05</totfact>
</mgrwt>
</event>
<event>
 6    2  0.7993170E+000  0.8464061E+02  0.7546771E-02  0.1316375E+00
         21   -1    0    0  501  502  0.00000000000E+00  0.00000000000E+00  0.47531012840E+01  0.47531012840E+01  0.00000000000E+00 0.  1.
          4   -1    0    0  502    0 -0.00000000000E+00 -0.00000000000E+00 -0.94114931434E+03  0.94114931434E+03  0.00000000000E+00 0. -1.
         24    2    1    2    0    0  0.18054926665E+02 -0.22710786355E+02 -0.40679912182E+03  0.41551120223E+03  0.79512725246E+02 0.  0.
        -11    1    3    3    0    0  0.30548412250E+02 -0.12432537866E+02 -0.61096351748E+02  0.69430092076E+02  0.00000000000E+00 0.  1.
         12    1    3    3    0    0 -0.12493485585E+02 -0.10278248489E+02 -0.34570277007E+03  0.34608111016E+03  0.00000000000E+00 0. -1.
          3    1    1    2  501    0 -0.18054926665E+02  0.22710786355E+02 -0.52959709124E+03  0.53039121339E+03  0.00000000000E+00 0. -1.
<mgrwt>
<rscale>  1 0.84640615E+02</rscale>
<asrwt>0</asrwt>
<pdfrwt beam="1">  1       21 0.73124677E-03 0.84640615E+02</pdfrwt>
<pdfrwt beam="2">  1        4 0.14479212E+00 0.84640615E+02</pdfrwt>
<totfact> 0.80224694E+04</totfact>
</mgrwt>
</event>
<event>
 6    2  0.7993170E+000  0.8412380E+02  0.7546771E-02  0.1317740E+00
         -3   -1    0    0    0  501 -0.00000000000E+00  0.00000000000E+00  0.18483011901E+03  0.18483011901E+03  0.00000000000E+00 0.  1.
         21   -1    0    0  501  502  0.00000000000E+00 -0.00000000000E+00 -0.19172172053E+02  0.19172172053E+02  0.00000000000E+00 0.  1.
         24    2    1    2    0    0  0.43148762695E+01  0.28418528192E+02  0.14808649615E+03  0.17031272613E+03  0.79060631402E+02 0.  0.
        -13    1    3    3    0    0 -0.17718615192E+02  0.21006760528E+02  0.14413633007E+03  0.14673280124E+03  0.00000000000E+00 0.  1.
         14    1    3    3    0    0  0.22033491461E+02  0.74117676635E+01  0.39501660779E+01  0.23579924892E+02  0.00000000000E+00 0. -1.
         -4    1    1    2    0  502 -0.43148762695E+01 -0.28418528192E+02  0.17571450802E+02  0.33689564929E+02  0.00000000000E+00 0.  1.
<mgrwt>
<rscale>  1 0.84123804E+02</rscale>
<asrwt>0</asrwt>
<pdfrwt beam="1">  1       21 0.29495651E-02 0.84123804E+02</pdfrwt>
<pdfrwt beam="2">  1       -3 0.28435402E-01 0.84123804E+02</pdfrwt>
<totfact> 0.33681681E+05</totfact>
</mgrwt>
</event>
<event>
 6    2  0.7993170E+000  0.8360059E+02  0.7546771E-02  0.1319133E+00
         -3   -1    0    0    0  501 -0.00000000000E+00  0.00000000000E+00  0.38723073339E+02  0.38723073339E+02  0.00000000000E+00 0.  1.
         21   -1    0    0  501  502  0.00000000000E+00 -0.00000000000E+00 -0.70070842928E+02  0.70070842928E+02  0.00000000000E+00 0.  1.
         24    2    1    2    0    0  0.81661481984E+01 -0.18887259469E+02 -0.25435891762E+02  0.87384459337E+02  0.81028665281E+02 0.  0.
        -11    1    3    3    0    0 -0.47781505345E+01 -0.47373953492E+02 -0.90142886789E+00  0.47622838701E+02  0.00000000000E+00 0.  1.
         12    1    3    3    0    0  0.12944298733E+02  0.28486694023E+02 -0.24534462894E+02  0.39761620635E+02  0.00000000000E+00 0. -1.
         -4    1    1    2    0  502 -0.81661481984E+01  0.18887259469E+02 -0.59118778268E+01  0.21409456931E+02  0.00000000000E+00 0.  1.
<mgrwt>
<rscale>  1 0.83600593E+02</rscale>
<asrwt>0</asrwt>
<pdfrwt beam="1">  1       21 0.10780129E-01 0.83600593E+02</pdfrwt>
<pdfrwt beam="2">  1       -3 0.59573960E-02 0.83600593E+02</pdfrwt>
<totfact> 0.52969052E+05</totfact>
</mgrwt>
</event>
<event>
 6    2  0.7993170E+000  0.9488813E+02  0.7546771E-02  0.1291428E+00
          2   -1    0    0  502    0 -0.00000000000E+00  0.00000000000E+00  0.14812264844E+04  0.14812264844E+04  0.00000000000E+00 0. -1.
         21   -1    0    0  501  502  0.00000000000E+00 -0.00000000000E+00 -0.11187792277E+02  0.11187792277E+02  0.00000000000E+00 0. -1.
         24    2    1    2    0    0  0.38585541309E+02  0.33907036716E+02  0.14108794137E+04  0.14140666452E+04  0.79782365550E+02 0.  0.
        -11    1    3    3    0    0 -0.16632294988E+02 -0.32599665312E+00  0.85937008103E+02  0.87532330439E+02  0.00000000000E+00 0.  1.
         12    1    3    3    0    0  0.55217836297E+02  0.34233033369E+02  0.13249424056E+04  0.13265343147E+04  0.00000000000E+00 0. -1.
          1    1    1    2  501    0 -0.38585541309E+02 -0.33907036716E+02  0.59159278375E+02  0.78347631456E+02  0.00000000000E+00 0. -1.
<mgrwt>
<rscale>  1 0.94888129E+02</rscale>
<asrwt>0</asrwt>
<pdfrwt beam="1">  1       21 0.17212000E-02 0.94888129E+02</pdfrwt>
<pdfrwt beam="2">  1        2 0.22788084E+00 0.94888129E+02</pdfrwt>
<totfact> 0.27821635E+05</totfact>
</mgrwt>
</event>
<event>
 6    2  0.7993170E+000  0.8573058E+02  0.7546771E-02  0.1313533E+00
          2   -1    0    0  502    0 -0.00000000000E+00  0.00000000000E+00  0.21521632909E+04  0.21521632909E+04  0.00000000000E+00 0. -1.
         21   -1    0    0  501  502  0.00000000000E+00 -0.00000000000E+00 -0.19480046212E+01  0.19480046212E+01  0.00000000000E+00 0.  1.
         24    2    1    2    0    0  0.25476221098E+02 -0.19737130342E+02  0.18844632748E+04  0.18864123531E+04  0.79442682438E+02 0.  0.
        -13    1    3    3    0    0 -0.22380759478E+02  0.12480632769E+02  0.39361733042E+03  0.39445058930E+03  0.00000000000E+00 0.  1.
         14    1    3    3    0    0  0.47856980575E+02 -0.32217763111E+02  0.14908459444E+04  0.14919617638E+04  0.00000000000E+00 0. -1.
          1    1    1    2  501    0 -0.25476221098E+02  0.19737130342E+02  0.26575201147E+03  0.26769894239E+03  0.00000000000E+00 0. -1.
<mgrwt>
<rscale>  1 0.85730578E+02</rscale>
<asrwt>0</asrwt>
<pdfrwt beam="1">  1       21 0.29969474E-03 0.85730578E+02</pdfrwt>
<pdfrwt beam="2">  1        2 0.33110014E+00 0.85730578E+02</pdfrwt>
<totfact> 0.19068607E+06</totfact>
</mgrwt>
</event>
<event>
 6    2  0.7993170E+000  0.1117054E+03  0.7546771E-02  0.1257444E+00
          2   -1    0    0  502    0 -0.00000000000E+00  0.00000000000E+00  0.36925462626E+03  0.36925462626E+03  0.00000000000E+00 0. -1.
         21   -1    0    0  501  502  0.00000000000E+00 -0.00000000000E+00 -0.31058916905E+02  0.31058916905E+02  0.00000000000E+00 0. -1.
         24    2    1    2    0    0  0.33801876911E+02 -0.70401315959E+02  0.28421152213E+03  0.30537564430E+03  0.79869785575E+02 0.  0.
        -13    1    3    3    0    0  0.23713130036E+02 -0.50884281883E+01  0.15794479119E+02  0.28942532857E+02  0.00000000000E+00 0.  1.
         14    1    3    3    0    0  0.10088746875E+02 -0.65312887771E+02  0.26841704301E+03  0.27643311144E+03  0.00000000000E+00 0. -1.
          1    1    1    2  501    0 -0.33801876911E+02  0.70401315959E+02  0.53984187230E+02  0.94937898872E+02  0.00000000000E+00 0. -1.
<mgrwt>
<rscale>  1 0.11170539E+03</rscale>
<asrwt>0</asrwt>
<pdfrwt beam="1">  1       21 0.47782952E-02 0.11170539E+03</pdfrwt>
<pdfrwt beam="2">  1        2 0.56808401E-01 0.11170539E+03</pdfrwt>
<totfact> 0.30641433E+05</totfact>
</mgrwt>
</event>
<event>
 6    2  0.7993170E+000  0.8397576E+02  0.7546771E-02  0.1318133E+00
          2   -1    0    0  502    0 -0.00000000000E+00  0.00000000000E+00  0.39644820549E+01  0.39644820549E+01  0.00000000000E+00 0. -1.
         21   -1    0    0  501  502  0.00000000000E+00 -0.00000000000E+00 -0.75510035858E+03  0.75510035858E+03  0.00000000000E+00 0.  1.
         24    2    1    2    0    0  0.23899065982E+02 -0.47050675703E+01 -0.53325480641E+03  0.53982646870E+03  0.80365569309E+02 0.  0.
        -13    1    3    3    0    0  0.13700198730E+02 -0.36534934047E+02 -0.41816436554E+03  0.41998087273E+03  0.00000000000E+00 0.  1.
         14    1    3    3    0    0  0.10198867252E+02  0.31829866476E+02 -0.11509044087E+03  0.11984559597E+03  0.00000000000E+00 0. -1.
          1    1    1    2  501    0 -0.23899065982E+02  0.47050675703E+01 -0.21788107011E+03  0.21923837194E+03  0.00000000000E+00 0. -1.
<mgrwt>
<rscale>  1 0.83975757E+02</rscale>
<asrwt>0</asrwt>
<pdfrwt beam="1">  1       21 0.11616930E+00 0.83975757E+02</pdfrwt>
<pdfrwt beam="2">  1        2 0.60992024E-03 0.83975757E+02</pdfrwt>
<totfact> 0.18603041E+05</totfact>
</mgrwt>
</event>
<event>
 6    2  0.7993170E+000  0.8975330E+02  0.7546771E-02  0.1303450E+00
         -1   -1    0    0    0  501 -0.00000000000E+00  0.00000000000E+00  0.25491683645E+03  0.25491683645E+03  0.00000000000E+00 0.  1.
         21   -1    0    0  501  502  0.00000000000E+00 -0.00000000000E+00 -0.14626340551E+02  0.14626340551E+02  0.00000000000E+00 0. -1.
         24    2    1    2    0    0  0.22411668337E-01  0.29285913584E+02  0.20427805148E+03  0.22312592385E+03  0.84840970893E+02 0.  0.
        -11    1    3    3    0    0 -0.38226819855E+02  0.80407748264E+00  0.59780042016E+02  0.70961889210E+02  0.00000000000E+00 0.  1.
         12    1    3    3    0    0  0.38249231523E+02  0.28481836101E+02  0.14449800946E+03  0.15216403464E+03  0.00000000000E+00 0. -1.
         -2    1    1    2    0  502 -0.22411668337E-01 -0.29285913584E+02  0.36012444421E+02  0.46417253149E+02  0.00000000000E+00 0.  1.
<mgrwt>
<rscale>  1 0.89753304E+02</rscale>
<asrwt>0</asrwt>
<pdfrwt beam="1">  1       21 0.22502064E-02 0.89753304E+02</pdfrwt>
<pdfrwt beam="2">  1       -1 0.39217972E-01 0.89753304E+02</pdfrwt>
<totfact> 0.55714809E+05</totfact>
</mgrwt>
</event>
<event>
 6    2  0.7993170E+000  0.8470446E+02  0.7546771E-02  0.1316207E+00
         21   -1    0    0  501  502  0.00000000000E+00  0.00000000000E+00  0.89310122949E+02  0.89310122949E+02  0.00000000000E+00 0.  1.
          2   -1    0    0  502    0 -0.00000000000E+00 -0.00000000000E+00 -0.35564180435E+02  0.35564180435E+02  0.00000000000E+00 0. -1.
         24    2    1    2    0    0  0.25704631100E+02 -0.54447677742E+01  0.31251493792E+02  0.90285666820E+02  0.80526220654E+02 0.  0.
        -13    1    3    3    0    0  0.19137872958E+01  0.30182127904E+02  0.36188736100E+02  0.47161934302E+02  0.00000000000E+00 0.  1.
         14    1    3    3    0    0  0.23790843804E+02 -0.35626895679E+02 -0.49372423080E+01  0.43123732517E+02  0.00000000000E+00 0. -1.
          1    1    1    2  501    0 -0.25704631100E+02  0.54447677742E+01  0.22494448722E+02  0.34588636565E+02  0.00000000000E+00 0. -1.
<mgrwt>
<rscale>  1 0.84704461E+02</rscale>
<asrwt>0</asrwt>
<pdfrwt beam="1">  1       21 0.13740019E-01 0.84704461E+02</pdfrwt>
<pdfrwt beam="2">  1        2 0.54714124E-02 0.84704461E+02</pdfrwt>
<totfact> 0.71299750E+05</totfact>
</mgrwt>
</event>
<event>
 6    2  0.7993170E+000  0.8265865E+02  0.7546771E-02  0.1321671E+00
         -3   -1    0    0    0  501 -0.00000000000E+00  0.00000000000E+00  0.22891909801E+02  0.22891909801E+02  0.00000000000E+00 0.  1.
         21   -1    0    0  501  502  0.00000000000E+00 -0.00000000000E+00 -0.38412078866E+03  0.38412078866E+03  0.00000000000E+00 0.  1.
         24    2    1    2    0    0  0.16351693900E+02  0.17674309984E+02 -0.53761616796E+02  0.98604079310E+02  0.79073977320E+02 0.  0.
        -11    1    3    3    0    0 -0.52674464517E+01  0.24067153124E+02  0.13199284503E+02  0.27949865170E+02  0.00000000000E+00 0.  1.
         12    1    3    3    0    0  0.21619140352E+02 -0.63928431407E+01 -0.66960901299E+02  0.70654214140E+02  0.00000000000E+00 0. -1.
         -4    1    1    2    0  502 -0.16351693900E+02 -0.17674309984E+02 -0.30746726206E+03  0.30840861915E+03  0.00000000000E+00 0.  1.
<mgrwt>
<rscale>  1 0.82658654E+02</rscale>
<asrwt>0</asrwt>
<pdfrwt beam="1">  1       21 0.59095503E-01 0.82658654E+02</pdfrwt>
<pdfrwt beam="2">  1       -3 0.35218325E-02 0.82658654E+02</pdfrwt>
<totfact> 0.48637535E+04</totfact>
</mgrwt>
</event>
<event>
 6    2  0.7993170E+000  0.8650996E+02  0.7546771E-02  0.1311530E+00
         -1   -1    0    0    0  501 -0.00000000000E+00  0.00000000000E+00  0.57975452109E+03  0.57975452109E+03  0.00000000000E+00 0.  1.
         21   -1    0    0  501  502  0.00000000000E+00 -0.00000000000E+00 -0.83868015126E+01  0.83868015126E+01  0.00000000000E+00 0.  1.
         24    2    1    2    0    0 -0.33109221165E+02  0.19629416311E+02  0.49627328261E+03  0.50375702919E+03  0.77475408474E+02 0.  0.
        -11    1    3    3    0    0 -0.40870388115E+02  0.32844913107E+02  0.47295895743E+03  0.47585644090E+03  0.00000000000E+00 0.  1.
         12    1    3    3    0    0  0.77611669496E+01 -0.13215496797E+02  0.23314325182E+02  0.27900588286E+02  0.00000000000E+00 0. -1.
         -2    1    1    2    0  502  0.33109221165E+02 -0.19629416311E+02  0.75094436973E+02  0.84384293415E+02  0.00000000000E+00 0.  1.
<mgrwt>
<rscale>  1 0.86509961E+02</rscale>
<asrwt>0</asrwt>
<pdfrwt beam="1">  1       21 0.12902776E-02 0.86509961E+02</pdfrwt>
<pdfrwt beam="2">  1       -1 0.89192972E-01 0.86509961E+02</pdfrwt>
<totfact> 0.28572697E+05</totfact>
</mgrwt>
</event>
<event>
 6    2  0.7993170E+000  0.9764981E+02  0.7546771E-02  0.1285317E+00
          2   -1    0    0  502    0 -0.00000000000E+00  0.00000000000E+00  0.28591705216E+04  0.28591705216E+04  0.00000000000E+00 0. -1.
         21   -1    0    0  501  502  0.00000000000E+00 -0.00000000000E+00 -0.52932903538E+01  0.52932903538E+01  0.00000000000E+00 0. -1.
         24    2    1    2    0    0 -0.54938304132E+02 -0.94624294197E+01  0.26818937193E+04  0.26836708829E+04  0.80173131496E+02 0.  0.
        -11    1    3    3    0    0 -0.22289101968E+02  0.27220565850E+02  0.50532478700E+03  0.50654802697E+03  0.00000000000E+00 0.  1.
         12    1    3    3    0    0 -0.32649202163E+02 -0.36682995270E+02  0.21765689323E+04  0.21771228559E+04  0.00000000000E+00 0. -1.
          1    1    1    2  501    0  0.54938304132E+02  0.94624294197E+01  0.17198351191E+03  0.18079292907E+03  0.00000000000E+00 0. -1.
<mgrwt>
<rscale>  1 0.97649812E+02</rscale>
<asrwt>0</asrwt>
<pdfrwt beam="1">  1       21 0.81435464E-03 0.97649812E+02</pdfrwt>
<pdfrwt beam="2">  1        2 0.43987116E+00 0.97649812E+02</pdfrwt>
<totfact> 0.17512735E+05</totfact>
</mgrwt>
</event>
<event>
 6    2  0.7993170E+000  0.8348448E+02  0.7546771E-02  0.1319444E+00
         21   -1    0    0  501  502  0.00000000000E+00  0.00000000000E+00  0.41134547013E+01  0.41134547013E+01  0.00000000000E+00 0.  1.
          2   -1    0    0  502    0 -0.00000000000E+00 -0.00000000000E+00 -0.73177893944E+03  0.73177893944E+03  0.00000000000E+00 0. -1.
         24    2    1    2    0    0  0.57622342260E+01  0.21118653068E+02 -0.64488744625E+03  0.65026877294E+03  0.80563378072E+02 0.  0.
        -11    1    3    3    0    0  0.17182912904E+01  0.47725935489E+02 -0.25364190407E+03  0.25809868838E+03  0.00000000000E+00 0.  1.
         12    1    3    3    0    0  0.40439429356E+01 -0.26607282421E+02 -0.39124554218E+03  0.39217008456E+03  0.00000000000E+00 0. -1.
          1    1    1    2  501    0 -0.57622342260E+01 -0.21118653068E+02 -0.82778038492E+02  0.85623621199E+02  0.00000000000E+00 0. -1.
<mgrwt>
<rscale>  1 0.83484482E+02</rscale>
<asrwt>0</asrwt>
<pdfrwt beam="1">  1       21 0.63283868E-03 0.83484482E+02</pdfrwt>
<pdfrwt beam="2">  1        2 0.11258147E+00 0.83484482E+02</pdfrwt>
<totfact> 0.35541540E+06</totfact>
</mgrwt>
</event>
<event>
 6    2  0.7993170E+000  0.8410457E+02  0.7546771E-02  0.1317791E+00
         21   -1    0    0  501  502  0.00000000000E+00  0.00000000000E+00  0.19419235355E+02  0.19419235355E+02  0.00000000000E+00 0. -1.
          2   -1    0    0  502    0 -0.00000000000E+00 -0.00000000000E+00 -0.23150236930E+03  0.23150236930E+03  0.00000000000E+00 0. -1.
         24    2    1    2    0    0 -0.23370612727E+02 -0.17449288259E+02 -0.20399841245E+03  0.22065568452E+03  0.78885458921E+02 0.  0.
        -11    1    3    3    0    0 -0.11243049600E+02 -0.33603399782E+01  0.35629877251E+01  0.12263479547E+02  0.00000000000E+00 0.  1.
         12    1    3    3    0    0 -0.12127563127E+02 -0.14088948281E+02 -0.20756140018E+03  0.20839220498E+03  0.00000000000E+00 0. -1.
          1    1    1    2  501    0  0.23370612727E+02  0.17449288259E+02 -0.80847214951E+01  0.30265920135E+02  0.00000000000E+00 0. -1.
<mgrwt>
<rscale>  1 0.84104571E+02</rscale>
<asrwt>0</asrwt>
<pdfrwt beam="1">  1       21 0.29875748E-02 0.84104571E+02</pdfrwt>
<pdfrwt beam="2">  1        2 0.35615748E-01 0.84104571E+02</pdfrwt>
<totfact> 0.10574164E+06</totfact>
</mgrwt>
</event>
<event>
 6    2  0.7993170E+000  0.8318417E+02  0.7546771E-02  0.1320251E+00
         21   -1    0    0  501  502  0.00000000000E+00  0.00000000000E+00  0.17168493107E+01  0.17168493107E+01  0.00000000000E+00 0. -1.
          2   -1    0    0  502    0 -0.00000000000E+00 -0.00000000000E+00 -0.25379578308E+04  0.25379578308E+04  0.00000000000E+00 0. -1.
         24    2    1    2    0    0 -0.21515748235E+02  0.12905463498E+01 -0.24214010050E+04  0.24228294272E+04  0.80343097220E+02 0.  0.
        -13    1    3    3    0    0  0.14025400398E+02  0.31181900752E+02 -0.74330607826E+03  0.74409202977E+03  0.00000000000E+00 0.  1.
         14    1    3    3    0    0 -0.35541148632E+02 -0.29891354402E+02 -0.16780949268E+04  0.16787373974E+04  0.00000000000E+00 0. -1.
          1    1    1    2  501    0  0.21515748235E+02 -0.12905463498E+01 -0.11483997648E+03  0.11684525292E+03  0.00000000000E+00 0. -1.
<mgrwt>
<rscale>  1 0.83184170E+02</rscale>
<asrwt>0</asrwt>
<pdfrwt beam="1">  1       21 0.26413047E-03 0.83184170E+02</pdfrwt>
<pdfrwt beam="2">  1        2 0.39045534E+00 0.83184170E+02</pdfrwt>
<totfact> 0.14585069E+06</totfact>
</mgrwt>
</event>
<event>
 6    2  0.7993170E+000  0.9494033E+02  0.7546771E-02  0.1291311E+00
         21   -1    0    0  501  502  0.00000000000E+00  0.00000000000E+00  0.63966211653E+01  0.63966211653E+01  0.00000000000E+00 0. -1.
          2   -1    0    0  502    0 -0.00000000000E+00 -0.00000000000E+00 -0.14795670268E+04  0.14795670268E+04  0.00000000000E+00 0. -1.
         24    2    1    2    0    0  0.26046807166E+02  0.40446461968E+02 -0.13557527562E+04  0.13590729200E+04  0.81849333761E+02 0.  0.
        -11    1    3    3    0    0  0.51066022891E+02  0.13459280432E+02 -0.56449970813E+03  0.56696455921E+03  0.00000000000E+00 0.  1.
         12    1    3    3    0    0 -0.25019215725E+02  0.26987181536E+02 -0.79125304805E+03  0.79210836075E+03  0.00000000000E+00 0. -1.
          1    1    1    2  501    0 -0.26046807166E+02 -0.40446461968E+02 -0.11741764944E+03  0.12689072799E+03  0.00000000000E+00 0. -1.
<mgrwt>
<rscale>  1 0.94940328E+02</rscale>
<asrwt>0</asrwt>
<pdfrwt beam="1">  1       21 0.98409454E-03 0.94940328E+02</pdfrwt>
<pdfrwt beam="2">  1        2 0.22762593E+00 0.94940328E+02</pdfrwt>
<totfact> 0.67359810E+05</totfact>
</mgrwt>
</event>
<event>
 6    2  0.7993170E+000  0.8647110E+02  0.7546771E-02  0.1311630E+00
         -1   -1    0    0    0  501 -0.00000000000E+00  0.00000000000E+00  0.36661326793E+02  0.36661326793E+02  0.00000000000E+00 0.  1.
         21   -1    0    0  501  502  0.00000000000E+00 -0.00000000000E+00 -0.89657392732E+02  0.89657392732E+02  0.00000000000E+00 0. -1.
         24    2    1    2    0    0  0.21078747818E+02  0.14139372943E+02 -0.52031882316E+02  0.10091861860E+03  0.82662054938E+02 0.  0.
        -11    1    3    3    0    0  0.15002964168E+02 -0.34346389153E+02 -0.25294597720E+02  0.45217032803E+02  0.00000000000E+00 0.  1.
         12    1    3    3    0    0  0.60757836497E+01  0.48485762096E+02 -0.26737284596E+02  0.55701585800E+02  0.00000000000E+00 0. -1.
         -2    1    1    2    0  502 -0.21078747818E+02 -0.14139372943E+02 -0.96418362343E+00  0.25400100922E+02  0.00000000000E+00 0.  1.
<mgrwt>
<rscale>  1 0.86471098E+02</rscale>
<asrwt>0</asrwt>
<pdfrwt beam="1">  1       21 0.13793445E-01 0.86471098E+02</pdfrwt>
<pdfrwt beam="2">  1       -1 0.56402041E-02 0.86471098E+02</pdfrwt>
<totfact> 0.54955202E+05</totfact>
</mgrwt>
</event>
<event>
 6    2  0.7993170E+000  0.8538850E+02  0.7546771E-02  0.1314420E+00
         21   -1    0    0  501  502  0.00000000000E+00  0.00000000000E+00  0.31869086448E+01  0.31869086448E+01  0.00000000000E+00 0.  1.
          2   -1    0    0  502    0 -0.00000000000E+00 -0.00000000000E+00 -0.10885638015E+04  0.10885638015E+04  0.00000000000E+00 0. -1.
         24    2    1    2    0    0 -0.15617964558E+02 -0.22269964226E+02 -0.65930635744E+03  0.66481280685E+03  0.80940243780E+02 0.  0.
        -11    1    3    3    0    0  0.32487426700E+02 -0.13459983238E+01 -0.28483033202E+03  0.28668024460E+03  0.00000000000E+00 0.  1.
         12    1    3    3    0    0 -0.48105391259E+02 -0.20923965902E+02 -0.37447602542E+03  0.37813256224E+03  0.00000000000E+00 0. -1.
          1    1    1    2  501    0  0.15617964558E+02  0.22269964226E+02 -0.42607053546E+03  0.42693790334E+03  0.00000000000E+00 0. -1.
<mgrwt>
<rscale>  1 0.85388496E+02</rscale>
<asrwt>0</asrwt>
<pdfrwt beam="1">  1       21 0.49029336E-03 0.85388496E+02</pdfrwt>
<pdfrwt beam="2">  1        2 0.16747145E+00 0.85388496E+02</pdfrwt>
<totfact> 0.31702806E+06</totfact>
</mgrwt>
</event>
<event>
 6    2  0.7993170E+000  0.1092125E+03  0.7546771E-02  0.1262035E+00
         21   -1    0    0  501  502  0.00000000000E+00  0.00000000000E+00  0.31081179059E+03  0.31081179059E+03  0.00000000000E+00 0. -1.
          2   -1    0    0  502    0 -0.00000000000E+00 -0.00000000000E+00 -0.27176568779E+02  0.27176568779E+02  0.00000000000E+00 0. -1.
         24    2    1    2    0    0 -0.38296944595E+02  0.62343121280E+02  0.14875239093E+03  0.18453902309E+03  0.81080555630E+02 0.  0.
        -11    1    3    3    0    0 -0.21828795607E+02 -0.16499536311E+02  0.51014743317E+02  0.57889852754E+02  0.00000000000E+00 0.  1.
         12    1    3    3    0    0 -0.16468148988E+02  0.78842657592E+02  0.97737647612E+02  0.12664917034E+03  0.00000000000E+00 0. -1.
          1    1    1    2  501    0  0.38296944595E+02 -0.62343121280E+02  0.13488283088E+03  0.15344933627E+03  0.00000000000E+00 0. -1.
<mgrwt>
<rscale>  1 0.10921253E+03</rscale>
<asrwt>0</asrwt>
<pdfrwt beam="1">  1       21 0.47817196E-01 0.10921253E+03</pdfrwt>
<pdfrwt beam="2">  1        2 0.41810108E-02 0.10921253E+03</pdfrwt>
<totfact> 0.97838682E+04</totfact>
</mgrwt>
</event>
<event>
 6    2  0.7993170E+000  0.8422155E+02  0.7546771E-02  0.1317481E+00
          2   -1    0    0  502    0 -0.00000000000E+00  0.00000000000E+00  0.59190101455E+03  0.59190101455E+03  0.00000000000E+00 0. -1.
         21   -1    0    0  501  502  0.00000000000E+00 -0.00000000000E+00 -0.54072320495E+01  0.54072320495E+01  0.00000000000E+00 0.  1.
         24    2    1    2    0    0 -0.10323605687E+02  0.21768800636E+02  0.51557682053E+03  0.52241049623E+03  0.80701989979E+02 0.  0.
        -13    1    3    3    0    0 -0.24921143135E+02  0.41980940836E+02  0.20087494716E+03  0.20672253667E+03  0.00000000000E+00 0.  1.
         14    1    3    3    0    0  0.14597537448E+02 -0.20212140200E+02  0.31470187336E+03  0.31568795956E+03  0.00000000000E+00 0. -1.
          1    1    1    2  501    0  0.10323605687E+02 -0.21768800636E+02  0.70916961973E+02  0.74897750374E+02  0.00000000000E+00 0. -1.
<mgrwt>
<rscale>  1 0.84221545E+02</rscale>
<asrwt>0</asrwt>
<pdfrwt beam="1">  1       21 0.83188232E-03 0.84221545E+02</pdfrwt>
<pdfrwt beam="2">  1        2 0.91061643E-01 0.84221545E+02</pdfrwt>
<totfact> 0.29712658E+06</totfact>
</mgrwt>
</event>
<event>
 6    2  0.7993170E+000  0.8714813E+02  0.7546771E-02  0.1309909E+00
         -3   -1    0    0    0  501 -0.00000000000E+00  0.00000000000E+00  0.76344773663E+02  0.76344773663E+02  0.00000000000E+00 0.  1.
         21   -1    0    0  501  502  0.00000000000E+00 -0.00000000000E+00 -0.59765837062E+02  0.59765837062E+02  0.00000000000E+00 0. -1.
         24    2    1    2    0    0  0.22316445439E+02 -0.23160568395E+02  0.40429610945E+02  0.96069502697E+02  0.80996050780E+02 0.  0.
        -13    1    3    3    0    0 -0.16218321824E+01 -0.50412426271E+02  0.28224559838E+02  0.57798519360E+02  0.00000000000E+00 0.  1.
         14    1    3    3    0    0  0.23938277621E+02  0.27251857875E+02  0.12205051107E+02  0.38270983338E+02  0.00000000000E+00 0. -1.
         -4    1    1    2    0  502 -0.22316445439E+02  0.23160568395E+02 -0.23850674344E+02  0.40041108028E+02  0.00000000000E+00 0.  1.
<mgrwt>
<rscale>  1 0.87148126E+02</rscale>
<asrwt>0</asrwt>
<pdfrwt beam="1">  1       21 0.91947442E-02 0.87148126E+02</pdfrwt>
<pdfrwt beam="2">  1       -3 0.11745350E-01 0.87148126E+02</pdfrwt>
<totfact> 0.23468806E+05</totfact>
</mgrwt>
</event>
<event>
 6    2  0.7993170E+000  0.1111455E+03  0.7546771E-02  0.1258463E+00
         -1   -1    0    0    0  501 -0.00000000000E+00  0.00000000000E+00  0.71483730759E+01  0.71483730759E+01  0.00000000000E+00 0.  1.
         21   -1    0    0  501  502  0.00000000000E+00 -0.00000000000E+00 -0.16137299168E+04  0.16137299168E+04  0.00000000000E+00 0. -1.
         24    2    1    2    0    0  0.52175571147E+02 -0.51200654707E+02 -0.13353794744E+04  0.13399968920E+04  0.83722951799E+02 0.  0.
        -11    1    3    3    0    0  0.85452193864E+01 -0.22085554937E+02 -0.77805555810E+02  0.81329558133E+02  0.00000000000E+00 0.  1.
         12    1    3    3    0    0  0.43630351761E+02 -0.29115099770E+02 -0.12575739185E+04  0.12586673338E+04  0.00000000000E+00 0. -1.
         -2    1    1    2    0  502 -0.52175571147E+02  0.51200654707E+02 -0.27120206937E+03  0.28088139792E+03  0.00000000000E+00 0.  1.
<mgrwt>
<rscale>  1 0.11114553E+03</rscale>
<asrwt>0</asrwt>
<pdfrwt beam="1">  1       21 0.24826628E+00 0.11114553E+03</pdfrwt>
<pdfrwt beam="2">  1       -1 0.10997491E-02 0.11114553E+03</pdfrwt>
<totfact> 0.10068792E+04</totfact>
</mgrwt>
</event>
<event>
 6    2  0.7993170E+000  0.1179064E+03  0.7546771E-02  0.1246591E+00
         21   -1    0    0  501  502  0.00000000000E+00  0.00000000000E+00  0.10911862795E+02  0.10911862795E+02  0.00000000000E+00 0. -1.
          2   -1    0    0  502    0 -0.00000000000E+00 -0.00000000000E+00 -0.28640448217E+04  0.28640448217E+04  0.00000000000E+00 0. -1.
         24    2    1    2    0    0 -0.41451633500E+02 -0.75143459547E+02 -0.26711806346E+04  0.26737815724E+04  0.80852559991E+02 0.  0.
        -11    1    3    3    0    0 -0.26978383103E+02 -0.32986232143E+02 -0.41930041340E+03  0.42146027256E+03  0.00000000000E+00 0.  1.
         12    1    3    3    0    0 -0.14473250397E+02 -0.42157227404E+02 -0.22518802212E+04  0.22523212998E+04  0.00000000000E+00 0. -1.
          1    1    1    2  501    0  0.41451633500E+02  0.75143459547E+02 -0.18195232430E+03  0.20117511215E+03  0.00000000000E+00 0. -1.
<mgrwt>
<rscale>  1 0.11790638E+03</rscale>
<asrwt>0</asrwt>
<pdfrwt beam="1">  1       21 0.16787482E-02 0.11790638E+03</pdfrwt>
<pdfrwt beam="2">  1        2 0.44062227E+00 0.11790638E+03</pdfrwt>
<totfact> 0.55265059E+04</totfact>
</mgrwt>
</event>
<event>
 6    2  0.7993170E+000  0.8649301E+02  0.7546771E-02  0.1311574E+00
         -1   -1    0    0    0  501 -0.00000000000E+00  0.00000000000E+00  0.18658675140E+04  0.18658675140E+04  0.00000000000E+00 0.  1.
         21   -1    0    0  501  502  0.00000000000E+00 -0.00000000000E+00 -0.29379106740E+01  0.29379106740E+01  0.00000000000E+00 0.  1.
         24    2    1    2    0    0  0.57529561252E+01  0.30383103329E+02  0.17363668771E+04  0.17385197649E+04  0.80776305904E+02 0.  0.
        -13    1    3    3    0    0  0.42070943373E+02  0.76530000440E+01  0.74317680660E+03  0.74440600384E+03  0.00000000000E+00 0.  1.
         14    1    3    3    0    0 -0.36317987248E+02  0.22730103285E+02  0.99319007052E+03  0.99411376108E+03  0.00000000000E+00 0. -1.
         -2    1    1    2    0  502 -0.57529561252E+01 -0.30383103329E+02  0.12656272620E+03  0.13028565975E+03  0.00000000000E+00 0.  1.
<mgrwt>
<rscale>  1 0.86493012E+02</rscale>
<asrwt>0</asrwt>
<pdfrwt beam="1">  1       21 0.45198775E-03 0.86493012E+02</pdfrwt>
<pdfrwt beam="2">  1       -1 0.28705559E+00 0.86493012E+02</pdfrwt>
<totfact> 0.57288944E+04</totfact>
</mgrwt>
</event>
<event>
 6    2  0.7993170E+000  0.8578686E+02  0.7546771E-02  0.1313388E+00
         21   -1    0    0  501  502  0.00000000000E+00  0.00000000000E+00  0.13792502159E+01  0.13792502159E+01  0.00000000000E+00 0.  1.
          2   -1    0    0  502    0 -0.00000000000E+00 -0.00000000000E+00 -0.23739524466E+04  0.23739524466E+04  0.00000000000E+00 0. -1.
         24    2    1    2    0    0  0.90852889086E+01 -0.25397539222E+02 -0.16129342744E+04  0.16152140287E+04  0.81435911904E+02 0.  0.
        -11    1    3    3    0    0  0.16574064598E+02  0.96069300562E+01 -0.97888942259E+02  0.99745865774E+02  0.00000000000E+00 0.  1.
         12    1    3    3    0    0 -0.74887756896E+01 -0.35004469278E+02 -0.15150453321E+04  0.15154681630E+04  0.00000000000E+00 0. -1.
          1    1    1    2  501    0 -0.90852889086E+01  0.25397539222E+02 -0.75963892203E+03  0.76011766808E+03  0.00000000000E+00 0. -1.
<mgrwt>
<rscale>  1 0.85786859E+02</rscale>
<asrwt>0</asrwt>
<pdfrwt beam="1">  1       21 0.21219486E-03 0.85786859E+02</pdfrwt>
<pdfrwt beam="2">  1        2 0.36521912E+00 0.85786859E+02</pdfrwt>
<totfact> 0.24705720E+06</totfact>
</mgrwt>
</event>
<event>
 6    2  0.7993170E+000  0.7985616E+02  0.7546771E-02  0.1329460E+00
          2   -1    0    0  502    0 -0.00000000000E+00  0.00000000000E+00  0.10799858534E+04  0.10799858534E+04  0.00000000000E+00 0. -1.
         21   -1    0    0  501  502  0.00000000000E+00 -0.00000000000E+00 -0.51520362463E+01  0.51520362463E+01  0.00000000000E+00 0.  1.
         24    2    1    2    0    0  0.35845940006E+01 -0.27324516548E+02  0.32042789634E+03  0.33022877467E+03  0.74950172429E+02 0.  0.
        -11    1    3    3    0    0 -0.10673109530E+02 -0.15482684295E+02  0.14515914690E+02  0.23755853159E+02  0.00000000000E+00 0.  1.
         12    1    3    3    0    0  0.14257703531E+02 -0.11841832252E+02  0.30591198165E+03  0.30647292151E+03  0.00000000000E+00 0. -1.
          1    1    1    2  501    0 -0.35845940006E+01  0.27324516548E+02  0.75440592086E+03  0.75490911503E+03  0.00000000000E+00 0. -1.
<mgrwt>
<rscale>  1 0.79856164E+02</rscale>
<asrwt>0</asrwt>
<pdfrwt beam="1">  1       21 0.79262182E-03 0.79856164E+02</pdfrwt>
<pdfrwt beam="2">  1        2 0.16615149E+00 0.79856164E+02</pdfrwt>
<totfact> 0.15210519E+06</totfact>
</mgrwt>
</event>
<event>
 6    2  0.7993170E+000  0.1353947E+03  0.7546771E-02  0.1219664E+00
         21   -1    0    0  501  502  0.00000000000E+00  0.00000000000E+00  0.93169818410E+02  0.93169818410E+02  0.00000000000E+00 0.  1.
         -1   -1    0    0    0  501 -0.00000000000E+00 -0.00000000000E+00 -0.28990968818E+03  0.28990968818E+03  0.00000000000E+00 0.  1.
         24    2    1    2    0    0 -0.10408196427E+03  0.27147086900E+02 -0.23307249359E+03  0.26954502210E+03  0.82229630051E+02 0.  0.
        -13    1    3    3    0    0 -0.75855179278E+02  0.42541742693E+02 -0.99473764238E+02  0.13213189572E+03  0.00000000000E+00 0.  1.
         14    1    3    3    0    0 -0.28226784994E+02 -0.15394655793E+02 -0.13359872935E+03  0.13741312638E+03  0.00000000000E+00 0. -1.
         -2    1    1    2    0  502  0.10408196427E+03 -0.27147086900E+02  0.36332623820E+02  0.11353448449E+03  0.00000000000E+00 0.  1.
<mgrwt>
<rscale>  1 0.13539473E+03</rscale>
<asrwt>0</asrwt>
<pdfrwt beam="1">  1       21 0.14333818E-01 0.13539473E+03</pdfrwt>
<pdfrwt beam="2">  1       -1 0.44601490E-01 0.13539473E+03</pdfrwt>
<totfact> 0.19916341E+04</totfact>
</mgrwt>
</event>
<event>
 6    2  0.7993170E+000  0.1177951E+03  0.7546771E-02  0.1246779E+00
         -1   -1    0    0    0  501 -0.00000000000E+00  0.00000000000E+00  0.15097931756E+02  0.15097931756E+02  0.00000000000E+00 0.  1.
         21   -1    0    0  501  502  0.00000000000E+00 -0.00000000000E+00 -0.75506384625E+03  0.75506384625E+03  0.00000000000E+00 0.  1.
         24    2    1    2    0    0  0.33178228630E+02 -0.70033703801E+02 -0.58680835843E+03  0.59851460645E+03  0.88713979105E+02 0.  0.
        -13    1    3    3    0    0  0.42863776623E+02 -0.84473608320E+02 -0.40749450068E+03  0.41835972790E+03  0.00000000000E+00 0.  1.
         14    1    3    3    0    0 -0.96855479921E+01  0.14439904519E+02 -0.17931385775E+03  0.18015487855E+03  0.00000000000E+00 0. -1.
         -2    1    1    2    0  502 -0.33178228630E+02  0.70033703801E+02 -0.15315755606E+03  0.17164717155E+03  0.00000000000E+00 0.  1.
<mgrwt>
<rscale>  1 0.11779510E+03</rscale>
<asrwt>0</asrwt>
<pdfrwt beam="1">  1       21 0.11616364E+00 0.11779510E+03</pdfrwt>
<pdfrwt beam="2">  1       -1 0.23227593E-02 0.11779510E+03</pdfrwt>
<totfact> 0.27529925E+04</totfact>
</mgrwt>
</event>
<event>
 6    2  0.7993170E+000  0.1039998E+03  0.7546771E-02  0.1272103E+00
         21   -1    0    0  501  502  0.00000000000E+00  0.00000000000E+00  0.85076420912E+01  0.85076420912E+01  0.00000000000E+00 0. -1.
          2   -1    0    0  502    0 -0.00000000000E+00 -0.00000000000E+00 -0.89833707533E+03  0.89833707533E+03  0.00000000000E+00 0. -1.
         24    2    1    2    0    0 -0.25491234306E+02  0.61527298820E+02 -0.63480162835E+03  0.64326438281E+03  0.79878328172E+02 0.  0.
        -13    1    3    3    0    0  0.44440763403E+01  0.21428913162E+02 -0.34336772699E+02  0.40718080667E+02  0.00000000000E+00 0.  1.
         14    1    3    3    0    0 -0.29935310646E+02  0.40098385658E+02 -0.60046485565E+03  0.60254630215E+03  0.00000000000E+00 0. -1.
          1    1    1    2  501    0  0.25491234306E+02 -0.61527298820E+02 -0.25502780489E+03  0.26358033461E+03  0.00000000000E+00 0. -1.
<mgrwt>
<rscale>  1 0.10399980E+03</rscale>
<asrwt>0</asrwt>
<pdfrwt beam="1">  1       21 0.13088682E-02 0.10399980E+03</pdfrwt>
<pdfrwt beam="2">  1        2 0.13820569E+00 0.10399980E+03</pdfrwt>
<totfact> 0.90808038E+05</totfact>
</mgrwt>
</event>
<event>
 6    2  0.7993170E+000  0.1403409E+03  0.7546771E-02  0.1212871E+00
          2   -1    0    0  502    0 -0.00000000000E+00  0.00000000000E+00  0.15827436145E+04  0.15827436145E+04  0.00000000000E+00 0. -1.
         21   -1    0    0  501  502  0.00000000000E+00 -0.00000000000E+00 -0.11498607719E+02  0.11498607719E+02  0.00000000000E+00 0. -1.
         24    2    1    2    0    0 -0.41668384176E+02  0.10734342839E+03  0.11102205424E+04  0.11190554983E+04  0.80228982223E+02 0.  0.
        -13    1    3    3    0    0 -0.70652004014E+01  0.40094038847E+01  0.77998390361E+01  0.11261876629E+02  0.00000000000E+00 0.  1.
         14    1    3    3    0    0 -0.34603183774E+02  0.10333402450E+03  0.11024207034E+04  0.11077936217E+04  0.00000000000E+00 0. -1.
          1    1    1    2  501    0  0.41668384176E+02 -0.10734342839E+03  0.46102446438E+03  0.47518672394E+03  0.00000000000E+00 0. -1.
<mgrwt>
<rscale>  1 0.14034085E+03</rscale>
<asrwt>0</asrwt>
<pdfrwt beam="1">  1       21 0.17690178E-02 0.14034085E+03</pdfrwt>
<pdfrwt beam="2">  1        2 0.24349884E+00 0.14034085E+03</pdfrwt>
<totfact> 0.23806116E+05</totfact>
</mgrwt>
</event>
<event>
 6    2  0.7993170E+000  0.7275186E+02  0.7546771E-02  0.1350978E+00
          2   -1    0    0  502    0 -0.00000000000E+00  0.00000000000E+00  0.25317696796E+04  0.25317696796E+04  0.00000000000E+00 0. -1.
         21   -1    0    0  501  502  0.00000000000E+00 -0.00000000000E+00 -0.12519865340E+01  0.12519865340E+01  0.00000000000E+00 0. -1.
         24    2    1    2    0    0 -0.38396747821E+02  0.10476328076E+02  0.16709989802E+04  0.16725819638E+04  0.60899670753E+02 0.  0.
        -13    1    3    3    0    0  0.13682200917E+02 -0.57907360661E+01  0.19071441855E+03  0.19129224942E+03  0.00000000000E+00 0.  1.
         14    1    3    3    0    0 -0.52078948738E+02  0.16267064142E+02  0.14802845617E+04  0.14812897144E+04  0.00000000000E+00 0. -1.
          1    1    1    2  501    0  0.38396747821E+02 -0.10476328076E+02  0.85951871285E+03  0.86043970238E+03  0.00000000000E+00 0. -1.
<mgrwt>
<rscale>  1 0.72751863E+02</rscale>
<asrwt>0</asrwt>
<pdfrwt beam="1">  1       21 0.19261534E-03 0.72751863E+02</pdfrwt>
<pdfrwt beam="2">  1        2 0.38949893E+00 0.72751863E+02</pdfrwt>
<totfact> 0.23408256E+06</totfact>
</mgrwt>
</event>
<event>
 6    2  0.7993170E+000  0.8701466E+02  0.7546771E-02  0.1310247E+00
         21   -1    0    0  501  502  0.00000000000E+00  0.00000000000E+00  0.40585894995E+01  0.40585894995E+01  0.00000000000E+00 0. -1.
          2   -1    0    0  502    0 -0.00000000000E+00 -0.00000000000E+00 -0.14705785073E+04  0.14705785073E+04  0.00000000000E+00 0. -1.
         24    2    1    2    0    0  0.18318750607E+02  0.25763917448E+02 -0.13761354589E+04  0.13788837341E+04  0.81069073871E+02 0.  0.
        -13    1    3    3    0    0  0.74101668125E+01 -0.22983808104E+02 -0.16916167105E+03  0.17087667179E+03  0.00000000000E+00 0.  1.
         14    1    3    3    0    0  0.10908583795E+02  0.48747725552E+02 -0.12069737878E+04  0.12080070623E+04  0.00000000000E+00 0. -1.
          1    1    1    2  501    0 -0.18318750607E+02 -0.25763917448E+02 -0.90384458924E+02  0.95753362767E+02  0.00000000000E+00 0. -1.
<mgrwt>
<rscale>  1 0.87014659E+02</rscale>
<asrwt>0</asrwt>
<pdfrwt beam="1">  1       21 0.62439935E-03 0.87014659E+02</pdfrwt>
<pdfrwt beam="2">  1        2 0.22624250E+00 0.87014659E+02</pdfrwt>
<totfact> 0.13717551E+06</totfact>
</mgrwt>
</event>
<event>
 6    2  0.7993170E+000  0.8174909E+02  0.7546771E-02  0.1324160E+00
         21   -1    0    0  501  502  0.00000000000E+00  0.00000000000E+00  0.55874195535E+03  0.55874195535E+03  0.00000000000E+00 0. -1.
          4   -1    0    0  502    0 -0.00000000000E+00 -0.00000000000E+00 -0.99780087529E+01  0.99780087529E+01  0.00000000000E+00 0. -1.
         24    2    1    2    0    0 -0.13088440088E+01  0.21486796170E+02  0.16295420216E+03  0.18231013713E+03  0.78863924673E+02 0.  0.
        -11    1    3    3    0    0  0.14644551111E+02  0.40533830325E+00  0.15355391506E+03  0.15425119774E+03  0.00000000000E+00 0.  1.
         12    1    3    3    0    0 -0.15953395120E+02  0.21081457867E+02  0.94002871061E+01  0.28058939383E+02  0.00000000000E+00 0. -1.
          3    1    1    2  501    0  0.13088440088E+01 -0.21486796170E+02  0.38580974443E+03  0.38640982697E+03  0.00000000000E+00 0. -1.
<mgrwt>
<rscale>  1 0.81749092E+02</rscale>
<asrwt>0</asrwt>
<pdfrwt beam="1">  1       21 0.85960277E-01 0.81749092E+02</pdfrwt>
<pdfrwt beam="2">  1        4 0.15350787E-02 0.81749092E+02</pdfrwt>
<totfact> 0.68628205E+04</totfact>
</mgrwt>
</event>
<event>
 6    2  0.7993170E+000  0.8404172E+02  0.7546771E-02  0.1317958E+00
         -1   -1    0    0    0  501 -0.00000000000E+00  0.00000000000E+00  0.70776239074E+03  0.70776239074E+03  0.00000000000E+00 0.  1.
         21   -1    0    0  501  502  0.00000000000E+00 -0.00000000000E+00 -0.38518815869E+01  0.38518815869E+01  0.00000000000E+00 0. -1.
         24    2    1    2    0    0  0.66834659849E+01 -0.19237645775E+02  0.57192123079E+03  0.57806306366E+03  0.81536835919E+02 0.  0.
        -13    1    3    3    0    0  0.38015614135E+02 -0.22768244473E+02  0.44827905199E+03  0.45046385907E+03  0.00000000000E+00 0.  1.
         14    1    3    3    0    0 -0.31332148150E+02  0.35305986983E+01  0.12364217880E+03  0.12759920460E+03  0.00000000000E+00 0. -1.
         -2    1    1    2    0  502 -0.66834659849E+01  0.19237645775E+02  0.13198927836E+03  0.13355120866E+03  0.00000000000E+00 0.  1.
<mgrwt>
<rscale>  1 0.84041724E+02</rscale>
<asrwt>0</asrwt>
<pdfrwt beam="1">  1       21 0.59259773E-03 0.84041724E+02</pdfrwt>
<pdfrwt beam="2">  1       -1 0.10888642E+00 0.84041724E+02</pdfrwt>
<totfact> 0.62031316E+05</totfact>
</mgrwt>
</event>
<event>
 6    2  0.7993170E+000  0.8673960E+02  0.7546771E-02  0.1310945E+00
         -3   -1    0    0    0  501 -0.00000000000E+00  0.00000000000E+00  0.87361177439E+03  0.87361177439E+03  0.00000000000E+00 0.  1.
         21   -1    0    0  501  502  0.00000000000E+00 -0.00000000000E+00 -0.68352607387E+01  0.68352607387E+01  0.00000000000E+00 0.  1.
         24    2    1    2    0    0 -0.14049978516E+02  0.30115991477E+02  0.81021898015E+03  0.81484879251E+03  0.80121058534E+02 0.  0.
        -11    1    3    3    0    0 -0.41903198587E+02  0.22708638587E+02  0.67029726523E+03  0.67198957142E+03  0.00000000000E+00 0.  1.
         12    1    3    3    0    0  0.27853220070E+02  0.74073528901E+01  0.13992171492E+03  0.14285922109E+03  0.00000000000E+00 0. -1.
         -4    1    1    2    0  502  0.14049978516E+02 -0.30115991477E+02  0.56557533504E+02  0.65598242622E+02  0.00000000000E+00 0.  1.
<mgrwt>
<rscale>  1 0.86739604E+02</rscale>
<asrwt>0</asrwt>
<pdfrwt beam="1">  1       21 0.10515793E-02 0.86739604E+02</pdfrwt>
<pdfrwt beam="2">  1       -3 0.13440172E+00 0.86739604E+02</pdfrwt>
<totfact> 0.70547896E+04</totfact>
</mgrwt>
</event>
<event>
 6    2  0.7993170E+000  0.8426605E+02  0.7546771E-02  0.1317363E+00
         21   -1    0    0  501  502  0.00000000000E+00  0.00000000000E+00  0.70672296921E+01  0.70672296921E+01  0.00000000000E+00 0.  1.
          2   -1    0    0  502    0 -0.00000000000E+00 -0.00000000000E+00 -0.47755557679E+03  0.47755557679E+03  0.00000000000E+00 0. -1.
         24    2    1    2    0    0 -0.28662593783E+02 -0.82557347933E+01 -0.38394805761E+03  0.39308634848E+03  0.78810310099E+02 0.  0.
        -13    1    3    3    0    0 -0.45371140276E+02  0.21326674185E+02 -0.21692399765E+03  0.22264183829E+03  0.00000000000E+00 0.  1.
         14    1    3    3    0    0  0.16708546494E+02 -0.29582408978E+02 -0.16702405996E+03  0.17044451019E+03  0.00000000000E+00 0. -1.
          1    1    1    2  501    0  0.28662593783E+02  0.82557347933E+01 -0.86540289490E+02  0.91536458006E+02  0.00000000000E+00 0. -1.
<mgrwt>
<rscale>  1 0.84266045E+02</rscale>
<asrwt>0</asrwt>
<pdfrwt beam="1">  1       21 0.10872657E-02 0.84266045E+02</pdfrwt>
<pdfrwt beam="2">  1        2 0.73470116E-01 0.84266045E+02</pdfrwt>
<totfact> 0.24737182E+06</totfact>
</mgrwt>
</event>
<event>
 6    2  0.7993170E+000  0.8543058E+02  0.7546771E-02  0.1314310E+00
          2   -1    0    0  502    0 -0.00000000000E+00  0.00000000000E+00  0.46546969083E+03  0.46546969083E+03  0.00000000000E+00 0. -1.
         21   -1    0    0  501  502  0.00000000000E+00 -0.00000000000E+00 -0.73839468306E+01  0.73839468306E+01  0.00000000000E+00 0.  1.
         24    2    1    2    0    0  0.28394454884E+02 -0.14127411561E+02  0.32492045688E+03  0.33596381876E+03  0.79325628834E+02 0.  0.
        -11    1    3    3    0    0  0.92073827814E-01 -0.15211654846E+02  0.69327521283E+01  0.16717235800E+02  0.00000000000E+00 0.  1.
         12    1    3    3    0    0  0.28302381056E+02  0.10842432847E+01  0.31798770475E+03  0.31924658296E+03  0.00000000000E+00 0. -1.
          1    1    1    2  501    0 -0.28394454884E+02  0.14127411561E+02  0.13316528712E+03  0.13688981890E+03  0.00000000000E+00 0. -1.
<mgrwt>
<rscale>  1 0.85430581E+02</rscale>
<asrwt>0</asrwt>
<pdfrwt beam="1">  1       21 0.11359922E-02 0.85430581E+02</pdfrwt>
<pdfrwt beam="2">  1        2 0.71610699E-01 0.85430581E+02</pdfrwt>
<totfact> 0.23777342E+06</totfact>
</mgrwt>
</event>
<event>
 6    2  0.7993170E+000  0.1080651E+03  0.7546771E-02  0.1264195E+00
         21   -1    0    0  501  502  0.00000000000E+00  0.00000000000E+00  0.65330100295E+02  0.65330100295E+02  0.00000000000E+00 0. -1.
          2   -1    0    0  502    0 -0.00000000000E+00 -0.00000000000E+00 -0.18048414232E+03  0.18048414232E+03  0.00000000000E+00 0. -1.
         24    2    1    2    0    0  0.53469882661E+01 -0.71786808257E+02 -0.13327604200E+03  0.17158255796E+03  0.80598602363E+02 0.  0.
        -11    1    3    3    0    0 -0.13911873578E+02  0.13979281802E+02 -0.18758044324E+02  0.27218096425E+02  0.00000000000E+00 0.  1.
         12    1    3    3    0    0  0.19258861844E+02 -0.85766090059E+02 -0.11451799768E+03  0.14436446154E+03  0.00000000000E+00 0. -1.
          1    1    1    2  501    0 -0.53469882661E+01  0.71786808257E+02  0.18121999974E+02  0.74231684652E+02  0.00000000000E+00 0. -1.
<mgrwt>
<rscale>  1 0.10806512E+03</rscale>
<asrwt>0</asrwt>
<pdfrwt beam="1">  1       21 0.10050785E-01 0.10806512E+03</pdfrwt>
<pdfrwt beam="2">  1        2 0.27766791E-01 0.10806512E+03</pdfrwt>
<totfact> 0.18412166E+05</totfact>
</mgrwt>
</event>
<event>
 6    2  0.7993170E+000  0.8155063E+02  0.7546771E-02  0.1324708E+00
          2   -1    0    0  502    0 -0.00000000000E+00  0.00000000000E+00  0.45492699696E+03  0.45492699696E+03  0.00000000000E+00 0. -1.
         21   -1    0    0  501  502  0.00000000000E+00 -0.00000000000E+00 -0.65053302366E+01  0.65053302366E+01  0.00000000000E+00 0.  1.
         24    2    1    2    0    0 -0.18096035957E+02  0.11539081618E+02  0.40335199038E+03  0.41151346655E+03  0.78675841857E+02 0.  0.
        -11    1    3    3    0    0 -0.14266918648E+02  0.26866469882E+02  0.55393053921E+02  0.63196064706E+02  0.00000000000E+00 0.  1.
         12    1    3    3    0    0 -0.38291173089E+01 -0.15327388264E+02  0.34795893646E+03  0.34831740185E+03  0.00000000000E+00 0. -1.
          1    1    1    2  501    0  0.18096035957E+02 -0.11539081618E+02  0.45069676347E+02  0.49918860643E+02  0.00000000000E+00 0. -1.
<mgrwt>
<rscale>  1 0.81550629E+02</rscale>
<asrwt>0</asrwt>
<pdfrwt beam="1">  1       21 0.10008204E-02 0.81550629E+02</pdfrwt>
<pdfrwt beam="2">  1        2 0.69988744E-01 0.81550629E+02</pdfrwt>
<totfact> 0.29527634E+06</totfact>
</mgrwt>
</event>
<event>
 6    2  0.7993170E+000  0.8360625E+02  0.7546771E-02  0.1319118E+00
          2   -1    0    0  502    0 -0.00000000000E+00  0.00000000000E+00  0.17876865092E+02  0.17876865092E+02  0.00000000000E+00 0. -1.
         21   -1    0    0  501  502  0.00000000000E+00 -0.00000000000E+00 -0.23002661706E+03  0.23002661706E+03  0.00000000000E+00 0.  1.
         24    2    1    2    0    0  0.21290291667E+02  0.11909827282E+02 -0.88015867561E+02  0.12139521458E+03  0.79968022836E+02 0.  0.
        -13    1    3    3    0    0  0.36394884786E+02 -0.42198740208E-01 -0.94344282698E+02  0.10112088359E+03  0.00000000000E+00 0.  1.
         14    1    3    3    0    0 -0.15104593118E+02  0.11952026022E+02  0.63284151368E+01  0.20274330999E+02  0.00000000000E+00 0. -1.
          1    1    1    2  501    0 -0.21290291667E+02 -0.11909827282E+02 -0.12413388440E+03  0.12650826756E+03  0.00000000000E+00 0. -1.
<mgrwt>
<rscale>  1 0.83606251E+02</rscale>
<asrwt>0</asrwt>
<pdfrwt beam="1">  1       21 0.35388708E-01 0.83606251E+02</pdfrwt>
<pdfrwt beam="2">  1        2 0.27502871E-02 0.83606251E+02</pdfrwt>
<totfact> 0.30433938E+05</totfact>
</mgrwt>
</event>
<event>
 6    2  0.7993170E+000  0.9605284E+02  0.7546771E-02  0.1288822E+00
          4   -1    0    0  502    0 -0.00000000000E+00  0.00000000000E+00  0.58419842851E+02  0.58419842851E+02  0.00000000000E+00 0. -1.
         21   -1    0    0  501  502  0.00000000000E+00 -0.00000000000E+00 -0.37579990175E+03  0.37579990175E+03  0.00000000000E+00 0. -1.
         24    2    1    2    0    0  0.12054109007E+00 -0.52642420127E+02  0.15419287540E+02  0.97282593314E+02  0.80342452083E+02 0.  0.
        -13    1    3    3    0    0  0.12769927956E+02  0.13870849748E+02 -0.13978196424E+02  0.23470439024E+02  0.00000000000E+00 0.  1.
         14    1    3    3    0    0 -0.12649386866E+02 -0.66513269875E+02  0.29397483964E+02  0.73812154290E+02  0.00000000000E+00 0. -1.
          3    1    1    2  501    0 -0.12054109007E+00  0.52642420127E+02 -0.33279934643E+03  0.33693715128E+03  0.00000000000E+00 0. -1.
<mgrwt>
<rscale>  1 0.96052842E+02</rscale>
<asrwt>0</asrwt>
<pdfrwt beam="1">  1       21 0.57815370E-01 0.96052842E+02</pdfrwt>
<pdfrwt beam="2">  1        4 0.89876680E-02 0.96052842E+02</pdfrwt>
<totfact> 0.10212897E+04</totfact>
</mgrwt>
</event>
<event>
 6    2  0.7993170E+000  0.9793663E+02  0.7546771E-02  0.1284696E+00
          2   -1    0    0  502    0 -0.00000000000E+00  0.00000000000E+00  0.72305992422E+02  0.72305992422E+02  0.00000000000E+00 0. -1.
         21   -1    0    0  501  502  0.00000000000E+00 -0.00000000000E+00 -0.10099921734E+03  0.10099921734E+03  0.00000000000E+00 0. -1.
         24    2    1    2    0    0 -0.86491874440E+01  0.54750358482E+02  0.19494715437E+02  0.99858032874E+02  0.80741393363E+02 0.  0.
        -11    1    3    3    0    0  0.13608973538E+02 -0.13349119343E+02  0.20783044864E+02  0.28201739340E+02  0.00000000000E+00 0.  1.
         12    1    3    3    0    0 -0.22258160982E+02  0.68099477824E+02 -0.12883294273E+01  0.71656293534E+02  0.00000000000E+00 0. -1.
          1    1    1    2  501    0  0.86491874440E+01 -0.54750358482E+02 -0.48187940359E+02  0.73447176891E+02  0.00000000000E+00 0. -1.
<mgrwt>
<rscale>  1 0.97936626E+02</rscale>
<asrwt>0</asrwt>
<pdfrwt beam="1">  1       21 0.15538341E-01 0.97936626E+02</pdfrwt>
<pdfrwt beam="2">  1        2 0.11123999E-01 0.97936626E+02</pdfrwt>
<totfact> 0.24037898E+05</totfact>
</mgrwt>
</event>
<event>
 6    2  0.7993170E+000  0.8208411E+02  0.7546771E-02  0.1323239E+00
         21   -1    0    0  501  502  0.00000000000E+00  0.00000000000E+00  0.48215367268E+01  0.48215367268E+01  0.00000000000E+00 0. -1.
          2   -1    0    0  502    0 -0.00000000000E+00 -0.00000000000E+00 -0.10506265403E+04  0.10506265403E+04  0.00000000000E+00 0. -1.
         24    2    1    2    0    0  0.16744378717E+02 -0.13484090642E+02 -0.10124046153E+04  0.10157267874E+04  0.79218725527E+02 0.  0.
        -13    1    3    3    0    0 -0.22317660600E+02 -0.42607362321E+01 -0.10477724909E+03  0.10721242360E+03  0.00000000000E+00 0.  1.
         14    1    3    3    0    0  0.39062039317E+02 -0.92233544096E+01 -0.90762736625E+03  0.90851436375E+03  0.00000000000E+00 0. -1.
          1    1    1    2  501    0 -0.16744378717E+02  0.13484090642E+02 -0.33400388246E+02  0.39721289682E+02  0.00000000000E+00 0. -1.
<mgrwt>
<rscale>  1 0.82084112E+02</rscale>
<asrwt>0</asrwt>
<pdfrwt beam="1">  1       21 0.74177376E-03 0.82084112E+02</pdfrwt>
<pdfrwt beam="2">  1        2 0.16163510E+00 0.82084112E+02</pdfrwt>
<totfact> 0.17555006E+06</totfact>
</mgrwt>
</event>
<event>
 6    2  0.7993170E+000  0.8445237E+02  0.7546771E-02  0.1316871E+00
          2   -1    0    0  502    0 -0.00000000000E+00  0.00000000000E+00  0.14894065397E+04  0.14894065397E+04  0.00000000000E+00 0. -1.
         21   -1    0    0  501  502  0.00000000000E+00 -0.00000000000E+00 -0.23397662568E+01  0.23397662568E+01  0.00000000000E+00 0.  1.
         24    2    1    2    0    0  0.11964830738E+02  0.17893506378E+02  0.13774266105E+04  0.13800131413E+04  0.81663138648E+02 0.  0.
        -13    1    3    3    0    0  0.36137735876E+02 -0.23033741366E+01  0.30778410867E+03  0.30990691996E+03  0.00000000000E+00 0.  1.
         14    1    3    3    0    0 -0.24172905138E+02  0.20196880515E+02  0.10696425018E+04  0.10701062214E+04  0.00000000000E+00 0. -1.
          1    1    1    2  501    0 -0.11964830738E+02 -0.17893506378E+02  0.10964016298E+03  0.11173316465E+03  0.00000000000E+00 0. -1.
<mgrwt>
<rscale>  1 0.84452371E+02</rscale>
<asrwt>0</asrwt>
<pdfrwt beam="1">  1       21 0.35996523E-03 0.84452371E+02</pdfrwt>
<pdfrwt beam="2">  1        2 0.22913871E+00 0.84452371E+02</pdfrwt>
<totfact> 0.31060048E+06</totfact>
</mgrwt>
</event>
<event>
 6    2  0.7993170E+000  0.8808549E+02  0.7546771E-02  0.1307555E+00
         21   -1    0    0  501  502  0.00000000000E+00  0.00000000000E+00  0.45371609958E+01  0.45371609958E+01  0.00000000000E+00 0. -1.
          2   -1    0    0  502    0 -0.00000000000E+00 -0.00000000000E+00 -0.13826266909E+04  0.13826266909E+04  0.00000000000E+00 0. -1.
         24    2    1    2    0    0 -0.24249988782E+02  0.26161978872E+02 -0.12757130799E+04  0.12787505289E+04  0.80539069757E+02 0.  0.
        -13    1    3    3    0    0 -0.57509841873E+01 -0.15718926366E+02 -0.63370298912E+02  0.65543521796E+02  0.00000000000E+00 0.  1.
         14    1    3    3    0    0 -0.18499004595E+02  0.41880905238E+02 -0.12123427810E+04  0.12132070071E+04  0.00000000000E+00 0. -1.
          1    1    1    2  501    0  0.24249988782E+02 -0.26161978872E+02 -0.10237645000E+03  0.10841332302E+03  0.00000000000E+00 0. -1.
<mgrwt>
<rscale>  1 0.88085486E+02</rscale>
<asrwt>0</asrwt>
<pdfrwt beam="1">  1       21 0.69802514E-03 0.88085486E+02</pdfrwt>
<pdfrwt beam="2">  1        2 0.21271169E+00 0.88085486E+02</pdfrwt>
<totfact> 0.12832306E+06</totfact>
</mgrwt>
</event>
<event>
 6    2  0.7993170E+000  0.8679956E+02  0.7546771E-02  0.1310792E+00
         -1   -1    0    0    0  501 -0.00000000000E+00  0.00000000000E+00  0.39364351575E+03  0.39364351575E+03  0.00000000000E+00 0.  1.
         21   -1    0    0  501  502  0.00000000000E+00 -0.00000000000E+00 -0.90418602981E+01  0.90418602981E+01  0.00000000000E+00 0. -1.
         24    2    1    2    0    0 -0.26255108759E+02 -0.14116343374E+02  0.24457469389E+03  0.25952060436E+03  0.81520312276E+02 0.  0.
        -13    1    3    3    0    0 -0.19470109214E+02  0.33317908238E+02  0.11977768133E+03  0.12584061787E+03  0.00000000000E+00 0.  1.
         14    1    3    3    0    0 -0.67849995446E+01 -0.47434251612E+02  0.12479701256E+03  0.13367998649E+03  0.00000000000E+00 0. -1.
         -2    1    1    2    0  502  0.26255108759E+02  0.14116343374E+02  0.14002696157E+03  0.14316477169E+03  0.00000000000E+00 0.  1.
<mgrwt>
<rscale>  1 0.86799558E+02</rscale>
<asrwt>0</asrwt>
<pdfrwt beam="1">  1       21 0.13910557E-02 0.86799558E+02</pdfrwt>
<pdfrwt beam="2">  1       -1 0.60560528E-01 0.86799558E+02</pdfrwt>
<totfact> 0.54630813E+05</totfact>
</mgrwt>
</event>
<event>
 6    2  0.7993170E+000  0.8681933E+02  0.7546771E-02  0.1310742E+00
         -1   -1    0    0    0  501 -0.00000000000E+00  0.00000000000E+00  0.37279388690E+02  0.37279388690E+02  0.00000000000E+00 0.  1.
         21   -1    0    0  501  502  0.00000000000E+00 -0.00000000000E+00 -0.10383552679E+03  0.10383552679E+03  0.00000000000E+00 0. -1.
         24    2    1    2    0    0 -0.17280322610E+02 -0.22391121334E+02 -0.71414136409E+02  0.11241697110E+03  0.82083035087E+02 0.  0.
        -13    1    3    3    0    0 -0.20255334563E+02  0.24533213564E+02 -0.68447744226E+01  0.32542404382E+02  0.00000000000E+00 0.  1.
         14    1    3    3    0    0  0.29750119529E+01 -0.46924334899E+02 -0.64569361986E+02  0.79874566722E+02  0.00000000000E+00 0. -1.
         -2    1    1    2    0  502  0.17280322610E+02  0.22391121334E+02  0.48579983039E+01  0.28697944380E+02  0.00000000000E+00 0.  1.
<mgrwt>
<rscale>  1 0.86819333E+02</rscale>
<asrwt>0</asrwt>
<pdfrwt beam="1">  1       21 0.15974696E-01 0.86819333E+02</pdfrwt>
<pdfrwt beam="2">  1       -1 0.57352907E-02 0.86819333E+02</pdfrwt>
<totfact> 0.41298480E+05</totfact>
</mgrwt>
</event>
<event>
 6    2  0.7993170E+000  0.8430942E+02  0.7546771E-02  0.1317248E+00
         21   -1    0    0  501  502  0.00000000000E+00  0.00000000000E+00  0.78923409049E+00  0.78923409049E+00  0.00000000000E+00 0.  1.
          2   -1    0    0  502    0 -0.00000000000E+00 -0.00000000000E+00 -0.36585249570E+04  0.36585249570E+04  0.00000000000E+00 0. -1.
         24    2    1    2    0    0 -0.11765854620E+02  0.19925675045E+02 -0.28405448679E+04  0.28417957746E+04  0.81071634210E+02 0.  0.
        -11    1    3    3    0    0  0.18532619307E+02  0.38404784943E+01 -0.17331698232E+03  0.17434730745E+03  0.00000000000E+00 0.  1.
         12    1    3    3    0    0 -0.30298473928E+02  0.16085196550E+02 -0.26672278856E+04  0.26674484671E+04  0.00000000000E+00 0. -1.
          1    1    1    2  501    0  0.11765854620E+02 -0.19925675045E+02 -0.81719085493E+03  0.81751841645E+03  0.00000000000E+00 0. -1.
<mgrwt>
<rscale>  1 0.84309417E+02</rscale>
<asrwt>0</asrwt>
<pdfrwt beam="1">  1       21 0.12142068E-03 0.84309417E+02</pdfrwt>
<pdfrwt beam="2">  1        2 0.56284976E+00 0.84309417E+02</pdfrwt>
<totfact> 0.10311164E+06</totfact>
</mgrwt>
</event>
<event>
 6    2  0.7993170E+000  0.8555419E+02  0.7546771E-02  0.1313990E+00
         21   -1    0    0  501  502  0.00000000000E+00  0.00000000000E+00  0.79536453712E+00  0.79536453712E+00  0.00000000000E+00 0.  1.
          2   -1    0    0  502    0 -0.00000000000E+00 -0.00000000000E+00 -0.39887279399E+04  0.39887279399E+04  0.00000000000E+00 0. -1.
         24    2    1    2    0    0 -0.16858710011E+02  0.20816623282E+02 -0.29054678972E+04  0.29067272353E+04  0.81252512334E+02 0.  0.
        -13    1    3    3    0    0 -0.36989922755E+02  0.12065884945E+02 -0.65634529086E+03  0.65749751391E+03  0.00000000000E+00 0.  1.
         14    1    3    3    0    0  0.20131212744E+02  0.87507383374E+01 -0.22491226063E+04  0.22492297214E+04  0.00000000000E+00 0. -1.
          1    1    1    2  501    0  0.16858710011E+02 -0.20816623282E+02 -0.10824646781E+04  0.10827960691E+04  0.00000000000E+00 0. -1.
<mgrwt>
<rscale>  1 0.85554186E+02</rscale>
<asrwt>0</asrwt>
<pdfrwt beam="1">  1       21 0.12236201E-03 0.85554186E+02</pdfrwt>
<pdfrwt beam="2">  1        2 0.61365928E+00 0.85554186E+02</pdfrwt>
<totfact> 0.59956329E+05</totfact>
</mgrwt>
</event>
<event>
 6    2  0.7993170E+000  0.1479372E+03  0.7546771E-02  0.1203031E+00
         21   -1    0    0  501  502  0.00000000000E+00  0.00000000000E+00  0.15722390650E+02  0.15722390650E+02  0.00000000000E+00 0.  1.
          2   -1    0    0  502    0 -0.00000000000E+00 -0.00000000000E+00 -0.16235430212E+04  0.16235430212E+04  0.00000000000E+00 0. -1.
         24    2    1    2    0    0 -0.26563095889E+02 -0.11951569389E+03 -0.42275056566E+03  0.44788778161E+03  0.83041104266E+02 0.  0.
        -11    1    3    3    0    0 -0.37638185375E+02 -0.12519248421E+03 -0.40879570611E+03  0.42918960895E+03  0.00000000000E+00 0.  1.
         12    1    3    3    0    0  0.11075089486E+02  0.56767903224E+01 -0.13954859558E+02  0.18698172659E+02  0.00000000000E+00 0. -1.
          1    1    1    2  501    0  0.26563095889E+02  0.11951569389E+03 -0.11850700649E+04  0.11913776302E+04  0.00000000000E+00 0. -1.
<mgrwt>
<rscale>  1 0.14793723E+03</rscale>
<asrwt>0</asrwt>
<pdfrwt beam="1">  1       21 0.24188280E-02 0.14793723E+03</pdfrwt>
<pdfrwt beam="2">  1        2 0.24977599E+00 0.14793723E+03</pdfrwt>
<totfact> 0.13666133E+05</totfact>
</mgrwt>
</event>
<event>
 6    2  0.7993170E+000  0.8490494E+02  0.7546771E-02  0.1315681E+00
         21   -1    0    0  501  502  0.00000000000E+00  0.00000000000E+00  0.22012096643E+02  0.22012096643E+02  0.00000000000E+00 0.  1.
          2   -1    0    0  502    0 -0.00000000000E+00 -0.00000000000E+00 -0.16009386184E+03  0.16009386184E+03  0.00000000000E+00 0. -1.
         24    2    1    2    0    0  0.17319248578E+02  0.20555105816E+02 -0.12757708552E+03  0.15324738884E+03  0.80538069828E+02 0.  0.
        -13    1    3    3    0    0 -0.21336502922E+02  0.27530005416E+02 -0.23531981935E+02  0.42034530197E+02  0.00000000000E+00 0.  1.
         14    1    3    3    0    0  0.38655751501E+02 -0.69748995995E+01 -0.10404510358E+03  0.11121285865E+03  0.00000000000E+00 0. -1.
          1    1    1    2  501    0 -0.17319248578E+02 -0.20555105816E+02 -0.10504679678E+02  0.28858569639E+02  0.00000000000E+00 0. -1.
<mgrwt>
<rscale>  1 0.84904944E+02</rscale>
<asrwt>0</asrwt>
<pdfrwt beam="1">  1       21 0.33864765E-02 0.84904944E+02</pdfrwt>
<pdfrwt beam="2">  1        2 0.24629824E-01 0.84904944E+02</pdfrwt>
<totfact> 0.12805176E+06</totfact>
</mgrwt>
</event>
<event>
 6    2  0.7993170E+000  0.8536244E+02  0.7546771E-02  0.1314487E+00
          2   -1    0    0  502    0 -0.00000000000E+00  0.00000000000E+00  0.96310841929E+03  0.96310841929E+03  0.00000000000E+00 0. -1.
         21   -1    0    0  501  502  0.00000000000E+00 -0.00000000000E+00 -0.36439048375E+01  0.36439048375E+01  0.00000000000E+00 0.  1.
         24    2    1    2    0    0  0.18965204455E+02  0.17927433817E+02  0.84742655892E+03  0.85171504607E+03  0.81275304205E+02 0.  0.
        -13    1    3    3    0    0  0.49237377307E+02  0.67491154509E+01  0.39038476804E+03  0.39353543297E+03  0.00000000000E+00 0.  1.
         14    1    3    3    0    0 -0.30272172852E+02  0.11178318366E+02  0.45704179088E+03  0.45817961310E+03  0.00000000000E+00 0. -1.
          1    1    1    2  501    0 -0.18965204455E+02 -0.17927433817E+02  0.11203795554E+03  0.11503727806E+03  0.00000000000E+00 0. -1.
<mgrwt>
<rscale>  1 0.85362445E+02</rscale>
<asrwt>0</asrwt>
<pdfrwt beam="1">  1       21 0.56060151E-03 0.85362445E+02</pdfrwt>
<pdfrwt beam="2">  1        2 0.14817032E+00 0.85362445E+02</pdfrwt>
<totfact> 0.30507727E+06</totfact>
</mgrwt>
</event>
<event>
 6    2  0.7993170E+000  0.8497135E+02  0.7546771E-02  0.1315507E+00
         21   -1    0    0  501  502  0.00000000000E+00  0.00000000000E+00  0.27836968336E+01  0.27836968336E+01  0.00000000000E+00 0.  1.
          2   -1    0    0  502    0 -0.00000000000E+00 -0.00000000000E+00 -0.15453930506E+04  0.15453930506E+04  0.00000000000E+00 0. -1.
         24    2    1    2    0    0 -0.25987837059E+02 -0.12124515970E+02 -0.14072501166E+04  0.14098131155E+04  0.79985988340E+02 0.  0.
        -11    1    3    3    0    0 -0.38994019117E+02 -0.37302412943E+02 -0.74200245337E+03  0.74396212562E+03  0.00000000000E+00 0.  1.
         12    1    3    3    0    0  0.13006182059E+02  0.25177896973E+02 -0.66524766324E+03  0.66585098988E+03  0.00000000000E+00 0. -1.
          1    1    1    2  501    0  0.25987837059E+02  0.12124515970E+02 -0.13535923714E+03  0.13836363193E+03  0.00000000000E+00 0. -1.
<mgrwt>
<rscale>  1 0.84971347E+02</rscale>
<asrwt>0</asrwt>
<pdfrwt beam="1">  1       21 0.42826120E-03 0.84971347E+02</pdfrwt>
<pdfrwt beam="2">  1        2 0.23775269E+00 0.84971347E+02</pdfrwt>
<totfact> 0.22349048E+06</totfact>
</mgrwt>
</event>
<event>
 6    2  0.7993170E+000  0.8120683E+02  0.7546771E-02  0.1325661E+00
         -1   -1    0    0    0  501 -0.00000000000E+00  0.00000000000E+00  0.37525588848E+02  0.37525588848E+02  0.00000000000E+00 0.  1.
         21   -1    0    0  501  502  0.00000000000E+00 -0.00000000000E+00 -0.72947183326E+02  0.72947183326E+02  0.00000000000E+00 0. -1.
         24    2    1    2    0    0  0.17216613725E+02  0.11551117289E+02 -0.37857364412E+02  0.89597593757E+02  0.78515658745E+02 0.  0.
        -11    1    3    3    0    0 -0.10246758393E+02  0.33926953771E+02  0.29452146584E+01  0.35562740883E+02  0.00000000000E+00 0.  1.
         12    1    3    3    0    0  0.27463372119E+02 -0.22375836482E+02 -0.40802579070E+02  0.54034852874E+02  0.00000000000E+00 0. -1.
         -2    1    1    2    0  502 -0.17216613725E+02 -0.11551117289E+02  0.24357699334E+01  0.20875178417E+02  0.00000000000E+00 0.  1.
<mgrwt>
<rscale>  1 0.81206827E+02</rscale>
<asrwt>0</asrwt>
<pdfrwt beam="1">  1       21 0.11222643E-01 0.81206827E+02</pdfrwt>
<pdfrwt beam="2">  1       -1 0.57731676E-02 0.81206827E+02</pdfrwt>
<totfact> 0.75715306E+05</totfact>
</mgrwt>
</event>
<event>
 6    2  0.7993170E+000  0.8803353E+02  0.7546771E-02  0.1307685E+00
         -3   -1    0    0    0  501 -0.00000000000E+00  0.00000000000E+00  0.72834310513E+01  0.72834310513E+01  0.00000000000E+00 0.  1.
         21   -1    0    0  501  502  0.00000000000E+00 -0.00000000000E+00 -0.56856908956E+03  0.56856908956E+03  0.00000000000E+00 0. -1.
         24    2    1    2    0    0  0.96796973705E+01 -0.30444433195E+02 -0.30087022410E+03  0.31348491870E+03  0.82032569442E+02 0.  0.
        -11    1    3    3    0    0 -0.10276852605E+02 -0.97289025745E+01 -0.33045694137E+01  0.14532220194E+02  0.00000000000E+00 0.  1.
         12    1    3    3    0    0  0.19956549975E+02 -0.20715530621E+02 -0.29756565469E+03  0.29895269851E+03  0.00000000000E+00 0. -1.
         -4    1    1    2    0  502 -0.96796973705E+01  0.30444433195E+02 -0.26041543441E+03  0.26236760191E+03  0.00000000000E+00 0.  1.
<mgrwt>
<rscale>  1 0.88033531E+02</rscale>
<asrwt>0</asrwt>
<pdfrwt beam="1">  1       21 0.87472198E-01 0.88033531E+02</pdfrwt>
<pdfrwt beam="2">  1       -3 0.11205275E-02 0.88033531E+02</pdfrwt>
<totfact> 0.11786896E+05</totfact>
</mgrwt>
</event>
<event>
 6    2  0.7993170E+000  0.8242410E+02  0.7546771E-02  0.1322310E+00
         21   -1    0    0  501  502  0.00000000000E+00  0.00000000000E+00  0.14682324037E+03  0.14682324037E+03  0.00000000000E+00 0.  1.
         -1   -1    0    0    0  501 -0.00000000000E+00 -0.00000000000E+00 -0.89166236423E+02  0.89166236423E+02  0.00000000000E+00 0.  1.
         24    2    1    2    0    0 -0.22945592033E+00  0.20327721945E+02 -0.69134052582E+02  0.10757903740E+03  0.79877801247E+02 0.  0.
        -13    1    3    3    0    0  0.24345967846E+02  0.11475423066E+02 -0.75954404969E+02  0.80582151368E+02  0.00000000000E+00 0.  1.
         14    1    3    3    0    0 -0.24575423766E+02  0.88522988791E+01  0.68203523871E+01  0.26996886032E+02  0.00000000000E+00 0. -1.
         -2    1    1    2    0  502  0.22945592033E+00 -0.20327721945E+02  0.12679105653E+03  0.12841043940E+03  0.00000000000E+00 0.  1.
<mgrwt>
<rscale>  1 0.82424099E+02</rscale>
<asrwt>0</asrwt>
<pdfrwt beam="1">  1       21 0.22588191E-01 0.82424099E+02</pdfrwt>
<pdfrwt beam="2">  1       -1 0.13717883E-01 0.82424099E+02</pdfrwt>
<totfact> 0.59275277E+04</totfact>
</mgrwt>
</event>
<event>
 6    2  0.7993170E+000  0.8333871E+02  0.7546771E-02  0.1319835E+00
          2   -1    0    0  502    0 -0.00000000000E+00  0.00000000000E+00  0.44082299274E+03  0.44082299274E+03  0.00000000000E+00 0. -1.
         21   -1    0    0  501  502  0.00000000000E+00 -0.00000000000E+00 -0.37716477092E+02  0.37716477092E+02  0.00000000000E+00 0. -1.
         24    2    1    2    0    0 -0.22948334246E+02  0.77519539945E+01  0.43249735061E+03  0.44045351421E+03  0.79740962264E+02 0.  0.
        -11    1    3    3    0    0 -0.10111769359E+02  0.32855472859E+02  0.83227427392E+02  0.90047402220E+02  0.00000000000E+00 0.  1.
         12    1    3    3    0    0 -0.12836564887E+02 -0.25103518864E+02  0.34926992321E+03  0.35040611199E+03  0.00000000000E+00 0. -1.
          1    1    1    2  501    0  0.22948334246E+02 -0.77519539945E+01 -0.29390834963E+02  0.38085955617E+02  0.00000000000E+00 0. -1.
<mgrwt>
<rscale>  1 0.83338706E+02</rscale>
<asrwt>0</asrwt>
<pdfrwt beam="1">  1       21 0.58025353E-02 0.83338706E+02</pdfrwt>
<pdfrwt beam="2">  1        2 0.67818918E-01 0.83338706E+02</pdfrwt>
<totfact> 0.18052084E+05</totfact>
</mgrwt>
</event>
<event>
 6    2  0.7993170E+000  0.1291159E+03  0.7546771E-02  0.1228773E+00
          2   -1    0    0  502    0 -0.00000000000E+00  0.00000000000E+00  0.30816618154E+03  0.30816618154E+03  0.00000000000E+00 0. -1.
         21   -1    0    0  501  502  0.00000000000E+00 -0.00000000000E+00 -0.39038061453E+02  0.39038061453E+02  0.00000000000E+00 0. -1.
         24    2    1    2    0    0  0.51460491992E+02 -0.67411775334E+02  0.19869885551E+03  0.23696445436E+03  0.97357011861E+02 0.  0.
        -11    1    3    3    0    0  0.30807860578E+02 -0.72814372327E+02  0.67257709972E+02  0.10380104355E+03  0.00000000000E+00 0.  1.
         12    1    3    3    0    0  0.20652631414E+02  0.54025969929E+01  0.13144114554E+03  0.13316341081E+03  0.00000000000E+00 0. -1.
          1    1    1    2  501    0 -0.51460491992E+02  0.67411775334E+02  0.70429264580E+02  0.11023978864E+03  0.00000000000E+00 0. -1.
<mgrwt>
<rscale>  1 0.12911591E+03</rscale>
<asrwt>0</asrwt>
<pdfrwt beam="1">  1       21 0.60058558E-02 0.12911591E+03</pdfrwt>
<pdfrwt beam="2">  1        2 0.47410180E-01 0.12911591E+03</pdfrwt>
<totfact> 0.25462393E+05</totfact>
</mgrwt>
</event>
<event>
 6    2  0.7993170E+000  0.1025263E+03  0.7546771E-02  0.1275071E+00
         21   -1    0    0  501  502  0.00000000000E+00  0.00000000000E+00  0.26872669646E+02  0.26872669646E+02  0.00000000000E+00 0. -1.
         -1   -1    0    0    0  501 -0.00000000000E+00 -0.00000000000E+00 -0.28591292399E+03  0.28591292399E+03  0.00000000000E+00 0.  1.
         24    2    1    2    0    0 -0.46398713144E+02  0.26840267892E+02 -0.23001184224E+03  0.25182749925E+03  0.87397947606E+02 0.  0.
        -13    1    3    3    0    0 -0.18628586037E+01  0.34912670129E+02 -0.18397441921E+03  0.18726705984E+03  0.00000000000E+00 0.  1.
         14    1    3    3    0    0 -0.44535854540E+02 -0.80724022370E+01 -0.46037423034E+02  0.64560439412E+02  0.00000000000E+00 0. -1.
         -2    1    1    2    0  502  0.46398713144E+02 -0.26840267892E+02 -0.29028412104E+02  0.60958094386E+02  0.00000000000E+00 0.  1.
<mgrwt>
<rscale>  1 0.10252630E+03</rscale>
<asrwt>0</asrwt>
<pdfrwt beam="1">  1       21 0.41342566E-02 0.10252630E+03</pdfrwt>
<pdfrwt beam="2">  1       -1 0.43986607E-01 0.10252630E+03</pdfrwt>
<totfact> 0.17120384E+05</totfact>
</mgrwt>
</event>
<event>
 6    2  0.7993170E+000  0.1065473E+03  0.7546771E-02  0.1267101E+00
         21   -1    0    0  501  502  0.00000000000E+00  0.00000000000E+00  0.13575046666E+02  0.13575046666E+02  0.00000000000E+00 0.  1.
          2   -1    0    0  502    0 -0.00000000000E+00 -0.00000000000E+00 -0.11244422689E+04  0.11244422689E+04  0.00000000000E+00 0. -1.
         24    2    1    2    0    0 -0.62254704489E+02 -0.30953485704E+02 -0.22001674169E+03  0.24445794697E+03  0.80737566891E+02 0.  0.
        -11    1    3    3    0    0 -0.64957514023E+02 -0.34332422011E+01 -0.87178542157E+02  0.10877207359E+03  0.00000000000E+00 0.  1.
         12    1    3    3    0    0  0.27028095339E+01 -0.27520243503E+02 -0.13283819953E+03  0.13568587339E+03  0.00000000000E+00 0. -1.
          1    1    1    2  501    0  0.62254704489E+02  0.30953485704E+02 -0.89085048055E+03  0.89355936859E+03  0.00000000000E+00 0. -1.
<mgrwt>
<rscale>  1 0.10654727E+03</rscale>
<asrwt>0</asrwt>
<pdfrwt beam="1">  1       21 0.20884679E-02 0.10654727E+03</pdfrwt>
<pdfrwt beam="2">  1        2 0.17299118E+00 0.10654727E+03</pdfrwt>
<totfact> 0.31763055E+05</totfact>
</mgrwt>
</event>
<event>
 6    2  0.7993170E+000  0.7638864E+02  0.7546771E-02  0.1339624E+00
         21   -1    0    0  501  502  0.00000000000E+00  0.00000000000E+00  0.15268724564E+02  0.15268724564E+02  0.00000000000E+00 0.  1.
          2   -1    0    0  502    0 -0.00000000000E+00 -0.00000000000E+00 -0.26023358205E+03  0.26023358205E+03  0.00000000000E+00 0. -1.
         24    2    1    2    0    0  0.44968744280E+01 -0.35226668085E+02 -0.21775214183E+03  0.23076225836E+03  0.67631979048E+02 0.  0.
        -11    1    3    3    0    0  0.45487918036E+01 -0.31916401461E+01  0.39116756597E+01  0.67955338393E+01  0.00000000000E+00 0.  1.
         12    1    3    3    0    0 -0.51917375587E-01 -0.32035027938E+02 -0.22166381749E+03  0.22396672453E+03  0.00000000000E+00 0. -1.
          1    1    1    2  501    0 -0.44968744280E+01  0.35226668085E+02 -0.27212715656E+02  0.44740048249E+02  0.00000000000E+00 0. -1.
<mgrwt>
<rscale>  1 0.76388642E+02</rscale>
<asrwt>0</asrwt>
<pdfrwt beam="1">  1       21 0.23490349E-02 0.76388642E+02</pdfrwt>
<pdfrwt beam="2">  1        2 0.40035930E-01 0.76388642E+02</pdfrwt>
<totfact> 0.13633667E+06</totfact>
</mgrwt>
</event>
<event>
 6    2  0.7993170E+000  0.9670856E+02  0.7546771E-02  0.1287374E+00
         -3   -1    0    0    0  501 -0.00000000000E+00  0.00000000000E+00  0.58402852359E+01  0.58402852359E+01  0.00000000000E+00 0.  1.
         21   -1    0    0  501  502  0.00000000000E+00 -0.00000000000E+00 -0.98428784461E+03  0.98428784461E+03  0.00000000000E+00 0.  1.
         24    2    1    2    0    0 -0.53177887863E+02  0.13598177099E+02 -0.61311250829E+03  0.62069275292E+03  0.79622531488E+02 0.  0.
        -11    1    3    3    0    0 -0.52501852394E+02  0.41544349637E+02 -0.37327165397E+03  0.37922830214E+03  0.00000000000E+00 0.  1.
         12    1    3    3    0    0 -0.67603546873E+00 -0.27946172538E+02 -0.23984085433E+03  0.24146445078E+03  0.00000000000E+00 0. -1.
         -4    1    1    2    0  502  0.53177887863E+02 -0.13598177099E+02 -0.36533505107E+03  0.36943537692E+03  0.00000000000E+00 0.  1.
<mgrwt>
<rscale>  1 0.96708561E+02</rscale>
<asrwt>0</asrwt>
<pdfrwt beam="1">  1       21 0.15142901E+00 0.96708561E+02</pdfrwt>
<pdfrwt beam="2">  1       -3 0.89850479E-03 0.96708561E+02</pdfrwt>
<totfact> 0.44367784E+04</totfact>
</mgrwt>
</event>
<event>
 6    2  0.7993170E+000  0.1501175E+03  0.7546771E-02  0.1200329E+00
         21   -1    0    0  501  502  0.00000000000E+00  0.00000000000E+00  0.27993898773E+03  0.27993898773E+03  0.00000000000E+00 0.  1.
          2   -1    0    0  502    0 -0.00000000000E+00 -0.00000000000E+00 -0.32439558318E+03  0.32439558318E+03  0.00000000000E+00 0. -1.
         24    2    1    2    0    0  0.46646194176E+02  0.11805753310E+03  0.24552813119E+03  0.28778348461E+03  0.80136273045E+02 0.  0.
        -13    1    3    3    0    0  0.20478072256E+02  0.11570222820E+03  0.22708272252E+03  0.25568128582E+03  0.00000000000E+00 0.  1.
         14    1    3    3    0    0  0.26168121921E+02  0.23553049001E+01  0.18445408668E+02  0.32102198787E+02  0.00000000000E+00 0. -1.
          1    1    1    2  501    0 -0.46646194176E+02 -0.11805753310E+03 -0.28998472664E+03  0.31655108630E+03  0.00000000000E+00 0. -1.
<mgrwt>
<rscale>  1 0.15011752E+03</rscale>
<asrwt>0</asrwt>
<pdfrwt beam="1">  1       21 0.43067536E-01 0.15011752E+03</pdfrwt>
<pdfrwt beam="2">  1        2 0.49907013E-01 0.15011752E+03</pdfrwt>
<totfact> 0.65440131E+03</totfact>
</mgrwt>
</event>
<event>
 6    2  0.7993170E+000  0.7589305E+02  0.7546771E-02  0.1341128E+00
         21   -1    0    0  501  502  0.00000000000E+00  0.00000000000E+00  0.11229631297E+02  0.11229631297E+02  0.00000000000E+00 0. -1.
          2   -1    0    0  502    0 -0.00000000000E+00 -0.00000000000E+00 -0.78349596435E+03  0.78349596435E+03  0.00000000000E+00 0. -1.
         24    2    1    2    0    0  0.13563899273E+02  0.16345914943E+02 -0.76958297505E+03  0.77331604850E+03  0.72860051425E+02 0.  0.
        -13    1    3    3    0    0  0.47951432535E+00 -0.11338365852E+02 -0.19160533019E+02  0.22269137832E+02  0.00000000000E+00 0.  1.
         14    1    3    3    0    0  0.13084384948E+02  0.27684280795E+02 -0.75042244203E+03  0.75104691067E+03  0.00000000000E+00 0. -1.
          1    1    1    2  501    0 -0.13563899273E+02 -0.16345914943E+02 -0.26833580108E+01  0.21409547147E+02  0.00000000000E+00 0. -1.
<mgrwt>
<rscale>  1 0.75893052E+02</rscale>
<asrwt>0</asrwt>
<pdfrwt beam="1">  1       21 0.17276348E-02 0.75893052E+02</pdfrwt>
<pdfrwt beam="2">  1        2 0.12053789E+00 0.75893052E+02</pdfrwt>
<totfact> 0.67687052E+05</totfact>
</mgrwt>
</event>
<event>
 6    2  0.7993170E+000  0.9043989E+02  0.7546771E-02  0.1301790E+00
         21   -1    0    0  501  502  0.00000000000E+00  0.00000000000E+00  0.16952745720E+01  0.16952745720E+01  0.00000000000E+00 0. -1.
          2   -1    0    0  502    0 -0.00000000000E+00 -0.00000000000E+00 -0.24856565169E+04  0.24856565169E+04  0.00000000000E+00 0. -1.
         24    2    1    2    0    0  0.15616006603E+02 -0.28991162819E+02 -0.21120900141E+04  0.21140254495E+04  0.84231980447E+02 0.  0.
        -13    1    3    3    0    0  0.12636894466E+02  0.27294504207E+02 -0.10600369674E+04  0.10604636030E+04  0.00000000000E+00 0.  1.
         14    1    3    3    0    0  0.29791121371E+01 -0.56285667025E+02 -0.10520530467E+04  0.10535618466E+04  0.00000000000E+00 0. -1.
          1    1    1    2  501    0 -0.15616006603E+02  0.28991162819E+02 -0.37187122824E+03  0.37332634193E+03  0.00000000000E+00 0. -1.
<mgrwt>
<rscale>  1 0.90439890E+02</rscale>
<asrwt>0</asrwt>
<pdfrwt beam="1">  1       21 0.26080916E-03 0.90439890E+02</pdfrwt>
<pdfrwt beam="2">  1        2 0.38241208E+00 0.90439890E+02</pdfrwt>
<totfact> 0.15894215E+06</totfact>
</mgrwt>
</event>
<event>
 6    2  0.7993170E+000  0.8092640E+02  0.7546771E-02  0.1326443E+00
         21   -1    0    0  501  502  0.00000000000E+00  0.00000000000E+00  0.17738232065E+03  0.17738232065E+03  0.00000000000E+00 0. -1.
         -1   -1    0    0    0  501 -0.00000000000E+00 -0.00000000000E+00 -0.14826773556E+02  0.14826773556E+02  0.00000000000E+00 0.  1.
         24    2    1    2    0    0  0.14511361903E+01  0.20941443775E+02  0.13723198399E+03  0.15931634862E+03  0.78156456199E+02 0.  0.
        -13    1    3    3    0    0  0.58928435353E+01 -0.40101575093E+01 -0.86732155712E+01  0.11226381275E+02  0.00000000000E+00 0.  1.
         14    1    3    3    0    0 -0.44417073449E+01  0.24951601285E+02  0.14590519956E+03  0.14808996735E+03  0.00000000000E+00 0. -1.
         -2    1    1    2    0  502 -0.14511361903E+01 -0.20941443775E+02  0.25323563111E+02  0.32892745587E+02  0.00000000000E+00 0.  1.
<mgrwt>
<rscale>  1 0.80926396E+02</rscale>
<asrwt>0</asrwt>
<pdfrwt beam="1">  1       21 0.27289586E-01 0.80926396E+02</pdfrwt>
<pdfrwt beam="2">  1       -1 0.22810422E-02 0.80926396E+02</pdfrwt>
<totfact> 0.58150422E+05</totfact>
</mgrwt>
</event>
<event>
 6    2  0.7993170E+000  0.8702370E+02  0.7546771E-02  0.1310224E+00
         -1   -1    0    0    0  501 -0.00000000000E+00  0.00000000000E+00  0.11201759767E+03  0.11201759767E+03  0.00000000000E+00 0.  1.
         21   -1    0    0  501  502  0.00000000000E+00 -0.00000000000E+00 -0.31750200349E+02  0.31750200349E+02  0.00000000000E+00 0. -1.
         24    2    1    2    0    0  0.26232869803E+02 -0.17038975117E+02  0.66824579169E+02  0.10972077919E+03  0.81207357263E+02 0.  0.
        -13    1    3    3    0    0 -0.24844811990E+02 -0.21775438908E+01  0.46516078918E+02  0.52780223362E+02  0.00000000000E+00 0.  1.
         14    1    3    3    0    0  0.51077681793E+02 -0.14861431226E+02  0.20308500251E+02  0.56940555827E+02  0.00000000000E+00 0. -1.
         -2    1    1    2    0  502 -0.26232869803E+02  0.17038975117E+02  0.13442818149E+02  0.34047018826E+02  0.00000000000E+00 0.  1.
<mgrwt>
<rscale>  1 0.87023704E+02</rscale>
<asrwt>0</asrwt>
<pdfrwt beam="1">  1       21 0.48846463E-02 0.87023704E+02</pdfrwt>
<pdfrwt beam="2">  1       -1 0.17233476E-01 0.87023704E+02</pdfrwt>
<totfact> 0.60170900E+05</totfact>
</mgrwt>
</event>
<event>
 6    2  0.7993170E+000  0.8356567E+02  0.7546771E-02  0.1319227E+00
         -3   -1    0    0    0  501 -0.00000000000E+00  0.00000000000E+00  0.66501987403E+02  0.66501987403E+02  0.00000000000E+00 0.  1.
         21   -1    0    0  501  502  0.00000000000E+00 -0.00000000000E+00 -0.52206106480E+02  0.52206106480E+02  0.00000000000E+00 0. -1.
         24    2    1    2    0    0 -0.23467499029E+01 -0.22530663461E+02  0.32484050778E+02  0.89657318441E+02  0.80436827162E+02 0.  0.
        -13    1    3    3    0    0  0.33170846271E+02 -0.18901366643E+02  0.37606325383E+02  0.53589200518E+02  0.00000000000E+00 0.  1.
         14    1    3    3    0    0 -0.35517596174E+02 -0.36292968180E+01 -0.51222746048E+01  0.36068117923E+02  0.00000000000E+00 0. -1.
         -4    1    1    2    0  502  0.23467499029E+01  0.22530663461E+02 -0.18188169855E+02  0.29050775442E+02  0.00000000000E+00 0.  1.
<mgrwt>
<rscale>  1 0.83565670E+02</rscale>
<asrwt>0</asrwt>
<pdfrwt beam="1">  1       21 0.80317087E-02 0.83565670E+02</pdfrwt>
<pdfrwt beam="2">  1       -3 0.10231075E-01 0.83565670E+02</pdfrwt>
<totfact> 0.36874890E+05</totfact>
</mgrwt>
</event>
<event>
 6    2  0.7993170E+000  0.8849417E+02  0.7546771E-02  0.1306540E+00
         21   -1    0    0  501  502  0.00000000000E+00  0.00000000000E+00  0.80825911479E+01  0.80825911479E+01  0.00000000000E+00 0. -1.
         -1   -1    0    0    0  501 -0.00000000000E+00 -0.00000000000E+00 -0.47901120242E+03  0.47901120242E+03  0.00000000000E+00 0.  1.
         24    2    1    2    0    0  0.34637377880E+02  0.63468136533E+01 -0.35959693499E+03  0.37032576655E+03  0.81186130135E+02 0.  0.
        -13    1    3    3    0    0 -0.81976102757E+01  0.28919371207E+02 -0.23042716162E+03  0.23237944758E+03  0.00000000000E+00 0.  1.
         14    1    3    3    0    0  0.42834988155E+02 -0.22572557554E+02 -0.12916977337E+03  0.13794631897E+03  0.00000000000E+00 0. -1.
         -2    1    1    2    0  502 -0.34637377880E+02 -0.63468136533E+01 -0.11133167628E+03  0.11676802701E+03  0.00000000000E+00 0.  1.
<mgrwt>
<rscale>  1 0.88494168E+02</rscale>
<asrwt>0</asrwt>
<pdfrwt beam="1">  1       21 0.12434753E-02 0.88494168E+02</pdfrwt>
<pdfrwt beam="2">  1       -1 0.73694044E-01 0.88494168E+02</pdfrwt>
<totfact> 0.44737429E+05</totfact>
</mgrwt>
</event>
<event>
 6    2  0.7993170E+000  0.8717798E+02  0.7546771E-02  0.1309833E+00
         21   -1    0    0  501  502  0.00000000000E+00  0.00000000000E+00  0.87507398801E+02  0.87507398801E+02  0.00000000000E+00 0. -1.
          4   -1    0    0  502    0 -0.00000000000E+00 -0.00000000000E+00 -0.12039991713E+03  0.12039991713E+03  0.00000000000E+00 0. -1.
         24    2    1    2    0    0 -0.23729509936E+02  0.22926895945E+02 -0.10027946157E+03  0.13287577376E+03  0.80692432359E+02 0.  0.
        -13    1    3    3    0    0  0.78941857093E+01 -0.29596822515E+01  0.11270710412E+02  0.14075041749E+02  0.00000000000E+00 0.  1.
         14    1    3    3    0    0 -0.31623695645E+02  0.25886578197E+02 -0.11155017199E+03  0.11880073201E+03  0.00000000000E+00 0. -1.
          3    1    1    2  501    0  0.23729509936E+02 -0.22926895945E+02  0.67386943248E+02  0.75031542166E+02  0.00000000000E+00 0. -1.
<mgrwt>
<rscale>  1 0.87177984E+02</rscale>
<asrwt>0</asrwt>
<pdfrwt beam="1">  1       21 0.13462677E-01 0.87177984E+02</pdfrwt>
<pdfrwt beam="2">  1        4 0.18523064E-01 0.87177984E+02</pdfrwt>
<totfact> 0.47210041E+04</totfact>
</mgrwt>
</event>
<event>
 6    2  0.7993170E+000  0.8994980E+02  0.7546771E-02  0.1302973E+00
          2   -1    0    0  502    0 -0.00000000000E+00  0.00000000000E+00  0.14070903279E+03  0.14070903279E+03  0.00000000000E+00 0. -1.
         21   -1    0    0  501  502  0.00000000000E+00 -0.00000000000E+00 -0.33248343269E+02  0.33248343269E+02  0.00000000000E+00 0.  1.
         24    2    1    2    0    0  0.22988208808E+02  0.32042746029E+02  0.98740294415E+02  0.13356875627E+03  0.80844119105E+02 0.  0.
        -11    1    3    3    0    0 -0.24585813085E+02  0.22282955045E+02  0.14242104270E+02  0.36108583808E+02  0.00000000000E+00 0.  1.
         12    1    3    3    0    0  0.47574021893E+02  0.97597909842E+01  0.84498190145E+02  0.97460172465E+02  0.00000000000E+00 0. -1.
          1    1    1    2  501    0 -0.22988208808E+02 -0.32042746029E+02  0.87203951023E+01  0.40388619783E+02  0.00000000000E+00 0. -1.
<mgrwt>
<rscale>  1 0.89949802E+02</rscale>
<asrwt>0</asrwt>
<pdfrwt beam="1">  1       21 0.51151298E-02 0.89949802E+02</pdfrwt>
<pdfrwt beam="2">  1        2 0.21647543E-01 0.89949802E+02</pdfrwt>
<totfact> 0.75243886E+05</totfact>
</mgrwt>
</event>
<event>
 6    2  0.7993170E+000  0.8535637E+02  0.7546771E-02  0.1314503E+00
         -1   -1    0    0    0  501 -0.00000000000E+00  0.00000000000E+00  0.12020500633E+04  0.12020500633E+04  0.00000000000E+00 0.  1.
         21   -1    0    0  501  502  0.00000000000E+00 -0.00000000000E+00 -0.29801672296E+01  0.29801672296E+01  0.00000000000E+00 0.  1.
         24    2    1    2    0    0 -0.14830281282E+02  0.18253767596E+02  0.10956503765E+04  0.10989701801E+04  0.82052250981E+02 0.  0.
        -11    1    3    3    0    0 -0.40823008318E+02  0.33875034667E+02  0.80377934245E+03  0.80552794323E+03  0.00000000000E+00 0.  1.
         12    1    3    3    0    0  0.25992727036E+02 -0.15621267071E+02  0.29187103409E+03  0.29344223688E+03  0.00000000000E+00 0. -1.
         -2    1    1    2    0  502  0.14830281282E+02 -0.18253767596E+02  0.10341951951E+03  0.10606005039E+03  0.00000000000E+00 0.  1.
<mgrwt>
<rscale>  1 0.85356366E+02</rscale>
<asrwt>0</asrwt>
<pdfrwt beam="1">  1       21 0.45848823E-03 0.85356366E+02</pdfrwt>
<pdfrwt beam="2">  1       -1 0.18493039E+00 0.85356366E+02</pdfrwt>
<totfact> 0.24342279E+05</totfact>
</mgrwt>
</event>
<event>
 6    2  0.7993170E+000  0.8631273E+02  0.7546771E-02  0.1312035E+00
         21   -1    0    0  501  502  0.00000000000E+00  0.00000000000E+00  0.49930648406E+02  0.49930648406E+02  0.00000000000E+00 0.  1.
          4   -1    0    0  502    0 -0.00000000000E+00 -0.00000000000E+00 -0.79636388377E+02  0.79636388377E+02  0.00000000000E+00 0. -1.
         24    2    1    2    0    0 -0.66093929449E+00 -0.33209503233E+02 -0.39521899330E+02  0.94930857283E+02  0.79665420304E+02 0.  0.
        -11    1    3    3    0    0  0.35842817107E+02 -0.10734010056E+01 -0.73087790057E+01  0.36596147043E+02  0.00000000000E+00 0.  1.
         12    1    3    3    0    0 -0.36503756401E+02 -0.32136102227E+02 -0.32213120325E+02  0.58334710240E+02  0.00000000000E+00 0. -1.
          3    1    1    2  501    0  0.66093929449E+00  0.33209503233E+02  0.98161593593E+01  0.34636179499E+02  0.00000000000E+00 0. -1.
<mgrwt>
<rscale>  1 0.86312729E+02</rscale>
<asrwt>0</asrwt>
<pdfrwt beam="1">  1       21 0.76816383E-02 0.86312729E+02</pdfrwt>
<pdfrwt beam="2">  1        4 0.12251752E-01 0.86312729E+02</pdfrwt>
<totfact> 0.25483046E+05</totfact>
</mgrwt>
</event>
<event>
 6    2  0.7993170E+000  0.8105310E+02  0.7546771E-02  0.1326089E+00
         21   -1    0    0  501  502  0.00000000000E+00  0.00000000000E+00  0.49265613614E+02  0.49265613614E+02  0.00000000000E+00 0. -1.
          2   -1    0    0  502    0 -0.00000000000E+00 -0.00000000000E+00 -0.17298661276E+03  0.17298661276E+03  0.00000000000E+00 0. -1.
         24    2    1    2    0    0 -0.20063540805E+02 -0.13829565902E+02 -0.15952923169E+03  0.17893904039E+03  0.77303310724E+02 0.  0.
        -11    1    3    3    0    0 -0.47671458024E+02  0.11810779884E+01 -0.76311019238E+02  0.89985190518E+02  0.00000000000E+00 0.  1.
         12    1    3    3    0    0  0.27607917219E+02 -0.15010643891E+02 -0.83218212453E+02  0.88953849872E+02  0.00000000000E+00 0. -1.
          1    1    1    2  501    0  0.20063540805E+02  0.13829565902E+02  0.35808232542E+02  0.43313185988E+02  0.00000000000E+00 0. -1.
<mgrwt>
<rscale>  1 0.81053096E+02</rscale>
<asrwt>0</asrwt>
<pdfrwt beam="1">  1       21 0.75793252E-02 0.81053096E+02</pdfrwt>
<pdfrwt beam="2">  1        2 0.26613325E-01 0.81053096E+02</pdfrwt>
<totfact> 0.30708329E+05</totfact>
</mgrwt>
</event>
<event>
 6    2  0.7993170E+000  0.9217295E+02  0.7546771E-02  0.1297673E+00
         21   -1    0    0  501  502  0.00000000000E+00  0.00000000000E+00  0.22955159532E+02  0.22955159532E+02  0.00000000000E+00 0. -1.
          4   -1    0    0  502    0 -0.00000000000E+00 -0.00000000000E+00 -0.34528059938E+03  0.34528059938E+03  0.00000000000E+00 0. -1.
         24    2    1    2    0    0 -0.30118101862E+02 -0.34357901065E+02 -0.30621843451E+03  0.31978990206E+03  0.80051773248E+02 0.  0.
        -11    1    3    3    0    0  0.76299185459E+01 -0.33427188684E+02 -0.48940748177E+02  0.59756082807E+02  0.00000000000E+00 0.  1.
         12    1    3    3    0    0 -0.37748020408E+02 -0.93071238125E+00 -0.25727768633E+03  0.26003381925E+03  0.00000000000E+00 0. -1.
          3    1    1    2  501    0  0.30118101862E+02  0.34357901065E+02 -0.16107005340E+02  0.48445856855E+02  0.00000000000E+00 0. -1.
<mgrwt>
<rscale>  1 0.92172945E+02</rscale>
<asrwt>0</asrwt>
<pdfrwt beam="1">  1       21 0.35315632E-02 0.92172945E+02</pdfrwt>
<pdfrwt beam="2">  1        4 0.53120090E-01 0.92172945E+02</pdfrwt>
<totfact> 0.62915994E+04</totfact>
</mgrwt>
</event>
<event>
 6    2  0.7993170E+000  0.8707163E+02  0.7546771E-02  0.1310102E+00
          2   -1    0    0  502    0 -0.00000000000E+00  0.00000000000E+00  0.65402280608E+02  0.65402280608E+02  0.00000000000E+00 0. -1.
         21   -1    0    0  501  502  0.00000000000E+00 -0.00000000000E+00 -0.84664350097E+02  0.84664350097E+02  0.00000000000E+00 0. -1.
         24    2    1    2    0    0 -0.22673849394E+02  0.25984274370E+02  0.28087364271E+02  0.91489716837E+02  0.79951124410E+02 0.  0.
        -11    1    3    3    0    0 -0.12116568975E+02  0.16182617060E+01 -0.27384724837E+02  0.29989217547E+02  0.00000000000E+00 0.  1.
         12    1    3    3    0    0 -0.10557280419E+02  0.24366012664E+02  0.55472089108E+02  0.61500499290E+02  0.00000000000E+00 0. -1.
          1    1    1    2  501    0  0.22673849394E+02 -0.25984274370E+02 -0.47349433760E+02  0.58576913868E+02  0.00000000000E+00 0. -1.
<mgrwt>
<rscale>  1 0.87071627E+02</rscale>
<asrwt>0</asrwt>
<pdfrwt beam="1">  1       21 0.13025285E-01 0.87071627E+02</pdfrwt>
<pdfrwt beam="2">  1        2 0.10061889E-01 0.87071627E+02</pdfrwt>
<totfact> 0.36788568E+05</totfact>
</mgrwt>
</event>
<event>
 6    2  0.7993170E+000  0.8473896E+02  0.7546771E-02  0.1316117E+00
          2   -1    0    0  502    0 -0.00000000000E+00  0.00000000000E+00  0.66304667354E+02  0.66304667354E+02  0.00000000000E+00 0. -1.
         21   -1    0    0  501  502  0.00000000000E+00 -0.00000000000E+00 -0.25874286448E+03  0.25874286448E+03  0.00000000000E+00 0. -1.
         24    2    1    2    0    0  0.38552287571E+02 -0.47236426075E+02  0.33429829486E+02  0.91094706951E+02  0.58848392585E+02 0.  0.
        -13    1    3    3    0    0  0.10439719508E+02 -0.65262412429E+01 -0.16644041502E+02  0.20702745849E+02  0.00000000000E+00 0.  1.
         14    1    3    3    0    0  0.28112568062E+02 -0.40710184832E+02  0.50073870988E+02  0.70391961102E+02  0.00000000000E+00 0. -1.
          1    1    1    2  501    0 -0.38552287571E+02  0.47236426075E+02 -0.22586802661E+03  0.23395282488E+03  0.00000000000E+00 0. -1.
<mgrwt>
<rscale>  1 0.84738965E+02</rscale>
<asrwt>0</asrwt>
<pdfrwt beam="1">  1       21 0.39806593E-01 0.84738965E+02</pdfrwt>
<pdfrwt beam="2">  1        2 0.10200718E-01 0.84738965E+02</pdfrwt>
<totfact> 0.45390928E+04</totfact>
</mgrwt>
</event>
<event>
 6    2  0.7993170E+000  0.8496872E+02  0.7546771E-02  0.1315514E+00
         -1   -1    0    0    0  501 -0.00000000000E+00  0.00000000000E+00  0.18957872731E+02  0.18957872731E+02  0.00000000000E+00 0.  1.
         21   -1    0    0  501  502  0.00000000000E+00 -0.00000000000E+00 -0.16248099351E+03  0.16248099351E+03  0.00000000000E+00 0. -1.
         24    2    1    2    0    0  0.13171861867E+02 -0.21725086676E+02 -0.11816890806E+03  0.14554578281E+03  0.81081482002E+02 0.  0.
        -11    1    3    3    0    0 -0.13819873419E+02 -0.17714416356E+02  0.17744250489E+01  0.22537480614E+02  0.00000000000E+00 0.  1.
         12    1    3    3    0    0  0.26991735286E+02 -0.40106703199E+01 -0.11994333311E+03  0.12300830219E+03  0.00000000000E+00 0. -1.
         -2    1    1    2    0  502 -0.13171861867E+02  0.21725086676E+02 -0.25354212718E+02  0.35893083438E+02  0.00000000000E+00 0.  1.
<mgrwt>
<rscale>  1 0.84968724E+02</rscale>
<asrwt>0</asrwt>
<pdfrwt beam="1">  1       21 0.24997075E-01 0.84968724E+02</pdfrwt>
<pdfrwt beam="2">  1       -1 0.29165960E-02 0.84968724E+02</pdfrwt>
<totfact> 0.48489939E+05</totfact>
</mgrwt>
</event>
<event>
 6    2  0.7993170E+000  0.9406409E+02  0.7546771E-02  0.1293298E+00
         21   -1    0    0  501  502  0.00000000000E+00  0.00000000000E+00  0.13422802216E+03  0.13422802216E+03  0.00000000000E+00 0.  1.
         -1   -1    0    0    0  501 -0.00000000000E+00 -0.00000000000E+00 -0.39304505336E+02  0.39304505336E+02  0.00000000000E+00 0.  1.
         24    2    1    2    0    0 -0.45219999144E+02  0.13961256666E+02  0.43466969241E+02  0.10362157485E+03  0.81291379308E+02 0.  0.
        -11    1    3    3    0    0 -0.34839564389E+02 -0.29524399603E+02  0.36314152524E+02  0.58345549035E+02  0.00000000000E+00 0.  1.
         12    1    3    3    0    0 -0.10380434755E+02  0.43485656269E+02  0.71528167174E+01  0.45276025818E+02  0.00000000000E+00 0. -1.
         -2    1    1    2    0  502  0.45219999144E+02 -0.13961256666E+02  0.51456547585E+02  0.69910952644E+02  0.00000000000E+00 0.  1.
<mgrwt>
<rscale>  1 0.94064092E+02</rscale>
<asrwt>0</asrwt>
<pdfrwt beam="1">  1       21 0.20650465E-01 0.94064092E+02</pdfrwt>
<pdfrwt beam="2">  1       -1 0.60468470E-02 0.94064092E+02</pdfrwt>
<totfact> 0.24160542E+05</totfact>
</mgrwt>
</event>
<event>
 6    2  0.7993170E+000  0.7111381E+02  0.7546771E-02  0.1356346E+00
         21   -1    0    0  501  502  0.00000000000E+00  0.00000000000E+00  0.27503962006E+02  0.27503962006E+02  0.00000000000E+00 0. -1.
         -1   -1    0    0    0  501 -0.00000000000E+00 -0.00000000000E+00 -0.88941974276E+02  0.88941974276E+02  0.00000000000E+00 0.  1.
         24    2    1    2    0    0  0.47988897259E+01 -0.26599637998E+02 -0.37784325879E+02  0.80528434085E+02  0.65776920952E+02 0.  0.
        -11    1    3    3    0    0  0.26252854900E+02 -0.21261894616E+01 -0.40016019154E+02  0.47906313372E+02  0.00000000000E+00 0.  1.
         12    1    3    3    0    0 -0.21453965174E+02 -0.24473448536E+02  0.22316932747E+01  0.32622120713E+02  0.00000000000E+00 0. -1.
         -2    1    1    2    0  502 -0.47988897259E+01  0.26599637998E+02 -0.23653686390E+02  0.35917502197E+02  0.00000000000E+00 0.  1.
<mgrwt>
<rscale>  1 0.71113806E+02</rscale>
<asrwt>0</asrwt>
<pdfrwt beam="1">  1       21 0.42313788E-02 0.71113806E+02</pdfrwt>
<pdfrwt beam="2">  1       -1 0.13683381E-01 0.71113806E+02</pdfrwt>
<totfact> 0.10618490E+06</totfact>
</mgrwt>
</event>
<event>
 6    2  0.7993170E+000  0.9401557E+02  0.7546771E-02  0.1293409E+00
          2   -1    0    0  502    0 -0.00000000000E+00  0.00000000000E+00  0.16768338287E+04  0.16768338287E+04  0.00000000000E+00 0. -1.
         21   -1    0    0  501  502  0.00000000000E+00 -0.00000000000E+00 -0.35146222769E+01  0.35146222769E+01  0.00000000000E+00 0.  1.
         24    2    1    2    0    0  0.43040181667E+02  0.23910541906E+02  0.77512661254E+03  0.78080739747E+03  0.80092166981E+02 0.  0.
        -11    1    3    3    0    0  0.63025202805E+02  0.29327204830E+02  0.48680037680E+03  0.49173861755E+03  0.00000000000E+00 0.  1.
         12    1    3    3    0    0 -0.19985021139E+02 -0.54166629241E+01  0.28832623574E+03  0.28906877992E+03  0.00000000000E+00 0. -1.
          1    1    1    2  501    0 -0.43040181667E+02 -0.23910541906E+02  0.89819259386E+03  0.89954105349E+03  0.00000000000E+00 0. -1.
<mgrwt>
<rscale>  1 0.94015565E+02</rscale>
<asrwt>0</asrwt>
<pdfrwt beam="1">  1       21 0.54071246E-03 0.94015565E+02</pdfrwt>
<pdfrwt beam="2">  1        2 0.25797380E+00 0.94015565E+02</pdfrwt>
<totfact> 0.13523020E+06</totfact>
</mgrwt>
</event>
<event>
 6    2  0.7993170E+000  0.8648609E+02  0.7546771E-02  0.1311591E+00
         21   -1    0    0  501  502  0.00000000000E+00  0.00000000000E+00  0.62815892565E+02  0.62815892565E+02  0.00000000000E+00 0.  1.
         -1   -1    0    0    0  501 -0.00000000000E+00 -0.00000000000E+00 -0.74404065440E+02  0.74404065440E+02  0.00000000000E+00 0.  1.
         24    2    1    2    0    0 -0.13460135827E+02 -0.29470564937E+02 -0.38912725759E+02  0.94836934935E+02  0.80188244448E+02 0.  0.
        -11    1    3    3    0    0  0.12023411591E+01 -0.56026214846E+02 -0.22924638137E+02  0.60546852998E+02  0.00000000000E+00 0.  1.
         12    1    3    3    0    0 -0.14662476986E+02  0.26555649909E+02 -0.15988087622E+02  0.34290081937E+02  0.00000000000E+00 0. -1.
         -2    1    1    2    0  502  0.13460135827E+02  0.29470564937E+02  0.27324552884E+02  0.42383023070E+02  0.00000000000E+00 0.  1.
<mgrwt>
<rscale>  1 0.86486091E+02</rscale>
<asrwt>0</asrwt>
<pdfrwt beam="1">  1       21 0.96639835E-02 0.86486091E+02</pdfrwt>
<pdfrwt beam="2">  1       -1 0.11446779E-01 0.86486091E+02</pdfrwt>
<totfact> 0.35615122E+05</totfact>
</mgrwt>
</event>
<event>
 6    2  0.7993170E+000  0.8877518E+02  0.7546771E-02  0.1305845E+00
          2   -1    0    0  502    0 -0.00000000000E+00  0.00000000000E+00  0.10778843415E+04  0.10778843415E+04  0.00000000000E+00 0. -1.
         21   -1    0    0  501  502  0.00000000000E+00 -0.00000000000E+00 -0.11700635223E+02  0.11700635223E+02  0.00000000000E+00 0. -1.
         24    2    1    2    0    0  0.15441337069E+02  0.35032637098E+02  0.10386270643E+04  0.10424141270E+04  0.80095647766E+02 0.  0.
        -13    1    3    3    0    0 -0.73036122932E+01 -0.10204852581E+02  0.30026262935E+02  0.32543174930E+02  0.00000000000E+00 0.  1.
         14    1    3    3    0    0  0.22744949362E+02  0.45237489679E+02  0.10086008014E+04  0.10098709521E+04  0.00000000000E+00 0. -1.
          1    1    1    2  501    0 -0.15441337069E+02 -0.35032637098E+02  0.27556641978E+02  0.47170849787E+02  0.00000000000E+00 0. -1.
<mgrwt>
<rscale>  1 0.88775184E+02</rscale>
<asrwt>0</asrwt>
<pdfrwt beam="1">  1       21 0.18000986E-02 0.88775184E+02</pdfrwt>
<pdfrwt beam="2">  1        2 0.16582828E+00 0.88775184E+02</pdfrwt>
<totfact> 0.42429653E+05</totfact>
</mgrwt>
</event>
<event>
 6    2  0.7993170E+000  0.9193270E+02  0.7546771E-02  0.1298238E+00
         21   -1    0    0  501  502  0.00000000000E+00  0.00000000000E+00  0.31683074554E+02  0.31683074554E+02  0.00000000000E+00 0. -1.
          2   -1    0    0  502    0 -0.00000000000E+00 -0.00000000000E+00 -0.33101735102E+03  0.33101735102E+03  0.00000000000E+00 0. -1.
         24    2    1    2    0    0 -0.35769807662E+02 -0.39601317970E+02 -0.29519134022E+03  0.30917559539E+03  0.74859053670E+02 0.  0.
        -11    1    3    3    0    0 -0.21820696655E+02 -0.43627963099E+02 -0.81439215532E+02  0.94930963300E+02  0.00000000000E+00 0.  1.
         12    1    3    3    0    0 -0.13949111008E+02  0.40266451291E+01 -0.21375212469E+03  0.21424463209E+03  0.00000000000E+00 0. -1.
          1    1    1    2  501    0  0.35769807662E+02  0.39601317970E+02 -0.41429362387E+01  0.53524830181E+02  0.00000000000E+00 0. -1.
<mgrwt>
<rscale>  1 0.91932701E+02</rscale>
<asrwt>0</asrwt>
<pdfrwt beam="1">  1       21 0.48743187E-02 0.91932701E+02</pdfrwt>
<pdfrwt beam="2">  1        2 0.50925751E-01 0.91932701E+02</pdfrwt>
<totfact> 0.32824887E+05</totfact>
</mgrwt>
</event>
<event>
 6    2  0.7993170E+000  0.8475446E+02  0.7546771E-02  0.1316076E+00
         21   -1    0    0  501  502  0.00000000000E+00  0.00000000000E+00  0.55560110114E+01  0.55560110114E+01  0.00000000000E+00 0. -1.
         -3   -1    0    0    0  501 -0.00000000000E+00 -0.00000000000E+00 -0.61733028517E+03  0.61733028517E+03  0.00000000000E+00 0.  1.
         24    2    1    2    0    0  0.10002562906E+02  0.25483647111E+02 -0.37085334567E+03  0.38041493433E+03  0.80211288053E+02 0.  0.
        -11    1    3    3    0    0  0.28871700553E+02  0.38425630259E+02 -0.33090928190E+03  0.33438160387E+03  0.00000000000E+00 0.  1.
         12    1    3    3    0    0 -0.18869137647E+02 -0.12941983148E+02 -0.39944063762E+02  0.46033330459E+02  0.00000000000E+00 0. -1.
         -4    1    1    2    0  502 -0.10002562906E+02 -0.25483647111E+02 -0.24092092849E+03  0.24247136186E+03  0.00000000000E+00 0.  1.
<mgrwt>
<rscale>  1 0.84754459E+02</rscale>
<asrwt>0</asrwt>
<pdfrwt beam="1">  1       21 0.85477083E-03 0.84754459E+02</pdfrwt>
<pdfrwt beam="2">  1       -3 0.94973900E-01 0.84754459E+02</pdfrwt>
<totfact> 0.21600714E+05</totfact>
</mgrwt>
</event>
<event>
 6    2  0.7993170E+000  0.1038960E+03  0.7546771E-02  0.1272310E+00
         21   -1    0    0  501  502  0.00000000000E+00  0.00000000000E+00  0.31222460202E+03  0.31222460202E+03  0.00000000000E+00 0.  1.
         -3   -1    0    0    0  501 -0.00000000000E+00 -0.00000000000E+00 -0.22355730860E+02  0.22355730860E+02  0.00000000000E+00 0.  1.
         24    2    1    2    0    0 -0.14238540003E+02  0.59549168109E+02  0.15674997000E+03  0.18805565479E+03  0.83937695698E+02 0.  0.
        -13    1    3    3    0    0 -0.18891581492E+02  0.76277733139E+02  0.91876323488E+02  0.12089848321E+03  0.00000000000E+00 0.  1.
         14    1    3    3    0    0  0.46530414891E+01 -0.16728565031E+02  0.64873646509E+02  0.67157171579E+02  0.00000000000E+00 0. -1.
         -4    1    1    2    0  502  0.14238540003E+02 -0.59549168109E+02  0.13311890116E+03  0.14652467809E+03  0.00000000000E+00 0.  1.
<mgrwt>
<rscale>  1 0.10389599E+03</rscale>
<asrwt>0</asrwt>
<pdfrwt beam="1">  1       21 0.48034551E-01 0.10389599E+03</pdfrwt>
<pdfrwt beam="2">  1       -3 0.34393434E-02 0.10389599E+03</pdfrwt>
<totfact> 0.79282432E+04</totfact>
</mgrwt>
</event>
<event>
 6    2  0.7993170E+000  0.8528185E+02  0.7546771E-02  0.1314697E+00
         21   -1    0    0  501  502  0.00000000000E+00  0.00000000000E+00  0.53495443402E+03  0.53495443402E+03  0.00000000000E+00 0.  1.
         -1   -1    0    0    0  501 -0.00000000000E+00 -0.00000000000E+00 -0.18550145103E+02  0.18550145103E+02  0.00000000000E+00 0.  1.
         24    2    1    2    0    0 -0.18241042033E+01 -0.29521007438E+02  0.82707352103E+02  0.11880025405E+03  0.79988605650E+02 0.  0.
        -13    1    3    3    0    0 -0.24866781931E+02 -0.23230213319E+02  0.14013206672E+01  0.34058234747E+02  0.00000000000E+00 0.  1.
         14    1    3    3    0    0  0.23042677728E+02 -0.62907941190E+01  0.81306031435E+02  0.84742019301E+02  0.00000000000E+00 0. -1.
         -2    1    1    2    0  502  0.18241042033E+01  0.29521007438E+02  0.43369693681E+03  0.43470432507E+03  0.00000000000E+00 0.  1.
<mgrwt>
<rscale>  1 0.85281852E+02</rscale>
<asrwt>0</asrwt>
<pdfrwt beam="1">  1       21 0.82300670E-01 0.85281852E+02</pdfrwt>
<pdfrwt beam="2">  1       -1 0.28538689E-02 0.85281852E+02</pdfrwt>
<totfact> 0.45039634E+04</totfact>
</mgrwt>
</event>
<event>
 6    2  0.7993170E+000  0.9007064E+02  0.7546771E-02  0.1302681E+00
         21   -1    0    0  501  502  0.00000000000E+00  0.00000000000E+00  0.92226831309E+01  0.92226831309E+01  0.00000000000E+00 0. -1.
          2   -1    0    0  502    0 -0.00000000000E+00 -0.00000000000E+00 -0.12241454956E+04  0.12241454956E+04  0.00000000000E+00 0. -1.
         24    2    1    2    0    0 -0.35390525300E+02 -0.18975610531E+02 -0.11685862320E+04  0.11720522610E+04  0.80623556542E+02 0.  0.
        -11    1    3    3    0    0  0.99218467839E+01  0.41991459196E+01 -0.23684092493E+02  0.26019456321E+02  0.00000000000E+00 0.  1.
         12    1    3    3    0    0 -0.45312372084E+02 -0.23174756451E+02 -0.11449021395E+04  0.11460328047E+04  0.00000000000E+00 0. -1.
          1    1    1    2  501    0  0.35390525300E+02  0.18975610531E+02 -0.46336580505E+02  0.61315917745E+02  0.00000000000E+00 0. -1.
<mgrwt>
<rscale>  1 0.90070644E+02</rscale>
<asrwt>0</asrwt>
<pdfrwt beam="1">  1       21 0.14188735E-02 0.90070644E+02</pdfrwt>
<pdfrwt beam="2">  1        2 0.18833018E+00 0.90070644E+02</pdfrwt>
<totfact> 0.51445121E+05</totfact>
</mgrwt>
</event>
<event>
 6    2  0.7993170E+000  0.8581058E+02  0.7546771E-02  0.1313326E+00
         21   -1    0    0  501  502  0.00000000000E+00  0.00000000000E+00  0.24061528717E+03  0.24061528717E+03  0.00000000000E+00 0. -1.
         -1   -1    0    0    0  501 -0.00000000000E+00 -0.00000000000E+00 -0.14866029971E+02  0.14866029971E+02  0.00000000000E+00 0.  1.
         24    2    1    2    0    0  0.17278731505E+02  0.27387945680E+02  0.14511841885E+03  0.16859066043E+03  0.79465723197E+02 0.  0.
        -13    1    3    3    0    0  0.42730390476E+02  0.68841920884E+01  0.41587038186E+02  0.60022996560E+02  0.00000000000E+00 0.  1.
         14    1    3    3    0    0 -0.25451658971E+02  0.20503753592E+02  0.10353138066E+03  0.10856766387E+03  0.00000000000E+00 0. -1.
         -2    1    1    2    0  502 -0.17278731505E+02 -0.27387945680E+02  0.80630838346E+02  0.86890656709E+02  0.00000000000E+00 0.  1.
<mgrwt>
<rscale>  1 0.85810578E+02</rscale>
<asrwt>0</asrwt>
<pdfrwt beam="1">  1       21 0.37017733E-01 0.85810578E+02</pdfrwt>
<pdfrwt beam="2">  1       -1 0.22870817E-02 0.85810578E+02</pdfrwt>
<totfact> 0.32481486E+05</totfact>
</mgrwt>
</event>
<event>
 6    2  0.7993170E+000  0.7986007E+02  0.7546771E-02  0.1329449E+00
         21   -1    0    0  501  502  0.00000000000E+00  0.00000000000E+00  0.12770064000E+01  0.12770064000E+01  0.00000000000E+00 0. -1.
          2   -1    0    0  502    0 -0.00000000000E+00 -0.00000000000E+00 -0.23832197715E+04  0.23832197715E+04  0.00000000000E+00 0. -1.
         24    2    1    2    0    0 -0.17325864991E+02 -0.13404214390E+02 -0.21599499386E+04  0.21614257722E+04  0.76796959339E+02 0.  0.
        -13    1    3    3    0    0  0.95076717721E+01 -0.43968755600E+01 -0.41995951946E+02  0.43282656077E+02  0.00000000000E+00 0.  1.
         14    1    3    3    0    0 -0.26833536763E+02 -0.90073388299E+01 -0.21179539866E+04  0.21181431161E+04  0.00000000000E+00 0. -1.
          1    1    1    2  501    0  0.17325864991E+02  0.13404214390E+02 -0.22199282651E+03  0.22307100570E+03  0.00000000000E+00 0. -1.
<mgrwt>
<rscale>  1 0.79860075E+02</rscale>
<asrwt>0</asrwt>
<pdfrwt beam="1">  1       21 0.19646260E-03 0.79860075E+02</pdfrwt>
<pdfrwt beam="2">  1        2 0.36664905E+00 0.79860075E+02</pdfrwt>
<totfact> 0.27296036E+06</totfact>
</mgrwt>
</event>
<event>
 6    2  0.7993170E+000  0.8829262E+02  0.7546771E-02  0.1307040E+00
         21   -1    0    0  501  502  0.00000000000E+00  0.00000000000E+00  0.12526536221E+01  0.12526536221E+01  0.00000000000E+00 0.  1.
          2   -1    0    0  502    0 -0.00000000000E+00 -0.00000000000E+00 -0.33242426468E+04  0.33242426468E+04  0.00000000000E+00 0. -1.
         24    2    1    2    0    0 -0.19655697718E+02  0.32218144847E+02 -0.19676400301E+04  0.19696199825E+04  0.79819998353E+02 0.  0.
        -11    1    3    3    0    0 -0.44065811013E+02 -0.19597444121E+01 -0.78914793142E+03  0.79037971505E+03  0.00000000000E+00 0.  1.
         12    1    3    3    0    0  0.24410113295E+02  0.34177889259E+02 -0.11784920987E+04  0.11792402674E+04  0.00000000000E+00 0. -1.
          1    1    1    2  501    0  0.19655697718E+02 -0.32218144847E+02 -0.13553499631E+04  0.13558753179E+04  0.00000000000E+00 0. -1.
<mgrwt>
<rscale>  1 0.88292624E+02</rscale>
<asrwt>0</asrwt>
<pdfrwt beam="1">  1       21 0.19271745E-03 0.88292624E+02</pdfrwt>
<pdfrwt beam="2">  1        2 0.51141794E+00 0.88292624E+02</pdfrwt>
<totfact> 0.84618739E+05</totfact>
</mgrwt>
</event>
<event>
 6    2  0.7993170E+000  0.9374816E+02  0.7546771E-02  0.1294021E+00
         21   -1    0    0  501  502  0.00000000000E+00  0.00000000000E+00  0.54497302822E+02  0.54497302822E+02  0.00000000000E+00 0. -1.
          4   -1    0    0  502    0 -0.00000000000E+00 -0.00000000000E+00 -0.87426323397E+02  0.87426323397E+02  0.00000000000E+00 0. -1.
         24    2    1    2    0    0 -0.31600327998E+02 -0.30027440251E+02 -0.15714667389E+02  0.95056133720E+02  0.82996926986E+02 0.  0.
        -11    1    3    3    0    0 -0.38968597440E+02  0.17022221140E+02 -0.20472997708E+02  0.47195881538E+02  0.00000000000E+00 0.  1.
         12    1    3    3    0    0  0.73682694424E+01 -0.47049661391E+02  0.47583303186E+01  0.47860252182E+02  0.00000000000E+00 0. -1.
          3    1    1    2  501    0  0.31600327998E+02  0.30027440251E+02 -0.17214353186E+02  0.46867492500E+02  0.00000000000E+00 0. -1.
<mgrwt>
<rscale>  1 0.93748162E+02</rscale>
<asrwt>0</asrwt>
<pdfrwt beam="1">  1       21 0.83842005E-02 0.93748162E+02</pdfrwt>
<pdfrwt beam="2">  1        4 0.13450203E-01 0.93748162E+02</pdfrwt>
<totfact> 0.19005937E+05</totfact>
</mgrwt>
</event>
<event>
 6    2  0.7993170E+000  0.8081982E+02  0.7546771E-02  0.1326741E+00
         -1   -1    0    0    0  501 -0.00000000000E+00  0.00000000000E+00  0.41479618600E+02  0.41479618600E+02  0.00000000000E+00 0.  1.
         21   -1    0    0  501  502  0.00000000000E+00 -0.00000000000E+00 -0.17794006282E+03  0.17794006282E+03  0.00000000000E+00 0.  1.
         24    2    1    2    0    0 -0.23149702168E+02 -0.20796837903E+02 -0.14119833346E+01  0.80832149641E+02  0.74588374036E+02 0.  0.
        -11    1    3    3    0    0 -0.47222820334E+02 -0.20638380834E+02  0.12496888178E+02  0.53029329035E+02  0.00000000000E+00 0.  1.
         12    1    3    3    0    0  0.24073118166E+02 -0.15845706851E+00 -0.13908871512E+02  0.27802820606E+02  0.00000000000E+00 0. -1.
         -2    1    1    2    0  502  0.23149702168E+02  0.20796837903E+02 -0.13504846089E+03  0.13858753178E+03  0.00000000000E+00 0.  1.
<mgrwt>
<rscale>  1 0.80819816E+02</rscale>
<asrwt>0</asrwt>
<pdfrwt beam="1">  1       21 0.27375394E-01 0.80819816E+02</pdfrwt>
<pdfrwt beam="2">  1       -1 0.63814798E-02 0.80819816E+02</pdfrwt>
<totfact> 0.13050010E+05</totfact>
</mgrwt>
</event>
<event>
 6    2  0.7993170E+000  0.8824077E+02  0.7546771E-02  0.1307169E+00
         21   -1    0    0  501  502  0.00000000000E+00  0.00000000000E+00  0.27476291851E+01  0.27476291851E+01  0.00000000000E+00 0.  1.
          2   -1    0    0  502    0 -0.00000000000E+00 -0.00000000000E+00 -0.14043178802E+04  0.14043178802E+04  0.00000000000E+00 0. -1.
         24    2    1    2    0    0 -0.21936859223E+02 -0.28521397591E+02 -0.10043073133E+04  0.10081763799E+04  0.80571319922E+02 0.  0.
        -13    1    3    3    0    0 -0.10443997473E+02  0.24398134887E+02 -0.16470723415E+03  0.16683170876E+03  0.00000000000E+00 0.  1.
         14    1    3    3    0    0 -0.11492861750E+02 -0.52919532478E+02 -0.83960007913E+03  0.84134467114E+03  0.00000000000E+00 0. -1.
          1    1    1    2  501    0  0.21936859223E+02  0.28521397591E+02 -0.39726293772E+03  0.39888912946E+03  0.00000000000E+00 0. -1.
<mgrwt>
<rscale>  1 0.88240770E+02</rscale>
<asrwt>0</asrwt>
<pdfrwt beam="1">  1       21 0.42271087E-03 0.88240770E+02</pdfrwt>
<pdfrwt beam="2">  1        2 0.21604958E+00 0.88240770E+02</pdfrwt>
<totfact> 0.27007603E+06</totfact>
</mgrwt>
</event>
<event>
 6    2  0.7993170E+000  0.1300548E+03  0.7546771E-02  0.1227374E+00
          2   -1    0    0  502    0 -0.00000000000E+00  0.00000000000E+00  0.89769874720E+03  0.89769874720E+03  0.00000000000E+00 0. -1.
         21   -1    0    0  501  502  0.00000000000E+00 -0.00000000000E+00 -0.14840781901E+02  0.14840781901E+02  0.00000000000E+00 0. -1.
         24    2    1    2    0    0 -0.14060658363E+02 -0.99694138935E+02  0.48352984555E+03  0.50071484471E+03  0.82326306390E+02 0.  0.
        -13    1    3    3    0    0 -0.72331891990E+01  0.96843933993E+01  0.13067902869E+03  0.13123686617E+03  0.00000000000E+00 0.  1.
         14    1    3    3    0    0 -0.68274691639E+01 -0.10937853233E+03  0.35285081686E+03  0.36947797855E+03  0.00000000000E+00 0. -1.
          1    1    1    2  501    0  0.14060658363E+02  0.99694138935E+02  0.39932811974E+03  0.41182468439E+03  0.00000000000E+00 0. -1.
<mgrwt>
<rscale>  1 0.13005477E+03</rscale>
<asrwt>0</asrwt>
<pdfrwt beam="1">  1       21 0.22831979E-02 0.13005477E+03</pdfrwt>
<pdfrwt beam="2">  1        2 0.13810746E+00 0.13005477E+03</pdfrwt>
<totfact> 0.37786978E+05</totfact>
</mgrwt>
</event>
<event>
 6    2  0.7993170E+000  0.1179605E+03  0.7546771E-02  0.1246500E+00
          2   -1    0    0  502    0 -0.00000000000E+00  0.00000000000E+00  0.68907637185E+03  0.68907637185E+03  0.00000000000E+00 0. -1.
         21   -1    0    0  501  502  0.00000000000E+00 -0.00000000000E+00 -0.15778498132E+02  0.15778498132E+02  0.00000000000E+00 0. -1.
         24    2    1    2    0    0 -0.82851826929E+02 -0.26624149221E+02  0.32162713958E+03  0.34257655736E+03  0.79632971755E+02 0.  0.
        -13    1    3    3    0    0 -0.75431432167E+02  0.43515037916E+01  0.28083695666E+03  0.29082337040E+03  0.00000000000E+00 0.  1.
         14    1    3    3    0    0 -0.74203947630E+01 -0.30975653012E+02  0.40790182922E+02  0.51753186963E+02  0.00000000000E+00 0. -1.
          1    1    1    2  501    0  0.82851826929E+02  0.26624149221E+02  0.35167073414E+03  0.36227831262E+03  0.00000000000E+00 0. -1.
<mgrwt>
<rscale>  1 0.11796050E+03</rscale>
<asrwt>0</asrwt>
<pdfrwt beam="1">  1       21 0.24274618E-02 0.11796050E+03</pdfrwt>
<pdfrwt beam="2">  1        2 0.10601173E+00 0.11796050E+03</pdfrwt>
<totfact> 0.47160080E+05</totfact>
</mgrwt>
</event>
<event>
 6    2  0.7993170E+000  0.9135793E+02  0.7546771E-02  0.1299596E+00
          2   -1    0    0  502    0 -0.00000000000E+00  0.00000000000E+00  0.23228702368E+04  0.23228702368E+04  0.00000000000E+00 0. -1.
         21   -1    0    0  501  502  0.00000000000E+00 -0.00000000000E+00 -0.16168236137E+03  0.16168236137E+03  0.00000000000E+00 0. -1.
         24    2    1    2    0    0  0.12421913740E+02  0.37707229460E+02  0.23195202947E+04  0.23213187349E+04  0.82280811881E+02 0.  0.
        -11    1    3    3    0    0  0.25508387970E+01 -0.53315966599E+01  0.12005625061E+02  0.13381619283E+02  0.00000000000E+00 0.  1.
         12    1    3    3    0    0  0.98710749427E+01  0.43038826119E+02  0.23075146697E+04  0.23079371156E+04  0.00000000000E+00 0. -1.
          1    1    1    2  501    0 -0.12421913740E+02 -0.37707229460E+02 -0.15833241936E+03  0.16323386326E+03  0.00000000000E+00 0. -1.
<mgrwt>
<rscale>  1 0.91357928E+02</rscale>
<asrwt>0</asrwt>
<pdfrwt beam="1">  1       21 0.24874211E-01 0.91357928E+02</pdfrwt>
<pdfrwt beam="2">  1        2 0.35736463E+00 0.91357928E+02</pdfrwt>
<totfact> 0.11062226E+03</totfact>
</mgrwt>
</event>
<event>
 6    2  0.7993170E+000  0.1014976E+03  0.7546771E-02  0.1277178E+00
          2   -1    0    0  502    0 -0.00000000000E+00  0.00000000000E+00  0.25107507785E+04  0.25107507785E+04  0.00000000000E+00 0. -1.
         21   -1    0    0  501  502  0.00000000000E+00 -0.00000000000E+00 -0.26155652876E+01  0.26155652876E+01  0.00000000000E+00 0. -1.
         24    2    1    2    0    0  0.38065977322E+02  0.46991617203E+02  0.16143658102E+04  0.16175533184E+04  0.81514035378E+02 0.  0.
        -11    1    3    3    0    0  0.22522005759E+02  0.68175561795E+01  0.10634081023E+03  0.10891321195E+03  0.00000000000E+00 0.  1.
         12    1    3    3    0    0  0.15543971562E+02  0.40174061024E+02  0.15080250000E+04  0.15086401065E+04  0.00000000000E+00 0. -1.
          1    1    1    2  501    0 -0.38065977322E+02 -0.46991617203E+02  0.89376940296E+03  0.89581302535E+03  0.00000000000E+00 0. -1.
<mgrwt>
<rscale>  1 0.10149763E+03</rscale>
<asrwt>0</asrwt>
<pdfrwt beam="1">  1       21 0.40239667E-03 0.10149763E+03</pdfrwt>
<pdfrwt beam="2">  1        2 0.38626742E+00 0.10149763E+03</pdfrwt>
<totfact> 0.80173460E+05</totfact>
</mgrwt>
</event>
<event>
 6    2  0.7993170E+000  0.8543972E+02  0.7546771E-02  0.1314287E+00
         21   -1    0    0  501  502  0.00000000000E+00  0.00000000000E+00  0.13559036810E+03  0.13559036810E+03  0.00000000000E+00 0.  1.
         -1   -1    0    0    0  501 -0.00000000000E+00 -0.00000000000E+00 -0.54695044283E+02  0.54695044283E+02  0.00000000000E+00 0.  1.
         24    2    1    2    0    0  0.16850798565E+02 -0.12221926728E+02 -0.19598130060E+02  0.87658616772E+02  0.82865080024E+02 0.  0.
        -13    1    3    3    0    0  0.48840353951E+02  0.26912915391E+01 -0.40222088946E+01  0.49079541447E+02  0.00000000000E+00 0.  1.
         14    1    3    3    0    0 -0.31989555386E+02 -0.14913218267E+02 -0.15575921165E+02  0.38579075326E+02  0.00000000000E+00 0. -1.
         -2    1    1    2    0  502 -0.16850798565E+02  0.12221926728E+02  0.10049345388E+03  0.10262679562E+03  0.00000000000E+00 0.  1.
<mgrwt>
<rscale>  1 0.85439724E+02</rscale>
<asrwt>0</asrwt>
<pdfrwt beam="1">  1       21 0.20860057E-01 0.85439724E+02</pdfrwt>
<pdfrwt beam="2">  1       -1 0.84146222E-02 0.85439724E+02</pdfrwt>
<totfact> 0.14411365E+05</totfact>
</mgrwt>
</event>
<event>
 6    2  0.7993170E+000  0.1075205E+03  0.7546771E-02  0.1265232E+00
         21   -1    0    0  501  502  0.00000000000E+00  0.00000000000E+00  0.49305567936E+02  0.49305567936E+02  0.00000000000E+00 0.  1.
          2   -1    0    0  502    0 -0.00000000000E+00 -0.00000000000E+00 -0.18485807192E+03  0.18485807192E+03  0.00000000000E+00 0. -1.
         24    2    1    2    0    0 -0.63402027278E+02  0.26343551616E+02 -0.12470108028E+03  0.16465426516E+03  0.82745802528E+02 0.  0.
        -13    1    3    3    0    0 -0.67193305439E+02  0.17973671181E+02 -0.41599731204E+02  0.81046473013E+02  0.00000000000E+00 0.  1.
         14    1    3    3    0    0  0.37912781610E+01  0.83698804348E+01 -0.83101349077E+02  0.83607792143E+02  0.00000000000E+00 0. -1.
          1    1    1    2  501    0  0.63402027278E+02 -0.26343551616E+02 -0.10851423703E+02  0.69509374699E+02  0.00000000000E+00 0. -1.
<mgrwt>
<rscale>  1 0.10752055E+03</rscale>
<asrwt>0</asrwt>
<pdfrwt beam="1">  1       21 0.75854720E-02 0.10752055E+03</pdfrwt>
<pdfrwt beam="2">  1        2 0.28439703E-01 0.10752055E+03</pdfrwt>
<totfact> 0.29150400E+05</totfact>
</mgrwt>
</event>
<event>
 6    2  0.7993170E+000  0.8736480E+02  0.7546771E-02  0.1309362E+00
          4   -1    0    0  502    0 -0.00000000000E+00  0.00000000000E+00  0.36022741657E+01  0.36022741657E+01  0.00000000000E+00 0. -1.
         21   -1    0    0  501  502  0.00000000000E+00 -0.00000000000E+00 -0.10490410692E+04  0.10490410692E+04  0.00000000000E+00 0. -1.
         24    2    1    2    0    0 -0.31784505059E+02  0.15969910077E+02 -0.73672865779E+03  0.74189064165E+03  0.79795464537E+02 0.  0.
        -11    1    3    3    0    0  0.23137334734E+02  0.86599581133E+00 -0.10121904122E+03  0.10383342676E+03  0.00000000000E+00 0.  1.
         12    1    3    3    0    0 -0.54921839792E+02  0.15103914266E+02 -0.63550961657E+03  0.63805721489E+03  0.00000000000E+00 0. -1.
          3    1    1    2  501    0  0.31784505059E+02 -0.15969910077E+02 -0.30871013724E+03  0.31075270171E+03  0.00000000000E+00 0. -1.
<mgrwt>
<rscale>  1 0.87364804E+02</rscale>
<asrwt>0</asrwt>
<pdfrwt beam="1">  1       21 0.16139108E+00 0.87364804E+02</pdfrwt>
<pdfrwt beam="2">  1        4 0.55419551E-03 0.87364804E+02</pdfrwt>
<totfact> 0.69489155E+04</totfact>
</mgrwt>
</event>
<event>
 6    2  0.7993170E+000  0.8515538E+02  0.7546771E-02  0.1315027E+00
          2   -1    0    0  502    0 -0.00000000000E+00  0.00000000000E+00  0.10299723504E+02  0.10299723504E+02  0.00000000000E+00 0. -1.
         21   -1    0    0  501  502  0.00000000000E+00 -0.00000000000E+00 -0.40210160354E+03  0.40210160354E+03  0.00000000000E+00 0.  1.
         24    2    1    2    0    0  0.40792602863E+01  0.33524607343E+02 -0.34045948647E+03  0.35094743344E+03  0.78172242191E+02 0.  0.
        -11    1    3    3    0    0 -0.26390938954E+02  0.69727259771E+01 -0.25451220870E+03  0.25597180497E+03  0.00000000000E+00 0.  1.
         12    1    3    3    0    0  0.30470199241E+02  0.26551881366E+02 -0.85947277775E+02  0.94975628467E+02  0.00000000000E+00 0. -1.
          1    1    1    2  501    0 -0.40792602863E+01 -0.33524607343E+02 -0.51342393568E+02  0.61453893606E+02  0.00000000000E+00 0. -1.
<mgrwt>
<rscale>  1 0.85155382E+02</rscale>
<asrwt>0</asrwt>
<pdfrwt beam="1">  1       21 0.61861796E-01 0.85155382E+02</pdfrwt>
<pdfrwt beam="2">  1        2 0.15845726E-02 0.85155382E+02</pdfrwt>
<totfact> 0.20677733E+05</totfact>
</mgrwt>
</event>
<event>
 6    2  0.7993170E+000  0.1131967E+03  0.7546771E-02  0.1254762E+00
         21   -1    0    0  501  502  0.00000000000E+00  0.00000000000E+00  0.52246775803E+01  0.52246775803E+01  0.00000000000E+00 0. -1.
         -3   -1    0    0    0  501 -0.00000000000E+00 -0.00000000000E+00 -0.19821196249E+04  0.19821196249E+04  0.00000000000E+00 0.  1.
         24    2    1    2    0    0 -0.62211900975E+02  0.62079599362E+02 -0.12622279213E+04  0.12672935020E+04  0.71339312219E+02 0.  0.
        -11    1    3    3    0    0  0.92220758864E+01 -0.75182242120E+01 -0.81932238474E+02  0.82791678811E+02  0.00000000000E+00 0.  1.
         12    1    3    3    0    0 -0.71433976861E+02  0.69597823574E+02 -0.11802956828E+04  0.11845018232E+04  0.00000000000E+00 0. -1.
         -4    1    1    2    0  502  0.62211900975E+02 -0.62079599362E+02 -0.71466702597E+03  0.72005080050E+03  0.00000000000E+00 0.  1.
<mgrwt>
<rscale>  1 0.11319671E+03</rscale>
<asrwt>0</asrwt>
<pdfrwt beam="1">  1       21 0.80379703E-03 0.11319671E+03</pdfrwt>
<pdfrwt beam="2">  1       -3 0.30494130E+00 0.11319671E+03</pdfrwt>
<totfact> 0.10823413E+04</totfact>
</mgrwt>
</event>
<event>
 6    2  0.7993170E+000  0.8647474E+02  0.7546771E-02  0.1311620E+00
         -3   -1    0    0    0  501 -0.00000000000E+00  0.00000000000E+00  0.89141599083E+02  0.89141599083E+02  0.00000000000E+00 0.  1.
         21   -1    0    0  501  502  0.00000000000E+00 -0.00000000000E+00 -0.40399677661E+02  0.40399677661E+02  0.00000000000E+00 0. -1.
         24    2    1    2    0    0 -0.65855389100E+01 -0.32521599593E+02  0.39682781379E+02  0.95145175495E+02  0.79855228502E+02 0.  0.
        -11    1    3    3    0    0 -0.37160316857E+02 -0.31805516425E+02  0.54104925069E+01  0.49211314280E+02  0.00000000000E+00 0.  1.
         12    1    3    3    0    0  0.30574777947E+02 -0.71608316833E+00  0.34272288872E+02  0.45933861216E+02  0.00000000000E+00 0. -1.
         -4    1    1    2    0  502  0.65855389100E+01  0.32521599593E+02  0.90591400422E+01  0.34396101249E+02  0.00000000000E+00 0.  1.
<mgrwt>
<rscale>  1 0.86474744E+02</rscale>
<asrwt>0</asrwt>
<pdfrwt beam="1">  1       21 0.62153350E-02 0.86474744E+02</pdfrwt>
<pdfrwt beam="2">  1       -3 0.13714092E-01 0.86474744E+02</pdfrwt>
<totfact> 0.35237388E+05</totfact>
</mgrwt>
</event>
<event>
 6    2  0.7993170E+000  0.9017057E+02  0.7546771E-02  0.1302439E+00
         21   -1    0    0  501  502  0.00000000000E+00  0.00000000000E+00  0.20405663693E+02  0.20405663693E+02  0.00000000000E+00 0. -1.
         -3   -1    0    0    0  501 -0.00000000000E+00 -0.00000000000E+00 -0.24975266377E+03  0.24975266377E+03  0.00000000000E+00 0.  1.
         24    2    1    2    0    0 -0.30916652921E+02  0.19434903877E+02 -0.95180623625E+02  0.13111095609E+03  0.82444992423E+02 0.  0.
        -13    1    3    3    0    0 -0.22884759644E+02 -0.96605142893E+01 -0.97713244880E+02  0.10082120801E+03  0.00000000000E+00 0.  1.
         14    1    3    3    0    0 -0.80318932770E+01  0.29095418166E+02  0.25326212551E+01  0.30289748073E+02  0.00000000000E+00 0. -1.
         -4    1    1    2    0  502  0.30916652921E+02 -0.19434903877E+02 -0.13416637645E+03  0.13904737137E+03  0.00000000000E+00 0.  1.
<mgrwt>
<rscale>  1 0.90170570E+02</rscale>
<asrwt>0</asrwt>
<pdfrwt beam="1">  1       21 0.31393330E-02 0.90170570E+02</pdfrwt>
<pdfrwt beam="2">  1       -3 0.38423486E-01 0.90170570E+02</pdfrwt>
<totfact> 0.17613367E+05</totfact>
</mgrwt>
</event>
<event>
 6    2  0.7993170E+000  0.8714229E+02  0.7546771E-02  0.1309923E+00
         21   -1    0    0  501  502  0.00000000000E+00  0.00000000000E+00  0.55655134920E+01  0.55655134920E+01  0.00000000000E+00 0. -1.
          2   -1    0    0  502    0 -0.00000000000E+00 -0.00000000000E+00 -0.62667763857E+03  0.62667763857E+03  0.00000000000E+00 0. -1.
         24    2    1    2    0    0  0.27063461133E+02  0.29365557117E+00 -0.53271888725E+03  0.53979921416E+03  0.82832732704E+02 0.  0.
        -11    1    3    3    0    0 -0.21163395040E+02  0.22990971472E+02 -0.13773970768E+03  0.14123987090E+03  0.00000000000E+00 0.  1.
         12    1    3    3    0    0  0.48226856173E+02 -0.22697315901E+02 -0.39497917957E+03  0.39855934326E+03  0.00000000000E+00 0. -1.
          1    1    1    2  501    0 -0.27063461133E+02 -0.29365557117E+00 -0.88393237828E+02  0.92443937907E+02  0.00000000000E+00 0. -1.
<mgrwt>
<rscale>  1 0.87142290E+02</rscale>
<asrwt>0</asrwt>
<pdfrwt beam="1">  1       21 0.85623333E-03 0.87142290E+02</pdfrwt>
<pdfrwt beam="2">  1        2 0.96411890E-01 0.87142290E+02</pdfrwt>
<totfact> 0.26760280E+06</totfact>
</mgrwt>
</event>
<event>
 6    2  0.7993170E+000  0.9906961E+02  0.7546771E-02  0.1282265E+00
          4   -1    0    0  502    0 -0.00000000000E+00  0.00000000000E+00  0.71261795409E+02  0.71261795409E+02  0.00000000000E+00 0. -1.
         21   -1    0    0  501  502  0.00000000000E+00 -0.00000000000E+00 -0.19479514443E+03  0.19479514443E+03  0.00000000000E+00 0. -1.
         24    2    1    2    0    0 -0.50176945020E+02 -0.41715310166E+02  0.26410930864E+02  0.10252963330E+03  0.74544587475E+02 0.  0.
        -11    1    3    3    0    0  0.47001382497E+01  0.75050375061E+00 -0.19009816868E+02  0.19596624526E+02  0.00000000000E+00 0.  1.
         12    1    3    3    0    0 -0.54877083270E+02 -0.42465813916E+02  0.45420747733E+02  0.82933008774E+02  0.00000000000E+00 0. -1.
          3    1    1    2  501    0  0.50176945020E+02  0.41715310166E+02 -0.14994427988E+03  0.16352730654E+03  0.00000000000E+00 0. -1.
<mgrwt>
<rscale>  1 0.99069614E+02</rscale>
<asrwt>0</asrwt>
<pdfrwt beam="1">  1       21 0.29968483E-01 0.99069614E+02</pdfrwt>
<pdfrwt beam="2">  1        4 0.10963353E-01 0.99069614E+02</pdfrwt>
<totfact> 0.27298404E+04</totfact>
</mgrwt>
</event>
<event>
 6    2  0.7993170E+000  0.8399315E+02  0.7546771E-02  0.1318087E+00
         21   -1    0    0  501  502  0.00000000000E+00  0.00000000000E+00  0.40132510432E+01  0.40132510432E+01  0.00000000000E+00 0.  1.
          4   -1    0    0  502    0 -0.00000000000E+00 -0.00000000000E+00 -0.74189199709E+03  0.74189199709E+03  0.00000000000E+00 0. -1.
         24    2    1    2    0    0  0.22485116255E+02  0.35926439853E+01 -0.50746400222E+03  0.51436811997E+03  0.80847768998E+02 0.  0.
        -13    1    3    3    0    0  0.51021919041E+02 -0.60412434605E+01 -0.25584355719E+03  0.26095144874E+03  0.00000000000E+00 0.  1.
         14    1    3    3    0    0 -0.28536802786E+02  0.96338874458E+01 -0.25162044503E+03  0.25341667123E+03  0.00000000000E+00 0. -1.
          3    1    1    2  501    0 -0.22485116255E+02 -0.35926439853E+01 -0.23041474383E+03  0.23153712816E+03  0.00000000000E+00 0. -1.
<mgrwt>
<rscale>  1 0.83993150E+02</rscale>
<asrwt>0</asrwt>
<pdfrwt beam="1">  1       21 0.61742318E-03 0.83993150E+02</pdfrwt>
<pdfrwt beam="2">  1        4 0.11413724E+00 0.83993150E+02</pdfrwt>
<totfact> 0.18452294E+05</totfact>
</mgrwt>
</event>
<event>
 6    2  0.7993170E+000  0.8603378E+02  0.7546771E-02  0.1312751E+00
          2   -1    0    0  502    0 -0.00000000000E+00  0.00000000000E+00  0.31019758790E+04  0.31019758790E+04  0.00000000000E+00 0. -1.
         21   -1    0    0  501  502  0.00000000000E+00 -0.00000000000E+00 -0.93449052922E+01  0.93449052922E+01  0.00000000000E+00 0. -1.
         24    2    1    2    0    0 -0.44593973236E+01 -0.31001528775E+02  0.30733231745E+04  0.30745271419E+04  0.80130082743E+02 0.  0.
        -11    1    3    3    0    0  0.32801403585E+02 -0.11275175295E+01  0.75628252184E+03  0.75699435679E+03  0.00000000000E+00 0.  1.
         12    1    3    3    0    0 -0.37260800909E+02 -0.29874011245E+02  0.23170406527E+04  0.23175327851E+04  0.00000000000E+00 0. -1.
          1    1    1    2  501    0  0.44593973236E+01  0.31001528775E+02  0.19307799161E+02  0.36793642376E+02  0.00000000000E+00 0. -1.
<mgrwt>
<rscale>  1 0.86033779E+02</rscale>
<asrwt>0</asrwt>
<pdfrwt beam="1">  1       21 0.14376802E-02 0.86033779E+02</pdfrwt>
<pdfrwt beam="2">  1        2 0.47722624E+00 0.86033779E+02</pdfrwt>
<totfact> 0.52527794E+04</totfact>
</mgrwt>
</event>
<event>
 6    2  0.7993170E+000  0.8258477E+02  0.7546771E-02  0.1321872E+00
         21   -1    0    0  501  502  0.00000000000E+00  0.00000000000E+00  0.74997721636E+02  0.74997721636E+02  0.00000000000E+00 0. -1.
         -3   -1    0    0    0  501 -0.00000000000E+00 -0.00000000000E+00 -0.40381422817E+02  0.40381422817E+02  0.00000000000E+00 0.  1.
         24    2    1    2    0    0 -0.21320541214E+02 -0.82797150595E+01  0.12430714709E+02  0.83515069048E+02  0.79354426032E+02 0.  0.
        -13    1    3    3    0    0  0.13549340957E+02  0.23847409514E+02 -0.12276691618E+02  0.30049970682E+02  0.00000000000E+00 0.  1.
         14    1    3    3    0    0 -0.34869882171E+02 -0.32127124573E+02  0.24707406327E+02  0.53465098367E+02  0.00000000000E+00 0. -1.
         -4    1    1    2    0  502  0.21320541214E+02  0.82797150595E+01  0.22185584110E+02  0.31864075405E+02  0.00000000000E+00 0.  1.
<mgrwt>
<rscale>  1 0.82584769E+02</rscale>
<asrwt>0</asrwt>
<pdfrwt beam="1">  1       21 0.11538111E-01 0.82584769E+02</pdfrwt>
<pdfrwt beam="2">  1       -3 0.62125266E-02 0.82584769E+02</pdfrwt>
<totfact> 0.43943869E+05</totfact>
</mgrwt>
</event>
<event>
 6    2  0.7993170E+000  0.9508660E+02  0.7546771E-02  0.1290981E+00
          2   -1    0    0  502    0 -0.00000000000E+00  0.00000000000E+00  0.89913244369E+03  0.89913244369E+03  0.00000000000E+00 0. -1.
         21   -1    0    0  501  502  0.00000000000E+00 -0.00000000000E+00 -0.79582630228E+01  0.79582630228E+01  0.00000000000E+00 0. -1.
         24    2    1    2    0    0  0.13716867926E+02  0.49250111426E+02  0.76599205525E+03  0.77187129071E+03  0.80173154918E+02 0.  0.
        -13    1    3    3    0    0  0.43239086413E+02  0.14962829396E+02  0.49687555162E+03  0.49897777371E+03  0.00000000000E+00 0.  1.
         14    1    3    3    0    0 -0.29522218487E+02  0.34287282030E+02  0.26911650363E+03  0.27289351700E+03  0.00000000000E+00 0. -1.
          1    1    1    2  501    0 -0.13716867926E+02 -0.49250111426E+02  0.12518212542E+03  0.13521941601E+03  0.00000000000E+00 0. -1.
<mgrwt>
<rscale>  1 0.95086596E+02</rscale>
<asrwt>0</asrwt>
<pdfrwt beam="1">  1       21 0.12243489E-02 0.95086596E+02</pdfrwt>
<pdfrwt beam="2">  1        2 0.13832799E+00 0.95086596E+02</pdfrwt>
<totfact> 0.10009421E+06</totfact>
</mgrwt>
</event>
<event>
 6    2  0.7993170E+000  0.8815558E+02  0.7546771E-02  0.1307381E+00
         -1   -1    0    0    0  501 -0.00000000000E+00  0.00000000000E+00  0.98942126704E+02  0.98942126704E+02  0.00000000000E+00 0.  1.
         21   -1    0    0  501  502  0.00000000000E+00 -0.00000000000E+00 -0.43629758502E+02  0.43629758502E+02  0.00000000000E+00 0. -1.
         24    2    1    2    0    0  0.10039464437E+02  0.34499392483E+02  0.16509070337E+02  0.89688098910E+02  0.80500973627E+02 0.  0.
        -13    1    3    3    0    0  0.17101332914E+02  0.38381512198E+02  0.44118585312E+02  0.60926559364E+02  0.00000000000E+00 0.  1.
         14    1    3    3    0    0 -0.70618684771E+01 -0.38821197156E+01 -0.27609514975E+02  0.28761539546E+02  0.00000000000E+00 0. -1.
         -2    1    1    2    0  502 -0.10039464437E+02 -0.34499392483E+02  0.38803297865E+02  0.52883786297E+02  0.00000000000E+00 0.  1.
<mgrwt>
<rscale>  1 0.88155577E+02</rscale>
<asrwt>0</asrwt>
<pdfrwt beam="1">  1       21 0.67122706E-02 0.88155577E+02</pdfrwt>
<pdfrwt beam="2">  1       -1 0.15221866E-01 0.88155577E+02</pdfrwt>
<totfact> 0.42935710E+05</totfact>
</mgrwt>
</event>
<event>
 6    2  0.7993170E+000  0.8590315E+02  0.7546771E-02  0.1313087E+00
         21   -1    0    0  501  502  0.00000000000E+00  0.00000000000E+00  0.46001039404E+02  0.46001039404E+02  0.00000000000E+00 0.  1.
          4   -1    0    0  502    0 -0.00000000000E+00 -0.00000000000E+00 -0.69209996756E+02  0.69209996756E+02  0.00000000000E+00 0. -1.
         24    2    1    2    0    0  0.22120155776E+02  0.15387341941E+02 -0.17559353755E+02  0.87679425158E+02  0.81567635176E+02 0.  0.
        -13    1    3    3    0    0  0.45212345476E+02 -0.67974862766E+01  0.83643039895E+01  0.46479281238E+02  0.00000000000E+00 0.  1.
         14    1    3    3    0    0 -0.23092189700E+02  0.22184828217E+02 -0.25923657744E+02  0.41200143920E+02  0.00000000000E+00 0. -1.
          3    1    1    2  501    0 -0.22120155776E+02 -0.15387341941E+02 -0.56496035970E+01  0.27531611002E+02  0.00000000000E+00 0. -1.
<mgrwt>
<rscale>  1 0.85903147E+02</rscale>
<asrwt>0</asrwt>
<pdfrwt beam="1">  1       21 0.70770830E-02 0.85903147E+02</pdfrwt>
<pdfrwt beam="2">  1        4 0.10647692E-01 0.85903147E+02</pdfrwt>
<totfact> 0.37070883E+05</totfact>
</mgrwt>
</event>
<event>
 6    2  0.7993170E+000  0.1037269E+03  0.7546771E-02  0.1272648E+00
          2   -1    0    0  502    0 -0.00000000000E+00  0.00000000000E+00  0.58914014859E+03  0.58914014859E+03  0.00000000000E+00 0. -1.
         21   -1    0    0  501  502  0.00000000000E+00 -0.00000000000E+00 -0.26394631350E+02  0.26394631350E+02  0.00000000000E+00 0. -1.
         24    2    1    2    0    0 -0.20932840860E+02 -0.25215377926E+02  0.57212116216E+03  0.58144809884E+03  0.98413760920E+02 0.  0.
        -13    1    3    3    0    0 -0.34678943305E+02  0.14300605295E+02  0.89857986879E+02  0.97373478045E+02  0.00000000000E+00 0.  1.
         14    1    3    3    0    0  0.13746102444E+02 -0.39515983221E+02  0.48226317528E+03  0.48407462079E+03  0.00000000000E+00 0. -1.
          1    1    1    2  501    0  0.20932840860E+02  0.25215377926E+02 -0.93756449269E+01  0.34086681097E+02  0.00000000000E+00 0. -1.
<mgrwt>
<rscale>  1 0.10372689E+03</rscale>
<asrwt>0</asrwt>
<pdfrwt beam="1">  1       21 0.40607129E-02 0.10372689E+03</pdfrwt>
<pdfrwt beam="2">  1        2 0.90636936E-01 0.10372689E+03</pdfrwt>
<totfact> 0.24132391E+05</totfact>
</mgrwt>
</event>
<event>
 6    2  0.7993170E+000  0.9318260E+02  0.7546771E-02  0.1295323E+00
          2   -1    0    0  502    0 -0.00000000000E+00  0.00000000000E+00  0.46690237467E+03  0.46690237467E+03  0.00000000000E+00 0. -1.
         21   -1    0    0  501  502  0.00000000000E+00 -0.00000000000E+00 -0.40358684728E+02  0.40358684728E+02  0.00000000000E+00 0. -1.
         24    2    1    2    0    0  0.30453624296E+02  0.37953319416E+02  0.44542347322E+03  0.45506600308E+03  0.79467722840E+02 0.  0.
        -11    1    3    3    0    0 -0.46743218772E+01  0.79932722224E+01  0.22962896897E+01  0.95401589176E+01  0.00000000000E+00 0.  1.
         12    1    3    3    0    0  0.35127946174E+02  0.29960047193E+02  0.44312718353E+03  0.44552584416E+03  0.00000000000E+00 0. -1.
          1    1    1    2  501    0 -0.30453624296E+02 -0.37953319416E+02 -0.18879783281E+02  0.52195056319E+02  0.00000000000E+00 0. -1.
<mgrwt>
<rscale>  1 0.93182598E+02</rscale>
<asrwt>0</asrwt>
<pdfrwt beam="1">  1       21 0.62090287E-02 0.93182598E+02</pdfrwt>
<pdfrwt beam="2">  1        2 0.71831131E-01 0.93182598E+02</pdfrwt>
<totfact> 0.15243135E+05</totfact>
</mgrwt>
</event>
<event>
 6    2  0.7993170E+000  0.8358385E+02  0.7546771E-02  0.1319178E+00
         21   -1    0    0  501  502  0.00000000000E+00  0.00000000000E+00  0.19431140404E+02  0.19431140404E+02  0.00000000000E+00 0.  1.
         -1   -1    0    0    0  501 -0.00000000000E+00 -0.00000000000E+00 -0.17022111446E+03  0.17022111446E+03  0.00000000000E+00 0.  1.
         24    2    1    2    0    0  0.18122846931E+02 -0.19594314589E+02 -0.13458440758E+03  0.15842734285E+03  0.79207862340E+02 0.  0.
        -13    1    3    3    0    0  0.23455853597E+02 -0.48216540179E+02 -0.97592151273E+02  0.11135187383E+03  0.00000000000E+00 0.  1.
         14    1    3    3    0    0 -0.53330066657E+01  0.28622225589E+02 -0.36992256302E+02  0.47075469027E+02  0.00000000000E+00 0. -1.
         -2    1    1    2    0  502 -0.18122846931E+02  0.19594314589E+02 -0.16205566481E+02  0.31224912011E+02  0.00000000000E+00 0.  1.
<mgrwt>
<rscale>  1 0.83583851E+02</rscale>
<asrwt>0</asrwt>
<pdfrwt beam="1">  1       21 0.29894061E-02 0.83583851E+02</pdfrwt>
<pdfrwt beam="2">  1       -1 0.26187864E-01 0.83583851E+02</pdfrwt>
<totfact> 0.68740014E+05</totfact>
</mgrwt>
</event>
<event>
 6    2  0.7993170E+000  0.9628094E+02  0.7546771E-02  0.1288317E+00
          2   -1    0    0  502    0 -0.00000000000E+00  0.00000000000E+00  0.38136104737E+03  0.38136104737E+03  0.00000000000E+00 0. -1.
         21   -1    0    0  501  502  0.00000000000E+00 -0.00000000000E+00 -0.42264539651E+02  0.42264539651E+02  0.00000000000E+00 0. -1.
         24    2    1    2    0    0  0.52203862612E+02  0.26033156572E+02  0.35110542736E+03  0.36406735784E+03  0.76596680150E+02 0.  0.
        -13    1    3    3    0    0 -0.14802375222E+02 -0.91863957941E+01  0.10960825378E+03  0.11098409561E+03  0.00000000000E+00 0.  1.
         14    1    3    3    0    0  0.67006237834E+02  0.35219552366E+02  0.24149717357E+03  0.25308326223E+03  0.00000000000E+00 0. -1.
          1    1    1    2  501    0 -0.52203862612E+02 -0.26033156572E+02 -0.12008919638E+02  0.59558229184E+02  0.00000000000E+00 0. -1.
<mgrwt>
<rscale>  1 0.96280943E+02</rscale>
<asrwt>0</asrwt>
<pdfrwt beam="1">  1       21 0.65022371E-02 0.96280943E+02</pdfrwt>
<pdfrwt beam="2">  1        2 0.58670928E-01 0.96280943E+02</pdfrwt>
<totfact> 0.17502576E+05</totfact>
</mgrwt>
</event>
<event>
 6    2  0.7993170E+000  0.1025843E+03  0.7546771E-02  0.1274954E+00
         21   -1    0    0  501  502  0.00000000000E+00  0.00000000000E+00  0.52787581465E+01  0.52787581465E+01  0.00000000000E+00 0.  1.
         -3   -1    0    0    0  501 -0.00000000000E+00 -0.00000000000E+00 -0.20512172625E+04  0.20512172625E+04  0.00000000000E+00 0.  1.
         24    2    1    2    0    0 -0.37033676560E+02  0.52906951350E+02 -0.17752061962E+04  0.17781677587E+04  0.79705084382E+02 0.  0.
        -11    1    3    3    0    0 -0.15979201214E+02  0.68509579928E+02 -0.97598433907E+03  0.97851639104E+03  0.00000000000E+00 0.  1.
         12    1    3    3    0    0 -0.21054475346E+02 -0.15602628578E+02 -0.79922185709E+03  0.79965136766E+03  0.00000000000E+00 0. -1.
         -4    1    1    2    0  502  0.37033676560E+02 -0.52906951350E+02 -0.27073230816E+03  0.27832826192E+03  0.00000000000E+00 0.  1.
<mgrwt>
<rscale>  1 0.10258430E+03</rscale>
<asrwt>0</asrwt>
<pdfrwt beam="1">  1       21 0.81211677E-03 0.10258430E+03</pdfrwt>
<pdfrwt beam="2">  1       -3 0.31557183E+00 0.10258430E+03</pdfrwt>
<totfact> 0.93447326E+03</totfact>
</mgrwt>
</event>
<event>
 6    2  0.7993170E+000  0.8505415E+02  0.7546771E-02  0.1315291E+00
         -3   -1    0    0    0  501 -0.00000000000E+00  0.00000000000E+00  0.95360644495E+03  0.95360644495E+03  0.00000000000E+00 0.  1.
         21   -1    0    0  501  502  0.00000000000E+00 -0.00000000000E+00 -0.38672444115E+01  0.38672444115E+01  0.00000000000E+00 0. -1.
         24    2    1    2    0    0 -0.18107810439E+02 -0.14473864377E+02  0.50354934985E+03  0.51068205067E+03  0.81834122415E+02 0.  0.
        -11    1    3    3    0    0  0.13097940240E+02  0.27426566098E+02  0.24733525555E+03  0.24919570864E+03  0.00000000000E+00 0.  1.
         12    1    3    3    0    0 -0.31205750679E+02 -0.41900430475E+02  0.25621409430E+03  0.26148634203E+03  0.00000000000E+00 0. -1.
         -4    1    1    2    0  502  0.18107810439E+02  0.14473864377E+02  0.44618985068E+03  0.44679163869E+03  0.00000000000E+00 0.  1.
<mgrwt>
<rscale>  1 0.85054154E+02</rscale>
<asrwt>0</asrwt>
<pdfrwt beam="1">  1       21 0.59496144E-03 0.85054154E+02</pdfrwt>
<pdfrwt beam="2">  1       -3 0.14670850E+00 0.85054154E+02</pdfrwt>
<totfact> 0.13763548E+05</totfact>
</mgrwt>
</event>
<event>
 6    2  0.7993170E+000  0.8559235E+02  0.7546771E-02  0.1313891E+00
         21   -1    0    0  501  502  0.00000000000E+00  0.00000000000E+00  0.14221762958E+02  0.14221762958E+02  0.00000000000E+00 0.  1.
         -1   -1    0    0    0  501 -0.00000000000E+00 -0.00000000000E+00 -0.47961040670E+03  0.47961040670E+03  0.00000000000E+00 0.  1.
         24    2    1    2    0    0  0.23082031591E+02 -0.16196627242E+02 -0.45622244155E+03  0.46418204016E+03  0.80814227203E+02 0.  0.
        -11    1    3    3    0    0  0.39593190145E+02 -0.32097157011E+02 -0.40330781287E+03  0.40651573170E+03  0.00000000000E+00 0.  1.
         12    1    3    3    0    0 -0.16511158554E+02  0.15900529769E+02 -0.52914628678E+02  0.57666308464E+02  0.00000000000E+00 0. -1.
         -2    1    1    2    0  502 -0.23082031591E+02  0.16196627242E+02 -0.91662021894E+01  0.29650129493E+02  0.00000000000E+00 0.  1.
<mgrwt>
<rscale>  1 0.85592349E+02</rscale>
<asrwt>0</asrwt>
<pdfrwt beam="1">  1       21 0.21879638E-02 0.85592349E+02</pdfrwt>
<pdfrwt beam="2">  1       -1 0.73786208E-01 0.85592349E+02</pdfrwt>
<totfact> 0.18142645E+05</totfact>
</mgrwt>
</event>
<event>
 6    2  0.7993170E+000  0.8669032E+02  0.7546771E-02  0.1311070E+00
         21   -1    0    0  501  502  0.00000000000E+00  0.00000000000E+00  0.16787775286E+02  0.16787775286E+02  0.00000000000E+00 0. -1.
         -1   -1    0    0    0  501 -0.00000000000E+00 -0.00000000000E+00 -0.22514392522E+03  0.22514392522E+03  0.00000000000E+00 0.  1.
         24    2    1    2    0    0  0.16974734878E+02 -0.26317917756E+02 -0.17954257882E+03  0.19937589832E+03  0.80835863346E+02 0.  0.
        -13    1    3    3    0    0  0.21611298642E+02  0.11111132537E+02 -0.14865142947E+03  0.15062454309E+03  0.00000000000E+00 0.  1.
         14    1    3    3    0    0 -0.46365637644E+01 -0.37429050293E+02 -0.30891149348E+02  0.48751355237E+02  0.00000000000E+00 0. -1.
         -2    1    1    2    0  502 -0.16974734878E+02  0.26317917756E+02 -0.28813571109E+02  0.42555802180E+02  0.00000000000E+00 0.  1.
<mgrwt>
<rscale>  1 0.86690318E+02</rscale>
<asrwt>0</asrwt>
<pdfrwt beam="1">  1       21 0.25827348E-02 0.86690318E+02</pdfrwt>
<pdfrwt beam="2">  1       -1 0.34637524E-01 0.86690318E+02</pdfrwt>
<totfact> 0.54970609E+05</totfact>
</mgrwt>
</event>
<event>
 6    2  0.7993170E+000  0.8667033E+02  0.7546771E-02  0.1311121E+00
         -1   -1    0    0    0  501 -0.00000000000E+00  0.00000000000E+00  0.75066529201E+02  0.75066529201E+02  0.00000000000E+00 0.  1.
         21   -1    0    0  501  502  0.00000000000E+00 -0.00000000000E+00 -0.59702591749E+02  0.59702591749E+02  0.00000000000E+00 0.  1.
         24    2    1    2    0    0 -0.36295714111E+02 -0.24921113624E-01 -0.14364470235E+02  0.87852623772E+02  0.78704294766E+02 0.  0.
        -13    1    3    3    0    0 -0.58292540315E+02 -0.13594608822E+02 -0.39478511310E+01  0.59986825003E+02  0.00000000000E+00 0.  1.
         14    1    3    3    0    0  0.21996826204E+02  0.13569687708E+02 -0.10416619104E+02  0.27865798770E+02  0.00000000000E+00 0. -1.
         -2    1    1    2    0  502  0.36295714111E+02  0.24921113624E-01  0.29728407687E+02  0.46916497178E+02  0.00000000000E+00 0.  1.
<mgrwt>
<rscale>  1 0.86670327E+02</rscale>
<asrwt>0</asrwt>
<pdfrwt beam="1">  1       21 0.91850142E-02 0.86670327E+02</pdfrwt>
<pdfrwt beam="2">  1       -1 0.11548697E-01 0.86670327E+02</pdfrwt>
<totfact> 0.38365330E+05</totfact>
</mgrwt>
</event>
<event>
 6    2  0.7993170E+000  0.8777062E+02  0.7546771E-02  0.1308342E+00
          2   -1    0    0  502    0 -0.00000000000E+00  0.00000000000E+00  0.23147609097E+03  0.23147609097E+03  0.00000000000E+00 0. -1.
         21   -1    0    0  501  502  0.00000000000E+00 -0.00000000000E+00 -0.20358502263E+02  0.20358502263E+02  0.00000000000E+00 0. -1.
         24    2    1    2    0    0  0.21358441949E+02  0.25544238698E+02  0.19700067848E+03  0.21566861022E+03  0.81209549559E+02 0.  0.
        -11    1    3    3    0    0  0.30609621572E+02 -0.63942853502E+01  0.23779529578E+02  0.39284880614E+02  0.00000000000E+00 0.  1.
         12    1    3    3    0    0 -0.92511796234E+01  0.31938524048E+02  0.17322114890E+03  0.17638372960E+03  0.00000000000E+00 0. -1.
          1    1    1    2  501    0 -0.21358441949E+02 -0.25544238698E+02  0.14116910232E+02  0.36165983018E+02  0.00000000000E+00 0. -1.
<mgrwt>
<rscale>  1 0.87770622E+02</rscale>
<asrwt>0</asrwt>
<pdfrwt beam="1">  1       21 0.31320774E-02 0.87770622E+02</pdfrwt>
<pdfrwt beam="2">  1        2 0.35611705E-01 0.87770622E+02</pdfrwt>
<totfact> 0.98398401E+05</totfact>
</mgrwt>
</event>
<event>
 6    2  0.7993170E+000  0.8419425E+02  0.7546771E-02  0.1317553E+00
          2   -1    0    0  502    0 -0.00000000000E+00  0.00000000000E+00  0.84193653525E+03  0.84193653525E+03  0.00000000000E+00 0. -1.
         21   -1    0    0  501  502  0.00000000000E+00 -0.00000000000E+00 -0.94819271094E+02  0.94819271094E+02  0.00000000000E+00 0. -1.
         24    2    1    2    0    0  0.60481255227E+01  0.21155116517E+02  0.83852294591E+03  0.84273922570E+03  0.81268400645E+02 0.  0.
        -11    1    3    3    0    0  0.41012038602E+02  0.25437564539E+02  0.42972467745E+03  0.43242612711E+03  0.00000000000E+00 0.  1.
         12    1    3    3    0    0 -0.34963913080E+02 -0.42824480214E+01  0.40879826846E+03  0.41031309859E+03  0.00000000000E+00 0. -1.
          1    1    1    2  501    0 -0.60481255227E+01 -0.21155116517E+02 -0.91405681758E+02  0.94016580638E+02  0.00000000000E+00 0. -1.
<mgrwt>
<rscale>  1 0.84194250E+02</rscale>
<asrwt>0</asrwt>
<pdfrwt beam="1">  1       21 0.14587581E-01 0.84194250E+02</pdfrwt>
<pdfrwt beam="2">  1        2 0.12952869E+00 0.84194250E+02</pdfrwt>
<totfact> 0.17781073E+04</totfact>
</mgrwt>
</event>
<event>
 6    2  0.7993170E+000  0.9031998E+02  0.7546771E-02  0.1302079E+00
         -1   -1    0    0    0  501 -0.00000000000E+00  0.00000000000E+00  0.30734106669E+02  0.30734106669E+02  0.00000000000E+00 0.  1.
         21   -1    0    0  501  502  0.00000000000E+00 -0.00000000000E+00 -0.13921471335E+03  0.13921471335E+03  0.00000000000E+00 0. -1.
         24    2    1    2    0    0 -0.24127197986E+02  0.32326521804E+02 -0.70994532068E+02  0.11488221050E+03  0.80811960811E+02 0.  0.
        -13    1    3    3    0    0  0.12920877320E+02 -0.15556751005E+02 -0.44336444146E+02  0.48730707486E+02  0.00000000000E+00 0.  1.
         14    1    3    3    0    0 -0.37048075306E+02  0.47883272809E+02 -0.26658087922E+02  0.66151503010E+02  0.00000000000E+00 0. -1.
         -2    1    1    2    0  502  0.24127197986E+02 -0.32326521804E+02 -0.37486074618E+02  0.55066609528E+02  0.00000000000E+00 0.  1.
<mgrwt>
<rscale>  1 0.90319980E+02</rscale>
<asrwt>0</asrwt>
<pdfrwt beam="1">  1       21 0.21417648E-01 0.90319980E+02</pdfrwt>
<pdfrwt beam="2">  1       -1 0.47283240E-02 0.90319980E+02</pdfrwt>
<totfact> 0.32295103E+05</totfact>
</mgrwt>
</event>
<event>
 6    2  0.7993170E+000  0.8812385E+02  0.7546771E-02  0.1307460E+00
          2   -1    0    0  502    0 -0.00000000000E+00  0.00000000000E+00  0.16732861489E+04  0.16732861489E+04  0.00000000000E+00 0. -1.
         21   -1    0    0  501  502  0.00000000000E+00 -0.00000000000E+00 -0.47673419105E+01  0.47673419105E+01  0.00000000000E+00 0.  1.
         24    2    1    2    0    0 -0.34445874298E+02  0.10608004871E+02  0.15803119445E+04  0.15827670877E+04  0.80416192642E+02 0.  0.
        -11    1    3    3    0    0 -0.10902027697E+02 -0.25541405953E+02  0.21660957888E+03  0.21838252515E+03  0.00000000000E+00 0.  1.
         12    1    3    3    0    0 -0.23543846602E+02  0.36149410824E+02  0.13637023656E+04  0.13643845625E+04  0.00000000000E+00 0. -1.
          1    1    1    2  501    0  0.34445874298E+02 -0.10608004871E+02  0.88206862574E+02  0.95286403168E+02  0.00000000000E+00 0. -1.
<mgrwt>
<rscale>  1 0.88123845E+02</rscale>
<asrwt>0</asrwt>
<pdfrwt beam="1">  1       21 0.73343855E-03 0.88123845E+02</pdfrwt>
<pdfrwt beam="2">  1        2 0.25742817E+00 0.88123845E+02</pdfrwt>
<totfact> 0.84532550E+05</totfact>
</mgrwt>
</event>
<event>
 6    2  0.7993170E+000  0.8844877E+02  0.7546771E-02  0.1306652E+00
         21   -1    0    0  501  502  0.00000000000E+00  0.00000000000E+00  0.45621296323E+02  0.45621296323E+02  0.00000000000E+00 0.  1.
          2   -1    0    0  502    0 -0.00000000000E+00 -0.00000000000E+00 -0.87938681485E+02  0.87938681485E+02  0.00000000000E+00 0. -1.
         24    2    1    2    0    0  0.34592228416E+02  0.79231646535E+01 -0.42366487640E+02  0.98071934527E+02  0.81017197323E+02 0.  0.
        -11    1    3    3    0    0  0.25363017138E+02  0.42460319868E+02 -0.11352713682E+02  0.50744906243E+02  0.00000000000E+00 0.  1.
         12    1    3    3    0    0  0.92292112774E+01 -0.34537155215E+02 -0.31013773958E+02  0.47327028284E+02  0.00000000000E+00 0. -1.
          1    1    1    2  501    0 -0.34592228416E+02 -0.79231646535E+01  0.49102478125E-01  0.35488043281E+02  0.00000000000E+00 0. -1.
<mgrwt>
<rscale>  1 0.88448771E+02</rscale>
<asrwt>0</asrwt>
<pdfrwt beam="1">  1       21 0.70186610E-02 0.88448771E+02</pdfrwt>
<pdfrwt beam="2">  1        2 0.13529028E-01 0.88448771E+02</pdfrwt>
<totfact> 0.75359305E+05</totfact>
</mgrwt>
</event>
<event>
 6    2  0.7993170E+000  0.8316452E+02  0.7546771E-02  0.1320304E+00
         21   -1    0    0  501  502  0.00000000000E+00  0.00000000000E+00  0.51450848851E+01  0.51450848851E+01  0.00000000000E+00 0.  1.
          2   -1    0    0  502    0 -0.00000000000E+00 -0.00000000000E+00 -0.54580338054E+03  0.54580338054E+03  0.00000000000E+00 0. -1.
         24    2    1    2    0    0  0.17497369200E+02  0.13892576839E+02 -0.40335093552E+03  0.41183530010E+03  0.80107275585E+02 0.  0.
        -11    1    3    3    0    0 -0.12729557856E+02  0.35655827865E+02 -0.11459762532E+03  0.12068966581E+03  0.00000000000E+00 0.  1.
         12    1    3    3    0    0  0.30226927056E+02 -0.21763251026E+02 -0.28875331019E+03  0.29114563428E+03  0.00000000000E+00 0. -1.
          1    1    1    2  501    0 -0.17497369200E+02 -0.13892576839E+02 -0.13730736013E+03  0.13911316532E+03  0.00000000000E+00 0. -1.
<mgrwt>
<rscale>  1 0.83164519E+02</rscale>
<asrwt>0</asrwt>
<pdfrwt beam="1">  1       21 0.79155147E-03 0.83164519E+02</pdfrwt>
<pdfrwt beam="2">  1        2 0.83969757E-01 0.83164519E+02</pdfrwt>
<totfact> 0.35034954E+06</totfact>
</mgrwt>
</event>
<event>
 6    2  0.7993170E+000  0.8312861E+02  0.7546771E-02  0.1320400E+00
         21   -1    0    0  501  502  0.00000000000E+00  0.00000000000E+00  0.19783845533E+02  0.19783845533E+02  0.00000000000E+00 0.  1.
          4   -1    0    0  502    0 -0.00000000000E+00 -0.00000000000E+00 -0.14356700499E+03  0.14356700499E+03  0.00000000000E+00 0. -1.
         24    2    1    2    0    0  0.20599007585E+01  0.22836307182E+02 -0.89950282312E+02  0.12248027807E+03  0.79903849162E+02 0.  0.
        -13    1    3    3    0    0  0.30580248841E+01 -0.30152425947E+01  0.14371011089E+02  0.14998972092E+02  0.00000000000E+00 0.  1.
         14    1    3    3    0    0 -0.99812412559E+00  0.25851549776E+02 -0.10432129340E+03  0.10748130598E+03  0.00000000000E+00 0. -1.
          3    1    1    2  501    0 -0.20599007585E+01 -0.22836307182E+02 -0.33832877143E+02  0.40870572452E+02  0.00000000000E+00 0. -1.
<mgrwt>
<rscale>  1 0.83128607E+02</rscale>
<asrwt>0</asrwt>
<pdfrwt beam="1">  1       21 0.30436684E-02 0.83128607E+02</pdfrwt>
<pdfrwt beam="2">  1        4 0.22087233E-01 0.83128607E+02</pdfrwt>
<totfact> 0.42039070E+05</totfact>
</mgrwt>
</event>
<event>
 6    2  0.7993170E+000  0.8546882E+02  0.7546771E-02  0.1314211E+00
         21   -1    0    0  501  502  0.00000000000E+00  0.00000000000E+00  0.96512543643E+01  0.96512543643E+01  0.00000000000E+00 0.  1.
         -1   -1    0    0    0  501 -0.00000000000E+00 -0.00000000000E+00 -0.39487424882E+03  0.39487424882E+03  0.00000000000E+00 0.  1.
         24    2    1    2    0    0 -0.24586175015E+02 -0.25248352103E+01 -0.35664168565E+03  0.36673997676E+03  0.81817258628E+02 0.  0.
        -13    1    3    3    0    0 -0.45811502090E+01  0.38775458492E+02 -0.18451757857E+03  0.18860344621E+03  0.00000000000E+00 0.  1.
         14    1    3    3    0    0 -0.20005024806E+02 -0.41300293703E+02 -0.17212410708E+03  0.17813653055E+03  0.00000000000E+00 0. -1.
         -2    1    1    2    0  502  0.24586175015E+02  0.25248352103E+01 -0.28581308802E+02  0.37785526430E+02  0.00000000000E+00 0.  1.
<mgrwt>
<rscale>  1 0.85468817E+02</rscale>
<asrwt>0</asrwt>
<pdfrwt beam="1">  1       21 0.14848085E-02 0.85468817E+02</pdfrwt>
<pdfrwt beam="2">  1       -1 0.60749878E-01 0.85468817E+02</pdfrwt>
<totfact> 0.48912583E+05</totfact>
</mgrwt>
</event>
<event>
 6    2  0.7993170E+000  0.8538794E+02  0.7546771E-02  0.1314421E+00
         21   -1    0    0  501  502  0.00000000000E+00  0.00000000000E+00  0.27465517077E+03  0.27465517077E+03  0.00000000000E+00 0. -1.
         -3   -1    0    0    0  501 -0.00000000000E+00 -0.00000000000E+00 -0.14233699930E+02  0.14233699930E+02  0.00000000000E+00 0.  1.
         24    2    1    2    0    0  0.44105933477E+01  0.25295641747E+02  0.12711341396E+03  0.15313040557E+03  0.81435730959E+02 0.  0.
        -13    1    3    3    0    0  0.11971030170E+01  0.28225847932E+02  0.24128930888E+01  0.28354075548E+02  0.00000000000E+00 0.  1.
         14    1    3    3    0    0  0.32134903307E+01 -0.29302061855E+01  0.12470052087E+03  0.12477633003E+03  0.00000000000E+00 0. -1.
         -4    1    1    2    0  502 -0.44105933477E+01 -0.25295641747E+02  0.13330805688E+03  0.13575846513E+03  0.00000000000E+00 0.  1.
<mgrwt>
<rscale>  1 0.85387945E+02</rscale>
<asrwt>0</asrwt>
<pdfrwt beam="1">  1       21 0.42254637E-01 0.85387945E+02</pdfrwt>
<pdfrwt beam="2">  1       -3 0.21898002E-02 0.85387945E+02</pdfrwt>
<totfact> 0.19963619E+05</totfact>
</mgrwt>
</event>
<event>
 6    2  0.7993170E+000  0.6831312E+02  0.7546771E-02  0.1365925E+00
          2   -1    0    0  502    0 -0.00000000000E+00  0.00000000000E+00  0.11790763922E+03  0.11790763922E+03  0.00000000000E+00 0. -1.
         21   -1    0    0  501  502  0.00000000000E+00 -0.00000000000E+00 -0.20079475591E+02  0.20079475591E+02  0.00000000000E+00 0. -1.
         24    2    1    2    0    0  0.19201524553E+02 -0.99719864349E+01  0.93702903402E+02  0.11596083890E+03  0.64796164960E+02 0.  0.
        -13    1    3    3    0    0 -0.15552148582E+02 -0.16840557072E+02  0.98845696665E+01  0.24963541526E+02  0.00000000000E+00 0.  1.
         14    1    3    3    0    0  0.34753673135E+02  0.68685706375E+01  0.83818333736E+02  0.90997297373E+02  0.00000000000E+00 0. -1.
          1    1    1    2  501    0 -0.19201524553E+02  0.99719864349E+01  0.41252602262E+01  0.22026275912E+02  0.00000000000E+00 0. -1.
<mgrwt>
<rscale>  1 0.68313118E+02</rscale>
<asrwt>0</asrwt>
<pdfrwt beam="1">  1       21 0.30891502E-02 0.68313118E+02</pdfrwt>
<pdfrwt beam="2">  1        2 0.18139636E-01 0.68313118E+02</pdfrwt>
<totfact> 0.20249341E+06</totfact>
</mgrwt>
</event>
<event>
 6    2  0.7993170E+000  0.8721446E+02  0.7546771E-02  0.1309741E+00
          2   -1    0    0  502    0 -0.00000000000E+00  0.00000000000E+00  0.14324985588E+04  0.14324985588E+04  0.00000000000E+00 0. -1.
         21   -1    0    0  501  502  0.00000000000E+00 -0.00000000000E+00 -0.25527506724E+01  0.25527506724E+01  0.00000000000E+00 0. -1.
         24    2    1    2    0    0 -0.18744755974E+02  0.11220289623E+02  0.13243878814E+04  0.13272564271E+04  0.84434009979E+02 0.  0.
        -13    1    3    3    0    0 -0.13148978878E+02 -0.34102862747E+02  0.81713215188E+03  0.81794917600E+03  0.00000000000E+00 0.  1.
         14    1    3    3    0    0 -0.55957770960E+01  0.45323152370E+02  0.50725572952E+03  0.50930725107E+03  0.00000000000E+00 0. -1.
          1    1    1    2  501    0  0.18744755974E+02 -0.11220289623E+02  0.10555792674E+03  0.10779488241E+03  0.00000000000E+00 0. -1.
<mgrwt>
<rscale>  1 0.87214464E+02</rscale>
<asrwt>0</asrwt>
<pdfrwt beam="1">  1       21 0.39273202E-03 0.87214464E+02</pdfrwt>
<pdfrwt beam="2">  1        2 0.22038375E+00 0.87214464E+02</pdfrwt>
<totfact> 0.29184201E+06</totfact>
</mgrwt>
</event>
<event>
 6    2  0.7993170E+000  0.1527747E+03  0.7546771E-02  0.1197104E+00
          2   -1    0    0  502    0 -0.00000000000E+00  0.00000000000E+00  0.28349389876E+04  0.28349389876E+04  0.00000000000E+00 0. -1.
         21   -1    0    0  501  502  0.00000000000E+00 -0.00000000000E+00 -0.71212146980E+01  0.71212146980E+01  0.00000000000E+00 0. -1.
         24    2    1    2    0    0 -0.75929116345E+02 -0.10600215240E+03  0.14058396259E+04  0.14141163878E+04  0.79614177515E+02 0.  0.
        -13    1    3    3    0    0  0.29711461742E+01  0.66355922305E+01  0.17063636263E+02  0.18547950732E+02  0.00000000000E+00 0.  1.
         14    1    3    3    0    0 -0.78900262519E+02 -0.11263774463E+03  0.13887759897E+04  0.13955684370E+04  0.00000000000E+00 0. -1.
          1    1    1    2  501    0  0.75929116345E+02  0.10600215240E+03  0.14219781469E+04  0.14279438145E+04  0.00000000000E+00 0. -1.
<mgrwt>
<rscale>  1 0.15277468E+03</rscale>
<asrwt>0</asrwt>
<pdfrwt beam="1">  1       21 0.10955738E-02 0.15277468E+03</pdfrwt>
<pdfrwt beam="2">  1        2 0.43614356E+00 0.15277468E+03</pdfrwt>
<totfact> 0.11206198E+05</totfact>
</mgrwt>
</event>
<event>
 6    2  0.7993170E+000  0.8479850E+02  0.7546771E-02  0.1315960E+00
         21   -1    0    0  501  502  0.00000000000E+00  0.00000000000E+00  0.32173970314E+01  0.32173970314E+01  0.00000000000E+00 0.  1.
          2   -1    0    0  502    0 -0.00000000000E+00 -0.00000000000E+00 -0.10237374313E+04  0.10237374313E+04  0.00000000000E+00 0. -1.
         24    2    1    2    0    0 -0.20103585275E+02 -0.89224408391E+01 -0.92756468281E+03  0.93143278137E+03  0.81896406005E+02 0.  0.
        -13    1    3    3    0    0  0.78258953644E+01 -0.17651117667E+02 -0.53485196784E+02  0.56863633969E+02  0.00000000000E+00 0.  1.
         14    1    3    3    0    0 -0.27929480639E+02  0.87286768282E+01 -0.87407948603E+03  0.87456914740E+03  0.00000000000E+00 0. -1.
          1    1    1    2  501    0  0.20103585275E+02  0.89224408391E+01 -0.92955351435E+02  0.95522046941E+02  0.00000000000E+00 0. -1.
<mgrwt>
<rscale>  1 0.84798499E+02</rscale>
<asrwt>0</asrwt>
<pdfrwt beam="1">  1       21 0.49498400E-03 0.84798499E+02</pdfrwt>
<pdfrwt beam="2">  1        2 0.15749812E+00 0.84798499E+02</pdfrwt>
<totfact> 0.33992930E+06</totfact>
</mgrwt>
</event>
<event>
 6    2  0.7993170E+000  0.1124680E+03  0.7546771E-02  0.1256067E+00
          2   -1    0    0  502    0 -0.00000000000E+00  0.00000000000E+00  0.12616463465E+02  0.12616463465E+02  0.00000000000E+00 0. -1.
         21   -1    0    0  501  502  0.00000000000E+00 -0.00000000000E+00 -0.80457405199E+03  0.80457405199E+03  0.00000000000E+00 0. -1.
         24    2    1    2    0    0 -0.81277173868E+01 -0.79346868476E+02 -0.57819275599E+03  0.58902963152E+03  0.79290973050E+02 0.  0.
        -13    1    3    3    0    0 -0.21585041450E+02  0.63796616142E+01 -0.71474240099E+02  0.74934512039E+02  0.00000000000E+00 0.  1.
         14    1    3    3    0    0  0.13457324063E+02 -0.85726530091E+02 -0.50671851589E+03  0.51409511948E+03  0.00000000000E+00 0. -1.
          1    1    1    2  501    0  0.81277173868E+01  0.79346868476E+02 -0.21376483253E+03  0.22816088393E+03  0.00000000000E+00 0. -1.
<mgrwt>
<rscale>  1 0.11246797E+03</rscale>
<asrwt>0</asrwt>
<pdfrwt beam="1">  1       21 0.12378065E+00 0.11246797E+03</pdfrwt>
<pdfrwt beam="2">  1        2 0.19409940E-02 0.11246797E+03</pdfrwt>
<totfact> 0.33106671E+04</totfact>
</mgrwt>
</event>
<event>
 6    2  0.7993170E+000  0.8666354E+02  0.7546771E-02  0.1311139E+00
          2   -1    0    0  502    0 -0.00000000000E+00  0.00000000000E+00  0.11914662225E+04  0.11914662225E+04  0.00000000000E+00 0. -1.
         21   -1    0    0  501  502  0.00000000000E+00 -0.00000000000E+00 -0.16550879067E+02  0.16550879067E+02  0.00000000000E+00 0. -1.
         24    2    1    2    0    0 -0.29209936947E+02  0.11616380142E+02  0.11733468340E+04  0.11765429705E+04  0.80761425451E+02 0.  0.
        -13    1    3    3    0    0 -0.15374451634E+02 -0.22933715532E+01  0.38405249150E+02  0.41431829291E+02  0.00000000000E+00 0.  1.
         14    1    3    3    0    0 -0.13835485313E+02  0.13909751695E+02  0.11349415848E+04  0.11351111412E+04  0.00000000000E+00 0. -1.
          1    1    1    2  501    0  0.29209936947E+02 -0.11616380142E+02  0.15685094112E+01  0.31474131057E+02  0.00000000000E+00 0. -1.
<mgrwt>
<rscale>  1 0.86663536E+02</rscale>
<asrwt>0</asrwt>
<pdfrwt beam="1">  1       21 0.25462900E-02 0.86663536E+02</pdfrwt>
<pdfrwt beam="2">  1        2 0.18330243E+00 0.86663536E+02</pdfrwt>
<totfact> 0.21032158E+05</totfact>
</mgrwt>
</event>
<event>
 6    2  0.7993170E+000  0.8432224E+02  0.7546771E-02  0.1317215E+00
         21   -1    0    0  501  502  0.00000000000E+00  0.00000000000E+00  0.99729268521E+01  0.99729268521E+01  0.00000000000E+00 0. -1.
          2   -1    0    0  502    0 -0.00000000000E+00 -0.00000000000E+00 -0.68146894468E+03  0.68146894468E+03  0.00000000000E+00 0. -1.
         24    2    1    2    0    0  0.26332895642E+02  0.10478196448E+02 -0.65106855312E+03  0.65650628355E+03  0.79416783340E+02 0.  0.
        -13    1    3    3    0    0  0.36424867495E+02 -0.80112108302E+01 -0.13640133246E+03  0.14140818211E+03  0.00000000000E+00 0.  1.
         14    1    3    3    0    0 -0.10091971852E+02  0.18489407278E+02 -0.51466722066E+03  0.51509810144E+03  0.00000000000E+00 0. -1.
          1    1    1    2  501    0 -0.26332895642E+02 -0.10478196448E+02 -0.20427464707E+02  0.34935587988E+02  0.00000000000E+00 0. -1.
<mgrwt>
<rscale>  1 0.84322236E+02</rscale>
<asrwt>0</asrwt>
<pdfrwt beam="1">  1       21 0.15342965E-02 0.84322236E+02</pdfrwt>
<pdfrwt beam="2">  1        2 0.10484137E+00 0.84322236E+02</pdfrwt>
<totfact> 0.97124933E+05</totfact>
</mgrwt>
</event>
<event>
 6    2  0.7993170E+000  0.8067995E+02  0.7546771E-02  0.1327133E+00
         -1   -1    0    0    0  501 -0.00000000000E+00  0.00000000000E+00  0.13656007383E+02  0.13656007383E+02  0.00000000000E+00 0.  1.
         21   -1    0    0  501  502  0.00000000000E+00 -0.00000000000E+00 -0.25064065706E+03  0.25064065706E+03  0.00000000000E+00 0. -1.
         24    2    1    2    0    0 -0.22796915583E+02 -0.51332805425E+01 -0.11739842183E+03  0.14244874358E+03  0.77221792061E+02 0.  0.
        -13    1    3    3    0    0  0.22637561720E+01 -0.33150941727E+02 -0.21840944556E+02  0.39763505737E+02  0.00000000000E+00 0.  1.
         14    1    3    3    0    0 -0.25060671755E+02  0.28017661185E+02 -0.95557477279E+02  0.10268523784E+03  0.00000000000E+00 0. -1.
         -2    1    1    2    0  502  0.22796915583E+02  0.51332805425E+01 -0.11958622784E+03  0.12184792086E+03  0.00000000000E+00 0.  1.
<mgrwt>
<rscale>  1 0.80679955E+02</rscale>
<asrwt>0</asrwt>
<pdfrwt beam="1">  1       21 0.38560103E-01 0.80679955E+02</pdfrwt>
<pdfrwt beam="2">  1       -1 0.21009241E-02 0.80679955E+02</pdfrwt>
<totfact> 0.33638440E+05</totfact>
</mgrwt>
</event>
<event>
 6    2  0.7993170E+000  0.8848017E+02  0.7546771E-02  0.1306574E+00
          2   -1    0    0  502    0 -0.00000000000E+00  0.00000000000E+00  0.20272255482E+04  0.20272255482E+04  0.00000000000E+00 0. -1.
         21   -1    0    0  501  502  0.00000000000E+00 -0.00000000000E+00 -0.33697435803E+01  0.33697435803E+01  0.00000000000E+00 0.  1.
         24    2    1    2    0    0 -0.28687180251E+02 -0.66113836161E+01  0.19343468395E+04  0.19363693955E+04  0.83439052069E+02 0.  0.
        -11    1    3    3    0    0 -0.35734943705E+02  0.32125708729E+02  0.91259821977E+03  0.91386243937E+03  0.00000000000E+00 0.  1.
         12    1    3    3    0    0  0.70477634542E+01 -0.38737092345E+02  0.10217486197E+04  0.10225069561E+04  0.00000000000E+00 0. -1.
          1    1    1    2  501    0  0.28687180251E+02  0.66113836161E+01  0.89508965096E+02  0.94225896317E+02  0.00000000000E+00 0. -1.
<mgrwt>
<rscale>  1 0.88480168E+02</rscale>
<asrwt>0</asrwt>
<pdfrwt beam="1">  1       21 0.51842371E-03 0.88480168E+02</pdfrwt>
<pdfrwt beam="2">  1        2 0.31187988E+00 0.88480168E+02</pdfrwt>
<totfact> 0.95898270E+05</totfact>
</mgrwt>
</event>
<event>
 6    2  0.7993170E+000  0.1149083E+03  0.7546771E-02  0.1251741E+00
         21   -1    0    0  501  502  0.00000000000E+00  0.00000000000E+00  0.67972951036E+02  0.67972951036E+02  0.00000000000E+00 0. -1.
          2   -1    0    0  502    0 -0.00000000000E+00 -0.00000000000E+00 -0.15174683323E+03  0.15174683323E+03  0.00000000000E+00 0. -1.
         24    2    1    2    0    0 -0.12763892421E+02  0.79447724067E+02 -0.78335683124E+02  0.13906972650E+03  0.82030797678E+02 0.  0.
        -11    1    3    3    0    0 -0.22480802363E+02 -0.88735063425E+01 -0.71126096159E+01  0.25193546897E+02  0.00000000000E+00 0.  1.
         12    1    3    3    0    0  0.97169099422E+01  0.88321230410E+02 -0.71223073509E+02  0.11387617960E+03  0.00000000000E+00 0. -1.
          1    1    1    2  501    0  0.12763892421E+02 -0.79447724067E+02 -0.54381990683E+01  0.80650057770E+02  0.00000000000E+00 0. -1.
<mgrwt>
<rscale>  1 0.11490827E+03</rscale>
<asrwt>0</asrwt>
<pdfrwt beam="1">  1       21 0.10457377E-01 0.11490827E+03</pdfrwt>
<pdfrwt beam="2">  1        2 0.23345667E-01 0.11490827E+03</pdfrwt>
<totfact> 0.20843167E+05</totfact>
</mgrwt>
</event>
<event>
 6    2  0.7993170E+000  0.1024950E+03  0.7546771E-02  0.1275135E+00
         21   -1    0    0  501  502  0.00000000000E+00  0.00000000000E+00  0.18184474332E+02  0.18184474332E+02  0.00000000000E+00 0. -1.
          2   -1    0    0  502    0 -0.00000000000E+00 -0.00000000000E+00 -0.38357858845E+03  0.38357858845E+03  0.00000000000E+00 0. -1.
         24    2    1    2    0    0  0.45504869089E+02  0.44408737158E+02 -0.24589345286E+03  0.26639971070E+03  0.80388970967E+02 0.  0.
        -11    1    3    3    0    0  0.15024359039E+02 -0.23092328981E+02 -0.52098685050E+02  0.58934370330E+02  0.00000000000E+00 0.  1.
         12    1    3    3    0    0  0.30480510050E+02  0.67501066139E+02 -0.19379476781E+03  0.20746534037E+03  0.00000000000E+00 0. -1.
          1    1    1    2  501    0 -0.45504869089E+02 -0.44408737158E+02 -0.11950066126E+03  0.13536335208E+03  0.00000000000E+00 0. -1.
<mgrwt>
<rscale>  1 0.10249495E+03</rscale>
<asrwt>0</asrwt>
<pdfrwt beam="1">  1       21 0.27976114E-02 0.10249495E+03</pdfrwt>
<pdfrwt beam="2">  1        2 0.59012091E-01 0.10249495E+03</pdfrwt>
<totfact> 0.70634382E+05</totfact>
</mgrwt>
</event>
<event>
 6    2  0.7993170E+000  0.1453412E+03  0.7546771E-02  0.1206317E+00
         -3   -1    0    0    0  501 -0.00000000000E+00  0.00000000000E+00  0.15610661549E+02  0.15610661549E+02  0.00000000000E+00 0.  1.
         21   -1    0    0  501  502  0.00000000000E+00 -0.00000000000E+00 -0.11821133417E+04  0.11821133417E+04  0.00000000000E+00 0.  1.
         24    2    1    2    0    0 -0.12119905189E+03 -0.54234279172E+01 -0.74807576385E+03  0.76206392012E+03  0.80034031143E+02 0.  0.
        -11    1    3    3    0    0 -0.62040711561E+02 -0.29333278719E+02 -0.22844119727E+03  0.23852645920E+03  0.00000000000E+00 0.  1.
         12    1    3    3    0    0 -0.59158340324E+02  0.23909850802E+02 -0.51963456658E+03  0.52353746091E+03  0.00000000000E+00 0. -1.
         -4    1    1    2    0  502  0.12119905189E+03  0.54234279172E+01 -0.41842691634E+03  0.43566008316E+03  0.00000000000E+00 0.  1.
<mgrwt>
<rscale>  1 0.14534122E+03</rscale>
<asrwt>0</asrwt>
<pdfrwt beam="1">  1       21 0.18186363E+00 0.14534122E+03</pdfrwt>
<pdfrwt beam="2">  1       -3 0.24016398E-02 0.14534122E+03</pdfrwt>
<totfact> 0.62744439E+03</totfact>
</mgrwt>
</event>
<event>
 6    2  0.7993170E+000  0.8365679E+02  0.7546771E-02  0.1318983E+00
          2   -1    0    0  502    0 -0.00000000000E+00  0.00000000000E+00  0.24286659482E+04  0.24286659482E+04  0.00000000000E+00 0. -1.
         21   -1    0    0  501  502  0.00000000000E+00 -0.00000000000E+00 -0.15633745302E+01  0.15633745302E+01  0.00000000000E+00 0.  1.
         24    2    1    2    0    0  0.20404572974E+02  0.80261729588E+01  0.11919350626E+04  0.11948672113E+04  0.80732230500E+02 0.  0.
        -13    1    3    3    0    0  0.21298137038E+02  0.86370788959E+01  0.88622638844E+02  0.91554256530E+02  0.00000000000E+00 0.  1.
         14    1    3    3    0    0 -0.89356406478E+00 -0.61090593705E+00  0.11033124238E+04  0.11033129547E+04  0.00000000000E+00 0. -1.
          1    1    1    2  501    0 -0.20404572974E+02 -0.80261729588E+01  0.12351675111E+04  0.12353621115E+04  0.00000000000E+00 0. -1.
<mgrwt>
<rscale>  1 0.83656793E+02</rscale>
<asrwt>0</asrwt>
<pdfrwt beam="1">  1       21 0.24052110E-03 0.83656793E+02</pdfrwt>
<pdfrwt beam="2">  1        2 0.37363790E+00 0.83656793E+02</pdfrwt>
<totfact> 0.19152567E+06</totfact>
</mgrwt>
</event>
<event>
 6    2  0.7993170E+000  0.1546274E+03  0.7546771E-02  0.1194899E+00
         21   -1    0    0  501  502  0.00000000000E+00  0.00000000000E+00  0.28006348191E+02  0.28006348191E+02  0.00000000000E+00 0.  1.
          2   -1    0    0  502    0 -0.00000000000E+00 -0.00000000000E+00 -0.83784597259E+03  0.83784597259E+03  0.00000000000E+00 0. -1.
         24    2    1    2    0    0 -0.10804919136E+03 -0.74585039784E+02 -0.27864893917E+03  0.31867675482E+03  0.81682843055E+02 0.  0.
        -13    1    3    3    0    0 -0.99427800610E+02 -0.46140800258E+02 -0.14503330931E+03  0.18179527439E+03  0.00000000000E+00 0.  1.
         14    1    3    3    0    0 -0.86213907449E+01 -0.28444239526E+02 -0.13361562986E+03  0.13688148042E+03  0.00000000000E+00 0. -1.
          1    1    1    2  501    0  0.10804919136E+03  0.74585039784E+02 -0.53119068523E+03  0.54717556596E+03  0.00000000000E+00 0. -1.
<mgrwt>
<rscale>  1 0.15462743E+03</rscale>
<asrwt>0</asrwt>
<pdfrwt beam="1">  1       21 0.43086695E-02 0.15462743E+03</pdfrwt>
<pdfrwt beam="2">  1        2 0.12889936E+00 0.15462743E+03</pdfrwt>
<totfact> 0.14591695E+05</totfact>
</mgrwt>
</event>
<event>
 6    2  0.7993170E+000  0.8395986E+02  0.7546771E-02  0.1318175E+00
          2   -1    0    0  502    0 -0.00000000000E+00  0.00000000000E+00  0.99363137265E+02  0.99363137265E+02  0.00000000000E+00 0. -1.
         21   -1    0    0  501  502  0.00000000000E+00 -0.00000000000E+00 -0.27691374577E+02  0.27691374577E+02  0.00000000000E+00 0.  1.
         24    2    1    2    0    0 -0.20269541608E+02  0.44129964550E+00  0.63168849182E+02  0.10506932136E+03  0.81475209249E+02 0.  0.
        -11    1    3    3    0    0 -0.21771514920E+02  0.39231112131E+02  0.29625406793E+02  0.53765637247E+02  0.00000000000E+00 0.  1.
         12    1    3    3    0    0  0.15019733120E+01 -0.38789812486E+02  0.33543442389E+02  0.51303684115E+02  0.00000000000E+00 0. -1.
          1    1    1    2  501    0  0.20269541608E+02 -0.44129964550E+00  0.85029135057E+01  0.21985190480E+02  0.00000000000E+00 0. -1.
<mgrwt>
<rscale>  1 0.83959864E+02</rscale>
<asrwt>0</asrwt>
<pdfrwt beam="1">  1       21 0.42602115E-02 0.83959864E+02</pdfrwt>
<pdfrwt beam="2">  1        2 0.15286636E-01 0.83959864E+02</pdfrwt>
<totfact> 0.14965819E+06</totfact>
</mgrwt>
</event>
<event>
 6    2  0.7993170E+000  0.8638201E+02  0.7546771E-02  0.1311858E+00
         -3   -1    0    0    0  501 -0.00000000000E+00  0.00000000000E+00  0.34090009770E+03  0.34090009770E+03  0.00000000000E+00 0.  1.
         21   -1    0    0  501  502  0.00000000000E+00 -0.00000000000E+00 -0.51371395228E+02  0.51371395228E+02  0.00000000000E+00 0.  1.
         24    2    1    2    0    0 -0.20498163526E+02 -0.25410736851E+02  0.32951533597E+03  0.34064968442E+03  0.79974812284E+02 0.  0.
        -13    1    3    3    0    0 -0.98496898665E+01 -0.36707804342E+02  0.32040105736E+03  0.32264735680E+03  0.00000000000E+00 0.  1.
         14    1    3    3    0    0 -0.10648473660E+02  0.11297067491E+02  0.91142786064E+01  0.18002327619E+02  0.00000000000E+00 0. -1.
         -4    1    1    2    0  502  0.20498163526E+02  0.25410736851E+02 -0.39986633498E+02  0.51621808510E+02  0.00000000000E+00 0.  1.
<mgrwt>
<rscale>  1 0.86382005E+02</rscale>
<asrwt>0</asrwt>
<pdfrwt beam="1">  1       21 0.79032918E-02 0.86382005E+02</pdfrwt>
<pdfrwt beam="2">  1       -3 0.52446167E-01 0.86382005E+02</pdfrwt>
<totfact> 0.20588799E+04</totfact>
</mgrwt>
</event>
<event>
 6    2  0.7993170E+000  0.8519915E+02  0.7546771E-02  0.1314913E+00
          2   -1    0    0  502    0 -0.00000000000E+00  0.00000000000E+00  0.18003618303E+04  0.18003618303E+04  0.00000000000E+00 0. -1.
         21   -1    0    0  501  502  0.00000000000E+00 -0.00000000000E+00 -0.24237605632E+01  0.24237605632E+01  0.00000000000E+00 0. -1.
         24    2    1    2    0    0 -0.21909119350E+02  0.18727661475E+02  0.16418251099E+04  0.16440342411E+04  0.80175804782E+02 0.  0.
        -11    1    3    3    0    0  0.22170703284E+02  0.25638741115E+02  0.40904257706E+03  0.41044453338E+03  0.00000000000E+00 0.  1.
         12    1    3    3    0    0 -0.44079822634E+02 -0.69110796402E+01  0.12327825329E+04  0.12335897078E+04  0.00000000000E+00 0. -1.
          1    1    1    2  501    0  0.21909119350E+02 -0.18727661475E+02  0.15611295979E+03  0.15875134969E+03  0.00000000000E+00 0. -1.
<mgrwt>
<rscale>  1 0.85199146E+02</rscale>
<asrwt>0</asrwt>
<pdfrwt beam="1">  1       21 0.37288768E-03 0.85199146E+02</pdfrwt>
<pdfrwt beam="2">  1        2 0.27697767E+00 0.85199146E+02</pdfrwt>
<totfact> 0.20548051E+06</totfact>
</mgrwt>
</event>
<event>
 6    2  0.7993170E+000  0.8514922E+02  0.7546771E-02  0.1315043E+00
          2   -1    0    0  502    0 -0.00000000000E+00  0.00000000000E+00  0.77120949554E+03  0.77120949554E+03  0.00000000000E+00 0. -1.
         21   -1    0    0  501  502  0.00000000000E+00 -0.00000000000E+00 -0.54566024209E+01  0.54566024209E+01  0.00000000000E+00 0. -1.
         24    2    1    2    0    0  0.18794910406E+02 -0.32240221225E+02  0.39695071745E+03  0.40598061767E+03  0.76535673487E+02 0.  0.
        -11    1    3    3    0    0 -0.97502225385E+01 -0.29222831590E+02  0.56761591542E+02  0.64582652470E+02  0.00000000000E+00 0.  1.
         12    1    3    3    0    0  0.28545132945E+02 -0.30173896351E+01  0.34018912591E+03  0.34139796520E+03  0.00000000000E+00 0. -1.
          1    1    1    2  501    0 -0.18794910406E+02  0.32240221225E+02  0.36880217567E+03  0.37068548029E+03  0.00000000000E+00 0. -1.
<mgrwt>
<rscale>  1 0.85149221E+02</rscale>
<asrwt>0</asrwt>
<pdfrwt beam="1">  1       21 0.83947791E-03 0.85149221E+02</pdfrwt>
<pdfrwt beam="2">  1        2 0.11864753E+00 0.85149221E+02</pdfrwt>
<totfact> 0.21622364E+06</totfact>
</mgrwt>
</event>
<event>
 6    2  0.7993170E+000  0.1008969E+03  0.7546771E-02  0.1278421E+00
         21   -1    0    0  501  502  0.00000000000E+00  0.00000000000E+00  0.22103120519E+02  0.22103120519E+02  0.00000000000E+00 0.  1.
          2   -1    0    0  502    0 -0.00000000000E+00 -0.00000000000E+00 -0.31851772322E+03  0.31851772322E+03  0.00000000000E+00 0. -1.
         24    2    1    2    0    0 -0.56126225417E+02  0.66849464324E+01 -0.24187279652E+03  0.26207372215E+03  0.83578373143E+02 0.  0.
        -13    1    3    3    0    0 -0.42610263755E+02  0.30535031151E+02 -0.67027221853E+02  0.85092133444E+02  0.00000000000E+00 0.  1.
         14    1    3    3    0    0 -0.13515961662E+02 -0.23850084718E+02 -0.17484557466E+03  0.17698158871E+03  0.00000000000E+00 0. -1.
          1    1    1    2  501    0  0.56126225417E+02 -0.66849464324E+01 -0.54541806181E+02  0.78547121588E+02  0.00000000000E+00 0. -1.
<mgrwt>
<rscale>  1 0.10089691E+03</rscale>
<asrwt>0</asrwt>
<pdfrwt beam="1">  1       21 0.34004801E-02 0.10089691E+03</pdfrwt>
<pdfrwt beam="2">  1        2 0.49002726E-01 0.10089691E+03</pdfrwt>
<totfact> 0.62367425E+05</totfact>
</mgrwt>
</event>
<event>
 6    2  0.7993170E+000  0.9095399E+02  0.7546771E-02  0.1300558E+00
         21   -1    0    0  501  502  0.00000000000E+00  0.00000000000E+00  0.23895498278E+02  0.23895498278E+02  0.00000000000E+00 0.  1.
         -1   -1    0    0    0  501 -0.00000000000E+00 -0.00000000000E+00 -0.18520985408E+03  0.18520985408E+03  0.00000000000E+00 0.  1.
         24    2    1    2    0    0 -0.35064933787E+02  0.18594228828E+02 -0.12944268743E+03  0.15820252167E+03  0.81837238511E+02 0.  0.
        -13    1    3    3    0    0 -0.10935474689E+02  0.23224751260E+02 -0.13108791695E+03  0.13357775132E+03  0.00000000000E+00 0.  1.
         14    1    3    3    0    0 -0.24129459099E+02 -0.46305224319E+01  0.16452295254E+01  0.24624770346E+02  0.00000000000E+00 0. -1.
         -2    1    1    2    0  502  0.35064933787E+02 -0.18594228828E+02 -0.31871668379E+02  0.50902830692E+02  0.00000000000E+00 0.  1.
<mgrwt>
<rscale>  1 0.90953991E+02</rscale>
<asrwt>0</asrwt>
<pdfrwt beam="1">  1       21 0.36762307E-02 0.90953991E+02</pdfrwt>
<pdfrwt beam="2">  1       -1 0.28493822E-01 0.90953991E+02</pdfrwt>
<totfact> 0.43122281E+05</totfact>
</mgrwt>
</event>
<event>
 6    2  0.7993170E+000  0.8588094E+02  0.7546771E-02  0.1313145E+00
         21   -1    0    0  501  502  0.00000000000E+00  0.00000000000E+00  0.20035962709E+02  0.20035962709E+02  0.00000000000E+00 0. -1.
          4   -1    0    0  502    0 -0.00000000000E+00 -0.00000000000E+00 -0.20079983978E+03  0.20079983978E+03  0.00000000000E+00 0. -1.
         24    2    1    2    0    0  0.30792550123E+02  0.14840078812E+01 -0.87480206837E+02  0.12259005675E+03  0.80157045880E+02 0.  0.
        -11    1    3    3    0    0 -0.11099782380E+02  0.21862639634E+02 -0.12144181326E+01  0.24549032405E+02  0.00000000000E+00 0.  1.
         12    1    3    3    0    0  0.41892332503E+02 -0.20378631753E+02 -0.86265788704E+02  0.98041024349E+02  0.00000000000E+00 0. -1.
          3    1    1    2  501    0 -0.30792550123E+02 -0.14840078812E+01 -0.93283670230E+02  0.98245745730E+02  0.00000000000E+00 0. -1.
<mgrwt>
<rscale>  1 0.85880938E+02</rscale>
<asrwt>0</asrwt>
<pdfrwt beam="1">  1       21 0.30824557E-02 0.85880938E+02</pdfrwt>
<pdfrwt beam="2">  1        4 0.30892284E-01 0.85880938E+02</pdfrwt>
<totfact> 0.22380795E+05</totfact>
</mgrwt>
</event>
<event>
 6    2  0.7993170E+000  0.8262191E+02  0.7546771E-02  0.1321771E+00
          2   -1    0    0  502    0 -0.00000000000E+00  0.00000000000E+00  0.14650879262E+04  0.14650879262E+04  0.00000000000E+00 0. -1.
         21   -1    0    0  501  502  0.00000000000E+00 -0.00000000000E+00 -0.21120048397E+01  0.21120048397E+01  0.00000000000E+00 0. -1.
         24    2    1    2    0    0  0.23719263274E+02 -0.12289466917E+02  0.12099697153E+04  0.12127873237E+04  0.78184053602E+02 0.  0.
        -13    1    3    3    0    0  0.29594981202E+01 -0.17052088121E+01  0.95299422967E+00  0.35460631999E+01  0.00000000000E+00 0.  1.
         14    1    3    3    0    0  0.20759765154E+02 -0.10584258104E+02  0.12090167210E+04  0.12092412605E+04  0.00000000000E+00 0. -1.
          1    1    1    2  501    0 -0.23719263274E+02  0.12289466917E+02  0.25300620613E+03  0.25441260736E+03  0.00000000000E+00 0. -1.
<mgrwt>
<rscale>  1 0.82621914E+02</rscale>
<asrwt>0</asrwt>
<pdfrwt beam="1">  1       21 0.32492499E-03 0.82621914E+02</pdfrwt>
<pdfrwt beam="2">  1        2 0.22539733E+00 0.82621914E+02</pdfrwt>
<totfact> 0.37246511E+06</totfact>
</mgrwt>
</event>
<event>
 6    2  0.7993170E+000  0.7508945E+02  0.7546771E-02  0.1343594E+00
          2   -1    0    0  502    0 -0.00000000000E+00  0.00000000000E+00  0.25149386518E+04  0.25149386518E+04  0.00000000000E+00 0. -1.
         21   -1    0    0  501  502  0.00000000000E+00 -0.00000000000E+00 -0.59426143665E+01  0.59426143665E+01  0.00000000000E+00 0. -1.
         24    2    1    2    0    0 -0.27876968772E+02  0.14091940908E+02  0.24689591681E+04  0.24701007670E+04  0.68284093068E+02 0.  0.
        -13    1    3    3    0    0 -0.47226743808E+02  0.91506107638E+01  0.11705856148E+04  0.11715736343E+04  0.00000000000E+00 0.  1.
         14    1    3    3    0    0  0.19349775036E+02  0.49413301439E+01  0.12983735533E+04  0.12985271328E+04  0.00000000000E+00 0. -1.
          1    1    1    2  501    0  0.27876968772E+02 -0.14091940908E+02  0.40036869345E+02  0.50780499145E+02  0.00000000000E+00 0. -1.
<mgrwt>
<rscale>  1 0.75089450E+02</rscale>
<asrwt>0</asrwt>
<pdfrwt beam="1">  1       21 0.91425037E-03 0.75089450E+02</pdfrwt>
<pdfrwt beam="2">  1        2 0.38691279E+00 0.75089450E+02</pdfrwt>
<totfact> 0.22447792E+05</totfact>
</mgrwt>
</event>
<event>
 6    2  0.7993170E+000  0.1047430E+03  0.7546771E-02  0.1270627E+00
         21   -1    0    0  501  502  0.00000000000E+00  0.00000000000E+00  0.97161008418E+02  0.97161008418E+02  0.00000000000E+00 0. -1.
          4   -1    0    0  502    0 -0.00000000000E+00 -0.00000000000E+00 -0.92223450101E+02  0.92223450101E+02  0.00000000000E+00 0. -1.
         24    2    1    2    0    0 -0.48388197119E+02 -0.47654158110E+02  0.41009579810E+02  0.11248499727E+03  0.79741786846E+02 0.  0.
        -13    1    3    3    0    0 -0.18280510526E+02  0.99395617542E+01  0.42672269093E+02  0.47475198814E+02  0.00000000000E+00 0.  1.
         14    1    3    3    0    0 -0.30107686593E+02 -0.57593719864E+02 -0.16626892826E+01  0.65009798457E+02  0.00000000000E+00 0. -1.
          3    1    1    2  501    0  0.48388197119E+02  0.47654158110E+02 -0.36072021493E+02  0.76899461248E+02  0.00000000000E+00 0. -1.
<mgrwt>
<rscale>  1 0.10474297E+03</rscale>
<asrwt>0</asrwt>
<pdfrwt beam="1">  1       21 0.14947847E-01 0.10474297E+03</pdfrwt>
<pdfrwt beam="2">  1        4 0.14188223E-01 0.10474297E+03</pdfrwt>
<totfact> 0.64085237E+04</totfact>
</mgrwt>
</event>
<event>
 6    2  0.7993170E+000  0.8063990E+02  0.7546771E-02  0.1327245E+00
         21   -1    0    0  501  502  0.00000000000E+00  0.00000000000E+00  0.15656656693E+01  0.15656656693E+01  0.00000000000E+00 0.  1.
          2   -1    0    0  502    0 -0.00000000000E+00 -0.00000000000E+00 -0.16355141586E+04  0.16355141586E+04  0.00000000000E+00 0. -1.
         24    2    1    2    0    0 -0.19503729551E+02  0.61732687348E+01 -0.12717608831E+04  0.12743149288E+04  0.78001853271E+02 0.  0.
        -11    1    3    3    0    0  0.29030929198E+02  0.12166935712E+02 -0.44907991846E+03  0.45018174368E+03  0.00000000000E+00 0.  1.
         12    1    3    3    0    0 -0.48534658750E+02 -0.59936669772E+01 -0.82268096467E+03  0.82413318509E+03  0.00000000000E+00 0. -1.
          1    1    1    2  501    0  0.19503729551E+02 -0.61732687348E+01 -0.36218760980E+03  0.36276489550E+03  0.00000000000E+00 0. -1.
<mgrwt>
<rscale>  1 0.80639902E+02</rscale>
<asrwt>0</asrwt>
<pdfrwt beam="1">  1       21 0.24087048E-03 0.80639902E+02</pdfrwt>
<pdfrwt beam="2">  1        2 0.25161877E+00 0.80639902E+02</pdfrwt>
<totfact> 0.47832161E+06</totfact>
</mgrwt>
</event>
<event>
 6    2  0.7993170E+000  0.1192137E+03  0.7546771E-02  0.1244400E+00
         21   -1    0    0  501  502  0.00000000000E+00  0.00000000000E+00  0.44702191509E+01  0.44702191509E+01  0.00000000000E+00 0. -1.
          2   -1    0    0  502    0 -0.00000000000E+00 -0.00000000000E+00 -0.28125581701E+04  0.28125581701E+04  0.00000000000E+00 0. -1.
         24    2    1    2    0    0  0.30723393254E+02 -0.83123187052E+02 -0.21057140076E+04  0.21090859146E+04  0.79740342641E+02 0.  0.
        -13    1    3    3    0    0  0.16774942664E+02 -0.13718302965E+02 -0.10986158056E+03  0.11197837925E+03  0.00000000000E+00 0.  1.
         14    1    3    3    0    0  0.13948450590E+02 -0.69404884088E+02 -0.19958524270E+04  0.19971075353E+04  0.00000000000E+00 0. -1.
          1    1    1    2  501    0 -0.30723393254E+02  0.83123187052E+02 -0.70237394340E+03  0.70794247470E+03  0.00000000000E+00 0. -1.
<mgrwt>
<rscale>  1 0.11921373E+03</rscale>
<asrwt>0</asrwt>
<pdfrwt beam="1">  1       21 0.68772391E-03 0.11921373E+03</pdfrwt>
<pdfrwt beam="2">  1        2 0.43270259E+00 0.11921373E+03</pdfrwt>
<totfact> 0.24110269E+05</totfact>
</mgrwt>
</event>
<event>
 6    2  0.7993170E+000  0.9261083E+02  0.7546771E-02  0.1296650E+00
         -1   -1    0    0    0  501 -0.00000000000E+00  0.00000000000E+00  0.59056411495E+02  0.59056411495E+02  0.00000000000E+00 0.  1.
         21   -1    0    0  501  502  0.00000000000E+00 -0.00000000000E+00 -0.11209879407E+03  0.11209879407E+03  0.00000000000E+00 0.  1.
         24    2    1    2    0    0  0.30876233594E+02  0.18236771760E+02  0.15404854868E+02  0.93883309259E+02  0.85386442476E+02 0.  0.
        -11    1    3    3    0    0 -0.12570273855E+02  0.22736126380E+02  0.36958467012E+02  0.45176005926E+02  0.00000000000E+00 0.  1.
         12    1    3    3    0    0  0.43446507448E+02 -0.44993546205E+01 -0.21553612144E+02  0.48707303332E+02  0.00000000000E+00 0. -1.
         -2    1    1    2    0  502 -0.30876233594E+02 -0.18236771760E+02 -0.68447237443E+02  0.77271896306E+02  0.00000000000E+00 0.  1.
<mgrwt>
<rscale>  1 0.92610832E+02</rscale>
<asrwt>0</asrwt>
<pdfrwt beam="1">  1       21 0.17245968E-01 0.92610832E+02</pdfrwt>
<pdfrwt beam="2">  1       -1 0.90856017E-02 0.92610832E+02</pdfrwt>
<totfact> 0.18280272E+05</totfact>
</mgrwt>
</event>
<event>
 6    2  0.7993170E+000  0.9230981E+02  0.7546771E-02  0.1297353E+00
         21   -1    0    0  501  502  0.00000000000E+00  0.00000000000E+00  0.13526272611E+03  0.13526272611E+03  0.00000000000E+00 0. -1.
         -3   -1    0    0    0  501 -0.00000000000E+00 -0.00000000000E+00 -0.35565071902E+02  0.35565071902E+02  0.00000000000E+00 0.  1.
         24    2    1    2    0    0  0.22102406873E+02  0.40409440266E+02  0.72131958819E+02  0.11714999241E+03  0.79997887386E+02 0.  0.
        -13    1    3    3    0    0 -0.38669419999E+01  0.27864382714E+02 -0.10191612921E+02  0.29920662399E+02  0.00000000000E+00 0.  1.
         14    1    3    3    0    0  0.25969348873E+02  0.12545057553E+02  0.82323571741E+02  0.87229330010E+02  0.00000000000E+00 0. -1.
         -4    1    1    2    0  502 -0.22102406873E+02 -0.40409440266E+02  0.27565695393E+02  0.53677805606E+02  0.00000000000E+00 0.  1.
<mgrwt>
<rscale>  1 0.92309811E+02</rscale>
<asrwt>0</asrwt>
<pdfrwt beam="1">  1       21 0.20809650E-01 0.92309811E+02</pdfrwt>
<pdfrwt beam="2">  1       -3 0.54715496E-02 0.92309811E+02</pdfrwt>
<totfact> 0.19029484E+05</totfact>
</mgrwt>
</event>
<event>
 6    2  0.7993170E+000  0.8981345E+02  0.7546771E-02  0.1303304E+00
         -1   -1    0    0    0  501 -0.00000000000E+00  0.00000000000E+00  0.50422388190E+03  0.50422388190E+03  0.00000000000E+00 0.  1.
         21   -1    0    0  501  502  0.00000000000E+00 -0.00000000000E+00 -0.87291249334E+01  0.87291249334E+01  0.00000000000E+00 0. -1.
         24    2    1    2    0    0 -0.38595764595E+02  0.12029992458E+02  0.38375705686E+03  0.39412680017E+03  0.80200387561E+02 0.  0.
        -11    1    3    3    0    0  0.23037605798E+02 -0.85875476358E-01  0.16255519149E+03  0.16417956309E+03  0.00000000000E+00 0.  1.
         12    1    3    3    0    0 -0.61633370393E+02  0.12115867934E+02  0.22120186537E+03  0.22994723709E+03  0.00000000000E+00 0. -1.
         -2    1    1    2    0  502  0.38595764595E+02 -0.12029992458E+02  0.11173770011E+03  0.11882620666E+03  0.00000000000E+00 0.  1.
<mgrwt>
<rscale>  1 0.89813451E+02</rscale>
<asrwt>0</asrwt>
<pdfrwt beam="1">  1       21 0.13429427E-02 0.89813451E+02</pdfrwt>
<pdfrwt beam="2">  1       -1 0.77572882E-01 0.89813451E+02</pdfrwt>
<totfact> 0.35833257E+05</totfact>
</mgrwt>
</event>
<event>
 6    2  0.7993170E+000  0.7813504E+02  0.7546771E-02  0.1334429E+00
         -1   -1    0    0    0  501 -0.00000000000E+00  0.00000000000E+00  0.35050778737E+03  0.35050778737E+03  0.00000000000E+00 0.  1.
         21   -1    0    0  501  502  0.00000000000E+00 -0.00000000000E+00 -0.88421571345E+01  0.88421571345E+01  0.00000000000E+00 0. -1.
         24    2    1    2    0    0  0.24055479400E+02  0.34128487711E+01  0.18517937729E+03  0.20098877191E+03  0.74261504380E+02 0.  0.
        -13    1    3    3    0    0  0.39078091685E+02  0.28642311155E+02  0.12393862877E+03  0.13307239736E+03  0.00000000000E+00 0.  1.
         14    1    3    3    0    0 -0.15022612284E+02 -0.25229462384E+02  0.61240748523E+02  0.67916374548E+02  0.00000000000E+00 0. -1.
         -2    1    1    2    0  502 -0.24055479400E+02 -0.34128487711E+01  0.15648625295E+03  0.15836117260E+03  0.00000000000E+00 0.  1.
<mgrwt>
<rscale>  1 0.78135041E+02</rscale>
<asrwt>0</asrwt>
<pdfrwt beam="1">  1       21 0.13603321E-02 0.78135041E+02</pdfrwt>
<pdfrwt beam="2">  1       -1 0.53924264E-01 0.78135041E+02</pdfrwt>
<totfact> 0.69337916E+05</totfact>
</mgrwt>
</event>
<event>
 6    2  0.7993170E+000  0.8877550E+02  0.7546771E-02  0.1305844E+00
          2   -1    0    0  502    0 -0.00000000000E+00  0.00000000000E+00  0.13122766131E+03  0.13122766131E+03  0.00000000000E+00 0. -1.
         21   -1    0    0  501  502  0.00000000000E+00 -0.00000000000E+00 -0.48793888813E+02  0.48793888813E+02  0.00000000000E+00 0. -1.
         24    2    1    2    0    0 -0.32426852831E+02  0.26032437988E+02  0.10101024530E+03  0.13447735231E+03  0.78434048834E+02 0.  0.
        -11    1    3    3    0    0 -0.42935342254E+02  0.25479860158E+02  0.21643542147E+02  0.54416080388E+02  0.00000000000E+00 0.  1.
         12    1    3    3    0    0  0.10508489423E+02  0.55257782991E+00  0.79366703153E+02  0.80061271921E+02  0.00000000000E+00 0. -1.
          1    1    1    2  501    0  0.32426852831E+02 -0.26032437988E+02 -0.18576472807E+02  0.45544197809E+02  0.00000000000E+00 0. -1.
<mgrwt>
<rscale>  1 0.88775496E+02</rscale>
<asrwt>0</asrwt>
<pdfrwt beam="1">  1       21 0.75067522E-02 0.88775496E+02</pdfrwt>
<pdfrwt beam="2">  1        2 0.20188871E-01 0.88775496E+02</pdfrwt>
<totfact> 0.42578285E+05</totfact>
</mgrwt>
</event>
<event>
 6    2  0.7993170E+000  0.9173697E+02  0.7546771E-02  0.1298699E+00
         21   -1    0    0  501  502  0.00000000000E+00  0.00000000000E+00  0.33714470913E+01  0.33714470913E+01  0.00000000000E+00 0.  1.
          2   -1    0    0  502    0 -0.00000000000E+00 -0.00000000000E+00 -0.13323920257E+04  0.13323920257E+04  0.00000000000E+00 0. -1.
         24    2    1    2    0    0 -0.41397469011E+02 -0.47540272056E+01 -0.85107769300E+03  0.85600754201E+03  0.81727114482E+02 0.  0.
        -11    1    3    3    0    0 -0.13367269607E+02 -0.40568378328E+02 -0.29544756361E+03  0.29851924571E+03  0.00000000000E+00 0.  1.
         12    1    3    3    0    0 -0.28030199404E+02  0.35814351122E+02 -0.55563012939E+03  0.55748829630E+03  0.00000000000E+00 0. -1.
          1    1    1    2  501    0  0.41397469011E+02  0.47540272056E+01 -0.47794288558E+03  0.47975593075E+03  0.00000000000E+00 0. -1.
<mgrwt>
<rscale>  1 0.91736974E+02</rscale>
<asrwt>0</asrwt>
<pdfrwt beam="1">  1       21 0.51868443E-03 0.91736974E+02</pdfrwt>
<pdfrwt beam="2">  1        2 0.20498328E+00 0.91736974E+02</pdfrwt>
<totfact> 0.21604341E+06</totfact>
</mgrwt>
</event>
<event>
 6    2  0.7993170E+000  0.8576739E+02  0.7546771E-02  0.1313438E+00
          4   -1    0    0  502    0 -0.00000000000E+00  0.00000000000E+00  0.26562341335E+03  0.26562341335E+03  0.00000000000E+00 0. -1.
         21   -1    0    0  501  502  0.00000000000E+00 -0.00000000000E+00 -0.13857508337E+02  0.13857508337E+02  0.00000000000E+00 0. -1.
         24    2    1    2    0    0 -0.21327843758E+02  0.21108830151E+02  0.21823365347E+03  0.23448234923E+03  0.80346654963E+02 0.  0.
        -11    1    3    3    0    0 -0.94225297166E+00 -0.30233741874E+02  0.86435045021E+02  0.91575018407E+02  0.00000000000E+00 0.  1.
         12    1    3    3    0    0 -0.20385590786E+02  0.51342572026E+02  0.13179860844E+03  0.14290733082E+03  0.00000000000E+00 0. -1.
          3    1    1    2  501    0  0.21327843758E+02 -0.21108830151E+02  0.33532251548E+02  0.44998572462E+02  0.00000000000E+00 0. -1.
<mgrwt>
<rscale>  1 0.85767387E+02</rscale>
<asrwt>0</asrwt>
<pdfrwt beam="1">  1       21 0.21319246E-02 0.85767387E+02</pdfrwt>
<pdfrwt beam="2">  1        4 0.40865137E-01 0.85767387E+02</pdfrwt>
<totfact> 0.23733692E+05</totfact>
</mgrwt>
</event>
<event>
 6    2  0.7993170E+000  0.8361777E+02  0.7546771E-02  0.1319087E+00
         21   -1    0    0  501  502  0.00000000000E+00  0.00000000000E+00  0.12671374694E+02  0.12671374694E+02  0.00000000000E+00 0.  1.
          2   -1    0    0  502    0 -0.00000000000E+00 -0.00000000000E+00 -0.22371266931E+03  0.22371266931E+03  0.00000000000E+00 0. -1.
         24    2    1    2    0    0 -0.15425471567E+02 -0.16772712293E+02 -0.16200880152E+03  0.18231506556E+03  0.80452857684E+02 0.  0.
        -13    1    3    3    0    0 -0.57125660162E+01  0.25849276234E+02 -0.18501752710E+02  0.32297574919E+02  0.00000000000E+00 0.  1.
         14    1    3    3    0    0 -0.97129055505E+01 -0.42621988526E+02 -0.14350704881E+03  0.15001749064E+03  0.00000000000E+00 0. -1.
          1    1    1    2  501    0  0.15425471567E+02  0.16772712293E+02 -0.49032493095E+02  0.54068978443E+02  0.00000000000E+00 0. -1.
<mgrwt>
<rscale>  1 0.83617769E+02</rscale>
<asrwt>0</asrwt>
<pdfrwt beam="1">  1       21 0.19494424E-02 0.83617769E+02</pdfrwt>
<pdfrwt beam="2">  1        2 0.34417331E-01 0.83617769E+02</pdfrwt>
<totfact> 0.21767660E+06</totfact>
</mgrwt>
</event>
<event>
 6    2  0.7993170E+000  0.8468242E+02  0.7546771E-02  0.1316265E+00
         -1   -1    0    0    0  501 -0.00000000000E+00  0.00000000000E+00  0.74616406868E+02  0.74616406868E+02  0.00000000000E+00 0.  1.
         21   -1    0    0  501  502  0.00000000000E+00 -0.00000000000E+00 -0.43081618192E+02  0.43081618192E+02  0.00000000000E+00 0.  1.
         24    2    1    2    0    0 -0.20798344975E+02  0.15232339678E+02  0.35108418669E+02  0.91671766069E+02  0.80662979780E+02 0.  0.
        -13    1    3    3    0    0 -0.37154576632E+02  0.40152177332E+02  0.19937878267E+02  0.58225242799E+02  0.00000000000E+00 0.  1.
         14    1    3    3    0    0  0.16356231657E+02 -0.24919837654E+02  0.15170540402E+02  0.33446523269E+02  0.00000000000E+00 0. -1.
         -2    1    1    2    0  502  0.20798344975E+02 -0.15232339678E+02 -0.35736299923E+01  0.26026258991E+02  0.00000000000E+00 0.  1.
<mgrwt>
<rscale>  1 0.84682416E+02</rscale>
<asrwt>0</asrwt>
<pdfrwt beam="1">  1       21 0.66279413E-02 0.84682416E+02</pdfrwt>
<pdfrwt beam="2">  1       -1 0.11479447E-01 0.84682416E+02</pdfrwt>
<totfact> 0.67317831E+05</totfact>
</mgrwt>
</event>
<event>
 6    2  0.7993170E+000  0.8331815E+02  0.7546771E-02  0.1319890E+00
          2   -1    0    0  502    0 -0.00000000000E+00  0.00000000000E+00  0.17065464704E+03  0.17065464704E+03  0.00000000000E+00 0. -1.
         21   -1    0    0  501  502  0.00000000000E+00 -0.00000000000E+00 -0.16410397024E+02  0.16410397024E+02  0.00000000000E+00 0.  1.
         24    2    1    2    0    0 -0.10579679855E+01  0.21830025692E+02  0.13015436994E+03  0.15453826064E+03  0.80400526546E+02 0.  0.
        -13    1    3    3    0    0 -0.38575858646E+02  0.40734798219E+01  0.42427199213E+02  0.57487018893E+02  0.00000000000E+00 0.  1.
         14    1    3    3    0    0  0.37517890660E+02  0.17756545870E+02  0.87727170722E+02  0.97051241743E+02  0.00000000000E+00 0. -1.
          1    1    1    2  501    0  0.10579679855E+01 -0.21830025692E+02  0.24089880084E+02  0.32526783432E+02  0.00000000000E+00 0. -1.
<mgrwt>
<rscale>  1 0.83318149E+02</rscale>
<asrwt>0</asrwt>
<pdfrwt beam="1">  1       21 0.25246766E-02 0.83318149E+02</pdfrwt>
<pdfrwt beam="2">  1        2 0.26254560E-01 0.83318149E+02</pdfrwt>
<totfact> 0.19187227E+06</totfact>
</mgrwt>
</event>
<event>
 6    2  0.7993170E+000  0.8622345E+02  0.7546771E-02  0.1312264E+00
         21   -1    0    0  501  502  0.00000000000E+00  0.00000000000E+00  0.51799537574E+02  0.51799537574E+02  0.00000000000E+00 0. -1.
          2   -1    0    0  502    0 -0.00000000000E+00 -0.00000000000E+00 -0.22202910662E+03  0.22202910662E+03  0.00000000000E+00 0. -1.
         24    2    1    2    0    0 -0.29864950116E+02  0.12194631340E+02 -0.20740181141E+03  0.22461076248E+03  0.79961609322E+02 0.  0.
        -13    1    3    3    0    0  0.10224291105E+02  0.32002868963E+02 -0.44954920943E+02  0.56121873342E+02  0.00000000000E+00 0.  1.
         14    1    3    3    0    0 -0.40089241221E+02 -0.19808237623E+02 -0.16244689047E+03  0.16848888914E+03  0.00000000000E+00 0. -1.
          1    1    1    2  501    0  0.29864950116E+02 -0.12194631340E+02  0.37172242360E+02  0.49217881720E+02  0.00000000000E+00 0. -1.
<mgrwt>
<rscale>  1 0.86223450E+02</rscale>
<asrwt>0</asrwt>
<pdfrwt beam="1">  1       21 0.79691597E-02 0.86223450E+02</pdfrwt>
<pdfrwt beam="2">  1        2 0.34158324E-01 0.86223450E+02</pdfrwt>
<totfact> 0.21706759E+05</totfact>
</mgrwt>
</event>
<event>
 6    2  0.7993170E+000  0.8658768E+02  0.7546771E-02  0.1311332E+00
         21   -1    0    0  501  502  0.00000000000E+00  0.00000000000E+00  0.15144486344E+03  0.15144486344E+03  0.00000000000E+00 0.  1.
         -1   -1    0    0    0  501 -0.00000000000E+00 -0.00000000000E+00 -0.28628977606E+02  0.28628977606E+02  0.00000000000E+00 0.  1.
         24    2    1    2    0    0  0.79251555599E+01 -0.28782418453E+02  0.46844021158E+02  0.98446885173E+02  0.81278479190E+02 0.  0.
        -13    1    3    3    0    0  0.91936946156E+01 -0.54562900649E+02  0.14756072134E+02  0.57265834603E+02  0.00000000000E+00 0.  1.
         14    1    3    3    0    0 -0.12685390557E+01  0.25780482195E+02  0.32087949023E+02  0.41181050571E+02  0.00000000000E+00 0. -1.
         -2    1    1    2    0  502 -0.79251555599E+01  0.28782418453E+02  0.75971864681E+02  0.81626955878E+02  0.00000000000E+00 0.  1.
<mgrwt>
<rscale>  1 0.86587683E+02</rscale>
<asrwt>0</asrwt>
<pdfrwt beam="1">  1       21 0.23299209E-01 0.86587683E+02</pdfrwt>
<pdfrwt beam="2">  1       -1 0.44044582E-02 0.86587683E+02</pdfrwt>
<totfact> 0.30523937E+05</totfact>
</mgrwt>
</event>
<event>
 6    2  0.7993170E+000  0.8355240E+02  0.7546771E-02  0.1319262E+00
         21   -1    0    0  501  502  0.00000000000E+00  0.00000000000E+00  0.18505949895E+02  0.18505949895E+02  0.00000000000E+00 0. -1.
         -3   -1    0    0    0  501 -0.00000000000E+00 -0.00000000000E+00 -0.16519324988E+03  0.16519324988E+03  0.00000000000E+00 0.  1.
         24    2    1    2    0    0  0.20857837366E+02 -0.13059315976E+02 -0.12775218596E+03  0.15264869807E+03  0.79846157638E+02 0.  0.
        -11    1    3    3    0    0  0.29301276884E+02 -0.15695619532E+02 -0.13633196885E+03  0.14032577464E+03  0.00000000000E+00 0.  1.
         12    1    3    3    0    0 -0.84434395173E+01  0.26363035557E+01  0.85797828846E+01  0.12322923422E+02  0.00000000000E+00 0. -1.
         -4    1    1    2    0  502 -0.20857837366E+02  0.13059315976E+02 -0.18935114025E+02  0.31050501711E+02  0.00000000000E+00 0.  1.
<mgrwt>
<rscale>  1 0.83552403E+02</rscale>
<asrwt>0</asrwt>
<pdfrwt beam="1">  1       21 0.28470692E-02 0.83552403E+02</pdfrwt>
<pdfrwt beam="2">  1       -3 0.25414346E-01 0.83552403E+02</pdfrwt>
<totfact> 0.43619672E+05</totfact>
</mgrwt>
</event>
<event>
 6    2  0.7993170E+000  0.8616702E+02  0.7546771E-02  0.1312409E+00
         21   -1    0    0  501  502  0.00000000000E+00  0.00000000000E+00  0.85334787895E+02  0.85334787895E+02  0.00000000000E+00 0.  1.
          4   -1    0    0  502    0 -0.00000000000E+00 -0.00000000000E+00 -0.57492058102E+02  0.57492058102E+02  0.00000000000E+00 0. -1.
         24    2    1    2    0    0  0.28693022359E+02 -0.12684772953E+01 -0.18665052178E+02  0.88165412146E+02  0.81239504917E+02 0.  0.
        -11    1    3    3    0    0  0.18071807279E+02 -0.40990167154E+02 -0.63594123988E+01  0.45246283247E+02  0.00000000000E+00 0.  1.
         12    1    3    3    0    0  0.10621215080E+02  0.39721689859E+02 -0.12305639780E+02  0.42919128898E+02  0.00000000000E+00 0. -1.
          3    1    1    2  501    0 -0.28693022359E+02  0.12684772953E+01  0.46507781971E+02  0.54661433851E+02  0.00000000000E+00 0. -1.
<mgrwt>
<rscale>  1 0.86167022E+02</rscale>
<asrwt>0</asrwt>
<pdfrwt beam="1">  1       21 0.13128429E-01 0.86167022E+02</pdfrwt>
<pdfrwt beam="2">  1        4 0.88449320E-02 0.86167022E+02</pdfrwt>
<totfact> 0.17374328E+05</totfact>
</mgrwt>
</event>
<event>
 6    2  0.7993170E+000  0.8411274E+02  0.7546771E-02  0.1317769E+00
         21   -1    0    0  501  502  0.00000000000E+00  0.00000000000E+00  0.11032767599E+04  0.11032767599E+04  0.00000000000E+00 0.  1.
         -1   -1    0    0    0  501 -0.00000000000E+00 -0.00000000000E+00 -0.80631331390E+01  0.80631331390E+01  0.00000000000E+00 0.  1.
         24    2    1    2    0    0 -0.61170678656E+00 -0.23873551728E+02  0.21596151506E+03  0.23176351967E+03  0.80651301327E+02 0.  0.
        -11    1    3    3    0    0 -0.11015277375E+02  0.23906087816E+02  0.32107483392E+02  0.41517801725E+02  0.00000000000E+00 0.  1.
         12    1    3    3    0    0  0.10403570589E+02 -0.47779639544E+02  0.18385403167E+03  0.19024571795E+03  0.00000000000E+00 0. -1.
         -2    1    1    2    0  502  0.61170678656E+00  0.23873551728E+02  0.87925211168E+03  0.87957637334E+03  0.00000000000E+00 0.  1.
<mgrwt>
<rscale>  1 0.84112740E+02</rscale>
<asrwt>0</asrwt>
<pdfrwt beam="1">  1       21 0.16973477E+00 0.84112740E+02</pdfrwt>
<pdfrwt beam="2">  1       -1 0.12404829E-02 0.84112740E+02</pdfrwt>
<totfact> 0.25840696E+04</totfact>
</mgrwt>
</event>
<event>
 6    2  0.7993170E+000  0.1152510E+03  0.7546771E-02  0.1251144E+00
         21   -1    0    0  501  502  0.00000000000E+00  0.00000000000E+00  0.35211430353E+01  0.35211430353E+01  0.00000000000E+00 0. -1.
          2   -1    0    0  502    0 -0.00000000000E+00 -0.00000000000E+00 -0.28494068913E+04  0.28494068913E+04  0.00000000000E+00 0. -1.
         24    2    1    2    0    0 -0.25666417513E+02 -0.78019887958E+02 -0.18951452915E+04  0.18986464805E+04  0.80851184459E+02 0.  0.
        -11    1    3    3    0    0 -0.95026059852E+01  0.71628741991E+01 -0.47497040510E+02  0.48965040024E+02  0.00000000000E+00 0.  1.
         12    1    3    3    0    0 -0.16163811528E+02 -0.85182762157E+02 -0.18476482510E+04  0.18496814404E+04  0.00000000000E+00 0. -1.
          1    1    1    2  501    0  0.25666417513E+02  0.78019887958E+02 -0.95074045680E+03  0.95428155390E+03  0.00000000000E+00 0. -1.
<mgrwt>
<rscale>  1 0.11525095E+03</rscale>
<asrwt>0</asrwt>
<pdfrwt beam="1">  1       21 0.54171408E-03 0.11525095E+03</pdfrwt>
<pdfrwt beam="2">  1        2 0.43837048E+00 0.11525095E+03</pdfrwt>
<totfact> 0.33297428E+05</totfact>
</mgrwt>
</event>
<event>
 6    2  0.7993170E+000  0.8496534E+02  0.7546771E-02  0.1315523E+00
          2   -1    0    0  502    0 -0.00000000000E+00  0.00000000000E+00  0.32474689914E+02  0.32474689914E+02  0.00000000000E+00 0. -1.
         21   -1    0    0  501  502  0.00000000000E+00 -0.00000000000E+00 -0.99217520328E+02  0.99217520328E+02  0.00000000000E+00 0. -1.
         24    2    1    2    0    0 -0.23510458100E+02 -0.86176291799E+01 -0.36620177068E+02  0.92521054817E+02  0.81191767091E+02 0.  0.
        -11    1    3    3    0    0 -0.74915321479E+01  0.19406103508E+02 -0.52555713378E+02  0.56522764582E+02  0.00000000000E+00 0.  1.
         12    1    3    3    0    0 -0.16018925952E+02 -0.28023732688E+02  0.15935536310E+02  0.35998290236E+02  0.00000000000E+00 0. -1.
          1    1    1    2  501    0  0.23510458100E+02  0.86176291799E+01 -0.30122653346E+02  0.39171155425E+02  0.00000000000E+00 0. -1.
<mgrwt>
<rscale>  1 0.84965335E+02</rscale>
<asrwt>0</asrwt>
<pdfrwt beam="1">  1       21 0.15264234E-01 0.84965335E+02</pdfrwt>
<pdfrwt beam="2">  1        2 0.49961061E-02 0.84965335E+02</pdfrwt>
<totfact> 0.66475056E+05</totfact>
</mgrwt>
</event>
<event>
 6    2  0.7993170E+000  0.8291019E+02  0.7546771E-02  0.1320990E+00
         21   -1    0    0  501  502  0.00000000000E+00  0.00000000000E+00  0.56985548374E+01  0.56985548374E+01  0.00000000000E+00 0. -1.
          2   -1    0    0  502    0 -0.00000000000E+00 -0.00000000000E+00 -0.10711976815E+04  0.10711976815E+04  0.00000000000E+00 0. -1.
         24    2    1    2    0    0 -0.57045229687E+01  0.22025018078E+02 -0.10375501211E+04  0.10408575083E+04  0.79727384621E+02 0.  0.
        -11    1    3    3    0    0  0.18119099441E+02  0.10762329682E+02 -0.73875138547E+02  0.76822298846E+02  0.00000000000E+00 0.  1.
         12    1    3    3    0    0 -0.23823622409E+02  0.11262688396E+02 -0.96367498255E+03  0.96403520949E+03  0.00000000000E+00 0. -1.
          1    1    1    2  501    0  0.57045229687E+01 -0.22025018078E+02 -0.27949005532E+02  0.36038727972E+02  0.00000000000E+00 0. -1.
<mgrwt>
<rscale>  1 0.82910186E+02</rscale>
<asrwt>0</asrwt>
<pdfrwt beam="1">  1       21 0.87669952E-03 0.82910186E+02</pdfrwt>
<pdfrwt beam="2">  1        2 0.16479987E+00 0.82910186E+02</pdfrwt>
<totfact> 0.13202467E+06</totfact>
</mgrwt>
</event>
<event>
 6    2  0.7993170E+000  0.9799016E+02  0.7546771E-02  0.1284580E+00
         21   -1    0    0  501  502  0.00000000000E+00  0.00000000000E+00  0.10183235482E+02  0.10183235482E+02  0.00000000000E+00 0.  1.
         -1   -1    0    0    0  501 -0.00000000000E+00 -0.00000000000E+00 -0.71273286597E+03  0.71273286597E+03  0.00000000000E+00 0.  1.
         24    2    1    2    0    0  0.52690197739E+02 -0.23224700949E+01 -0.59628519423E+03  0.60428313294E+03  0.82585840736E+02 0.  0.
        -13    1    3    3    0    0  0.42982714918E+02  0.81513614093E+01 -0.58343240246E+03  0.58507036048E+03  0.00000000000E+00 0.  1.
         14    1    3    3    0    0  0.97074828206E+01 -0.10473831504E+02 -0.12852791766E+02  0.19212772451E+02  0.00000000000E+00 0. -1.
         -2    1    1    2    0  502 -0.52690197739E+02  0.23224700949E+01 -0.10626443626E+03  0.11863296851E+03  0.00000000000E+00 0.  1.
<mgrwt>
<rscale>  1 0.97990162E+02</rscale>
<asrwt>0</asrwt>
<pdfrwt beam="1">  1       21 0.15666513E-02 0.97990162E+02</pdfrwt>
<pdfrwt beam="2">  1       -1 0.10965123E+00 0.97990162E+02</pdfrwt>
<totfact> 0.13559039E+05</totfact>
</mgrwt>
</event>
<event>
 6    2  0.7993170E+000  0.1454176E+03  0.7546771E-02  0.1206220E+00
          2   -1    0    0  502    0 -0.00000000000E+00  0.00000000000E+00  0.12437850151E+04  0.12437850151E+04  0.00000000000E+00 0. -1.
         21   -1    0    0  501  502  0.00000000000E+00 -0.00000000000E+00 -0.14211239305E+02  0.14211239305E+02  0.00000000000E+00 0. -1.
         24    2    1    2    0    0  0.11003152609E+03 -0.22203364889E+02  0.84319765318E+03  0.85564512135E+03  0.92446553254E+02 0.  0.
        -11    1    3    3    0    0  0.21427113608E+02 -0.42685322991E+02  0.17948121999E+03  0.18572739788E+03  0.00000000000E+00 0.  1.
         12    1    3    3    0    0  0.88604412483E+02  0.20481958102E+02  0.66371643320E+03  0.66991772347E+03  0.00000000000E+00 0. -1.
          1    1    1    2  501    0 -0.11003152609E+03  0.22203364889E+02  0.38637612258E+03  0.40235113302E+03  0.00000000000E+00 0. -1.
<mgrwt>
<rscale>  1 0.14541764E+03</rscale>
<asrwt>0</asrwt>
<pdfrwt beam="1">  1       21 0.21863455E-02 0.14541764E+03</pdfrwt>
<pdfrwt beam="2">  1        2 0.19135145E+00 0.14541764E+03</pdfrwt>
<totfact> 0.25580191E+05</totfact>
</mgrwt>
</event>
<event>
 6    2  0.7993170E+000  0.9135177E+02  0.7546771E-02  0.1299611E+00
          2   -1    0    0  502    0 -0.00000000000E+00  0.00000000000E+00  0.93900101102E+03  0.93900101102E+03  0.00000000000E+00 0. -1.
         21   -1    0    0  501  502  0.00000000000E+00 -0.00000000000E+00 -0.60976181465E+01  0.60976181465E+01  0.00000000000E+00 0. -1.
         24    2    1    2    0    0  0.35241187323E+01 -0.45734476902E+02  0.78362478663E+03  0.78893152613E+03  0.79000537361E+02 0.  0.
        -13    1    3    3    0    0 -0.12798975551E+01  0.14735028763E+02  0.37001268327E+02  0.39847874074E+02  0.00000000000E+00 0.  1.
         14    1    3    3    0    0  0.48040162873E+01 -0.60469505664E+02  0.74662351830E+03  0.74908365205E+03  0.00000000000E+00 0. -1.
          1    1    1    2  501    0 -0.35241187323E+01  0.45734476902E+02  0.14927860625E+03  0.15616710304E+03  0.00000000000E+00 0. -1.
<mgrwt>
<rscale>  1 0.91351774E+02</rscale>
<asrwt>0</asrwt>
<pdfrwt beam="1">  1       21 0.93809585E-03 0.91351774E+02</pdfrwt>
<pdfrwt beam="2">  1        2 0.14446158E+00 0.91351774E+02</pdfrwt>
<totfact> 0.14316462E+06</totfact>
</mgrwt>
</event>
<event>
 6    2  0.7993170E+000  0.1019697E+03  0.7546771E-02  0.1276208E+00
         21   -1    0    0  501  502  0.00000000000E+00  0.00000000000E+00  0.16809362467E+02  0.16809362467E+02  0.00000000000E+00 0. -1.
          2   -1    0    0  502    0 -0.00000000000E+00 -0.00000000000E+00 -0.19983769069E+04  0.19983769069E+04  0.00000000000E+00 0. -1.
         24    2    1    2    0    0 -0.20428084289E+02  0.55718456554E+02 -0.19401253972E+04  0.19428032286E+04  0.82921499860E+02 0.  0.
        -11    1    3    3    0    0  0.96436142738E+01  0.15456050861E+02 -0.82039694787E+02  0.84038088538E+02  0.00000000000E+00 0.  1.
         12    1    3    3    0    0 -0.30071698563E+02  0.40262405693E+02 -0.18580857024E+04  0.18587651400E+04  0.00000000000E+00 0. -1.
          1    1    1    2  501    0  0.20428084289E+02 -0.55718456554E+02 -0.41442147294E+02  0.72383040837E+02  0.00000000000E+00 0. -1.
<mgrwt>
<rscale>  1 0.10196974E+03</rscale>
<asrwt>0</asrwt>
<pdfrwt beam="1">  1       21 0.25860575E-02 0.10196974E+03</pdfrwt>
<pdfrwt beam="2">  1        2 0.30744240E+00 0.10196974E+03</pdfrwt>
<totfact> 0.79254895E+04</totfact>
</mgrwt>
</event>
<event>
 6    2  0.7993170E+000  0.1006116E+03  0.7546771E-02  0.1279015E+00
          2   -1    0    0  502    0 -0.00000000000E+00  0.00000000000E+00  0.16305412906E+04  0.16305412906E+04  0.00000000000E+00 0. -1.
         21   -1    0    0  501  502  0.00000000000E+00 -0.00000000000E+00 -0.51041734216E+01  0.51041734216E+01  0.00000000000E+00 0. -1.
         24    2    1    2    0    0 -0.47928859379E+02 -0.44216870013E+02  0.12907209963E+04  0.12946363898E+04  0.76618432738E+02 0.  0.
        -13    1    3    3    0    0 -0.73233442244E+01  0.17617738875E+02  0.11341556289E+03  0.11500915615E+03  0.00000000000E+00 0.  1.
         14    1    3    3    0    0 -0.40605515155E+02 -0.61834608888E+02  0.11773054334E+04  0.11796272336E+04  0.00000000000E+00 0. -1.
          1    1    1    2  501    0  0.47928859379E+02  0.44216870013E+02  0.33471612083E+03  0.34100907421E+03  0.00000000000E+00 0. -1.
<mgrwt>
<rscale>  1 0.10061159E+03</rscale>
<asrwt>0</asrwt>
<pdfrwt beam="1">  1       21 0.78525875E-03 0.10061159E+03</pdfrwt>
<pdfrwt beam="2">  1        2 0.25085209E+00 0.10061159E+03</pdfrwt>
<totfact> 0.80458811E+05</totfact>
</mgrwt>
</event>
<event>
 6    2  0.7993170E+000  0.1032931E+03  0.7546771E-02  0.1273519E+00
          2   -1    0    0  502    0 -0.00000000000E+00  0.00000000000E+00  0.14790913185E+04  0.14790913185E+04  0.00000000000E+00 0. -1.
         21   -1    0    0  501  502  0.00000000000E+00 -0.00000000000E+00 -0.11537361044E+02  0.11537361044E+02  0.00000000000E+00 0. -1.
         24    2    1    2    0    0 -0.64458909790E+02  0.33473726615E+02  0.13389758786E+04  0.13429541598E+04  0.73444062908E+02 0.  0.
        -11    1    3    3    0    0 -0.75875644279E+01 -0.26340579097E+01  0.13087425647E+02  0.15355458478E+02  0.00000000000E+00 0.  1.
         12    1    3    3    0    0 -0.56871345363E+02  0.36107784524E+02  0.13258884530E+04  0.13275987013E+04  0.00000000000E+00 0. -1.
          1    1    1    2  501    0  0.64458909790E+02 -0.33473726615E+02  0.12857807886E+03  0.14767451977E+03  0.00000000000E+00 0. -1.
<mgrwt>
<rscale>  1 0.10329314E+03</rscale>
<asrwt>0</asrwt>
<pdfrwt beam="1">  1       21 0.17749798E-02 0.10329314E+03</pdfrwt>
<pdfrwt beam="2">  1        2 0.22755236E+00 0.10329314E+03</pdfrwt>
<totfact> 0.26620088E+05</totfact>
</mgrwt>
</event>
<event>
 6    2  0.7993170E+000  0.7300375E+02  0.7546771E-02  0.1350167E+00
         21   -1    0    0  501  502  0.00000000000E+00  0.00000000000E+00  0.67272486881E+01  0.67272486881E+01  0.00000000000E+00 0.  1.
          2   -1    0    0  502    0 -0.00000000000E+00 -0.00000000000E+00 -0.45238829953E+03  0.45238829953E+03  0.00000000000E+00 0. -1.
         24    2    1    2    0    0  0.29614094105E+02  0.16340326258E+02 -0.24577926117E+03  0.25639226225E+03  0.64695796522E+02 0.  0.
        -11    1    3    3    0    0  0.47828873153E+02  0.23673821838E+02 -0.18025719254E+03  0.18799124024E+03  0.00000000000E+00 0.  1.
         12    1    3    3    0    0 -0.18214779047E+02 -0.73334955804E+01 -0.65522068633E+02  0.68401022004E+02  0.00000000000E+00 0. -1.
          1    1    1    2  501    0 -0.29614094105E+02 -0.16340326258E+02 -0.19988178967E+03  0.20272328597E+03  0.00000000000E+00 0. -1.
<mgrwt>
<rscale>  1 0.73003746E+02</rscale>
<asrwt>0</asrwt>
<pdfrwt beam="1">  1       21 0.10349612E-02 0.73003746E+02</pdfrwt>
<pdfrwt beam="2">  1        2 0.69598206E-01 0.73003746E+02</pdfrwt>
<totfact> 0.27785924E+06</totfact>
</mgrwt>
</event>
<event>
 6    2  0.7993170E+000  0.9533520E+02  0.7546771E-02  0.1290423E+00
          2   -1    0    0  502    0 -0.00000000000E+00  0.00000000000E+00  0.62733166865E+02  0.62733166865E+02  0.00000000000E+00 0. -1.
         21   -1    0    0  501  502  0.00000000000E+00 -0.00000000000E+00 -0.85763021871E+02  0.85763021871E+02  0.00000000000E+00 0.  1.
         24    2    1    2    0    0  0.44945820418E+02 -0.24017689018E+02 -0.20235504194E+02  0.97459098740E+02  0.80571856987E+02 0.  0.
        -11    1    3    3    0    0  0.63181152301E+02 -0.22393980890E+02 -0.33416720901E+02  0.74900104285E+02  0.00000000000E+00 0.  1.
         12    1    3    3    0    0 -0.18235331882E+02 -0.16237081279E+01  0.13181216706E+02  0.22558994455E+02  0.00000000000E+00 0. -1.
          1    1    1    2  501    0 -0.44945820418E+02  0.24017689018E+02 -0.27943508113E+01  0.51037089997E+02  0.00000000000E+00 0. -1.
<mgrwt>
<rscale>  1 0.95335200E+02</rscale>
<asrwt>0</asrwt>
<pdfrwt beam="1">  1       21 0.13194311E-01 0.95335200E+02</pdfrwt>
<pdfrwt beam="2">  1        2 0.96512564E-02 0.95335200E+02</pdfrwt>
<totfact> 0.38121762E+05</totfact>
</mgrwt>
</event>
<event>
 6    2  0.7993170E+000  0.8857961E+02  0.7546771E-02  0.1306328E+00
         21   -1    0    0  501  502  0.00000000000E+00  0.00000000000E+00  0.72257157355E+02  0.72257157355E+02  0.00000000000E+00 0. -1.
          2   -1    0    0  502    0 -0.00000000000E+00 -0.00000000000E+00 -0.75238278721E+02  0.75238278721E+02  0.00000000000E+00 0. -1.
         24    2    1    2    0    0  0.14489219019E+02  0.23457825116E+02 -0.43342892289E+02  0.98615178518E+02  0.84179214152E+02 0.  0.
        -11    1    3    3    0    0 -0.28703315035E+02  0.86001154636E+00  0.59099094064E+01  0.29318031023E+02  0.00000000000E+00 0.  1.
         12    1    3    3    0    0  0.43192534054E+02  0.22597813569E+02 -0.49252801696E+02  0.69297147495E+02  0.00000000000E+00 0. -1.
          1    1    1    2  501    0 -0.14489219019E+02 -0.23457825116E+02  0.40361770923E+02  0.48880257559E+02  0.00000000000E+00 0. -1.
<mgrwt>
<rscale>  1 0.88579609E+02</rscale>
<asrwt>0</asrwt>
<pdfrwt beam="1">  1       21 0.11116486E-01 0.88579609E+02</pdfrwt>
<pdfrwt beam="2">  1        2 0.11575120E-01 0.88579609E+02</pdfrwt>
<totfact> 0.41117671E+05</totfact>
</mgrwt>
</event>
<event>
 6    2  0.7993170E+000  0.8951408E+02  0.7546771E-02  0.1304033E+00
          2   -1    0    0  502    0 -0.00000000000E+00  0.00000000000E+00  0.42373453716E+03  0.42373453716E+03  0.00000000000E+00 0. -1.
         21   -1    0    0  501  502  0.00000000000E+00 -0.00000000000E+00 -0.14708986187E+02  0.14708986187E+02  0.00000000000E+00 0. -1.
         24    2    1    2    0    0 -0.23127477902E+02 -0.34910521191E+02  0.37176623635E+03  0.38239103678E+03  0.79114763449E+02 0.  0.
        -13    1    3    3    0    0  0.26991651516E+02 -0.45714269459E+01  0.73668192970E+02  0.78590392869E+02  0.00000000000E+00 0.  1.
         14    1    3    3    0    0 -0.50119129418E+02 -0.30339094245E+02  0.29809804338E+03  0.30380064391E+03  0.00000000000E+00 0. -1.
          1    1    1    2  501    0  0.23127477902E+02  0.34910521191E+02  0.37259314615E+02  0.56052486559E+02  0.00000000000E+00 0. -1.
<mgrwt>
<rscale>  1 0.89514080E+02</rscale>
<asrwt>0</asrwt>
<pdfrwt beam="1">  1       21 0.22629213E-02 0.89514080E+02</pdfrwt>
<pdfrwt beam="2">  1        2 0.65189919E-01 0.89514080E+02</pdfrwt>
<totfact> 0.88506878E+05</totfact>
</mgrwt>
</event>
<event>
 6    2  0.7993170E+000  0.9266953E+02  0.7546771E-02  0.1296513E+00
          2   -1    0    0  502    0 -0.00000000000E+00  0.00000000000E+00  0.24266925405E+03  0.24266925405E+03  0.00000000000E+00 0. -1.
         21   -1    0    0  501  502  0.00000000000E+00 -0.00000000000E+00 -0.26301349600E+02  0.26301349600E+02  0.00000000000E+00 0. -1.
         24    2    1    2    0    0  0.44501717641E+02  0.24414097245E+02  0.76463489368E+02  0.12014286304E+03  0.77531872897E+02 0.  0.
        -13    1    3    3    0    0 -0.15625420907E+02 -0.13021905085E+02  0.26767429537E+02  0.33618731009E+02  0.00000000000E+00 0.  1.
         14    1    3    3    0    0  0.60127138548E+02  0.37436002330E+02  0.49696059831E+02  0.86524132027E+02  0.00000000000E+00 0. -1.
          1    1    1    2  501    0 -0.44501717641E+02 -0.24414097245E+02  0.13990441509E+03  0.14882774062E+03  0.00000000000E+00 0. -1.
<mgrwt>
<rscale>  1 0.92669533E+02</rscale>
<asrwt>0</asrwt>
<pdfrwt beam="1">  1       21 0.40463616E-02 0.92669533E+02</pdfrwt>
<pdfrwt beam="2">  1        2 0.37333730E-01 0.92669533E+02</pdfrwt>
<totfact> 0.61879725E+05</totfact>
</mgrwt>
</event>
<event>
 6    2  0.7993170E+000  0.8970822E+02  0.7546771E-02  0.1303560E+00
          4   -1    0    0  502    0 -0.00000000000E+00  0.00000000000E+00  0.11822801111E+03  0.11822801111E+03  0.00000000000E+00 0. -1.
         21   -1    0    0  501  502  0.00000000000E+00 -0.00000000000E+00 -0.35335714016E+02  0.35335714016E+02  0.00000000000E+00 0.  1.
         24    2    1    2    0    0 -0.21870415936E+02  0.32910355892E+02  0.59440307032E+02  0.10761372560E+03  0.80536682452E+02 0.  0.
        -11    1    3    3    0    0 -0.44742512041E+02  0.21822196123E+02  0.82490960772E+01  0.50459371909E+02  0.00000000000E+00 0.  1.
         12    1    3    3    0    0  0.22872096106E+02  0.11088159769E+02  0.51191210955E+02  0.57154353695E+02  0.00000000000E+00 0. -1.
          3    1    1    2  501    0  0.21870415936E+02 -0.32910355892E+02  0.23451990062E+02  0.45949999521E+02  0.00000000000E+00 0. -1.
<mgrwt>
<rscale>  1 0.89708215E+02</rscale>
<asrwt>0</asrwt>
<pdfrwt beam="1">  1       21 0.54362638E-02 0.89708215E+02</pdfrwt>
<pdfrwt beam="2">  1        4 0.18188925E-01 0.89708215E+02</pdfrwt>
<totfact> 0.23224830E+05</totfact>
</mgrwt>
</event>
<event>
 6    2  0.7993170E+000  0.8303251E+02  0.7546771E-02  0.1320659E+00
         21   -1    0    0  501  502  0.00000000000E+00  0.00000000000E+00  0.19510029475E+01  0.19510029475E+01  0.00000000000E+00 0.  1.
          2   -1    0    0  502    0 -0.00000000000E+00 -0.00000000000E+00 -0.15310839745E+04  0.15310839745E+04  0.00000000000E+00 0. -1.
         24    2    1    2    0    0 -0.15922326899E+02 -0.19436524476E+02 -0.10712138223E+04  0.10744270335E+04  0.79139739090E+02 0.  0.
        -13    1    3    3    0    0 -0.22053177018E+02 -0.48030084095E+02 -0.76336817229E+03  0.76519552930E+03  0.00000000000E+00 0.  1.
         14    1    3    3    0    0  0.61308501197E+01  0.28593559618E+02 -0.30784565000E+03  0.30923150421E+03  0.00000000000E+00 0. -1.
          1    1    1    2  501    0  0.15922326899E+02  0.19436524476E+02 -0.45791914927E+03  0.45860794394E+03  0.00000000000E+00 0. -1.
<mgrwt>
<rscale>  1 0.83032507E+02</rscale>
<asrwt>0</asrwt>
<pdfrwt beam="1">  1       21 0.30015234E-03 0.83032507E+02</pdfrwt>
<pdfrwt beam="2">  1        2 0.23555292E+00 0.83032507E+02</pdfrwt>
<totfact> 0.38882795E+06</totfact>
</mgrwt>
</event>
<event>
 6    2  0.7993170E+000  0.8342147E+02  0.7546771E-02  0.1319613E+00
         21   -1    0    0  501  502  0.00000000000E+00  0.00000000000E+00  0.21138449795E+03  0.21138449795E+03  0.00000000000E+00 0. -1.
         -3   -1    0    0    0  501 -0.00000000000E+00 -0.00000000000E+00 -0.13082537629E+02  0.13082537629E+02  0.00000000000E+00 0.  1.
         24    2    1    2    0    0 -0.19823081014E+02  0.56477887009E+01  0.14449262015E+03  0.16684501593E+03  0.80834955349E+02 0.  0.
        -11    1    3    3    0    0 -0.15669933740E+02 -0.16719034034E+02  0.25100836672E+01  0.23051538831E+02  0.00000000000E+00 0.  1.
         12    1    3    3    0    0 -0.41531472743E+01  0.22366822735E+02  0.14198253648E+03  0.14379347710E+03  0.00000000000E+00 0. -1.
         -4    1    1    2    0  502  0.19823081014E+02 -0.56477887009E+01  0.53809340172E+02  0.57622019644E+02  0.00000000000E+00 0.  1.
<mgrwt>
<rscale>  1 0.83421472E+02</rscale>
<asrwt>0</asrwt>
<pdfrwt beam="1">  1       21 0.32520690E-01 0.83421472E+02</pdfrwt>
<pdfrwt beam="2">  1       -3 0.20126982E-02 0.83421472E+02</pdfrwt>
<totfact> 0.37699995E+05</totfact>
</mgrwt>
</event>
<event>
 6    2  0.7993170E+000  0.8520413E+02  0.7546771E-02  0.1314900E+00
         21   -1    0    0  501  502  0.00000000000E+00  0.00000000000E+00  0.39162504064E+03  0.39162504064E+03  0.00000000000E+00 0. -1.
         -3   -1    0    0    0  501 -0.00000000000E+00 -0.00000000000E+00 -0.84630110814E+01  0.84630110814E+01  0.00000000000E+00 0.  1.
         24    2    1    2    0    0  0.67085706525E+01  0.29098025055E+02  0.27727882312E+03  0.29007462805E+03  0.79800025719E+02 0.  0.
        -11    1    3    3    0    0  0.20840690869E+02  0.44535864562E+02  0.98663934084E+02  0.11023769554E+03  0.00000000000E+00 0.  1.
         12    1    3    3    0    0 -0.14132120216E+02 -0.15437839506E+02  0.17861488904E+03  0.17983693252E+03  0.00000000000E+00 0. -1.
         -4    1    1    2    0  502 -0.67085706525E+01 -0.29098025055E+02  0.10588320643E+03  0.11001342366E+03  0.00000000000E+00 0.  1.
<mgrwt>
<rscale>  1 0.85204132E+02</rscale>
<asrwt>0</asrwt>
<pdfrwt beam="1">  1       21 0.60249992E-01 0.85204132E+02</pdfrwt>
<pdfrwt beam="2">  1       -3 0.13020020E-02 0.85204132E+02</pdfrwt>
<totfact> 0.21085844E+05</totfact>
</mgrwt>
</event>
<event>
 6    2  0.7993170E+000  0.8525139E+02  0.7546771E-02  0.1314776E+00
         21   -1    0    0  501  502  0.00000000000E+00  0.00000000000E+00  0.12588021968E+04  0.12588021968E+04  0.00000000000E+00 0.  1.
          2   -1    0    0  502    0 -0.00000000000E+00 -0.00000000000E+00 -0.51029796491E+01  0.51029796491E+01  0.00000000000E+00 0. -1.
         24    2    1    2    0    0 -0.23104264069E+02 -0.11304352412E+02  0.12114236088E+04  0.12144195981E+04  0.81278563622E+02 0.  0.
        -13    1    3    3    0    0 -0.46849868866E+01  0.18654534908E+02  0.99273153959E+03  0.99291784679E+03  0.00000000000E+00 0.  1.
         14    1    3    3    0    0 -0.18419277182E+02 -0.29958887320E+02  0.21869206923E+03  0.22150175133E+03  0.00000000000E+00 0. -1.
          1    1    1    2  501    0  0.23104264069E+02  0.11304352412E+02  0.42275608288E+02  0.49485578280E+02  0.00000000000E+00 0. -1.
<mgrwt>
<rscale>  1 0.85251395E+02</rscale>
<asrwt>0</asrwt>
<pdfrwt beam="1">  1       21 0.19366163E+00 0.85251395E+02</pdfrwt>
<pdfrwt beam="2">  1        2 0.78507479E-03 0.85251395E+02</pdfrwt>
<totfact> 0.35626415E+04</totfact>
</mgrwt>
</event>
<event>
 6    2  0.7993170E+000  0.9841849E+02  0.7546771E-02  0.1283657E+00
         21   -1    0    0  501  502  0.00000000000E+00  0.00000000000E+00  0.12443585783E+02  0.12443585783E+02  0.00000000000E+00 0. -1.
          2   -1    0    0  502    0 -0.00000000000E+00 -0.00000000000E+00 -0.12856650938E+04  0.12856650938E+04  0.00000000000E+00 0. -1.
         24    2    1    2    0    0 -0.50324269460E+02  0.22847170714E+02 -0.12105690789E+04  0.12145631700E+04  0.81435088763E+02 0.  0.
        -11    1    3    3    0    0  0.15307062729E+02  0.25470105227E+02 -0.25193084277E+03  0.25367731859E+03  0.00000000000E+00 0.  1.
         12    1    3    3    0    0 -0.65631332189E+02 -0.26229345136E+01 -0.95863823615E+03  0.96088585137E+03  0.00000000000E+00 0. -1.
          1    1    1    2  501    0  0.50324269460E+02 -0.22847170714E+02 -0.62652429097E+02  0.83545509622E+02  0.00000000000E+00 0. -1.
<mgrwt>
<rscale>  1 0.98418489E+02</rscale>
<asrwt>0</asrwt>
<pdfrwt beam="1">  1       21 0.19143988E-02 0.98418489E+02</pdfrwt>
<pdfrwt beam="2">  1        2 0.19779453E+00 0.98418489E+02</pdfrwt>
<totfact> 0.29732626E+05</totfact>
</mgrwt>
</event>
<event>
 6    2  0.7993170E+000  0.9208947E+02  0.7546771E-02  0.1297869E+00
         21   -1    0    0  501  502  0.00000000000E+00  0.00000000000E+00  0.94273989424E+01  0.94273989424E+01  0.00000000000E+00 0. -1.
          4   -1    0    0  502    0 -0.00000000000E+00 -0.00000000000E+00 -0.61285354675E+03  0.61285354675E+03  0.00000000000E+00 0. -1.
         24    2    1    2    0    0 -0.37259969186E+02 -0.23941332548E+02 -0.25632199936E+03  0.27236269442E+03  0.80740183583E+02 0.  0.
        -13    1    3    3    0    0  0.95699017792E+01 -0.74279494956E+01 -0.88794011059E+00  0.12146846974E+02  0.00000000000E+00 0.  1.
         14    1    3    3    0    0 -0.46829870965E+02 -0.16513383053E+02 -0.25543405925E+03  0.26021584745E+03  0.00000000000E+00 0. -1.
          3    1    1    2  501    0  0.37259969186E+02  0.23941332548E+02 -0.34710414845E+03  0.34991825128E+03  0.00000000000E+00 0. -1.
<mgrwt>
<rscale>  1 0.92089467E+02</rscale>
<asrwt>0</asrwt>
<pdfrwt beam="1">  1       21 0.14503687E-02 0.92089467E+02</pdfrwt>
<pdfrwt beam="2">  1        4 0.94285184E-01 0.92089467E+02</pdfrwt>
<totfact> 0.76916818E+04</totfact>
</mgrwt>
</event>
<event>
 6    2  0.7993170E+000  0.1398003E+03  0.7546771E-02  0.1213598E+00
         21   -1    0    0  501  502  0.00000000000E+00  0.00000000000E+00  0.21030880376E+02  0.21030880376E+02  0.00000000000E+00 0. -1.
          2   -1    0    0  502    0 -0.00000000000E+00 -0.00000000000E+00 -0.68785509829E+03  0.68785509829E+03  0.00000000000E+00 0. -1.
         24    2    1    2    0    0  0.78601122636E+02  0.59584390891E+02 -0.34373182893E+03  0.37107371137E+03  0.99074178934E+02 0.  0.
        -11    1    3    3    0    0  0.34505414879E+02  0.52763781754E+02 -0.71991408740E+02  0.95694321950E+02  0.00000000000E+00 0.  1.
         12    1    3    3    0    0  0.44095707757E+02  0.68206091369E+01 -0.27174042019E+03  0.27537938942E+03  0.00000000000E+00 0. -1.
          1    1    1    2  501    0 -0.78601122636E+02 -0.59584390891E+02 -0.32309238899E+03  0.33781226730E+03  0.00000000000E+00 0. -1.
<mgrwt>
<rscale>  1 0.13980032E+03</rscale>
<asrwt>0</asrwt>
<pdfrwt beam="1">  1       21 0.32355199E-02 0.13980032E+03</pdfrwt>
<pdfrwt beam="2">  1        2 0.10582387E+00 0.13980032E+03</pdfrwt>
<totfact> 0.29804586E+05</totfact>
</mgrwt>
</event>
<event>
 6    2  0.7993170E+000  0.8372123E+02  0.7546771E-02  0.1318811E+00
          2   -1    0    0  502    0 -0.00000000000E+00  0.00000000000E+00  0.46539511997E+03  0.46539511997E+03  0.00000000000E+00 0. -1.
         21   -1    0    0  501  502  0.00000000000E+00 -0.00000000000E+00 -0.13125011735E+02  0.13125011735E+02  0.00000000000E+00 0. -1.
         24    2    1    2    0    0  0.21475832681E+01  0.25385795383E+02  0.44386691288E+03  0.45169356999E+03  0.79750825078E+02 0.  0.
        -11    1    3    3    0    0  0.11220305279E+01 -0.27186637418E+02  0.92671170714E+02  0.96583218460E+02  0.00000000000E+00 0.  1.
         12    1    3    3    0    0  0.10255527402E+01  0.52572432801E+02  0.35119574217E+03  0.35511035153E+03  0.00000000000E+00 0. -1.
          1    1    1    2  501    0 -0.21475832681E+01 -0.25385795383E+02  0.84031953534E+01  0.26826561712E+02  0.00000000000E+00 0. -1.
<mgrwt>
<rscale>  1 0.83721233E+02</rscale>
<asrwt>0</asrwt>
<pdfrwt beam="1">  1       21 0.20192329E-02 0.83721233E+02</pdfrwt>
<pdfrwt beam="2">  1        2 0.71599237E-01 0.83721233E+02</pdfrwt>
<totfact> 0.95535170E+05</totfact>
</mgrwt>
</event>
<event>
 6    2  0.7993170E+000  0.1018044E+03  0.7546771E-02  0.1276547E+00
         -1   -1    0    0    0  501 -0.00000000000E+00  0.00000000000E+00  0.13221913070E+04  0.13221913070E+04  0.00000000000E+00 0.  1.
         21   -1    0    0  501  502  0.00000000000E+00 -0.00000000000E+00 -0.68856692663E+01  0.68856692663E+01  0.00000000000E+00 0.  1.
         24    2    1    2    0    0 -0.12183426290E+02  0.53561005591E+02  0.11578154790E+04  0.11622825900E+04  0.85714166755E+02 0.  0.
        -13    1    3    3    0    0  0.18062435817E+02  0.47406405247E+02  0.10102844043E+04  0.10115573124E+04  0.00000000000E+00 0.  1.
         14    1    3    3    0    0 -0.30245862108E+02  0.61546003435E+01  0.14753107471E+03  0.15072527752E+03  0.00000000000E+00 0. -1.
         -2    1    1    2    0  502  0.12183426290E+02 -0.53561005591E+02  0.15749015875E+03  0.16679438630E+03  0.00000000000E+00 0.  1.
<mgrwt>
<rscale>  1 0.10180440E+03</rscale>
<asrwt>0</asrwt>
<pdfrwt beam="1">  1       21 0.10593348E-02 0.10180440E+03</pdfrwt>
<pdfrwt beam="2">  1       -1 0.20341385E+00 0.10180440E+03</pdfrwt>
<totfact> 0.50840371E+04</totfact>
</mgrwt>
</event>
<event>
 6    2  0.7993170E+000  0.8219258E+02  0.7546771E-02  0.1322942E+00
          2   -1    0    0  502    0 -0.00000000000E+00  0.00000000000E+00  0.91616659166E+03  0.91616659166E+03  0.00000000000E+00 0. -1.
         21   -1    0    0  501  502  0.00000000000E+00 -0.00000000000E+00 -0.32256277308E+01  0.32256277308E+01  0.00000000000E+00 0.  1.
         24    2    1    2    0    0 -0.27976351748E+01  0.19809615428E+02  0.83055175387E+03  0.83460879200E+03  0.79720588315E+02 0.  0.
        -13    1    3    3    0    0  0.24915631380E+02  0.30870822822E+00  0.93037851817E+02  0.96316799462E+02  0.00000000000E+00 0.  1.
         14    1    3    3    0    0 -0.27713266555E+02  0.19500907199E+02  0.73751390205E+03  0.73829199254E+03  0.00000000000E+00 0. -1.
          1    1    1    2  501    0  0.27976351748E+01 -0.19809615428E+02  0.82389210067E+02  0.84783427398E+02  0.00000000000E+00 0. -1.
<mgrwt>
<rscale>  1 0.82192578E+02</rscale>
<asrwt>0</asrwt>
<pdfrwt beam="1">  1       21 0.49625115E-03 0.82192578E+02</pdfrwt>
<pdfrwt beam="2">  1        2 0.14094850E+00 0.82192578E+02</pdfrwt>
<totfact> 0.39079265E+06</totfact>
</mgrwt>
</event>
<event>
 6    2  0.7993170E+000  0.1481297E+03  0.7546771E-02  0.1202790E+00
         -1   -1    0    0    0  501 -0.00000000000E+00  0.00000000000E+00  0.65610987503E+02  0.65610987503E+02  0.00000000000E+00 0.  1.
         21   -1    0    0  501  502  0.00000000000E+00 -0.00000000000E+00 -0.36794746591E+03  0.36794746591E+03  0.00000000000E+00 0. -1.
         24    2    1    2    0    0 -0.14045265828E+02  0.12359933050E+03 -0.26515430704E+03  0.30372556906E+03  0.80426057754E+02 0.  0.
        -11    1    3    3    0    0 -0.70902570655E+01  0.80181104443E+01 -0.10795688058E+03  0.10848617380E+03  0.00000000000E+00 0.  1.
         12    1    3    3    0    0 -0.69550087622E+01  0.11558122006E+03 -0.15719742645E+03  0.19523939526E+03  0.00000000000E+00 0. -1.
         -2    1    1    2    0  502  0.14045265828E+02 -0.12359933050E+03 -0.37182171368E+02  0.12983288435E+03  0.00000000000E+00 0.  1.
<mgrwt>
<rscale>  1 0.14812972E+03</rscale>
<asrwt>0</asrwt>
<pdfrwt beam="1">  1       21 0.56607302E-01 0.14812972E+03</pdfrwt>
<pdfrwt beam="2">  1       -1 0.10093998E-01 0.14812972E+03</pdfrwt>
<totfact> 0.15788224E+04</totfact>
</mgrwt>
</event>
<event>
 6    2  0.7993170E+000  0.8820001E+02  0.7546771E-02  0.1307270E+00
         21   -1    0    0  501  502  0.00000000000E+00  0.00000000000E+00  0.11606995229E+01  0.11606995229E+01  0.00000000000E+00 0. -1.
          2   -1    0    0  502    0 -0.00000000000E+00 -0.00000000000E+00 -0.37527050876E+04  0.37527050876E+04  0.00000000000E+00 0. -1.
         24    2    1    2    0    0  0.26596722752E+02  0.28949427870E+02 -0.29974743425E+04  0.29987716945E+04  0.78954334403E+02 0.  0.
        -13    1    3    3    0    0 -0.21587330419E+02 -0.79616519825E+01 -0.46374384330E+03  0.46431428251E+03  0.00000000000E+00 0.  1.
         14    1    3    3    0    0  0.48184053171E+02  0.36911079852E+02 -0.25337304992E+04  0.25344574120E+04  0.00000000000E+00 0. -1.
          1    1    1    2  501    0 -0.26596722752E+02 -0.28949427870E+02 -0.75407004563E+03  0.75509409265E+03  0.00000000000E+00 0. -1.
<mgrwt>
<rscale>  1 0.88200011E+02</rscale>
<asrwt>0</asrwt>
<pdfrwt beam="1">  1       21 0.17856718E-03 0.88200011E+02</pdfrwt>
<pdfrwt beam="2">  1        2 0.57734563E+00 0.88200011E+02</pdfrwt>
<totfact> 0.50207771E+05</totfact>
</mgrwt>
</event>
<event>
 6    2  0.7993170E+000  0.8188335E+02  0.7546771E-02  0.1323790E+00
         -3   -1    0    0    0  501 -0.00000000000E+00  0.00000000000E+00  0.19663383114E+02  0.19663383114E+02  0.00000000000E+00 0.  1.
         21   -1    0    0  501  502  0.00000000000E+00 -0.00000000000E+00 -0.19618810188E+03  0.19618810188E+03  0.00000000000E+00 0.  1.
         24    2    1    2    0    0 -0.24683736618E+01 -0.21070765409E+02 -0.71503520262E+02  0.10870895302E+03  0.79087375938E+02 0.  0.
        -11    1    3    3    0    0 -0.24913323506E+02 -0.21879237071E+02  0.62691701642E+00  0.33162746084E+02  0.00000000000E+00 0.  1.
         12    1    3    3    0    0  0.22444949844E+02  0.80847166186E+00 -0.72130437279E+02  0.75546206933E+02  0.00000000000E+00 0. -1.
         -4    1    1    2    0  502  0.24683736618E+01  0.21070765409E+02 -0.10502119850E+03  0.10714253198E+03  0.00000000000E+00 0.  1.
<mgrwt>
<rscale>  1 0.81883350E+02</rscale>
<asrwt>0</asrwt>
<pdfrwt beam="1">  1       21 0.30182785E-01 0.81883350E+02</pdfrwt>
<pdfrwt beam="2">  1       -3 0.30251359E-02 0.81883350E+02</pdfrwt>
<totfact> 0.23367952E+05</totfact>
</mgrwt>
</event>
<event>
 6    2  0.7993170E+000  0.8269336E+02  0.7546771E-02  0.1321577E+00
          2   -1    0    0  502    0 -0.00000000000E+00  0.00000000000E+00  0.21050279300E+04  0.21050279300E+04  0.00000000000E+00 0. -1.
         21   -1    0    0  501  502  0.00000000000E+00 -0.00000000000E+00 -0.13476322372E+01  0.13476322372E+01  0.00000000000E+00 0. -1.
         24    2    1    2    0    0  0.19182182621E+02  0.71043268044E+01  0.14334961892E+04  0.14358793527E+04  0.80123427061E+02 0.  0.
        -11    1    3    3    0    0 -0.14068445473E+02 -0.21080116470E+02  0.19811615318E+03  0.19973057507E+03  0.00000000000E+00 0.  1.
         12    1    3    3    0    0  0.33250628095E+02  0.28184443275E+02  0.12353800360E+04  0.12361487776E+04  0.00000000000E+00 0. -1.
          1    1    1    2  501    0 -0.19182182621E+02 -0.71043268044E+01  0.67018410857E+03  0.67049620951E+03  0.00000000000E+00 0. -1.
<mgrwt>
<rscale>  1 0.82693356E+02</rscale>
<asrwt>0</asrwt>
<pdfrwt beam="1">  1       21 0.20732972E-03 0.82693356E+02</pdfrwt>
<pdfrwt beam="2">  1        2 0.32384782E+00 0.82693356E+02</pdfrwt>
<totfact> 0.34964173E+06</totfact>
</mgrwt>
</event>
<event>
 6    2  0.7993170E+000  0.8536206E+02  0.7546771E-02  0.1314488E+00
          2   -1    0    0  502    0 -0.00000000000E+00  0.00000000000E+00  0.79045764239E+03  0.79045764239E+03  0.00000000000E+00 0. -1.
         21   -1    0    0  501  502  0.00000000000E+00 -0.00000000000E+00 -0.49367754351E+01  0.49367754351E+01  0.00000000000E+00 0. -1.
         24    2    1    2    0    0 -0.16263765436E+02 -0.26701005392E+02  0.68007439698E+03  0.68541072910E+03  0.79430651418E+02 0.  0.
        -11    1    3    3    0    0 -0.70225771704E+01  0.27999751914E+02  0.28547641448E+03  0.28693219743E+03  0.00000000000E+00 0.  1.
         12    1    3    3    0    0 -0.92411882660E+01 -0.54700757306E+02  0.39459798249E+03  0.39847853167E+03  0.00000000000E+00 0. -1.
          1    1    1    2  501    0  0.16263765436E+02  0.26701005392E+02  0.10544646998E+03  0.10998368873E+03  0.00000000000E+00 0. -1.
<mgrwt>
<rscale>  1 0.85362065E+02</rscale>
<asrwt>0</asrwt>
<pdfrwt beam="1">  1       21 0.75950454E-03 0.85362065E+02</pdfrwt>
<pdfrwt beam="2">  1        2 0.12160877E+00 0.85362065E+02</pdfrwt>
<totfact> 0.24519071E+06</totfact>
</mgrwt>
</event>
<event>
 6    2  0.7993170E+000  0.1083873E+03  0.7546771E-02  0.1263586E+00
         21   -1    0    0  501  502  0.00000000000E+00  0.00000000000E+00  0.85671283789E+01  0.85671283789E+01  0.00000000000E+00 0. -1.
          2   -1    0    0  502    0 -0.00000000000E+00 -0.00000000000E+00 -0.25702766980E+04  0.25702766980E+04  0.00000000000E+00 0. -1.
         24    2    1    2    0    0  0.33465036227E+02 -0.60270735066E+02 -0.24073593534E+04  0.24097980947E+04  0.83638093239E+02 0.  0.
        -11    1    3    3    0    0 -0.26745495151E+02 -0.67979494271E+01 -0.69064077658E+03  0.69119188067E+03  0.00000000000E+00 0.  1.
         12    1    3    3    0    0  0.60210531378E+02 -0.53472785639E+02 -0.17167185768E+04  0.17186062140E+04  0.00000000000E+00 0. -1.
          1    1    1    2  501    0 -0.33465036227E+02  0.60270735066E+02 -0.15435021630E+03  0.16904573176E+03  0.00000000000E+00 0. -1.
<mgrwt>
<rscale>  1 0.10838727E+03</rscale>
<asrwt>0</asrwt>
<pdfrwt beam="1">  1       21 0.13180214E-02 0.10838727E+03</pdfrwt>
<pdfrwt beam="2">  1        2 0.39542670E+00 0.10838727E+03</pdfrwt>
<totfact> 0.11791406E+05</totfact>
</mgrwt>
</event>
<event>
 6    2  0.7993170E+000  0.1005463E+03  0.7546771E-02  0.1279151E+00
         21   -1    0    0  501  502  0.00000000000E+00  0.00000000000E+00  0.65252882672E+02  0.65252882672E+02  0.00000000000E+00 0. -1.
          2   -1    0    0  502    0 -0.00000000000E+00 -0.00000000000E+00 -0.49420107709E+03  0.49420107709E+03  0.00000000000E+00 0. -1.
         24    2    1    2    0    0  0.29840084304E+02  0.51437370800E+02 -0.47419094150E+03  0.48473354816E+03  0.81076075170E+02 0.  0.
        -11    1    3    3    0    0  0.43932036274E+02  0.81272325204E+01 -0.12828907263E+03  0.13584609629E+03  0.00000000000E+00 0.  1.
         12    1    3    3    0    0 -0.14091951970E+02  0.43310138280E+02 -0.34590186887E+03  0.34888745187E+03  0.00000000000E+00 0. -1.
          1    1    1    2  501    0 -0.29840084304E+02 -0.51437370800E+02  0.45242747083E+02  0.74720411600E+02  0.00000000000E+00 0. -1.
<mgrwt>
<rscale>  1 0.10054633E+03</rscale>
<asrwt>0</asrwt>
<pdfrwt beam="1">  1       21 0.10038905E-01 0.10054633E+03</pdfrwt>
<pdfrwt beam="2">  1        2 0.76030935E-01 0.10054633E+03</pdfrwt>
<totfact> 0.63187860E+04</totfact>
</mgrwt>
</event>
<event>
 6    2  0.7993170E+000  0.8653203E+02  0.7546771E-02  0.1311474E+00
         21   -1    0    0  501  502  0.00000000000E+00  0.00000000000E+00  0.83236295382E+01  0.83236295382E+01  0.00000000000E+00 0. -1.
          2   -1    0    0  502    0 -0.00000000000E+00 -0.00000000000E+00 -0.11817018309E+04  0.11817018309E+04  0.00000000000E+00 0. -1.
         24    2    1    2    0    0  0.10279388841E+02 -0.27235221108E+02 -0.11484346857E+04  0.11516900711E+04  0.81488461908E+02 0.  0.
        -11    1    3    3    0    0 -0.17296403622E+02  0.21951714830E+02 -0.51199162919E+03  0.51275381200E+03  0.00000000000E+00 0.  1.
         12    1    3    3    0    0  0.27575792463E+02 -0.49186935938E+02 -0.63644305647E+03  0.63893625905E+03  0.00000000000E+00 0. -1.
          1    1    1    2  501    0 -0.10279388841E+02  0.27235221108E+02 -0.24943515693E+02  0.38335389379E+02  0.00000000000E+00 0. -1.
<mgrwt>
<rscale>  1 0.86532032E+02</rscale>
<asrwt>0</asrwt>
<pdfrwt beam="1">  1       21 0.12805588E-02 0.86532032E+02</pdfrwt>
<pdfrwt beam="2">  1        2 0.18180022E+00 0.86532032E+02</pdfrwt>
<totfact> 0.63611232E+05</totfact>
</mgrwt>
</event>
<event>
 6    2  0.7993170E+000  0.8754479E+02  0.7546771E-02  0.1308909E+00
          2   -1    0    0  502    0 -0.00000000000E+00  0.00000000000E+00  0.12285923136E+04  0.12285923136E+04  0.00000000000E+00 0. -1.
         21   -1    0    0  501  502  0.00000000000E+00 -0.00000000000E+00 -0.31631393417E+01  0.31631393417E+01  0.00000000000E+00 0. -1.
         24    2    1    2    0    0 -0.73778574009E+01  0.32890232702E+02  0.74067892402E+03  0.74583467206E+03  0.80795354890E+02 0.  0.
        -13    1    3    3    0    0  0.20539454926E+02  0.24176655462E+02  0.11013320971E+03  0.11461109789E+03  0.00000000000E+00 0.  1.
         14    1    3    3    0    0 -0.27917312326E+02  0.87135772406E+01  0.63054571431E+03  0.63122357417E+03  0.00000000000E+00 0. -1.
          1    1    1    2  501    0  0.73778574009E+01 -0.32890232702E+02  0.48475025028E+03  0.48592078093E+03  0.00000000000E+00 0. -1.
<mgrwt>
<rscale>  1 0.87544786E+02</rscale>
<asrwt>0</asrwt>
<pdfrwt beam="1">  1       21 0.48663780E-03 0.87544786E+02</pdfrwt>
<pdfrwt beam="2">  1        2 0.18901382E+00 0.87544786E+02</pdfrwt>
<totfact> 0.26932248E+06</totfact>
</mgrwt>
</event>
<event>
 6    2  0.7993170E+000  0.8669203E+02  0.7546771E-02  0.1311066E+00
         -1   -1    0    0    0  501 -0.00000000000E+00  0.00000000000E+00  0.20033596176E+02  0.20033596176E+02  0.00000000000E+00 0.  1.
         21   -1    0    0  501  502  0.00000000000E+00 -0.00000000000E+00 -0.23422232401E+03  0.23422232401E+03  0.00000000000E+00 0.  1.
         24    2    1    2    0    0  0.45060506375E+00 -0.29338438880E+02 -0.83682187294E+02  0.12049155959E+03  0.81575489103E+02 0.  0.
        -11    1    3    3    0    0  0.31927511946E+02 -0.18594120009E+02 -0.78592779579E+02  0.86844299294E+02  0.00000000000E+00 0.  1.
         12    1    3    3    0    0 -0.31476906882E+02 -0.10744318871E+02 -0.50894077152E+01  0.33647260301E+02  0.00000000000E+00 0. -1.
         -2    1    1    2    0  502 -0.45060506375E+00  0.29338438880E+02 -0.13050654054E+03  0.13376436059E+03  0.00000000000E+00 0.  1.
<mgrwt>
<rscale>  1 0.86692027E+02</rscale>
<asrwt>0</asrwt>
<pdfrwt beam="1">  1       21 0.36034204E-01 0.86692027E+02</pdfrwt>
<pdfrwt beam="2">  1       -1 0.30820917E-02 0.86692027E+02</pdfrwt>
<totfact> 0.22341486E+05</totfact>
</mgrwt>
</event>
<event>
 6    2  0.7993170E+000  0.8045043E+02  0.7546771E-02  0.1327778E+00
         21   -1    0    0  501  502  0.00000000000E+00  0.00000000000E+00  0.40073885792E+02  0.40073885792E+02  0.00000000000E+00 0.  1.
          2   -1    0    0  502    0 -0.00000000000E+00 -0.00000000000E+00 -0.65195189463E+02  0.65195189463E+02  0.00000000000E+00 0. -1.
         24    2    1    2    0    0 -0.12032074789E+02  0.17653495556E+02 -0.15932617854E+02  0.82012921745E+02  0.77561938426E+02 0.  0.
        -13    1    3    3    0    0  0.65812909670E+01 -0.65859658952E+01  0.27427505434E+02  0.28964743946E+02  0.00000000000E+00 0.  1.
         14    1    3    3    0    0 -0.18613365756E+02  0.24239461451E+02 -0.43360123287E+02  0.53048177798E+02  0.00000000000E+00 0. -1.
          1    1    1    2  501    0  0.12032074789E+02 -0.17653495556E+02 -0.91886858174E+01  0.23256153511E+02  0.00000000000E+00 0. -1.
<mgrwt>
<rscale>  1 0.80450426E+02</rscale>
<asrwt>0</asrwt>
<pdfrwt beam="1">  1       21 0.61652132E-02 0.80450426E+02</pdfrwt>
<pdfrwt beam="2">  1        2 0.10030029E-01 0.80450426E+02</pdfrwt>
<totfact> 0.13234963E+06</totfact>
</mgrwt>
</event>
<event>
 6    2  0.7993170E+000  0.9007490E+02  0.7546771E-02  0.1302670E+00
         21   -1    0    0  501  502  0.00000000000E+00  0.00000000000E+00  0.19992882681E+02  0.19992882681E+02  0.00000000000E+00 0.  1.
          2   -1    0    0  502    0 -0.00000000000E+00 -0.00000000000E+00 -0.22761939556E+03  0.22761939556E+03  0.00000000000E+00 0. -1.
         24    2    1    2    0    0 -0.41117075129E+02 -0.14474592137E+02 -0.12344264066E+03  0.15281221481E+03  0.78824867762E+02 0.  0.
        -11    1    3    3    0    0 -0.99974673600E+01 -0.15128744681E+02  0.64466311184E+01  0.19245449385E+02  0.00000000000E+00 0.  1.
         12    1    3    3    0    0 -0.31119607769E+02  0.65415254453E+00 -0.12988927178E+03  0.13356676543E+03  0.00000000000E+00 0. -1.
          1    1    1    2  501    0  0.41117075129E+02  0.14474592137E+02 -0.84183872217E+02  0.94800063429E+02  0.00000000000E+00 0. -1.
<mgrwt>
<rscale>  1 0.90074899E+02</rscale>
<asrwt>0</asrwt>
<pdfrwt beam="1">  1       21 0.30758281E-02 0.90074899E+02</pdfrwt>
<pdfrwt beam="2">  1        2 0.35018368E-01 0.90074899E+02</pdfrwt>
<totfact> 0.10344816E+06</totfact>
</mgrwt>
</event>
<event>
 6    2  0.7993170E+000  0.9114893E+02  0.7546771E-02  0.1300093E+00
         -1   -1    0    0    0  501 -0.00000000000E+00  0.00000000000E+00  0.70656075016E+02  0.70656075016E+02  0.00000000000E+00 0.  1.
         21   -1    0    0  501  502  0.00000000000E+00 -0.00000000000E+00 -0.11026765556E+03  0.11026765556E+03  0.00000000000E+00 0.  1.
         24    2    1    2    0    0  0.35356503617E+02 -0.48809164539E+01  0.35456732721E+02  0.97802389455E+02  0.83870267642E+02 0.  0.
        -13    1    3    3    0    0  0.54448878851E+02  0.44450929059E+01  0.48345831700E+02  0.72950385207E+02  0.00000000000E+00 0.  1.
         14    1    3    3    0    0 -0.19092375234E+02 -0.93260093597E+01 -0.12889098979E+02  0.24852004248E+02  0.00000000000E+00 0. -1.
         -2    1    1    2    0  502 -0.35356503617E+02  0.48809164539E+01 -0.75068313264E+02  0.83121341121E+02  0.00000000000E+00 0.  1.
<mgrwt>
<rscale>  1 0.91148930E+02</rscale>
<asrwt>0</asrwt>
<pdfrwt beam="1">  1       21 0.16964255E-01 0.91148930E+02</pdfrwt>
<pdfrwt beam="2">  1       -1 0.10870165E-01 0.91148930E+02</pdfrwt>
<totfact> 0.14348316E+05</totfact>
</mgrwt>
</event>
<event>
 6    2  0.7993170E+000  0.8245006E+02  0.7546771E-02  0.1322239E+00
          2   -1    0    0  502    0 -0.00000000000E+00  0.00000000000E+00  0.25454675501E+02  0.25454675501E+02  0.00000000000E+00 0. -1.
         21   -1    0    0  501  502  0.00000000000E+00 -0.00000000000E+00 -0.10999046767E+03  0.10999046767E+03  0.00000000000E+00 0.  1.
         24    2    1    2    0    0 -0.13173867468E+02 -0.17012375081E+02 -0.76510272111E+02  0.11248037315E+03  0.79592970266E+02 0.  0.
        -13    1    3    3    0    0 -0.33346095459E+02 -0.28675006469E+02 -0.14615145174E+02  0.46344584870E+02  0.00000000000E+00 0.  1.
         14    1    3    3    0    0  0.20172227990E+02  0.11662631388E+02 -0.61895126937E+02  0.66135788281E+02  0.00000000000E+00 0. -1.
          1    1    1    2  501    0  0.13173867468E+02  0.17012375081E+02 -0.80255200632E+01  0.22964770024E+02  0.00000000000E+00 0. -1.
<mgrwt>
<rscale>  1 0.82450061E+02</rscale>
<asrwt>0</asrwt>
<pdfrwt beam="1">  1       21 0.16921611E-01 0.82450061E+02</pdfrwt>
<pdfrwt beam="2">  1        2 0.39161039E-02 0.82450061E+02</pdfrwt>
<totfact> 0.75535480E+05</totfact>
</mgrwt>
</event>
<event>
 6    2  0.7993170E+000  0.7718088E+02  0.7546771E-02  0.1337248E+00
          2   -1    0    0  502    0 -0.00000000000E+00  0.00000000000E+00  0.36278122779E+03  0.36278122779E+03  0.00000000000E+00 0. -1.
         21   -1    0    0  501  502  0.00000000000E+00 -0.00000000000E+00 -0.14931317061E+02  0.14931317061E+02  0.00000000000E+00 0. -1.
         24    2    1    2    0    0 -0.15511417275E+02 -0.43384130434E+02  0.30561443715E+03  0.31520956838E+03  0.61920117590E+02 0.  0.
        -11    1    3    3    0    0 -0.29436870411E+02 -0.40063555701E+02  0.13275978855E+03  0.14176310977E+03  0.00000000000E+00 0.  1.
         12    1    3    3    0    0  0.13925453137E+02 -0.33205747334E+01  0.17285464860E+03  0.17344645861E+03  0.00000000000E+00 0. -1.
          1    1    1    2  501    0  0.15511417275E+02  0.43384130434E+02  0.42235473572E+02  0.62502976467E+02  0.00000000000E+00 0. -1.
<mgrwt>
<rscale>  1 0.77180877E+02</rscale>
<asrwt>0</asrwt>
<pdfrwt beam="1">  1       21 0.22971260E-02 0.77180877E+02</pdfrwt>
<pdfrwt beam="2">  1        2 0.55812490E-01 0.77180877E+02</pdfrwt>
<totfact> 0.10016151E+06</totfact>
</mgrwt>
</event>
<event>
 6    2  0.7993170E+000  0.8529903E+02  0.7546771E-02  0.1314652E+00
          2   -1    0    0  502    0 -0.00000000000E+00  0.00000000000E+00  0.87570864295E+02  0.87570864295E+02  0.00000000000E+00 0. -1.
         21   -1    0    0  501  502  0.00000000000E+00 -0.00000000000E+00 -0.48137846028E+02  0.48137846028E+02  0.00000000000E+00 0.  1.
         24    2    1    2    0    0 -0.25468479214E+02 -0.49294610297E+01 -0.36961914951E+01  0.85379079347E+02  0.81258737001E+02 0.  0.
        -11    1    3    3    0    0 -0.46619246986E+02 -0.27666906692E+02 -0.11846086299E+01  0.54223751374E+02  0.00000000000E+00 0.  1.
         12    1    3    3    0    0  0.21150767772E+02  0.22737445662E+02 -0.25115828652E+01  0.31155327973E+02  0.00000000000E+00 0. -1.
          1    1    1    2  501    0  0.25468479214E+02  0.49294610297E+01  0.43129209762E+02  0.50329630976E+02  0.00000000000E+00 0. -1.
<mgrwt>
<rscale>  1 0.85299035E+02</rscale>
<asrwt>0</asrwt>
<pdfrwt beam="1">  1       21 0.74058225E-02 0.85299035E+02</pdfrwt>
<pdfrwt beam="2">  1        2 0.13472441E-01 0.85299035E+02</pdfrwt>
<totfact> 0.68872012E+05</totfact>
</mgrwt>
</event>
<event>
 6    2  0.7993170E+000  0.8353024E+02  0.7546771E-02  0.1319321E+00
         -3   -1    0    0    0  501 -0.00000000000E+00  0.00000000000E+00  0.17611581448E+03  0.17611581448E+03  0.00000000000E+00 0.  1.
         21   -1    0    0  501  502  0.00000000000E+00 -0.00000000000E+00 -0.75213937590E+02  0.75213937590E+02  0.00000000000E+00 0.  1.
         24    2    1    2    0    0 -0.11668315286E+02 -0.27045112205E+02  0.16268966619E+03  0.18288036506E+03  0.78164651617E+02 0.  0.
        -11    1    3    3    0    0  0.15495503286E+02 -0.54822506105E+01  0.14104298524E+03  0.14199749780E+03  0.00000000000E+00 0.  1.
         12    1    3    3    0    0 -0.27163818571E+02 -0.21562861595E+02  0.21646680948E+02  0.40882867263E+02  0.00000000000E+00 0. -1.
         -4    1    1    2    0  502  0.11668315286E+02  0.27045112205E+02 -0.61787789301E+02  0.68449387013E+02  0.00000000000E+00 0.  1.
<mgrwt>
<rscale>  1 0.83530237E+02</rscale>
<asrwt>0</asrwt>
<pdfrwt beam="1">  1       21 0.11571375E-01 0.83530237E+02</pdfrwt>
<pdfrwt beam="2">  1       -3 0.27094741E-01 0.83530237E+02</pdfrwt>
<totfact> 0.37075673E+04</totfact>
</mgrwt>
</event>
<event>
 6    2  0.7993170E+000  0.8673093E+02  0.7546771E-02  0.1310967E+00
          2   -1    0    0  502    0 -0.00000000000E+00  0.00000000000E+00  0.26396580592E+03  0.26396580592E+03  0.00000000000E+00 0. -1.
         21   -1    0    0  501  502  0.00000000000E+00 -0.00000000000E+00 -0.13113119729E+02  0.13113119729E+02  0.00000000000E+00 0. -1.
         24    2    1    2    0    0 -0.15889225387E+02  0.25010693584E+02  0.16762127256E+03  0.18873035185E+03  0.81512283849E+02 0.  0.
        -13    1    3    3    0    0  0.32501059986E+02  0.30808446957E+01  0.50656206548E+02  0.60264929819E+02  0.00000000000E+00 0.  1.
         14    1    3    3    0    0 -0.48390285373E+02  0.21929848889E+02  0.11696506601E+03  0.12846542203E+03  0.00000000000E+00 0. -1.
          1    1    1    2  501    0  0.15889225387E+02 -0.25010693584E+02  0.83231413636E+02  0.88348573802E+02  0.00000000000E+00 0. -1.
<mgrwt>
<rscale>  1 0.86730933E+02</rscale>
<asrwt>0</asrwt>
<pdfrwt beam="1">  1       21 0.20174032E-02 0.86730933E+02</pdfrwt>
<pdfrwt beam="2">  1        2 0.40610120E-01 0.86730933E+02</pdfrwt>
<totfact> 0.17399946E+06</totfact>
</mgrwt>
</event>
<event>
 6    2  0.7993170E+000  0.1684500E+03  0.7546771E-02  0.1179474E+00
         21   -1    0    0  501  502  0.00000000000E+00  0.00000000000E+00  0.20232609713E+03  0.20232609713E+03  0.00000000000E+00 0. -1.
          2   -1    0    0  502    0 -0.00000000000E+00 -0.00000000000E+00 -0.17475249019E+03  0.17475249019E+03  0.00000000000E+00 0. -1.
         24    2    1    2    0    0 -0.69580286684E+02 -0.13563946101E+03  0.11251053776E+03  0.20256852488E+03  0.71665239034E+02 0.  0.
        -11    1    3    3    0    0  0.84000421460E+01 -0.56249542889E+02  0.43783620394E+02  0.71774488490E+02  0.00000000000E+00 0.  1.
         12    1    3    3    0    0 -0.77980328830E+02 -0.79389918119E+02  0.68726917364E+02  0.13079403638E+03  0.00000000000E+00 0. -1.
          1    1    1    2  501    0  0.69580286684E+02  0.13563946101E+03 -0.84936930819E+02  0.17451006244E+03  0.00000000000E+00 0. -1.
<mgrwt>
<rscale>  1 0.16844995E+03</rscale>
<asrwt>0</asrwt>
<pdfrwt beam="1">  1       21 0.31127092E-01 0.16844995E+03</pdfrwt>
<pdfrwt beam="2">  1        2 0.26884999E-01 0.16844995E+03</pdfrwt>
<totfact> 0.24200667E+04</totfact>
</mgrwt>
</event>
<event>
 6    2  0.7993170E+000  0.8561568E+02  0.7546771E-02  0.1313830E+00
          2   -1    0    0  502    0 -0.00000000000E+00  0.00000000000E+00  0.52834116077E+03  0.52834116077E+03  0.00000000000E+00 0. -1.
         21   -1    0    0  501  502  0.00000000000E+00 -0.00000000000E+00 -0.10612183064E+02  0.10612183064E+02  0.00000000000E+00 0. -1.
         24    2    1    2    0    0 -0.39683253348E+02  0.50292305644E+00  0.46576157693E+03  0.47356508593E+03  0.75861917598E+02 0.  0.
        -11    1    3    3    0    0  0.26531349095E+01 -0.94359684384E+01  0.54721374253E+01  0.11225903670E+02  0.00000000000E+00 0.  1.
         12    1    3    3    0    0 -0.42336388258E+02  0.99388914948E+01  0.46028943950E+03  0.46233918226E+03  0.00000000000E+00 0. -1.
          1    1    1    2  501    0  0.39683253348E+02 -0.50292305644E+00  0.51967400774E+02  0.65388257900E+02  0.00000000000E+00 0. -1.
<mgrwt>
<rscale>  1 0.85615677E+02</rscale>
<asrwt>0</asrwt>
<pdfrwt beam="1">  1       21 0.16326440E-02 0.85615677E+02</pdfrwt>
<pdfrwt beam="2">  1        2 0.81283235E-01 0.85615677E+02</pdfrwt>
<totfact> 0.11714304E+06</totfact>
</mgrwt>
</event>
<event>
 6    2  0.7993170E+000  0.8464243E+02  0.7546771E-02  0.1316370E+00
          2   -1    0    0  502    0 -0.00000000000E+00  0.00000000000E+00  0.14463420418E+03  0.14463420418E+03  0.00000000000E+00 0. -1.
         21   -1    0    0  501  502  0.00000000000E+00 -0.00000000000E+00 -0.25919840224E+02  0.25919840224E+02  0.00000000000E+00 0.  1.
         24    2    1    2    0    0  0.23570210536E+02 -0.11683241291E+02  0.11670849596E+03  0.14417078346E+03  0.80450536491E+02 0.  0.
        -11    1    3    3    0    0  0.18952791276E+02  0.30091529499E+02  0.25548464003E+02  0.43788496865E+02  0.00000000000E+00 0.  1.
         12    1    3    3    0    0  0.46174192603E+01 -0.41774770790E+02  0.91160031958E+02  0.10038228659E+03  0.00000000000E+00 0. -1.
          1    1    1    2  501    0 -0.23570210536E+02  0.11683241291E+02  0.20058679963E+01  0.26383260947E+02  0.00000000000E+00 0. -1.
<mgrwt>
<rscale>  1 0.84642435E+02</rscale>
<asrwt>0</asrwt>
<pdfrwt beam="1">  1       21 0.39876678E-02 0.84642435E+02</pdfrwt>
<pdfrwt beam="2">  1        2 0.22251416E-01 0.84642435E+02</pdfrwt>
<totfact> 0.10947241E+06</totfact>
</mgrwt>
</event>
<event>
 6    2  0.7993170E+000  0.8483502E+02  0.7546771E-02  0.1315865E+00
         21   -1    0    0  501  502  0.00000000000E+00  0.00000000000E+00  0.19224702940E+03  0.19224702940E+03  0.00000000000E+00 0.  1.
          2   -1    0    0  502    0 -0.00000000000E+00 -0.00000000000E+00 -0.19796524596E+02  0.19796524596E+02  0.00000000000E+00 0. -1.
         24    2    1    2    0    0  0.77094350080E+01  0.27249448472E+02  0.84874858400E+02  0.12000301036E+03  0.79968825653E+02 0.  0.
        -11    1    3    3    0    0  0.25245334462E+01  0.45487393921E+02  0.89551962467E+02  0.10047402777E+03  0.00000000000E+00 0.  1.
         12    1    3    3    0    0  0.51849015618E+01 -0.18237945449E+02 -0.46771040673E+01  0.19528982586E+02  0.00000000000E+00 0. -1.
          1    1    1    2  501    0 -0.77094350080E+01 -0.27249448472E+02  0.87575646406E+02  0.92040543641E+02  0.00000000000E+00 0. -1.
<mgrwt>
<rscale>  1 0.84835022E+02</rscale>
<asrwt>0</asrwt>
<pdfrwt beam="1">  1       21 0.29576465E-01 0.84835022E+02</pdfrwt>
<pdfrwt beam="2">  1        2 0.30456193E-02 0.84835022E+02</pdfrwt>
<totfact> 0.37581521E+05</totfact>
</mgrwt>
</event>
<event>
 6    2  0.7993170E+000  0.9757962E+02  0.7546771E-02  0.1285470E+00
         21   -1    0    0  501  502  0.00000000000E+00  0.00000000000E+00  0.33633446596E+02  0.33633446596E+02  0.00000000000E+00 0.  1.
         -3   -1    0    0    0  501 -0.00000000000E+00 -0.00000000000E+00 -0.39531558564E+03  0.39531558564E+03  0.00000000000E+00 0.  1.
         24    2    1    2    0    0 -0.48138666542E+02  0.21566946192E+02 -0.36329876855E+03  0.37617519520E+03  0.82093348487E+02 0.  0.
        -13    1    3    3    0    0 -0.31997641290E+02 -0.28566191911E+02 -0.12596566445E+03  0.13306849735E+03  0.00000000000E+00 0.  1.
         14    1    3    3    0    0 -0.16141025252E+02  0.50133138103E+02 -0.23733310411E+03  0.24310669785E+03  0.00000000000E+00 0. -1.
         -4    1    1    2    0  502  0.48138666542E+02 -0.21566946192E+02  0.16166295108E+01  0.52773837036E+02  0.00000000000E+00 0.  1.
<mgrwt>
<rscale>  1 0.97579620E+02</rscale>
<asrwt>0</asrwt>
<pdfrwt beam="1">  1       21 0.51743766E-02 0.97579620E+02</pdfrwt>
<pdfrwt beam="2">  1       -3 0.60817780E-01 0.97579620E+02</pdfrwt>
<totfact> 0.31587678E+04</totfact>
</mgrwt>
</event>
<event>
 6    2  0.7993170E+000  0.8475458E+02  0.7546771E-02  0.1316076E+00
         -1   -1    0    0    0  501 -0.00000000000E+00  0.00000000000E+00  0.17641572095E+03  0.17641572095E+03  0.00000000000E+00 0.  1.
         21   -1    0    0  501  502  0.00000000000E+00 -0.00000000000E+00 -0.22530916704E+02  0.22530916704E+02  0.00000000000E+00 0. -1.
         24    2    1    2    0    0 -0.24779964504E+02  0.34473930285E+01  0.15177895123E+03  0.17383955148E+03  0.80977826977E+02 0.  0.
        -11    1    3    3    0    0 -0.54272984443E+02 -0.28647685395E+01  0.91153421132E+02  0.10612591542E+03  0.00000000000E+00 0.  1.
         12    1    3    3    0    0  0.29493019939E+02  0.63121615680E+01  0.60625530099E+02  0.67713636060E+02  0.00000000000E+00 0. -1.
         -2    1    1    2    0  502  0.24779964504E+02 -0.34473930285E+01  0.21058530202E+01  0.25107086180E+02  0.00000000000E+00 0.  1.
<mgrwt>
<rscale>  1 0.84754585E+02</rscale>
<asrwt>0</asrwt>
<pdfrwt beam="1">  1       21 0.34662950E-02 0.84754585E+02</pdfrwt>
<pdfrwt beam="2">  1       -1 0.27140879E-01 0.84754585E+02</pdfrwt>
<totfact> 0.51041152E+05</totfact>
</mgrwt>
</event>
<event>
 6    2  0.7993170E+000  0.9838050E+02  0.7546771E-02  0.1283739E+00
          2   -1    0    0  502    0 -0.00000000000E+00  0.00000000000E+00  0.73418211588E+02  0.73418211588E+02  0.00000000000E+00 0. -1.
         21   -1    0    0  501  502  0.00000000000E+00 -0.00000000000E+00 -0.83639118673E+02  0.83639118673E+02  0.00000000000E+00 0.  1.
         24    2    1    2    0    0 -0.51445859833E+02 -0.55485846718E+01  0.14959842248E+02  0.99511405793E+02  0.83673530564E+02 0.  0.
        -13    1    3    3    0    0 -0.71422772053E+02 -0.86850783413E+01 -0.36339814462E+01  0.72040605041E+02  0.00000000000E+00 0.  1.
         14    1    3    3    0    0  0.19976912220E+02  0.31364936695E+01  0.18593823695E+02  0.27470800752E+02  0.00000000000E+00 0. -1.
          1    1    1    2  501    0  0.51445859833E+02  0.55485846718E+01 -0.25180749334E+02  0.57545924468E+02  0.00000000000E+00 0. -1.
<mgrwt>
<rscale>  1 0.98380501E+02</rscale>
<asrwt>0</asrwt>
<pdfrwt beam="1">  1       21 0.12867557E-01 0.98380501E+02</pdfrwt>
<pdfrwt beam="2">  1        2 0.11295109E-01 0.98380501E+02</pdfrwt>
<totfact> 0.33036349E+05</totfact>
</mgrwt>
</event>
<event>
 6    2  0.7993170E+000  0.8507313E+02  0.7546771E-02  0.1315241E+00
         -1   -1    0    0    0  501 -0.00000000000E+00  0.00000000000E+00  0.52982145364E+02  0.52982145364E+02  0.00000000000E+00 0.  1.
         21   -1    0    0  501  502  0.00000000000E+00 -0.00000000000E+00 -0.59288687214E+02  0.59288687214E+02  0.00000000000E+00 0. -1.
         24    2    1    2    0    0 -0.92983380878E-01  0.26368596989E+02 -0.99441740767E+01  0.85652344241E+02  0.80883409442E+02 0.  0.
        -11    1    3    3    0    0 -0.34055099079E+02  0.32164257203E+02  0.68201113038E+01  0.47337122144E+02  0.00000000000E+00 0.  1.
         12    1    3    3    0    0  0.33962115699E+02 -0.57956602135E+01 -0.16764285380E+02  0.38315222097E+02  0.00000000000E+00 0. -1.
         -2    1    1    2    0  502  0.92983380878E-01 -0.26368596989E+02  0.36376322268E+01  0.26618488336E+02  0.00000000000E+00 0.  1.
<mgrwt>
<rscale>  1 0.85073130E+02</rscale>
<asrwt>0</asrwt>
<pdfrwt beam="1">  1       21 0.91213365E-02 0.85073130E+02</pdfrwt>
<pdfrwt beam="2">  1       -1 0.81510993E-02 0.85073130E+02</pdfrwt>
<totfact> 0.65461574E+05</totfact>
</mgrwt>
</event>
<event>
 6    2  0.7993170E+000  0.8261499E+02  0.7546771E-02  0.1321790E+00
          2   -1    0    0  502    0 -0.00000000000E+00  0.00000000000E+00  0.25644676599E+04  0.25644676599E+04  0.00000000000E+00 0. -1.
         21   -1    0    0  501  502  0.00000000000E+00 -0.00000000000E+00 -0.19448384466E+01  0.19448384466E+01  0.00000000000E+00 0. -1.
         24    2    1    2    0    0 -0.22671091035E+02 -0.30418578296E+01  0.24592276790E+04  0.24606149666E+04  0.79385171569E+02 0.  0.
        -11    1    3    3    0    0  0.14446755860E+02  0.38879850708E+01  0.10262140352E+03  0.10370620832E+03  0.00000000000E+00 0.  1.
         12    1    3    3    0    0 -0.37117846895E+02 -0.69298429004E+01  0.23566062755E+04  0.23569087583E+04  0.00000000000E+00 0. -1.
          1    1    1    2  501    0  0.22671091035E+02  0.30418578296E+01  0.10329514248E+03  0.10579753176E+03  0.00000000000E+00 0. -1.
<mgrwt>
<rscale>  1 0.82614991E+02</rscale>
<asrwt>0</asrwt>
<pdfrwt beam="1">  1       21 0.29920797E-03 0.82614991E+02</pdfrwt>
<pdfrwt beam="2">  1        2 0.39453078E+00 0.82614991E+02</pdfrwt>
<totfact> 0.11700609E+06</totfact>
</mgrwt>
</event>
<event>
 6    2  0.7993170E+000  0.8495375E+02  0.7546771E-02  0.1315554E+00
         21   -1    0    0  501  502  0.00000000000E+00  0.00000000000E+00  0.10252533166E+02  0.10252533166E+02  0.00000000000E+00 0. -1.
          2   -1    0    0  502    0 -0.00000000000E+00 -0.00000000000E+00 -0.29303755980E+04  0.29303755980E+04  0.00000000000E+00 0. -1.
         24    2    1    2    0    0 -0.27228961976E+02 -0.14241528587E+02 -0.29052458995E+04  0.29064877217E+04  0.79201658243E+02 0.  0.
        -11    1    3    3    0    0 -0.46456198453E+02 -0.98352926928E+01 -0.98812759920E+03  0.98926794331E+03  0.00000000000E+00 0.  1.
         12    1    3    3    0    0  0.19227236477E+02 -0.44062358938E+01 -0.19171183003E+04  0.19172197784E+04  0.00000000000E+00 0. -1.
          1    1    1    2  501    0  0.27228961976E+02  0.14241528587E+02 -0.14877165352E+02  0.34140409425E+02  0.00000000000E+00 0. -1.
<mgrwt>
<rscale>  1 0.84953753E+02</rscale>
<asrwt>0</asrwt>
<pdfrwt beam="1">  1       21 0.15773114E-02 0.84953753E+02</pdfrwt>
<pdfrwt beam="2">  1        2 0.45082741E+00 0.84953753E+02</pdfrwt>
<totfact> 0.56853050E+04</totfact>
</mgrwt>
</event>
<event>
 6    2  0.7993170E+000  0.8458110E+02  0.7546771E-02  0.1316532E+00
          2   -1    0    0  502    0 -0.00000000000E+00  0.00000000000E+00  0.16456054747E+04  0.16456054747E+04  0.00000000000E+00 0. -1.
         21   -1    0    0  501  502  0.00000000000E+00 -0.00000000000E+00 -0.21187974617E+01  0.21187974617E+01  0.00000000000E+00 0. -1.
         24    2    1    2    0    0  0.95909871041E+01 -0.23242333317E+02  0.14692749601E+04  0.14717074676E+04  0.80757468935E+02 0.  0.
        -11    1    3    3    0    0  0.44214546352E+02 -0.50749141502E+01  0.66981064312E+03  0.67128755277E+03  0.00000000000E+00 0.  1.
         12    1    3    3    0    0 -0.34623559248E+02 -0.18167419167E+02  0.79946431694E+03  0.80041991482E+03  0.00000000000E+00 0. -1.
          1    1    1    2  501    0 -0.95909871041E+01  0.23242333317E+02  0.17421171713E+03  0.17601680453E+03  0.00000000000E+00 0. -1.
<mgrwt>
<rscale>  1 0.84581096E+02</rscale>
<asrwt>0</asrwt>
<pdfrwt beam="1">  1       21 0.32597016E-03 0.84581096E+02</pdfrwt>
<pdfrwt beam="2">  1        2 0.25316905E+00 0.84581096E+02</pdfrwt>
<totfact> 0.30099667E+06</totfact>
</mgrwt>
</event>
<event>
 6    2  0.7993170E+000  0.8889146E+02  0.7546771E-02  0.1305559E+00
         -1   -1    0    0    0  501 -0.00000000000E+00  0.00000000000E+00  0.29629198243E+03  0.29629198243E+03  0.00000000000E+00 0.  1.
         21   -1    0    0  501  502  0.00000000000E+00 -0.00000000000E+00 -0.13425847446E+02  0.13425847446E+02  0.00000000000E+00 0.  1.
         24    2    1    2    0    0 -0.33320231436E+02  0.11174545071E+02  0.17519134696E+03  0.19645279442E+03  0.81649152509E+02 0.  0.
        -11    1    3    3    0    0 -0.26911422541E+02 -0.33945328977E+02  0.85333831478E+02  0.95699387758E+02  0.00000000000E+00 0.  1.
         12    1    3    3    0    0 -0.64088088950E+01  0.45119874047E+02  0.89857515486E+02  0.10075340667E+03  0.00000000000E+00 0. -1.
         -2    1    1    2    0  502  0.33320231436E+02 -0.11174545071E+02  0.10767478802E+03  0.11326503545E+03  0.00000000000E+00 0.  1.
<mgrwt>
<rscale>  1 0.88891464E+02</rscale>
<asrwt>0</asrwt>
<pdfrwt beam="1">  1       21 0.20655152E-02 0.88891464E+02</pdfrwt>
<pdfrwt beam="2">  1       -1 0.45583377E-01 0.88891464E+02</pdfrwt>
<totfact> 0.49071004E+05</totfact>
</mgrwt>
</event>
<event>
 6    2  0.7993170E+000  0.1073323E+03  0.7546771E-02  0.1265591E+00
         -1   -1    0    0    0  501 -0.00000000000E+00  0.00000000000E+00  0.54396548232E+03  0.54396548232E+03  0.00000000000E+00 0.  1.
         21   -1    0    0  501  502  0.00000000000E+00 -0.00000000000E+00 -0.11869575737E+02  0.11869575737E+02  0.00000000000E+00 0.  1.
         24    2    1    2    0    0  0.46495919349E+02 -0.25199969496E+02  0.37627856880E+03  0.39128733935E+03  0.93398670317E+02 0.  0.
        -11    1    3    3    0    0  0.44273850939E+02 -0.14642998557E+02  0.37755487904E+03  0.38042381362E+03  0.00000000000E+00 0.  1.
         12    1    3    3    0    0  0.22220684101E+01 -0.10556970939E+02 -0.12763102376E+01  0.10863525728E+02  0.00000000000E+00 0. -1.
         -2    1    1    2    0  502 -0.46495919349E+02  0.25199969496E+02  0.15581733778E+03  0.16454771871E+03  0.00000000000E+00 0.  1.
<mgrwt>
<rscale>  1 0.10733229E+03</rscale>
<asrwt>0</asrwt>
<pdfrwt beam="1">  1       21 0.18260890E-02 0.10733229E+03</pdfrwt>
<pdfrwt beam="2">  1       -1 0.83686978E-01 0.10733229E+03</pdfrwt>
<totfact> 0.19123898E+05</totfact>
</mgrwt>
</event>
<event>
 6    2  0.7993170E+000  0.1155074E+03  0.7546771E-02  0.1250698E+00
          2   -1    0    0  502    0 -0.00000000000E+00  0.00000000000E+00  0.18909180572E+04  0.18909180572E+04  0.00000000000E+00 0. -1.
         21   -1    0    0  501  502  0.00000000000E+00 -0.00000000000E+00 -0.59385284027E+01  0.59385284027E+01  0.00000000000E+00 0.  1.
         24    2    1    2    0    0 -0.13060499361E+02 -0.81134731189E+02  0.74309174502E+03  0.75201549096E+03  0.81169796566E+02 0.  0.
        -11    1    3    3    0    0 -0.31590086094E+02 -0.64441954897E+02  0.30970569047E+03  0.31791243102E+03  0.00000000000E+00 0.  1.
         12    1    3    3    0    0  0.18529586733E+02 -0.16692776293E+02  0.43338605455E+03  0.43410305994E+03  0.00000000000E+00 0. -1.
          1    1    1    2  501    0  0.13060499361E+02  0.81134731189E+02  0.11418877838E+04  0.11448410947E+04  0.00000000000E+00 0. -1.
<mgrwt>
<rscale>  1 0.11550739E+03</rscale>
<asrwt>0</asrwt>
<pdfrwt beam="1">  1       21 0.91362126E-03 0.11550739E+03</pdfrwt>
<pdfrwt beam="2">  1        2 0.29090999E+00 0.11550739E+03</pdfrwt>
<totfact> 0.47133808E+05</totfact>
</mgrwt>
</event>
<event>
 6    2  0.7993170E+000  0.8820018E+02  0.7546771E-02  0.1307270E+00
         21   -1    0    0  501  502  0.00000000000E+00  0.00000000000E+00  0.56191150725E+02  0.56191150725E+02  0.00000000000E+00 0. -1.
          2   -1    0    0  502    0 -0.00000000000E+00 -0.00000000000E+00 -0.14885583278E+03  0.14885583278E+03  0.00000000000E+00 0. -1.
         24    2    1    2    0    0  0.25218500519E+02  0.25879476358E+02 -0.12738204909E+03  0.15493694820E+03  0.80458383174E+02 0.  0.
        -13    1    3    3    0    0  0.17055344861E+02 -0.12663762178E+02  0.37178709713E+00  0.21246032252E+02  0.00000000000E+00 0.  1.
         14    1    3    3    0    0  0.81631556577E+01  0.38543238535E+02 -0.12775383619E+03  0.13369091595E+03  0.00000000000E+00 0. -1.
          1    1    1    2  501    0 -0.25218500519E+02 -0.25879476358E+02  0.34717367031E+02  0.50110035307E+02  0.00000000000E+00 0. -1.
<mgrwt>
<rscale>  1 0.88200179E+02</rscale>
<asrwt>0</asrwt>
<pdfrwt beam="1">  1       21 0.86447925E-02 0.88200179E+02</pdfrwt>
<pdfrwt beam="2">  1        2 0.22900897E-01 0.88200179E+02</pdfrwt>
<totfact> 0.29086682E+05</totfact>
</mgrwt>
</event>
<event>
 6    2  0.7993170E+000  0.8078311E+02  0.7546771E-02  0.1326844E+00
         21   -1    0    0  501  502  0.00000000000E+00  0.00000000000E+00  0.54273709174E+01  0.54273709174E+01  0.00000000000E+00 0. -1.
         -1   -1    0    0    0  501 -0.00000000000E+00 -0.00000000000E+00 -0.47783229453E+03  0.47783229453E+03  0.00000000000E+00 0.  1.
         24    2    1    2    0    0  0.19156559824E+02 -0.67529977518E+01 -0.39903607800E+03  0.40713106196E+03  0.78187807881E+02 0.  0.
        -13    1    3    3    0    0  0.54379014663E+01  0.30490189297E+02 -0.27876944067E+03  0.28048462251E+03  0.00000000000E+00 0.  1.
         14    1    3    3    0    0  0.13718658358E+02 -0.37243187049E+02 -0.12026663734E+03  0.12664643945E+03  0.00000000000E+00 0. -1.
         -2    1    1    2    0  502 -0.19156559824E+02  0.67529977518E+01 -0.73368845608E+02  0.76128603486E+02  0.00000000000E+00 0.  1.
<mgrwt>
<rscale>  1 0.80783105E+02</rscale>
<asrwt>0</asrwt>
<pdfrwt beam="1">  1       21 0.83498018E-03 0.80783105E+02</pdfrwt>
<pdfrwt beam="2">  1       -1 0.73512657E-01 0.80783105E+02</pdfrwt>
<totfact> 0.82875260E+05</totfact>
</mgrwt>
</event>
<event>
 6    2  0.7993170E+000  0.8039291E+02  0.7546771E-02  0.1327940E+00
         21   -1    0    0  501  502  0.00000000000E+00  0.00000000000E+00  0.48005428131E+01  0.48005428131E+01  0.00000000000E+00 0.  1.
          2   -1    0    0  502    0 -0.00000000000E+00 -0.00000000000E+00 -0.58452162128E+03  0.58452162128E+03  0.00000000000E+00 0. -1.
         24    2    1    2    0    0 -0.15184317301E+02 -0.18793918029E+02 -0.40137890919E+03  0.40935076584E+03  0.76676240809E+02 0.  0.
        -13    1    3    3    0    0 -0.68869207877E+01 -0.18748832570E+02 -0.21369236549E+02  0.29250515745E+02  0.00000000000E+00 0.  1.
         14    1    3    3    0    0 -0.82973965129E+01 -0.45085459237E-01 -0.38000967264E+03  0.38010025010E+03  0.00000000000E+00 0. -1.
          1    1    1    2  501    0  0.15184317301E+02  0.18793918029E+02 -0.17834216928E+03  0.17997139825E+03  0.00000000000E+00 0. -1.
<mgrwt>
<rscale>  1 0.80392915E+02</rscale>
<asrwt>0</asrwt>
<pdfrwt beam="1">  1       21 0.73854458E-03 0.80392915E+02</pdfrwt>
<pdfrwt beam="2">  1        2 0.89926461E-01 0.80392915E+02</pdfrwt>
<totfact> 0.36013049E+06</totfact>
</mgrwt>
</event>
<event>
 6    2  0.7993170E+000  0.9409090E+02  0.7546771E-02  0.1293237E+00
          2   -1    0    0  502    0 -0.00000000000E+00  0.00000000000E+00  0.10534533857E+04  0.10534533857E+04  0.00000000000E+00 0. -1.
         21   -1    0    0  501  502  0.00000000000E+00 -0.00000000000E+00 -0.78661197632E+01  0.78661197632E+01  0.00000000000E+00 0. -1.
         24    2    1    2    0    0  0.19739321931E+02  0.33766250346E+02  0.98315640716E+03  0.98764853004E+03  0.85576266907E+02 0.  0.
        -13    1    3    3    0    0  0.96183340323E+01 -0.24858415277E+02  0.14838889936E+03  0.15076378415E+03  0.00000000000E+00 0.  1.
         14    1    3    3    0    0  0.10120987899E+02  0.58624665623E+02  0.83476750780E+03  0.83688474589E+03  0.00000000000E+00 0. -1.
          1    1    1    2  501    0 -0.19739321931E+02 -0.33766250346E+02  0.62430858802E+02  0.73670975448E+02  0.00000000000E+00 0. -1.
<mgrwt>
<rscale>  1 0.94090903E+02</rscale>
<asrwt>0</asrwt>
<pdfrwt beam="1">  1       21 0.12101731E-02 0.94090903E+02</pdfrwt>
<pdfrwt beam="2">  1        2 0.16206964E+00 0.94090903E+02</pdfrwt>
<totfact> 0.82448218E+05</totfact>
</mgrwt>
</event>
<event>
 6    2  0.7993170E+000  0.9696649E+02  0.7546771E-02  0.1286807E+00
          2   -1    0    0  502    0 -0.00000000000E+00  0.00000000000E+00  0.11636890667E+04  0.11636890667E+04  0.00000000000E+00 0. -1.
         21   -1    0    0  501  502  0.00000000000E+00 -0.00000000000E+00 -0.48321213037E+01  0.48321213037E+01  0.00000000000E+00 0.  1.
         24    2    1    2    0    0 -0.61336609894E+01 -0.52649916056E+02  0.75215571041E+03  0.75838032196E+03  0.81196456695E+02 0.  0.
        -13    1    3    3    0    0  0.20271248894E+01 -0.39103887050E+02  0.12421501579E+03  0.13024052121E+03  0.00000000000E+00 0.  1.
         14    1    3    3    0    0 -0.81607858788E+01 -0.13546029007E+02  0.62794069462E+03  0.62813980075E+03  0.00000000000E+00 0. -1.
          1    1    1    2  501    0  0.61336609894E+01  0.52649916056E+02  0.40670123502E+03  0.41014086607E+03  0.00000000000E+00 0. -1.
<mgrwt>
<rscale>  1 0.96966489E+02</rscale>
<asrwt>0</asrwt>
<pdfrwt beam="1">  1       21 0.74340420E-03 0.96966489E+02</pdfrwt>
<pdfrwt beam="2">  1        2 0.17902886E+00 0.96966489E+02</pdfrwt>
<totfact> 0.15343803E+06</totfact>
</mgrwt>
</event>
<event>
 6    2  0.7993170E+000  0.1019577E+03  0.7546771E-02  0.1276232E+00
         21   -1    0    0  501  502  0.00000000000E+00  0.00000000000E+00  0.49764661661E+01  0.49764661661E+01  0.00000000000E+00 0.  1.
          2   -1    0    0  502    0 -0.00000000000E+00 -0.00000000000E+00 -0.15480272479E+04  0.15480272479E+04  0.00000000000E+00 0. -1.
         24    2    1    2    0    0 -0.67223573436E+02  0.55748413539E+01 -0.71844201781E+03  0.72564061287E+03  0.76454420467E+02 0.  0.
        -11    1    3    3    0    0 -0.84380355523E+02  0.48519898743E+01 -0.61554535133E+03  0.62132090400E+03  0.00000000000E+00 0.  1.
         12    1    3    3    0    0  0.17156782086E+02  0.72285147953E+00 -0.10289666648E+03  0.10431970887E+03  0.00000000000E+00 0. -1.
          1    1    1    2  501    0  0.67223573436E+02 -0.55748413539E+01 -0.82460876391E+03  0.82736310119E+03  0.00000000000E+00 0. -1.
<mgrwt>
<rscale>  1 0.10195767E+03</rscale>
<asrwt>0</asrwt>
<pdfrwt beam="1">  1       21 0.76560906E-03 0.10195767E+03</pdfrwt>
<pdfrwt beam="2">  1        2 0.23815839E+00 0.10195767E+03</pdfrwt>
<totfact> 0.92255540E+05</totfact>
</mgrwt>
</event>
<event>
 6    2  0.7993170E+000  0.8494032E+02  0.7546771E-02  0.1315589E+00
         21   -1    0    0  501  502  0.00000000000E+00  0.00000000000E+00  0.13070126482E+03  0.13070126482E+03  0.00000000000E+00 0. -1.
          2   -1    0    0  502    0 -0.00000000000E+00 -0.00000000000E+00 -0.57888931465E+02  0.57888931465E+02  0.00000000000E+00 0. -1.
         24    2    1    2    0    0  0.44183279029E+01  0.23279947797E+02 -0.24525126675E+02  0.88410064941E+02  0.81568254570E+02 0.  0.
        -13    1    3    3    0    0  0.33006873249E+02  0.21680040742E+01  0.14068896586E+02  0.35945622467E+02  0.00000000000E+00 0.  1.
         14    1    3    3    0    0 -0.28588545347E+02  0.21111943722E+02 -0.38594023260E+02  0.52464442475E+02  0.00000000000E+00 0. -1.
          1    1    1    2  501    0 -0.44183279029E+01 -0.23279947797E+02  0.97337460029E+02  0.10018013134E+03  0.00000000000E+00 0. -1.
<mgrwt>
<rscale>  1 0.84940319E+02</rscale>
<asrwt>0</asrwt>
<pdfrwt beam="1">  1       21 0.20107887E-01 0.84940319E+02</pdfrwt>
<pdfrwt beam="2">  1        2 0.89059895E-02 0.84940319E+02</pdfrwt>
<totfact> 0.19539108E+05</totfact>
</mgrwt>
</event>
<event>
 6    2  0.7993170E+000  0.1074805E+03  0.7546771E-02  0.1265308E+00
         21   -1    0    0  501  502  0.00000000000E+00  0.00000000000E+00  0.65126364269E+03  0.65126364269E+03  0.00000000000E+00 0. -1.
          4   -1    0    0  502    0 -0.00000000000E+00 -0.00000000000E+00 -0.27324565577E+02  0.27324565577E+02  0.00000000000E+00 0. -1.
         24    2    1    2    0    0  0.46753887578E+02 -0.55206314808E+02  0.91199125939E+02  0.14095867153E+03  0.79488384738E+02 0.  0.
        -13    1    3    3    0    0 -0.15693654854E+02  0.82532008398E+01  0.94720241984E+01  0.20102869676E+02  0.00000000000E+00 0.  1.
         14    1    3    3    0    0  0.62447542432E+02 -0.63459515648E+02  0.81727101741E+02  0.12085580185E+03  0.00000000000E+00 0. -1.
          3    1    1    2  501    0 -0.46753887578E+02  0.55206314808E+02  0.53273995118E+03  0.53762953674E+03  0.00000000000E+00 0. -1.
<mgrwt>
<rscale>  1 0.10748054E+03</rscale>
<asrwt>0</asrwt>
<pdfrwt beam="1">  1       21 0.10019439E+00 0.10748054E+03</pdfrwt>
<pdfrwt beam="2">  1        4 0.42037798E-02 0.10748054E+03</pdfrwt>
<totfact> 0.10512042E+04</totfact>
</mgrwt>
</event>
<event>
 6    2  0.7993170E+000  0.8280393E+02  0.7546771E-02  0.1321277E+00
         21   -1    0    0  501  502  0.00000000000E+00  0.00000000000E+00  0.39937131448E+02  0.39937131448E+02  0.00000000000E+00 0.  1.
         -3   -1    0    0    0  501 -0.00000000000E+00 -0.00000000000E+00 -0.15673809894E+03  0.15673809894E+03  0.00000000000E+00 0.  1.
         24    2    1    2    0    0 -0.12340574257E+02 -0.16093509703E+02 -0.14196946379E+03  0.16435272997E+03  0.80282005274E+02 0.  0.
        -11    1    3    3    0    0 -0.83971929448E+01  0.12983653834E+02 -0.13267438013E+03  0.13357237461E+03  0.00000000000E+00 0.  1.
         12    1    3    3    0    0 -0.39433813118E+01 -0.29077163536E+02 -0.92950836597E+01  0.30780355354E+02  0.00000000000E+00 0. -1.
         -4    1    1    2    0  502  0.12340574257E+02  0.16093509703E+02  0.25168496299E+02  0.32322500422E+02  0.00000000000E+00 0.  1.
<mgrwt>
<rscale>  1 0.82803932E+02</rscale>
<asrwt>0</asrwt>
<pdfrwt beam="1">  1       21 0.61441739E-02 0.82803932E+02</pdfrwt>
<pdfrwt beam="2">  1       -3 0.24113554E-01 0.82803932E+02</pdfrwt>
<totfact> 0.13475366E+05</totfact>
</mgrwt>
</event>
<event>
 6    2  0.7993170E+000  0.8219878E+02  0.7546771E-02  0.1322925E+00
         -1   -1    0    0    0  501 -0.00000000000E+00  0.00000000000E+00  0.18689257351E+02  0.18689257351E+02  0.00000000000E+00 0.  1.
         21   -1    0    0  501  502  0.00000000000E+00 -0.00000000000E+00 -0.40128494107E+03  0.40128494107E+03  0.00000000000E+00 0.  1.
         24    2    1    2    0    0 -0.22310265884E+02  0.40239946031E+01 -0.74165738681E+02  0.11071221968E+03  0.79010747982E+02 0.  0.
        -11    1    3    3    0    0  0.36157416794E-01  0.54894591715E+01  0.16464825843E+02  0.17355862392E+02  0.00000000000E+00 0.  1.
         12    1    3    3    0    0 -0.22346423301E+02 -0.14654645684E+01 -0.90630564524E+02  0.93356357291E+02  0.00000000000E+00 0. -1.
         -2    1    1    2    0  502  0.22310265884E+02 -0.40239946031E+01 -0.30842994504E+03  0.30926197874E+03  0.00000000000E+00 0.  1.
<mgrwt>
<rscale>  1 0.82198776E+02</rscale>
<asrwt>0</asrwt>
<pdfrwt beam="1">  1       21 0.61736139E-01 0.82198776E+02</pdfrwt>
<pdfrwt beam="2">  1       -1 0.28752706E-02 0.82198776E+02</pdfrwt>
<totfact> 0.82759934E+04</totfact>
</mgrwt>
</event>
<event>
 6    2  0.7993170E+000  0.8426539E+02  0.7546771E-02  0.1317365E+00
         21   -1    0    0  501  502  0.00000000000E+00  0.00000000000E+00  0.13056385197E+03  0.13056385197E+03  0.00000000000E+00 0.  1.
          2   -1    0    0  502    0 -0.00000000000E+00 -0.00000000000E+00 -0.23756622708E+02  0.23756622708E+02  0.00000000000E+00 0. -1.
         24    2    1    2    0    0  0.23915355843E+02  0.73399118272E+01  0.93916005769E+02  0.12617794114E+03  0.80466378942E+02 0.  0.
        -13    1    3    3    0    0 -0.10144767973E+02  0.11151307991E+02  0.90486898636E+02  0.91734109315E+02  0.00000000000E+00 0.  1.
         14    1    3    3    0    0  0.34060123816E+02 -0.38113961640E+01  0.34291071333E+01  0.34443831825E+02  0.00000000000E+00 0. -1.
          1    1    1    2  501    0 -0.23915355843E+02 -0.73399118272E+01  0.12891223490E+02  0.28142533535E+02  0.00000000000E+00 0. -1.
<mgrwt>
<rscale>  1 0.84265394E+02</rscale>
<asrwt>0</asrwt>
<pdfrwt beam="1">  1       21 0.20086746E-01 0.84265394E+02</pdfrwt>
<pdfrwt beam="2">  1        2 0.36548651E-02 0.84265394E+02</pdfrwt>
<totfact> 0.60737037E+05</totfact>
</mgrwt>
</event>
<event>
 6    2  0.7993170E+000  0.9419545E+02  0.7546771E-02  0.1292998E+00
         21   -1    0    0  501  502  0.00000000000E+00  0.00000000000E+00  0.39134293350E+03  0.39134293350E+03  0.00000000000E+00 0. -1.
          2   -1    0    0  502    0 -0.00000000000E+00 -0.00000000000E+00 -0.13854369326E+03  0.13854369326E+03  0.00000000000E+00 0. -1.
         24    2    1    2    0    0 -0.43815249909E+02 -0.17925272116E+02 -0.12086498922E+03  0.15323553106E+03  0.81435194211E+02 0.  0.
        -11    1    3    3    0    0 -0.21491141060E+02  0.29313880568E+02 -0.25189427674E+02  0.44223070953E+02  0.00000000000E+00 0.  1.
         12    1    3    3    0    0 -0.22324108850E+02 -0.47239152684E+02 -0.95675561547E+02  0.10901246011E+03  0.00000000000E+00 0. -1.
          1    1    1    2  501    0  0.43815249909E+02  0.17925272116E+02  0.37366422947E+03  0.37665109570E+03  0.00000000000E+00 0. -1.
<mgrwt>
<rscale>  1 0.94195448E+02</rscale>
<asrwt>0</asrwt>
<pdfrwt beam="1">  1       21 0.60206605E-01 0.94195448E+02</pdfrwt>
<pdfrwt beam="2">  1        2 0.21314414E-01 0.94195448E+02</pdfrwt>
<totfact> 0.83242081E+03</totfact>
</mgrwt>
</event>
<event>
 6    2  0.7993170E+000  0.8794365E+02  0.7546771E-02  0.1307909E+00
         -3   -1    0    0    0  501 -0.00000000000E+00  0.00000000000E+00  0.73301331511E+01  0.73301331511E+01  0.00000000000E+00 0.  1.
         21   -1    0    0  501  502  0.00000000000E+00 -0.00000000000E+00 -0.74509580187E+03  0.74509580187E+03  0.00000000000E+00 0. -1.
         24    2    1    2    0    0  0.31390806015E+02  0.53211427732E+01 -0.68627443638E+03  0.69188632592E+03  0.81977976922E+02 0.  0.
        -13    1    3    3    0    0  0.24330771074E+02  0.43036531926E+02 -0.36724431789E+03  0.37055703815E+03  0.00000000000E+00 0.  1.
         14    1    3    3    0    0  0.70600349411E+01 -0.37715389153E+02 -0.31903011849E+03  0.32132928777E+03  0.00000000000E+00 0. -1.
         -4    1    1    2    0  502 -0.31390806015E+02 -0.53211427732E+01 -0.51491232339E+02  0.60539609104E+02  0.00000000000E+00 0.  1.
<mgrwt>
<rscale>  1 0.87943652E+02</rscale>
<asrwt>0</asrwt>
<pdfrwt beam="1">  1       21 0.11463013E+00 0.87943652E+02</pdfrwt>
<pdfrwt beam="2">  1       -3 0.11277127E-02 0.87943652E+02</pdfrwt>
<totfact> 0.62492616E+04</totfact>
</mgrwt>
</event>
<event>
 6    2  0.7993170E+000  0.9038395E+02  0.7546771E-02  0.1301925E+00
         21   -1    0    0  501  502  0.00000000000E+00  0.00000000000E+00  0.24947876099E+02  0.24947876099E+02  0.00000000000E+00 0.  1.
          2   -1    0    0  502    0 -0.00000000000E+00 -0.00000000000E+00 -0.17368596013E+03  0.17368596013E+03  0.00000000000E+00 0. -1.
         24    2    1    2    0    0 -0.26971213844E+02  0.30204016523E+02 -0.11234357094E+03  0.14418854650E+03  0.80805507368E+02 0.  0.
        -11    1    3    3    0    0  0.10899148346E+02  0.18056297015E+02  0.37945839355E+01  0.21429422853E+02  0.00000000000E+00 0.  1.
         12    1    3    3    0    0 -0.37870362190E+02  0.12147719507E+02 -0.11613815488E+03  0.12275912365E+03  0.00000000000E+00 0. -1.
          1    1    1    2  501    0  0.26971213844E+02 -0.30204016523E+02 -0.36394513094E+02  0.54445289729E+02  0.00000000000E+00 0. -1.
<mgrwt>
<rscale>  1 0.90383953E+02</rscale>
<asrwt>0</asrwt>
<pdfrwt beam="1">  1       21 0.38381347E-02 0.90383953E+02</pdfrwt>
<pdfrwt beam="2">  1        2 0.26720918E-01 0.90383953E+02</pdfrwt>
<totfact> 0.96173552E+05</totfact>
</mgrwt>
</event>
<event>
 6    2  0.7993170E+000  0.8539045E+02  0.7546771E-02  0.1314415E+00
          4   -1    0    0  502    0 -0.00000000000E+00  0.00000000000E+00  0.10949631994E+03  0.10949631994E+03  0.00000000000E+00 0. -1.
         21   -1    0    0  501  502  0.00000000000E+00 -0.00000000000E+00 -0.30159190490E+02  0.30159190490E+02  0.00000000000E+00 0. -1.
         24    2    1    2    0    0 -0.11304508342E+02 -0.26507939961E+02  0.65880795154E+02  0.10785086105E+03  0.80380758073E+02 0.  0.
        -11    1    3    3    0    0 -0.50667309217E+01  0.16253815205E+02 -0.10564405269E+02  0.20036589770E+02  0.00000000000E+00 0.  1.
         12    1    3    3    0    0 -0.62377774203E+01 -0.42761755166E+02  0.76445200422E+02  0.87814271276E+02  0.00000000000E+00 0. -1.
          3    1    1    2  501    0  0.11304508342E+02  0.26507939961E+02  0.13456334298E+02  0.31804649386E+02  0.00000000000E+00 0. -1.
<mgrwt>
<rscale>  1 0.85390451E+02</rscale>
<asrwt>0</asrwt>
<pdfrwt beam="1">  1       21 0.46398755E-02 0.85390451E+02</pdfrwt>
<pdfrwt beam="2">  1        4 0.16845587E-01 0.85390451E+02</pdfrwt>
<totfact> 0.34246406E+05</totfact>
</mgrwt>
</event>
<event>
 6    2  0.7993170E+000  0.8433529E+02  0.7546771E-02  0.1317180E+00
         21   -1    0    0  501  502  0.00000000000E+00  0.00000000000E+00  0.88630522577E+02  0.88630522577E+02  0.00000000000E+00 0.  1.
          4   -1    0    0  502    0 -0.00000000000E+00 -0.00000000000E+00 -0.47106378869E+02  0.47106378869E+02  0.00000000000E+00 0. -1.
         24    2    1    2    0    0  0.20724411500E+02  0.22930374904E+02  0.45473866590E+00  0.84336518610E+02  0.78467434383E+02 0.  0.
        -13    1    3    3    0    0  0.15215344301E+02  0.98561986549E+01  0.39138471079E+02  0.43133180645E+02  0.00000000000E+00 0.  1.
         14    1    3    3    0    0  0.55090671992E+01  0.13074176250E+02 -0.38683732413E+02  0.41203337965E+02  0.00000000000E+00 0. -1.
          3    1    1    2  501    0 -0.20724411500E+02 -0.22930374904E+02  0.41069405042E+02  0.51400382836E+02  0.00000000000E+00 0. -1.
<mgrwt>
<rscale>  1 0.84335293E+02</rscale>
<asrwt>0</asrwt>
<pdfrwt beam="1">  1       21 0.13635465E-01 0.84335293E+02</pdfrwt>
<pdfrwt beam="2">  1        4 0.72471352E-02 0.84335293E+02</pdfrwt>
<totfact> 0.22438882E+05</totfact>
</mgrwt>
</event>
<event>
 6    2  0.7993170E+000  0.1322338E+03  0.7546771E-02  0.1224178E+00
         21   -1    0    0  501  502  0.00000000000E+00  0.00000000000E+00  0.23052407034E+03  0.23052407034E+03  0.00000000000E+00 0. -1.
         -1   -1    0    0    0  501 -0.00000000000E+00 -0.00000000000E+00 -0.66800718824E+02  0.66800718824E+02  0.00000000000E+00 0.  1.
         24    2    1    2    0    0 -0.99963704757E+02 -0.28358760360E+02  0.13620188613E+03  0.18983342851E+03  0.81785177370E+02 0.  0.
        -11    1    3    3    0    0 -0.44735476575E+01  0.11467327048E+01 -0.10987548603E+02  0.11918634521E+02  0.00000000000E+00 0.  1.
         12    1    3    3    0    0 -0.95490157099E+02 -0.29505493065E+02  0.14718943473E+03  0.17791479399E+03  0.00000000000E+00 0. -1.
         -2    1    1    2    0  502  0.99963704757E+02  0.28358760360E+02  0.27521465388E+02  0.10749136065E+03  0.00000000000E+00 0.  1.
<mgrwt>
<rscale>  1 0.13223380E+03</rscale>
<asrwt>0</asrwt>
<pdfrwt beam="1">  1       21 0.35465241E-01 0.13223380E+03</pdfrwt>
<pdfrwt beam="2">  1       -1 0.10277034E-01 0.13223380E+03</pdfrwt>
<totfact> 0.39754740E+04</totfact>
</mgrwt>
</event>
<event>
 6    2  0.7993170E+000  0.1172120E+03  0.7546771E-02  0.1247769E+00
          2   -1    0    0  502    0 -0.00000000000E+00  0.00000000000E+00  0.13670452042E+02  0.13670452042E+02  0.00000000000E+00 0. -1.
         21   -1    0    0  501  502  0.00000000000E+00 -0.00000000000E+00 -0.75247879972E+03  0.75247879972E+03  0.00000000000E+00 0. -1.
         24    2    1    2    0    0 -0.67602186490E+02 -0.47053897730E+02 -0.36435994545E+03  0.38274902897E+03  0.83393791225E+02 0.  0.
        -11    1    3    3    0    0 -0.62659215613E+01 -0.27321082722E+02 -0.24934803457E+03  0.25091860369E+03  0.00000000000E+00 0.  1.
         12    1    3    3    0    0 -0.61336264928E+02 -0.19732815008E+02 -0.11501191088E+03  0.13183042527E+03  0.00000000000E+00 0. -1.
          1    1    1    2  501    0  0.67602186490E+02  0.47053897730E+02 -0.37444840222E+03  0.38340022279E+03  0.00000000000E+00 0. -1.
<mgrwt>
<rscale>  1 0.11721198E+03</rscale>
<asrwt>0</asrwt>
<pdfrwt beam="1">  1       21 0.11576598E+00 0.11721198E+03</pdfrwt>
<pdfrwt beam="2">  1        2 0.21031463E-02 0.11721198E+03</pdfrwt>
<totfact> 0.34943648E+04</totfact>
</mgrwt>
</event>
<event>
 6    2  0.7993170E+000  0.8788023E+02  0.7546771E-02  0.1308068E+00
          4   -1    0    0  502    0 -0.00000000000E+00  0.00000000000E+00  0.55462507302E+03  0.55462507302E+03  0.00000000000E+00 0. -1.
         21   -1    0    0  501  502  0.00000000000E+00 -0.00000000000E+00 -0.80779254302E+01  0.80779254302E+01  0.00000000000E+00 0.  1.
         24    2    1    2    0    0 -0.29228627583E+02  0.15842309657E+02  0.26481385876E+03  0.27901489951E+03  0.81348896191E+02 0.  0.
        -13    1    3    3    0    0 -0.19098991914E+02  0.34782159284E+02  0.53485307897E+02  0.66597659549E+02  0.00000000000E+00 0.  1.
         14    1    3    3    0    0 -0.10129635670E+02 -0.18939849627E+02  0.21132855087E+03  0.21241723996E+03  0.00000000000E+00 0. -1.
          3    1    1    2  501    0  0.29228627583E+02 -0.15842309657E+02  0.28173328883E+03  0.28368809894E+03  0.00000000000E+00 0. -1.
<mgrwt>
<rscale>  1 0.87880227E+02</rscale>
<asrwt>0</asrwt>
<pdfrwt beam="1">  1       21 0.12427582E-02 0.87880227E+02</pdfrwt>
<pdfrwt beam="2">  1        4 0.85326904E-01 0.87880227E+02</pdfrwt>
<totfact> 0.12168005E+05</totfact>
</mgrwt>
</event>
<event>
 6    2  0.7993170E+000  0.8713622E+02  0.7546771E-02  0.1309939E+00
         21   -1    0    0  501  502  0.00000000000E+00  0.00000000000E+00  0.12161560502E+02  0.12161560502E+02  0.00000000000E+00 0. -1.
          2   -1    0    0  502    0 -0.00000000000E+00 -0.00000000000E+00 -0.12699351573E+04  0.12699351573E+04  0.00000000000E+00 0. -1.
         24    2    1    2    0    0 -0.19863919902E+02  0.23241144177E+02 -0.12464527352E+04  0.12494947546E+04  0.81596535282E+02 0.  0.
        -11    1    3    3    0    0 -0.14279278624E+02 -0.68532613977E-01 -0.34944706881E+02  0.37749636207E+02  0.00000000000E+00 0.  1.
         12    1    3    3    0    0 -0.55846412782E+01  0.23309676791E+02 -0.12115080283E+04  0.12117451184E+04  0.00000000000E+00 0. -1.
          1    1    1    2  501    0  0.19863919902E+02 -0.23241144177E+02 -0.11320861567E+02  0.32601963180E+02  0.00000000000E+00 0. -1.
<mgrwt>
<rscale>  1 0.87136219E+02</rscale>
<asrwt>0</asrwt>
<pdfrwt beam="1">  1       21 0.18710101E-02 0.87136219E+02</pdfrwt>
<pdfrwt beam="2">  1        2 0.19537456E+00 0.87136219E+02</pdfrwt>
<totfact> 0.31291858E+05</totfact>
</mgrwt>
</event>
<event>
 6    2  0.7993170E+000  0.8536761E+02  0.7546771E-02  0.1314474E+00
         21   -1    0    0  501  502  0.00000000000E+00  0.00000000000E+00  0.20509412819E+03  0.20509412819E+03  0.00000000000E+00 0. -1.
          2   -1    0    0  502    0 -0.00000000000E+00 -0.00000000000E+00 -0.26237874991E+02  0.26237874991E+02  0.00000000000E+00 0. -1.
         24    2    1    2    0    0 -0.28252509753E+02 -0.30928256957E+01  0.49060459416E+02  0.98460945527E+02  0.80497572870E+02 0.  0.
        -11    1    3    3    0    0  0.13062476936E+02 -0.13548676006E+02  0.52434856719E+02  0.55710045093E+02  0.00000000000E+00 0.  1.
         12    1    3    3    0    0 -0.41314986688E+02  0.10455850310E+02 -0.33743973023E+01  0.42750900434E+02  0.00000000000E+00 0. -1.
          1    1    1    2  501    0  0.28252509753E+02  0.30928256957E+01  0.12979579379E+03  0.13287105766E+03  0.00000000000E+00 0. -1.
<mgrwt>
<rscale>  1 0.85367612E+02</rscale>
<asrwt>0</asrwt>
<pdfrwt beam="1">  1       21 0.31552942E-01 0.85367612E+02</pdfrwt>
<pdfrwt beam="2">  1        2 0.40365963E-02 0.85367612E+02</pdfrwt>
<totfact> 0.22944954E+05</totfact>
</mgrwt>
</event>
<event>
 6    2  0.7993170E+000  0.9349891E+02  0.7546771E-02  0.1294593E+00
          2   -1    0    0  502    0 -0.00000000000E+00  0.00000000000E+00  0.81876489986E+03  0.81876489986E+03  0.00000000000E+00 0. -1.
         21   -1    0    0  501  502  0.00000000000E+00 -0.00000000000E+00 -0.62666609159E+01  0.62666609159E+01  0.00000000000E+00 0.  1.
         24    2    1    2    0    0  0.46686801714E+02 -0.13051569155E+02  0.58511251476E+03  0.59253582216E+03  0.79950263931E+02 0.  0.
        -11    1    3    3    0    0  0.16337645079E+02  0.10445024629E+01  0.17597128187E+02  0.24034736373E+02  0.00000000000E+00 0.  1.
         12    1    3    3    0    0  0.30349156635E+02 -0.14096071618E+02  0.56751538657E+03  0.56850108579E+03  0.00000000000E+00 0. -1.
          1    1    1    2  501    0 -0.46686801714E+02  0.13051569155E+02  0.22738572418E+03  0.23249573862E+03  0.00000000000E+00 0. -1.
<mgrwt>
<rscale>  1 0.93498907E+02</rscale>
<asrwt>0</asrwt>
<pdfrwt beam="1">  1       21 0.96410233E-03 0.93498907E+02</pdfrwt>
<pdfrwt beam="2">  1        2 0.12596375E+00 0.93498907E+02</pdfrwt>
<totfact> 0.16359414E+06</totfact>
</mgrwt>
</event>
<event>
 6    2  0.7993170E+000  0.9914612E+02  0.7546771E-02  0.1282102E+00
         -1   -1    0    0    0  501 -0.00000000000E+00  0.00000000000E+00  0.34086001861E+03  0.34086001861E+03  0.00000000000E+00 0.  1.
         21   -1    0    0  501  502  0.00000000000E+00 -0.00000000000E+00 -0.24959037076E+02  0.24959037076E+02  0.00000000000E+00 0.  1.
         24    2    1    2    0    0  0.49623342008E+02 -0.31756938501E+02  0.27950437457E+03  0.29656811913E+03  0.79743179429E+02 0.  0.
        -13    1    3    3    0    0  0.51505982256E+02 -0.30773986372E+02  0.28470083392E+03  0.29095441100E+03  0.00000000000E+00 0.  1.
         14    1    3    3    0    0 -0.18826402473E+01 -0.98295212879E+00 -0.51964593503E+01  0.56137081299E+01  0.00000000000E+00 0. -1.
         -2    1    1    2    0  502 -0.49623342008E+02  0.31756938501E+02  0.36396606958E+02  0.69250936550E+02  0.00000000000E+00 0.  1.
<mgrwt>
<rscale>  1 0.99146124E+02</rscale>
<asrwt>0</asrwt>
<pdfrwt beam="1">  1       21 0.38398521E-02 0.99146124E+02</pdfrwt>
<pdfrwt beam="2">  1       -1 0.52439999E-01 0.99146124E+02</pdfrwt>
<totfact> 0.14067176E+05</totfact>
</mgrwt>
</event>
<event>
 6    2  0.7993170E+000  0.9261214E+02  0.7546771E-02  0.1296647E+00
          2   -1    0    0  502    0 -0.00000000000E+00  0.00000000000E+00  0.16957355260E+04  0.16957355260E+04  0.00000000000E+00 0. -1.
         21   -1    0    0  501  502  0.00000000000E+00 -0.00000000000E+00 -0.33703394390E+01  0.33703394390E+01  0.00000000000E+00 0.  1.
         24    2    1    2    0    0 -0.11025468011E+01  0.44656602340E+02  0.14274293433E+04  0.14304305431E+04  0.81126943935E+02 0.  0.
        -11    1    3    3    0    0  0.25062344406E+02  0.27724919646E+02  0.26919760817E+03  0.27177958812E+03  0.00000000000E+00 0.  1.
         12    1    3    3    0    0 -0.26164891207E+02  0.16931682694E+02  0.11582317351E+04  0.11586509550E+04  0.00000000000E+00 0. -1.
          1    1    1    2  501    0  0.11025468011E+01 -0.44656602340E+02  0.26493584330E+03  0.26867532229E+03  0.00000000000E+00 0. -1.
<mgrwt>
<rscale>  1 0.92612142E+02</rscale>
<asrwt>0</asrwt>
<pdfrwt beam="1">  1       21 0.51851511E-03 0.92612142E+02</pdfrwt>
<pdfrwt beam="2">  1        2 0.26088171E+00 0.92612142E+02</pdfrwt>
<totfact> 0.14096257E+06</totfact>
</mgrwt>
</event>
<event>
 6    2  0.7993170E+000  0.8589382E+02  0.7546771E-02  0.1313112E+00
         21   -1    0    0  501  502  0.00000000000E+00  0.00000000000E+00  0.12469603105E+02  0.12469603105E+02  0.00000000000E+00 0. -1.
          4   -1    0    0  502    0 -0.00000000000E+00 -0.00000000000E+00 -0.27613142411E+03  0.27613142411E+03  0.00000000000E+00 0. -1.
         24    2    1    2    0    0  0.33012400987E+01 -0.30420476250E+02 -0.17805688772E+03  0.19769168686E+03  0.80258608425E+02 0.  0.
        -13    1    3    3    0    0 -0.24231129758E+02  0.10101929155E+02 -0.22409840887E+02  0.34516627741E+02  0.00000000000E+00 0.  1.
         14    1    3    3    0    0  0.27532369857E+02 -0.40522405406E+02 -0.15564704683E+03  0.16317505912E+03  0.00000000000E+00 0. -1.
          3    1    1    2  501    0 -0.33012400987E+01  0.30420476250E+02 -0.85604933285E+02  0.90909340358E+02  0.00000000000E+00 0. -1.
<mgrwt>
<rscale>  1 0.85893817E+02</rscale>
<asrwt>0</asrwt>
<pdfrwt beam="1">  1       21 0.19184002E-02 0.85893817E+02</pdfrwt>
<pdfrwt beam="2">  1        4 0.42481763E-01 0.85893817E+02</pdfrwt>
<totfact> 0.26045226E+05</totfact>
</mgrwt>
</event>
<event>
 6    2  0.7993170E+000  0.1306384E+03  0.7546771E-02  0.1226512E+00
         21   -1    0    0  501  502  0.00000000000E+00  0.00000000000E+00  0.62096788792E+02  0.62096788792E+02  0.00000000000E+00 0. -1.
          2   -1    0    0  502    0 -0.00000000000E+00 -0.00000000000E+00 -0.39152411599E+03  0.39152411599E+03  0.00000000000E+00 0. -1.
         24    2    1    2    0    0 -0.79480110981E+02 -0.65340090624E+02 -0.32540824046E+03  0.35065213019E+03  0.80498310291E+02 0.  0.
        -13    1    3    3    0    0 -0.24388996235E+02  0.12742251877E+02 -0.32686557337E+02  0.42727030681E+02  0.00000000000E+00 0.  1.
         14    1    3    3    0    0 -0.55091114745E+02 -0.78082342501E+02 -0.29272168312E+03  0.30792509950E+03  0.00000000000E+00 0. -1.
          1    1    1    2  501    0  0.79480110981E+02  0.65340090624E+02 -0.40190867406E+01  0.10296877460E+03  0.00000000000E+00 0. -1.
<mgrwt>
<rscale>  1 0.13063841E+03</rscale>
<asrwt>0</asrwt>
<pdfrwt beam="1">  1       21 0.95533520E-02 0.13063841E+03</pdfrwt>
<pdfrwt beam="2">  1        2 0.60234480E-01 0.13063841E+03</pdfrwt>
<totfact> 0.88970050E+04</totfact>
</mgrwt>
</event>
<event>
 6    2  0.7993170E+000  0.9237487E+02  0.7546771E-02  0.1297200E+00
          2   -1    0    0  502    0 -0.00000000000E+00  0.00000000000E+00  0.16078991841E+04  0.16078991841E+04  0.00000000000E+00 0. -1.
         21   -1    0    0  501  502  0.00000000000E+00 -0.00000000000E+00 -0.32179029322E+01  0.32179029322E+01  0.00000000000E+00 0.  1.
         24    2    1    2    0    0  0.43499856342E+02 -0.12949153625E+02  0.83391872852E+03  0.83901940497E+03  0.80456187199E+02 0.  0.
        -11    1    3    3    0    0 -0.36383991867E+01  0.24482828746E+02  0.11762565789E+03  0.12020167322E+03  0.00000000000E+00 0.  1.
         12    1    3    3    0    0  0.47138255529E+02 -0.37431982371E+02  0.71629307063E+03  0.71881773175E+03  0.00000000000E+00 0. -1.
          1    1    1    2  501    0 -0.43499856342E+02  0.12949153625E+02  0.77076255270E+03  0.77209768211E+03  0.00000000000E+00 0. -1.
<mgrwt>
<rscale>  1 0.92374867E+02</rscale>
<asrwt>0</asrwt>
<pdfrwt beam="1">  1       21 0.49506327E-03 0.92374867E+02</pdfrwt>
<pdfrwt beam="2">  1        2 0.24736846E+00 0.92374867E+02</pdfrwt>
<totfact> 0.16756275E+06</totfact>
</mgrwt>
</event>
<event>
 6    2  0.7993170E+000  0.8496649E+02  0.7546771E-02  0.1315520E+00
         21   -1    0    0  501  502  0.00000000000E+00  0.00000000000E+00  0.23429852678E+03  0.23429852678E+03  0.00000000000E+00 0. -1.
         -3   -1    0    0    0  501 -0.00000000000E+00 -0.00000000000E+00 -0.21267983212E+02  0.21267983212E+02  0.00000000000E+00 0.  1.
         24    2    1    2    0    0 -0.30511159641E+02 -0.60680775859E+01  0.72683893162E+02  0.11181347626E+03  0.79066761151E+02 0.  0.
        -11    1    3    3    0    0  0.29755127476E+01  0.33072674512E+02  0.24354966649E+02  0.41180333607E+02  0.00000000000E+00 0.  1.
         12    1    3    3    0    0 -0.33486672389E+02 -0.39140752098E+02  0.48328926513E+02  0.70633142648E+02  0.00000000000E+00 0. -1.
         -4    1    1    2    0  502  0.30511159641E+02  0.60680775859E+01  0.14034665040E+03  0.14375303373E+03  0.00000000000E+00 0.  1.
<mgrwt>
<rscale>  1 0.84966494E+02</rscale>
<asrwt>0</asrwt>
<pdfrwt beam="1">  1       21 0.36045925E-01 0.84966494E+02</pdfrwt>
<pdfrwt beam="2">  1       -3 0.32719976E-02 0.84966494E+02</pdfrwt>
<totfact> 0.14799985E+05</totfact>
</mgrwt>
</event>
<event>
 6    2  0.7993170E+000  0.8765635E+02  0.7546771E-02  0.1308629E+00
          2   -1    0    0  502    0 -0.00000000000E+00  0.00000000000E+00  0.24459997614E+03  0.24459997614E+03  0.00000000000E+00 0. -1.
         21   -1    0    0  501  502  0.00000000000E+00 -0.00000000000E+00 -0.57920713413E+02  0.57920713413E+02  0.00000000000E+00 0. -1.
         24    2    1    2    0    0 -0.26615842522E+02  0.23549490873E+02  0.23020517751E+03  0.24632917016E+03  0.80128988066E+02 0.  0.
        -11    1    3    3    0    0  0.42846932431E+01  0.28534405226E+02  0.23348077713E+02  0.37117430012E+02  0.00000000000E+00 0.  1.
         12    1    3    3    0    0 -0.30900535765E+02 -0.49849143530E+01  0.20685709979E+03  0.20921174015E+03  0.00000000000E+00 0. -1.
          1    1    1    2  501    0  0.26615842522E+02 -0.23549490873E+02 -0.43525914782E+02  0.56191519388E+02  0.00000000000E+00 0. -1.
<mgrwt>
<rscale>  1 0.87656354E+02</rscale>
<asrwt>0</asrwt>
<pdfrwt beam="1">  1       21 0.89108791E-02 0.87656354E+02</pdfrwt>
<pdfrwt beam="2">  1        2 0.37630765E-01 0.87656354E+02</pdfrwt>
<totfact> 0.16207024E+05</totfact>
</mgrwt>
</event>
<event>
 6    2  0.7993170E+000  0.8742261E+02  0.7546771E-02  0.1309216E+00
         21   -1    0    0  501  502  0.00000000000E+00  0.00000000000E+00  0.77070226180E+01  0.77070226180E+01  0.00000000000E+00 0. -1.
          2   -1    0    0  502    0 -0.00000000000E+00 -0.00000000000E+00 -0.74385918909E+03  0.74385918909E+03  0.00000000000E+00 0. -1.
         24    2    1    2    0    0 -0.28196679202E+02 -0.21500971962E+02 -0.67684226923E+03  0.68246477595E+03  0.79908500666E+02 0.  0.
        -11    1    3    3    0    0  0.27728729148E+02 -0.92968258309E+01 -0.18404576800E+03  0.18635492510E+03  0.00000000000E+00 0.  1.
         12    1    3    3    0    0 -0.55925408350E+02 -0.12204146131E+02 -0.49279650123E+03  0.49610985085E+03  0.00000000000E+00 0. -1.
          1    1    1    2  501    0  0.28196679202E+02  0.21500971962E+02 -0.59309897241E+02  0.69101435760E+02  0.00000000000E+00 0. -1.
<mgrwt>
<rscale>  1 0.87422611E+02</rscale>
<asrwt>0</asrwt>
<pdfrwt beam="1">  1       21 0.11856952E-02 0.87422611E+02</pdfrwt>
<pdfrwt beam="2">  1        2 0.11443993E+00 0.87422611E+02</pdfrwt>
<totfact> 0.13203635E+06</totfact>
</mgrwt>
</event>
<event>
 6    2  0.7993170E+000  0.8675640E+02  0.7546771E-02  0.1310902E+00
          2   -1    0    0  502    0 -0.00000000000E+00  0.00000000000E+00  0.16005594727E+03  0.16005594727E+03  0.00000000000E+00 0. -1.
         21   -1    0    0  501  502  0.00000000000E+00 -0.00000000000E+00 -0.52737436746E+02  0.52737436746E+02  0.00000000000E+00 0. -1.
         24    2    1    2    0    0  0.28330421672E+02 -0.11103101119E+02  0.14215594340E+03  0.16653823970E+03  0.81245193047E+02 0.  0.
        -13    1    3    3    0    0 -0.15316085736E+02 -0.33021098815E+02  0.45727983994E+02  0.58446761838E+02  0.00000000000E+00 0.  1.
         14    1    3    3    0    0  0.43646507408E+02  0.21917997696E+02  0.96427959405E+02  0.10809147786E+03  0.00000000000E+00 0. -1.
          1    1    1    2  501    0 -0.28330421672E+02  0.11103101119E+02 -0.34837432872E+02  0.46255144316E+02  0.00000000000E+00 0. -1.
<mgrwt>
<rscale>  1 0.86756401E+02</rscale>
<asrwt>0</asrwt>
<pdfrwt beam="1">  1       21 0.81134519E-02 0.86756401E+02</pdfrwt>
<pdfrwt beam="2">  1        2 0.24623992E-01 0.86756401E+02</pdfrwt>
<totfact> 0.29909413E+05</totfact>
</mgrwt>
</event>
<event>
 6    2  0.7993170E+000  0.8146905E+02  0.7546771E-02  0.1324933E+00
         21   -1    0    0  501  502  0.00000000000E+00  0.00000000000E+00  0.39568750576E+02  0.39568750576E+02  0.00000000000E+00 0.  1.
         -3   -1    0    0    0  501 -0.00000000000E+00 -0.00000000000E+00 -0.89908499204E+02  0.89908499204E+02  0.00000000000E+00 0.  1.
         24    2    1    2    0    0  0.24986489033E+02 -0.62439539537E+01 -0.60824338613E+02  0.10167008843E+03  0.77290976954E+02 0.  0.
        -13    1    3    3    0    0  0.46038248760E+02 -0.12931425952E+02 -0.63421606314E+02  0.79429479877E+02  0.00000000000E+00 0.  1.
         14    1    3    3    0    0 -0.21051759726E+02  0.66874719985E+01  0.25972677012E+01  0.22240608553E+02  0.00000000000E+00 0. -1.
         -4    1    1    2    0  502 -0.24986489033E+02  0.62439539537E+01  0.10484589985E+02  0.27807161350E+02  0.00000000000E+00 0.  1.
<mgrwt>
<rscale>  1 0.81469054E+02</rscale>
<asrwt>0</asrwt>
<pdfrwt beam="1">  1       21 0.60875001E-02 0.81469054E+02</pdfrwt>
<pdfrwt beam="2">  1       -3 0.13832077E-01 0.81469054E+02</pdfrwt>
<totfact> 0.35597797E+05</totfact>
</mgrwt>
</event>
<event>
 6    2  0.7993170E+000  0.8375986E+02  0.7546771E-02  0.1318708E+00
         21   -1    0    0  501  502  0.00000000000E+00  0.00000000000E+00  0.75080755720E+01  0.75080755720E+01  0.00000000000E+00 0.  1.
         -1   -1    0    0    0  501 -0.00000000000E+00 -0.00000000000E+00 -0.49306181411E+03  0.49306181411E+03  0.00000000000E+00 0.  1.
         24    2    1    2    0    0  0.69836418272E+01 -0.25774478065E+02 -0.43884192898E+03  0.44676386656E+03  0.79389034846E+02 0.  0.
        -13    1    3    3    0    0 -0.10187278656E+02  0.21227139017E+02 -0.25967542218E+03  0.26074066994E+03  0.00000000000E+00 0.  1.
         14    1    3    3    0    0  0.17170920484E+02 -0.47001617082E+02 -0.17916650680E+03  0.18602319661E+03  0.00000000000E+00 0. -1.
         -2    1    1    2    0  502 -0.69836418272E+01  0.25774478065E+02 -0.46711809552E+02  0.53806023123E+02  0.00000000000E+00 0.  1.
<mgrwt>
<rscale>  1 0.83759858E+02</rscale>
<asrwt>0</asrwt>
<pdfrwt beam="1">  1       21 0.11550886E-02 0.83759858E+02</pdfrwt>
<pdfrwt beam="2">  1       -1 0.75855661E-01 0.83759858E+02</pdfrwt>
<totfact> 0.47156209E+05</totfact>
</mgrwt>
</event>
<event>
 6    2  0.7993170E+000  0.8292960E+02  0.7546771E-02  0.1320937E+00
          2   -1    0    0  502    0 -0.00000000000E+00  0.00000000000E+00  0.11195574552E+04  0.11195574552E+04  0.00000000000E+00 0. -1.
         21   -1    0    0  501  502  0.00000000000E+00 -0.00000000000E+00 -0.36675851119E+01  0.36675851119E+01  0.00000000000E+00 0.  1.
         24    2    1    2    0    0  0.25704146547E+02  0.68133526668E+01  0.10295100629E+04  0.10328447548E+04  0.78550575577E+02 0.  0.
        -13    1    3    3    0    0  0.17767911003E+02 -0.35427159737E+02  0.44899441963E+03  0.45074024800E+03  0.00000000000E+00 0.  1.
         14    1    3    3    0    0  0.79362355443E+01  0.42240512404E+02  0.58051564330E+03  0.58210450681E+03  0.00000000000E+00 0. -1.
          1    1    1    2  501    0 -0.25704146547E+02 -0.68133526668E+01  0.86379807168E+02  0.90380285520E+02  0.00000000000E+00 0. -1.
<mgrwt>
<rscale>  1 0.82929596E+02</rscale>
<asrwt>0</asrwt>
<pdfrwt beam="1">  1       21 0.56424475E-03 0.82929596E+02</pdfrwt>
<pdfrwt beam="2">  1        2 0.17223934E+00 0.82929596E+02</pdfrwt>
<totfact> 0.24491437E+06</totfact>
</mgrwt>
</event>
<event>
 6    2  0.7993170E+000  0.9730030E+02  0.7546771E-02  0.1286078E+00
         21   -1    0    0  501  502  0.00000000000E+00  0.00000000000E+00  0.32895972679E+02  0.32895972679E+02  0.00000000000E+00 0.  1.
         -1   -1    0    0    0  501 -0.00000000000E+00 -0.00000000000E+00 -0.29667405265E+03  0.29667405265E+03  0.00000000000E+00 0.  1.
         24    2    1    2    0    0 -0.25313461738E+02 -0.51465767612E+02 -0.25319558272E+03  0.27124776690E+03  0.78599308878E+02 0.  0.
        -13    1    3    3    0    0 -0.29219968293E+00 -0.45320028857E+02 -0.23590452840E+03  0.24021851909E+03  0.00000000000E+00 0.  1.
         14    1    3    3    0    0 -0.25021262055E+02 -0.61457387551E+01 -0.17291054322E+02  0.31029247803E+02  0.00000000000E+00 0. -1.
         -2    1    1    2    0  502  0.25313461738E+02  0.51465767612E+02 -0.10582497254E+02  0.58322258437E+02  0.00000000000E+00 0.  1.
<mgrwt>
<rscale>  1 0.97300298E+02</rscale>
<asrwt>0</asrwt>
<pdfrwt beam="1">  1       21 0.50609191E-02 0.97300298E+02</pdfrwt>
<pdfrwt beam="2">  1       -1 0.45642160E-01 0.97300298E+02</pdfrwt>
<totfact> 0.11417711E+05</totfact>
</mgrwt>
</event>
<event>
 6    2  0.7993170E+000  0.8727689E+02  0.7546771E-02  0.1309583E+00
         21   -1    0    0  501  502  0.00000000000E+00  0.00000000000E+00  0.16783174746E+02  0.16783174746E+02  0.00000000000E+00 0. -1.
          2   -1    0    0  502    0 -0.00000000000E+00 -0.00000000000E+00 -0.31191807309E+03  0.31191807309E+03  0.00000000000E+00 0. -1.
         24    2    1    2    0    0  0.29750804177E+02  0.11309290012E+02 -0.28032353493E+03  0.29359587964E+03  0.81266511663E+02 0.  0.
        -11    1    3    3    0    0 -0.27399786646E+02  0.11897300145E+02 -0.10706284913E+03  0.11115191282E+03  0.00000000000E+00 0.  1.
         12    1    3    3    0    0  0.57150590823E+02 -0.58801013309E+00 -0.17326068580E+03  0.18244396682E+03  0.00000000000E+00 0. -1.
          1    1    1    2  501    0 -0.29750804177E+02 -0.11309290012E+02 -0.14811363415E+02  0.35105368193E+02  0.00000000000E+00 0. -1.
<mgrwt>
<rscale>  1 0.87276894E+02</rscale>
<asrwt>0</asrwt>
<pdfrwt beam="1">  1       21 0.25820268E-02 0.87276894E+02</pdfrwt>
<pdfrwt beam="2">  1        2 0.47987398E-01 0.87276894E+02</pdfrwt>
<totfact> 0.98410927E+05</totfact>
</mgrwt>
</event>
<event>
 6    2  0.7993170E+000  0.8336874E+02  0.7546771E-02  0.1319754E+00
         21   -1    0    0  501  502  0.00000000000E+00  0.00000000000E+00  0.63211949108E+01  0.63211949108E+01  0.00000000000E+00 0. -1.
         -1   -1    0    0    0  501 -0.00000000000E+00 -0.00000000000E+00 -0.51125340208E+03  0.51125340208E+03  0.00000000000E+00 0.  1.
         24    2    1    2    0    0 -0.65491232796E+01  0.22999418034E+02 -0.30399701386E+03  0.31522140044E+03  0.79865403095E+02 0.  0.
        -13    1    3    3    0    0 -0.13651596718E+02 -0.33314519315E+01 -0.27520532944E+03  0.27556385470E+03  0.00000000000E+00 0.  1.
         14    1    3    3    0    0  0.71024734387E+01  0.26330869966E+02 -0.28791684422E+02  0.39657545738E+02  0.00000000000E+00 0. -1.
         -2    1    1    2    0  502  0.65491232796E+01 -0.22999418034E+02 -0.20093519331E+03  0.20235319655E+03  0.00000000000E+00 0.  1.
<mgrwt>
<rscale>  1 0.83368740E+02</rscale>
<asrwt>0</asrwt>
<pdfrwt beam="1">  1       21 0.97249162E-03 0.83368740E+02</pdfrwt>
<pdfrwt beam="2">  1       -1 0.78654362E-01 0.83368740E+02</pdfrwt>
<totfact> 0.57361797E+05</totfact>
</mgrwt>
</event>
<event>
 6    2  0.7993170E+000  0.1028784E+03  0.7546771E-02  0.1274357E+00
          4   -1    0    0  502    0 -0.00000000000E+00  0.00000000000E+00  0.24389417521E+02  0.24389417521E+02  0.00000000000E+00 0. -1.
         21   -1    0    0  501  502  0.00000000000E+00 -0.00000000000E+00 -0.34052894019E+03  0.34052894019E+03  0.00000000000E+00 0. -1.
         24    2    1    2    0    0  0.48501325844E+02  0.29272297916E+02 -0.10779416805E+03  0.14900857834E+03  0.85876234901E+02 0.  0.
        -11    1    3    3    0    0  0.20915159636E+02  0.16104792392E+02 -0.11467676245E+03  0.11767569029E+03  0.00000000000E+00 0.  1.
         12    1    3    3    0    0  0.27586166208E+02  0.13167505524E+02  0.68825944010E+01  0.31332888049E+02  0.00000000000E+00 0. -1.
          3    1    1    2  501    0 -0.48501325844E+02 -0.29272297916E+02 -0.20834535462E+03  0.21590977937E+03  0.00000000000E+00 0. -1.
<mgrwt>
<rscale>  1 0.10287844E+03</rscale>
<asrwt>0</asrwt>
<pdfrwt beam="1">  1       21 0.52389066E-01 0.10287844E+03</pdfrwt>
<pdfrwt beam="2">  1        4 0.37522182E-02 0.10287844E+03</pdfrwt>
<totfact> 0.51643698E+04</totfact>
</mgrwt>
</event>
<event>
 6    2  0.7993170E+000  0.8845843E+02  0.7546771E-02  0.1306628E+00
         21   -1    0    0  501  502  0.00000000000E+00  0.00000000000E+00  0.34484697768E+02  0.34484697768E+02  0.00000000000E+00 0. -1.
          4   -1    0    0  502    0 -0.00000000000E+00 -0.00000000000E+00 -0.19429356454E+03  0.19429356454E+03  0.00000000000E+00 0. -1.
         24    2    1    2    0    0 -0.27452656647E+02 -0.25158989032E+02 -0.16870804585E+03  0.19049225345E+03  0.80238836008E+02 0.  0.
        -13    1    3    3    0    0  0.25439095334E+01  0.19748100600E+02 -0.89071156195E+01  0.21812740811E+02  0.00000000000E+00 0.  1.
         14    1    3    3    0    0 -0.29996566180E+02 -0.44907089632E+02 -0.15980093023E+03  0.16867951264E+03  0.00000000000E+00 0. -1.
          3    1    1    2  501    0  0.27452656647E+02  0.25158989032E+02  0.88991790778E+01  0.38286008859E+02  0.00000000000E+00 0. -1.
<mgrwt>
<rscale>  1 0.88458430E+02</rscale>
<asrwt>0</asrwt>
<pdfrwt beam="1">  1       21 0.53053382E-02 0.88458430E+02</pdfrwt>
<pdfrwt beam="2">  1        4 0.29891317E-01 0.88458430E+02</pdfrwt>
<totfact> 0.97928261E+04</totfact>
</mgrwt>
</event>
<event>
 6    2  0.7993170E+000  0.8624734E+02  0.7546771E-02  0.1312202E+00
         21   -1    0    0  501  502  0.00000000000E+00  0.00000000000E+00  0.19750489640E+01  0.19750489640E+01  0.00000000000E+00 0. -1.
          2   -1    0    0  502    0 -0.00000000000E+00 -0.00000000000E+00 -0.17381795997E+04  0.17381795997E+04  0.00000000000E+00 0. -1.
         24    2    1    2    0    0  0.46341318239E+01  0.29642819911E+02 -0.13775877447E+04  0.13802849701E+04  0.80860574412E+02 0.  0.
        -11    1    3    3    0    0 -0.15865587860E+02  0.19505638978E+01 -0.55701762353E+02  0.57950046652E+02  0.00000000000E+00 0.  1.
         12    1    3    3    0    0  0.20499719684E+02  0.27692256013E+02 -0.13218859823E+04  0.13223349235E+04  0.00000000000E+00 0. -1.
          1    1    1    2  501    0 -0.46341318239E+01 -0.29642819911E+02 -0.35861680603E+03  0.35986967852E+03  0.00000000000E+00 0. -1.
<mgrwt>
<rscale>  1 0.86247345E+02</rscale>
<asrwt>0</asrwt>
<pdfrwt beam="1">  1       21 0.30385423E-03 0.86247345E+02</pdfrwt>
<pdfrwt beam="2">  1        2 0.26741177E+00 0.86247345E+02</pdfrwt>
<totfact> 0.30130507E+06</totfact>
</mgrwt>
</event>
<event>
 6    2  0.7993170E+000  0.1306913E+03  0.7546771E-02  0.1226434E+00
         21   -1    0    0  501  502  0.00000000000E+00  0.00000000000E+00  0.35829220342E+03  0.35829220342E+03  0.00000000000E+00 0. -1.
         -3   -1    0    0    0  501 -0.00000000000E+00 -0.00000000000E+00 -0.37895384160E+02  0.37895384160E+02  0.00000000000E+00 0.  1.
         24    2    1    2    0    0  0.10088124065E+03  0.16365528813E+02  0.18693380442E+03  0.22808871317E+03  0.81457710459E+02 0.  0.
        -13    1    3    3    0    0 -0.10014588387E+01 -0.20937245237E+02  0.43060336286E+02  0.47891165354E+02  0.00000000000E+00 0.  1.
         14    1    3    3    0    0  0.10188269948E+03  0.37302774050E+02  0.14387346814E+03  0.18019754782E+03  0.00000000000E+00 0. -1.
         -4    1    1    2    0  502 -0.10088124065E+03 -0.16365528813E+02  0.13346301484E+03  0.16809887441E+03  0.00000000000E+00 0.  1.
<mgrwt>
<rscale>  1 0.13069129E+03</rscale>
<asrwt>0</asrwt>
<pdfrwt beam="1">  1       21 0.55121875E-01 0.13069129E+03</pdfrwt>
<pdfrwt beam="2">  1       -3 0.58300594E-02 0.13069129E+03</pdfrwt>
<totfact> 0.26615037E+04</totfact>
</mgrwt>
</event>
<event>
 6    2  0.7993170E+000  0.2094951E+03  0.7546771E-02  0.1141966E+00
         21   -1    0    0  501  502  0.00000000000E+00  0.00000000000E+00  0.68972760403E+02  0.68972760403E+02  0.00000000000E+00 0. -1.
          2   -1    0    0  502    0 -0.00000000000E+00 -0.00000000000E+00 -0.79372046764E+03  0.79372046764E+03  0.00000000000E+00 0. -1.
         24    2    1    2    0    0 -0.15484232289E+03 -0.11562257867E+03 -0.59271192488E+03  0.62864585361E+03  0.80891641779E+02 0.  0.
        -13    1    3    3    0    0 -0.42454119718E+02 -0.66785957209E+02 -0.15402980353E+03  0.17317013812E+03  0.00000000000E+00 0.  1.
         14    1    3    3    0    0 -0.11238820317E+03 -0.48836621464E+02 -0.43868212136E+03  0.45547571549E+03  0.00000000000E+00 0. -1.
          1    1    1    2  501    0  0.15484232289E+03  0.11562257867E+03 -0.13203578235E+03  0.23404737443E+03  0.00000000000E+00 0. -1.
<mgrwt>
<rscale>  1 0.20949507E+03</rscale>
<asrwt>0</asrwt>
<pdfrwt beam="1">  1       21 0.10611194E-01 0.20949507E+03</pdfrwt>
<pdfrwt beam="2">  1        2 0.12211085E+00 0.20949507E+03</pdfrwt>
<totfact> 0.33029425E+04</totfact>
</mgrwt>
</event>
<event>
 6    2  0.7993170E+000  0.9711106E+02  0.7546771E-02  0.1286491E+00
         21   -1    0    0  501  502  0.00000000000E+00  0.00000000000E+00  0.25550718067E+02  0.25550718067E+02  0.00000000000E+00 0. -1.
          2   -1    0    0  502    0 -0.00000000000E+00 -0.00000000000E+00 -0.93919161240E+03  0.93919161240E+03  0.00000000000E+00 0. -1.
         24    2    1    2    0    0  0.29193602511E+02  0.41497911855E+02 -0.90857729944E+03  0.91375230096E+03  0.82802266513E+02 0.  0.
        -13    1    3    3    0    0 -0.58487002057E+01  0.21907950671E+02 -0.58701009828E+02  0.62928325510E+02  0.00000000000E+00 0.  1.
         14    1    3    3    0    0  0.35042302717E+02  0.19589961184E+02 -0.84987628961E+03  0.85082397545E+03  0.00000000000E+00 0. -1.
          1    1    1    2  501    0 -0.29193602511E+02 -0.41497911855E+02 -0.50635948945E+01  0.50990029507E+02  0.00000000000E+00 0. -1.
<mgrwt>
<rscale>  1 0.97111062E+02</rscale>
<asrwt>0</asrwt>
<pdfrwt beam="1">  1       21 0.39308791E-02 0.97111062E+02</pdfrwt>
<pdfrwt beam="2">  1        2 0.14449104E+00 0.97111062E+02</pdfrwt>
<totfact> 0.14494703E+05</totfact>
</mgrwt>
</event>
<event>
 6    2  0.7993170E+000  0.1097899E+03  0.7546771E-02  0.1260959E+00
          2   -1    0    0  502    0 -0.00000000000E+00  0.00000000000E+00  0.10330509821E+04  0.10330509821E+04  0.00000000000E+00 0. -1.
         21   -1    0    0  501  502  0.00000000000E+00 -0.00000000000E+00 -0.82132128999E+01  0.82132128999E+01  0.00000000000E+00 0.  1.
         24    2    1    2    0    0 -0.56596038860E+02 -0.47887752108E+02  0.64043009544E+03  0.64977267777E+03  0.80978251501E+02 0.  0.
        -13    1    3    3    0    0 -0.49841410525E+01 -0.32376762715E+02  0.75789137502E+02  0.82565669557E+02  0.00000000000E+00 0.  1.
         14    1    3    3    0    0 -0.51611897807E+02 -0.15510989392E+02  0.56464095794E+03  0.56720700821E+03  0.00000000000E+00 0. -1.
          1    1    1    2  501    0  0.56596038860E+02  0.47887752108E+02  0.38440767378E+03  0.39149151725E+03  0.00000000000E+00 0. -1.
<mgrwt>
<rscale>  1 0.10978992E+03</rscale>
<asrwt>0</asrwt>
<pdfrwt beam="1">  1       21 0.12635720E-02 0.10978992E+03</pdfrwt>
<pdfrwt beam="2">  1        2 0.15893082E+00 0.10978992E+03</pdfrwt>
<totfact> 0.79965780E+05</totfact>
</mgrwt>
</event>
<event>
 6    2  0.7993170E+000  0.7001574E+02  0.7546771E-02  0.1360040E+00
         21   -1    0    0  501  502  0.00000000000E+00  0.00000000000E+00  0.23175817927E+03  0.23175817927E+03  0.00000000000E+00 0.  1.
          2   -1    0    0  502    0 -0.00000000000E+00 -0.00000000000E+00 -0.94315577849E+01  0.94315577849E+01  0.00000000000E+00 0. -1.
         24    2    1    2    0    0 -0.96243632461E+01  0.21427307200E+02  0.16607476615E+03  0.18023049583E+03  0.65957909418E+02 0.  0.
        -11    1    3    3    0    0 -0.21004810050E+02  0.37669997897E+02  0.14505419796E+03  0.15133060211E+03  0.00000000000E+00 0.  1.
         12    1    3    3    0    0  0.11380446804E+02 -0.16242690697E+02  0.21020568182E+02  0.28899893724E+02  0.00000000000E+00 0. -1.
          1    1    1    2  501    0  0.96243632461E+01 -0.21427307200E+02  0.56251855342E+02  0.60959241228E+02  0.00000000000E+00 0. -1.
<mgrwt>
<rscale>  1 0.70015739E+02</rscale>
<asrwt>0</asrwt>
<pdfrwt beam="1">  1       21 0.35655100E-01 0.70015739E+02</pdfrwt>
<pdfrwt beam="2">  1        2 0.14510091E-02 0.70015739E+02</pdfrwt>
<totfact> 0.69363454E+05</totfact>
</mgrwt>
</event>
<event>
 6    2  0.7993170E+000  0.8741076E+02  0.7546771E-02  0.1309246E+00
         21   -1    0    0  501  502  0.00000000000E+00  0.00000000000E+00  0.33078106007E+02  0.33078106007E+02  0.00000000000E+00 0.  1.
          2   -1    0    0  502    0 -0.00000000000E+00 -0.00000000000E+00 -0.99025726331E+02  0.99025726331E+02  0.00000000000E+00 0. -1.
         24    2    1    2    0    0  0.12222190867E+02  0.21205069004E+02 -0.39048378883E+02  0.95736180625E+02  0.83914262711E+02 0.  0.
        -11    1    3    3    0    0  0.34008840183E+02  0.10237115284E+02  0.13347127521E+02  0.37941343585E+02  0.00000000000E+00 0.  1.
         12    1    3    3    0    0 -0.21786649316E+02  0.10967953720E+02 -0.52395506404E+02  0.57794837041E+02  0.00000000000E+00 0. -1.
          1    1    1    2  501    0 -0.12222190867E+02 -0.21205069004E+02 -0.26899241441E+02  0.36367651713E+02  0.00000000000E+00 0. -1.
<mgrwt>
<rscale>  1 0.87410757E+02</rscale>
<asrwt>0</asrwt>
<pdfrwt beam="1">  1       21 0.50889394E-02 0.87410757E+02</pdfrwt>
<pdfrwt beam="2">  1        2 0.15234727E-01 0.87410757E+02</pdfrwt>
<totfact> 0.11248179E+06</totfact>
</mgrwt>
</event>
<event>
 6    2  0.7993170E+000  0.9601617E+02  0.7546771E-02  0.1288904E+00
         21   -1    0    0  501  502  0.00000000000E+00  0.00000000000E+00  0.10698183034E+03  0.10698183034E+03  0.00000000000E+00 0.  1.
          2   -1    0    0  502    0 -0.00000000000E+00 -0.00000000000E+00 -0.49158572018E+02  0.49158572018E+02  0.00000000000E+00 0. -1.
         24    2    1    2    0    0 -0.24326891986E+02  0.23439969464E+02  0.85466027366E+01  0.96395790651E+02  0.89876994803E+02 0.  0.
        -11    1    3    3    0    0 -0.37979885909E+02 -0.12692850717E+02  0.31953485238E+02  0.51230902899E+02  0.00000000000E+00 0.  1.
         12    1    3    3    0    0  0.13652993923E+02  0.36132820181E+02 -0.23406882501E+02  0.45164887753E+02  0.00000000000E+00 0. -1.
          1    1    1    2  501    0  0.24326891986E+02 -0.23439969464E+02  0.49276655581E+02  0.59744611702E+02  0.00000000000E+00 0. -1.
<mgrwt>
<rscale>  1 0.96016165E+02</rscale>
<asrwt>0</asrwt>
<pdfrwt beam="1">  1       21 0.16458743E-01 0.96016165E+02</pdfrwt>
<pdfrwt beam="2">  1        2 0.75628573E-02 0.96016165E+02</pdfrwt>
<totfact> 0.34723821E+05</totfact>
</mgrwt>
</event>
<event>
 6    2  0.7993170E+000  0.8808963E+02  0.7546771E-02  0.1307545E+00
         21   -1    0    0  501  502  0.00000000000E+00  0.00000000000E+00  0.10940065488E+02  0.10940065488E+02  0.00000000000E+00 0. -1.
          2   -1    0    0  502    0 -0.00000000000E+00 -0.00000000000E+00 -0.50469093396E+03  0.50469093396E+03  0.00000000000E+00 0. -1.
         24    2    1    2    0    0  0.37832681868E+02  0.93340741097E+01 -0.44285379279E+03  0.45152991467E+03  0.79002185385E+02 0.  0.
        -13    1    3    3    0    0  0.28333043330E+02 -0.85366287832E+01 -0.49604778552E+02  0.57760448669E+02  0.00000000000E+00 0.  1.
         14    1    3    3    0    0  0.94996385379E+01  0.17870702893E+02 -0.39324901424E+03  0.39376946600E+03  0.00000000000E+00 0. -1.
          1    1    1    2  501    0 -0.37832681868E+02 -0.93340741097E+01 -0.50897075674E+02  0.64101084772E+02  0.00000000000E+00 0. -1.
<mgrwt>
<rscale>  1 0.88089625E+02</rscale>
<asrwt>0</asrwt>
<pdfrwt beam="1">  1       21 0.16830874E-02 0.88089625E+02</pdfrwt>
<pdfrwt beam="2">  1        2 0.77644739E-01 0.88089625E+02</pdfrwt>
<totfact> 0.11764339E+06</totfact>
</mgrwt>
</event>
<event>
 6    2  0.7993170E+000  0.8677530E+02  0.7546771E-02  0.1310854E+00
         21   -1    0    0  501  502  0.00000000000E+00  0.00000000000E+00  0.89985316981E+02  0.89985316981E+02  0.00000000000E+00 0.  1.
          2   -1    0    0  502    0 -0.00000000000E+00 -0.00000000000E+00 -0.45294598411E+02  0.45294598411E+02  0.00000000000E+00 0. -1.
         24    2    1    2    0    0 -0.24997347139E+02 -0.23660664618E+02  0.11623901160E+02  0.87550377077E+02  0.79657134232E+02 0.  0.
        -13    1    3    3    0    0 -0.31814926088E+02 -0.17205750139E+02  0.42191810112E+02  0.55573160792E+02  0.00000000000E+00 0.  1.
         14    1    3    3    0    0  0.68175789482E+01 -0.64549144794E+01 -0.30567908953E+02  0.31977216286E+02  0.00000000000E+00 0. -1.
          1    1    1    2  501    0  0.24997347139E+02  0.23660664618E+02  0.33066817410E+02  0.47729538315E+02  0.00000000000E+00 0. -1.
<mgrwt>
<rscale>  1 0.86775304E+02</rscale>
<asrwt>0</asrwt>
<pdfrwt beam="1">  1       21 0.13843895E-01 0.86775304E+02</pdfrwt>
<pdfrwt beam="2">  1        2 0.69683998E-02 0.86775304E+02</pdfrwt>
<totfact> 0.51926059E+05</totfact>
</mgrwt>
</event>
<event>
 6    2  0.7993170E+000  0.8905701E+02  0.7546771E-02  0.1305151E+00
         21   -1    0    0  501  502  0.00000000000E+00  0.00000000000E+00  0.10240759255E+03  0.10240759255E+03  0.00000000000E+00 0.  1.
         -1   -1    0    0    0  501 -0.00000000000E+00 -0.00000000000E+00 -0.82668773863E+02  0.82668773863E+02  0.00000000000E+00 0.  1.
         24    2    1    2    0    0  0.19404320065E+02 -0.23396555323E+02 -0.54807912891E+02  0.10457082855E+03  0.83709165742E+02 0.  0.
        -11    1    3    3    0    0  0.15015744422E+02 -0.53367624163E+02 -0.48434094887E+02  0.73616828490E+02  0.00000000000E+00 0.  1.
         12    1    3    3    0    0  0.43885756430E+01  0.29971068840E+02 -0.63738180041E+01  0.30954000057E+02  0.00000000000E+00 0. -1.
         -2    1    1    2    0  502 -0.19404320065E+02  0.23396555323E+02  0.74546731583E+02  0.80505537871E+02  0.00000000000E+00 0.  1.
<mgrwt>
<rscale>  1 0.89057009E+02</rscale>
<asrwt>0</asrwt>
<pdfrwt beam="1">  1       21 0.15755014E-01 0.89057009E+02</pdfrwt>
<pdfrwt beam="2">  1       -1 0.12718273E-01 0.89057009E+02</pdfrwt>
<totfact> 0.12878400E+05</totfact>
</mgrwt>
</event>
<event>
 6    2  0.7993170E+000  0.8580518E+02  0.7546771E-02  0.1313340E+00
         21   -1    0    0  501  502  0.00000000000E+00  0.00000000000E+00  0.33788847393E+02  0.33788847393E+02  0.00000000000E+00 0. -1.
          2   -1    0    0  502    0 -0.00000000000E+00 -0.00000000000E+00 -0.28587513725E+03  0.28587513725E+03  0.00000000000E+00 0. -1.
         24    2    1    2    0    0 -0.19134499624E+02 -0.26053696989E+02 -0.26958173454E+03  0.28290783158E+03  0.79483365366E+02 0.  0.
        -13    1    3    3    0    0 -0.21134676280E+01  0.27413149979E+02 -0.60986893695E+02  0.66898047354E+02  0.00000000000E+00 0.  1.
         14    1    3    3    0    0 -0.17021031996E+02 -0.53466846968E+02 -0.20859484085E+03  0.21600978423E+03  0.00000000000E+00 0. -1.
          1    1    1    2  501    0  0.19134499624E+02  0.26053696989E+02  0.17495444688E+02  0.36756153056E+02  0.00000000000E+00 0. -1.
<mgrwt>
<rscale>  1 0.85805184E+02</rscale>
<asrwt>0</asrwt>
<pdfrwt beam="1">  1       21 0.51982843E-02 0.85805184E+02</pdfrwt>
<pdfrwt beam="2">  1        2 0.43980790E-01 0.85805184E+02</pdfrwt>
<totfact> 0.34190742E+05</totfact>
</mgrwt>
</event>
<event>
 6    2  0.7993170E+000  0.1137958E+03  0.7546771E-02  0.1253698E+00
          2   -1    0    0  502    0 -0.00000000000E+00  0.00000000000E+00  0.66945151178E+03  0.66945151178E+03  0.00000000000E+00 0. -1.
         21   -1    0    0  501  502  0.00000000000E+00 -0.00000000000E+00 -0.13285698677E+03  0.13285698677E+03  0.00000000000E+00 0. -1.
         24    2    1    2    0    0  0.71817553919E+02 -0.40730035736E+02  0.65119558469E+03  0.66106367655E+03  0.78312183402E+02 0.  0.
        -13    1    3    3    0    0  0.33229710095E+02  0.19575169083E+02  0.15481213172E+03  0.15954371503E+03  0.00000000000E+00 0.  1.
         14    1    3    3    0    0  0.38587843825E+02 -0.60305204820E+02  0.49638345297E+03  0.50151996152E+03  0.00000000000E+00 0. -1.
          1    1    1    2  501    0 -0.71817553919E+02  0.40730035736E+02 -0.11460105968E+03  0.14124482200E+03  0.00000000000E+00 0. -1.
<mgrwt>
<rscale>  1 0.11379585E+03</rscale>
<asrwt>0</asrwt>
<pdfrwt beam="1">  1       21 0.20439537E-01 0.11379585E+03</pdfrwt>
<pdfrwt beam="2">  1        2 0.10299254E+00 0.11379585E+03</pdfrwt>
<totfact> 0.12606529E+04</totfact>
</mgrwt>
</event>
<event>
 6    2  0.7993170E+000  0.7595943E+02  0.7546771E-02  0.1340925E+00
         -1   -1    0    0    0  501 -0.00000000000E+00  0.00000000000E+00  0.71373613503E+02  0.71373613503E+02  0.00000000000E+00 0.  1.
         21   -1    0    0  501  502  0.00000000000E+00 -0.00000000000E+00 -0.41949799059E+02  0.41949799059E+02  0.00000000000E+00 0.  1.
         24    2    1    2    0    0 -0.26656876092E+02  0.12171505120E+02  0.34763985243E+02  0.83536636905E+02  0.70079244114E+02 0.  0.
        -13    1    3    3    0    0 -0.36129859901E+02  0.32392708325E+02  0.37103116225E+02  0.61084331565E+02  0.00000000000E+00 0.  1.
         14    1    3    3    0    0  0.94729838094E+01 -0.20221203205E+02 -0.23391309825E+01  0.22452305340E+02  0.00000000000E+00 0. -1.
         -2    1    1    2    0  502  0.26656876092E+02 -0.12171505120E+02 -0.53401707982E+01  0.29786775657E+02  0.00000000000E+00 0.  1.
<mgrwt>
<rscale>  1 0.75959430E+02</rscale>
<asrwt>0</asrwt>
<pdfrwt beam="1">  1       21 0.64538152E-02 0.75959430E+02</pdfrwt>
<pdfrwt beam="2">  1       -1 0.10980556E-01 0.75959430E+02</pdfrwt>
<totfact> 0.74309592E+05</totfact>
</mgrwt>
</event>
<event>
 6    2  0.7993170E+000  0.8520105E+02  0.7546771E-02  0.1314908E+00
         21   -1    0    0  501  502  0.00000000000E+00  0.00000000000E+00  0.17451855789E+03  0.17451855789E+03  0.00000000000E+00 0. -1.
         -1   -1    0    0    0  501 -0.00000000000E+00 -0.00000000000E+00 -0.21297737375E+02  0.21297737375E+02  0.00000000000E+00 0.  1.
         24    2    1    2    0    0 -0.16413530851E+02  0.23696479650E+02  0.14048507061E+03  0.16430238614E+03  0.80176629283E+02 0.  0.
        -13    1    3    3    0    0  0.19634834366E+02 -0.10906456143E+02  0.91909999696E+02  0.94614615944E+02  0.00000000000E+00 0.  1.
         14    1    3    3    0    0 -0.36048365217E+02  0.34602935792E+02  0.48575070919E+02  0.69687770197E+02  0.00000000000E+00 0. -1.
         -2    1    1    2    0  502  0.16413530851E+02 -0.23696479650E+02  0.12735749903E+02  0.31513909126E+02  0.00000000000E+00 0.  1.
<mgrwt>
<rscale>  1 0.85201051E+02</rscale>
<asrwt>0</asrwt>
<pdfrwt beam="1">  1       21 0.26849008E-01 0.85201051E+02</pdfrwt>
<pdfrwt beam="2">  1       -1 0.32765751E-02 0.85201051E+02</pdfrwt>
<totfact> 0.35880823E+05</totfact>
</mgrwt>
</event>
<event>
 6    2  0.7993170E+000  0.8248840E+02  0.7546771E-02  0.1322134E+00
         21   -1    0    0  501  502  0.00000000000E+00  0.00000000000E+00  0.20386700922E+03  0.20386700922E+03  0.00000000000E+00 0. -1.
         -1   -1    0    0    0  501 -0.00000000000E+00 -0.00000000000E+00 -0.13458801651E+02  0.13458801651E+02  0.00000000000E+00 0.  1.
         24    2    1    2    0    0  0.14225573702E+02 -0.16317212763E+02  0.15982446505E+03  0.17985604058E+03  0.79597219322E+02 0.  0.
        -13    1    3    3    0    0 -0.32753134006E+02 -0.72018069217E+01  0.80626398474E+02  0.87322677129E+02  0.00000000000E+00 0.  1.
         14    1    3    3    0    0  0.46978707707E+02 -0.91154058408E+01  0.79198066581E+02  0.92533363451E+02  0.00000000000E+00 0. -1.
         -2    1    1    2    0  502 -0.14225573702E+02  0.16317212763E+02  0.30583742519E+02  0.37469770295E+02  0.00000000000E+00 0.  1.
<mgrwt>
<rscale>  1 0.82488397E+02</rscale>
<asrwt>0</asrwt>
<pdfrwt beam="1">  1       21 0.31364153E-01 0.82488397E+02</pdfrwt>
<pdfrwt beam="2">  1       -1 0.20705850E-02 0.82488397E+02</pdfrwt>
<totfact> 0.51364360E+05</totfact>
</mgrwt>
</event>
<event>
 6    2  0.7993170E+000  0.9306427E+02  0.7546771E-02  0.1295596E+00
         21   -1    0    0  501  502  0.00000000000E+00  0.00000000000E+00  0.13317665604E+04  0.13317665604E+04  0.00000000000E+00 0. -1.
          2   -1    0    0  502    0 -0.00000000000E+00 -0.00000000000E+00 -0.37582382700E+01  0.37582382700E+01  0.00000000000E+00 0. -1.
         24    2    1    2    0    0  0.46906776833E+02 -0.86346771180E+01  0.81145746905E+03  0.81677670260E+03  0.79913418560E+02 0.  0.
        -13    1    3    3    0    0 -0.20677407672E+02 -0.14400444652E+02  0.20973297452E+03  0.21124120951E+03  0.00000000000E+00 0.  1.
         14    1    3    3    0    0  0.67584184506E+02  0.57657675339E+01  0.60172449454E+03  0.60553549309E+03  0.00000000000E+00 0. -1.
          1    1    1    2  501    0 -0.46906776833E+02  0.86346771180E+01  0.51655085307E+03  0.51874809606E+03  0.00000000000E+00 0. -1.
<mgrwt>
<rscale>  1 0.93064267E+02</rscale>
<asrwt>0</asrwt>
<pdfrwt beam="1">  1       21 0.20488679E+00 0.93064267E+02</pdfrwt>
<pdfrwt beam="2">  1        2 0.57819156E-03 0.93064267E+02</pdfrwt>
<totfact> 0.46226891E+04</totfact>
</mgrwt>
</event>
<event>
 6    2  0.7993170E+000  0.8928473E+02  0.7546771E-02  0.1304593E+00
         21   -1    0    0  501  502  0.00000000000E+00  0.00000000000E+00  0.45693525379E+02  0.45693525379E+02  0.00000000000E+00 0.  1.
         -3   -1    0    0    0  501 -0.00000000000E+00 -0.00000000000E+00 -0.87875404473E+02  0.87875404473E+02  0.00000000000E+00 0.  1.
         24    2    1    2    0    0 -0.47956792326E+01 -0.36508699295E+02 -0.23742017553E+02  0.92387475809E+02  0.81338051521E+02 0.  0.
        -11    1    3    3    0    0 -0.30359934595E+02 -0.51394674544E+02 -0.16531568729E+02  0.61938929315E+02  0.00000000000E+00 0.  1.
         12    1    3    3    0    0  0.25564255362E+02  0.14885975249E+02 -0.72104488238E+01  0.30448546494E+02  0.00000000000E+00 0. -1.
         -4    1    1    2    0  502  0.47956792326E+01  0.36508699295E+02 -0.18439861540E+02  0.41181454043E+02  0.00000000000E+00 0.  1.
<mgrwt>
<rscale>  1 0.89284726E+02</rscale>
<asrwt>0</asrwt>
<pdfrwt beam="1">  1       21 0.70297731E-02 0.89284726E+02</pdfrwt>
<pdfrwt beam="2">  1       -3 0.13519293E-01 0.89284726E+02</pdfrwt>
<totfact> 0.29478948E+05</totfact>
</mgrwt>
</event>
<event>
 6    2  0.7993170E+000  0.8548904E+02  0.7546771E-02  0.1314159E+00
         21   -1    0    0  501  502  0.00000000000E+00  0.00000000000E+00  0.11239651403E+02  0.11239651403E+02  0.00000000000E+00 0.  1.
          2   -1    0    0  502    0 -0.00000000000E+00 -0.00000000000E+00 -0.44046449397E+03  0.44046449397E+03  0.00000000000E+00 0. -1.
         24    2    1    2    0    0  0.17225745945E+02 -0.23388510804E+02 -0.40487126334E+03  0.41379839934E+03  0.80402902062E+02 0.  0.
        -11    1    3    3    0    0 -0.76313620326E+01 -0.33158398133E+01 -0.68218195781E+00  0.83485239632E+01  0.00000000000E+00 0.  1.
         12    1    3    3    0    0  0.24857107978E+02 -0.20072670991E+02 -0.40418908138E+03  0.40544987538E+03  0.00000000000E+00 0. -1.
          1    1    1    2  501    0 -0.17225745945E+02  0.23388510804E+02 -0.24353579235E+02  0.37905746036E+02  0.00000000000E+00 0. -1.
<mgrwt>
<rscale>  1 0.85489037E+02</rscale>
<asrwt>0</asrwt>
<pdfrwt beam="1">  1       21 0.17291774E-02 0.85489037E+02</pdfrwt>
<pdfrwt beam="2">  1        2 0.67763757E-01 0.85489037E+02</pdfrwt>
<totfact> 0.12995733E+06</totfact>
</mgrwt>
</event>
<event>
 6    2  0.7993170E+000  0.8315428E+02  0.7546771E-02  0.1320331E+00
         -3   -1    0    0    0  501 -0.00000000000E+00  0.00000000000E+00  0.74532643155E+01  0.74532643155E+01  0.00000000000E+00 0.  1.
         21   -1    0    0  501  502  0.00000000000E+00 -0.00000000000E+00 -0.38147600436E+03  0.38147600436E+03  0.00000000000E+00 0. -1.
         24    2    1    2    0    0 -0.21307137623E+02  0.97848314798E+01 -0.29626662773E+03  0.30771504552E+03  0.79780307665E+02 0.  0.
        -13    1    3    3    0    0 -0.27964717547E+02  0.14199365348E+02 -0.37765549137E+02  0.49090570433E+02  0.00000000000E+00 0.  1.
         14    1    3    3    0    0  0.66575799242E+01 -0.44145338678E+01 -0.25850107860E+03  0.25862447509E+03  0.00000000000E+00 0. -1.
         -4    1    1    2    0  502  0.21307137623E+02 -0.97848314798E+01 -0.77756112316E+02  0.81214223159E+02  0.00000000000E+00 0.  1.
<mgrwt>
<rscale>  1 0.83154282E+02</rscale>
<asrwt>0</asrwt>
<pdfrwt beam="1">  1       21 0.58688629E-01 0.83154282E+02</pdfrwt>
<pdfrwt beam="2">  1       -3 0.11466558E-02 0.83154282E+02</pdfrwt>
<totfact> 0.26811097E+05</totfact>
</mgrwt>
</event>
<event>
 6    2  0.7993170E+000  0.9630841E+02  0.7546771E-02  0.1288256E+00
         -1   -1    0    0    0  501 -0.00000000000E+00  0.00000000000E+00  0.29087308721E+03  0.29087308721E+03  0.00000000000E+00 0.  1.
         21   -1    0    0  501  502  0.00000000000E+00 -0.00000000000E+00 -0.20917480044E+02  0.20917480044E+02  0.00000000000E+00 0. -1.
         24    2    1    2    0    0  0.42740344330E+02  0.32519513197E+02  0.21158326289E+03  0.23247104665E+03  0.79944071856E+02 0.  0.
        -11    1    3    3    0    0  0.20852822588E+02  0.16806355594E+02  0.20216091261E+03  0.20392726248E+03  0.00000000000E+00 0.  1.
         12    1    3    3    0    0  0.21887521741E+02  0.15713157603E+02  0.94223502832E+01  0.28543784169E+02  0.00000000000E+00 0. -1.
         -2    1    1    2    0  502 -0.42740344330E+02 -0.32519513197E+02  0.58372344274E+02  0.79319520599E+02  0.00000000000E+00 0.  1.
<mgrwt>
<rscale>  1 0.96308413E+02</rscale>
<asrwt>0</asrwt>
<pdfrwt beam="1">  1       21 0.32180741E-02 0.96308413E+02</pdfrwt>
<pdfrwt beam="2">  1       -1 0.44749703E-01 0.96308413E+02</pdfrwt>
<totfact> 0.24945112E+05</totfact>
</mgrwt>
</event>
<event>
 6    2  0.7993170E+000  0.8258292E+02  0.7546771E-02  0.1321877E+00
         21   -1    0    0  501  502  0.00000000000E+00  0.00000000000E+00  0.18679962904E+01  0.18679962904E+01  0.00000000000E+00 0.  1.
         -1   -1    0    0    0  501 -0.00000000000E+00 -0.00000000000E+00 -0.14581744454E+04  0.14581744454E+04  0.00000000000E+00 0.  1.
         24    2    1    2    0    0  0.21389809938E+02 -0.38623291150E+01 -0.11729134184E+04  0.11758170884E+04  0.79671180063E+02 0.  0.
        -13    1    3    3    0    0  0.45190818966E+02  0.95535162117E+00 -0.10187989006E+04  0.10198011192E+04  0.00000000000E+00 0.  1.
         14    1    3    3    0    0 -0.23801009028E+02 -0.48176807362E+01 -0.15411451772E+03  0.15601596922E+03  0.00000000000E+00 0. -1.
         -2    1    1    2    0  502 -0.21389809938E+02  0.38623291150E+01 -0.28339303069E+03  0.28422535320E+03  0.00000000000E+00 0.  1.
<mgrwt>
<rscale>  1 0.82582919E+02</rscale>
<asrwt>0</asrwt>
<pdfrwt beam="1">  1       21 0.28738314E-03 0.82582919E+02</pdfrwt>
<pdfrwt beam="2">  1       -1 0.22433524E+00 0.82582919E+02</pdfrwt>
<totfact> 0.27453114E+05</totfact>
</mgrwt>
</event>
<event>
 6    2  0.7993170E+000  0.9002817E+02  0.7546771E-02  0.1302783E+00
          2   -1    0    0  502    0 -0.00000000000E+00  0.00000000000E+00  0.36026619399E+04  0.36026619399E+04  0.00000000000E+00 0. -1.
         21   -1    0    0  501  502  0.00000000000E+00 -0.00000000000E+00 -0.12829634654E+01  0.12829634654E+01  0.00000000000E+00 0.  1.
         24    2    1    2    0    0  0.39196170845E+02 -0.11069547239E+02  0.19679151906E+04  0.19699734182E+04  0.80288208064E+02 0.  0.
        -13    1    3    3    0    0  0.49396833533E+01  0.31081422373E+02  0.45707218433E+03  0.45815438116E+03  0.00000000000E+00 0.  1.
         14    1    3    3    0    0  0.34256487492E+02 -0.42150969612E+02  0.15108430063E+04  0.15118190371E+04  0.00000000000E+00 0. -1.
          1    1    1    2  501    0 -0.39196170845E+02  0.11069547239E+02  0.16334637858E+04  0.16339714851E+04  0.00000000000E+00 0. -1.
<mgrwt>
<rscale>  1 0.90028168E+02</rscale>
<asrwt>0</asrwt>
<pdfrwt beam="1">  1       21 0.19738188E-03 0.90028168E+02</pdfrwt>
<pdfrwt beam="2">  1        2 0.55424758E+00 0.90028168E+02</pdfrwt>
<totfact> 0.54455414E+05</totfact>
</mgrwt>
</event>
<event>
 6    2  0.7993170E+000  0.8450662E+02  0.7546771E-02  0.1316728E+00
          4   -1    0    0  502    0 -0.00000000000E+00  0.00000000000E+00  0.10163344313E+02  0.10163344313E+02  0.00000000000E+00 0. -1.
         21   -1    0    0  501  502  0.00000000000E+00 -0.00000000000E+00 -0.40538426654E+03  0.40538426654E+03  0.00000000000E+00 0. -1.
         24    2    1    2    0    0  0.24699128108E+02  0.83050361584E+00 -0.17929622724E+03  0.19821328183E+03  0.80812321628E+02 0.  0.
        -13    1    3    3    0    0 -0.65873113456E+01 -0.33034575107E+02 -0.10949963962E+03  0.11456372419E+03  0.00000000000E+00 0.  1.
         14    1    3    3    0    0  0.31286439453E+02  0.33865078723E+02 -0.69796587623E+02  0.83649557646E+02  0.00000000000E+00 0. -1.
          3    1    1    2  501    0 -0.24699128108E+02 -0.83050361584E+00 -0.21592469498E+03  0.21733432902E+03  0.00000000000E+00 0. -1.
<mgrwt>
<rscale>  1 0.84506615E+02</rscale>
<asrwt>0</asrwt>
<pdfrwt beam="1">  1       21 0.62366812E-01 0.84506615E+02</pdfrwt>
<pdfrwt beam="2">  1        4 0.15635914E-02 0.84506615E+02</pdfrwt>
<totfact> 0.13453218E+05</totfact>
</mgrwt>
</event>
<event>
 6    2  0.7993170E+000  0.8525514E+02  0.7546771E-02  0.1314767E+00
         -3   -1    0    0    0  501 -0.00000000000E+00  0.00000000000E+00  0.86683408512E+02  0.86683408512E+02  0.00000000000E+00 0.  1.
         21   -1    0    0  501  502  0.00000000000E+00 -0.00000000000E+00 -0.35413750040E+02  0.35413750040E+02  0.00000000000E+00 0. -1.
         24    2    1    2    0    0  0.87066438090E+01  0.22514122944E+02  0.47710626929E+02  0.97697197817E+02  0.81766418296E+02 0.  0.
        -11    1    3    3    0    0 -0.25098169252E+02  0.27699802347E+02  0.51119239424E+02  0.63327512103E+02  0.00000000000E+00 0.  1.
         12    1    3    3    0    0  0.33804813061E+02 -0.51856794029E+01 -0.34086124957E+01  0.34369685714E+02  0.00000000000E+00 0. -1.
         -4    1    1    2    0  502 -0.87066438090E+01 -0.22514122944E+02  0.35590315430E+01  0.24399960735E+02  0.00000000000E+00 0.  1.
<mgrwt>
<rscale>  1 0.85255138E+02</rscale>
<asrwt>0</asrwt>
<pdfrwt beam="1">  1       21 0.54482693E-02 0.85255138E+02</pdfrwt>
<pdfrwt beam="2">  1       -3 0.13335909E-01 0.85255138E+02</pdfrwt>
<totfact> 0.45929108E+05</totfact>
</mgrwt>
</event>
<event>
 6    2  0.7993170E+000  0.8648004E+02  0.7546771E-02  0.1311607E+00
         21   -1    0    0  501  502  0.00000000000E+00  0.00000000000E+00  0.22178027938E+01  0.22178027938E+01  0.00000000000E+00 0.  1.
          4   -1    0    0  502    0 -0.00000000000E+00 -0.00000000000E+00 -0.16291022626E+04  0.16291022626E+04  0.00000000000E+00 0. -1.
         24    2    1    2    0    0  0.96781080302E+01 -0.27983626916E+02 -0.13717158975E+04  0.13744392675E+04  0.81252983767E+02 0.  0.
        -11    1    3    3    0    0  0.23139325636E+02  0.13962983202E-01 -0.11323775830E+03  0.11557775950E+03  0.00000000000E+00 0.  1.
         12    1    3    3    0    0 -0.13461217606E+02 -0.27997589899E+02 -0.12584781392E+04  0.12588615080E+04  0.00000000000E+00 0. -1.
          3    1    1    2  501    0 -0.96781080302E+01  0.27983626916E+02 -0.25516856235E+03  0.25688079796E+03  0.00000000000E+00 0. -1.
<mgrwt>
<rscale>  1 0.86480035E+02</rscale>
<asrwt>0</asrwt>
<pdfrwt beam="1">  1       21 0.34120054E-03 0.86480035E+02</pdfrwt>
<pdfrwt beam="2">  1        4 0.25063103E+00 0.86480035E+02</pdfrwt>
<totfact> 0.56130937E+04</totfact>
</mgrwt>
</event>
<event>
 6    2  0.7993170E+000  0.8614250E+02  0.7546771E-02  0.1312472E+00
         21   -1    0    0  501  502  0.00000000000E+00  0.00000000000E+00  0.63589027808E+02  0.63589027808E+02  0.00000000000E+00 0. -1.
         -1   -1    0    0    0  501 -0.00000000000E+00 -0.00000000000E+00 -0.88347037122E+02  0.88347037122E+02  0.00000000000E+00 0.  1.
         24    2    1    2    0    0  0.19518681257E+02 -0.18738501311E+02 -0.61833445228E+02  0.10603728175E+03  0.81782759934E+02 0.  0.
        -13    1    3    3    0    0  0.20541041868E+02  0.30534809481E+02 -0.28358388966E+02  0.46459737578E+02  0.00000000000E+00 0.  1.
         14    1    3    3    0    0 -0.10223606109E+01 -0.49273310792E+02 -0.33475056262E+02  0.59577544170E+02  0.00000000000E+00 0. -1.
         -2    1    1    2    0  502 -0.19518681257E+02  0.18738501311E+02  0.37075435914E+02  0.45898783182E+02  0.00000000000E+00 0.  1.
<mgrwt>
<rscale>  1 0.86142499E+02</rscale>
<asrwt>0</asrwt>
<pdfrwt beam="1">  1       21 0.97829273E-02 0.86142499E+02</pdfrwt>
<pdfrwt beam="2">  1       -1 0.13591852E-01 0.86142499E+02</pdfrwt>
<totfact> 0.26810189E+05</totfact>
</mgrwt>
</event>
<event>
 6    2  0.7993170E+000  0.8846381E+02  0.7546771E-02  0.1306615E+00
         -3   -1    0    0    0  501 -0.00000000000E+00  0.00000000000E+00  0.10933356976E+04  0.10933356976E+04  0.00000000000E+00 0.  1.
         21   -1    0    0  501  502  0.00000000000E+00 -0.00000000000E+00 -0.33411472266E+01  0.33411472266E+01  0.00000000000E+00 0.  1.
         24    2    1    2    0    0  0.13982794706E+02 -0.20017830431E+02  0.64829440816E+03  0.65430228892E+03  0.85027134200E+02 0.  0.
        -11    1    3    3    0    0 -0.13208170920E+02 -0.15940437191E+02  0.37061112904E+02  0.42450905839E+02  0.00000000000E+00 0.  1.
         12    1    3    3    0    0  0.27190965626E+02 -0.40773932403E+01  0.61123329526E+03  0.61185138308E+03  0.00000000000E+00 0. -1.
         -4    1    1    2    0  502 -0.13982794706E+02  0.20017830431E+02  0.44170014221E+03  0.44237455590E+03  0.00000000000E+00 0.  1.
<mgrwt>
<rscale>  1 0.88463810E+02</rscale>
<asrwt>0</asrwt>
<pdfrwt beam="1">  1       21 0.51402352E-03 0.88463810E+02</pdfrwt>
<pdfrwt beam="2">  1       -3 0.16820521E+00 0.88463810E+02</pdfrwt>
<totfact> 0.12324042E+05</totfact>
</mgrwt>
</event>
<event>
 6    2  0.7993170E+000  0.9741878E+02  0.7546771E-02  0.1285819E+00
         21   -1    0    0  501  502  0.00000000000E+00  0.00000000000E+00  0.62610650642E+01  0.62610650642E+01  0.00000000000E+00 0. -1.
          2   -1    0    0  502    0 -0.00000000000E+00 -0.00000000000E+00 -0.19108195455E+04  0.19108195455E+04  0.00000000000E+00 0. -1.
         24    2    1    2    0    0 -0.31334982624E+01 -0.55310859273E+02 -0.17531600237E+04  0.17558645981E+04  0.80133066103E+02 0.  0.
        -11    1    3    3    0    0 -0.23532303505E+02 -0.57585322946E+01 -0.16190502170E+03  0.16370756260E+03  0.00000000000E+00 0.  1.
         12    1    3    3    0    0  0.20398805243E+02 -0.49552326979E+02 -0.15912550020E+04  0.15921570355E+04  0.00000000000E+00 0. -1.
          1    1    1    2  501    0  0.31334982624E+01  0.55310859273E+02 -0.15139845674E+03  0.16121601244E+03  0.00000000000E+00 0. -1.
<mgrwt>
<rscale>  1 0.97418778E+02</rscale>
<asrwt>0</asrwt>
<pdfrwt beam="1">  1       21 0.96323985E-03 0.97418778E+02</pdfrwt>
<pdfrwt beam="2">  1        2 0.29397252E+00 0.97418778E+02</pdfrwt>
<totfact> 0.42204617E+05</totfact>
</mgrwt>
</event>
<event>
 6    2  0.7993170E+000  0.9742044E+02  0.7546771E-02  0.1285816E+00
         -1   -1    0    0    0  501 -0.00000000000E+00  0.00000000000E+00  0.76520319924E+01  0.76520319924E+01  0.00000000000E+00 0.  1.
         21   -1    0    0  501  502  0.00000000000E+00 -0.00000000000E+00 -0.15348541315E+04  0.15348541315E+04  0.00000000000E+00 0.  1.
         24    2    1    2    0    0  0.47337196328E+02  0.27168784092E+02 -0.33047655325E+03  0.34453663714E+03  0.80695657279E+02 0.  0.
        -11    1    3    3    0    0 -0.55203386626E+01  0.25960574095E+02 -0.32761334337E+02  0.42163142362E+02  0.00000000000E+00 0.  1.
         12    1    3    3    0    0  0.52857534991E+02  0.12082099977E+01 -0.29771521891E+03  0.30237349478E+03  0.00000000000E+00 0. -1.
         -2    1    1    2    0  502 -0.47337196328E+02 -0.27168784092E+02 -0.11967255463E+04  0.11979695264E+04  0.00000000000E+00 0.  1.
<mgrwt>
<rscale>  1 0.97420440E+02</rscale>
<asrwt>0</asrwt>
<pdfrwt beam="1">  1       21 0.23613131E+00 0.97420440E+02</pdfrwt>
<pdfrwt beam="2">  1       -1 0.11772362E-02 0.97420440E+02</pdfrwt>
<totfact> 0.10810094E+04</totfact>
</mgrwt>
</event>
<event>
 6    2  0.7993170E+000  0.9118995E+02  0.7546771E-02  0.1299995E+00
         -1   -1    0    0    0  501 -0.00000000000E+00  0.00000000000E+00  0.37923974317E+03  0.37923974317E+03  0.00000000000E+00 0.  1.
         21   -1    0    0  501  502  0.00000000000E+00 -0.00000000000E+00 -0.17258228806E+02  0.17258228806E+02  0.00000000000E+00 0.  1.
         24    2    1    2    0    0 -0.34363392832E+02 -0.28104707961E+02  0.32842404786E+03  0.34084888452E+03  0.79654814600E+02 0.  0.
        -11    1    3    3    0    0 -0.51420554717E+02  0.63253958730E+01  0.16368795041E+03  0.17169108652E+03  0.00000000000E+00 0.  1.
         12    1    3    3    0    0  0.17057161885E+02 -0.34430103834E+02  0.16473609745E+03  0.16915779801E+03  0.00000000000E+00 0. -1.
         -2    1    1    2    0  502  0.34363392832E+02  0.28104707961E+02  0.33557466504E+02  0.55649087456E+02  0.00000000000E+00 0.  1.
<mgrwt>
<rscale>  1 0.91189949E+02</rscale>
<asrwt>0</asrwt>
<pdfrwt beam="1">  1       21 0.26551124E-02 0.91189949E+02</pdfrwt>
<pdfrwt beam="2">  1       -1 0.58344569E-01 0.91189949E+02</pdfrwt>
<totfact> 0.20964339E+05</totfact>
</mgrwt>
</event>
<event>
 6    2  0.7993170E+000  0.1327391E+03  0.7546771E-02  0.1223447E+00
         21   -1    0    0  501  502  0.00000000000E+00  0.00000000000E+00  0.18268328570E+02  0.18268328570E+02  0.00000000000E+00 0. -1.
          2   -1    0    0  502    0 -0.00000000000E+00 -0.00000000000E+00 -0.78968079507E+03  0.78968079507E+03  0.00000000000E+00 0. -1.
         24    2    1    2    0    0  0.58688082167E+02 -0.88485646828E+02 -0.46982848422E+03  0.48821970828E+03  0.79659765750E+02 0.  0.
        -13    1    3    3    0    0  0.29130074961E+02  0.88361193875E+01 -0.12868798838E+03  0.13223931573E+03  0.00000000000E+00 0.  1.
         14    1    3    3    0    0  0.29558007206E+02 -0.97321766215E+02 -0.34114049585E+03  0.35598039254E+03  0.00000000000E+00 0. -1.
          1    1    1    2  501    0 -0.58688082167E+02  0.88485646828E+02 -0.30158398228E+03  0.31972941536E+03  0.00000000000E+00 0. -1.
<mgrwt>
<rscale>  1 0.13273914E+03</rscale>
<asrwt>0</asrwt>
<pdfrwt beam="1">  1       21 0.28105119E-02 0.13273914E+03</pdfrwt>
<pdfrwt beam="2">  1        2 0.12148936E+00 0.13273914E+03</pdfrwt>
<totfact> 0.31721046E+05</totfact>
</mgrwt>
</event>
<event>
 6    2  0.7993170E+000  0.8990326E+02  0.7546771E-02  0.1303086E+00
         -1   -1    0    0    0  501 -0.00000000000E+00  0.00000000000E+00  0.87339100887E+03  0.87339100887E+03  0.00000000000E+00 0.  1.
         21   -1    0    0  501  502  0.00000000000E+00 -0.00000000000E+00 -0.67945998657E+01  0.67945998657E+01  0.00000000000E+00 0. -1.
         24    2    1    2    0    0 -0.33396684543E+02  0.11586857752E+02  0.79769586032E+03  0.80274608769E+03  0.82661973822E+02 0.  0.
        -11    1    3    3    0    0 -0.13748103861E+02  0.27613023078E+02  0.72676864811E+03  0.72742295625E+03  0.00000000000E+00 0.  1.
         12    1    3    3    0    0 -0.19648580682E+02 -0.16026165326E+02  0.70927212215E+02  0.75323131444E+02  0.00000000000E+00 0. -1.
         -2    1    1    2    0  502  0.33396684543E+02 -0.11586857752E+02  0.68900548683E+02  0.77439521047E+02  0.00000000000E+00 0.  1.
<mgrwt>
<rscale>  1 0.89903258E+02</rscale>
<asrwt>0</asrwt>
<pdfrwt beam="1">  1       21 0.10453237E-02 0.89903258E+02</pdfrwt>
<pdfrwt beam="2">  1       -1 0.13436776E+00 0.89903258E+02</pdfrwt>
<totfact> 0.15851015E+05</totfact>
</mgrwt>
</event>
<event>
 6    2  0.7993170E+000  0.8362457E+02  0.7546771E-02  0.1319069E+00
         21   -1    0    0  501  502  0.00000000000E+00  0.00000000000E+00  0.62792070533E+01  0.62792070533E+01  0.00000000000E+00 0. -1.
          2   -1    0    0  502    0 -0.00000000000E+00 -0.00000000000E+00 -0.18708227443E+04  0.18708227443E+04  0.00000000000E+00 0. -1.
         24    2    1    2    0    0  0.10035186710E+02  0.21898653085E+02 -0.18426626627E+04  0.18445592310E+04  0.80080035044E+02 0.  0.
        -11    1    3    3    0    0 -0.19907329099E+02  0.84904031459E+01 -0.14751710798E+03  0.14909623015E+03  0.00000000000E+00 0.  1.
         12    1    3    3    0    0  0.29942515809E+02  0.13408249939E+02 -0.16951455547E+04  0.16954630008E+04  0.00000000000E+00 0. -1.
          1    1    1    2  501    0 -0.10035186710E+02 -0.21898653085E+02 -0.21880874511E+02  0.32542720363E+02  0.00000000000E+00 0. -1.
<mgrwt>
<rscale>  1 0.83624566E+02</rscale>
<asrwt>0</asrwt>
<pdfrwt beam="1">  1       21 0.96603198E-03 0.83624566E+02</pdfrwt>
<pdfrwt beam="2">  1        2 0.28781885E+00 0.83624566E+02</pdfrwt>
<totfact> 0.43790847E+05</totfact>
</mgrwt>
</event>
<event>
 6    2  0.7993170E+000  0.8790378E+02  0.7546771E-02  0.1308009E+00
          2   -1    0    0  502    0 -0.00000000000E+00  0.00000000000E+00  0.24570680913E+04  0.24570680913E+04  0.00000000000E+00 0. -1.
         21   -1    0    0  501  502  0.00000000000E+00 -0.00000000000E+00 -0.58522311562E+01  0.58522311562E+01  0.00000000000E+00 0. -1.
         24    2    1    2    0    0 -0.14947967600E+02  0.26018778406E+02  0.24117054200E+04  0.24133068823E+04  0.82623584144E+02 0.  0.
        -13    1    3    3    0    0 -0.19262714062E+02  0.32972058298E+02  0.45941037513E+03  0.46099468713E+03  0.00000000000E+00 0.  1.
         14    1    3    3    0    0  0.43147464618E+01 -0.69532798919E+01  0.19522950449E+04  0.19523121951E+04  0.00000000000E+00 0. -1.
          1    1    1    2  501    0  0.14947967600E+02 -0.26018778406E+02  0.39510440132E+02  0.49613440160E+02  0.00000000000E+00 0. -1.
<mgrwt>
<rscale>  1 0.87903784E+02</rscale>
<asrwt>0</asrwt>
<pdfrwt beam="1">  1       21 0.90034521E-03 0.87903784E+02</pdfrwt>
<pdfrwt beam="2">  1        2 0.37800965E+00 0.87903784E+02</pdfrwt>
<totfact> 0.24659648E+05</totfact>
</mgrwt>
</event>
<event>
 6    2  0.7993170E+000  0.7522671E+02  0.7546771E-02  0.1343170E+00
         21   -1    0    0  501  502  0.00000000000E+00  0.00000000000E+00  0.50762747423E+01  0.50762747423E+01  0.00000000000E+00 0.  1.
          2   -1    0    0  502    0 -0.00000000000E+00 -0.00000000000E+00 -0.49173421197E+03  0.49173421197E+03  0.00000000000E+00 0. -1.
         24    2    1    2    0    0  0.23150141616E+02  0.81181073354E+01 -0.37885376273E+03  0.38625021916E+03  0.71114172551E+02 0.  0.
        -11    1    3    3    0    0  0.40643032712E+01  0.21402933269E+02 -0.32556551986E+02  0.39173118216E+02  0.00000000000E+00 0.  1.
         12    1    3    3    0    0  0.19085838345E+02 -0.13284825934E+02 -0.34629721075E+03  0.34707710094E+03  0.00000000000E+00 0. -1.
          1    1    1    2  501    0 -0.23150141616E+02 -0.81181073354E+01 -0.10780417449E+03  0.11056026755E+03  0.00000000000E+00 0. -1.
<mgrwt>
<rscale>  1 0.75226712E+02</rscale>
<asrwt>0</asrwt>
<pdfrwt beam="1">  1       21 0.78096510E-03 0.75226712E+02</pdfrwt>
<pdfrwt beam="2">  1        2 0.75651441E-01 0.75226712E+02</pdfrwt>
<totfact> 0.39512773E+06</totfact>
</mgrwt>
</event>
<event>
 6    2  0.7993170E+000  0.9609248E+02  0.7546771E-02  0.1288734E+00
         -1   -1    0    0    0  501 -0.00000000000E+00  0.00000000000E+00  0.35467322020E+02  0.35467322020E+02  0.00000000000E+00 0.  1.
         21   -1    0    0  501  502  0.00000000000E+00 -0.00000000000E+00 -0.16866872880E+03  0.16866872880E+03  0.00000000000E+00 0. -1.
         24    2    1    2    0    0  0.28905376033E+02 -0.44330318402E+02 -0.11081155715E+03  0.14667299086E+03  0.80206403468E+02 0.  0.
        -11    1    3    3    0    0  0.72507692578E+01  0.13800266479E+02  0.40713506670E+01  0.16112011233E+02  0.00000000000E+00 0.  1.
         12    1    3    3    0    0  0.21654606775E+02 -0.58130584881E+02 -0.11488290782E+03  0.13056097963E+03  0.00000000000E+00 0. -1.
         -2    1    1    2    0  502 -0.28905376033E+02  0.44330318402E+02 -0.22389849629E+02  0.57463059957E+02  0.00000000000E+00 0.  1.
<mgrwt>
<rscale>  1 0.96092482E+02</rscale>
<asrwt>0</asrwt>
<pdfrwt beam="1">  1       21 0.25949035E-01 0.96092482E+02</pdfrwt>
<pdfrwt beam="2">  1       -1 0.54565110E-02 0.96092482E+02</pdfrwt>
<totfact> 0.18411865E+05</totfact>
</mgrwt>
</event>
<event>
 6    2  0.7993170E+000  0.9991302E+02  0.7546771E-02  0.1280479E+00
         21   -1    0    0  501  502  0.00000000000E+00  0.00000000000E+00  0.11871461484E+04  0.11871461484E+04  0.00000000000E+00 0. -1.
          4   -1    0    0  502    0 -0.00000000000E+00 -0.00000000000E+00 -0.10693747644E+02  0.10693747644E+02  0.00000000000E+00 0. -1.
         24    2    1    2    0    0  0.49481634777E+02  0.28337937022E+02  0.24425061345E+03  0.26389576329E+03  0.82043530249E+02 0.  0.
        -13    1    3    3    0    0  0.17455570138E+02  0.44926781906E+02  0.20500174533E+03  0.21059161486E+03  0.00000000000E+00 0.  1.
         14    1    3    3    0    0  0.32026064640E+02 -0.16588844884E+02  0.39248868122E+02  0.53304148429E+02  0.00000000000E+00 0. -1.
          3    1    1    2  501    0 -0.49481634777E+02 -0.28337937022E+02  0.93220178730E+03  0.93394413275E+03  0.00000000000E+00 0. -1.
<mgrwt>
<rscale>  1 0.99913021E+02</rscale>
<asrwt>0</asrwt>
<pdfrwt beam="1">  1       21 0.18263776E+00 0.99913021E+02</pdfrwt>
<pdfrwt beam="2">  1        4 0.16451929E-02 0.99913021E+02</pdfrwt>
<totfact> 0.99367646E+03</totfact>
</mgrwt>
</event>
<event>
 6    2  0.7993170E+000  0.8457144E+02  0.7546771E-02  0.1316557E+00
         -1   -1    0    0    0  501 -0.00000000000E+00  0.00000000000E+00  0.32577365155E+02  0.32577365155E+02  0.00000000000E+00 0.  1.
         21   -1    0    0  501  502  0.00000000000E+00 -0.00000000000E+00 -0.10817705367E+03  0.10817705367E+03  0.00000000000E+00 0. -1.
         24    2    1    2    0    0 -0.25882924588E+02  0.96611912852E+01 -0.34734259074E+02  0.91426457932E+02  0.79931621117E+02 0.  0.
        -13    1    3    3    0    0  0.28885215509E+02  0.70291974940E+01 -0.11480431386E+02  0.31867939959E+02  0.00000000000E+00 0.  1.
         14    1    3    3    0    0 -0.54768140098E+02  0.26319937912E+01 -0.23253827688E+02  0.59558517973E+02  0.00000000000E+00 0. -1.
         -2    1    1    2    0  502  0.25882924588E+02 -0.96611912852E+01 -0.40865429438E+02  0.49327960889E+02  0.00000000000E+00 0.  1.
<mgrwt>
<rscale>  1 0.84571440E+02</rscale>
<asrwt>0</asrwt>
<pdfrwt beam="1">  1       21 0.16642624E-01 0.84571440E+02</pdfrwt>
<pdfrwt beam="2">  1       -1 0.50119023E-02 0.84571440E+02</pdfrwt>
<totfact> 0.46615647E+05</totfact>
</mgrwt>
</event>
<event>
 6    2  0.7993170E+000  0.1106390E+03  0.7546771E-02  0.1259391E+00
         21   -1    0    0  501  502  0.00000000000E+00  0.00000000000E+00  0.22137739148E+03  0.22137739148E+03  0.00000000000E+00 0.  1.
         -1   -1    0    0    0  501 -0.00000000000E+00 -0.00000000000E+00 -0.38690696493E+02  0.38690696493E+02  0.00000000000E+00 0.  1.
         24    2    1    2    0    0  0.73791818714E+02  0.97059069699E+01  0.10688164068E+03  0.15383323777E+03  0.81862951260E+02 0.  0.
        -13    1    3    3    0    0  0.37539258628E+02 -0.31693276807E+02  0.24855637628E+02  0.55058718247E+02  0.00000000000E+00 0.  1.
         14    1    3    3    0    0  0.36252560086E+02  0.41399183777E+02  0.82026003053E+02  0.98774519523E+02  0.00000000000E+00 0. -1.
         -2    1    1    2    0  502 -0.73791818714E+02 -0.97059069699E+01  0.75805054306E+02  0.10623485020E+03  0.00000000000E+00 0.  1.
<mgrwt>
<rscale>  1 0.11063896E+03</rscale>
<asrwt>0</asrwt>
<pdfrwt beam="1">  1       21 0.34058059E-01 0.11063896E+03</pdfrwt>
<pdfrwt beam="2">  1       -1 0.59524150E-02 0.11063896E+03</pdfrwt>
<totfact> 0.97100434E+04</totfact>
</mgrwt>
</event>
<event>
 6    2  0.7993170E+000  0.1266191E+03  0.7546771E-02  0.1232560E+00
         21   -1    0    0  501  502  0.00000000000E+00  0.00000000000E+00  0.69070609112E+01  0.69070609112E+01  0.00000000000E+00 0. -1.
          2   -1    0    0  502    0 -0.00000000000E+00 -0.00000000000E+00 -0.18141811581E+04  0.18141811581E+04  0.00000000000E+00 0. -1.
         24    2    1    2    0    0 -0.94678519930E+02  0.19876829156E+02 -0.10853715239E+04  0.10927322375E+04  0.81690192308E+02 0.  0.
        -11    1    3    3    0    0  0.21164591660E+01  0.12574010020E+02 -0.26367723871E+02  0.29288939714E+02  0.00000000000E+00 0.  1.
         12    1    3    3    0    0 -0.96794979096E+02  0.73028191360E+01 -0.10590038000E+04  0.10634432978E+04  0.00000000000E+00 0. -1.
          1    1    1    2  501    0  0.94678519930E+02 -0.19876829156E+02 -0.72190257333E+03  0.72835598155E+03  0.00000000000E+00 0. -1.
<mgrwt>
<rscale>  1 0.12661911E+03</rscale>
<asrwt>0</asrwt>
<pdfrwt beam="1">  1       21 0.10626231E-02 0.12661911E+03</pdfrwt>
<pdfrwt beam="2">  1        2 0.27910522E+00 0.12661911E+03</pdfrwt>
<totfact> 0.40742300E+05</totfact>
</mgrwt>
</event>
<event>
 6    2  0.7993170E+000  0.8564503E+02  0.7546771E-02  0.1313754E+00
         21   -1    0    0  501  502  0.00000000000E+00  0.00000000000E+00  0.22275385615E+02  0.22275385615E+02  0.00000000000E+00 0.  1.
          2   -1    0    0  502    0 -0.00000000000E+00 -0.00000000000E+00 -0.17265274929E+03  0.17265274929E+03  0.00000000000E+00 0. -1.
         24    2    1    2    0    0 -0.29889728990E+02  0.40670498697E+01 -0.13779886552E+03  0.16224548799E+03  0.80156935066E+02 0.  0.
        -13    1    3    3    0    0 -0.34056661621E+02  0.16342394706E+02 -0.18172181738E+02  0.41918471521E+02  0.00000000000E+00 0.  1.
         14    1    3    3    0    0  0.41669326316E+01 -0.12275344836E+02 -0.11962668378E+03  0.12032701647E+03  0.00000000000E+00 0. -1.
          1    1    1    2  501    0  0.29889728990E+02 -0.40670498697E+01 -0.12578498150E+02  0.32682646916E+02  0.00000000000E+00 0. -1.
<mgrwt>
<rscale>  1 0.85645029E+02</rscale>
<asrwt>0</asrwt>
<pdfrwt beam="1">  1       21 0.34269823E-02 0.85645029E+02</pdfrwt>
<pdfrwt beam="2">  1        2 0.26561962E-01 0.85645029E+02</pdfrwt>
<totfact> 0.11583154E+06</totfact>
</mgrwt>
</event>
<event>
 6    2  0.7993170E+000  0.8876430E+02  0.7546771E-02  0.1305872E+00
         -1   -1    0    0    0  501 -0.00000000000E+00  0.00000000000E+00  0.25701464013E+03  0.25701464013E+03  0.00000000000E+00 0.  1.
         21   -1    0    0  501  502  0.00000000000E+00 -0.00000000000E+00 -0.76824926703E+02  0.76824926703E+02  0.00000000000E+00 0.  1.
         24    2    1    2    0    0  0.32178824269E+02 -0.21929485157E+02  0.24368850470E+03  0.25935147688E+03  0.79766673403E+02 0.  0.
        -13    1    3    3    0    0  0.36012922633E+02 -0.33175187984E+02  0.24251915033E+03  0.24741273608E+03  0.00000000000E+00 0.  1.
         14    1    3    3    0    0 -0.38340983640E+01  0.11245702826E+02  0.11693543667E+01  0.11938740803E+02  0.00000000000E+00 0. -1.
         -2    1    1    2    0  502 -0.32178824269E+02  0.21929485157E+02 -0.63498791278E+02  0.74488089950E+02  0.00000000000E+00 0.  1.
<mgrwt>
<rscale>  1 0.88764302E+02</rscale>
<asrwt>0</asrwt>
<pdfrwt beam="1">  1       21 0.11819220E-01 0.88764302E+02</pdfrwt>
<pdfrwt beam="2">  1       -1 0.39540713E-01 0.88764302E+02</pdfrwt>
<totfact> 0.34355340E+04</totfact>
</mgrwt>
</event>
<event>
 6    2  0.7993170E+000  0.8286991E+02  0.7546771E-02  0.1321099E+00
         -3   -1    0    0    0  501 -0.00000000000E+00  0.00000000000E+00  0.20195352111E+02  0.20195352111E+02  0.00000000000E+00 0.  1.
         21   -1    0    0  501  502  0.00000000000E+00 -0.00000000000E+00 -0.14751143905E+03  0.14751143905E+03  0.00000000000E+00 0. -1.
         24    2    1    2    0    0 -0.17143474644E+02 -0.13128075905E+02 -0.77713417458E+02  0.11360808582E+03  0.80007354731E+02 0.  0.
        -11    1    3    3    0    0 -0.13165139472E+02 -0.38121015698E+02 -0.10334783011E+02  0.41633405758E+02  0.00000000000E+00 0.  1.
         12    1    3    3    0    0 -0.39783351720E+01  0.24992939793E+02 -0.67378634447E+02  0.71974680063E+02  0.00000000000E+00 0. -1.
         -4    1    1    2    0  502  0.17143474644E+02  0.13128075905E+02 -0.49602669478E+02  0.54098705338E+02  0.00000000000E+00 0.  1.
<mgrwt>
<rscale>  1 0.82869910E+02</rscale>
<asrwt>0</asrwt>
<pdfrwt beam="1">  1       21 0.22694068E-01 0.82869910E+02</pdfrwt>
<pdfrwt beam="2">  1       -3 0.31069772E-02 0.82869910E+02</pdfrwt>
<totfact> 0.38374093E+05</totfact>
</mgrwt>
</event>
<event>
 6    2  0.7993170E+000  0.8696508E+02  0.7546771E-02  0.1310372E+00
         -1   -1    0    0    0  501 -0.00000000000E+00  0.00000000000E+00  0.17342977757E+04  0.17342977757E+04  0.00000000000E+00 0.  1.
         21   -1    0    0  501  502  0.00000000000E+00 -0.00000000000E+00 -0.21268971200E+01  0.21268971200E+01  0.00000000000E+00 0. -1.
         24    2    1    2    0    0  0.15428646325E+02  0.29660039449E+02  0.11411514355E+04  0.11444603638E+04  0.80281781703E+02 0.  0.
        -13    1    3    3    0    0  0.65649342152E+01  0.44951307181E+02  0.10758683633E+04  0.10768270305E+04  0.00000000000E+00 0.  1.
         14    1    3    3    0    0  0.88637121098E+01 -0.15291267732E+02  0.65283072158E+02  0.67633333287E+02  0.00000000000E+00 0. -1.
         -2    1    1    2    0  502 -0.15428646325E+02 -0.29660039449E+02  0.59101944305E+03  0.59196430900E+03  0.00000000000E+00 0.  1.
<mgrwt>
<rscale>  1 0.86965082E+02</rscale>
<asrwt>0</asrwt>
<pdfrwt beam="1">  1       21 0.32721633E-03 0.86965082E+02</pdfrwt>
<pdfrwt beam="2">  1       -1 0.26681391E+00 0.86965082E+02</pdfrwt>
<totfact> 0.12420688E+05</totfact>
</mgrwt>
</event>
<event>
 6    2  0.7993170E+000  0.1234111E+03  0.7546771E-02  0.1237574E+00
         -3   -1    0    0    0  501 -0.00000000000E+00  0.00000000000E+00  0.78438162155E+02  0.78438162155E+02  0.00000000000E+00 0.  1.
         21   -1    0    0  501  502  0.00000000000E+00 -0.00000000000E+00 -0.20627434677E+03  0.20627434677E+03  0.00000000000E+00 0.  1.
         24    2    1    2    0    0 -0.67994868887E+02 -0.64183361274E+02  0.35373450495E+01  0.12346174038E+03  0.80544909638E+02 0.  0.
        -11    1    3    3    0    0 -0.81322564151E+02 -0.70836772856E+02  0.73091793840E+01  0.10809547600E+03  0.00000000000E+00 0.  1.
         12    1    3    3    0    0  0.13327695264E+02  0.66534115815E+01 -0.37718343345E+01  0.15366264380E+02  0.00000000000E+00 0. -1.
         -4    1    1    2    0  502  0.67994868887E+02  0.64183361274E+02 -0.13137352966E+03  0.16125076854E+03  0.00000000000E+00 0.  1.
<mgrwt>
<rscale>  1 0.12341106E+03</rscale>
<asrwt>0</asrwt>
<pdfrwt beam="1">  1       21 0.31734514E-01 0.12341106E+03</pdfrwt>
<pdfrwt beam="2">  1       -3 0.12067410E-01 0.12341106E+03</pdfrwt>
<totfact> 0.24580164E+04</totfact>
</mgrwt>
</event>
<event>
 6    2  0.7993170E+000  0.7430111E+02  0.7546771E-02  0.1346049E+00
         21   -1    0    0  501  502  0.00000000000E+00  0.00000000000E+00  0.45665598394E+02  0.45665598394E+02  0.00000000000E+00 0. -1.
          2   -1    0    0  502    0 -0.00000000000E+00 -0.00000000000E+00 -0.72660363496E+02  0.72660363496E+02  0.00000000000E+00 0. -1.
         24    2    1    2    0    0  0.27928249307E+02 -0.12019827344E+02 -0.40986556257E+02  0.84856071265E+02  0.67795218695E+02 0.  0.
        -11    1    3    3    0    0 -0.70331010857E+01  0.22942830187E+02 -0.19605895744E+02  0.30987563889E+02  0.00000000000E+00 0.  1.
         12    1    3    3    0    0  0.34961350393E+02 -0.34962657531E+02 -0.21380660513E+02  0.53868507376E+02  0.00000000000E+00 0. -1.
          1    1    1    2  501    0 -0.27928249307E+02  0.12019827344E+02  0.13991791155E+02  0.33469890625E+02  0.00000000000E+00 0. -1.
<mgrwt>
<rscale>  1 0.74301111E+02</rscale>
<asrwt>0</asrwt>
<pdfrwt beam="1">  1       21 0.70254767E-02 0.74301111E+02</pdfrwt>
<pdfrwt beam="2">  1        2 0.11178517E-01 0.74301111E+02</pdfrwt>
<totfact> 0.92403984E+05</totfact>
</mgrwt>
</event>
<event>
 6    2  0.7993170E+000  0.1002605E+03  0.7546771E-02  0.1279749E+00
          2   -1    0    0  502    0 -0.00000000000E+00  0.00000000000E+00  0.13370138573E+03  0.13370138573E+03  0.00000000000E+00 0. -1.
         21   -1    0    0  501  502  0.00000000000E+00 -0.00000000000E+00 -0.10769637915E+03  0.10769637915E+03  0.00000000000E+00 0. -1.
         24    2    1    2    0    0  0.46288837681E+02 -0.37124193201E+02  0.10329901132E+03  0.14395431777E+03  0.80816444190E+02 0.  0.
        -13    1    3    3    0    0 -0.40111480536E+01  0.13454675641E+02 -0.44541805729E+01  0.14729471474E+02  0.00000000000E+00 0.  1.
         14    1    3    3    0    0  0.50299985734E+02 -0.50578868842E+02  0.10775319189E+03  0.12922484630E+03  0.00000000000E+00 0. -1.
          1    1    1    2  501    0 -0.46288837681E+02  0.37124193201E+02 -0.77294004741E+02  0.97443447104E+02  0.00000000000E+00 0. -1.
<mgrwt>
<rscale>  1 0.10026046E+03</rscale>
<asrwt>0</asrwt>
<pdfrwt beam="1">  1       21 0.16568674E-01 0.10026046E+03</pdfrwt>
<pdfrwt beam="2">  1        2 0.20569444E-01 0.10026046E+03</pdfrwt>
<totfact> 0.10520250E+05</totfact>
</mgrwt>
</event>
<event>
 6    2  0.7993170E+000  0.8155369E+02  0.7546771E-02  0.1324699E+00
         21   -1    0    0  501  502  0.00000000000E+00  0.00000000000E+00  0.28073529334E+01  0.28073529334E+01  0.00000000000E+00 0. -1.
          2   -1    0    0  502    0 -0.00000000000E+00 -0.00000000000E+00 -0.22448455430E+04  0.22448455430E+04  0.00000000000E+00 0. -1.
         24    2    1    2    0    0 -0.12021932937E+02 -0.18487076531E+02 -0.21846791729E+04  0.21862008356E+04  0.78515642785E+02 0.  0.
        -13    1    3    3    0    0  0.26438805555E+02  0.14855275024E+02 -0.91234372814E+03  0.91284761484E+03  0.00000000000E+00 0.  1.
         14    1    3    3    0    0 -0.38460738493E+02 -0.33342351555E+02 -0.12723354448E+04  0.12733532208E+04  0.00000000000E+00 0. -1.
          1    1    1    2  501    0  0.12021932937E+02  0.18487076531E+02 -0.57359017179E+02  0.61452060355E+02  0.00000000000E+00 0. -1.
<mgrwt>
<rscale>  1 0.81553694E+02</rscale>
<asrwt>0</asrwt>
<pdfrwt beam="1">  1       21 0.43190081E-03 0.81553694E+02</pdfrwt>
<pdfrwt beam="2">  1        2 0.34536056E+00 0.81553694E+02</pdfrwt>
<totfact> 0.98058202E+05</totfact>
</mgrwt>
</event>
<event>
 6    2  0.7993170E+000  0.8382471E+02  0.7546771E-02  0.1318535E+00
         21   -1    0    0  501  502  0.00000000000E+00  0.00000000000E+00  0.15669472884E+03  0.15669472884E+03  0.00000000000E+00 0. -1.
         -1   -1    0    0    0  501 -0.00000000000E+00 -0.00000000000E+00 -0.17866182964E+02  0.17866182964E+02  0.00000000000E+00 0.  1.
         24    2    1    2    0    0  0.31853018567E+01  0.21740978321E+02  0.10848476523E+03  0.13709677815E+03  0.80893547375E+02 0.  0.
        -13    1    3    3    0    0 -0.12018630254E+02 -0.27661368387E+02  0.26338987742E+02  0.40041741340E+02  0.00000000000E+00 0.  1.
         14    1    3    3    0    0  0.15203932110E+02  0.49402346708E+02  0.82145777489E+02  0.97055036815E+02  0.00000000000E+00 0. -1.
         -2    1    1    2    0  502 -0.31853018567E+01 -0.21740978321E+02  0.30343780646E+02  0.37464133650E+02  0.00000000000E+00 0.  1.
<mgrwt>
<rscale>  1 0.83824712E+02</rscale>
<asrwt>0</asrwt>
<pdfrwt beam="1">  1       21 0.24106880E-01 0.83824712E+02</pdfrwt>
<pdfrwt beam="2">  1       -1 0.27486436E-02 0.83824712E+02</pdfrwt>
<totfact> 0.56402941E+05</totfact>
</mgrwt>
</event>
<event>
 6    2  0.7993170E+000  0.1020226E+03  0.7546771E-02  0.1276099E+00
         21   -1    0    0  501  502  0.00000000000E+00  0.00000000000E+00  0.88101398984E+02  0.88101398984E+02  0.00000000000E+00 0. -1.
         -1   -1    0    0    0  501 -0.00000000000E+00 -0.00000000000E+00 -0.11697352920E+03  0.11697352920E+03  0.00000000000E+00 0.  1.
         24    2    1    2    0    0  0.17008221610E+02  0.59195783702E+02 -0.76251295870E+02  0.12736903555E+03  0.81333822519E+02 0.  0.
        -11    1    3    3    0    0 -0.29429155478E+02  0.33871472438E+02 -0.53403415722E+02  0.69751535095E+02  0.00000000000E+00 0.  1.
         12    1    3    3    0    0  0.46437377089E+02  0.25324311264E+02 -0.22847880148E+02  0.57617500459E+02  0.00000000000E+00 0. -1.
         -2    1    1    2    0  502 -0.17008221610E+02 -0.59195783702E+02  0.47379165659E+02  0.77705892627E+02  0.00000000000E+00 0.  1.
<mgrwt>
<rscale>  1 0.10202260E+03</rscale>
<asrwt>0</asrwt>
<pdfrwt beam="1">  1       21 0.13554061E-01 0.10202260E+03</pdfrwt>
<pdfrwt beam="2">  1       -1 0.17995928E-01 0.10202260E+03</pdfrwt>
<totfact> 0.99088016E+04</totfact>
</mgrwt>
</event>
<event>
 6    2  0.7993170E+000  0.8487727E+02  0.7546771E-02  0.1315754E+00
         -1   -1    0    0    0  501 -0.00000000000E+00  0.00000000000E+00  0.29940494353E+02  0.29940494353E+02  0.00000000000E+00 0.  1.
         21   -1    0    0  501  502  0.00000000000E+00 -0.00000000000E+00 -0.11295870580E+03  0.11295870580E+03  0.00000000000E+00 0. -1.
         24    2    1    2    0    0 -0.11601190170E+02  0.22683188633E+02 -0.42217232867E+02  0.94796866395E+02  0.80963179702E+02 0.  0.
        -13    1    3    3    0    0  0.24100952397E+02  0.11111233870E+02  0.11781547262E+02  0.29036533547E+02  0.00000000000E+00 0.  1.
         14    1    3    3    0    0 -0.35702142567E+02  0.11571954763E+02 -0.53998780129E+02  0.65760332848E+02  0.00000000000E+00 0. -1.
         -2    1    1    2    0  502  0.11601190170E+02 -0.22683188633E+02 -0.40800978579E+02  0.48102333758E+02  0.00000000000E+00 0.  1.
<mgrwt>
<rscale>  1 0.84877271E+02</rscale>
<asrwt>0</asrwt>
<pdfrwt beam="1">  1       21 0.17378262E-01 0.84877271E+02</pdfrwt>
<pdfrwt beam="2">  1       -1 0.46062299E-02 0.84877271E+02</pdfrwt>
<totfact> 0.48791375E+05</totfact>
</mgrwt>
</event>
<event>
 6    2  0.7993170E+000  0.1034594E+03  0.7546771E-02  0.1273185E+00
         21   -1    0    0  501  502  0.00000000000E+00  0.00000000000E+00  0.49671332292E+02  0.49671332292E+02  0.00000000000E+00 0. -1.
          2   -1    0    0  502    0 -0.00000000000E+00 -0.00000000000E+00 -0.83405324565E+03  0.83405324565E+03  0.00000000000E+00 0. -1.
         24    2    1    2    0    0 -0.17991916052E+02 -0.61953339559E+02 -0.80831955866E+03  0.81491370534E+03  0.80882092664E+02 0.  0.
        -13    1    3    3    0    0  0.16151324232E+02  0.12800041589E+02 -0.20236646769E+03  0.20341311066E+03  0.00000000000E+00 0.  1.
         14    1    3    3    0    0 -0.34143240284E+02 -0.74753381148E+02 -0.60595309097E+03  0.61150059469E+03  0.00000000000E+00 0. -1.
          1    1    1    2  501    0  0.17991916052E+02  0.61953339559E+02  0.23937645301E+02  0.68810872603E+02  0.00000000000E+00 0. -1.
<mgrwt>
<rscale>  1 0.10345936E+03</rscale>
<asrwt>0</asrwt>
<pdfrwt beam="1">  1       21 0.76417439E-02 0.10345936E+03</pdfrwt>
<pdfrwt beam="2">  1        2 0.12831588E+00 0.10345936E+03</pdfrwt>
<totfact> 0.55383734E+04</totfact>
</mgrwt>
</event>
<event>
 6    2  0.7993170E+000  0.8312272E+02  0.7546771E-02  0.1320416E+00
          2   -1    0    0  502    0 -0.00000000000E+00  0.00000000000E+00  0.13700035923E+03  0.13700035923E+03  0.00000000000E+00 0. -1.
         21   -1    0    0  501  502  0.00000000000E+00 -0.00000000000E+00 -0.47262799118E+02  0.47262799118E+02  0.00000000000E+00 0. -1.
         24    2    1    2    0    0 -0.24568107946E+02  0.37692364612E+01  0.11944978111E+03  0.14552538416E+03  0.79319531998E+02 0.  0.
        -13    1    3    3    0    0 -0.19976405201E+02  0.23389122597E+02  0.73444533313E+01  0.31623548431E+02  0.00000000000E+00 0.  1.
         14    1    3    3    0    0 -0.45917027451E+01 -0.19619886136E+02  0.11210532778E+03  0.11390183573E+03  0.00000000000E+00 0. -1.
          1    1    1    2  501    0  0.24568107946E+02 -0.37692364612E+01 -0.29712221004E+02  0.38737774182E+02  0.00000000000E+00 0. -1.
<mgrwt>
<rscale>  1 0.83122724E+02</rscale>
<asrwt>0</asrwt>
<pdfrwt beam="1">  1       21 0.72712000E-02 0.83122724E+02</pdfrwt>
<pdfrwt beam="2">  1        2 0.21076978E-01 0.83122724E+02</pdfrwt>
<totfact> 0.42596175E+05</totfact>
</mgrwt>
</event>
<event>
 6    2  0.7993170E+000  0.8882386E+02  0.7546771E-02  0.1305725E+00
          2   -1    0    0  502    0 -0.00000000000E+00  0.00000000000E+00  0.59664107496E+03  0.59664107496E+03  0.00000000000E+00 0. -1.
         21   -1    0    0  501  502  0.00000000000E+00 -0.00000000000E+00 -0.88868978670E+01  0.88868978670E+01  0.00000000000E+00 0.  1.
         24    2    1    2    0    0 -0.17335791986E+02 -0.26413881113E+02  0.23278732022E+03  0.24915781095E+03  0.83014790863E+02 0.  0.
        -13    1    3    3    0    0 -0.35038745615E+02 -0.38946255285E+02  0.85437895468E+02  0.10022054918E+03  0.00000000000E+00 0.  1.
         14    1    3    3    0    0  0.17702953630E+02  0.12532374172E+02  0.14734942475E+03  0.14893726177E+03  0.00000000000E+00 0. -1.
          1    1    1    2  501    0  0.17335791986E+02  0.26413881113E+02  0.35496685688E+03  0.35637016188E+03  0.00000000000E+00 0. -1.
<mgrwt>
<rscale>  1 0.88823861E+02</rscale>
<asrwt>0</asrwt>
<pdfrwt beam="1">  1       21 0.13672155E-02 0.88823861E+02</pdfrwt>
<pdfrwt beam="2">  1        2 0.91790903E-01 0.88823861E+02</pdfrwt>
<totfact> 0.13617859E+06</totfact>
</mgrwt>
</event>
<event>
 6    2  0.7993170E+000  0.8250785E+02  0.7546771E-02  0.1322081E+00
          2   -1    0    0  502    0 -0.00000000000E+00  0.00000000000E+00  0.14030288982E+04  0.14030288982E+04  0.00000000000E+00 0. -1.
         21   -1    0    0  501  502  0.00000000000E+00 -0.00000000000E+00 -0.19920320571E+01  0.19920320571E+01  0.00000000000E+00 0.  1.
         24    2    1    2    0    0 -0.88506159222E+01  0.19096455935E+02  0.98390810123E+03  0.98736148220E+03  0.79778047353E+02 0.  0.
        -13    1    3    3    0    0 -0.24771618105E+02  0.33537008781E+02  0.89198128722E+03  0.89295519528E+03  0.00000000000E+00 0.  1.
         14    1    3    3    0    0  0.15921002183E+02 -0.14440552846E+02  0.91926814012E+02  0.94406286928E+02  0.00000000000E+00 0. -1.
          1    1    1    2  501    0  0.88506159222E+01 -0.19096455935E+02  0.41712876487E+03  0.41765944801E+03  0.00000000000E+00 0. -1.
<mgrwt>
<rscale>  1 0.82507847E+02</rscale>
<asrwt>0</asrwt>
<pdfrwt beam="1">  1       21 0.30646759E-03 0.82507847E+02</pdfrwt>
<pdfrwt beam="2">  1        2 0.21584981E+00 0.82507847E+02</pdfrwt>
<totfact> 0.43778779E+06</totfact>
</mgrwt>
</event>
<event>
 6    2  0.7993170E+000  0.9165075E+02  0.7546771E-02  0.1298903E+00
         21   -1    0    0  501  502  0.00000000000E+00  0.00000000000E+00  0.17002627549E+01  0.17002627549E+01  0.00000000000E+00 0. -1.
          2   -1    0    0  502    0 -0.00000000000E+00 -0.00000000000E+00 -0.25350532692E+04  0.25350532692E+04  0.00000000000E+00 0. -1.
         24    2    1    2    0    0 -0.12514421515E+02 -0.36898317339E+02 -0.16531883638E+04  0.16557269179E+04  0.82956396848E+02 0.  0.
        -13    1    3    3    0    0  0.32534751908E+02 -0.25750755503E+02 -0.10181395415E+04  0.10189846601E+04  0.00000000000E+00 0.  1.
         14    1    3    3    0    0 -0.45049173422E+02 -0.11147561836E+02 -0.63504882227E+03  0.63674225777E+03  0.00000000000E+00 0. -1.
          1    1    1    2  501    0  0.12514421515E+02  0.36898317339E+02 -0.88016464262E+03  0.88102661406E+03  0.00000000000E+00 0. -1.
<mgrwt>
<rscale>  1 0.91650752E+02</rscale>
<asrwt>0</asrwt>
<pdfrwt beam="1">  1       21 0.26157852E-03 0.91650752E+02</pdfrwt>
<pdfrwt beam="2">  1        2 0.39000874E+00 0.91650752E+02</pdfrwt>
<totfact> 0.14914307E+06</totfact>
</mgrwt>
</event>
<event>
 6    2  0.7993170E+000  0.9139887E+02  0.7546771E-02  0.1299499E+00
         21   -1    0    0  501  502  0.00000000000E+00  0.00000000000E+00  0.18528072872E+02  0.18528072872E+02  0.00000000000E+00 0.  1.
          2   -1    0    0  502    0 -0.00000000000E+00 -0.00000000000E+00 -0.26134428958E+03  0.26134428958E+03  0.00000000000E+00 0. -1.
         24    2    1    2    0    0 -0.13285591496E+02  0.41425934833E+02 -0.12961582628E+03  0.15860017516E+03  0.80381205013E+02 0.  0.
        -13    1    3    3    0    0 -0.25665431299E+02  0.28862553287E+02 -0.13141294614E+02  0.40797732414E+02  0.00000000000E+00 0.  1.
         14    1    3    3    0    0  0.12379839803E+02  0.12563381546E+02 -0.11647453166E+03  0.11780244274E+03  0.00000000000E+00 0. -1.
          1    1    1    2  501    0  0.13285591496E+02 -0.41425934833E+02 -0.11320039043E+03  0.12127218730E+03  0.00000000000E+00 0. -1.
<mgrwt>
<rscale>  1 0.91398868E+02</rscale>
<asrwt>0</asrwt>
<pdfrwt beam="1">  1       21 0.28504730E-02 0.91398868E+02</pdfrwt>
<pdfrwt beam="2">  1        2 0.40206810E-01 0.91398868E+02</pdfrwt>
<totfact> 0.10137292E+06</totfact>
</mgrwt>
</event>
<event>
 6    2  0.7993170E+000  0.7378882E+02  0.7546771E-02  0.1347663E+00
         21   -1    0    0  501  502  0.00000000000E+00  0.00000000000E+00  0.13338427647E+04  0.13338427647E+04  0.00000000000E+00 0.  1.
          4   -1    0    0  502    0 -0.00000000000E+00 -0.00000000000E+00 -0.20533888433E+01  0.20533888433E+01  0.00000000000E+00 0. -1.
         24    2    1    2    0    0 -0.19495840271E+02 -0.69449789175E+01  0.12184816820E+04  0.12207138893E+04  0.70827039488E+02 0.  0.
        -13    1    3    3    0    0 -0.11709145580E+02 -0.29001754430E+02  0.10650798811E+04  0.10655389993E+04  0.00000000000E+00 0.  1.
         14    1    3    3    0    0 -0.77866946913E+01  0.22056775512E+02  0.15340180091E+03  0.15517488998E+03  0.00000000000E+00 0. -1.
          3    1    1    2  501    0  0.19495840271E+02  0.69449789175E+01  0.11330769382E+03  0.11518226426E+03  0.00000000000E+00 0. -1.
<mgrwt>
<rscale>  1 0.73788821E+02</rscale>
<asrwt>0</asrwt>
<pdfrwt beam="1">  1       21 0.20520589E+00 0.73788821E+02</pdfrwt>
<pdfrwt beam="2">  1        4 0.31590704E-03 0.73788821E+02</pdfrwt>
<totfact> 0.80731624E+04</totfact>
</mgrwt>
</event>
<event>
 6    2  0.7993170E+000  0.9707617E+02  0.7546771E-02  0.1286567E+00
         21   -1    0    0  501  502  0.00000000000E+00  0.00000000000E+00  0.27072555455E+03  0.27072555455E+03  0.00000000000E+00 0. -1.
         -3   -1    0    0    0  501 -0.00000000000E+00 -0.00000000000E+00 -0.21491743307E+02  0.21491743307E+02  0.00000000000E+00 0.  1.
         24    2    1    2    0    0 -0.15280026211E+02 -0.51895158128E+02  0.14057664527E+03  0.17083786650E+03  0.80605190889E+02 0.  0.
        -11    1    3    3    0    0 -0.37716601692E+02 -0.21026421959E+02  0.26776594283E+02  0.50809826461E+02  0.00000000000E+00 0.  1.
         12    1    3    3    0    0  0.22436575481E+02 -0.30868736170E+02  0.11380005099E+03  0.12002804004E+03  0.00000000000E+00 0. -1.
         -4    1    1    2    0  502  0.15280026211E+02  0.51895158128E+02  0.10865716597E+03  0.12137943135E+03  0.00000000000E+00 0.  1.
<mgrwt>
<rscale>  1 0.97076173E+02</rscale>
<asrwt>0</asrwt>
<pdfrwt beam="1">  1       21 0.41650083E-01 0.97076173E+02</pdfrwt>
<pdfrwt beam="2">  1       -3 0.33064223E-02 0.97076173E+02</pdfrwt>
<totfact> 0.11144819E+05</totfact>
</mgrwt>
</event>
<event>
 6    2  0.7993170E+000  0.9253942E+02  0.7546771E-02  0.1296816E+00
          2   -1    0    0  502    0 -0.00000000000E+00  0.00000000000E+00  0.52255355920E+02  0.52255355920E+02  0.00000000000E+00 0. -1.
         21   -1    0    0  501  502  0.00000000000E+00 -0.00000000000E+00 -0.93977625995E+02  0.93977625995E+02  0.00000000000E+00 0.  1.
         24    2    1    2    0    0 -0.24695309284E+02  0.38582422859E+02 -0.38758339459E+02  0.10032822683E+03  0.80405737158E+02 0.  0.
        -11    1    3    3    0    0 -0.20118392159E+02  0.41207137328E+02 -0.61651221990E+02  0.76835220066E+02  0.00000000000E+00 0.  1.
         12    1    3    3    0    0 -0.45769171253E+01 -0.26247144685E+01  0.22892882532E+02  0.23493006768E+02  0.00000000000E+00 0. -1.
          1    1    1    2  501    0  0.24695309284E+02 -0.38582422859E+02 -0.29639306160E+01  0.45904755081E+02  0.00000000000E+00 0. -1.
<mgrwt>
<rscale>  1 0.92539420E+02</rscale>
<asrwt>0</asrwt>
<pdfrwt beam="1">  1       21 0.14458096E-01 0.92539420E+02</pdfrwt>
<pdfrwt beam="2">  1        2 0.80392857E-02 0.92539420E+02</pdfrwt>
<totfact> 0.40467264E+05</totfact>
</mgrwt>
</event>
<event>
 6    2  0.7993170E+000  0.1176921E+03  0.7546771E-02  0.1246954E+00
          2   -1    0    0  502    0 -0.00000000000E+00  0.00000000000E+00  0.28522620108E+04  0.28522620108E+04  0.00000000000E+00 0. -1.
         21   -1    0    0  501  502  0.00000000000E+00 -0.00000000000E+00 -0.36640407128E+01  0.36640407128E+01  0.00000000000E+00 0. -1.
         24    2    1    2    0    0 -0.81888019812E+02 -0.21128987531E+02  0.14465750196E+04  0.14513547875E+04  0.81849557502E+02 0.  0.
        -13    1    3    3    0    0 -0.53437672892E+02 -0.47611130275E+02  0.67094496280E+03  0.67475147108E+03  0.00000000000E+00 0.  1.
         14    1    3    3    0    0 -0.28450346920E+02  0.26482142744E+02  0.77563005679E+03  0.77660331645E+03  0.00000000000E+00 0. -1.
          1    1    1    2  501    0  0.81888019812E+02  0.21128987531E+02  0.14020229505E+04  0.14045712639E+04  0.00000000000E+00 0. -1.
<mgrwt>
<rscale>  1 0.11769211E+03</rscale>
<asrwt>0</asrwt>
<pdfrwt beam="1">  1       21 0.56370085E-03 0.11769211E+03</pdfrwt>
<pdfrwt beam="2">  1        2 0.43880777E+00 0.11769211E+03</pdfrwt>
<totfact> 0.31193462E+05</totfact>
</mgrwt>
</event>
<event>
 6    2  0.7993170E+000  0.9056438E+02  0.7546771E-02  0.1301491E+00
          4   -1    0    0  502    0 -0.00000000000E+00  0.00000000000E+00  0.13613929088E+02  0.13613929088E+02  0.00000000000E+00 0. -1.
         21   -1    0    0  501  502  0.00000000000E+00 -0.00000000000E+00 -0.50615962633E+03  0.50615962633E+03  0.00000000000E+00 0.  1.
         24    2    1    2    0    0  0.20576665940E+02  0.32173253877E+02 -0.15083208671E+03  0.17593244521E+03  0.82118143244E+02 0.  0.
        -13    1    3    3    0    0 -0.31475320941E+02  0.65915734848E+01 -0.46003739042E+02  0.56129214098E+02  0.00000000000E+00 0.  1.
         14    1    3    3    0    0  0.52051986881E+02  0.25581680392E+02 -0.10482834767E+03  0.11980323111E+03  0.00000000000E+00 0. -1.
          3    1    1    2  501    0 -0.20576665940E+02 -0.32173253877E+02 -0.34171361053E+03  0.34384111021E+03  0.00000000000E+00 0. -1.
<mgrwt>
<rscale>  1 0.90564380E+02</rscale>
<asrwt>0</asrwt>
<pdfrwt beam="1">  1       21 0.77870705E-01 0.90564380E+02</pdfrwt>
<pdfrwt beam="2">  1        4 0.20944508E-02 0.90564380E+02</pdfrwt>
<totfact> 0.54000674E+04</totfact>
</mgrwt>
</event>
<event>
 6    2  0.7993170E+000  0.7443475E+02  0.7546771E-02  0.1345630E+00
         -1   -1    0    0    0  501 -0.00000000000E+00  0.00000000000E+00  0.55446272656E+03  0.55446272656E+03  0.00000000000E+00 0.  1.
         21   -1    0    0  501  502  0.00000000000E+00 -0.00000000000E+00 -0.57139079172E+01  0.57139079172E+01  0.00000000000E+00 0.  1.
         24    2    1    2    0    0 -0.34104179620E+02 -0.15693066051E+02  0.33661709115E+03  0.34474860195E+03  0.64274140230E+02 0.  0.
        -11    1    3    3    0    0 -0.10558287114E+02 -0.34654856658E+02  0.25778949273E+03  0.26032260578E+03  0.00000000000E+00 0.  1.
         12    1    3    3    0    0 -0.23545892506E+02  0.18961790607E+02  0.78827598412E+02  0.84425996164E+02  0.00000000000E+00 0. -1.
         -2    1    1    2    0  502  0.34104179620E+02  0.15693066051E+02  0.21213172750E+03  0.21542803253E+03  0.00000000000E+00 0.  1.
<mgrwt>
<rscale>  1 0.74434753E+02</rscale>
<asrwt>0</asrwt>
<pdfrwt beam="1">  1       21 0.87906319E-03 0.74434753E+02</pdfrwt>
<pdfrwt beam="2">  1       -1 0.85301915E-01 0.74434753E+02</pdfrwt>
<totfact> 0.56192731E+05</totfact>
</mgrwt>
</event>
<event>
 6    2  0.7993170E+000  0.9661651E+02  0.7546771E-02  0.1287576E+00
         21   -1    0    0  501  502  0.00000000000E+00  0.00000000000E+00  0.13843767193E+02  0.13843767193E+02  0.00000000000E+00 0. -1.
          2   -1    0    0  502    0 -0.00000000000E+00 -0.00000000000E+00 -0.17318525003E+04  0.17318525003E+04  0.00000000000E+00 0. -1.
         24    2    1    2    0    0 -0.18311926452E+02 -0.46108932121E+02 -0.16810670812E+04  0.16838412279E+04  0.82905905278E+02 0.  0.
        -13    1    3    3    0    0 -0.46306073460E+01  0.17966074757E+02 -0.12244481814E+03  0.12384246387E+03  0.00000000000E+00 0.  1.
         14    1    3    3    0    0 -0.13681319106E+02 -0.64075006879E+02 -0.15586222630E+04  0.15599987641E+04  0.00000000000E+00 0. -1.
          1    1    1    2  501    0  0.18311926452E+02  0.46108932121E+02 -0.36941651883E+02  0.61855039532E+02  0.00000000000E+00 0. -1.
<mgrwt>
<rscale>  1 0.96616507E+02</rscale>
<asrwt>0</asrwt>
<pdfrwt beam="1">  1       21 0.21298120E-02 0.96616507E+02</pdfrwt>
<pdfrwt beam="2">  1        2 0.26643864E+00 0.96616507E+02</pdfrwt>
<totfact> 0.14770107E+05</totfact>
</mgrwt>
</event>
<event>
 6    2  0.7993170E+000  0.8784308E+02  0.7546771E-02  0.1308161E+00
         -1   -1    0    0    0  501 -0.00000000000E+00  0.00000000000E+00  0.52656522522E+02  0.52656522522E+02  0.00000000000E+00 0.  1.
         21   -1    0    0  501  502  0.00000000000E+00 -0.00000000000E+00 -0.70869612628E+02  0.70869612628E+02  0.00000000000E+00 0.  1.
         24    2    1    2    0    0 -0.22552574238E+02 -0.25544261165E+02 -0.16705647420E+02  0.89417481311E+02  0.80964680108E+02 0.  0.
        -11    1    3    3    0    0 -0.14705711806E+02 -0.36832430159E+02  0.24066132123E+02  0.46390350145E+02  0.00000000000E+00 0.  1.
         12    1    3    3    0    0 -0.78468624320E+01  0.11288168994E+02 -0.40771779543E+02  0.43027131166E+02  0.00000000000E+00 0. -1.
         -2    1    1    2    0  502  0.22552574238E+02  0.25544261165E+02 -0.15074426861E+01  0.34108653839E+02  0.00000000000E+00 0.  1.
<mgrwt>
<rscale>  1 0.87843083E+02</rscale>
<asrwt>0</asrwt>
<pdfrwt beam="1">  1       21 0.10903017E-01 0.87843083E+02</pdfrwt>
<pdfrwt beam="2">  1       -1 0.81010034E-02 0.87843083E+02</pdfrwt>
<totfact> 0.48696172E+05</totfact>
</mgrwt>
</event>
<event>
 6    2  0.7993170E+000  0.8512259E+02  0.7546771E-02  0.1315112E+00
         -3   -1    0    0    0  501 -0.00000000000E+00  0.00000000000E+00  0.96148956867E+02  0.96148956867E+02  0.00000000000E+00 0.  1.
         21   -1    0    0  501  502  0.00000000000E+00 -0.00000000000E+00 -0.30810938059E+02  0.30810938059E+02  0.00000000000E+00 0. -1.
         24    2    1    2    0    0  0.96609382273E+01 -0.20703141610E+02  0.57841986880E+02  0.10291526362E+03  0.81999403900E+02 0.  0.
        -11    1    3    3    0    0 -0.34546684934E+02 -0.80983333282E+01  0.40344389848E+02  0.53728262906E+02  0.00000000000E+00 0.  1.
         12    1    3    3    0    0  0.44207623162E+02 -0.12604808282E+02  0.17497597032E+02  0.49187000715E+02  0.00000000000E+00 0. -1.
         -4    1    1    2    0  502 -0.96609382273E+01  0.20703141610E+02  0.74960319271E+01  0.24044631305E+02  0.00000000000E+00 0.  1.
<mgrwt>
<rscale>  1 0.85122594E+02</rscale>
<asrwt>0</asrwt>
<pdfrwt beam="1">  1       21 0.47401444E-02 0.85122594E+02</pdfrwt>
<pdfrwt beam="2">  1       -3 0.14792147E-01 0.85122594E+02</pdfrwt>
<totfact> 0.48623959E+05</totfact>
</mgrwt>
</event>
<event>
 6    2  0.7993170E+000  0.8137472E+02  0.7546771E-02  0.1325195E+00
         21   -1    0    0  501  502  0.00000000000E+00  0.00000000000E+00  0.13664530219E+01  0.13664530219E+01  0.00000000000E+00 0. -1.
          2   -1    0    0  502    0 -0.00000000000E+00 -0.00000000000E+00 -0.29164861908E+04  0.29164861908E+04  0.00000000000E+00 0. -1.
         24    2    1    2    0    0  0.12162331105E+02 -0.16525419339E+02 -0.27793679679E+04  0.27805589630E+04  0.78745372382E+02 0.  0.
        -11    1    3    3    0    0 -0.28914133943E+01  0.14042540960E+02 -0.10503998399E+03  0.10601392109E+03  0.00000000000E+00 0.  1.
         12    1    3    3    0    0  0.15053744499E+02 -0.30567960299E+02 -0.26743279839E+04  0.26745450419E+04  0.00000000000E+00 0. -1.
          1    1    1    2  501    0 -0.12162331105E+02  0.16525419339E+02 -0.13575176985E+03  0.13729368085E+03  0.00000000000E+00 0. -1.
<mgrwt>
<rscale>  1 0.81374722E+02</rscale>
<asrwt>0</asrwt>
<pdfrwt beam="1">  1       21 0.21022371E-03 0.81374722E+02</pdfrwt>
<pdfrwt beam="2">  1        2 0.44868981E+00 0.81374722E+02</pdfrwt>
<totfact> 0.12813927E+06</totfact>
</mgrwt>
</event>
<event>
 6    2  0.7993170E+000  0.9054299E+02  0.7546771E-02  0.1301542E+00
          2   -1    0    0  502    0 -0.00000000000E+00  0.00000000000E+00  0.20208803550E+03  0.20208803550E+03  0.00000000000E+00 0. -1.
         21   -1    0    0  501  502  0.00000000000E+00 -0.00000000000E+00 -0.21695181836E+02  0.21695181836E+02  0.00000000000E+00 0.  1.
         24    2    1    2    0    0  0.18453765067E+02 -0.35209747242E+02  0.10576008093E+03  0.13922366133E+03  0.81349649107E+02 0.  0.
        -13    1    3    3    0    0 -0.31989446657E+01 -0.12477344158E+02 -0.11845729222E+02  0.17499676141E+02  0.00000000000E+00 0.  1.
         14    1    3    3    0    0  0.21652709733E+02 -0.22732403084E+02  0.11760581016E+03  0.12172398519E+03  0.00000000000E+00 0. -1.
          1    1    1    2  501    0 -0.18453765067E+02  0.35209747242E+02  0.74632772728E+02  0.84559556000E+02  0.00000000000E+00 0. -1.
<mgrwt>
<rscale>  1 0.90542991E+02</rscale>
<asrwt>0</asrwt>
<pdfrwt beam="1">  1       21 0.33377204E-02 0.90542991E+02</pdfrwt>
<pdfrwt beam="2">  1        2 0.31090466E-01 0.90542991E+02</pdfrwt>
<totfact> 0.10278818E+06</totfact>
</mgrwt>
</event>
<event>
 6    2  0.7993170E+000  0.1021197E+03  0.7546771E-02  0.1275901E+00
         21   -1    0    0  501  502  0.00000000000E+00  0.00000000000E+00  0.62035106744E+01  0.62035106744E+01  0.00000000000E+00 0.  1.
          2   -1    0    0  502    0 -0.00000000000E+00 -0.00000000000E+00 -0.79089653383E+03  0.79089653383E+03  0.00000000000E+00 0. -1.
         24    2    1    2    0    0  0.32636465634E+02 -0.15471870533E+02 -0.51776650202E+03  0.52774101764E+03  0.95519178286E+02 0.  0.
        -11    1    3    3    0    0  0.46836799782E+02 -0.45945986612E+02 -0.39687148930E+03  0.40225824854E+03  0.00000000000E+00 0.  1.
         12    1    3    3    0    0 -0.14200334148E+02  0.30474116079E+02 -0.12089501272E+03  0.12548276910E+03  0.00000000000E+00 0. -1.
          1    1    1    2  501    0 -0.32636465634E+02  0.15471870533E+02 -0.26692652114E+03  0.26935902687E+03  0.00000000000E+00 0. -1.
<mgrwt>
<rscale>  1 0.10211969E+03</rscale>
<asrwt>0</asrwt>
<pdfrwt beam="1">  1       21 0.95438614E-03 0.10211969E+03</pdfrwt>
<pdfrwt beam="2">  1        2 0.12167641E+00 0.10211969E+03</pdfrwt>
<totfact> 0.17486442E+06</totfact>
</mgrwt>
</event>
<event>
 6    2  0.7993170E+000  0.8826775E+02  0.7546771E-02  0.1307102E+00
         21   -1    0    0  501  502  0.00000000000E+00  0.00000000000E+00  0.12880666760E+02  0.12880666760E+02  0.00000000000E+00 0.  1.
          2   -1    0    0  502    0 -0.00000000000E+00 -0.00000000000E+00 -0.24559365668E+03  0.24559365668E+03  0.00000000000E+00 0. -1.
         24    2    1    2    0    0  0.66955066188E+01 -0.22358469749E+02 -0.19617506066E+03  0.21511822522E+03  0.85126173517E+02 0.  0.
        -11    1    3    3    0    0 -0.24149989727E+01 -0.11487160575E+01  0.86205216891E+01  0.90258053830E+01  0.00000000000E+00 0.  1.
         12    1    3    3    0    0  0.91105055915E+01 -0.21209753692E+02 -0.20479558235E+03  0.20609241983E+03  0.00000000000E+00 0. -1.
          1    1    1    2  501    0 -0.66955066188E+01  0.22358469749E+02 -0.36537929262E+02  0.43356098224E+02  0.00000000000E+00 0. -1.
<mgrwt>
<rscale>  1 0.88267754E+02</rscale>
<asrwt>0</asrwt>
<pdfrwt beam="1">  1       21 0.19816412E-02 0.88267754E+02</pdfrwt>
<pdfrwt beam="2">  1        2 0.37783637E-01 0.88267754E+02</pdfrwt>
<totfact> 0.19353441E+06</totfact>
</mgrwt>
</event>
<event>
 6    2  0.7993170E+000  0.1141064E+03  0.7546771E-02  0.1253149E+00
         21   -1    0    0  501  502  0.00000000000E+00  0.00000000000E+00  0.48163669156E+02  0.48163669156E+02  0.00000000000E+00 0.  1.
         -1   -1    0    0    0  501 -0.00000000000E+00 -0.00000000000E+00 -0.20853806496E+03  0.20853806496E+03  0.00000000000E+00 0.  1.
         24    2    1    2    0    0  0.69467235359E+02 -0.43511886267E+02 -0.11905454290E+03  0.16490679265E+03  0.79380633920E+02 0.  0.
        -11    1    3    3    0    0  0.50421088607E+02  0.46763438693E+01 -0.95273831001E+02  0.10789465808E+03  0.00000000000E+00 0.  1.
         12    1    3    3    0    0  0.19046146752E+02 -0.48188230137E+02 -0.23780711899E+02  0.57012134570E+02  0.00000000000E+00 0. -1.
         -2    1    1    2    0  502 -0.69467235359E+02  0.43511886267E+02 -0.41319852905E+02  0.91794941468E+02  0.00000000000E+00 0.  1.
<mgrwt>
<rscale>  1 0.11410638E+03</rscale>
<asrwt>0</asrwt>
<pdfrwt beam="1">  1       21 0.74097953E-02 0.11410638E+03</pdfrwt>
<pdfrwt beam="2">  1       -1 0.32082779E-01 0.11410638E+03</pdfrwt>
<totfact> 0.11141875E+05</totfact>
</mgrwt>
</event>
<event>
 6    2  0.7993170E+000  0.8685741E+02  0.7546771E-02  0.1310645E+00
         21   -1    0    0  501  502  0.00000000000E+00  0.00000000000E+00  0.86909913068E+01  0.86909913068E+01  0.00000000000E+00 0. -1.
         -1   -1    0    0    0  501 -0.00000000000E+00 -0.00000000000E+00 -0.74179857635E+03  0.74179857635E+03  0.00000000000E+00 0.  1.
         24    2    1    2    0    0 -0.37987648708E+01  0.33398069654E+02 -0.22364563140E+03  0.23991994078E+03  0.80089623998E+02 0.  0.
        -11    1    3    3    0    0 -0.30946186732E+02  0.74503468186E+01 -0.17794360276E+03  0.18076808320E+03  0.00000000000E+00 0.  1.
         12    1    3    3    0    0  0.27147421861E+02  0.25947722835E+02 -0.45702028635E+02  0.59151857582E+02  0.00000000000E+00 0. -1.
         -2    1    1    2    0  502  0.37987648708E+01 -0.33398069654E+02 -0.50946195365E+03  0.51056962687E+03  0.00000000000E+00 0.  1.
<mgrwt>
<rscale>  1 0.86857409E+02</rscale>
<asrwt>0</asrwt>
<pdfrwt beam="1">  1       21 0.13370755E-02 0.86857409E+02</pdfrwt>
<pdfrwt beam="2">  1       -1 0.11412286E+00 0.86857409E+02</pdfrwt>
<totfact> 0.15781174E+05</totfact>
</mgrwt>
</event>
<event>
 6    2  0.7993170E+000  0.1253679E+03  0.7546771E-02  0.1234495E+00
          4   -1    0    0  502    0 -0.00000000000E+00  0.00000000000E+00  0.15338590490E+04  0.15338590490E+04  0.00000000000E+00 0. -1.
         21   -1    0    0  501  502  0.00000000000E+00 -0.00000000000E+00 -0.18707235828E+02  0.18707235828E+02  0.00000000000E+00 0.  1.
         24    2    1    2    0    0  0.95430524934E+02 -0.15837574845E+01  0.21474391999E+03  0.24866054359E+03  0.81287276925E+02 0.  0.
        -11    1    3    3    0    0 -0.71262053612E+00  0.98172089209E+01 -0.30600626789E+01  0.10307735087E+02  0.00000000000E+00 0.  1.
         12    1    3    3    0    0  0.96143145470E+02 -0.11400966405E+02  0.21780398267E+03  0.23835280850E+03  0.00000000000E+00 0. -1.
          3    1    1    2  501    0 -0.95430524934E+02  0.15837574845E+01  0.13004078932E+04  0.13039057412E+04  0.00000000000E+00 0. -1.
<mgrwt>
<rscale>  1 0.12536792E+03</rscale>
<asrwt>0</asrwt>
<pdfrwt beam="1">  1       21 0.28780375E-02 0.12536792E+03</pdfrwt>
<pdfrwt beam="2">  1        4 0.23597822E+00 0.12536792E+03</pdfrwt>
<totfact> 0.24700628E+03</totfact>
</mgrwt>
</event>
<event>
 6    2  0.7993170E+000  0.1085192E+03  0.7546771E-02  0.1263337E+00
         21   -1    0    0  501  502  0.00000000000E+00  0.00000000000E+00  0.45471689698E+01  0.45471689698E+01  0.00000000000E+00 0. -1.
          2   -1    0    0  502    0 -0.00000000000E+00 -0.00000000000E+00 -0.21153490482E+04  0.21153490482E+04  0.00000000000E+00 0. -1.
         24    2    1    2    0    0  0.70837207343E+00 -0.72900398741E+02 -0.16289137978E+04  0.16325246003E+04  0.80383082306E+02 0.  0.
        -13    1    3    3    0    0  0.31883021214E+02 -0.41628388705E+01 -0.39637638737E+03  0.39767838354E+03  0.00000000000E+00 0.  1.
         14    1    3    3    0    0 -0.31174649140E+02 -0.68737559870E+02 -0.12325374105E+04  0.12348462168E+04  0.00000000000E+00 0. -1.
          1    1    1    2  501    0 -0.70837207343E+00  0.72900398741E+02 -0.48188808142E+03  0.48737161688E+03  0.00000000000E+00 0. -1.
<mgrwt>
<rscale>  1 0.10851917E+03</rscale>
<asrwt>0</asrwt>
<pdfrwt beam="1">  1       21 0.69956475E-03 0.10851917E+03</pdfrwt>
<pdfrwt beam="2">  1        2 0.32543818E+00 0.10851917E+03</pdfrwt>
<totfact> 0.54898491E+05</totfact>
</mgrwt>
</event>
<event>
 6    2  0.7993170E+000  0.1191986E+03  0.7546771E-02  0.1244425E+00
         21   -1    0    0  501  502  0.00000000000E+00  0.00000000000E+00  0.91791908728E+01  0.91791908728E+01  0.00000000000E+00 0. -1.
          2   -1    0    0  502    0 -0.00000000000E+00 -0.00000000000E+00 -0.15480362733E+04  0.15480362733E+04  0.00000000000E+00 0. -1.
         24    2    1    2    0    0  0.46215414206E+02 -0.67634805879E+02 -0.12839095180E+04  0.12894308640E+04  0.86590826151E+02 0.  0.
        -13    1    3    3    0    0  0.35457525963E+01 -0.19263526877E+02 -0.48045134840E+02  0.51884398532E+02  0.00000000000E+00 0.  1.
         14    1    3    3    0    0  0.42669661610E+02 -0.48371279002E+02 -0.12358643831E+04  0.12375464654E+04  0.00000000000E+00 0. -1.
          1    1    1    2  501    0 -0.46215414206E+02  0.67634805879E+02 -0.25494756441E+03  0.26778460014E+03  0.00000000000E+00 0. -1.
<mgrwt>
<rscale>  1 0.11919858E+03</rscale>
<asrwt>0</asrwt>
<pdfrwt beam="1">  1       21 0.14121849E-02 0.11919858E+03</pdfrwt>
<pdfrwt beam="2">  1        2 0.23815914E+00 0.11919858E+03</pdfrwt>
<totfact> 0.35457491E+05</totfact>
</mgrwt>
</event>
<event>
 6    2  0.7993170E+000  0.1780124E+03  0.7546771E-02  0.1169741E+00
          2   -1    0    0  502    0 -0.00000000000E+00  0.00000000000E+00  0.27754202288E+04  0.27754202288E+04  0.00000000000E+00 0. -1.
         21   -1    0    0  501  502  0.00000000000E+00 -0.00000000000E+00 -0.10412900936E+02  0.10412900936E+02  0.00000000000E+00 0. -1.
         24    2    1    2    0    0 -0.15572391101E+03 -0.45261842156E+00  0.17370336631E+04  0.17461312510E+04  0.86245332877E+02 0.  0.
        -13    1    3    3    0    0 -0.24728011959E+02 -0.89702926349E+01  0.87145247743E+02  0.91028758805E+02  0.00000000000E+00 0.  1.
         14    1    3    3    0    0 -0.13099589905E+03  0.85176742134E+01  0.16498884154E+04  0.16551024922E+04  0.00000000000E+00 0. -1.
          1    1    1    2  501    0  0.15572391101E+03  0.45261842156E+00  0.10279736647E+04  0.10397018788E+04  0.00000000000E+00 0. -1.
<mgrwt>
<rscale>  1 0.17801236E+03</rscale>
<asrwt>0</asrwt>
<pdfrwt beam="1">  1       21 0.16019870E-02 0.17801236E+03</pdfrwt>
<pdfrwt beam="2">  1        2 0.42698714E+00 0.17801236E+03</pdfrwt>
<totfact> 0.65477927E+04</totfact>
</mgrwt>
</event>
<event>
 6    2  0.7993170E+000  0.9355102E+02  0.7546771E-02  0.1294473E+00
         21   -1    0    0  501  502  0.00000000000E+00  0.00000000000E+00  0.31739393044E+02  0.31739393044E+02  0.00000000000E+00 0.  1.
         -3   -1    0    0    0  501 -0.00000000000E+00 -0.00000000000E+00 -0.23658985076E+03  0.23658985076E+03  0.00000000000E+00 0.  1.
         24    2    1    2    0    0  0.45690888881E+02  0.43279051445E+01 -0.20168416138E+03  0.22232474921E+03  0.81519353969E+02 0.  0.
        -13    1    3    3    0    0  0.61381274004E+02 -0.16445620862E+02 -0.16891877019E+03  0.18047623158E+03  0.00000000000E+00 0.  1.
         14    1    3    3    0    0 -0.15690385123E+02  0.20773526007E+02 -0.32765391195E+02  0.41848517635E+02  0.00000000000E+00 0. -1.
         -4    1    1    2    0  502 -0.45690888881E+02 -0.43279051445E+01 -0.31662963312E+01  0.46004494586E+02  0.00000000000E+00 0.  1.
<mgrwt>
<rscale>  1 0.93551019E+02</rscale>
<asrwt>0</asrwt>
<pdfrwt beam="1">  1       21 0.48829838E-02 0.93551019E+02</pdfrwt>
<pdfrwt beam="2">  1       -3 0.36398437E-01 0.93551019E+02</pdfrwt>
<totfact> 0.94802328E+04</totfact>
</mgrwt>
</event>
<event>
 6    2  0.7993170E+000  0.7513123E+02  0.7546771E-02  0.1343465E+00
          4   -1    0    0  502    0 -0.00000000000E+00  0.00000000000E+00  0.29424980150E+03  0.29424980150E+03  0.00000000000E+00 0. -1.
         21   -1    0    0  501  502  0.00000000000E+00 -0.00000000000E+00 -0.78076093725E+01  0.78076093725E+01  0.00000000000E+00 0.  1.
         24    2    1    2    0    0 -0.18432038603E+02  0.89734209339E+01  0.23324819699E+03  0.24504983726E+03  0.72280280939E+02 0.  0.
        -13    1    3    3    0    0  0.22397097130E+02  0.12893165565E+02  0.40926603921E+02  0.48403001835E+02  0.00000000000E+00 0.  1.
         14    1    3    3    0    0 -0.40829135734E+02 -0.39197446315E+01  0.19232159306E+03  0.19664683542E+03  0.00000000000E+00 0. -1.
          3    1    1    2  501    0  0.18432038603E+02 -0.89734209339E+01  0.53193995145E+02  0.57007573618E+02  0.00000000000E+00 0. -1.
<mgrwt>
<rscale>  1 0.75131227E+02</rscale>
<asrwt>0</asrwt>
<pdfrwt beam="1">  1       21 0.12011709E-02 0.75131227E+02</pdfrwt>
<pdfrwt beam="2">  1        4 0.45269192E-01 0.75131227E+02</pdfrwt>
<totfact> 0.46787419E+05</totfact>
</mgrwt>
</event>
<event>
 6    2  0.7993170E+000  0.8725182E+02  0.7546771E-02  0.1309647E+00
         21   -1    0    0  501  502  0.00000000000E+00  0.00000000000E+00  0.46586174156E+01  0.46586174156E+01  0.00000000000E+00 0. -1.
         -3   -1    0    0    0  501 -0.00000000000E+00 -0.00000000000E+00 -0.77311273778E+03  0.77311273778E+03  0.00000000000E+00 0.  1.
         24    2    1    2    0    0 -0.31293278311E+02  0.71926397103E+01 -0.52342489110E+03  0.53064724361E+03  0.81128769210E+02 0.  0.
        -13    1    3    3    0    0 -0.38760788142E+02 -0.29868594575E+02 -0.32335619885E+03  0.32703786168E+03  0.00000000000E+00 0.  1.
         14    1    3    3    0    0  0.74675098313E+01  0.37061234286E+02 -0.20006869225E+03  0.20360938193E+03  0.00000000000E+00 0. -1.
         -4    1    1    2    0  502  0.31293278311E+02 -0.71926397103E+01 -0.24502922927E+03  0.24712411159E+03  0.00000000000E+00 0.  1.
<mgrwt>
<rscale>  1 0.87251822E+02</rscale>
<asrwt>0</asrwt>
<pdfrwt beam="1">  1       21 0.71670973E-03 0.87251822E+02</pdfrwt>
<pdfrwt beam="2">  1       -3 0.11894053E+00 0.87251822E+02</pdfrwt>
<totfact> 0.17099419E+05</totfact>
</mgrwt>
</event>
<event>
 6    2  0.7993170E+000  0.1049508E+03  0.7546771E-02  0.1270217E+00
         21   -1    0    0  501  502  0.00000000000E+00  0.00000000000E+00  0.33925180729E+02  0.33925180729E+02  0.00000000000E+00 0.  1.
         -1   -1    0    0    0  501 -0.00000000000E+00 -0.00000000000E+00 -0.22716587739E+03  0.22716587739E+03  0.00000000000E+00 0.  1.
         24    2    1    2    0    0 -0.38662939730E+02 -0.56140792224E+02 -0.13786481088E+03  0.17326680073E+03  0.79800167266E+02 0.  0.
        -11    1    3    3    0    0 -0.61907380288E+02 -0.34242661142E+02 -0.77224748948E+02  0.10473177849E+03  0.00000000000E+00 0.  1.
         12    1    3    3    0    0  0.23244440558E+02 -0.21898131083E+02 -0.60640061931E+02  0.68535022235E+02  0.00000000000E+00 0. -1.
         -2    1    1    2    0  502  0.38662939730E+02  0.56140792224E+02 -0.55375885782E+02  0.87824257391E+02  0.00000000000E+00 0.  1.
<mgrwt>
<rscale>  1 0.10495084E+03</rscale>
<asrwt>0</asrwt>
<pdfrwt beam="1">  1       21 0.52192586E-02 0.10495084E+03</pdfrwt>
<pdfrwt beam="2">  1       -1 0.34948596E-01 0.10495084E+03</pdfrwt>
<totfact> 0.17343834E+05</totfact>
</mgrwt>
</event>
<event>
 6    2  0.7993170E+000  0.7087031E+02  0.7546771E-02  0.1357158E+00
         21   -1    0    0  501  502  0.00000000000E+00  0.00000000000E+00  0.19083135059E+02  0.19083135059E+02  0.00000000000E+00 0. -1.
         -3   -1    0    0    0  501 -0.00000000000E+00 -0.00000000000E+00 -0.12368664969E+03  0.12368664969E+03  0.00000000000E+00 0.  1.
         24    2    1    2    0    0 -0.24049641342E+02 -0.19522948663E+01 -0.90044590018E+02  0.11458895811E+03  0.66636359638E+02 0.  0.
        -11    1    3    3    0    0 -0.12689109481E+02  0.72344646826E+00 -0.99040717010E+02  0.99852894300E+02  0.00000000000E+00 0.  1.
         12    1    3    3    0    0 -0.11360531861E+02 -0.26757413345E+01  0.89961269916E+01  0.14736063813E+02  0.00000000000E+00 0. -1.
         -4    1    1    2    0  502  0.24049641342E+02  0.19522948663E+01 -0.14558924610E+02  0.28180826633E+02  0.00000000000E+00 0.  1.
<mgrwt>
<rscale>  1 0.70870312E+02</rscale>
<asrwt>0</asrwt>
<pdfrwt beam="1">  1       21 0.29358670E-02 0.70870312E+02</pdfrwt>
<pdfrwt beam="2">  1       -3 0.19028715E-01 0.70870312E+02</pdfrwt>
<totfact> 0.66841355E+05</totfact>
</mgrwt>
</event>
<event>
 6    2  0.7993170E+000  0.9505428E+02  0.7546771E-02  0.1291054E+00
         21   -1    0    0  501  502  0.00000000000E+00  0.00000000000E+00  0.18199809056E+02  0.18199809056E+02  0.00000000000E+00 0.  1.
         -1   -1    0    0    0  501 -0.00000000000E+00 -0.00000000000E+00 -0.34131410822E+03  0.34131410822E+03  0.00000000000E+00 0.  1.
         24    2    1    2    0    0 -0.12544205145E+02  0.49345837994E+02 -0.26858688453E+03  0.28491091629E+03  0.80267969123E+02 0.  0.
        -11    1    3    3    0    0  0.41976508640E+01  0.67151572575E+02 -0.15932965303E+03  0.17295343971E+03  0.00000000000E+00 0.  1.
         12    1    3    3    0    0 -0.16741856009E+02 -0.17805734581E+02 -0.10925723150E+03  0.11195747658E+03  0.00000000000E+00 0. -1.
         -2    1    1    2    0  502  0.12544205145E+02 -0.49345837994E+02 -0.54527414630E+02  0.74603000987E+02  0.00000000000E+00 0.  1.
<mgrwt>
<rscale>  1 0.95054278E+02</rscale>
<asrwt>0</asrwt>
<pdfrwt beam="1">  1       21 0.27999708E-02 0.95054278E+02</pdfrwt>
<pdfrwt beam="2">  1       -1 0.52509859E-01 0.95054278E+02</pdfrwt>
<totfact> 0.23444084E+05</totfact>
</mgrwt>
</event>
<event>
 6    2  0.7993170E+000  0.8589729E+02  0.7546771E-02  0.1313103E+00
         21   -1    0    0  501  502  0.00000000000E+00  0.00000000000E+00  0.32548342465E+02  0.32548342465E+02  0.00000000000E+00 0.  1.
         -1   -1    0    0    0  501 -0.00000000000E+00 -0.00000000000E+00 -0.55865576073E+03  0.55865576073E+03  0.00000000000E+00 0.  1.
         24    2    1    2    0    0  0.27928655068E+02  0.10314458596E+02 -0.54771970985E+03  0.55441430872E+03  0.80572621391E+02 0.  0.
        -13    1    3    3    0    0  0.45607914865E+02  0.24198884088E+02 -0.48588121258E+03  0.48861663973E+03  0.00000000000E+00 0.  1.
         14    1    3    3    0    0 -0.17679259797E+02 -0.13884425492E+02 -0.61838497278E+02  0.65797668985E+02  0.00000000000E+00 0. -1.
         -2    1    1    2    0  502 -0.27928655068E+02 -0.10314458596E+02  0.21612291588E+02  0.36789794478E+02  0.00000000000E+00 0.  1.
<mgrwt>
<rscale>  1 0.85897294E+02</rscale>
<asrwt>0</asrwt>
<pdfrwt beam="1">  1       21 0.50074378E-02 0.85897294E+02</pdfrwt>
<pdfrwt beam="2">  1       -1 0.85947032E-01 0.85897294E+02</pdfrwt>
<totfact> 0.34549895E+04</totfact>
</mgrwt>
</event>
<event>
 6    2  0.7993170E+000  0.8415367E+02  0.7546771E-02  0.1317661E+00
          4   -1    0    0  502    0 -0.00000000000E+00  0.00000000000E+00  0.18447149387E+02  0.18447149387E+02  0.00000000000E+00 0. -1.
         21   -1    0    0  501  502  0.00000000000E+00 -0.00000000000E+00 -0.31021274129E+03  0.31021274129E+03  0.00000000000E+00 0. -1.
         24    2    1    2    0    0  0.16847865675E+02  0.18184268908E+02 -0.82215962850E+02  0.11764907283E+03  0.80419659138E+02 0.  0.
        -13    1    3    3    0    0  0.46512807284E+02 -0.12912595280E+01 -0.59422109998E+02  0.75472483391E+02  0.00000000000E+00 0.  1.
         14    1    3    3    0    0 -0.29664941609E+02  0.19475528436E+02 -0.22793852852E+02  0.42176589435E+02  0.00000000000E+00 0. -1.
          3    1    1    2  501    0 -0.16847865675E+02 -0.18184268908E+02 -0.20954962905E+03  0.21101081785E+03  0.00000000000E+00 0. -1.
<mgrwt>
<rscale>  1 0.84153668E+02</rscale>
<asrwt>0</asrwt>
<pdfrwt beam="1">  1       21 0.47725037E-01 0.84153668E+02</pdfrwt>
<pdfrwt beam="2">  1        4 0.28380230E-02 0.84153668E+02</pdfrwt>
<totfact> 0.93969891E+04</totfact>
</mgrwt>
</event>
<event>
 6    2  0.7993170E+000  0.7706726E+02  0.7546771E-02  0.1337586E+00
         21   -1    0    0  501  502  0.00000000000E+00  0.00000000000E+00  0.15519167697E+02  0.15519167697E+02  0.00000000000E+00 0. -1.
         -1   -1    0    0    0  501 -0.00000000000E+00 -0.00000000000E+00 -0.16033666451E+03  0.16033666451E+03  0.00000000000E+00 0.  1.
         24    2    1    2    0    0  0.18852909954E+02  0.12516711968E+02 -0.11462501975E+03  0.13812406889E+03  0.73669959686E+02 0.  0.
        -13    1    3    3    0    0  0.22375975373E+02  0.17922140596E+02 -0.12370588129E+03  0.12698437882E+03  0.00000000000E+00 0.  1.
         14    1    3    3    0    0 -0.35230654196E+01 -0.54054286279E+01  0.90808615376E+01  0.11139690071E+02  0.00000000000E+00 0. -1.
         -2    1    1    2    0  502 -0.18852909954E+02 -0.12516711968E+02 -0.30192477061E+02  0.37731763320E+02  0.00000000000E+00 0.  1.
<mgrwt>
<rscale>  1 0.77067264E+02</rscale>
<asrwt>0</asrwt>
<pdfrwt beam="1">  1       21 0.23875641E-02 0.77067264E+02</pdfrwt>
<pdfrwt beam="2">  1       -1 0.24667181E-01 0.77067264E+02</pdfrwt>
<totfact> 0.10774322E+06</totfact>
</mgrwt>
</event>
<event>
 6    2  0.7993170E+000  0.1032975E+03  0.7546771E-02  0.1273511E+00
          2   -1    0    0  502    0 -0.00000000000E+00  0.00000000000E+00  0.14879232524E+03  0.14879232524E+03  0.00000000000E+00 0. -1.
         21   -1    0    0  501  502  0.00000000000E+00 -0.00000000000E+00 -0.56165225750E+02  0.56165225750E+02  0.00000000000E+00 0.  1.
         24    2    1    2    0    0  0.49641904319E+01 -0.64503978999E+02  0.15766533946E+02  0.10449386089E+03  0.80529354133E+02 0.  0.
        -11    1    3    3    0    0 -0.24039151832E+01 -0.69457186146E+02  0.38949536601E+02  0.79668977130E+02  0.00000000000E+00 0.  1.
         12    1    3    3    0    0  0.73681056150E+01  0.49532071470E+01 -0.23183002656E+02  0.24824883757E+02  0.00000000000E+00 0. -1.
          1    1    1    2  501    0 -0.49641904319E+01  0.64503978999E+02  0.76860565546E+02  0.10046369010E+03  0.00000000000E+00 0. -1.
<mgrwt>
<rscale>  1 0.10329755E+03</rscale>
<asrwt>0</asrwt>
<pdfrwt beam="1">  1       21 0.86408040E-02 0.10329755E+03</pdfrwt>
<pdfrwt beam="2">  1        2 0.22891127E-01 0.10329755E+03</pdfrwt>
<totfact> 0.29461990E+05</totfact>
</mgrwt>
</event>
<event>
 6    2  0.7993170E+000  0.8946945E+02  0.7546771E-02  0.1304142E+00
          2   -1    0    0  502    0 -0.00000000000E+00  0.00000000000E+00  0.78223918989E+01  0.78223918989E+01  0.00000000000E+00 0. -1.
         21   -1    0    0  501  502  0.00000000000E+00 -0.00000000000E+00 -0.53756857409E+03  0.53756857409E+03  0.00000000000E+00 0. -1.
         24    2    1    2    0    0  0.19974255027E+02 -0.34519442815E+02 -0.34759930672E+03  0.35892904752E+03  0.80088827706E+02 0.  0.
        -13    1    3    3    0    0  0.32328917631E+02  0.10830855394E+02 -0.22607508883E+03  0.22863160791E+03  0.00000000000E+00 0.  1.
         14    1    3    3    0    0 -0.12354662604E+02 -0.45350298210E+02 -0.12152421789E+03  0.13029743961E+03  0.00000000000E+00 0. -1.
          1    1    1    2  501    0 -0.19974255027E+02  0.34519442815E+02 -0.18214687547E+03  0.18646191847E+03  0.00000000000E+00 0. -1.
<mgrwt>
<rscale>  1 0.89469454E+02</rscale>
<asrwt>0</asrwt>
<pdfrwt beam="1">  1       21 0.82702884E-01 0.89469454E+02</pdfrwt>
<pdfrwt beam="2">  1        2 0.12034445E-02 0.89469454E+02</pdfrwt>
<totfact> 0.16093876E+05</totfact>
</mgrwt>
</event>
<event>
 6    2  0.7993170E+000  0.1236685E+03  0.7546771E-02  0.1237165E+00
         21   -1    0    0  501  502  0.00000000000E+00  0.00000000000E+00  0.19686615299E+02  0.19686615299E+02  0.00000000000E+00 0.  1.
         -3   -1    0    0    0  501 -0.00000000000E+00 -0.00000000000E+00 -0.67448830807E+03  0.67448830807E+03  0.00000000000E+00 0.  1.
         24    2    1    2    0    0  0.76899555931E+02  0.52318995847E+02 -0.48554053755E+03  0.50104243595E+03  0.81505153162E+02 0.  0.
        -13    1    3    3    0    0  0.60489266733E+02  0.72983592186E+02 -0.33269319095E+03  0.34593397552E+03  0.00000000000E+00 0.  1.
         14    1    3    3    0    0  0.16410289198E+02 -0.20664596339E+02 -0.15284734660E+03  0.15510846043E+03  0.00000000000E+00 0. -1.
         -4    1    1    2    0  502 -0.76899555931E+02 -0.52318995847E+02 -0.16926115522E+03  0.19313248742E+03  0.00000000000E+00 0.  1.
<mgrwt>
<rscale>  1 0.12366854E+03</rscale>
<asrwt>0</asrwt>
<pdfrwt beam="1">  1       21 0.30287106E-02 0.12366854E+03</pdfrwt>
<pdfrwt beam="2">  1       -3 0.10376741E+00 0.12366854E+03</pdfrwt>
<totfact> 0.24724869E+04</totfact>
</mgrwt>
</event>
<event>
 6    2  0.7993170E+000  0.9779609E+02  0.7546771E-02  0.1285000E+00
         21   -1    0    0  501  502  0.00000000000E+00  0.00000000000E+00  0.19708086132E+03  0.19708086132E+03  0.00000000000E+00 0. -1.
         -1   -1    0    0    0  501 -0.00000000000E+00 -0.00000000000E+00 -0.36926297794E+02  0.36926297794E+02  0.00000000000E+00 0.  1.
         24    2    1    2    0    0 -0.48918901673E+02  0.28381565519E+02  0.49210542455E+02  0.10947945933E+03  0.79784098191E+02 0.  0.
        -11    1    3    3    0    0 -0.23902956211E+02  0.46695794534E+01 -0.20421405586E+02  0.31783487757E+02  0.00000000000E+00 0.  1.
         12    1    3    3    0    0 -0.25015945462E+02  0.23711986066E+02  0.69631948041E+02  0.77695971572E+02  0.00000000000E+00 0. -1.
         -2    1    1    2    0  502  0.48918901673E+02 -0.28381565519E+02  0.11094402107E+03  0.12452769979E+03  0.00000000000E+00 0.  1.
<mgrwt>
<rscale>  1 0.97796086E+02</rscale>
<asrwt>0</asrwt>
<pdfrwt beam="1">  1       21 0.30320132E-01 0.97796086E+02</pdfrwt>
<pdfrwt beam="2">  1       -1 0.56809690E-02 0.97796086E+02</pdfrwt>
<totfact> 0.12926507E+05</totfact>
</mgrwt>
</event>
<event>
 6    2  0.7993170E+000  0.9188932E+02  0.7546771E-02  0.1298340E+00
          2   -1    0    0  502    0 -0.00000000000E+00  0.00000000000E+00  0.60805886431E+04  0.60805886431E+04  0.00000000000E+00 0. -1.
         21   -1    0    0  501  502  0.00000000000E+00 -0.00000000000E+00 -0.14389153452E+01  0.14389153452E+01  0.00000000000E+00 0. -1.
         24    2    1    2    0    0  0.34419099862E+02 -0.27802787222E+02  0.56199443483E+04  0.56206955197E+04  0.80535571419E+02 0.  0.
        -13    1    3    3    0    0 -0.29256134929E+01 -0.22374423026E+02  0.41406253735E+03  0.41467693311E+03  0.00000000000E+00 0.  1.
         14    1    3    3    0    0  0.37344713355E+02 -0.54283641961E+01  0.52058818109E+04  0.52060185866E+04  0.00000000000E+00 0. -1.
          1    1    1    2  501    0 -0.34419099862E+02  0.27802787222E+02  0.45920537949E+03  0.46133203874E+03  0.00000000000E+00 0. -1.
<mgrwt>
<rscale>  1 0.91889323E+02</rscale>
<asrwt>0</asrwt>
<pdfrwt beam="1">  1       21 0.22137646E-03 0.91889323E+02</pdfrwt>
<pdfrwt beam="2">  1        2 0.93545460E+00 0.91889323E+02</pdfrwt>
<totfact> 0.21368047E+02</totfact>
</mgrwt>
</event>
<event>
 6    2  0.7993170E+000  0.1103013E+03  0.7546771E-02  0.1260013E+00
          2   -1    0    0  502    0 -0.00000000000E+00  0.00000000000E+00  0.28700102926E+03  0.28700102926E+03  0.00000000000E+00 0. -1.
         21   -1    0    0  501  502  0.00000000000E+00 -0.00000000000E+00 -0.30212689342E+02  0.30212689342E+02  0.00000000000E+00 0. -1.
         24    2    1    2    0    0  0.43224870547E+02  0.62284875597E+02  0.15778712473E+03  0.19251794574E+03  0.80116087884E+02 0.  0.
        -11    1    3    3    0    0 -0.14619862419E+02  0.13016128315E+02  0.85255833360E+02  0.87474093853E+02  0.00000000000E+00 0.  1.
         12    1    3    3    0    0  0.57844732966E+02  0.49268747281E+02  0.72531291374E+02  0.10504385189E+03  0.00000000000E+00 0. -1.
          1    1    1    2  501    0 -0.43224870547E+02 -0.62284875597E+02  0.99001215183E+02  0.12469577286E+03  0.00000000000E+00 0. -1.
<mgrwt>
<rscale>  1 0.11030133E+03</rscale>
<asrwt>0</asrwt>
<pdfrwt beam="1">  1       21 0.46481062E-02 0.11030133E+03</pdfrwt>
<pdfrwt beam="2">  1        2 0.44154003E-01 0.11030133E+03</pdfrwt>
<totfact> 0.41809198E+05</totfact>
</mgrwt>
</event>
<event>
 6    2  0.7993170E+000  0.8953830E+02  0.7546771E-02  0.1303974E+00
         21   -1    0    0  501  502  0.00000000000E+00  0.00000000000E+00  0.32357217679E+03  0.32357217679E+03  0.00000000000E+00 0.  1.
         -3   -1    0    0    0  501 -0.00000000000E+00 -0.00000000000E+00 -0.29042243967E+02  0.29042243967E+02  0.00000000000E+00 0.  1.
         24    2    1    2    0    0 -0.35451860983E+02 -0.18653178644E+02  0.45598947603E+02  0.10048070440E+03  0.80077040492E+02 0.  0.
        -11    1    3    3    0    0 -0.58614590648E+02 -0.12557748967E+02  0.15315230170E+02  0.61870215541E+02  0.00000000000E+00 0.  1.
         12    1    3    3    0    0  0.23162729665E+02 -0.60954296763E+01  0.30283717434E+02  0.38610488861E+02  0.00000000000E+00 0. -1.
         -4    1    1    2    0  502  0.35451860983E+02  0.18653178644E+02  0.24893098522E+03  0.25213371635E+03  0.00000000000E+00 0.  1.
<mgrwt>
<rscale>  1 0.89538304E+02</rscale>
<asrwt>0</asrwt>
<pdfrwt beam="1">  1       21 0.49780333E-01 0.89538304E+02</pdfrwt>
<pdfrwt beam="2">  1       -3 0.44680377E-02 0.89538304E+02</pdfrwt>
<totfact> 0.48359593E+04</totfact>
</mgrwt>
</event>
<event>
 6    2  0.7993170E+000  0.9312236E+02  0.7546771E-02  0.1295462E+00
         21   -1    0    0  501  502  0.00000000000E+00  0.00000000000E+00  0.50817822643E+02  0.50817822643E+02  0.00000000000E+00 0.  1.
         -1   -1    0    0    0  501 -0.00000000000E+00 -0.00000000000E+00 -0.12057185003E+03  0.12057185003E+03  0.00000000000E+00 0.  1.
         24    2    1    2    0    0 -0.40059188257E+01 -0.56075049832E+02 -0.67706465869E+02  0.11513444085E+03  0.74238233744E+02 0.  0.
        -13    1    3    3    0    0  0.30964456829E+01 -0.66551025133E+02 -0.75167070414E+02  0.10044259752E+03  0.00000000000E+00 0.  1.
         14    1    3    3    0    0 -0.71023645086E+01  0.10475975302E+02  0.74606045453E+01  0.14691843326E+02  0.00000000000E+00 0. -1.
         -2    1    1    2    0  502  0.40059188257E+01  0.56075049832E+02 -0.20475615142E+01  0.56255231823E+02  0.00000000000E+00 0.  1.
<mgrwt>
<rscale>  1 0.93122360E+02</rscale>
<asrwt>0</asrwt>
<pdfrwt beam="1">  1       21 0.78181267E-02 0.93122360E+02</pdfrwt>
<pdfrwt beam="2">  1       -1 0.18549515E-01 0.93122360E+02</pdfrwt>
<totfact> 0.24452105E+05</totfact>
</mgrwt>
</event>
<event>
 6    2  0.7993170E+000  0.8458802E+02  0.7546771E-02  0.1316513E+00
         21   -1    0    0  501  502  0.00000000000E+00  0.00000000000E+00  0.12262179848E+01  0.12262179848E+01  0.00000000000E+00 0. -1.
          2   -1    0    0  502    0 -0.00000000000E+00 -0.00000000000E+00 -0.24050917942E+04  0.24050917942E+04  0.00000000000E+00 0. -1.
         24    2    1    2    0    0 -0.12189139392E+02 -0.20435278732E+02 -0.19381155770E+04  0.19399605983E+04  0.81172392655E+02 0.  0.
        -13    1    3    3    0    0 -0.33575762130E+02  0.55970333245E+01 -0.15533259655E+04  0.15536988813E+04  0.00000000000E+00 0.  1.
         14    1    3    3    0    0  0.21386622738E+02 -0.26032312056E+02 -0.38478961148E+03  0.38626171698E+03  0.00000000000E+00 0. -1.
          1    1    1    2  501    0  0.12189139392E+02  0.20435278732E+02 -0.46574999927E+03  0.46635741396E+03  0.00000000000E+00 0. -1.
<mgrwt>
<rscale>  1 0.84588020E+02</rscale>
<asrwt>0</asrwt>
<pdfrwt beam="1">  1       21 0.18865025E-03 0.84588020E+02</pdfrwt>
<pdfrwt beam="2">  1        2 0.37001151E+00 0.84588020E+02</pdfrwt>
<totfact> 0.28363510E+06</totfact>
</mgrwt>
</event>
<event>
 6    2  0.7993170E+000  0.9357971E+02  0.7546771E-02  0.1294407E+00
         21   -1    0    0  501  502  0.00000000000E+00  0.00000000000E+00  0.84807556936E+02  0.84807556936E+02  0.00000000000E+00 0. -1.
          2   -1    0    0  502    0 -0.00000000000E+00 -0.00000000000E+00 -0.83733927394E+02  0.83733927394E+02  0.00000000000E+00 0. -1.
         24    2    1    2    0    0 -0.15611338247E+02 -0.41535697315E+02 -0.45636884340E+02  0.10411478070E+03  0.82390741683E+02 0.  0.
        -11    1    3    3    0    0  0.58426827188E+01  0.28774013139E+01  0.20557692547E+02  0.21564672558E+02  0.00000000000E+00 0.  1.
         12    1    3    3    0    0 -0.21454020965E+02 -0.44413098629E+02 -0.66194576887E+02  0.82550108144E+02  0.00000000000E+00 0. -1.
          1    1    1    2  501    0  0.15611338247E+02  0.41535697315E+02  0.46710513881E+02  0.64426703628E+02  0.00000000000E+00 0. -1.
<mgrwt>
<rscale>  1 0.93579711E+02</rscale>
<asrwt>0</asrwt>
<pdfrwt beam="1">  1       21 0.13047317E-01 0.93579711E+02</pdfrwt>
<pdfrwt beam="2">  1        2 0.12882143E-01 0.93579711E+02</pdfrwt>
<totfact> 0.27467034E+05</totfact>
</mgrwt>
</event>
<event>
 6    2  0.7993170E+000  0.9192831E+02  0.7546771E-02  0.1298248E+00
          2   -1    0    0  502    0 -0.00000000000E+00  0.00000000000E+00  0.15329925775E+02  0.15329925775E+02  0.00000000000E+00 0. -1.
         21   -1    0    0  501  502  0.00000000000E+00 -0.00000000000E+00 -0.28766311523E+03  0.28766311523E+03  0.00000000000E+00 0. -1.
         24    2    1    2    0    0 -0.36895561442E+02  0.42582827036E+01 -0.15821410843E+03  0.18298229115E+03  0.84091612804E+02 0.  0.
        -13    1    3    3    0    0  0.80204675019E+01 -0.24245307005E+02 -0.10375973896E+03  0.10685619420E+03  0.00000000000E+00 0.  1.
         14    1    3    3    0    0 -0.44916028944E+02  0.28503589709E+02 -0.54454369465E+02  0.76126096946E+02  0.00000000000E+00 0. -1.
          1    1    1    2  501    0  0.36895561442E+02 -0.42582827036E+01 -0.11411908103E+03  0.12001074986E+03  0.00000000000E+00 0. -1.
<mgrwt>
<rscale>  1 0.91928313E+02</rscale>
<asrwt>0</asrwt>
<pdfrwt beam="1">  1       21 0.44255864E-01 0.91928313E+02</pdfrwt>
<pdfrwt beam="2">  1        2 0.23584501E-02 0.91928313E+02</pdfrwt>
<totfact> 0.24223397E+05</totfact>
</mgrwt>
</event>
<event>
 6    2  0.7993170E+000  0.9105569E+02  0.7546771E-02  0.1300315E+00
          2   -1    0    0  502    0 -0.00000000000E+00  0.00000000000E+00  0.51300600445E+03  0.51300600445E+03  0.00000000000E+00 0. -1.
         21   -1    0    0  501  502  0.00000000000E+00 -0.00000000000E+00 -0.99393506404E+01  0.99393506404E+01  0.00000000000E+00 0. -1.
         24    2    1    2    0    0  0.42149555347E+02  0.12759344983E+02  0.40994153207E+03  0.41993237436E+03  0.79697888411E+02 0.  0.
        -13    1    3    3    0    0  0.55573024718E+00 -0.30802022771E+02  0.13471749726E+03  0.13819507050E+03  0.00000000000E+00 0.  1.
         14    1    3    3    0    0  0.41593825100E+02  0.43561367753E+02  0.27522403481E+03  0.28173730386E+03  0.00000000000E+00 0. -1.
          1    1    1    2  501    0 -0.42149555347E+02 -0.12759344983E+02  0.93125121734E+02  0.10301298073E+03  0.00000000000E+00 0. -1.
<mgrwt>
<rscale>  1 0.91055693E+02</rscale>
<asrwt>0</asrwt>
<pdfrwt beam="1">  1       21 0.15291313E-02 0.91055693E+02</pdfrwt>
<pdfrwt beam="2">  1        2 0.78923980E-01 0.91055693E+02</pdfrwt>
<totfact> 0.13504540E+06</totfact>
</mgrwt>
</event>
<event>
 6    2  0.7993170E+000  0.8282536E+02  0.7546771E-02  0.1321219E+00
          2   -1    0    0  502    0 -0.00000000000E+00  0.00000000000E+00  0.13757614184E+04  0.13757614184E+04  0.00000000000E+00 0. -1.
         21   -1    0    0  501  502  0.00000000000E+00 -0.00000000000E+00 -0.20358392394E+01  0.20358392394E+01  0.00000000000E+00 0.  1.
         24    2    1    2    0    0  0.20274544725E+02 -0.86378726794E+01  0.11543286467E+04  0.11572962736E+04  0.79839652980E+02 0.  0.
        -11    1    3    3    0    0  0.42117419098E+02  0.18947859312E+02  0.54539680828E+03  0.54734867941E+03  0.00000000000E+00 0.  1.
         12    1    3    3    0    0 -0.21842874373E+02 -0.27585731992E+02  0.60893183847E+03  0.60994759420E+03  0.00000000000E+00 0. -1.
          1    1    1    2  501    0 -0.20274544725E+02  0.86378726794E+01  0.21939693239E+03  0.22050098401E+03  0.00000000000E+00 0. -1.
<mgrwt>
<rscale>  1 0.82825360E+02</rscale>
<asrwt>0</asrwt>
<pdfrwt beam="1">  1       21 0.31320714E-03 0.82825360E+02</pdfrwt>
<pdfrwt beam="2">  1        2 0.21165486E+00 0.82825360E+02</pdfrwt>
<totfact> 0.43778647E+06</totfact>
</mgrwt>
</event>
<event>
 6    2  0.7993170E+000  0.8299708E+02  0.7546771E-02  0.1320755E+00
         21   -1    0    0  501  502  0.00000000000E+00  0.00000000000E+00  0.13438411221E+03  0.13438411221E+03  0.00000000000E+00 0. -1.
         -3   -1    0    0    0  501 -0.00000000000E+00 -0.00000000000E+00 -0.23715217080E+02  0.23715217080E+02  0.00000000000E+00 0.  1.
         24    2    1    2    0    0  0.12313380651E+02  0.27216222767E+02  0.79577700372E+02  0.11498315464E+03  0.77434961935E+02 0.  0.
        -13    1    3    3    0    0  0.23337105827E+02 -0.86224058425E+01 -0.22431205963E+01  0.24979951579E+02  0.00000000000E+00 0.  1.
         14    1    3    3    0    0 -0.11023725176E+02  0.35838628610E+02  0.81820820968E+02  0.90003203061E+02  0.00000000000E+00 0. -1.
         -4    1    1    2    0  502 -0.12313380651E+02 -0.27216222767E+02  0.31091194754E+02  0.43116174645E+02  0.00000000000E+00 0.  1.
<mgrwt>
<rscale>  1 0.82997081E+02</rscale>
<asrwt>0</asrwt>
<pdfrwt beam="1">  1       21 0.20674478E-01 0.82997081E+02</pdfrwt>
<pdfrwt beam="2">  1       -3 0.36484950E-02 0.82997081E+02</pdfrwt>
<totfact> 0.35604109E+05</totfact>
</mgrwt>
</event>
<event>
 6    2  0.7993170E+000  0.9308349E+02  0.7546771E-02  0.1295552E+00
          2   -1    0    0  502    0 -0.00000000000E+00  0.00000000000E+00  0.10216142757E+04  0.10216142757E+04  0.00000000000E+00 0. -1.
         21   -1    0    0  501  502  0.00000000000E+00 -0.00000000000E+00 -0.48416978824E+01  0.48416978824E+01  0.00000000000E+00 0. -1.
         24    2    1    2    0    0  0.10546785604E+02  0.45383363040E+02  0.61803723623E+03  0.62500764944E+03  0.80583200247E+02 0.  0.
        -13    1    3    3    0    0 -0.16040191564E+02 -0.17649480765E+02  0.12597680048E+03  0.12821445385E+03  0.00000000000E+00 0.  1.
         14    1    3    3    0    0  0.26586977168E+02  0.63032843805E+02  0.49206043575E+03  0.49679319559E+03  0.00000000000E+00 0. -1.
          1    1    1    2  501    0 -0.10546785604E+02 -0.45383363040E+02  0.39873534162E+03  0.40144832418E+03  0.00000000000E+00 0. -1.
<mgrwt>
<rscale>  1 0.93083492E+02</rscale>
<asrwt>0</asrwt>
<pdfrwt beam="1">  1       21 0.74487741E-03 0.93083492E+02</pdfrwt>
<pdfrwt beam="2">  1        2 0.15717126E+00 0.93083492E+02</pdfrwt>
<totfact> 0.18338554E+06</totfact>
</mgrwt>
</event>
<event>
 6    2  0.7993170E+000  0.8793910E+02  0.7546771E-02  0.1307921E+00
         -3   -1    0    0    0  501 -0.00000000000E+00  0.00000000000E+00  0.17169573860E+02  0.17169573860E+02  0.00000000000E+00 0.  1.
         21   -1    0    0  501  502  0.00000000000E+00 -0.00000000000E+00 -0.25533725550E+03  0.25533725550E+03  0.00000000000E+00 0.  1.
         24    2    1    2    0    0  0.30129903789E+02 -0.11896178074E+02 -0.21610901741E+03  0.23331608016E+03  0.81755462824E+02 0.  0.
        -13    1    3    3    0    0  0.23660719308E+01 -0.42568506430E+02 -0.75041673051E+02  0.86307176587E+02  0.00000000000E+00 0.  1.
         14    1    3    3    0    0  0.27763831859E+02  0.30672328356E+02 -0.14106734436E+03  0.14700890357E+03  0.00000000000E+00 0. -1.
         -4    1    1    2    0  502 -0.30129903789E+02  0.11896178074E+02 -0.22058664234E+02  0.39190749201E+02  0.00000000000E+00 0.  1.
<mgrwt>
<rscale>  1 0.87939103E+02</rscale>
<asrwt>0</asrwt>
<pdfrwt beam="1">  1       21 0.39282652E-01 0.87939103E+02</pdfrwt>
<pdfrwt beam="2">  1       -3 0.26414731E-02 0.87939103E+02</pdfrwt>
<totfact> 0.17428074E+05</totfact>
</mgrwt>
</event>
<event>
 6    2  0.7993170E+000  0.9176596E+02  0.7546771E-02  0.1298631E+00
          2   -1    0    0  502    0 -0.00000000000E+00  0.00000000000E+00  0.22801123441E+03  0.22801123441E+03  0.00000000000E+00 0. -1.
         21   -1    0    0  501  502  0.00000000000E+00 -0.00000000000E+00 -0.21020325105E+02  0.21020325105E+02  0.00000000000E+00 0.  1.
         24    2    1    2    0    0  0.97122182156E+01 -0.44082993999E+02  0.15547711845E+03  0.18053843438E+03  0.79895897167E+02 0.  0.
        -13    1    3    3    0    0 -0.60059435772E+01 -0.64422218041E+00 -0.83596891091E+01  0.10313621210E+02  0.00000000000E+00 0.  1.
         14    1    3    3    0    0  0.15718161793E+02 -0.43438771819E+02  0.16383680756E+03  0.17022481317E+03  0.00000000000E+00 0. -1.
          1    1    1    2  501    0 -0.97122182156E+01  0.44082993999E+02  0.51513790854E+02  0.68493125135E+02  0.00000000000E+00 0. -1.
<mgrwt>
<rscale>  1 0.91765963E+02</rscale>
<asrwt>0</asrwt>
<pdfrwt beam="1">  1       21 0.32338963E-02 0.91765963E+02</pdfrwt>
<pdfrwt beam="2">  1        2 0.35078650E-01 0.91765963E+02</pdfrwt>
<totfact> 0.95349786E+05</totfact>
</mgrwt>
</event>
<event>
 6    2  0.7993170E+000  0.8786244E+02  0.7546771E-02  0.1308112E+00
         21   -1    0    0  501  502  0.00000000000E+00  0.00000000000E+00  0.43060421418E+03  0.43060421418E+03  0.00000000000E+00 0. -1.
          2   -1    0    0  502    0 -0.00000000000E+00 -0.00000000000E+00 -0.10500942854E+03  0.10500942854E+03  0.00000000000E+00 0. -1.
         24    2    1    2    0    0 -0.31521390210E+02 -0.71370244618E+01 -0.85885362852E+02  0.12286620449E+03  0.81702346938E+02 0.  0.
        -13    1    3    3    0    0  0.26229508036E+02 -0.31783242534E+01 -0.12036312873E+02  0.29033802101E+02  0.00000000000E+00 0.  1.
         14    1    3    3    0    0 -0.57750898247E+02 -0.39587002085E+01 -0.73849049979E+02  0.93832402391E+02  0.00000000000E+00 0. -1.
          1    1    1    2  501    0  0.31521390210E+02  0.71370244618E+01  0.41148014850E+03  0.41274743823E+03  0.00000000000E+00 0. -1.
<mgrwt>
<rscale>  1 0.87862442E+02</rscale>
<asrwt>0</asrwt>
<pdfrwt beam="1">  1       21 0.66246801E-01 0.87862442E+02</pdfrwt>
<pdfrwt beam="2">  1        2 0.16155297E-01 0.87862442E+02</pdfrwt>
<totfact> 0.93056718E+03</totfact>
</mgrwt>
</event>
<event>
 6    2  0.7993170E+000  0.8314614E+02  0.7546771E-02  0.1320353E+00
         21   -1    0    0  501  502  0.00000000000E+00  0.00000000000E+00  0.20185597424E+02  0.20185597424E+02  0.00000000000E+00 0. -1.
         -1   -1    0    0    0  501 -0.00000000000E+00 -0.00000000000E+00 -0.28281750003E+03  0.28281750003E+03  0.00000000000E+00 0.  1.
         24    2    1    2    0    0  0.57731420474E+01  0.21976927678E+02 -0.26718979058E+03  0.27982791975E+03  0.79981035015E+02 0.  0.
        -11    1    3    3    0    0  0.31711930315E+02  0.14622200558E+02 -0.23613157109E+03  0.23869975731E+03  0.00000000000E+00 0.  1.
         12    1    3    3    0    0 -0.25938788268E+02  0.73547271203E+01 -0.31058219483E+02  0.41128162435E+02  0.00000000000E+00 0. -1.
         -2    1    1    2    0  502 -0.57731420474E+01 -0.21976927678E+02  0.45578879654E+01  0.23175177712E+02  0.00000000000E+00 0.  1.
<mgrwt>
<rscale>  1 0.83146139E+02</rscale>
<asrwt>0</asrwt>
<pdfrwt beam="1">  1       21 0.31054769E-02 0.83146139E+02</pdfrwt>
<pdfrwt beam="2">  1       -1 0.43510379E-01 0.83146139E+02</pdfrwt>
<totfact> 0.27416481E+05</totfact>
</mgrwt>
</event>
<event>
 6    2  0.7993170E+000  0.8821016E+02  0.7546771E-02  0.1307245E+00
         -3   -1    0    0    0  501 -0.00000000000E+00  0.00000000000E+00  0.15901165567E+02  0.15901165567E+02  0.00000000000E+00 0.  1.
         21   -1    0    0  501  502  0.00000000000E+00 -0.00000000000E+00 -0.24996490867E+03  0.24996490867E+03  0.00000000000E+00 0.  1.
         24    2    1    2    0    0 -0.17920438362E+02  0.33373354444E+02 -0.16406598686E+03  0.18627581869E+03  0.79662473526E+02 0.  0.
        -11    1    3    3    0    0 -0.30205007714E+02  0.55107607736E+02 -0.10907736398E+03  0.12588511530E+03  0.00000000000E+00 0.  1.
         12    1    3    3    0    0  0.12284569352E+02 -0.21734253292E+02 -0.54988622876E+02  0.60390703392E+02  0.00000000000E+00 0. -1.
         -4    1    1    2    0  502  0.17920438362E+02 -0.33373354444E+02 -0.69997756242E+02  0.79590255540E+02  0.00000000000E+00 0.  1.
<mgrwt>
<rscale>  1 0.88210161E+02</rscale>
<asrwt>0</asrwt>
<pdfrwt beam="1">  1       21 0.38456137E-01 0.88210161E+02</pdfrwt>
<pdfrwt beam="2">  1       -3 0.24463333E-02 0.88210161E+02</pdfrwt>
<totfact> 0.20431998E+05</totfact>
</mgrwt>
</event>
<event>
 6    2  0.7993170E+000  0.9369244E+02  0.7546771E-02  0.1294148E+00
          2   -1    0    0  502    0 -0.00000000000E+00  0.00000000000E+00  0.14844552782E+04  0.14844552782E+04  0.00000000000E+00 0. -1.
         21   -1    0    0  501  502  0.00000000000E+00 -0.00000000000E+00 -0.28695244590E+01  0.28695244590E+01  0.00000000000E+00 0. -1.
         24    2    1    2    0    0  0.28921092260E+02 -0.13005597655E+02  0.12603899520E+04  0.12638675184E+04  0.88162906043E+02 0.  0.
        -11    1    3    3    0    0  0.21652856001E+02  0.89861536559E+00  0.67904333540E+02  0.71278693844E+02  0.00000000000E+00 0.  1.
         12    1    3    3    0    0  0.72682362589E+01 -0.13904213020E+02  0.11924856184E+04  0.11925888246E+04  0.00000000000E+00 0. -1.
          1    1    1    2  501    0 -0.28921092260E+02  0.13005597655E+02  0.22119580178E+03  0.22345728423E+03  0.00000000000E+00 0. -1.
<mgrwt>
<rscale>  1 0.93692439E+02</rscale>
<asrwt>0</asrwt>
<pdfrwt beam="1">  1       21 0.44146649E-03 0.93692439E+02</pdfrwt>
<pdfrwt beam="2">  1        2 0.22837712E+00 0.93692439E+02</pdfrwt>
<totfact> 0.23102489E+06</totfact>
</mgrwt>
</event>
<event>
 6    2  0.7993170E+000  0.8905503E+02  0.7546771E-02  0.1305156E+00
         -3   -1    0    0    0  501 -0.00000000000E+00  0.00000000000E+00  0.55964196249E+01  0.55964196249E+01  0.00000000000E+00 0.  1.
         21   -1    0    0  501  502  0.00000000000E+00 -0.00000000000E+00 -0.71750050168E+03  0.71750050168E+03  0.00000000000E+00 0. -1.
         24    2    1    2    0    0 -0.87406357384E+01  0.35642016078E+02 -0.46096123795E+03  0.46948488880E+03  0.81142133919E+02 0.  0.
        -13    1    3    3    0    0  0.13010501823E+02 -0.21299208616E+02 -0.84075778288E+02  0.87702143304E+02  0.00000000000E+00 0.  1.
         14    1    3    3    0    0 -0.21751137561E+02  0.56941224693E+02 -0.37688545966E+03  0.38178274550E+03  0.00000000000E+00 0. -1.
         -4    1    1    2    0  502  0.87406357384E+01 -0.35642016078E+02 -0.25094284411E+03  0.25361203251E+03  0.00000000000E+00 0.  1.
<mgrwt>
<rscale>  1 0.89055027E+02</rscale>
<asrwt>0</asrwt>
<pdfrwt beam="1">  1       21 0.11038471E+00 0.89055027E+02</pdfrwt>
<pdfrwt beam="2">  1       -3 0.86098751E-03 0.89055027E+02</pdfrwt>
<totfact> 0.10196921E+05</totfact>
</mgrwt>
</event>
<event>
 6    2  0.7993170E+000  0.8357569E+02  0.7546771E-02  0.1319200E+00
          4   -1    0    0  502    0 -0.00000000000E+00  0.00000000000E+00  0.16770512737E+03  0.16770512737E+03  0.00000000000E+00 0. -1.
         21   -1    0    0  501  502  0.00000000000E+00 -0.00000000000E+00 -0.18627137571E+02  0.18627137571E+02  0.00000000000E+00 0.  1.
         24    2    1    2    0    0  0.40255840911E+01  0.23573970955E+02  0.13441699819E+03  0.15828084592E+03  0.80080954977E+02 0.  0.
        -11    1    3    3    0    0  0.25367751047E+02 -0.21773115654E+02  0.55763118517E+02  0.65016280617E+02  0.00000000000E+00 0.  1.
         12    1    3    3    0    0 -0.21342166956E+02  0.45347086609E+02  0.78653879672E+02  0.93264565306E+02  0.00000000000E+00 0. -1.
          3    1    1    2  501    0 -0.40255840911E+01 -0.23573970955E+02  0.14660991607E+02  0.28051419015E+02  0.00000000000E+00 0. -1.
<mgrwt>
<rscale>  1 0.83575695E+02</rscale>
<asrwt>0</asrwt>
<pdfrwt beam="1">  1       21 0.28657136E-02 0.83575695E+02</pdfrwt>
<pdfrwt beam="2">  1        4 0.25800788E-01 0.83575695E+02</pdfrwt>
<totfact> 0.34992966E+05</totfact>
</mgrwt>
</event>
<event>
 6    2  0.7993170E+000  0.1035256E+03  0.7546771E-02  0.1273052E+00
          2   -1    0    0  502    0 -0.00000000000E+00  0.00000000000E+00  0.11175397686E+04  0.11175397686E+04  0.00000000000E+00 0. -1.
         21   -1    0    0  501  502  0.00000000000E+00 -0.00000000000E+00 -0.68057709185E+01  0.68057709185E+01  0.00000000000E+00 0.  1.
         24    2    1    2    0    0  0.34898716842E+02 -0.56053693840E+02  0.54264317857E+03  0.55243023478E+03  0.79734609957E+02 0.  0.
        -11    1    3    3    0    0  0.27437319423E+02 -0.67908108819E+02  0.28022012813E+03  0.28963362711E+03  0.00000000000E+00 0.  1.
         12    1    3    3    0    0  0.74613974191E+01  0.11854414978E+02  0.26242305043E+03  0.26279660767E+03  0.00000000000E+00 0. -1.
          1    1    1    2  501    0 -0.34898716842E+02  0.56053693840E+02  0.56809081910E+03  0.57191530472E+03  0.00000000000E+00 0. -1.
<mgrwt>
<rscale>  1 0.10352558E+03</rscale>
<asrwt>0</asrwt>
<pdfrwt beam="1">  1       21 0.10470426E-02 0.10352558E+03</pdfrwt>
<pdfrwt beam="2">  1        2 0.17192905E+00 0.10352558E+03</pdfrwt>
<totfact> 0.95839049E+05</totfact>
</mgrwt>
</event>
<event>
 6    2  0.7993170E+000  0.8164897E+02  0.7546771E-02  0.1324436E+00
         -3   -1    0    0    0  501 -0.00000000000E+00  0.00000000000E+00  0.89086398099E+02  0.89086398099E+02  0.00000000000E+00 0.  1.
         21   -1    0    0  501  502  0.00000000000E+00 -0.00000000000E+00 -0.33124261820E+02  0.33124261820E+02  0.00000000000E+00 0.  1.
         24    2    1    2    0    0 -0.24238396273E+02  0.29933401192E+01  0.53608227949E+02  0.97674954847E+02  0.77910812867E+02 0.  0.
        -13    1    3    3    0    0 -0.41995278305E+02  0.27868686971E+02  0.27138244225E+02  0.57242915833E+02  0.00000000000E+00 0.  1.
         14    1    3    3    0    0  0.17756882032E+02 -0.24875346852E+02  0.26469983724E+02  0.40432039015E+02  0.00000000000E+00 0. -1.
         -4    1    1    2    0  502  0.24238396273E+02 -0.29933401192E+01  0.23539083295E+01  0.24535705072E+02  0.00000000000E+00 0.  1.
<mgrwt>
<rscale>  1 0.81648972E+02</rscale>
<asrwt>0</asrwt>
<pdfrwt beam="1">  1       21 0.50960403E-02 0.81648972E+02</pdfrwt>
<pdfrwt beam="2">  1       -3 0.13705600E-01 0.81648972E+02</pdfrwt>
<totfact> 0.48654556E+05</totfact>
</mgrwt>
</event>
<event>
 6    2  0.7993170E+000  0.9469616E+02  0.7546771E-02  0.1291862E+00
          2   -1    0    0  502    0 -0.00000000000E+00  0.00000000000E+00  0.15329407653E+04  0.15329407653E+04  0.00000000000E+00 0. -1.
         21   -1    0    0  501  502  0.00000000000E+00 -0.00000000000E+00 -0.34034763871E+01  0.34034763871E+01  0.00000000000E+00 0.  1.
         24    2    1    2    0    0 -0.18412487921E+02 -0.45573946402E+02  0.93775420413E+03  0.94252337330E+03  0.80940456774E+02 0.  0.
        -11    1    3    3    0    0  0.19690568431E+01 -0.28451580417E+02  0.91300079437E+02  0.95650792565E+02  0.00000000000E+00 0.  1.
         12    1    3    3    0    0 -0.20381544764E+02 -0.17122365986E+02  0.84645412469E+03  0.84687258073E+03  0.00000000000E+00 0. -1.
          1    1    1    2  501    0  0.18412487921E+02  0.45573946402E+02  0.59178308479E+03  0.59382086840E+03  0.00000000000E+00 0. -1.
<mgrwt>
<rscale>  1 0.94696155E+02</rscale>
<asrwt>0</asrwt>
<pdfrwt beam="1">  1       21 0.52361298E-03 0.94696155E+02</pdfrwt>
<pdfrwt beam="2">  1        2 0.23583649E+00 0.94696155E+02</pdfrwt>
<totfact> 0.16813146E+06</totfact>
</mgrwt>
</event>
<event>
 6    2  0.7993170E+000  0.8629078E+02  0.7546771E-02  0.1312091E+00
         -1   -1    0    0    0  501 -0.00000000000E+00  0.00000000000E+00  0.77404896907E+02  0.77404896907E+02  0.00000000000E+00 0.  1.
         21   -1    0    0  501  502  0.00000000000E+00 -0.00000000000E+00 -0.42785131639E+02  0.42785131639E+02  0.00000000000E+00 0.  1.
         24    2    1    2    0    0  0.26347928878E+02 -0.10401168172E+02  0.30721409833E+02  0.91596413339E+02  0.81508896809E+02 0.  0.
        -13    1    3    3    0    0  0.21465417918E+02 -0.28043393066E+02  0.52420834096E+02  0.63207119128E+02  0.00000000000E+00 0.  1.
         14    1    3    3    0    0  0.48825109595E+01  0.17642224894E+02 -0.21699424263E+02  0.28389294212E+02  0.00000000000E+00 0. -1.
         -2    1    1    2    0  502 -0.26347928878E+02  0.10401168172E+02  0.38983554356E+01  0.28593615207E+02  0.00000000000E+00 0.  1.
<mgrwt>
<rscale>  1 0.86290775E+02</rscale>
<asrwt>0</asrwt>
<pdfrwt beam="1">  1       21 0.65823279E-02 0.86290775E+02</pdfrwt>
<pdfrwt beam="2">  1       -1 0.11908446E-01 0.86290775E+02</pdfrwt>
<totfact> 0.64554553E+05</totfact>
</mgrwt>
</event>
<event>
 6    2  0.7993170E+000  0.8556335E+02  0.7546771E-02  0.1313966E+00
          2   -1    0    0  502    0 -0.00000000000E+00  0.00000000000E+00  0.37295550266E+03  0.37295550266E+03  0.00000000000E+00 0. -1.
         21   -1    0    0  501  502  0.00000000000E+00 -0.00000000000E+00 -0.90253799643E+01  0.90253799643E+01  0.00000000000E+00 0.  1.
         24    2    1    2    0    0 -0.56980019279E+00  0.26219749551E+02  0.22761690142E+03  0.24316771959E+03  0.81444988163E+02 0.  0.
        -13    1    3    3    0    0 -0.30231417209E+02  0.14310835232E+02  0.36949514078E+02  0.49839795165E+02  0.00000000000E+00 0.  1.
         14    1    3    3    0    0  0.29661617016E+02  0.11908914319E+02  0.19066738734E+03  0.19332792442E+03  0.00000000000E+00 0. -1.
          1    1    1    2  501    0  0.56980019279E+00 -0.26219749551E+02  0.13631322128E+03  0.13881316304E+03  0.00000000000E+00 0. -1.
<mgrwt>
<rscale>  1 0.85563345E+02</rscale>
<asrwt>0</asrwt>
<pdfrwt beam="1">  1       21 0.13885203E-02 0.85563345E+02</pdfrwt>
<pdfrwt beam="2">  1        2 0.57377758E-01 0.85563345E+02</pdfrwt>
<totfact> 0.21913169E+06</totfact>
</mgrwt>
</event>
<event>
 6    2  0.7993170E+000  0.9457201E+02  0.7546771E-02  0.1292143E+00
         21   -1    0    0  501  502  0.00000000000E+00  0.00000000000E+00  0.38469244870E+01  0.38469244870E+01  0.00000000000E+00 0. -1.
         -3   -1    0    0    0  501 -0.00000000000E+00 -0.00000000000E+00 -0.98240322358E+03  0.98240322358E+03  0.00000000000E+00 0.  1.
         24    2    1    2    0    0  0.84898261639E+01 -0.26854602322E+02 -0.77757276566E+03  0.78330279646E+03  0.90280774407E+02 0.  0.
        -11    1    3    3    0    0  0.64962448074E+01 -0.45503397131E+01 -0.73633108280E+03  0.73637379794E+03  0.00000000000E+00 0.  1.
         12    1    3    3    0    0  0.19935813565E+01 -0.22304262609E+02 -0.41241682860E+02  0.46928998522E+02  0.00000000000E+00 0. -1.
         -4    1    1    2    0  502 -0.84898261639E+01  0.26854602322E+02 -0.20098353343E+03  0.20294735161E+03  0.00000000000E+00 0.  1.
<mgrwt>
<rscale>  1 0.94572010E+02</rscale>
<asrwt>0</asrwt>
<pdfrwt beam="1">  1       21 0.59183453E-03 0.94572010E+02</pdfrwt>
<pdfrwt beam="2">  1       -3 0.15113896E+00 0.94572010E+02</pdfrwt>
<totfact> 0.13100164E+05</totfact>
</mgrwt>
</event>
<event>
 6    2  0.7993170E+000  0.8340373E+02  0.7546771E-02  0.1319661E+00
          2   -1    0    0  502    0 -0.00000000000E+00  0.00000000000E+00  0.17137081938E+04  0.17137081938E+04  0.00000000000E+00 0. -1.
         21   -1    0    0  501  502  0.00000000000E+00 -0.00000000000E+00 -0.57748096816E+01  0.57748096816E+01  0.00000000000E+00 0. -1.
         24    2    1    2    0    0  0.23151792279E+02 -0.27043915481E+01  0.16840368650E+04  0.16861009297E+04  0.80080356086E+02 0.  0.
        -13    1    3    3    0    0  0.22344720877E+02  0.28554263476E+02  0.38887229084E+03  0.39055894702E+03  0.00000000000E+00 0.  1.
         14    1    3    3    0    0  0.80707140242E+00 -0.31258655024E+02  0.12951645741E+04  0.12955419827E+04  0.00000000000E+00 0. -1.
          1    1    1    2  501    0 -0.23151792279E+02  0.27043915481E+01  0.23896519079E+02  0.33382073685E+02  0.00000000000E+00 0. -1.
<mgrwt>
<rscale>  1 0.83403733E+02</rscale>
<asrwt>0</asrwt>
<pdfrwt beam="1">  1       21 0.88843363E-03 0.83403733E+02</pdfrwt>
<pdfrwt beam="2">  1        2 0.26364701E+00 0.83403733E+02</pdfrwt>
<totfact> 0.59759103E+05</totfact>
</mgrwt>
</event>
<event>
 6    2  0.7993170E+000  0.8576409E+02  0.7546771E-02  0.1313446E+00
          2   -1    0    0  502    0 -0.00000000000E+00  0.00000000000E+00  0.14578651652E+04  0.14578651652E+04  0.00000000000E+00 0. -1.
         21   -1    0    0  501  502  0.00000000000E+00 -0.00000000000E+00 -0.24684427632E+02  0.24684427632E+02  0.00000000000E+00 0. -1.
         24    2    1    2    0    0  0.14806948948E+02 -0.22052173871E+02  0.14490647273E+04  0.14516005180E+04  0.81547138714E+02 0.  0.
        -11    1    3    3    0    0 -0.22619311678E+02  0.17815796671E+02  0.35287403918E+03  0.35404678137E+03  0.00000000000E+00 0.  1.
         12    1    3    3    0    0  0.37426260626E+02 -0.39867970542E+02  0.10961906881E+04  0.10975537366E+04  0.00000000000E+00 0. -1.
          1    1    1    2  501    0 -0.14806948948E+02  0.22052173871E+02 -0.15883989666E+02  0.30949074902E+02  0.00000000000E+00 0. -1.
<mgrwt>
<rscale>  1 0.85764095E+02</rscale>
<asrwt>0</asrwt>
<pdfrwt beam="1">  1       21 0.37976054E-02 0.85764095E+02</pdfrwt>
<pdfrwt beam="2">  1        2 0.22428688E+00 0.85764095E+02</pdfrwt>
<totfact> 0.79513695E+04</totfact>
</mgrwt>
</event>
<event>
 6    2  0.7993170E+000  0.8377670E+02  0.7546771E-02  0.1318663E+00
         21   -1    0    0  501  502  0.00000000000E+00  0.00000000000E+00  0.58636030629E+02  0.58636030629E+02  0.00000000000E+00 0.  1.
          2   -1    0    0  502    0 -0.00000000000E+00 -0.00000000000E+00 -0.57970617106E+02  0.57970617106E+02  0.00000000000E+00 0. -1.
         24    2    1    2    0    0 -0.15741180673E+02  0.27362770837E+02 -0.71648348714E+01  0.84082521508E+02  0.77601736885E+02 0.  0.
        -11    1    3    3    0    0  0.40731377367E+01  0.18161645114E+02  0.33270467560E+02  0.38122956548E+02  0.00000000000E+00 0.  1.
         12    1    3    3    0    0 -0.19814318410E+02  0.92011257235E+01 -0.40435302432E+02  0.45959564961E+02  0.00000000000E+00 0. -1.
          1    1    1    2  501    0  0.15741180673E+02 -0.27362770837E+02  0.78302483942E+01  0.32524126226E+02  0.00000000000E+00 0. -1.
<mgrwt>
<rscale>  1 0.83776701E+02</rscale>
<asrwt>0</asrwt>
<pdfrwt beam="1">  1       21 0.90209278E-02 0.83776701E+02</pdfrwt>
<pdfrwt beam="2">  1        2 0.89185565E-02 0.83776701E+02</pdfrwt>
<totfact> 0.80410332E+05</totfact>
</mgrwt>
</event>
<event>
 6    2  0.7993170E+000  0.1004688E+03  0.7546771E-02  0.1279313E+00
          2   -1    0    0  502    0 -0.00000000000E+00  0.00000000000E+00  0.52833117094E+03  0.52833117094E+03  0.00000000000E+00 0. -1.
         21   -1    0    0  501  502  0.00000000000E+00 -0.00000000000E+00 -0.12086737747E+02  0.12086737747E+02  0.00000000000E+00 0. -1.
         24    2    1    2    0    0 -0.53677962925E+02 -0.21014176245E+02  0.28857884084E+03  0.30556786877E+03  0.82286424993E+02 0.  0.
        -11    1    3    3    0    0  0.13546494499E+02 -0.19293645373E+02  0.28757600285E+02  0.37185371306E+02  0.00000000000E+00 0.  1.
         12    1    3    3    0    0 -0.67224457424E+02 -0.17205308715E+01  0.25982124055E+03  0.26838249746E+03  0.00000000000E+00 0. -1.
          1    1    1    2  501    0  0.53677962925E+02  0.21014176245E+02  0.22766559235E+03  0.23485003991E+03  0.00000000000E+00 0. -1.
<mgrwt>
<rscale>  1 0.10046878E+03</rscale>
<asrwt>0</asrwt>
<pdfrwt beam="1">  1       21 0.18594985E-02 0.10046878E+03</pdfrwt>
<pdfrwt beam="2">  1        2 0.81281701E-01 0.10046878E+03</pdfrwt>
<totfact> 0.96672926E+05</totfact>
</mgrwt>
</event>
<event>
 6    2  0.7993170E+000  0.9148218E+02  0.7546771E-02  0.1299302E+00
          2   -1    0    0  502    0 -0.00000000000E+00  0.00000000000E+00  0.75284632314E+03  0.75284632314E+03  0.00000000000E+00 0. -1.
         21   -1    0    0  501  502  0.00000000000E+00 -0.00000000000E+00 -0.11284793200E+02  0.11284793200E+02  0.00000000000E+00 0. -1.
         24    2    1    2    0    0 -0.14648164508E+02 -0.34521227322E+02  0.70775189136E+03  0.71363977530E+03  0.83442826566E+02 0.  0.
        -13    1    3    3    0    0  0.33020671739E+02 -0.21787263717E+02  0.23343391537E+03  0.23676241777E+03  0.00000000000E+00 0.  1.
         14    1    3    3    0    0 -0.47668836247E+02 -0.12733963605E+02  0.47431797599E+03  0.47687735753E+03  0.00000000000E+00 0. -1.
          1    1    1    2  501    0  0.14648164508E+02  0.34521227322E+02  0.33809638580E+02  0.50491341042E+02  0.00000000000E+00 0. -1.
<mgrwt>
<rscale>  1 0.91482179E+02</rscale>
<asrwt>0</asrwt>
<pdfrwt beam="1">  1       21 0.17361226E-02 0.91482179E+02</pdfrwt>
<pdfrwt beam="2">  1        2 0.11582247E+00 0.91482179E+02</pdfrwt>
<totfact> 0.71518018E+05</totfact>
</mgrwt>
</event>
<event>
 6    2  0.7993170E+000  0.8804648E+02  0.7546771E-02  0.1307653E+00
         21   -1    0    0  501  502  0.00000000000E+00  0.00000000000E+00  0.14559781690E+03  0.14559781690E+03  0.00000000000E+00 0. -1.
         -1   -1    0    0    0  501 -0.00000000000E+00 -0.00000000000E+00 -0.33314248772E+02  0.33314248772E+02  0.00000000000E+00 0.  1.
         24    2    1    2    0    0  0.60755115542E+01 -0.25131386208E+02  0.30565130818E+02  0.93200914648E+02  0.84164629483E+02 0.  0.
        -13    1    3    3    0    0  0.17529261310E+02  0.27602274503E+02  0.36595293662E+01  0.32902168849E+02  0.00000000000E+00 0.  1.
         14    1    3    3    0    0 -0.11453749755E+02 -0.52733660711E+02  0.26905601451E+02  0.60298745799E+02  0.00000000000E+00 0. -1.
         -2    1    1    2    0  502 -0.60755115542E+01  0.25131386208E+02  0.81718437314E+02  0.85711151027E+02  0.00000000000E+00 0.  1.
<mgrwt>
<rscale>  1 0.88046484E+02</rscale>
<asrwt>0</asrwt>
<pdfrwt beam="1">  1       21 0.22399664E-01 0.88046484E+02</pdfrwt>
<pdfrwt beam="2">  1       -1 0.51252691E-02 0.88046484E+02</pdfrwt>
<totfact> 0.26361093E+05</totfact>
</mgrwt>
</event>
<event>
 6    2  0.7993170E+000  0.8774608E+02  0.7546771E-02  0.1308404E+00
         21   -1    0    0  501  502  0.00000000000E+00  0.00000000000E+00  0.72817574023E+01  0.72817574023E+01  0.00000000000E+00 0. -1.
          2   -1    0    0  502    0 -0.00000000000E+00 -0.00000000000E+00 -0.21427793515E+04  0.21427793515E+04  0.00000000000E+00 0. -1.
         24    2    1    2    0    0 -0.20633806717E+02  0.20923762639E+02 -0.21079698426E+04  0.21097953055E+04  0.82678993745E+02 0.  0.
        -13    1    3    3    0    0  0.29224887008E+02 -0.11743167211E+01 -0.46386269439E+03  0.46478389848E+03  0.00000000000E+00 0.  1.
         14    1    3    3    0    0 -0.49858693725E+02  0.22098079360E+02 -0.16441071482E+04  0.16450114070E+04  0.00000000000E+00 0. -1.
          1    1    1    2  501    0  0.20633806717E+02 -0.20923762639E+02 -0.27527751579E+02  0.40265803477E+02  0.00000000000E+00 0. -1.
<mgrwt>
<rscale>  1 0.87746076E+02</rscale>
<asrwt>0</asrwt>
<pdfrwt beam="1">  1       21 0.11202705E-02 0.87746076E+02</pdfrwt>
<pdfrwt beam="2">  1        2 0.32965833E+00 0.87746076E+02</pdfrwt>
<totfact> 0.25402580E+05</totfact>
</mgrwt>
</event>
<event>
 6    2  0.7993170E+000  0.1026591E+03  0.7546771E-02  0.1274802E+00
         21   -1    0    0  501  502  0.00000000000E+00  0.00000000000E+00  0.58973458202E+01  0.58973458202E+01  0.00000000000E+00 0. -1.
          2   -1    0    0  502    0 -0.00000000000E+00 -0.00000000000E+00 -0.12174426671E+04  0.12174426671E+04  0.00000000000E+00 0. -1.
         24    2    1    2    0    0 -0.18214847802E+02 -0.60767603486E+02 -0.86123110417E+03  0.86732802854E+03  0.80711907328E+02 0.  0.
        -13    1    3    3    0    0 -0.14960911562E+02  0.10422413117E+02 -0.54789794642E+02  0.57744066075E+02  0.00000000000E+00 0.  1.
         14    1    3    3    0    0 -0.32539362403E+01 -0.71190016603E+02 -0.80644130953E+03  0.80958396246E+03  0.00000000000E+00 0. -1.
          1    1    1    2  501    0  0.18214847802E+02  0.60767603486E+02 -0.35031421708E+03  0.35601198435E+03  0.00000000000E+00 0. -1.
<mgrwt>
<rscale>  1 0.10265912E+03</rscale>
<asrwt>0</asrwt>
<pdfrwt beam="1">  1       21 0.90728439E-03 0.10265912E+03</pdfrwt>
<pdfrwt beam="2">  1        2 0.18729879E+00 0.10265912E+03</pdfrwt>
<totfact> 0.10558827E+06</totfact>
</mgrwt>
</event>
<event>
 6    2  0.7993170E+000  0.8262345E+02  0.7546771E-02  0.1321767E+00
          4   -1    0    0  502    0 -0.00000000000E+00  0.00000000000E+00  0.28777648131E+03  0.28777648131E+03  0.00000000000E+00 0. -1.
         21   -1    0    0  501  502  0.00000000000E+00 -0.00000000000E+00 -0.10082342379E+02  0.10082342379E+02  0.00000000000E+00 0. -1.
         24    2    1    2    0    0 -0.19930663549E+02 -0.99971121996E+01  0.24256584994E+03  0.25625148913E+03  0.79557906714E+02 0.  0.
        -13    1    3    3    0    0  0.17266079962E+02 -0.89629273897E+01  0.12339299210E+02  0.23037141525E+02  0.00000000000E+00 0.  1.
         14    1    3    3    0    0 -0.37196743512E+02 -0.10341848100E+01  0.23022655073E+03  0.23321434761E+03  0.00000000000E+00 0. -1.
          3    1    1    2  501    0  0.19930663549E+02  0.99971121996E+01  0.35128288986E+02  0.41607334557E+02  0.00000000000E+00 0. -1.
<mgrwt>
<rscale>  1 0.82623448E+02</rscale>
<asrwt>0</asrwt>
<pdfrwt beam="1">  1       21 0.15511298E-02 0.82623448E+02</pdfrwt>
<pdfrwt beam="2">  1        4 0.44273299E-01 0.82623448E+02</pdfrwt>
<totfact> 0.33379887E+05</totfact>
</mgrwt>
</event>
<event>
 6    2  0.7993170E+000  0.7797319E+02  0.7546771E-02  0.1334904E+00
         21   -1    0    0  501  502  0.00000000000E+00  0.00000000000E+00  0.38096766458E+02  0.38096766458E+02  0.00000000000E+00 0. -1.
          2   -1    0    0  502    0 -0.00000000000E+00 -0.00000000000E+00 -0.15354418958E+03  0.15354418958E+03  0.00000000000E+00 0. -1.
         24    2    1    2    0    0  0.30138109059E+02  0.56323460367E+01 -0.13455467713E+03  0.15551456547E+03  0.71692328718E+02 0.  0.
        -13    1    3    3    0    0  0.25988421001E+02  0.21752999275E+02 -0.19173105827E+02  0.38938399949E+02  0.00000000000E+00 0.  1.
         14    1    3    3    0    0  0.41496880578E+01 -0.16120653238E+02 -0.11538157130E+03  0.11657616552E+03  0.00000000000E+00 0. -1.
          1    1    1    2  501    0 -0.30138109059E+02 -0.56323460367E+01  0.19107254008E+02  0.36126390565E+02  0.00000000000E+00 0. -1.
<mgrwt>
<rscale>  1 0.77973194E+02</rscale>
<asrwt>0</asrwt>
<pdfrwt beam="1">  1       21 0.58610410E-02 0.77973194E+02</pdfrwt>
<pdfrwt beam="2">  1        2 0.23622183E-01 0.77973194E+02</pdfrwt>
<totfact> 0.53700093E+05</totfact>
</mgrwt>
</event>
<event>
 6    2  0.7993170E+000  0.8456593E+02  0.7546771E-02  0.1316572E+00
          2   -1    0    0  502    0 -0.00000000000E+00  0.00000000000E+00  0.11513602934E+02  0.11513602934E+02  0.00000000000E+00 0. -1.
         21   -1    0    0  501  502  0.00000000000E+00 -0.00000000000E+00 -0.52600823386E+03  0.52600823386E+03  0.00000000000E+00 0. -1.
         24    2    1    2    0    0  0.10265048459E+02  0.17517620501E+02 -0.14793247207E+03  0.17039780522E+03  0.82092371666E+02 0.  0.
        -11    1    3    3    0    0  0.14973360155E+02  0.47698224496E+02 -0.64884084437E+02  0.81910112609E+02  0.00000000000E+00 0.  1.
         12    1    3    3    0    0 -0.47083116956E+01 -0.30180603995E+02 -0.83048387630E+02  0.88487692615E+02  0.00000000000E+00 0. -1.
          1    1    1    2  501    0 -0.10265048459E+02 -0.17517620501E+02 -0.36656215886E+03  0.36712403157E+03  0.00000000000E+00 0. -1.
<mgrwt>
<rscale>  1 0.84565925E+02</rscale>
<asrwt>0</asrwt>
<pdfrwt beam="1">  1       21 0.80924345E-01 0.84565925E+02</pdfrwt>
<pdfrwt beam="2">  1        2 0.17713235E-02 0.84565925E+02</pdfrwt>
<totfact> 0.99583566E+04</totfact>
</mgrwt>
</event>
<event>
 6    2  0.7993170E+000  0.9768008E+02  0.7546771E-02  0.1285251E+00
          2   -1    0    0  502    0 -0.00000000000E+00  0.00000000000E+00  0.88014420015E+02  0.88014420015E+02  0.00000000000E+00 0. -1.
         21   -1    0    0  501  502  0.00000000000E+00 -0.00000000000E+00 -0.18606149080E+03  0.18606149080E+03  0.00000000000E+00 0.  1.
         24    2    1    2    0    0 -0.57154314414E+02  0.18074873009E+02  0.53310131467E+02  0.11128058114E+03  0.77123802626E+02 0.  0.
        -11    1    3    3    0    0 -0.64446158770E+02 -0.42576170465E+01  0.14943751255E+02  0.66292913533E+02  0.00000000000E+00 0.  1.
         12    1    3    3    0    0  0.72918443556E+01  0.22332490056E+02  0.38366380212E+02  0.44987667608E+02  0.00000000000E+00 0. -1.
          1    1    1    2  501    0  0.57154314414E+02 -0.18074873009E+02 -0.15135720225E+03  0.16279532968E+03  0.00000000000E+00 0. -1.
<mgrwt>
<rscale>  1 0.97680078E+02</rscale>
<asrwt>0</asrwt>
<pdfrwt beam="1">  1       21 0.28624844E-01 0.97680078E+02</pdfrwt>
<pdfrwt beam="2">  1        2 0.13540680E-01 0.97680078E+02</pdfrwt>
<totfact> 0.61630077E+04</totfact>
</mgrwt>
</event>
<event>
 6    2  0.7993170E+000  0.8330895E+02  0.7546771E-02  0.1319915E+00
         21   -1    0    0  501  502  0.00000000000E+00  0.00000000000E+00  0.95291896954E+02  0.95291896954E+02  0.00000000000E+00 0. -1.
          4   -1    0    0  502    0 -0.00000000000E+00 -0.00000000000E+00 -0.36170826749E+02  0.36170826749E+02  0.00000000000E+00 0. -1.
         24    2    1    2    0    0 -0.19881845609E+02  0.73202536893E+01  0.18039508589E+02  0.85239692607E+02  0.80569891565E+02 0.  0.
        -13    1    3    3    0    0 -0.81891289286E+01 -0.36753203102E+02  0.97203848977E+01  0.38888888560E+02  0.00000000000E+00 0.  1.
         14    1    3    3    0    0 -0.11692716681E+02  0.44073456791E+02  0.83191236917E+01  0.46350804048E+02  0.00000000000E+00 0. -1.
          3    1    1    2  501    0  0.19881845609E+02 -0.73202536893E+01  0.41081561616E+02  0.46223031096E+02  0.00000000000E+00 0. -1.
<mgrwt>
<rscale>  1 0.83308951E+02</rscale>
<asrwt>0</asrwt>
<pdfrwt beam="1">  1       21 0.14660292E-01 0.83308951E+02</pdfrwt>
<pdfrwt beam="2">  1        4 0.55647426E-02 0.83308951E+02</pdfrwt>
<totfact> 0.30152274E+05</totfact>
</mgrwt>
</event>
<event>
 6    2  0.7993170E+000  0.8905888E+02  0.7546771E-02  0.1305147E+00
         21   -1    0    0  501  502  0.00000000000E+00  0.00000000000E+00  0.92399677473E+01  0.92399677473E+01  0.00000000000E+00 0.  1.
          2   -1    0    0  502    0 -0.00000000000E+00 -0.00000000000E+00 -0.65300191971E+03  0.65300191971E+03  0.00000000000E+00 0. -1.
         24    2    1    2    0    0  0.11245943659E+02  0.35231599193E+02 -0.59179477601E+03  0.59845847106E+03  0.81016960228E+02 0.  0.
        -13    1    3    3    0    0  0.23542411842E+02  0.84215699685E+01 -0.50404088590E+02  0.56264910403E+02  0.00000000000E+00 0.  1.
         14    1    3    3    0    0 -0.12296468182E+02  0.26810029224E+02 -0.54139068742E+03  0.54219356066E+03  0.00000000000E+00 0. -1.
          1    1    1    2  501    0 -0.11245943659E+02 -0.35231599193E+02 -0.51967175957E+02  0.63783416398E+02  0.00000000000E+00 0. -1.
<mgrwt>
<rscale>  1 0.89058883E+02</rscale>
<asrwt>0</asrwt>
<pdfrwt beam="1">  1       21 0.14215330E-02 0.89058883E+02</pdfrwt>
<pdfrwt beam="2">  1        2 0.10046187E+00 0.89058883E+02</pdfrwt>
<totfact> 0.11567737E+06</totfact>
</mgrwt>
</event>
<event>
 6    2  0.7993170E+000  0.7618825E+02  0.7546771E-02  0.1340230E+00
          2   -1    0    0  502    0 -0.00000000000E+00  0.00000000000E+00  0.13204976517E+03  0.13204976517E+03  0.00000000000E+00 0. -1.
         21   -1    0    0  501  502  0.00000000000E+00 -0.00000000000E+00 -0.30732970968E+02  0.30732970968E+02  0.00000000000E+00 0. -1.
         24    2    1    2    0    0 -0.30819311728E+02 -0.16619264718E+02  0.10254051259E+03  0.12774664872E+03  0.67665497869E+02 0.  0.
        -13    1    3    3    0    0  0.13344917118E+02 -0.14610272352E+02  0.46363264949E+01  0.20323444454E+02  0.00000000000E+00 0.  1.
         14    1    3    3    0    0 -0.44164228847E+02 -0.20089923658E+01  0.97904186094E+02  0.10742320427E+03  0.00000000000E+00 0. -1.
          1    1    1    2  501    0  0.30819311728E+02  0.16619264718E+02 -0.12237183829E+01  0.35036087422E+02  0.00000000000E+00 0. -1.
<mgrwt>
<rscale>  1 0.76188251E+02</rscale>
<asrwt>0</asrwt>
<pdfrwt beam="1">  1       21 0.47281494E-02 0.76188251E+02</pdfrwt>
<pdfrwt beam="2">  1        2 0.20315348E-01 0.76188251E+02</pdfrwt>
<totfact> 0.90344758E+05</totfact>
</mgrwt>
</event>
<event>
 6    2  0.7993170E+000  0.8382784E+02  0.7546771E-02  0.1318527E+00
          2   -1    0    0  502    0 -0.00000000000E+00  0.00000000000E+00  0.24329435659E+04  0.24329435659E+04  0.00000000000E+00 0. -1.
         21   -1    0    0  501  502  0.00000000000E+00 -0.00000000000E+00 -0.12678474820E+01  0.12678474820E+01  0.00000000000E+00 0. -1.
         24    2    1    2    0    0 -0.24317216740E+02  0.41426714052E+01  0.20691895144E+04  0.20708868521E+04  0.80116282845E+02 0.  0.
        -13    1    3    3    0    0 -0.65579734210E+01 -0.33340603322E+02  0.50206790734E+03  0.50321644094E+03  0.00000000000E+00 0.  1.
         14    1    3    3    0    0 -0.17759243319E+02  0.37483274727E+02  0.15671216071E+04  0.15676704111E+04  0.00000000000E+00 0. -1.
          1    1    1    2  501    0  0.24317216740E+02 -0.41426714052E+01  0.36248620407E+03  0.36332456138E+03  0.00000000000E+00 0. -1.
<mgrwt>
<rscale>  1 0.83827845E+02</rscale>
<asrwt>0</asrwt>
<pdfrwt beam="1">  1       21 0.19505541E-03 0.83827845E+02</pdfrwt>
<pdfrwt beam="2">  1        2 0.37429527E+00 0.83827845E+02</pdfrwt>
<totfact> 0.26086887E+06</totfact>
</mgrwt>
</event>
<event>
 6    2  0.7993170E+000  0.9891268E+02  0.7546771E-02  0.1282599E+00
          4   -1    0    0  502    0 -0.00000000000E+00  0.00000000000E+00  0.96541577316E+02  0.96541577316E+02  0.00000000000E+00 0. -1.
         21   -1    0    0  501  502  0.00000000000E+00 -0.00000000000E+00 -0.14036394693E+03  0.14036394693E+03  0.00000000000E+00 0. -1.
         24    2    1    2    0    0  0.17780385880E+02  0.61391324635E+02  0.59487574296E+02  0.11542309188E+03  0.75489613733E+02 0.  0.
        -13    1    3    3    0    0  0.38376174496E+02  0.26905270213E+02  0.41606669323E+01  0.47052475849E+02  0.00000000000E+00 0.  1.
         14    1    3    3    0    0 -0.20595788616E+02  0.34486054422E+02  0.55326907364E+02  0.68370616033E+02  0.00000000000E+00 0. -1.
          3    1    1    2  501    0 -0.17780385880E+02 -0.61391324635E+02 -0.10330994391E+03  0.12148243237E+03  0.00000000000E+00 0. -1.
<mgrwt>
<rscale>  1 0.98912682E+02</rscale>
<asrwt>0</asrwt>
<pdfrwt beam="1">  1       21 0.21594453E-01 0.98912682E+02</pdfrwt>
<pdfrwt beam="2">  1        4 0.14852550E-01 0.98912682E+02</pdfrwt>
<totfact> 0.30088900E+04</totfact>
</mgrwt>
</event>
<event>
 6    2  0.7993170E+000  0.8703712E+02  0.7546771E-02  0.1310190E+00
         21   -1    0    0  501  502  0.00000000000E+00  0.00000000000E+00  0.18467848274E+01  0.18467848274E+01  0.00000000000E+00 0. -1.
          2   -1    0    0  502    0 -0.00000000000E+00 -0.00000000000E+00 -0.27094795415E+04  0.27094795415E+04  0.00000000000E+00 0. -1.
         24    2    1    2    0    0  0.99916997696E+01 -0.31133787693E+02 -0.24606145436E+04  0.24621534056E+04  0.80661726152E+02 0.  0.
        -13    1    3    3    0    0 -0.92177397909E+01  0.24961820896E+02 -0.59072374622E+03  0.59132275754E+03  0.00000000000E+00 0.  1.
         14    1    3    3    0    0  0.19209439560E+02 -0.56095608589E+02 -0.18698907973E+04  0.18708306481E+04  0.00000000000E+00 0. -1.
          1    1    1    2  501    0 -0.99916997696E+01  0.31133787693E+02 -0.24701821308E+03  0.24917292066E+03  0.00000000000E+00 0. -1.
<mgrwt>
<rscale>  1 0.87037123E+02</rscale>
<asrwt>0</asrwt>
<pdfrwt beam="1">  1       21 0.28412180E-03 0.87037123E+02</pdfrwt>
<pdfrwt beam="2">  1        2 0.41684145E+00 0.87037123E+02</pdfrwt>
<totfact> 0.10606405E+06</totfact>
</mgrwt>
</event>
<event>
 6    2  0.7993170E+000  0.8954418E+02  0.7546771E-02  0.1303959E+00
         21   -1    0    0  501  502  0.00000000000E+00  0.00000000000E+00  0.31786537534E+02  0.31786537534E+02  0.00000000000E+00 0. -1.
          2   -1    0    0  502    0 -0.00000000000E+00 -0.00000000000E+00 -0.36816053375E+03  0.36816053375E+03  0.00000000000E+00 0. -1.
         24    2    1    2    0    0  0.12277891884E+02 -0.33154889134E+02 -0.35058717239E+03  0.36184185275E+03  0.82268874131E+02 0.  0.
        -11    1    3    3    0    0 -0.17516102470E+02  0.62986696086E+01 -0.19034235737E+02  0.26623095513E+02  0.00000000000E+00 0.  1.
         12    1    3    3    0    0  0.29793994354E+02 -0.39453558743E+02 -0.33155293666E+03  0.33521875724E+03  0.00000000000E+00 0. -1.
          1    1    1    2  501    0 -0.12277891884E+02  0.33154889134E+02  0.14213176178E+02  0.38105218536E+02  0.00000000000E+00 0. -1.
<mgrwt>
<rscale>  1 0.89544184E+02</rscale>
<asrwt>0</asrwt>
<pdfrwt beam="1">  1       21 0.48902365E-02 0.89544184E+02</pdfrwt>
<pdfrwt beam="2">  1        2 0.56640082E-01 0.89544184E+02</pdfrwt>
<totfact> 0.29152339E+05</totfact>
</mgrwt>
</event>
<event>
 6    2  0.7993170E+000  0.8706723E+02  0.7546771E-02  0.1310113E+00
         21   -1    0    0  501  502  0.00000000000E+00  0.00000000000E+00  0.72965400015E+02  0.72965400015E+02  0.00000000000E+00 0.  1.
         -3   -1    0    0    0  501 -0.00000000000E+00 -0.00000000000E+00 -0.49267992074E+02  0.49267992074E+02  0.00000000000E+00 0.  1.
         24    2    1    2    0    0  0.45948510099E+01  0.31543508532E+02  0.10368290385E+02  0.87682401347E+02  0.81022197416E+02 0.  0.
        -11    1    3    3    0    0  0.36724911357E+02  0.14550038141E+02  0.26859745217E+02  0.47768908687E+02  0.00000000000E+00 0.  1.
         12    1    3    3    0    0 -0.32130060347E+02  0.16993470392E+02 -0.16491454832E+02  0.39913492660E+02  0.00000000000E+00 0. -1.
         -4    1    1    2    0  502 -0.45948510099E+01 -0.31543508532E+02  0.13329117557E+02  0.34550990741E+02  0.00000000000E+00 0.  1.
<mgrwt>
<rscale>  1 0.87067227E+02</rscale>
<asrwt>0</asrwt>
<pdfrwt beam="1">  1       21 0.11225446E-01 0.87067227E+02</pdfrwt>
<pdfrwt beam="2">  1       -3 0.75796911E-02 0.87067227E+02</pdfrwt>
<totfact> 0.33889727E+05</totfact>
</mgrwt>
</event>
<event>
 6    2  0.7993170E+000  0.8344165E+02  0.7546771E-02  0.1319559E+00
          2   -1    0    0  502    0 -0.00000000000E+00  0.00000000000E+00  0.19541616212E+04  0.19541616212E+04  0.00000000000E+00 0. -1.
         21   -1    0    0  501  502  0.00000000000E+00 -0.00000000000E+00 -0.24587876172E+01  0.24587876172E+01  0.00000000000E+00 0.  1.
         24    2    1    2    0    0  0.19027207967E+02  0.64059654816E+01  0.18876846723E+04  0.18895279651E+04  0.80990355101E+02 0.  0.
        -13    1    3    3    0    0 -0.43603846589E+01  0.24178376939E+02  0.18909949987E+03  0.19068882431E+03  0.00000000000E+00 0.  1.
         14    1    3    3    0    0  0.23387592626E+02 -0.17772411457E+02  0.16985851725E+04  0.16988391408E+04  0.00000000000E+00 0. -1.
          1    1    1    2  501    0 -0.19027207967E+02 -0.64059654816E+01  0.64018161231E+02  0.67092443719E+02  0.00000000000E+00 0. -1.
<mgrwt>
<rscale>  1 0.83441648E+02</rscale>
<asrwt>0</asrwt>
<pdfrwt beam="1">  1       21 0.37827658E-03 0.83441648E+02</pdfrwt>
<pdfrwt beam="2">  1        2 0.30063901E+00 0.83441648E+02</pdfrwt>
<totfact> 0.16821181E+06</totfact>
</mgrwt>
</event>
<event>
 6    2  0.7993170E+000  0.8335244E+02  0.7546771E-02  0.1319798E+00
         21   -1    0    0  501  502  0.00000000000E+00  0.00000000000E+00  0.83889179479E+02  0.83889179479E+02  0.00000000000E+00 0.  1.
         -3   -1    0    0    0  501 -0.00000000000E+00 -0.00000000000E+00 -0.59823320018E+02  0.59823320018E+02  0.00000000000E+00 0.  1.
         24    2    1    2    0    0  0.16411014691E+02  0.12043553500E+02 -0.27903237264E+02  0.87898920518E+02  0.80828590203E+02 0.  0.
        -13    1    3    3    0    0  0.30791014251E+02 -0.25753727309E+02 -0.26661329876E+01  0.40229955183E+02  0.00000000000E+00 0.  1.
         14    1    3    3    0    0 -0.14379999560E+02  0.37797280808E+02 -0.25237104277E+02  0.47668965335E+02  0.00000000000E+00 0. -1.
         -4    1    1    2    0  502 -0.16411014691E+02 -0.12043553500E+02  0.51969096725E+02  0.55813578979E+02  0.00000000000E+00 0.  1.
<mgrwt>
<rscale>  1 0.83352442E+02</rscale>
<asrwt>0</asrwt>
<pdfrwt beam="1">  1       21 0.12906028E-01 0.83352442E+02</pdfrwt>
<pdfrwt beam="2">  1       -3 0.92035877E-02 0.83352442E+02</pdfrwt>
<totfact> 0.19267876E+05</totfact>
</mgrwt>
</event>
<event>
 6    2  0.7993170E+000  0.8713469E+02  0.7546771E-02  0.1309943E+00
          2   -1    0    0  502    0 -0.00000000000E+00  0.00000000000E+00  0.29173099981E+04  0.29173099981E+04  0.00000000000E+00 0. -1.
         21   -1    0    0  501  502  0.00000000000E+00 -0.00000000000E+00 -0.13331439940E+01  0.13331439940E+01  0.00000000000E+00 0.  1.
         24    2    1    2    0    0  0.17492564829E+02 -0.18879225709E+02  0.15669655060E+04  0.15693862977E+04  0.83246857228E+02 0.  0.
        -13    1    3    3    0    0 -0.31516058864E+02 -0.10372005768E+02  0.40507426394E+03  0.40643080564E+03  0.00000000000E+00 0.  1.
         14    1    3    3    0    0  0.49008623693E+02 -0.85072199409E+01  0.11618912421E+04  0.11629554920E+04  0.00000000000E+00 0. -1.
          1    1    1    2  501    0 -0.17492564829E+02  0.18879225709E+02  0.13490113481E+04  0.13492568444E+04  0.00000000000E+00 0. -1.
<mgrwt>
<rscale>  1 0.87134690E+02</rscale>
<asrwt>0</asrwt>
<pdfrwt beam="1">  1       21 0.20510141E-03 0.87134690E+02</pdfrwt>
<pdfrwt beam="2">  1        2 0.44881181E+00 0.87134690E+02</pdfrwt>
<totfact> 0.13311806E+06</totfact>
</mgrwt>
</event>
<event>
 6    2  0.7993170E+000  0.8882170E+02  0.7546771E-02  0.1305730E+00
          2   -1    0    0  502    0 -0.00000000000E+00  0.00000000000E+00  0.73039377524E+03  0.73039377524E+03  0.00000000000E+00 0. -1.
         21   -1    0    0  501  502  0.00000000000E+00 -0.00000000000E+00 -0.41718158639E+01  0.41718158639E+01  0.00000000000E+00 0.  1.
         24    2    1    2    0    0  0.20090992129E+02 -0.50564717616E+01  0.54932251402E+03  0.55645711393E+03  0.86371750998E+02 0.  0.
        -13    1    3    3    0    0 -0.42741666379E+01 -0.41903604862E+02  0.20262406387E+03  0.20695577271E+03  0.00000000000E+00 0.  1.
         14    1    3    3    0    0  0.24365158767E+02  0.36847133101E+02  0.34669845015E+03  0.34950134122E+03  0.00000000000E+00 0. -1.
          1    1    1    2  501    0 -0.20090992129E+02  0.50564717616E+01  0.17689944536E+03  0.17810847718E+03  0.00000000000E+00 0. -1.
<mgrwt>
<rscale>  1 0.88821705E+02</rscale>
<asrwt>0</asrwt>
<pdfrwt beam="1">  1       21 0.64181841E-03 0.88821705E+02</pdfrwt>
<pdfrwt beam="2">  1        2 0.11236817E+00 0.88821705E+02</pdfrwt>
<totfact> 0.35118440E+06</totfact>
</mgrwt>
</event>
<event>
 6    2  0.7993170E+000  0.8534715E+02  0.7546771E-02  0.1314527E+00
         21   -1    0    0  501  502  0.00000000000E+00  0.00000000000E+00  0.23318199097E+01  0.23318199097E+01  0.00000000000E+00 0. -1.
          2   -1    0    0  502    0 -0.00000000000E+00 -0.00000000000E+00 -0.16645782914E+04  0.16645782914E+04  0.00000000000E+00 0. -1.
         24    2    1    2    0    0  0.12520570951E+02  0.33433450104E+02 -0.13341258854E+04  0.13368530264E+04  0.77521453914E+02 0.  0.
        -11    1    3    3    0    0 -0.31131757462E+02  0.10971998202E+02 -0.72546547808E+03  0.72621603601E+03  0.00000000000E+00 0.  1.
         12    1    3    3    0    0  0.43652328413E+02  0.22461451903E+02 -0.60866040733E+03  0.61063699040E+03  0.00000000000E+00 0. -1.
          1    1    1    2  501    0 -0.12520570951E+02 -0.33433450104E+02 -0.32812058603E+03  0.33005708485E+03  0.00000000000E+00 0. -1.
<mgrwt>
<rscale>  1 0.85347151E+02</rscale>
<asrwt>0</asrwt>
<pdfrwt beam="1">  1       21 0.35873997E-03 0.85347151E+02</pdfrwt>
<pdfrwt beam="2">  1        2 0.25609008E+00 0.85347151E+02</pdfrwt>
<totfact> 0.25486325E+06</totfact>
</mgrwt>
</event>
<event>
 6    2  0.7993170E+000  0.8500305E+02  0.7546771E-02  0.1315425E+00
          2   -1    0    0  502    0 -0.00000000000E+00  0.00000000000E+00  0.15607976690E+03  0.15607976690E+03  0.00000000000E+00 0. -1.
         21   -1    0    0  501  502  0.00000000000E+00 -0.00000000000E+00 -0.25882746320E+02  0.25882746320E+02  0.00000000000E+00 0. -1.
         24    2    1    2    0    0  0.86103540148E+00  0.23675287684E+02  0.13327226361E+03  0.15807281359E+03  0.81634903796E+02 0.  0.
        -11    1    3    3    0    0  0.34707926599E+02  0.31520783989E+02  0.97595941780E+02  0.10827357870E+03  0.00000000000E+00 0.  1.
         12    1    3    3    0    0 -0.33846891197E+02 -0.78454963056E+01  0.35676321833E+02  0.49799234889E+02  0.00000000000E+00 0. -1.
          1    1    1    2  501    0 -0.86103540148E+00 -0.23675287684E+02 -0.30752430334E+01  0.23889699634E+02  0.00000000000E+00 0. -1.
<mgrwt>
<rscale>  1 0.85003048E+02</rscale>
<asrwt>0</asrwt>
<pdfrwt beam="1">  1       21 0.39819611E-02 0.85003048E+02</pdfrwt>
<pdfrwt beam="2">  1        2 0.24012271E-01 0.85003048E+02</pdfrwt>
<totfact> 0.10099164E+06</totfact>
</mgrwt>
</event>
<event>
 6    2  0.7993170E+000  0.9552686E+02  0.7546771E-02  0.1289994E+00
          2   -1    0    0  502    0 -0.00000000000E+00  0.00000000000E+00  0.97490660478E+03  0.97490660478E+03  0.00000000000E+00 0. -1.
         21   -1    0    0  501  502  0.00000000000E+00 -0.00000000000E+00 -0.55422552542E+01  0.55422552542E+01  0.00000000000E+00 0. -1.
         24    2    1    2    0    0  0.17424294867E+02 -0.45132888258E+02  0.73178237217E+03  0.73799107068E+03  0.82369876356E+02 0.  0.
        -13    1    3    3    0    0 -0.18964475572E+02 -0.14806650565E+02  0.61529011771E+02  0.66065933160E+02  0.00000000000E+00 0.  1.
         14    1    3    3    0    0  0.36388770439E+02 -0.30326237693E+02  0.67025336040E+03  0.67192513752E+03  0.00000000000E+00 0. -1.
          1    1    1    2  501    0 -0.17424294867E+02  0.45132888258E+02  0.23758197736E+03  0.24245778936E+03  0.00000000000E+00 0. -1.
<mgrwt>
<rscale>  1 0.95526856E+02</rscale>
<asrwt>0</asrwt>
<pdfrwt beam="1">  1       21 0.85265543E-03 0.95526856E+02</pdfrwt>
<pdfrwt beam="2">  1        2 0.14998550E+00 0.95526856E+02</pdfrwt>
<totfact> 0.15871502E+06</totfact>
</mgrwt>
</event>
<event>
 6    2  0.7993170E+000  0.8874599E+02  0.7546771E-02  0.1305917E+00
         21   -1    0    0  501  502  0.00000000000E+00  0.00000000000E+00  0.29411988128E+02  0.29411988128E+02  0.00000000000E+00 0. -1.
         -3   -1    0    0    0  501 -0.00000000000E+00 -0.00000000000E+00 -0.13720115287E+03  0.13720115287E+03  0.00000000000E+00 0.  1.
         24    2    1    2    0    0 -0.11251247923E+02  0.36188624970E+02 -0.81491571059E+02  0.12048537723E+03  0.80247385096E+02 0.  0.
        -11    1    3    3    0    0  0.31570911026E+02  0.51878771224E+01 -0.48719603250E+02  0.58285815023E+02  0.00000000000E+00 0.  1.
         12    1    3    3    0    0 -0.42822158949E+02  0.31000747848E+02 -0.32771967809E+02  0.62199562203E+02  0.00000000000E+00 0. -1.
         -4    1    1    2    0  502  0.11251247923E+02 -0.36188624970E+02 -0.26297593685E+02  0.46127763773E+02  0.00000000000E+00 0.  1.
<mgrwt>
<rscale>  1 0.88745986E+02</rscale>
<asrwt>0</asrwt>
<pdfrwt beam="1">  1       21 0.45249212E-02 0.88745986E+02</pdfrwt>
<pdfrwt beam="2">  1       -3 0.21107870E-01 0.88745986E+02</pdfrwt>
<totfact> 0.28695790E+05</totfact>
</mgrwt>
</event>
<event>
 6    2  0.7993170E+000  0.8332970E+02  0.7546771E-02  0.1319859E+00
         -3   -1    0    0    0  501 -0.00000000000E+00  0.00000000000E+00  0.44102230844E+02  0.44102230844E+02  0.00000000000E+00 0.  1.
         21   -1    0    0  501  502  0.00000000000E+00 -0.00000000000E+00 -0.71240282261E+02  0.71240282261E+02  0.00000000000E+00 0.  1.
         24    2    1    2    0    0 -0.13104329408E+02  0.25612489019E+02 -0.20630669037E+02  0.85845579901E+02  0.78205601083E+02 0.  0.
        -13    1    3    3    0    0 -0.40377466002E+02  0.35950311830E+02 -0.15403986628E+02  0.56214299653E+02  0.00000000000E+00 0.  1.
         14    1    3    3    0    0  0.27273136594E+02 -0.10337822811E+02 -0.52266824095E+01  0.29631280249E+02  0.00000000000E+00 0. -1.
         -4    1    1    2    0  502  0.13104329408E+02 -0.25612489019E+02 -0.65073823799E+01  0.29496933203E+02  0.00000000000E+00 0.  1.
<mgrwt>
<rscale>  1 0.83329701E+02</rscale>
<asrwt>0</asrwt>
<pdfrwt beam="1">  1       21 0.10960043E-01 0.83329701E+02</pdfrwt>
<pdfrwt beam="2">  1       -3 0.67849586E-02 0.83329701E+02</pdfrwt>
<totfact> 0.41854247E+05</totfact>
</mgrwt>
</event>
<event>
 6    2  0.7993170E+000  0.8462839E+02  0.7546771E-02  0.1316407E+00
          2   -1    0    0  502    0 -0.00000000000E+00  0.00000000000E+00  0.80370778812E+03  0.80370778812E+03  0.00000000000E+00 0. -1.
         21   -1    0    0  501  502  0.00000000000E+00 -0.00000000000E+00 -0.47967495004E+01  0.47967495004E+01  0.00000000000E+00 0. -1.
         24    2    1    2    0    0  0.25690845910E+02 -0.22894218316E+01  0.73062131237E+03  0.73550626554E+03  0.80602131107E+02 0.  0.
        -11    1    3    3    0    0  0.36876494272E+02 -0.32947787060E+02  0.52339147008E+03  0.52572242054E+03  0.00000000000E+00 0.  1.
         12    1    3    3    0    0 -0.11185648362E+02  0.30658365228E+02  0.20722984229E+03  0.20978384500E+03  0.00000000000E+00 0. -1.
          1    1    1    2  501    0 -0.25690845910E+02  0.22894218316E+01  0.68289726248E+02  0.72998272082E+02  0.00000000000E+00 0. -1.
<mgrwt>
<rscale>  1 0.84628391E+02</rscale>
<asrwt>0</asrwt>
<pdfrwt beam="1">  1       21 0.73796210E-03 0.84628391E+02</pdfrwt>
<pdfrwt beam="2">  1        2 0.12364725E+00 0.84628391E+02</pdfrwt>
<totfact> 0.25098442E+06</totfact>
</mgrwt>
</event>
<event>
 6    2  0.7993170E+000  0.1082421E+03  0.7546771E-02  0.1263860E+00
         21   -1    0    0  501  502  0.00000000000E+00  0.00000000000E+00  0.12225977012E+02  0.12225977012E+02  0.00000000000E+00 0.  1.
         -1   -1    0    0    0  501 -0.00000000000E+00 -0.00000000000E+00 -0.66447923632E+03  0.66447923632E+03  0.00000000000E+00 0.  1.
         24    2    1    2    0    0  0.19371230302E+02 -0.13547008421E+02 -0.64179153815E+03  0.65085538529E+03  0.10562948505E+03 0.  0.
        -13    1    3    3    0    0  0.30543880580E+02 -0.44031751218E+02 -0.56427577953E+03  0.56681467794E+03  0.00000000000E+00 0.  1.
         14    1    3    3    0    0 -0.11172650278E+02  0.30484742797E+02 -0.77515758617E+02  0.84040707348E+02  0.00000000000E+00 0. -1.
         -2    1    1    2    0  502 -0.19371230302E+02  0.13547008421E+02 -0.10461721161E+02  0.25849828050E+02  0.00000000000E+00 0.  1.
<mgrwt>
<rscale>  1 0.10824211E+03</rscale>
<asrwt>0</asrwt>
<pdfrwt beam="1">  1       21 0.18809191E-02 0.10824211E+03</pdfrwt>
<pdfrwt beam="2">  1       -1 0.10222760E+00 0.10824211E+03</pdfrwt>
<totfact> 0.11915861E+05</totfact>
</mgrwt>
</event>
<event>
 6    2  0.7993170E+000  0.8873311E+02  0.7546771E-02  0.1305949E+00
         -1   -1    0    0    0  501 -0.00000000000E+00  0.00000000000E+00  0.11020872504E+03  0.11020872504E+03  0.00000000000E+00 0.  1.
         21   -1    0    0  501  502  0.00000000000E+00 -0.00000000000E+00 -0.39789793480E+02  0.39789793480E+02  0.00000000000E+00 0. -1.
         24    2    1    2    0    0 -0.11635930667E+02  0.34051158525E+02  0.71564649215E+02  0.11399589433E+03  0.81109115569E+02 0.  0.
        -13    1    3    3    0    0 -0.33797838835E+02  0.81431190420E+01  0.71940489226E+02  0.79900177020E+02  0.00000000000E+00 0.  1.
         14    1    3    3    0    0  0.22161908168E+02  0.25908039483E+02 -0.37584001057E+00  0.34095717315E+02  0.00000000000E+00 0. -1.
         -2    1    1    2    0  502  0.11635930667E+02 -0.34051158525E+02 -0.11457176542E+01  0.36002624187E+02  0.00000000000E+00 0.  1.
<mgrwt>
<rscale>  1 0.88733111E+02</rscale>
<asrwt>0</asrwt>
<pdfrwt beam="1">  1       21 0.61215067E-02 0.88733111E+02</pdfrwt>
<pdfrwt beam="2">  1       -1 0.16955188E-01 0.88733111E+02</pdfrwt>
<totfact> 0.42425311E+05</totfact>
</mgrwt>
</event>
<event>
 6    2  0.7993170E+000  0.8536622E+02  0.7546771E-02  0.1314478E+00
         21   -1    0    0  501  502  0.00000000000E+00  0.00000000000E+00  0.40274753837E+02  0.40274753837E+02  0.00000000000E+00 0.  1.
          2   -1    0    0  502    0 -0.00000000000E+00 -0.00000000000E+00 -0.79258371791E+02  0.79258371791E+02  0.00000000000E+00 0. -1.
         24    2    1    2    0    0  0.57916521831E+01 -0.26532758286E+02 -0.34176817236E+02  0.91953498539E+02  0.80931208813E+02 0.  0.
        -13    1    3    3    0    0  0.99997417374E+01  0.17995893938E+02  0.15004857385E+02  0.25475336673E+02  0.00000000000E+00 0.  1.
         14    1    3    3    0    0 -0.42080895543E+01 -0.44528652224E+02 -0.49181674621E+02  0.66478161866E+02  0.00000000000E+00 0. -1.
          1    1    1    2  501    0 -0.57916521831E+01  0.26532758286E+02 -0.48068007185E+01  0.27579627090E+02  0.00000000000E+00 0. -1.
<mgrwt>
<rscale>  1 0.85366217E+02</rscale>
<asrwt>0</asrwt>
<pdfrwt beam="1">  1       21 0.61961160E-02 0.85366217E+02</pdfrwt>
<pdfrwt beam="2">  1        2 0.12193596E-01 0.85366217E+02</pdfrwt>
<totfact> 0.10467530E+06</totfact>
</mgrwt>
</event>
<event>
 6    2  0.7993170E+000  0.8203118E+02  0.7546771E-02  0.1323384E+00
         21   -1    0    0  501  502  0.00000000000E+00  0.00000000000E+00  0.47804163531E+01  0.47804163531E+01  0.00000000000E+00 0.  1.
          2   -1    0    0  502    0 -0.00000000000E+00 -0.00000000000E+00 -0.86111387628E+03  0.86111387628E+03  0.00000000000E+00 0. -1.
         24    2    1    2    0    0 -0.19034560612E+02  0.27486985887E+02 -0.39927392104E+03  0.40761351518E+03  0.74908376354E+02 0.  0.
        -11    1    3    3    0    0 -0.44695204201E+02  0.35302207717E+01 -0.17730688205E+03  0.18288754512E+03  0.00000000000E+00 0.  1.
         12    1    3    3    0    0  0.25660643590E+02  0.23956765115E+02 -0.22196703899E+03  0.22472597007E+03  0.00000000000E+00 0. -1.
          1    1    1    2  501    0  0.19034560612E+02 -0.27486985887E+02 -0.45705953889E+03  0.45828077745E+03  0.00000000000E+00 0. -1.
<mgrwt>
<rscale>  1 0.82031175E+02</rscale>
<asrwt>0</asrwt>
<pdfrwt beam="1">  1       21 0.73544903E-03 0.82031175E+02</pdfrwt>
<pdfrwt beam="2">  1        2 0.13247899E+00 0.82031175E+02</pdfrwt>
<totfact> 0.23091006E+06</totfact>
</mgrwt>
</event>
<event>
 6    2  0.7993170E+000  0.9873754E+02  0.7546771E-02  0.1282973E+00
          2   -1    0    0  502    0 -0.00000000000E+00  0.00000000000E+00  0.89675751269E+02  0.89675751269E+02  0.00000000000E+00 0. -1.
         21   -1    0    0  501  502  0.00000000000E+00 -0.00000000000E+00 -0.87239693915E+02  0.87239693915E+02  0.00000000000E+00 0. -1.
         24    2    1    2    0    0 -0.49575501938E+02 -0.45565780974E+02  0.31407681222E+02  0.10361247268E+03  0.72215865759E+02 0.  0.
        -13    1    3    3    0    0 -0.24715374133E+02  0.12054067196E+02 -0.90477764496E+01  0.28948445782E+02  0.00000000000E+00 0.  1.
         14    1    3    3    0    0 -0.24860127805E+02 -0.57619848170E+02  0.40455457671E+02  0.74664026900E+02  0.00000000000E+00 0. -1.
          1    1    1    2  501    0  0.49575501938E+02  0.45565780974E+02 -0.28971623868E+02  0.73302972502E+02  0.00000000000E+00 0. -1.
<mgrwt>
<rscale>  1 0.98737541E+02</rscale>
<asrwt>0</asrwt>
<pdfrwt beam="1">  1       21 0.13421491E-01 0.98737541E+02</pdfrwt>
<pdfrwt beam="2">  1        2 0.13796269E-01 0.98737541E+02</pdfrwt>
<totfact> 0.24195868E+05</totfact>
</mgrwt>
</event>
<event>
 6    2  0.7993170E+000  0.8500387E+02  0.7546771E-02  0.1315422E+00
          4   -1    0    0  502    0 -0.00000000000E+00  0.00000000000E+00  0.13290292369E+03  0.13290292369E+03  0.00000000000E+00 0. -1.
         21   -1    0    0  501  502  0.00000000000E+00 -0.00000000000E+00 -0.84608639426E+02  0.84608639426E+02  0.00000000000E+00 0. -1.
         24    2    1    2    0    0  0.22641561256E+01  0.23361831002E+02  0.11716421722E+03  0.14475189561E+03  0.81699179535E+02 0.  0.
        -11    1    3    3    0    0  0.21732317207E+02 -0.24841795441E+02  0.46645980455E+02  0.57142417734E+02  0.00000000000E+00 0.  1.
         12    1    3    3    0    0 -0.19468161082E+02  0.48203626443E+02  0.70518236763E+02  0.87609477879E+02  0.00000000000E+00 0. -1.
          3    1    1    2  501    0 -0.22641561256E+01 -0.23361831002E+02 -0.68869932951E+02  0.72759667505E+02  0.00000000000E+00 0. -1.
<mgrwt>
<rscale>  1 0.85003867E+02</rscale>
<asrwt>0</asrwt>
<pdfrwt beam="1">  1       21 0.13016714E-01 0.85003867E+02</pdfrwt>
<pdfrwt beam="2">  1        4 0.20446604E-01 0.85003867E+02</pdfrwt>
<totfact> 0.41883583E+04</totfact>
</mgrwt>
</event>
<event>
 6    2  0.7993170E+000  0.8024433E+02  0.7546771E-02  0.1328360E+00
         -3   -1    0    0    0  501 -0.00000000000E+00  0.00000000000E+00  0.19015550403E+03  0.19015550403E+03  0.00000000000E+00 0.  1.
         21   -1    0    0  501  502  0.00000000000E+00 -0.00000000000E+00 -0.25780213405E+02  0.25780213405E+02  0.00000000000E+00 0. -1.
         24    2    1    2    0    0 -0.33639374013E+01  0.29546500541E+02  0.16780177605E+03  0.18600158021E+03  0.74530799168E+02 0.  0.
        -13    1    3    3    0    0 -0.32358127361E+02  0.34197023458E+02  0.12912822194E+03  0.13744301554E+03  0.00000000000E+00 0.  1.
         14    1    3    3    0    0  0.28994189960E+02 -0.46505229175E+01  0.38673554112E+02  0.48558564667E+02  0.00000000000E+00 0. -1.
         -4    1    1    2    0  502  0.33639374013E+01 -0.29546500541E+02 -0.34264854281E+01  0.29934137225E+02  0.00000000000E+00 0.  1.
<mgrwt>
<rscale>  1 0.80244326E+02</rscale>
<asrwt>0</asrwt>
<pdfrwt beam="1">  1       21 0.39661868E-02 0.80244326E+02</pdfrwt>
<pdfrwt beam="2">  1       -3 0.29254692E-01 0.80244326E+02</pdfrwt>
<totfact> 0.19578061E+05</totfact>
</mgrwt>
</event>
<event>
 6    2  0.7993170E+000  0.8746783E+02  0.7546771E-02  0.1309102E+00
          2   -1    0    0  502    0 -0.00000000000E+00  0.00000000000E+00  0.39898296082E+03  0.39898296082E+03  0.00000000000E+00 0. -1.
         21   -1    0    0  501  502  0.00000000000E+00 -0.00000000000E+00 -0.18345501779E+02  0.18345501779E+02  0.00000000000E+00 0.  1.
         24    2    1    2    0    0  0.29225523855E+02 -0.22279519516E+02  0.94213605019E+02  0.12855669738E+03  0.79373250132E+02 0.  0.
        -13    1    3    3    0    0  0.35353907071E+02 -0.48792612401E+02  0.64607644032E+02  0.88344583521E+02  0.00000000000E+00 0.  1.
         14    1    3    3    0    0 -0.61283832162E+01  0.26513092885E+02  0.29605960988E+02  0.40212113861E+02  0.00000000000E+00 0. -1.
          1    1    1    2  501    0 -0.29225523855E+02  0.22279519516E+02  0.28642385402E+03  0.28877176522E+03  0.00000000000E+00 0. -1.
<mgrwt>
<rscale>  1 0.87467829E+02</rscale>
<asrwt>0</asrwt>
<pdfrwt beam="1">  1       21 0.28223852E-02 0.87467829E+02</pdfrwt>
<pdfrwt beam="2">  1        2 0.61381988E-01 0.87467829E+02</pdfrwt>
<totfact> 0.65885586E+05</totfact>
</mgrwt>
</event>
<event>
 6    2  0.7993170E+000  0.9465703E+02  0.7546771E-02  0.1291950E+00
         -1   -1    0    0    0  501 -0.00000000000E+00  0.00000000000E+00  0.28549497254E+03  0.28549497254E+03  0.00000000000E+00 0.  1.
         21   -1    0    0  501  502  0.00000000000E+00 -0.00000000000E+00 -0.29153663636E+02  0.29153663636E+02  0.00000000000E+00 0. -1.
         24    2    1    2    0    0  0.13984166064E+01 -0.53891215170E+02  0.62448479160E+02  0.11340090807E+03  0.77805750176E+02 0.  0.
        -13    1    3    3    0    0 -0.29259440066E+02 -0.37920530291E+02  0.74956156608E+01  0.48479539031E+02  0.00000000000E+00 0.  1.
         14    1    3    3    0    0  0.30657856673E+02 -0.15970684879E+02  0.54952863499E+02  0.64921369040E+02  0.00000000000E+00 0. -1.
         -2    1    1    2    0  502 -0.13984166064E+01  0.53891215170E+02  0.19389282974E+03  0.20124772811E+03  0.00000000000E+00 0.  1.
<mgrwt>
<rscale>  1 0.94657030E+02</rscale>
<asrwt>0</asrwt>
<pdfrwt beam="1">  1       21 0.44851792E-02 0.94657030E+02</pdfrwt>
<pdfrwt beam="2">  1       -1 0.43922302E-01 0.94657030E+02</pdfrwt>
<totfact> 0.14912941E+05</totfact>
</mgrwt>
</event>
<event>
 6    2  0.7993170E+000  0.8217220E+02  0.7546771E-02  0.1322998E+00
         -1   -1    0    0    0  501 -0.00000000000E+00  0.00000000000E+00  0.76926470922E+02  0.76926470922E+02  0.00000000000E+00 0.  1.
         21   -1    0    0  501  502  0.00000000000E+00 -0.00000000000E+00 -0.13861890323E+03  0.13861890323E+03  0.00000000000E+00 0.  1.
         24    2    1    2    0    0 -0.42616428310E+01 -0.25185069495E+02  0.53172027605E+02  0.97875099757E+02  0.78101352790E+02 0.  0.
        -11    1    3    3    0    0  0.24547238545E+02 -0.31349889576E+02  0.55518759390E+02  0.68320678720E+02  0.00000000000E+00 0.  1.
         12    1    3    3    0    0 -0.28808881376E+02  0.61648200804E+01 -0.23467317848E+01  0.29554421037E+02  0.00000000000E+00 0. -1.
         -2    1    1    2    0  502  0.42616428310E+01  0.25185069495E+02 -0.11486445992E+03  0.11767027440E+03  0.00000000000E+00 0.  1.
<mgrwt>
<rscale>  1 0.82172201E+02</rscale>
<asrwt>0</asrwt>
<pdfrwt beam="1">  1       21 0.21325985E-01 0.82172201E+02</pdfrwt>
<pdfrwt beam="2">  1       -1 0.11834842E-01 0.82172201E+02</pdfrwt>
<totfact> 0.82563948E+04</totfact>
</mgrwt>
</event>
<event>
 6    2  0.7993170E+000  0.9385040E+02  0.7546771E-02  0.1293786E+00
         -1   -1    0    0    0  501 -0.00000000000E+00  0.00000000000E+00  0.16112022136E+03  0.16112022136E+03  0.00000000000E+00 0.  1.
         21   -1    0    0  501  502  0.00000000000E+00 -0.00000000000E+00 -0.32132393282E+02  0.32132393282E+02  0.00000000000E+00 0.  1.
         24    2    1    2    0    0  0.38999106389E+02 -0.29878646796E+02  0.74006834155E+02  0.11951949097E+03  0.79963950546E+02 0.  0.
        -13    1    3    3    0    0  0.26450810414E+02 -0.24827152068E+02 -0.73765978625E+01  0.37019549530E+02  0.00000000000E+00 0.  1.
         14    1    3    3    0    0  0.12548295975E+02 -0.50514947278E+01  0.81383432017E+02  0.82499941441E+02  0.00000000000E+00 0. -1.
         -2    1    1    2    0  502 -0.38999106389E+02  0.29878646796E+02  0.54980993924E+02  0.73733123671E+02  0.00000000000E+00 0.  1.
<mgrwt>
<rscale>  1 0.93850398E+02</rscale>
<asrwt>0</asrwt>
<pdfrwt beam="1">  1       21 0.49434452E-02 0.93850398E+02</pdfrwt>
<pdfrwt beam="2">  1       -1 0.24787726E-01 0.93850398E+02</pdfrwt>
<totfact> 0.33309124E+05</totfact>
</mgrwt>
</event>
<event>
 6    2  0.7993170E+000  0.8521769E+02  0.7546771E-02  0.1314864E+00
          2   -1    0    0  502    0 -0.00000000000E+00  0.00000000000E+00  0.12807105809E+04  0.12807105809E+04  0.00000000000E+00 0. -1.
         21   -1    0    0  501  502  0.00000000000E+00 -0.00000000000E+00 -0.68524147557E+01  0.68524147557E+01  0.00000000000E+00 0. -1.
         24    2    1    2    0    0 -0.78890325534E+01 -0.28752382982E+02  0.12379970613E+04  0.12409265806E+04  0.79831813668E+02 0.  0.
        -11    1    3    3    0    0  0.32349330015E+02  0.18166940507E+01  0.35138913052E+03  0.35287972537E+03  0.00000000000E+00 0.  1.
         12    1    3    3    0    0 -0.40238362568E+02 -0.30569077032E+02  0.88660793074E+03  0.88804685527E+03  0.00000000000E+00 0. -1.
          1    1    1    2  501    0  0.78890325534E+01  0.28752382982E+02  0.35861104847E+02  0.46636414984E+02  0.00000000000E+00 0. -1.
<mgrwt>
<rscale>  1 0.85217691E+02</rscale>
<asrwt>0</asrwt>
<pdfrwt beam="1">  1       21 0.10542187E-02 0.85217691E+02</pdfrwt>
<pdfrwt beam="2">  1        2 0.19703221E+00 0.85217691E+02</pdfrwt>
<totfact> 0.76283111E+05</totfact>
</mgrwt>
</event>
<event>
 6    2  0.7993170E+000  0.8745106E+02  0.7546771E-02  0.1309144E+00
         21   -1    0    0  501  502  0.00000000000E+00  0.00000000000E+00  0.56739878315E+01  0.56739878315E+01  0.00000000000E+00 0.  1.
         -1   -1    0    0    0  501 -0.00000000000E+00 -0.00000000000E+00 -0.11594449809E+04  0.11594449809E+04  0.00000000000E+00 0.  1.
         24    2    1    2    0    0 -0.30070704096E+02  0.10517072315E+02 -0.10931026030E+04  0.10965951801E+04  0.81442201944E+02 0.  0.
        -13    1    3    3    0    0 -0.28311493494E+02  0.36272914747E+02 -0.95452645218E+03  0.95563487427E+03  0.00000000000E+00 0.  1.
         14    1    3    3    0    0 -0.17592106020E+01 -0.25755842432E+02 -0.13857615086E+03  0.14096030586E+03  0.00000000000E+00 0. -1.
         -2    1    1    2    0  502  0.30070704096E+02 -0.10517072315E+02 -0.60668389984E+02  0.68523788556E+02  0.00000000000E+00 0.  1.
<mgrwt>
<rscale>  1 0.87451062E+02</rscale>
<asrwt>0</asrwt>
<pdfrwt beam="1">  1       21 0.87292113E-03 0.87451062E+02</pdfrwt>
<pdfrwt beam="2">  1       -1 0.17837617E+00 0.87451062E+02</pdfrwt>
<totfact> 0.10013491E+05</totfact>
</mgrwt>
</event>
<event>
 6    2  0.7993170E+000  0.8886539E+02  0.7546771E-02  0.1305623E+00
          2   -1    0    0  502    0 -0.00000000000E+00  0.00000000000E+00  0.79196528251E+03  0.79196528251E+03  0.00000000000E+00 0. -1.
         21   -1    0    0  501  502  0.00000000000E+00 -0.00000000000E+00 -0.12081278152E+02  0.12081278152E+02  0.00000000000E+00 0. -1.
         24    2    1    2    0    0  0.18213445499E+01  0.38778915028E+02  0.74949618472E+03  0.75474604212E+03  0.79937072935E+02 0.  0.
        -13    1    3    3    0    0 -0.25795597407E+02  0.49002612219E+02  0.37153440914E+03  0.37563877066E+03  0.00000000000E+00 0.  1.
         14    1    3    3    0    0  0.27616941957E+02 -0.10223697192E+02  0.37796177559E+03  0.37910727146E+03  0.00000000000E+00 0. -1.
          1    1    1    2  501    0 -0.18213445499E+01 -0.38778915028E+02  0.30387819637E+02  0.49300518547E+02  0.00000000000E+00 0. -1.
<mgrwt>
<rscale>  1 0.88865388E+02</rscale>
<asrwt>0</asrwt>
<pdfrwt beam="1">  1       21 0.18586588E-02 0.88865388E+02</pdfrwt>
<pdfrwt beam="2">  1        2 0.12184077E+00 0.88865388E+02</pdfrwt>
<totfact> 0.60219776E+05</totfact>
</mgrwt>
</event>
<event>
 6    2  0.7993170E+000  0.1123900E+03  0.7546771E-02  0.1256207E+00
          2   -1    0    0  502    0 -0.00000000000E+00  0.00000000000E+00  0.17971544638E+03  0.17971544638E+03  0.00000000000E+00 0. -1.
         21   -1    0    0  501  502  0.00000000000E+00 -0.00000000000E+00 -0.54279535071E+02  0.54279535071E+02  0.00000000000E+00 0.  1.
         24    2    1    2    0    0  0.77952245281E+01  0.77747894864E+02  0.42792757713E+02  0.12026111878E+03  0.80783760106E+02 0.  0.
        -11    1    3    3    0    0  0.34468784769E+01  0.44065464662E+02 -0.20276557014E+02  0.48629054190E+02  0.00000000000E+00 0.  1.
         12    1    3    3    0    0  0.43483460513E+01  0.33682430203E+02  0.63069314727E+02  0.71632064593E+02  0.00000000000E+00 0. -1.
          1    1    1    2  501    0 -0.77952245281E+01 -0.77747894864E+02  0.82643153597E+02  0.11373386267E+03  0.00000000000E+00 0. -1.
<mgrwt>
<rscale>  1 0.11239002E+03</rscale>
<asrwt>0</asrwt>
<pdfrwt beam="1">  1       21 0.83506978E-02 0.11239002E+03</pdfrwt>
<pdfrwt beam="2">  1        2 0.27648530E-01 0.11239002E+03</pdfrwt>
<totfact> 0.25557480E+05</totfact>
</mgrwt>
</event>
<event>
 6    2  0.7993170E+000  0.8300086E+02  0.7546771E-02  0.1320745E+00
          2   -1    0    0  502    0 -0.00000000000E+00  0.00000000000E+00  0.11054496983E+04  0.11054496983E+04  0.00000000000E+00 0. -1.
         21   -1    0    0  501  502  0.00000000000E+00 -0.00000000000E+00 -0.41940382728E+01  0.41940382728E+01  0.00000000000E+00 0. -1.
         24    2    1    2    0    0  0.11987621307E+01 -0.24661601447E+02  0.10439614480E+04  0.10472557702E+04  0.79243369989E+02 0.  0.
        -13    1    3    3    0    0 -0.32966807368E+02  0.15094158039E+01  0.25577416488E+03  0.25789438176E+03  0.00000000000E+00 0.  1.
         14    1    3    3    0    0  0.34165569499E+02 -0.26171017251E+02  0.78818728308E+03  0.78936138840E+03  0.00000000000E+00 0. -1.
          1    1    1    2  501    0 -0.11987621307E+01  0.24661601447E+02  0.57294212037E+02  0.62387966384E+02  0.00000000000E+00 0. -1.
<mgrwt>
<rscale>  1 0.83000863E+02</rscale>
<asrwt>0</asrwt>
<pdfrwt beam="1">  1       21 0.64523754E-03 0.83000863E+02</pdfrwt>
<pdfrwt beam="2">  1        2 0.17006895E+00 0.83000863E+02</pdfrwt>
<totfact> 0.20294013E+06</totfact>
</mgrwt>
</event>
<event>
 6    2  0.7993170E+000  0.8333155E+02  0.7546771E-02  0.1319854E+00
         21   -1    0    0  501  502  0.00000000000E+00  0.00000000000E+00  0.46854507263E+02  0.46854507263E+02  0.00000000000E+00 0. -1.
         -3   -1    0    0    0  501 -0.00000000000E+00 -0.00000000000E+00 -0.85821173859E+02  0.85821173859E+02  0.00000000000E+00 0.  1.
         24    2    1    2    0    0  0.24364268778E+02  0.26158123093E+01  0.37650670366E+01  0.83416558857E+02  0.79647262945E+02 0.  0.
        -13    1    3    3    0    0  0.30369549356E+02  0.22651114666E+01 -0.33728874164E+02  0.45443120606E+02  0.00000000000E+00 0.  1.
         14    1    3    3    0    0 -0.60052805779E+01  0.35070084267E+00  0.37493941200E+02  0.37973438251E+02  0.00000000000E+00 0. -1.
         -4    1    1    2    0  502 -0.24364268778E+02 -0.26158123093E+01 -0.42731733632E+02  0.49259122265E+02  0.00000000000E+00 0.  1.
<mgrwt>
<rscale>  1 0.83331546E+02</rscale>
<asrwt>0</asrwt>
<pdfrwt beam="1">  1       21 0.72083858E-02 0.83331546E+02</pdfrwt>
<pdfrwt beam="2">  1       -3 0.13203257E-01 0.83331546E+02</pdfrwt>
<totfact> 0.29055555E+05</totfact>
</mgrwt>
</event>
<event>
 6    2  0.7993170E+000  0.9034308E+02  0.7546771E-02  0.1302023E+00
         21   -1    0    0  501  502  0.00000000000E+00  0.00000000000E+00  0.86848264469E+02  0.86848264469E+02  0.00000000000E+00 0.  1.
         -1   -1    0    0    0  501 -0.00000000000E+00 -0.00000000000E+00 -0.58890498829E+02  0.58890498829E+02  0.00000000000E+00 0.  1.
         24    2    1    2    0    0 -0.22912233825E+01  0.39671655860E+02 -0.98629699988E+01  0.90879871333E+02  0.81134350636E+02 0.  0.
        -11    1    3    3    0    0  0.74019045363E+01  0.50990577257E+02 -0.34555089486E+02  0.62039353391E+02  0.00000000000E+00 0.  1.
         12    1    3    3    0    0 -0.96931279188E+01 -0.11318921397E+02  0.24692119487E+02  0.28840517943E+02  0.00000000000E+00 0. -1.
         -2    1    1    2    0  502  0.22912233825E+01 -0.39671655860E+02  0.37820735639E+02  0.54858891964E+02  0.00000000000E+00 0.  1.
<mgrwt>
<rscale>  1 0.90343084E+02</rscale>
<asrwt>0</asrwt>
<pdfrwt beam="1">  1       21 0.13361271E-01 0.90343084E+02</pdfrwt>
<pdfrwt beam="2">  1       -1 0.90600767E-02 0.90343084E+02</pdfrwt>
<totfact> 0.28911700E+05</totfact>
</mgrwt>
</event>
<event>
 6    2  0.7993170E+000  0.8081664E+02  0.7546771E-02  0.1326750E+00
         21   -1    0    0  501  502  0.00000000000E+00  0.00000000000E+00  0.27638203878E+02  0.27638203878E+02  0.00000000000E+00 0.  1.
          2   -1    0    0  502    0 -0.00000000000E+00 -0.00000000000E+00 -0.10421725354E+03  0.10421725354E+03  0.00000000000E+00 0. -1.
         24    2    1    2    0    0  0.38714946482E+01 -0.21836631346E+02 -0.73911893247E+02  0.10951847771E+03  0.77714233298E+02 0.  0.
        -11    1    3    3    0    0 -0.46427761839E+01  0.11227585439E+02  0.11996326744E+02  0.17074129578E+02  0.00000000000E+00 0.  1.
         12    1    3    3    0    0  0.85142708321E+01 -0.33064216785E+02 -0.85908219992E+02  0.92444348132E+02  0.00000000000E+00 0. -1.
          1    1    1    2  501    0 -0.38714946482E+01  0.21836631346E+02 -0.26671564187E+01  0.22336979713E+02  0.00000000000E+00 0. -1.
<mgrwt>
<rscale>  1 0.80816638E+02</rscale>
<asrwt>0</asrwt>
<pdfrwt beam="1">  1       21 0.42520314E-02 0.80816638E+02</pdfrwt>
<pdfrwt beam="2">  1        2 0.16033424E-01 0.80816638E+02</pdfrwt>
<totfact> 0.14146292E+06</totfact>
</mgrwt>
</event>
<event>
 6    2  0.7993170E+000  0.8986305E+02  0.7546771E-02  0.1303184E+00
          2   -1    0    0  502    0 -0.00000000000E+00  0.00000000000E+00  0.16585032627E+04  0.16585032627E+04  0.00000000000E+00 0. -1.
         21   -1    0    0  501  502  0.00000000000E+00 -0.00000000000E+00 -0.50474483011E+01  0.50474483011E+01  0.00000000000E+00 0. -1.
         24    2    1    2    0    0  0.28506250053E+02 -0.28605032233E+02  0.15483216356E+04  0.15509272245E+04  0.80277732040E+02 0.  0.
        -11    1    3    3    0    0 -0.14123151218E+02 -0.11706423815E+02  0.88285297466E+02  0.90170934937E+02  0.00000000000E+00 0.  1.
         12    1    3    3    0    0  0.42629401271E+02 -0.16898608418E+02  0.14600363381E+04  0.14607562895E+04  0.00000000000E+00 0. -1.
          1    1    1    2  501    0 -0.28506250053E+02  0.28605032233E+02  0.10513417885E+03  0.11262348656E+03  0.00000000000E+00 0. -1.
<mgrwt>
<rscale>  1 0.89863054E+02</rscale>
<asrwt>0</asrwt>
<pdfrwt beam="1">  1       21 0.77653183E-03 0.89863054E+02</pdfrwt>
<pdfrwt beam="2">  1        2 0.25515392E+00 0.89863054E+02</pdfrwt>
<totfact> 0.78795256E+05</totfact>
</mgrwt>
</event>
<event>
 6    2  0.7993170E+000  0.8592361E+02  0.7546771E-02  0.1313035E+00
          2   -1    0    0  502    0 -0.00000000000E+00  0.00000000000E+00  0.23540271034E+04  0.23540271034E+04  0.00000000000E+00 0. -1.
         21   -1    0    0  501  502  0.00000000000E+00 -0.00000000000E+00 -0.20050225135E+01  0.20050225135E+01  0.00000000000E+00 0. -1.
         24    2    1    2    0    0  0.10656601230E+02  0.17191719569E+02  0.22673561377E+04  0.22689836319E+04  0.83508971768E+02 0.  0.
        -11    1    3    3    0    0  0.26637707874E+02  0.10258911382E+02  0.26175480571E+03  0.26330664833E+03  0.00000000000E+00 0.  1.
         12    1    3    3    0    0 -0.15981106645E+02  0.69328081864E+01  0.20056013320E+04  0.20056769836E+04  0.00000000000E+00 0. -1.
          1    1    1    2  501    0 -0.10656601230E+02 -0.17191719569E+02  0.84665943176E+02  0.87048493986E+02  0.00000000000E+00 0. -1.
<mgrwt>
<rscale>  1 0.85923610E+02</rscale>
<asrwt>0</asrwt>
<pdfrwt beam="1">  1       21 0.30846689E-03 0.85923610E+02</pdfrwt>
<pdfrwt beam="2">  1        2 0.36215581E+00 0.85923610E+02</pdfrwt>
<totfact> 0.14405541E+06</totfact>
</mgrwt>
</event>
<event>
 6    2  0.7993170E+000  0.8542599E+02  0.7546771E-02  0.1314322E+00
         -1   -1    0    0    0  501 -0.00000000000E+00  0.00000000000E+00  0.42781324141E+01  0.42781324141E+01  0.00000000000E+00 0.  1.
         21   -1    0    0  501  502  0.00000000000E+00 -0.00000000000E+00 -0.82399153835E+03  0.82399153835E+03  0.00000000000E+00 0. -1.
         24    2    1    2    0    0 -0.21410441152E+02 -0.20028134679E+02 -0.50303114246E+03  0.51023321190E+03  0.80237566439E+02 0.  0.
        -13    1    3    3    0    0 -0.30849321633E+01 -0.37692443915E+02 -0.10887773024E+03  0.11525882732E+03  0.00000000000E+00 0.  1.
         14    1    3    3    0    0 -0.18325508989E+02  0.17664309235E+02 -0.39415341223E+03  0.39497438457E+03  0.00000000000E+00 0. -1.
         -2    1    1    2    0  502  0.21410441152E+02  0.20028134679E+02 -0.31668226348E+03  0.31803645887E+03  0.00000000000E+00 0.  1.
<mgrwt>
<rscale>  1 0.85425993E+02</rscale>
<asrwt>0</asrwt>
<pdfrwt beam="1">  1       21 0.12676795E+00 0.85425993E+02</pdfrwt>
<pdfrwt beam="2">  1       -1 0.65817410E-03 0.85425993E+02</pdfrwt>
<totfact> 0.13194738E+05</totfact>
</mgrwt>
</event>
<event>
 6    2  0.7993170E+000  0.8481247E+02  0.7546771E-02  0.1315924E+00
         21   -1    0    0  501  502  0.00000000000E+00  0.00000000000E+00  0.40215073169E+01  0.40215073169E+01  0.00000000000E+00 0.  1.
          4   -1    0    0  502    0 -0.00000000000E+00 -0.00000000000E+00 -0.90867804100E+03  0.90867804100E+03  0.00000000000E+00 0. -1.
         24    2    1    2    0    0  0.26594009925E+02  0.12142387868E+02 -0.51396217916E+03  0.52091292578E+03  0.79614544431E+02 0.  0.
        -13    1    3    3    0    0 -0.25820114104E+02 -0.80826738686E+01 -0.12343486945E+03  0.12636524406E+03  0.00000000000E+00 0.  1.
         14    1    3    3    0    0  0.52414124029E+02  0.20225061736E+02 -0.39052730971E+03  0.39454768172E+03  0.00000000000E+00 0. -1.
          3    1    1    2  501    0 -0.26594009925E+02 -0.12142387868E+02 -0.39069435452E+03  0.39178662254E+03  0.00000000000E+00 0. -1.
<mgrwt>
<rscale>  1 0.84812467E+02</rscale>
<asrwt>0</asrwt>
<pdfrwt beam="1">  1       21 0.61869338E-03 0.84812467E+02</pdfrwt>
<pdfrwt beam="2">  1        4 0.13979663E+00 0.84812467E+02</pdfrwt>
<totfact> 0.11328290E+05</totfact>
</mgrwt>
</event>
<event>
 6    2  0.7993170E+000  0.8310929E+02  0.7546771E-02  0.1320452E+00
          2   -1    0    0  502    0 -0.00000000000E+00  0.00000000000E+00  0.28510128922E+03  0.28510128922E+03  0.00000000000E+00 0. -1.
         21   -1    0    0  501  502  0.00000000000E+00 -0.00000000000E+00 -0.14918739329E+02  0.14918739329E+02  0.00000000000E+00 0. -1.
         24    2    1    2    0    0 -0.26246022393E+02  0.11531768498E+02  0.25366848294E+03  0.26693604778E+03  0.78008454632E+02 0.  0.
        -13    1    3    3    0    0  0.22963553695E+02 -0.52505003542E+01  0.35121422552E+02  0.42289559874E+02  0.00000000000E+00 0.  1.
         14    1    3    3    0    0 -0.49209576088E+02  0.16782268852E+02  0.21854706039E+03  0.22464648791E+03  0.00000000000E+00 0. -1.
          1    1    1    2  501    0  0.26246022393E+02 -0.11531768498E+02  0.16514066957E+02  0.33083980770E+02  0.00000000000E+00 0. -1.
<mgrwt>
<rscale>  1 0.83109292E+02</rscale>
<asrwt>0</asrwt>
<pdfrwt beam="1">  1       21 0.22951909E-02 0.83109292E+02</pdfrwt>
<pdfrwt beam="2">  1        2 0.43861733E-01 0.83109292E+02</pdfrwt>
<totfact> 0.12993249E+06</totfact>
</mgrwt>
</event>
<event>
 6    2  0.7993170E+000  0.1054740E+03  0.7546771E-02  0.1269189E+00
          2   -1    0    0  502    0 -0.00000000000E+00  0.00000000000E+00  0.53487126074E+03  0.53487126074E+03  0.00000000000E+00 0. -1.
         21   -1    0    0  501  502  0.00000000000E+00 -0.00000000000E+00 -0.13425289792E+02  0.13425289792E+02  0.00000000000E+00 0. -1.
         24    2    1    2    0    0  0.38515313908E+02  0.23748553279E+02  0.46029690986E+03  0.47222664281E+03  0.95275042738E+02 0.  0.
        -11    1    3    3    0    0 -0.80987937701E+01 -0.63216164397E+01  0.18539416189E+01  0.10439846477E+02  0.00000000000E+00 0.  1.
         12    1    3    3    0    0  0.46614107678E+02  0.30070169719E+02  0.45844296824E+03  0.46178679634E+03  0.00000000000E+00 0. -1.
          1    1    1    2  501    0 -0.38515313908E+02 -0.23748553279E+02  0.61149061086E+02  0.76069907717E+02  0.00000000000E+00 0. -1.
<mgrwt>
<rscale>  1 0.10547396E+03</rscale>
<asrwt>0</asrwt>
<pdfrwt beam="1">  1       21 0.20654296E-02 0.10547396E+03</pdfrwt>
<pdfrwt beam="2">  1        2 0.82287870E-01 0.10547396E+03</pdfrwt>
<totfact> 0.80931246E+05</totfact>
</mgrwt>
</event>
<event>
 6    2  0.7993170E+000  0.9745455E+02  0.7546771E-02  0.1285742E+00
          2   -1    0    0  502    0 -0.00000000000E+00  0.00000000000E+00  0.13535075699E+04  0.13535075699E+04  0.00000000000E+00 0. -1.
         21   -1    0    0  501  502  0.00000000000E+00 -0.00000000000E+00 -0.24597778742E+02  0.24597778742E+02  0.00000000000E+00 0. -1.
         24    2    1    2    0    0  0.49785106198E+02  0.13824222722E+02  0.13224480800E+04  0.13260340548E+04  0.82630045034E+02 0.  0.
        -13    1    3    3    0    0  0.75387203964E+01 -0.23271037737E+02  0.13125535386E+03  0.13351532279E+03  0.00000000000E+00 0.  1.
         14    1    3    3    0    0  0.42246385802E+02  0.37095260458E+02  0.11911927261E+04  0.11925187320E+04  0.00000000000E+00 0. -1.
          1    1    1    2  501    0 -0.49785106198E+02 -0.13824222722E+02  0.64617112128E+01  0.52071293865E+02  0.00000000000E+00 0. -1.
<mgrwt>
<rscale>  1 0.97454555E+02</rscale>
<asrwt>0</asrwt>
<pdfrwt beam="1">  1       21 0.37842747E-02 0.97454555E+02</pdfrwt>
<pdfrwt beam="2">  1        2 0.20823188E+00 0.97454555E+02</pdfrwt>
<totfact> 0.90620100E+04</totfact>
</mgrwt>
</event>
<event>
 6    2  0.7993170E+000  0.9414956E+02  0.7546771E-02  0.1293103E+00
          2   -1    0    0  502    0 -0.00000000000E+00  0.00000000000E+00  0.23265394669E+03  0.23265394669E+03  0.00000000000E+00 0. -1.
         21   -1    0    0  501  502  0.00000000000E+00 -0.00000000000E+00 -0.21339437867E+02  0.21339437867E+02  0.00000000000E+00 0. -1.
         24    2    1    2    0    0 -0.11550141111E+02  0.35579496382E+02  0.18704215547E+03  0.20940130612E+03  0.86399263630E+02 0.  0.
        -11    1    3    3    0    0  0.19735131911E+01 -0.24375008953E+02  0.20602899231E+02  0.31976792717E+02  0.00000000000E+00 0.  1.
         12    1    3    3    0    0 -0.13523654302E+02  0.59954505335E+02  0.16643925624E+03  0.17742451340E+03  0.00000000000E+00 0. -1.
          1    1    1    2  501    0  0.11550141111E+02 -0.35579496382E+02  0.24272353346E+02  0.44592078438E+02  0.00000000000E+00 0. -1.
<mgrwt>
<rscale>  1 0.94149557E+02</rscale>
<asrwt>0</asrwt>
<pdfrwt beam="1">  1       21 0.32829906E-02 0.94149557E+02</pdfrwt>
<pdfrwt beam="2">  1        2 0.35792913E-01 0.94149557E+02</pdfrwt>
<totfact> 0.91304383E+05</totfact>
</mgrwt>
</event>
<event>
 6    2  0.7993170E+000  0.6820711E+02  0.7546771E-02  0.1366298E+00
         21   -1    0    0  501  502  0.00000000000E+00  0.00000000000E+00  0.27786957125E+01  0.27786957125E+01  0.00000000000E+00 0.  1.
          2   -1    0    0  502    0 -0.00000000000E+00 -0.00000000000E+00 -0.12323853720E+04  0.12323853720E+04  0.00000000000E+00 0. -1.
         24    2    1    2    0    0 -0.24817038679E+02 -0.20195686730E+02 -0.10811096664E+04  0.10832591201E+04  0.60236693707E+02 0.  0.
        -13    1    3    3    0    0  0.11011908232E+02  0.65505302564E+01 -0.70104989691E+02  0.71266269365E+02  0.00000000000E+00 0.  1.
         14    1    3    3    0    0 -0.35828946911E+02 -0.26746216986E+02 -0.10110046767E+04  0.10119928507E+04  0.00000000000E+00 0. -1.
          1    1    1    2  501    0  0.24817038679E+02  0.20195686730E+02 -0.14849700985E+03  0.15190494760E+03  0.00000000000E+00 0. -1.
<mgrwt>
<rscale>  1 0.68207114E+02</rscale>
<asrwt>0</asrwt>
<pdfrwt beam="1">  1       21 0.42749105E-03 0.68207114E+02</pdfrwt>
<pdfrwt beam="2">  1        2 0.18959801E+00 0.68207114E+02</pdfrwt>
<totfact> 0.31820617E+06</totfact>
</mgrwt>
</event>
<event>
 6    2  0.7993170E+000  0.9178942E+02  0.7546771E-02  0.1298575E+00
         -1   -1    0    0    0  501 -0.00000000000E+00  0.00000000000E+00  0.25093882511E+03  0.25093882511E+03  0.00000000000E+00 0.  1.
         21   -1    0    0  501  502  0.00000000000E+00 -0.00000000000E+00 -0.13074365458E+03  0.13074365458E+03  0.00000000000E+00 0.  1.
         24    2    1    2    0    0  0.29352320874E+02  0.29680070632E+02  0.23886018189E+03  0.25588959336E+03  0.81748591222E+02 0.  0.
        -13    1    3    3    0    0 -0.78259003382E+01  0.39121383801E+02  0.18799747199E+03  0.19218422636E+03  0.00000000000E+00 0.  1.
         14    1    3    3    0    0  0.37178221212E+02 -0.94413131694E+01  0.50862709892E+02  0.63705366998E+02  0.00000000000E+00 0. -1.
         -2    1    1    2    0  502 -0.29352320874E+02 -0.29680070632E+02 -0.11866501135E+03  0.12579288633E+03  0.00000000000E+00 0.  1.
<mgrwt>
<rscale>  1 0.91789419E+02</rscale>
<asrwt>0</asrwt>
<pdfrwt beam="1">  1       21 0.20114408E-01 0.91789419E+02</pdfrwt>
<pdfrwt beam="2">  1       -1 0.38605973E-01 0.91789419E+02</pdfrwt>
<totfact> 0.13831327E+04</totfact>
</mgrwt>
</event>
<event>
 6    2  0.7993170E+000  0.8744748E+02  0.7546771E-02  0.1309153E+00
          2   -1    0    0  502    0 -0.00000000000E+00  0.00000000000E+00  0.91526434326E+03  0.91526434326E+03  0.00000000000E+00 0. -1.
         21   -1    0    0  501  502  0.00000000000E+00 -0.00000000000E+00 -0.54536767637E+01  0.54536767637E+01  0.00000000000E+00 0. -1.
         24    2    1    2    0    0 -0.26302364730E+02 -0.16308661220E+02  0.83763159852E+03  0.84218392121E+03  0.81787991166E+02 0.  0.
        -11    1    3    3    0    0  0.41661360333E+01 -0.15327011038E+02  0.29724697200E+02  0.33702100534E+02  0.00000000000E+00 0.  1.
         12    1    3    3    0    0 -0.30468500764E+02 -0.98165018165E+00  0.80790690132E+03  0.80848182068E+03  0.00000000000E+00 0. -1.
          1    1    1    2  501    0  0.26302364730E+02  0.16308661220E+02  0.72179067977E+02  0.78534098806E+02  0.00000000000E+00 0. -1.
<mgrwt>
<rscale>  1 0.87447483E+02</rscale>
<asrwt>0</asrwt>
<pdfrwt beam="1">  1       21 0.83902792E-03 0.87447483E+02</pdfrwt>
<pdfrwt beam="2">  1        2 0.14080978E+00 0.87447483E+02</pdfrwt>
<totfact> 0.17537468E+06</totfact>
</mgrwt>
</event>
<event>
 6    2  0.7993170E+000  0.9079436E+02  0.7546771E-02  0.1300939E+00
         -3   -1    0    0    0  501 -0.00000000000E+00  0.00000000000E+00  0.47641611665E+03  0.47641611665E+03  0.00000000000E+00 0.  1.
         21   -1    0    0  501  502  0.00000000000E+00 -0.00000000000E+00 -0.90243089771E+01  0.90243089771E+01  0.00000000000E+00 0. -1.
         24    2    1    2    0    0 -0.24164258494E+02 -0.32226192213E+02  0.33070287158E+03  0.34294023579E+03  0.81370616319E+02 0.  0.
        -13    1    3    3    0    0  0.20137337222E+02  0.29751772198E+01  0.19292004359E+03  0.19399099785E+03  0.00000000000E+00 0.  1.
         14    1    3    3    0    0 -0.44301595716E+02 -0.35201369433E+02  0.13778282799E+03  0.14894923793E+03  0.00000000000E+00 0. -1.
         -4    1    1    2    0  502  0.24164258494E+02  0.32226192213E+02  0.13668893610E+03  0.14250018984E+03  0.00000000000E+00 0.  1.
<mgrwt>
<rscale>  1 0.90794361E+02</rscale>
<asrwt>0</asrwt>
<pdfrwt beam="1">  1       21 0.13883556E-02 0.90794361E+02</pdfrwt>
<pdfrwt beam="2">  1       -3 0.73294768E-01 0.90794361E+02</pdfrwt>
<totfact> 0.17915604E+05</totfact>
</mgrwt>
</event>
<event>
 6    2  0.7993170E+000  0.9039249E+02  0.7546771E-02  0.1301904E+00
          2   -1    0    0  502    0 -0.00000000000E+00  0.00000000000E+00  0.15684297056E+04  0.15684297056E+04  0.00000000000E+00 0. -1.
         21   -1    0    0  501  502  0.00000000000E+00 -0.00000000000E+00 -0.40459964422E+01  0.40459964422E+01  0.00000000000E+00 0. -1.
         24    2    1    2    0    0  0.22111297324E+02 -0.35049765942E+02  0.14011803048E+04  0.14040929632E+04  0.80333100590E+02 0.  0.
        -11    1    3    3    0    0 -0.21597837665E+02 -0.27760155374E+02  0.30568962062E+03  0.30770641360E+03  0.00000000000E+00 0.  1.
         12    1    3    3    0    0  0.43709134989E+02 -0.72896105678E+01  0.10954906842E+04  0.10963865496E+04  0.00000000000E+00 0. -1.
          1    1    1    2  501    0 -0.22111297324E+02  0.35049765942E+02  0.16320340431E+03  0.16838273885E+03  0.00000000000E+00 0. -1.
<mgrwt>
<rscale>  1 0.90392492E+02</rscale>
<asrwt>0</asrwt>
<pdfrwt beam="1">  1       21 0.62246224E-03 0.90392492E+02</pdfrwt>
<pdfrwt beam="2">  1        2 0.24129639E+00 0.90392492E+02</pdfrwt>
<totfact> 0.12321631E+06</totfact>
</mgrwt>
</event>
<event>
 6    2  0.7993170E+000  0.7014253E+02  0.7546771E-02  0.1359609E+00
         21   -1    0    0  501  502  0.00000000000E+00  0.00000000000E+00  0.35600994405E+03  0.35600994405E+03  0.00000000000E+00 0. -1.
          4   -1    0    0  502    0 -0.00000000000E+00 -0.00000000000E+00 -0.82348206617E+02  0.82348206617E+02  0.00000000000E+00 0. -1.
         24    2    1    2    0    0  0.18541452113E+02 -0.17331181119E+02 -0.66853281099E+02  0.96898587716E+02  0.65389753190E+02 0.  0.
        -11    1    3    3    0    0  0.25862577823E+02 -0.35998891815E+02 -0.25997707923E+02  0.51387488368E+02  0.00000000000E+00 0.  1.
         12    1    3    3    0    0 -0.73211257103E+01  0.18667710696E+02 -0.40855573176E+02  0.45511099348E+02  0.00000000000E+00 0. -1.
          3    1    1    2  501    0 -0.18541452113E+02  0.17331181119E+02  0.34051501853E+03  0.34145956295E+03  0.00000000000E+00 0. -1.
<mgrwt>
<rscale>  1 0.70142534E+02</rscale>
<asrwt>0</asrwt>
<pdfrwt beam="1">  1       21 0.54770760E-01 0.70142534E+02</pdfrwt>
<pdfrwt beam="2">  1        4 0.12668955E-01 0.70142534E+02</pdfrwt>
<totfact> 0.62432884E+03</totfact>
</mgrwt>
</event>
<event>
 6    2  0.7993170E+000  0.8548200E+02  0.7546771E-02  0.1314177E+00
         21   -1    0    0  501  502  0.00000000000E+00  0.00000000000E+00  0.13356623096E+02  0.13356623096E+02  0.00000000000E+00 0. -1.
          2   -1    0    0  502    0 -0.00000000000E+00 -0.00000000000E+00 -0.55082481915E+03  0.55082481915E+03  0.00000000000E+00 0. -1.
         24    2    1    2    0    0  0.59814955359E+01  0.26060813870E+02 -0.52939324035E+03  0.53625029086E+03  0.81192531712E+02 0.  0.
        -11    1    3    3    0    0  0.17867718380E+02  0.28663124684E+02 -0.81896905229E+02  0.88588561128E+02  0.00000000000E+00 0.  1.
         12    1    3    3    0    0 -0.11886222844E+02 -0.26023108149E+01 -0.44749633512E+03  0.44766172973E+03  0.00000000000E+00 0. -1.
          1    1    1    2  501    0 -0.59814955359E+01 -0.26060813870E+02 -0.80749557052E+01  0.27931151391E+02  0.00000000000E+00 0. -1.
<mgrwt>
<rscale>  1 0.85481995E+02</rscale>
<asrwt>0</asrwt>
<pdfrwt beam="1">  1       21 0.20548650E-02 0.85481995E+02</pdfrwt>
<pdfrwt beam="2">  1        2 0.84742284E-01 0.85481995E+02</pdfrwt>
<totfact> 0.77593467E+05</totfact>
</mgrwt>
</event>
<event>
 6    2  0.7993170E+000  0.1206927E+03  0.7546771E-02  0.1241959E+00
         -1   -1    0    0    0  501 -0.00000000000E+00  0.00000000000E+00  0.93784896414E+03  0.93784896414E+03  0.00000000000E+00 0.  1.
         21   -1    0    0  501  502  0.00000000000E+00 -0.00000000000E+00 -0.12185548451E+02  0.12185548451E+02  0.00000000000E+00 0. -1.
         24    2    1    2    0    0 -0.24762723013E-01 -0.82997672586E+02  0.68268813682E+03  0.69327470186E+03  0.87624801332E+02 0.  0.
        -13    1    3    3    0    0 -0.42369184547E+01  0.66027423076E+00  0.35577565412E+03  0.35580149453E+03  0.00000000000E+00 0.  1.
         14    1    3    3    0    0  0.42121557316E+01 -0.83657946817E+02  0.32691248270E+03  0.33747320733E+03  0.00000000000E+00 0. -1.
         -2    1    1    2    0  502  0.24762723013E-01  0.82997672586E+02  0.24297527887E+03  0.25675981074E+03  0.00000000000E+00 0.  1.
<mgrwt>
<rscale>  1 0.12069267E+03</rscale>
<asrwt>0</asrwt>
<pdfrwt beam="1">  1       21 0.18747005E-02 0.12069267E+03</pdfrwt>
<pdfrwt beam="2">  1       -1 0.14428440E+00 0.12069267E+03</pdfrwt>
<totfact> 0.53437900E+04</totfact>
</mgrwt>
</event>
<event>
 6    2  0.7993170E+000  0.8546560E+02  0.7546771E-02  0.1314219E+00
          2   -1    0    0  502    0 -0.00000000000E+00  0.00000000000E+00  0.21591196710E+04  0.21591196710E+04  0.00000000000E+00 0. -1.
         21   -1    0    0  501  502  0.00000000000E+00 -0.00000000000E+00 -0.17722413404E+01  0.17722413404E+01  0.00000000000E+00 0.  1.
         24    2    1    2    0    0 -0.10855150446E+02  0.35859757034E+02  0.13825289695E+04  0.13851681195E+04  0.76815437907E+02 0.  0.
        -11    1    3    3    0    0  0.21334159497E+02 -0.32665412467E+01  0.14450829962E+03  0.14611114027E+03  0.00000000000E+00 0.  1.
         12    1    3    3    0    0 -0.32189309943E+02  0.39126298281E+02  0.12380206698E+04  0.12390569793E+04  0.00000000000E+00 0. -1.
          1    1    1    2  501    0  0.10855150446E+02 -0.35859757034E+02  0.77481846015E+03  0.77572379276E+03  0.00000000000E+00 0. -1.
<mgrwt>
<rscale>  1 0.85465595E+02</rscale>
<asrwt>0</asrwt>
<pdfrwt beam="1">  1       21 0.27265424E-03 0.85465595E+02</pdfrwt>
<pdfrwt beam="2">  1        2 0.33217015E+00 0.85465595E+02</pdfrwt>
<totfact> 0.21811763E+06</totfact>
</mgrwt>
</event>
<event>
 6    2  0.7993170E+000  0.9626586E+02  0.7546771E-02  0.1288350E+00
         21   -1    0    0  501  502  0.00000000000E+00  0.00000000000E+00  0.43219078549E+02  0.43219078549E+02  0.00000000000E+00 0. -1.
          2   -1    0    0  502    0 -0.00000000000E+00 -0.00000000000E+00 -0.13937313462E+03  0.13937313462E+03  0.00000000000E+00 0. -1.
         24    2    1    2    0    0  0.24954945329E+02  0.48081988074E+02 -0.82364121996E+02  0.12669239961E+03  0.79576935442E+02 0.  0.
        -11    1    3    3    0    0 -0.10381355299E+02  0.39963410028E+01  0.12215818363E+02  0.16521788569E+02  0.00000000000E+00 0.  1.
         12    1    3    3    0    0  0.35336300628E+02  0.44085647071E+02 -0.94579940359E+02  0.11017061104E+03  0.00000000000E+00 0. -1.
          1    1    1    2  501    0 -0.24954945329E+02 -0.48081988074E+02 -0.13789934072E+02  0.55899813553E+02  0.00000000000E+00 0. -1.
<mgrwt>
<rscale>  1 0.96265859E+02</rscale>
<asrwt>0</asrwt>
<pdfrwt beam="1">  1       21 0.66490889E-02 0.96265859E+02</pdfrwt>
<pdfrwt beam="2">  1        2 0.21442021E-01 0.96265859E+02</pdfrwt>
<totfact> 0.49266889E+05</totfact>
</mgrwt>
</event>
<event>
 6    2  0.7993170E+000  0.8483987E+02  0.7546771E-02  0.1315852E+00
         21   -1    0    0  501  502  0.00000000000E+00  0.00000000000E+00  0.82483182284E+02  0.82483182284E+02  0.00000000000E+00 0.  1.
         -3   -1    0    0    0  501 -0.00000000000E+00 -0.00000000000E+00 -0.38308836971E+02  0.38308836971E+02  0.00000000000E+00 0.  1.
         24    2    1    2    0    0 -0.22492464264E+02 -0.73998106749E+01  0.20442717687E+02  0.87268023423E+02  0.81468613951E+02 0.  0.
        -13    1    3    3    0    0 -0.48641147607E+02  0.81048428968E+01  0.26926609129E+02  0.56184446229E+02  0.00000000000E+00 0.  1.
         14    1    3    3    0    0  0.26148683343E+02 -0.15504653572E+02 -0.64838914426E+01  0.31083577194E+02  0.00000000000E+00 0. -1.
         -4    1    1    2    0  502  0.22492464264E+02  0.73998106749E+01  0.23731627627E+02  0.33523995832E+02  0.00000000000E+00 0.  1.
<mgrwt>
<rscale>  1 0.84839868E+02</rscale>
<asrwt>0</asrwt>
<pdfrwt beam="1">  1       21 0.12689720E-01 0.84839868E+02</pdfrwt>
<pdfrwt beam="2">  1       -3 0.58936672E-02 0.84839868E+02</pdfrwt>
<totfact> 0.40617849E+05</totfact>
</mgrwt>
</event>
<event>
 6    2  0.7993170E+000  0.8853622E+02  0.7546771E-02  0.1306436E+00
         -1   -1    0    0    0  501 -0.00000000000E+00  0.00000000000E+00  0.97608111047E+02  0.97608111047E+02  0.00000000000E+00 0.  1.
         21   -1    0    0  501  502  0.00000000000E+00 -0.00000000000E+00 -0.55374517412E+02  0.55374517412E+02  0.00000000000E+00 0.  1.
         24    2    1    2    0    0 -0.82207335966E+01 -0.26625325146E+02  0.70585241947E+02  0.11322958629E+03  0.84036744522E+02 0.  0.
        -13    1    3    3    0    0  0.30278386073E+01 -0.18235517682E+02  0.88535771004E+02  0.90444926110E+02  0.00000000000E+00 0.  1.
         14    1    3    3    0    0 -0.11248572204E+02 -0.83898074636E+01 -0.17950529057E+02  0.22784660176E+02  0.00000000000E+00 0. -1.
         -2    1    1    2    0  502  0.82207335966E+01  0.26625325146E+02 -0.28351648312E+02  0.39753042173E+02  0.00000000000E+00 0.  1.
<mgrwt>
<rscale>  1 0.88536223E+02</rscale>
<asrwt>0</asrwt>
<pdfrwt beam="1">  1       21 0.85191565E-02 0.88536223E+02</pdfrwt>
<pdfrwt beam="2">  1       -1 0.15016632E-01 0.88536223E+02</pdfrwt>
<totfact> 0.29241793E+05</totfact>
</mgrwt>
</event>
<event>
 6    2  0.7993170E+000  0.8757003E+02  0.7546771E-02  0.1308845E+00
         21   -1    0    0  501  502  0.00000000000E+00  0.00000000000E+00  0.20487146131E+01  0.20487146131E+01  0.00000000000E+00 0. -1.
          2   -1    0    0  502    0 -0.00000000000E+00 -0.00000000000E+00 -0.22297534508E+04  0.22297534508E+04  0.00000000000E+00 0. -1.
         24    2    1    2    0    0  0.21149227713E+02 -0.23141422748E+02 -0.20038901084E+04  0.20058026015E+04  0.81766095305E+02 0.  0.
        -13    1    3    3    0    0 -0.25102404597E+02  0.13533861972E+02 -0.67487865444E+03  0.67548093560E+03  0.00000000000E+00 0.  1.
         14    1    3    3    0    0  0.46251632310E+02 -0.36675284720E+02 -0.13290114539E+04  0.13303216659E+04  0.00000000000E+00 0. -1.
          1    1    1    2  501    0 -0.21149227713E+02  0.23141422748E+02 -0.22381462777E+03  0.22599956390E+03  0.00000000000E+00 0. -1.
<mgrwt>
<rscale>  1 0.87570027E+02</rscale>
<asrwt>0</asrwt>
<pdfrwt beam="1">  1       21 0.31518628E-03 0.87570027E+02</pdfrwt>
<pdfrwt beam="2">  1        2 0.34303963E+00 0.87570027E+02</pdfrwt>
<totfact> 0.16157774E+06</totfact>
</mgrwt>
</event>
<event>
 6    2  0.7993170E+000  0.9155737E+02  0.7546771E-02  0.1299124E+00
         21   -1    0    0  501  502  0.00000000000E+00  0.00000000000E+00  0.82215275109E+01  0.82215275109E+01  0.00000000000E+00 0. -1.
          2   -1    0    0  502    0 -0.00000000000E+00 -0.00000000000E+00 -0.58786494589E+03  0.58786494589E+03  0.00000000000E+00 0. -1.
         24    2    1    2    0    0 -0.32365066713E+02  0.20129675008E+02 -0.29441572544E+03  0.30832348381E+03  0.83246921401E+02 0.  0.
        -13    1    3    3    0    0  0.26180739011E+02  0.75512852127E+00 -0.52491669020E+02  0.58663247700E+02  0.00000000000E+00 0.  1.
         14    1    3    3    0    0 -0.58545805724E+02  0.19374546486E+02 -0.24192405642E+03  0.24966023611E+03  0.00000000000E+00 0. -1.
          1    1    1    2  501    0  0.32365066713E+02 -0.20129675008E+02 -0.28522769294E+03  0.28776298960E+03  0.00000000000E+00 0. -1.
<mgrwt>
<rscale>  1 0.91557366E+02</rscale>
<asrwt>0</asrwt>
<pdfrwt beam="1">  1       21 0.12648501E-02 0.91557366E+02</pdfrwt>
<pdfrwt beam="2">  1        2 0.90440780E-01 0.91557366E+02</pdfrwt>
<totfact> 0.15700586E+06</totfact>
</mgrwt>
</event>
<event>
 6    2  0.7993170E+000  0.8465120E+02  0.7546771E-02  0.1316347E+00
         21   -1    0    0  501  502  0.00000000000E+00  0.00000000000E+00  0.72486375674E+01  0.72486375674E+01  0.00000000000E+00 0. -1.
          2   -1    0    0  502    0 -0.00000000000E+00 -0.00000000000E+00 -0.20312983104E+04  0.20312983104E+04  0.00000000000E+00 0. -1.
         24    2    1    2    0    0 -0.19826527115E+02 -0.12059402704E+02 -0.20092302467E+04  0.20110126828E+04  0.81408264109E+02 0.  0.
        -13    1    3    3    0    0 -0.15786224322E+02 -0.30080688870E+02 -0.34260566366E+03  0.34428577300E+03  0.00000000000E+00 0.  1.
         14    1    3    3    0    0 -0.40403027934E+01  0.18021286166E+02 -0.16666245831E+04  0.16667269098E+04  0.00000000000E+00 0. -1.
          1    1    1    2  501    0  0.19826527115E+02  0.12059402704E+02 -0.14819426118E+02  0.27534265225E+02  0.00000000000E+00 0. -1.
<mgrwt>
<rscale>  1 0.84651201E+02</rscale>
<asrwt>0</asrwt>
<pdfrwt beam="1">  1       21 0.11151744E-02 0.84651201E+02</pdfrwt>
<pdfrwt beam="2">  1        2 0.31250759E+00 0.84651201E+02</pdfrwt>
<totfact> 0.29098261E+05</totfact>
</mgrwt>
</event>
<event>
 6    2  0.7993170E+000  0.9207947E+02  0.7546771E-02  0.1297893E+00
         21   -1    0    0  501  502  0.00000000000E+00  0.00000000000E+00  0.27083925639E+01  0.27083925639E+01  0.00000000000E+00 0. -1.
          2   -1    0    0  502    0 -0.00000000000E+00 -0.00000000000E+00 -0.13995897275E+04  0.13995897275E+04  0.00000000000E+00 0. -1.
         24    2    1    2    0    0  0.28555355855E+02  0.89626359980E+01 -0.11294756866E+04  0.11332228185E+04  0.87079804647E+02 0.  0.
        -11    1    3    3    0    0 -0.13232799331E+02  0.15037808829E+02 -0.67538218637E+02  0.70446104571E+02  0.00000000000E+00 0.  1.
         12    1    3    3    0    0  0.41788155186E+02 -0.60751728310E+01 -0.10619374680E+04  0.10627767139E+04  0.00000000000E+00 0. -1.
          1    1    1    2  501    0 -0.28555355855E+02 -0.89626359980E+01 -0.26740564826E+03  0.26907530157E+03  0.00000000000E+00 0. -1.
<mgrwt>
<rscale>  1 0.92079474E+02</rscale>
<asrwt>0</asrwt>
<pdfrwt beam="1">  1       21 0.41667657E-03 0.92079474E+02</pdfrwt>
<pdfrwt beam="2">  1        2 0.21532109E+00 0.92079474E+02</pdfrwt>
<totfact> 0.27868725E+06</totfact>
</mgrwt>
</event>
<event>
 6    2  0.7993170E+000  0.1025553E+03  0.7546771E-02  0.1275012E+00
         21   -1    0    0  501  502  0.00000000000E+00  0.00000000000E+00  0.18777219147E+02  0.18777219147E+02  0.00000000000E+00 0. -1.
          2   -1    0    0  502    0 -0.00000000000E+00 -0.00000000000E+00 -0.26264206349E+04  0.26264206349E+04  0.00000000000E+00 0. -1.
         24    2    1    2    0    0  0.50388237418E+02  0.41110472994E+02 -0.25658418401E+04  0.25678905634E+04  0.79300389272E+02 0.  0.
        -11    1    3    3    0    0 -0.14090356721E+02  0.31319238907E+01 -0.11442424348E+03  0.11533106518E+03  0.00000000000E+00 0.  1.
         12    1    3    3    0    0  0.64478594139E+02  0.37978549103E+02 -0.24514175967E+04  0.24525594983E+04  0.00000000000E+00 0. -1.
          1    1    1    2  501    0 -0.50388237418E+02 -0.41110472994E+02 -0.41801575654E+02  0.77307290647E+02  0.00000000000E+00 0. -1.
<mgrwt>
<rscale>  1 0.10255534E+03</rscale>
<asrwt>0</asrwt>
<pdfrwt beam="1">  1       21 0.28888049E-02 0.10255534E+03</pdfrwt>
<pdfrwt beam="2">  1        2 0.40406444E+00 0.10255534E+03</pdfrwt>
<totfact> 0.31295876E+04</totfact>
</mgrwt>
</event>
<event>
 6    2  0.7993170E+000  0.1065508E+03  0.7546771E-02  0.1267094E+00
         21   -1    0    0  501  502  0.00000000000E+00  0.00000000000E+00  0.31353841506E+02  0.31353841506E+02  0.00000000000E+00 0. -1.
          2   -1    0    0  502    0 -0.00000000000E+00 -0.00000000000E+00 -0.54848226107E+03  0.54848226107E+03  0.00000000000E+00 0. -1.
         24    2    1    2    0    0  0.41599995083E+02 -0.22439894498E+02 -0.52158788633E+03  0.53235984219E+03  0.95493297957E+02 0.  0.
        -11    1    3    3    0    0  0.23571968387E+02  0.17862198543E+02 -0.45743837208E+02  0.54471960429E+02  0.00000000000E+00 0.  1.
         12    1    3    3    0    0  0.18028026696E+02 -0.40302093040E+02 -0.47584404913E+03  0.47788788177E+03  0.00000000000E+00 0. -1.
          1    1    1    2  501    0 -0.41599995083E+02  0.22439894498E+02  0.44594667700E+01  0.47476260382E+02  0.00000000000E+00 0. -1.
<mgrwt>
<rscale>  1 0.10655083E+03</rscale>
<asrwt>0</asrwt>
<pdfrwt beam="1">  1       21 0.48236677E-02 0.10655083E+03</pdfrwt>
<pdfrwt beam="2">  1        2 0.84381889E-01 0.10655083E+03</pdfrwt>
<totfact> 0.19657670E+05</totfact>
</mgrwt>
</event>
<event>
 6    2  0.7993170E+000  0.8622559E+02  0.7546771E-02  0.1312258E+00
         21   -1    0    0  501  502  0.00000000000E+00  0.00000000000E+00  0.43706124579E+02  0.43706124579E+02  0.00000000000E+00 0. -1.
         -3   -1    0    0    0  501 -0.00000000000E+00 -0.00000000000E+00 -0.70276387314E+02  0.70276387314E+02  0.00000000000E+00 0.  1.
         24    2    1    2    0    0 -0.20263686637E+02  0.11291985251E+02 -0.28220796595E+02  0.90726325854E+02  0.83046534639E+02 0.  0.
        -11    1    3    3    0    0 -0.33424630114E+02  0.15545020475E+02 -0.51688151159E+02  0.63486364914E+02  0.00000000000E+00 0.  1.
         12    1    3    3    0    0  0.13160943477E+02 -0.42530352238E+01  0.23467354563E+02  0.27239960940E+02  0.00000000000E+00 0. -1.
         -4    1    1    2    0  502  0.20263686637E+02 -0.11291985251E+02  0.16505338600E+01  0.23256186039E+02  0.00000000000E+00 0.  1.
<mgrwt>
<rscale>  1 0.86225593E+02</rscale>
<asrwt>0</asrwt>
<pdfrwt beam="1">  1       21 0.67240192E-02 0.86225593E+02</pdfrwt>
<pdfrwt beam="2">  1       -3 0.10811752E-01 0.86225593E+02</pdfrwt>
<totfact> 0.45786940E+05</totfact>
</mgrwt>
</event>
<event>
 6    2  0.7993170E+000  0.1636599E+03  0.7546771E-02  0.1184626E+00
          2   -1    0    0  502    0 -0.00000000000E+00  0.00000000000E+00  0.69545275957E+02  0.69545275957E+02  0.00000000000E+00 0. -1.
         21   -1    0    0  501  502  0.00000000000E+00 -0.00000000000E+00 -0.36995981901E+03  0.36995981901E+03  0.00000000000E+00 0. -1.
         24    2    1    2    0    0 -0.12911338872E+03 -0.58403708423E+02 -0.22717985873E+03  0.27999152410E+03  0.81873714034E+02 0.  0.
        -11    1    3    3    0    0 -0.19048204583E+02  0.19365805807E+02 -0.24406456350E+02  0.36517716850E+02  0.00000000000E+00 0.  1.
         12    1    3    3    0    0 -0.11006518414E+03 -0.77769514230E+02 -0.20277340238E+03  0.24347380725E+03  0.00000000000E+00 0. -1.
          1    1    1    2  501    0  0.12911338872E+03  0.58403708423E+02 -0.73234684325E+02  0.15951357087E+03  0.00000000000E+00 0. -1.
<mgrwt>
<rscale>  1 0.16365991E+03</rscale>
<asrwt>0</asrwt>
<pdfrwt beam="1">  1       21 0.56916895E-01 0.16365991E+03</pdfrwt>
<pdfrwt beam="2">  1        2 0.10699273E-01 0.16365991E+03</pdfrwt>
<totfact> 0.20739187E+04</totfact>
</mgrwt>
</event>
<event>
 6    2  0.7993170E+000  0.8539842E+02  0.7546771E-02  0.1314394E+00
         21   -1    0    0  501  502  0.00000000000E+00  0.00000000000E+00  0.13460718697E+03  0.13460718697E+03  0.00000000000E+00 0.  1.
          2   -1    0    0  502    0 -0.00000000000E+00 -0.00000000000E+00 -0.65866467570E+02  0.65866467570E+02  0.00000000000E+00 0. -1.
         24    2    1    2    0    0 -0.20967233578E+02 -0.19056083965E+02  0.11679671284E+03  0.14468711740E+03  0.80561346756E+02 0.  0.
        -11    1    3    3    0    0 -0.21948185677E+01  0.28928425294E+02  0.67086698243E+02  0.73091012441E+02  0.00000000000E+00 0.  1.
         12    1    3    3    0    0 -0.18772415010E+02 -0.47984509258E+02  0.49710014601E+02  0.71596104961E+02  0.00000000000E+00 0. -1.
          1    1    1    2  501    0  0.20967233578E+02  0.19056083965E+02 -0.48055993443E+02  0.55786537137E+02  0.00000000000E+00 0. -1.
<mgrwt>
<rscale>  1 0.85398418E+02</rscale>
<asrwt>0</asrwt>
<pdfrwt beam="1">  1       21 0.20708798E-01 0.85398418E+02</pdfrwt>
<pdfrwt beam="2">  1        2 0.10133303E-01 0.85398418E+02</pdfrwt>
<totfact> 0.15829634E+05</totfact>
</mgrwt>
</event>
<event>
 6    2  0.7993170E+000  0.1628553E+03  0.7546771E-02  0.1185510E+00
          2   -1    0    0  502    0 -0.00000000000E+00  0.00000000000E+00  0.15730709837E+04  0.15730709837E+04  0.00000000000E+00 0. -1.
         21   -1    0    0  501  502  0.00000000000E+00 -0.00000000000E+00 -0.19801222500E+02  0.19801222500E+02  0.00000000000E+00 0. -1.
         24    2    1    2    0    0  0.12982796038E+03 -0.55157863339E+02  0.12222286935E+04  0.12330307443E+04  0.81388869319E+02 0.  0.
        -13    1    3    3    0    0  0.43641958042E+02 -0.62447130915E+02  0.60105961030E+03  0.60586873149E+03  0.00000000000E+00 0.  1.
         14    1    3    3    0    0  0.86186002333E+02  0.72892675759E+01  0.62116908318E+03  0.62716201281E+03  0.00000000000E+00 0. -1.
          1    1    1    2  501    0 -0.12982796038E+03  0.55157863339E+02  0.33104106773E+03  0.35984146191E+03  0.00000000000E+00 0. -1.
<mgrwt>
<rscale>  1 0.16285526E+03</rscale>
<asrwt>0</asrwt>
<pdfrwt beam="1">  1       21 0.30463432E-02 0.16285526E+03</pdfrwt>
<pdfrwt beam="2">  1        2 0.24201082E+00 0.16285526E+03</pdfrwt>
<totfact> 0.99372305E+04</totfact>
</mgrwt>
</event>
<event>
 6    2  0.7993170E+000  0.9074189E+02  0.7546771E-02  0.1301065E+00
         21   -1    0    0  501  502  0.00000000000E+00  0.00000000000E+00  0.56449085884E+02  0.56449085884E+02  0.00000000000E+00 0.  1.
          2   -1    0    0  502    0 -0.00000000000E+00 -0.00000000000E+00 -0.80223160687E+02  0.80223160687E+02  0.00000000000E+00 0. -1.
         24    2    1    2    0    0  0.20367369991E+02  0.30598928877E+02  0.36441688186E+01  0.90815030212E+02  0.82963639851E+02 0.  0.
        -11    1    3    3    0    0 -0.13751351212E+02  0.10142758487E+01  0.33805816093E+02  0.36509746882E+02  0.00000000000E+00 0.  1.
         12    1    3    3    0    0  0.34118721203E+02  0.29584653029E+02 -0.30161647274E+02  0.54305283331E+02  0.00000000000E+00 0. -1.
          1    1    1    2  501    0 -0.20367369991E+02 -0.30598928877E+02 -0.27418243622E+02  0.45857216358E+02  0.00000000000E+00 0. -1.
<mgrwt>
<rscale>  1 0.90741885E+02</rscale>
<asrwt>0</asrwt>
<pdfrwt beam="1">  1       21 0.86844748E-02 0.90741885E+02</pdfrwt>
<pdfrwt beam="2">  1        2 0.12342025E-01 0.90741885E+02</pdfrwt>
<totfact> 0.58546823E+05</totfact>
</mgrwt>
</event>
<event>
 6    2  0.7993170E+000  0.6680237E+02  0.7546771E-02  0.1371317E+00
         21   -1    0    0  501  502  0.00000000000E+00  0.00000000000E+00  0.45505399322E+01  0.45505399322E+01  0.00000000000E+00 0. -1.
         -3   -1    0    0    0  501 -0.00000000000E+00 -0.00000000000E+00 -0.56310758361E+03  0.56310758361E+03  0.00000000000E+00 0.  1.
         24    2    1    2    0    0 -0.98217752216E+01  0.30749695987E+02 -0.42728297837E+03  0.43247346726E+03  0.58485427304E+02 0.  0.
        -13    1    3    3    0    0  0.21858388345E+01  0.36865971572E+02 -0.40310972832E+03  0.40479788885E+03  0.00000000000E+00 0.  1.
         14    1    3    3    0    0 -0.12007614056E+02 -0.61162755851E+01 -0.24173250057E+02  0.27675578416E+02  0.00000000000E+00 0. -1.
         -4    1    1    2    0  502  0.98217752216E+01 -0.30749695987E+02 -0.13127406530E+03  0.13518465628E+03  0.00000000000E+00 0.  1.
<mgrwt>
<rscale>  1 0.66802367E+02</rscale>
<asrwt>0</asrwt>
<pdfrwt beam="1">  1       21 0.70008347E-03 0.66802367E+02</pdfrwt>
<pdfrwt beam="2">  1       -3 0.86631886E-01 0.66802367E+02</pdfrwt>
<totfact> 0.34457854E+05</totfact>
</mgrwt>
</event>
<event>
 6    2  0.7993170E+000  0.8394339E+02  0.7546771E-02  0.1318219E+00
         21   -1    0    0  501  502  0.00000000000E+00  0.00000000000E+00  0.14013255465E+02  0.14013255465E+02  0.00000000000E+00 0.  1.
          2   -1    0    0  502    0 -0.00000000000E+00 -0.00000000000E+00 -0.23447211901E+03  0.23447211901E+03  0.00000000000E+00 0. -1.
         24    2    1    2    0    0 -0.19961354810E+02  0.13911840741E+02 -0.12948584540E+03  0.15431486408E+03  0.80339891194E+02 0.  0.
        -11    1    3    3    0    0 -0.28692262462E+02  0.41183461886E+02 -0.54723197612E+02  0.74255988412E+02  0.00000000000E+00 0.  1.
         12    1    3    3    0    0  0.87309076525E+01 -0.27271621145E+02 -0.74762647789E+02  0.80058875665E+02  0.00000000000E+00 0. -1.
          1    1    1    2  501    0  0.19961354810E+02 -0.13911840741E+02 -0.90973018147E+02  0.94170510402E+02  0.00000000000E+00 0. -1.
<mgrwt>
<rscale>  1 0.83943392E+02</rscale>
<asrwt>0</asrwt>
<pdfrwt beam="1">  1       21 0.21558856E-02 0.83943392E+02</pdfrwt>
<pdfrwt beam="2">  1        2 0.36072631E-01 0.83943392E+02</pdfrwt>
<totfact> 0.17646637E+06</totfact>
</mgrwt>
</event>
<event>
 6    2  0.7993170E+000  0.8621998E+02  0.7546771E-02  0.1312273E+00
         21   -1    0    0  501  502  0.00000000000E+00  0.00000000000E+00  0.13244616036E+03  0.13244616036E+03  0.00000000000E+00 0. -1.
          2   -1    0    0  502    0 -0.00000000000E+00 -0.00000000000E+00 -0.43555560298E+03  0.43555560298E+03  0.00000000000E+00 0. -1.
         24    2    1    2    0    0  0.31170669700E+02  0.16127930379E+02 -0.42886225245E+03  0.43744338571E+03  0.78753814775E+02 0.  0.
        -13    1    3    3    0    0  0.27922812948E+02  0.31269709049E+00 -0.43175914511E+02  0.51419265420E+02  0.00000000000E+00 0.  1.
         14    1    3    3    0    0  0.32478567519E+01  0.15815233289E+02 -0.38568633793E+03  0.38602412029E+03  0.00000000000E+00 0. -1.
          1    1    1    2  501    0 -0.31170669700E+02 -0.16127930379E+02  0.12575280983E+03  0.13055837763E+03  0.00000000000E+00 0. -1.
<mgrwt>
<rscale>  1 0.86219975E+02</rscale>
<asrwt>0</asrwt>
<pdfrwt beam="1">  1       21 0.20376333E-01 0.86219975E+02</pdfrwt>
<pdfrwt beam="2">  1        2 0.67008554E-01 0.86219975E+02</pdfrwt>
<totfact> 0.20474308E+04</totfact>
</mgrwt>
</event>
<event>
 6    2  0.7993170E+000  0.8217299E+02  0.7546771E-02  0.1322996E+00
         21   -1    0    0  501  502  0.00000000000E+00  0.00000000000E+00  0.19672052611E+02  0.19672052611E+02  0.00000000000E+00 0.  1.
         -1   -1    0    0    0  501 -0.00000000000E+00 -0.00000000000E+00 -0.35218571622E+03  0.35218571622E+03  0.00000000000E+00 0.  1.
         24    2    1    2    0    0 -0.19044981587E+02 -0.99649947815E+01 -0.33946353973E+03  0.34926765545E+03  0.79311965645E+02 0.  0.
        -11    1    3    3    0    0 -0.15072221483E+02  0.29213611022E+02 -0.24083571862E+03  0.24306881801E+03  0.00000000000E+00 0.  1.
         12    1    3    3    0    0 -0.39727601035E+01 -0.39178605803E+02 -0.98627821111E+02  0.10619883743E+03  0.00000000000E+00 0. -1.
         -2    1    1    2    0  502  0.19044981587E+02  0.99649947815E+01  0.69498761167E+01  0.22590113383E+02  0.00000000000E+00 0.  1.
<mgrwt>
<rscale>  1 0.82172990E+02</rscale>
<asrwt>0</asrwt>
<pdfrwt beam="1">  1       21 0.30264700E-02 0.82172990E+02</pdfrwt>
<pdfrwt beam="2">  1       -1 0.54182412E-01 0.82172990E+02</pdfrwt>
<totfact> 0.19276029E+05</totfact>
</mgrwt>
</event>
<event>
 6    2  0.7993170E+000  0.8710889E+02  0.7546771E-02  0.1310008E+00
         21   -1    0    0  501  502  0.00000000000E+00  0.00000000000E+00  0.89246354336E+02  0.89246354336E+02  0.00000000000E+00 0.  1.
          2   -1    0    0  502    0 -0.00000000000E+00 -0.00000000000E+00 -0.42209728954E+02  0.42209728954E+02  0.00000000000E+00 0. -1.
         24    2    1    2    0    0  0.22216186929E+02  0.27132092657E+02  0.27678492400E+02  0.91400537780E+02  0.79738635249E+02 0.  0.
        -13    1    3    3    0    0  0.78455625477E+01  0.23942971423E+02  0.54927027162E+02  0.60430100488E+02  0.00000000000E+00 0.  1.
         14    1    3    3    0    0  0.14370624381E+02  0.31891212338E+01 -0.27248534762E+02  0.30970437291E+02  0.00000000000E+00 0. -1.
          1    1    1    2  501    0 -0.22216186929E+02 -0.27132092657E+02  0.19358132983E+02  0.40055545511E+02  0.00000000000E+00 0. -1.
<mgrwt>
<rscale>  1 0.87108894E+02</rscale>
<asrwt>0</asrwt>
<pdfrwt beam="1">  1       21 0.13730208E-01 0.87108894E+02</pdfrwt>
<pdfrwt beam="2">  1        2 0.64938045E-02 0.87108894E+02</pdfrwt>
<totfact> 0.57602121E+05</totfact>
</mgrwt>
</event>
<event>
 6    2  0.7993170E+000  0.9469128E+02  0.7546771E-02  0.1291873E+00
         21   -1    0    0  501  502  0.00000000000E+00  0.00000000000E+00  0.35599826937E+02  0.35599826937E+02  0.00000000000E+00 0.  1.
         -3   -1    0    0    0  501 -0.00000000000E+00 -0.00000000000E+00 -0.38090459107E+03  0.38090459107E+03  0.00000000000E+00 0.  1.
         24    2    1    2    0    0 -0.31226818478E+02  0.39606874001E+02 -0.35300423670E+03  0.36548382865E+03  0.80141245395E+02 0.  0.
        -13    1    3    3    0    0 -0.45929789232E+02  0.20523606558E+02 -0.10626467172E+03  0.11757101862E+03  0.00000000000E+00 0.  1.
         14    1    3    3    0    0  0.14702970754E+02  0.19083267442E+02 -0.24673956499E+03  0.24791281003E+03  0.00000000000E+00 0. -1.
         -4    1    1    2    0  502  0.31226818478E+02 -0.39606874001E+02  0.76994725721E+01  0.51020589356E+02  0.00000000000E+00 0.  1.
<mgrwt>
<rscale>  1 0.94691277E+02</rscale>
<asrwt>0</asrwt>
<pdfrwt beam="1">  1       21 0.54768964E-02 0.94691277E+02</pdfrwt>
<pdfrwt beam="2">  1       -3 0.58600707E-01 0.94691277E+02</pdfrwt>
<totfact> 0.30889715E+04</totfact>
</mgrwt>
</event>
<event>
 6    2  0.7993170E+000  0.1028268E+03  0.7546771E-02  0.1274461E+00
          4   -1    0    0  502    0 -0.00000000000E+00  0.00000000000E+00  0.45170952258E+02  0.45170952258E+02  0.00000000000E+00 0. -1.
         21   -1    0    0  501  502  0.00000000000E+00 -0.00000000000E+00 -0.16976917995E+03  0.16976917995E+03  0.00000000000E+00 0.  1.
         24    2    1    2    0    0  0.18245537934E+02 -0.61831704858E+02 -0.10636883435E+03  0.14794483266E+03  0.80107959721E+02 0.  0.
        -13    1    3    3    0    0  0.45294681865E+02 -0.45567748932E+02 -0.94398552555E+02  0.11418894286E+03  0.00000000000E+00 0.  1.
         14    1    3    3    0    0 -0.27049143931E+02 -0.16263955925E+02 -0.11970281790E+02  0.33755889795E+02  0.00000000000E+00 0. -1.
          3    1    1    2  501    0 -0.18245537934E+02  0.61831704858E+02 -0.18229393349E+02  0.66995299551E+02  0.00000000000E+00 0. -1.
<mgrwt>
<rscale>  1 0.10282677E+03</rscale>
<asrwt>0</asrwt>
<pdfrwt beam="1">  1       21 0.26118335E-01 0.10282677E+03</pdfrwt>
<pdfrwt beam="2">  1        4 0.69493772E-02 0.10282677E+03</pdfrwt>
<totfact> 0.75830432E+04</totfact>
</mgrwt>
</event>
<event>
 6    2  0.7993170E+000  0.8421749E+02  0.7546771E-02  0.1317492E+00
         21   -1    0    0  501  502  0.00000000000E+00  0.00000000000E+00  0.19069890686E+02  0.19069890686E+02  0.00000000000E+00 0.  1.
          2   -1    0    0  502    0 -0.00000000000E+00 -0.00000000000E+00 -0.19798916950E+03  0.19798916950E+03  0.00000000000E+00 0. -1.
         24    2    1    2    0    0 -0.18213333052E+02 -0.11867497000E+02 -0.81328754348E+02  0.11707669448E+03  0.81363524513E+02 0.  0.
        -11    1    3    3    0    0 -0.11022395716E+02 -0.30362589172E+02  0.10730233691E+01  0.32319211125E+02  0.00000000000E+00 0.  1.
         12    1    3    3    0    0 -0.71909373363E+01  0.18495092172E+02 -0.82401777717E+02  0.84757483358E+02  0.00000000000E+00 0. -1.
          1    1    1    2  501    0  0.18213333052E+02  0.11867497000E+02 -0.97590524462E+02  0.99982365699E+02  0.00000000000E+00 0. -1.
<mgrwt>
<rscale>  1 0.84217493E+02</rscale>
<asrwt>0</asrwt>
<pdfrwt beam="1">  1       21 0.29338293E-02 0.84217493E+02</pdfrwt>
<pdfrwt beam="2">  1        2 0.30459872E-01 0.84217493E+02</pdfrwt>
<totfact> 0.12852999E+06</totfact>
</mgrwt>
</event>
<event>
 6    2  0.7993170E+000  0.1078424E+03  0.7546771E-02  0.1264618E+00
         21   -1    0    0  501  502  0.00000000000E+00  0.00000000000E+00  0.43603497543E+01  0.43603497543E+01  0.00000000000E+00 0.  1.
          2   -1    0    0  502    0 -0.00000000000E+00 -0.00000000000E+00 -0.97596572298E+03  0.97596572298E+03  0.00000000000E+00 0. -1.
         24    2    1    2    0    0  0.18155522306E+02 -0.13131544311E+02 -0.82489435897E+03  0.83191386922E+03  0.10548896579E+03 0.  0.
        -13    1    3    3    0    0  0.14961451712E+02  0.16218985792E+02 -0.34402884451E+02  0.40871249014E+02  0.00000000000E+00 0.  1.
         14    1    3    3    0    0  0.31940705935E+01 -0.29350530103E+02 -0.79049147452E+03  0.79104262021E+03  0.00000000000E+00 0. -1.
          1    1    1    2  501    0 -0.18155522306E+02  0.13131544311E+02 -0.14671101426E+03  0.14841220351E+03  0.00000000000E+00 0. -1.
<mgrwt>
<rscale>  1 0.10784240E+03</rscale>
<asrwt>0</asrwt>
<pdfrwt beam="1">  1       21 0.67082254E-03 0.10784240E+03</pdfrwt>
<pdfrwt beam="2">  1        2 0.15014869E+00 0.10784240E+03</pdfrwt>
<totfact> 0.23260166E+06</totfact>
</mgrwt>
</event>
<event>
 6    2  0.7993170E+000  0.8636218E+02  0.7546771E-02  0.1311908E+00
         -1   -1    0    0    0  501 -0.00000000000E+00  0.00000000000E+00  0.61908822238E+02  0.61908822238E+02  0.00000000000E+00 0.  1.
         21   -1    0    0  501  502  0.00000000000E+00 -0.00000000000E+00 -0.13982761153E+03  0.13982761153E+03  0.00000000000E+00 0.  1.
         24    2    1    2    0    0  0.31907166994E+02  0.11125673743E+02  0.27817652322E+02  0.90731735638E+02  0.79476903244E+02 0.  0.
        -11    1    3    3    0    0  0.46841570509E+02  0.26572217157E+02  0.39017259918E+02  0.66502346002E+02  0.00000000000E+00 0.  1.
         12    1    3    3    0    0 -0.14934403515E+02 -0.15446543414E+02 -0.11199607595E+02  0.24229389635E+02  0.00000000000E+00 0. -1.
         -2    1    1    2    0  502 -0.31907166994E+02 -0.11125673743E+02 -0.10573644161E+03  0.11100469813E+03  0.00000000000E+00 0.  1.
<mgrwt>
<rscale>  1 0.86362180E+02</rscale>
<asrwt>0</asrwt>
<pdfrwt beam="1">  1       21 0.21511940E-01 0.86362180E+02</pdfrwt>
<pdfrwt beam="2">  1       -1 0.95244343E-02 0.86362180E+02</pdfrwt>
<totfact> 0.11320287E+05</totfact>
</mgrwt>
</event>
<event>
 6    2  0.7993170E+000  0.9976121E+02  0.7546771E-02  0.1280799E+00
          2   -1    0    0  502    0 -0.00000000000E+00  0.00000000000E+00  0.19479146807E+03  0.19479146807E+03  0.00000000000E+00 0. -1.
         21   -1    0    0  501  502  0.00000000000E+00 -0.00000000000E+00 -0.12764556751E+03  0.12764556751E+03  0.00000000000E+00 0. -1.
         24    2    1    2    0    0  0.51328722524E+02 -0.27376845960E+02  0.17411679538E+03  0.20067126949E+03  0.81044250340E+02 0.  0.
        -11    1    3    3    0    0 -0.14800030249E+02  0.77781180740E+01  0.81728720791E+01  0.18610100864E+02  0.00000000000E+00 0.  1.
         12    1    3    3    0    0  0.66128752773E+02 -0.35154964034E+02  0.16594392330E+03  0.18206116862E+03  0.00000000000E+00 0. -1.
          1    1    1    2  501    0 -0.51328722524E+02  0.27376845960E+02 -0.10697089482E+03  0.12176576608E+03  0.00000000000E+00 0. -1.
<mgrwt>
<rscale>  1 0.99761215E+02</rscale>
<asrwt>0</asrwt>
<pdfrwt beam="1">  1       21 0.19637780E-01 0.99761215E+02</pdfrwt>
<pdfrwt beam="2">  1        2 0.29967918E-01 0.99761215E+02</pdfrwt>
<totfact> 0.51166660E+04</totfact>
</mgrwt>
</event>
<event>
 6    2  0.7993170E+000  0.8299372E+02  0.7546771E-02  0.1320764E+00
         21   -1    0    0  501  502  0.00000000000E+00  0.00000000000E+00  0.31057950930E+01  0.31057950930E+01  0.00000000000E+00 0.  1.
          2   -1    0    0  502    0 -0.00000000000E+00 -0.00000000000E+00 -0.13060458860E+04  0.13060458860E+04  0.00000000000E+00 0. -1.
         24    2    1    2    0    0 -0.18581899775E+02 -0.12905909929E+02 -0.12296854169E+04  0.12324829341E+04  0.79850539496E+02 0.  0.
        -13    1    3    3    0    0 -0.78143055646E+01 -0.21114846920E+02 -0.91926133605E+02  0.94643088345E+02  0.00000000000E+00 0.  1.
         14    1    3    3    0    0 -0.10767594211E+02  0.82089369907E+01 -0.11377592833E+04  0.11378398457E+04  0.00000000000E+00 0. -1.
          1    1    1    2  501    0  0.18581899775E+02  0.12905909929E+02 -0.73254673983E+02  0.76668747027E+02  0.00000000000E+00 0. -1.
<mgrwt>
<rscale>  1 0.82993724E+02</rscale>
<asrwt>0</asrwt>
<pdfrwt beam="1">  1       21 0.47781374E-03 0.82993724E+02</pdfrwt>
<pdfrwt beam="2">  1        2 0.20093051E+00 0.82993724E+02</pdfrwt>
<totfact> 0.25064021E+06</totfact>
</mgrwt>
</event>
<event>
 6    2  0.7993170E+000  0.8828777E+02  0.7546771E-02  0.1307052E+00
         21   -1    0    0  501  502  0.00000000000E+00  0.00000000000E+00  0.33682429275E+01  0.33682429275E+01  0.00000000000E+00 0.  1.
          2   -1    0    0  502    0 -0.00000000000E+00 -0.00000000000E+00 -0.16787181034E+04  0.16787181034E+04  0.00000000000E+00 0. -1.
         24    2    1    2    0    0  0.38416222436E+02 -0.73429593715E+00 -0.14990684040E+04  0.15016660115E+04  0.79488268134E+02 0.  0.
        -13    1    3    3    0    0  0.86838213315E+01 -0.38064896848E+02 -0.53901445815E+03  0.54042661964E+03  0.00000000000E+00 0.  1.
         14    1    3    3    0    0  0.29732401104E+02  0.37330600911E+02 -0.96005394589E+03  0.96123939186E+03  0.00000000000E+00 0. -1.
          1    1    1    2  501    0 -0.38416222436E+02  0.73429593715E+00 -0.17628145643E+03  0.18042033482E+03  0.00000000000E+00 0. -1.
<mgrwt>
<rscale>  1 0.88287769E+02</rscale>
<asrwt>0</asrwt>
<pdfrwt beam="1">  1       21 0.51819000E-03 0.88287769E+02</pdfrwt>
<pdfrwt beam="2">  1        2 0.25826493E+00 0.88287769E+02</pdfrwt>
<totfact> 0.14345800E+06</totfact>
</mgrwt>
</event>
<event>
 6    2  0.7993170E+000  0.9866701E+02  0.7546771E-02  0.1283124E+00
         21   -1    0    0  501  502  0.00000000000E+00  0.00000000000E+00  0.77447702828E+03  0.77447702828E+03  0.00000000000E+00 0. -1.
          2   -1    0    0  502    0 -0.00000000000E+00 -0.00000000000E+00 -0.16982878825E+02  0.16982878825E+02  0.00000000000E+00 0. -1.
         24    2    1    2    0    0 -0.56398287057E+02  0.14833005416E+02  0.14032037132E+03  0.17153712381E+03  0.79588902520E+02 0.  0.
        -11    1    3    3    0    0 -0.25030424107E+01  0.36038537054E+02  0.80700824383E+02  0.88417557252E+02  0.00000000000E+00 0.  1.
         12    1    3    3    0    0 -0.53895244647E+02 -0.21205531639E+02  0.59619546941E+02  0.83119566560E+02  0.00000000000E+00 0. -1.
          1    1    1    2  501    0  0.56398287057E+02 -0.14833005416E+02  0.61717377813E+03  0.61992278329E+03  0.00000000000E+00 0. -1.
<mgrwt>
<rscale>  1 0.98667007E+02</rscale>
<asrwt>0</asrwt>
<pdfrwt beam="1">  1       21 0.11915028E+00 0.98667007E+02</pdfrwt>
<pdfrwt beam="2">  1        2 0.26127512E-02 0.98667007E+02</pdfrwt>
<totfact> 0.24308636E+04</totfact>
</mgrwt>
</event>
<event>
 6    2  0.7993170E+000  0.1225071E+03  0.7546771E-02  0.1239018E+00
         21   -1    0    0  501  502  0.00000000000E+00  0.00000000000E+00  0.13816384697E+03  0.13816384697E+03  0.00000000000E+00 0. -1.
          2   -1    0    0  502    0 -0.00000000000E+00 -0.00000000000E+00 -0.13106558787E+03  0.13106558787E+03  0.00000000000E+00 0. -1.
         24    2    1    2    0    0  0.64914897595E+02 -0.68079520582E+02 -0.75619034935E+02  0.14396604918E+03  0.78480697116E+02 0.  0.
        -11    1    3    3    0    0  0.28057719125E+02  0.14567060644E+02 -0.24798150226E+02  0.40179386667E+02  0.00000000000E+00 0.  1.
         12    1    3    3    0    0  0.36857178469E+02 -0.82646581226E+02 -0.50820884709E+02  0.10378666251E+03  0.00000000000E+00 0. -1.
          1    1    1    2  501    0 -0.64914897595E+02  0.68079520582E+02  0.82717294034E+02  0.12526338565E+03  0.00000000000E+00 0. -1.
<mgrwt>
<rscale>  1 0.12250708E+03</rscale>
<asrwt>0</asrwt>
<pdfrwt beam="1">  1       21 0.21255977E-01 0.12250708E+03</pdfrwt>
<pdfrwt beam="2">  1        2 0.20163936E-01 0.12250708E+03</pdfrwt>
<totfact> 0.68671548E+04</totfact>
</mgrwt>
</event>
<event>
 6    2  0.7993170E+000  0.1100551E+03  0.7546771E-02  0.1260468E+00
         21   -1    0    0  501  502  0.00000000000E+00  0.00000000000E+00  0.91865193099E+02  0.91865193099E+02  0.00000000000E+00 0.  1.
         -3   -1    0    0    0  501 -0.00000000000E+00 -0.00000000000E+00 -0.17411888555E+03  0.17411888555E+03  0.00000000000E+00 0.  1.
         24    2    1    2    0    0  0.64768511993E+02 -0.38103231327E+02 -0.13499927391E+03  0.17417496828E+03  0.80407084472E+02 0.  0.
        -11    1    3    3    0    0  0.45149736329E+02 -0.28975291598E+02 -0.14170600003E+03  0.15152114261E+03  0.00000000000E+00 0.  1.
         12    1    3    3    0    0  0.19618775664E+02 -0.91279397281E+01  0.67067261122E+01  0.22653825668E+02  0.00000000000E+00 0. -1.
         -4    1    1    2    0  502 -0.64768511993E+02  0.38103231327E+02  0.52745581464E+02  0.91809110372E+02  0.00000000000E+00 0.  1.
<mgrwt>
<rscale>  1 0.11005506E+03</rscale>
<asrwt>0</asrwt>
<pdfrwt beam="1">  1       21 0.14133107E-01 0.11005506E+03</pdfrwt>
<pdfrwt beam="2">  1       -3 0.26787521E-01 0.11005506E+03</pdfrwt>
<totfact> 0.27345834E+04</totfact>
</mgrwt>
</event>
<event>
 6    2  0.7993170E+000  0.8598841E+02  0.7546771E-02  0.1312868E+00
         21   -1    0    0  501  502  0.00000000000E+00  0.00000000000E+00  0.53524207593E+01  0.53524207593E+01  0.00000000000E+00 0.  1.
          2   -1    0    0  502    0 -0.00000000000E+00 -0.00000000000E+00 -0.95631632670E+03  0.95631632670E+03  0.00000000000E+00 0. -1.
         24    2    1    2    0    0  0.25019647667E+02 -0.20278208364E+02 -0.37196096164E+03  0.38177082713E+03  0.79729661688E+02 0.  0.
        -13    1    3    3    0    0 -0.10974821381E+02 -0.42361181131E+02 -0.18928667777E+03  0.19427908470E+03  0.00000000000E+00 0.  1.
         14    1    3    3    0    0  0.35994469047E+02  0.22082972767E+02 -0.18267428387E+03  0.18749174242E+03  0.00000000000E+00 0. -1.
          1    1    1    2  501    0 -0.25019647667E+02  0.20278208364E+02 -0.57900294430E+03  0.57989792033E+03  0.00000000000E+00 0. -1.
<mgrwt>
<rscale>  1 0.85988415E+02</rscale>
<asrwt>0</asrwt>
<pdfrwt beam="1">  1       21 0.82344983E-03 0.85988415E+02</pdfrwt>
<pdfrwt beam="2">  1        2 0.14712550E+00 0.85988415E+02</pdfrwt>
<totfact> 0.17024273E+06</totfact>
</mgrwt>
</event>
<event>
 6    2  0.7993170E+000  0.8195023E+02  0.7546771E-02  0.1323606E+00
         21   -1    0    0  501  502  0.00000000000E+00  0.00000000000E+00  0.22304347380E+02  0.22304347380E+02  0.00000000000E+00 0. -1.
          2   -1    0    0  502    0 -0.00000000000E+00 -0.00000000000E+00 -0.29910656440E+03  0.29910656440E+03  0.00000000000E+00 0. -1.
         24    2    1    2    0    0  0.26724010586E+01  0.21737304147E+02 -0.28610925120E+03  0.29761442036E+03  0.78969535060E+02 0.  0.
        -13    1    3    3    0    0 -0.25505819874E+02  0.26338345727E+02 -0.64654252221E+02  0.74326493482E+02  0.00000000000E+00 0.  1.
         14    1    3    3    0    0  0.28178220933E+02 -0.46010415804E+01 -0.22145499898E+03  0.22328792688E+03  0.00000000000E+00 0. -1.
          1    1    1    2  501    0 -0.26724010586E+01 -0.21737304147E+02  0.93070341714E+01  0.23796491423E+02  0.00000000000E+00 0. -1.
<mgrwt>
<rscale>  1 0.81950226E+02</rscale>
<asrwt>0</asrwt>
<pdfrwt beam="1">  1       21 0.34314381E-02 0.81950226E+02</pdfrwt>
<pdfrwt beam="2">  1        2 0.46016394E-01 0.81950226E+02</pdfrwt>
<totfact> 0.64402494E+05</totfact>
</mgrwt>
</event>
<event>
 6    2  0.7993170E+000  0.1117143E+03  0.7546771E-02  0.1257428E+00
         21   -1    0    0  501  502  0.00000000000E+00  0.00000000000E+00  0.54305817174E+03  0.54305817174E+03  0.00000000000E+00 0.  1.
         -1   -1    0    0    0  501 -0.00000000000E+00 -0.00000000000E+00 -0.17263336541E+02  0.17263336541E+02  0.00000000000E+00 0.  1.
         24    2    1    2    0    0  0.29500138478E+02  0.18808374914E+02  0.17389709206E+03  0.20668888145E+03  0.10609468389E+03 0.  0.
        -13    1    3    3    0    0  0.59737756357E+02  0.15498306398E+02  0.16314227461E+03  0.17442533876E+03  0.00000000000E+00 0.  1.
         14    1    3    3    0    0 -0.30237617879E+02  0.33100685158E+01  0.10754817456E+02  0.32263542693E+02  0.00000000000E+00 0. -1.
         -2    1    1    2    0  502 -0.29500138478E+02 -0.18808374914E+02  0.35189774313E+03  0.35363262683E+03  0.00000000000E+00 0.  1.
<mgrwt>
<rscale>  1 0.11171435E+03</rscale>
<asrwt>0</asrwt>
<pdfrwt beam="1">  1       21 0.83547398E-01 0.11171435E+03</pdfrwt>
<pdfrwt beam="2">  1       -1 0.26558983E-02 0.11171435E+03</pdfrwt>
<totfact> 0.48755698E+04</totfact>
</mgrwt>
</event>
<event>
 6    2  0.7993170E+000  0.1446434E+03  0.7546771E-02  0.1207214E+00
         21   -1    0    0  501  502  0.00000000000E+00  0.00000000000E+00  0.56692360752E+02  0.56692360752E+02  0.00000000000E+00 0. -1.
          2   -1    0    0  502    0 -0.00000000000E+00 -0.00000000000E+00 -0.16685421269E+04  0.16685421269E+04  0.00000000000E+00 0. -1.
         24    2    1    2    0    0  0.95911707499E+02 -0.46026995036E+02 -0.16123744076E+04  0.16188492671E+04  0.98000915610E+02 0.  0.
        -11    1    3    3    0    0  0.31190661124E+02 -0.40856522591E+02 -0.26662558886E+03  0.27153511267E+03  0.00000000000E+00 0.  1.
         12    1    3    3    0    0  0.64721046375E+02 -0.51704724440E+01 -0.13457488187E+04  0.13473141544E+04  0.00000000000E+00 0. -1.
          1    1    1    2  501    0 -0.95911707499E+02  0.46026995036E+02  0.52464141470E+00  0.10638522057E+03  0.00000000000E+00 0. -1.
<mgrwt>
<rscale>  1 0.14464342E+03</rscale>
<asrwt>0</asrwt>
<pdfrwt beam="1">  1       21 0.87219028E-02 0.14464342E+03</pdfrwt>
<pdfrwt beam="2">  1        2 0.25669876E+00 0.14464342E+03</pdfrwt>
<totfact> 0.15034376E+04</totfact>
</mgrwt>
</event>
<event>
 6    2  0.7993170E+000  0.8151837E+02  0.7546771E-02  0.1324797E+00
          2   -1    0    0  502    0 -0.00000000000E+00  0.00000000000E+00  0.26157383863E+04  0.26157383863E+04  0.00000000000E+00 0. -1.
         21   -1    0    0  501  502  0.00000000000E+00 -0.00000000000E+00 -0.34789895827E+02  0.34789895827E+02  0.00000000000E+00 0. -1.
         24    2    1    2    0    0  0.20628443429E+02  0.60773932291E+01  0.26117172745E+04  0.26129891632E+04  0.78630641907E+02 0.  0.
        -11    1    3    3    0    0 -0.23328828639E+02  0.21853280673E+02  0.74122260264E+03  0.74191154917E+03  0.00000000000E+00 0.  1.
         12    1    3    3    0    0  0.43957272068E+02 -0.15775887444E+02  0.18704946718E+04  0.18710776140E+04  0.00000000000E+00 0. -1.
          1    1    1    2  501    0 -0.20628443429E+02 -0.60773932291E+01 -0.30768783956E+02  0.37539118968E+02  0.00000000000E+00 0. -1.
<mgrwt>
<rscale>  1 0.81518374E+02</rscale>
<asrwt>0</asrwt>
<pdfrwt beam="1">  1       21 0.53522937E-02 0.81518374E+02</pdfrwt>
<pdfrwt beam="2">  1        2 0.40242114E+00 0.81518374E+02</pdfrwt>
<totfact> 0.11663880E+04</totfact>
</mgrwt>
</event>
<event>
 6    2  0.7993170E+000  0.8447471E+02  0.7546771E-02  0.1316812E+00
          2   -1    0    0  502    0 -0.00000000000E+00  0.00000000000E+00  0.69160771960E+02  0.69160771960E+02  0.00000000000E+00 0. -1.
         21   -1    0    0  501  502  0.00000000000E+00 -0.00000000000E+00 -0.12724730814E+03  0.12724730814E+03  0.00000000000E+00 0. -1.
         24    2    1    2    0    0 -0.11369194802E+02  0.17431910761E+02  0.41888309136E+02  0.94290012163E+02  0.81870909658E+02 0.  0.
        -11    1    3    3    0    0  0.89962023365E+01  0.29391054889E+02 -0.13881027828E+02  0.33726083341E+02  0.00000000000E+00 0.  1.
         12    1    3    3    0    0 -0.20365397138E+02 -0.11959144128E+02  0.55769336964E+02  0.60563928822E+02  0.00000000000E+00 0. -1.
          1    1    1    2  501    0  0.11369194802E+02 -0.17431910761E+02 -0.99974845312E+02  0.10211806793E+03  0.00000000000E+00 0. -1.
<mgrwt>
<rscale>  1 0.84474706E+02</rscale>
<asrwt>0</asrwt>
<pdfrwt beam="1">  1       21 0.19576509E-01 0.84474706E+02</pdfrwt>
<pdfrwt beam="2">  1        2 0.10640119E-01 0.84474706E+02</pdfrwt>
<totfact> 0.16530848E+05</totfact>
</mgrwt>
</event>
<event>
 6    2  0.7993170E+000  0.8503928E+02  0.7546771E-02  0.1315330E+00
          2   -1    0    0  502    0 -0.00000000000E+00  0.00000000000E+00  0.90264981131E+03  0.90264981131E+03  0.00000000000E+00 0. -1.
         21   -1    0    0  501  502  0.00000000000E+00 -0.00000000000E+00 -0.31086737485E+01  0.31086737485E+01  0.00000000000E+00 0.  1.
         24    2    1    2    0    0  0.20750017819E+02  0.19976237220E+01  0.73416139360E+03  0.73907011278E+03  0.82444684560E+02 0.  0.
        -11    1    3    3    0    0  0.30859464687E+02  0.11984116820E+01  0.96355845889E+02  0.10118395025E+03  0.00000000000E+00 0.  1.
         12    1    3    3    0    0 -0.10109446867E+02  0.79921203996E+00  0.63780554772E+03  0.63788616253E+03  0.00000000000E+00 0. -1.
          1    1    1    2  501    0 -0.20750017819E+02 -0.19976237220E+01  0.16537974396E+03  0.16668837227E+03  0.00000000000E+00 0. -1.
<mgrwt>
<rscale>  1 0.85039284E+02</rscale>
<asrwt>0</asrwt>
<pdfrwt beam="1">  1       21 0.47825822E-03 0.85039284E+02</pdfrwt>
<pdfrwt beam="2">  1        2 0.13886899E+00 0.85039284E+02</pdfrwt>
<totfact> 0.42316045E+06</totfact>
</mgrwt>
</event>
<event>
 6    2  0.7993170E+000  0.8561162E+02  0.7546771E-02  0.1313841E+00
         21   -1    0    0  501  502  0.00000000000E+00  0.00000000000E+00  0.16663496646E+02  0.16663496646E+02  0.00000000000E+00 0. -1.
          2   -1    0    0  502    0 -0.00000000000E+00 -0.00000000000E+00 -0.17960036407E+03  0.17960036407E+03  0.00000000000E+00 0. -1.
         24    2    1    2    0    0  0.16642711677E+02 -0.16136334792E+02 -0.13625639297E+03  0.16091971170E+03  0.82413517314E+02 0.  0.
        -11    1    3    3    0    0  0.39054200071E+01  0.24206497604E+02 -0.78839253024E+01  0.25755836424E+02  0.00000000000E+00 0.  1.
         12    1    3    3    0    0  0.12737291670E+02 -0.40342832396E+02 -0.12837246766E+03  0.13516387527E+03  0.00000000000E+00 0. -1.
          1    1    1    2  501    0 -0.16642711677E+02  0.16136334792E+02 -0.26680474454E+02  0.35344149015E+02  0.00000000000E+00 0. -1.
<mgrwt>
<rscale>  1 0.85611617E+02</rscale>
<asrwt>0</asrwt>
<pdfrwt beam="1">  1       21 0.25636149E-02 0.85611617E+02</pdfrwt>
<pdfrwt beam="2">  1        2 0.27630825E-01 0.85611617E+02</pdfrwt>
<totfact> 0.17777840E+06</totfact>
</mgrwt>
</event>
<event>
 6    2  0.7993170E+000  0.1060652E+03  0.7546771E-02  0.1268035E+00
         -1   -1    0    0    0  501 -0.00000000000E+00  0.00000000000E+00  0.24542800439E+03  0.24542800439E+03  0.00000000000E+00 0.  1.
         21   -1    0    0  501  502  0.00000000000E+00 -0.00000000000E+00 -0.32000423480E+02  0.32000423480E+02  0.00000000000E+00 0. -1.
         24    2    1    2    0    0 -0.32208833150E+01 -0.69227228238E+02  0.14830476970E+03  0.18232972252E+03  0.80293460385E+02 0.  0.
        -13    1    3    3    0    0 -0.46664824369E+01  0.73761028959E+01  0.77550360770E+02  0.78039998768E+02  0.00000000000E+00 0.  1.
         14    1    3    3    0    0  0.14455991220E+01 -0.76603331134E+02  0.70754408928E+02  0.10428972375E+03  0.00000000000E+00 0. -1.
         -2    1    1    2    0  502  0.32208833150E+01  0.69227228238E+02  0.65122811208E+02  0.95098705345E+02  0.00000000000E+00 0.  1.
<mgrwt>
<rscale>  1 0.10606518E+03</rscale>
<asrwt>0</asrwt>
<pdfrwt beam="1">  1       21 0.49231422E-02 0.10606518E+03</pdfrwt>
<pdfrwt beam="2">  1       -1 0.37758153E-01 0.10606518E+03</pdfrwt>
<totfact> 0.16762233E+05</totfact>
</mgrwt>
</event>
<event>
 6    2  0.7993170E+000  0.1533429E+03  0.7546771E-02  0.1196424E+00
         21   -1    0    0  501  502  0.00000000000E+00  0.00000000000E+00  0.12298530928E+02  0.12298530928E+02  0.00000000000E+00 0. -1.
          2   -1    0    0  502    0 -0.00000000000E+00 -0.00000000000E+00 -0.22595267028E+04  0.22595267028E+04  0.00000000000E+00 0. -1.
         24    2    1    2    0    0 -0.50410846145E+02 -0.12041988563E+03 -0.17832685057E+04  0.17898493276E+04  0.80447807798E+02 0.  0.
        -11    1    3    3    0    0 -0.11081960638E+02  0.15828516355E+01 -0.32108124716E+02  0.34003631330E+02  0.00000000000E+00 0.  1.
         12    1    3    3    0    0 -0.39328885507E+02 -0.12200273727E+03 -0.17511603810E+04  0.17558456963E+04  0.00000000000E+00 0. -1.
          1    1    1    2  501    0  0.50410846145E+02  0.12041988563E+03 -0.46395966611E+03  0.48197590608E+03  0.00000000000E+00 0. -1.
<mgrwt>
<rscale>  1 0.15334292E+03</rscale>
<asrwt>0</asrwt>
<pdfrwt beam="1">  1       21 0.18920800E-02 0.15334292E+03</pdfrwt>
<pdfrwt beam="2">  1        2 0.34761979E+00 0.15334292E+03</pdfrwt>
<totfact> 0.95672100E+04</totfact>
</mgrwt>
</event>
<event>
 6    2  0.7993170E+000  0.8152984E+02  0.7546771E-02  0.1324765E+00
         21   -1    0    0  501  502  0.00000000000E+00  0.00000000000E+00  0.20925450693E+01  0.20925450693E+01  0.00000000000E+00 0.  1.
          2   -1    0    0  502    0 -0.00000000000E+00 -0.00000000000E+00 -0.13264569364E+04  0.13264569364E+04  0.00000000000E+00 0. -1.
         24    2    1    2    0    0 -0.18372716304E+02  0.13595163903E+02 -0.11026885112E+04  0.11056984527E+04  0.78260656871E+02 0.  0.
        -11    1    3    3    0    0 -0.37777785749E+02 -0.15205588493E+02 -0.79776363146E+03  0.79880234269E+03  0.00000000000E+00 0.  1.
         12    1    3    3    0    0  0.19405069445E+02  0.28800752395E+02 -0.30492487970E+03  0.30689610998E+03  0.00000000000E+00 0. -1.
          1    1    1    2  501    0  0.18372716304E+02 -0.13595163903E+02 -0.22167588015E+03  0.22285102878E+03  0.00000000000E+00 0. -1.
<mgrwt>
<rscale>  1 0.81529845E+02</rscale>
<asrwt>0</asrwt>
<pdfrwt beam="1">  1       21 0.32193072E-03 0.81529845E+02</pdfrwt>
<pdfrwt beam="2">  1        2 0.20406985E+00 0.81529845E+02</pdfrwt>
<totfact> 0.44480325E+06</totfact>
</mgrwt>
</event>
<event>
 6    2  0.7993170E+000  0.1007362E+03  0.7546771E-02  0.1278755E+00
         21   -1    0    0  501  502  0.00000000000E+00  0.00000000000E+00  0.16439841326E+02  0.16439841326E+02  0.00000000000E+00 0.  1.
          2   -1    0    0  502    0 -0.00000000000E+00 -0.00000000000E+00 -0.25611522600E+03  0.25611522600E+03  0.00000000000E+00 0. -1.
         24    2    1    2    0    0 -0.16597756315E+02 -0.12649205238E+02 -0.15143083315E+03  0.18187657604E+03  0.98551021185E+02 0.  0.
        -13    1    3    3    0    0 -0.41222054322E+02 -0.32988820183E+02 -0.40790535530E+02  0.66718721573E+02  0.00000000000E+00 0.  1.
         14    1    3    3    0    0  0.24624298007E+02  0.20339614945E+02 -0.11064029762E+03  0.11515785447E+03  0.00000000000E+00 0. -1.
          1    1    1    2  501    0  0.16597756315E+02  0.12649205238E+02 -0.88244551518E+02  0.90678491277E+02  0.00000000000E+00 0. -1.
<mgrwt>
<rscale>  1 0.10073625E+03</rscale>
<asrwt>0</asrwt>
<pdfrwt beam="1">  1       21 0.25292064E-02 0.10073625E+03</pdfrwt>
<pdfrwt beam="2">  1        2 0.39402342E-01 0.10073625E+03</pdfrwt>
<totfact> 0.12695688E+06</totfact>
</mgrwt>
</event>
<event>
 6    2  0.7993170E+000  0.8504723E+02  0.7546771E-02  0.1315309E+00
         21   -1    0    0  501  502  0.00000000000E+00  0.00000000000E+00  0.44865829239E+01  0.44865829239E+01  0.00000000000E+00 0.  1.
          2   -1    0    0  502    0 -0.00000000000E+00 -0.00000000000E+00 -0.73907188024E+03  0.73907188024E+03  0.00000000000E+00 0. -1.
         24    2    1    2    0    0 -0.13399010951E+02  0.17146486348E+02 -0.67065735008E+03  0.67602833710E+03  0.82216153251E+02 0.  0.
        -11    1    3    3    0    0 -0.47159294340E+02  0.82279092670E+01 -0.30859219524E+03  0.31228326964E+03  0.00000000000E+00 0.  1.
         12    1    3    3    0    0  0.33760283389E+02  0.89185770808E+01 -0.36206515484E+03  0.36374506746E+03  0.00000000000E+00 0. -1.
          1    1    1    2  501    0  0.13399010951E+02 -0.17146486348E+02 -0.63927947233E+02  0.67530126062E+02  0.00000000000E+00 0. -1.
<mgrwt>
<rscale>  1 0.85047230E+02</rscale>
<asrwt>0</asrwt>
<pdfrwt beam="1">  1       21 0.69024344E-03 0.85047230E+02</pdfrwt>
<pdfrwt beam="2">  1        2 0.11370338E+00 0.85047230E+02</pdfrwt>
<totfact> 0.30795334E+06</totfact>
</mgrwt>
</event>
<event>
 6    2  0.7993170E+000  0.9172839E+02  0.7546771E-02  0.1298719E+00
          2   -1    0    0  502    0 -0.00000000000E+00  0.00000000000E+00  0.65857932851E+03  0.65857932851E+03  0.00000000000E+00 0. -1.
         21   -1    0    0  501  502  0.00000000000E+00 -0.00000000000E+00 -0.72689688388E+01  0.72689688388E+01  0.00000000000E+00 0. -1.
         24    2    1    2    0    0 -0.27247801987E+02 -0.34385361034E+02  0.49829706723E+03  0.50666958197E+03  0.80556205938E+02 0.  0.
        -13    1    3    3    0    0 -0.12281169112E+02 -0.43115918602E+02  0.12203946972E+03  0.13001323671E+03  0.00000000000E+00 0.  1.
         14    1    3    3    0    0 -0.14966632875E+02  0.87305575679E+01  0.37625759751E+03  0.37665634526E+03  0.00000000000E+00 0. -1.
          1    1    1    2  501    0  0.27247801987E+02  0.34385361034E+02  0.15301329244E+03  0.15917871538E+03  0.00000000000E+00 0. -1.
<mgrwt>
<rscale>  1 0.91728393E+02</rscale>
<asrwt>0</asrwt>
<pdfrwt beam="1">  1       21 0.11183034E-02 0.91728393E+02</pdfrwt>
<pdfrwt beam="2">  1        2 0.10131985E+00 0.91728393E+02</pdfrwt>
<totfact> 0.16762357E+06</totfact>
</mgrwt>
</event>
<event>
 6    2  0.7993170E+000  0.8632239E+02  0.7546771E-02  0.1312010E+00
         21   -1    0    0  501  502  0.00000000000E+00  0.00000000000E+00  0.85518052792E+02  0.85518052792E+02  0.00000000000E+00 0.  1.
          2   -1    0    0  502    0 -0.00000000000E+00 -0.00000000000E+00 -0.50797692682E+02  0.50797692682E+02  0.00000000000E+00 0. -1.
         24    2    1    2    0    0 -0.34347363972E+02 -0.11866455815E+01 -0.15668927602E+01  0.86336607222E+02  0.79185889236E+02 0.  0.
        -11    1    3    3    0    0  0.19443177673E+02  0.20312158076E+02 -0.37548280351E+01  0.28367581097E+02  0.00000000000E+00 0.  1.
         12    1    3    3    0    0 -0.53790541645E+02 -0.21498803658E+02  0.21879352749E+01  0.57969026125E+02  0.00000000000E+00 0. -1.
          1    1    1    2  501    0  0.34347363972E+02  0.11866455815E+01  0.36287252870E+02  0.49979138252E+02  0.00000000000E+00 0. -1.
<mgrwt>
<rscale>  1 0.86322388E+02</rscale>
<asrwt>0</asrwt>
<pdfrwt beam="1">  1       21 0.13156624E-01 0.86322388E+02</pdfrwt>
<pdfrwt beam="2">  1        2 0.78150296E-02 0.86322388E+02</pdfrwt>
<totfact> 0.49220812E+05</totfact>
</mgrwt>
</event>
<event>
 6    2  0.7993170E+000  0.9356725E+02  0.7546771E-02  0.1294436E+00
          2   -1    0    0  502    0 -0.00000000000E+00  0.00000000000E+00  0.18031297270E+03  0.18031297270E+03  0.00000000000E+00 0. -1.
         21   -1    0    0  501  502  0.00000000000E+00 -0.00000000000E+00 -0.15667361981E+03  0.15667361981E+03  0.00000000000E+00 0. -1.
         24    2    1    2    0    0 -0.24792716821E+02  0.30521767929E+02  0.16531367637E+03  0.18995642195E+03  0.84903318662E+02 0.  0.
        -11    1    3    3    0    0 -0.36595301577E+02  0.37501052768E+02  0.45604411944E+02  0.69464432950E+02  0.00000000000E+00 0.  1.
         12    1    3    3    0    0  0.11802584756E+02 -0.69792848387E+01  0.11970926442E+03  0.12049198900E+03  0.00000000000E+00 0. -1.
          1    1    1    2  501    0  0.24792716821E+02 -0.30521767929E+02 -0.14167432348E+03  0.14703017057E+03  0.00000000000E+00 0. -1.
<mgrwt>
<rscale>  1 0.93567252E+02</rscale>
<asrwt>0</asrwt>
<pdfrwt beam="1">  1       21 0.24103634E-01 0.93567252E+02</pdfrwt>
<pdfrwt beam="2">  1        2 0.27740457E-01 0.93567252E+02</pdfrwt>
<totfact> 0.38017141E+04</totfact>
</mgrwt>
</event>
<event>
 6    2  0.7993170E+000  0.9746223E+02  0.7546771E-02  0.1285725E+00
         21   -1    0    0  501  502  0.00000000000E+00  0.00000000000E+00  0.30758718319E+02  0.30758718319E+02  0.00000000000E+00 0. -1.
          2   -1    0    0  502    0 -0.00000000000E+00 -0.00000000000E+00 -0.19128610965E+03  0.19128610965E+03  0.00000000000E+00 0. -1.
         24    2    1    2    0    0 -0.55101422363E+02  0.15478108685E+01 -0.11335052027E+03  0.14948988583E+03  0.80376134866E+02 0.  0.
        -13    1    3    3    0    0  0.17998133321E+02 -0.13721656697E+02 -0.29994148299E+02  0.37574800036E+02  0.00000000000E+00 0.  1.
         14    1    3    3    0    0 -0.73099555684E+02  0.15269467566E+02 -0.83356371972E+02  0.11191508580E+03  0.00000000000E+00 0. -1.
          1    1    1    2  501    0  0.55101422363E+02 -0.15478108685E+01 -0.47176871054E+02  0.72554942130E+02  0.00000000000E+00 0. -1.
<mgrwt>
<rscale>  1 0.97462226E+02</rscale>
<asrwt>0</asrwt>
<pdfrwt beam="1">  1       21 0.47321106E-02 0.97462226E+02</pdfrwt>
<pdfrwt beam="2">  1        2 0.29428632E-01 0.97462226E+02</pdfrwt>
<totfact> 0.61768380E+05</totfact>
</mgrwt>
</event>
<event>
 6    2  0.7993170E+000  0.7777625E+02  0.7546771E-02  0.1335483E+00
         21   -1    0    0  501  502  0.00000000000E+00  0.00000000000E+00  0.18532866154E+03  0.18532866154E+03  0.00000000000E+00 0. -1.
         -3   -1    0    0    0  501 -0.00000000000E+00 -0.00000000000E+00 -0.21306609535E+02  0.21306609535E+02  0.00000000000E+00 0.  1.
         24    2    1    2    0    0  0.25422407937E+02 -0.15317277422E+02  0.59343849104E+02  0.97830657314E+02  0.71890383718E+02 0.  0.
        -13    1    3    3    0    0  0.11232225924E+02  0.22048828460E+02 -0.17684170226E+01  0.24808084055E+02  0.00000000000E+00 0.  1.
         14    1    3    3    0    0  0.14190182013E+02 -0.37366105882E+02  0.61112266127E+02  0.73022573260E+02  0.00000000000E+00 0. -1.
         -4    1    1    2    0  502 -0.25422407937E+02  0.15317277422E+02  0.10467820290E+03  0.10880461376E+03  0.00000000000E+00 0.  1.
<mgrwt>
<rscale>  1 0.77776250E+02</rscale>
<asrwt>0</asrwt>
<pdfrwt beam="1">  1       21 0.28512101E-01 0.77776250E+02</pdfrwt>
<pdfrwt beam="2">  1       -3 0.32779401E-02 0.77776250E+02</pdfrwt>
<totfact> 0.22845700E+05</totfact>
</mgrwt>
</event>
<event>
 6    2  0.7993170E+000  0.8631626E+02  0.7546771E-02  0.1312026E+00
          4   -1    0    0  502    0 -0.00000000000E+00  0.00000000000E+00  0.12803724534E+03  0.12803724534E+03  0.00000000000E+00 0. -1.
         21   -1    0    0  501  502  0.00000000000E+00 -0.00000000000E+00 -0.24825402574E+02  0.24825402574E+02  0.00000000000E+00 0.  1.
         24    2    1    2    0    0  0.20837945990E+02 -0.46704308411E+01  0.98547568979E+02  0.13100427727E+03  0.83632914530E+02 0.  0.
        -11    1    3    3    0    0 -0.77252631573E+01  0.17727277014E+02 -0.60708440326E+01  0.20267984321E+02  0.00000000000E+00 0.  1.
         12    1    3    3    0    0  0.28563209147E+02 -0.22397707855E+02  0.10461841301E+03  0.11073629294E+03  0.00000000000E+00 0. -1.
          3    1    1    2  501    0 -0.20837945990E+02  0.46704308411E+01  0.46642737834E+01  0.21858370645E+02  0.00000000000E+00 0. -1.
<mgrwt>
<rscale>  1 0.86316263E+02</rscale>
<asrwt>0</asrwt>
<pdfrwt beam="1">  1       21 0.38192928E-02 0.86316263E+02</pdfrwt>
<pdfrwt beam="2">  1        4 0.19698037E-01 0.86316263E+02</pdfrwt>
<totfact> 0.35903303E+05</totfact>
</mgrwt>
</event>
<event>
 6    2  0.7993170E+000  0.8542968E+02  0.7546771E-02  0.1314313E+00
         21   -1    0    0  501  502  0.00000000000E+00  0.00000000000E+00  0.47078481402E+01  0.47078481402E+01  0.00000000000E+00 0.  1.
          2   -1    0    0  502    0 -0.00000000000E+00 -0.00000000000E+00 -0.16742671078E+04  0.16742671078E+04  0.00000000000E+00 0. -1.
         24    2    1    2    0    0  0.13156423720E+01 -0.26527633537E+02 -0.16239513542E+04  0.16261968611E+04  0.81195960124E+02 0.  0.
        -13    1    3    3    0    0 -0.58376914995E+01 -0.21515484203E+02 -0.11081060499E+03  0.11303090233E+03  0.00000000000E+00 0.  1.
         14    1    3    3    0    0  0.71533338715E+01 -0.50121493340E+01 -0.15131407493E+04  0.15131659588E+04  0.00000000000E+00 0. -1.
          1    1    1    2  501    0 -0.13156423720E+01  0.26527633537E+02 -0.45607905450E+02  0.52778094845E+02  0.00000000000E+00 0. -1.
<mgrwt>
<rscale>  1 0.85429680E+02</rscale>
<asrwt>0</asrwt>
<pdfrwt beam="1">  1       21 0.72428473E-03 0.85429680E+02</pdfrwt>
<pdfrwt beam="2">  1        2 0.25757941E+00 0.85429680E+02</pdfrwt>
<totfact> 0.85945206E+05</totfact>
</mgrwt>
</event>
<event>
 6    2  0.7993170E+000  0.9530133E+02  0.7546771E-02  0.1290499E+00
         21   -1    0    0  501  502  0.00000000000E+00  0.00000000000E+00  0.26064048570E+02  0.26064048570E+02  0.00000000000E+00 0.  1.
         -3   -1    0    0    0  501 -0.00000000000E+00 -0.00000000000E+00 -0.19478119230E+03  0.19478119230E+03  0.00000000000E+00 0.  1.
         24    2    1    2    0    0 -0.11697643772E+02 -0.20543306241E+02 -0.17233407747E+03  0.19692987947E+03  0.92322699632E+02 0.  0.
        -13    1    3    3    0    0  0.17666651272E+02 -0.50343048950E+02 -0.91830317391E+02  0.10620423879E+03  0.00000000000E+00 0.  1.
         14    1    3    3    0    0 -0.29364295044E+02  0.29799742709E+02 -0.80503760080E+02  0.90725640676E+02  0.00000000000E+00 0. -1.
         -4    1    1    2    0  502  0.11697643772E+02  0.20543306241E+02  0.36169337456E+01  0.23915361399E+02  0.00000000000E+00 0.  1.
<mgrwt>
<rscale>  1 0.95301328E+02</rscale>
<asrwt>0</asrwt>
<pdfrwt beam="1">  1       21 0.40098538E-02 0.95301328E+02</pdfrwt>
<pdfrwt beam="2">  1       -3 0.29966336E-01 0.95301328E+02</pdfrwt>
<totfact> 0.18905230E+05</totfact>
</mgrwt>
</event>
<event>
 6    2  0.7993170E+000  0.9564160E+02  0.7546771E-02  0.1289738E+00
          2   -1    0    0  502    0 -0.00000000000E+00  0.00000000000E+00  0.19747385413E+03  0.19747385413E+03  0.00000000000E+00 0. -1.
         21   -1    0    0  501  502  0.00000000000E+00 -0.00000000000E+00 -0.26891490703E+02  0.26891490703E+02  0.00000000000E+00 0.  1.
         24    2    1    2    0    0  0.49899891093E+02 -0.31221928813E+01  0.10793118647E+03  0.14420976366E+03  0.81532617409E+02 0.  0.
        -11    1    3    3    0    0 -0.14725255279E+02 -0.92391882939E+01 -0.99014927421E+00  0.17411953909E+02  0.00000000000E+00 0.  1.
         12    1    3    3    0    0  0.64625146372E+02  0.61169954126E+01  0.10892133575E+03  0.12679780975E+03  0.00000000000E+00 0. -1.
          1    1    1    2  501    0 -0.49899891093E+02  0.31221928813E+01  0.62651176956E+02  0.80155581175E+02  0.00000000000E+00 0. -1.
<mgrwt>
<rscale>  1 0.95641596E+02</rscale>
<asrwt>0</asrwt>
<pdfrwt beam="1">  1       21 0.41371525E-02 0.95641596E+02</pdfrwt>
<pdfrwt beam="2">  1        2 0.30380592E-01 0.95641596E+02</pdfrwt>
<totfact> 0.74456495E+05</totfact>
</mgrwt>
</event>
<event>
 6    2  0.7993170E+000  0.8134261E+02  0.7546771E-02  0.1325284E+00
         21   -1    0    0  501  502  0.00000000000E+00  0.00000000000E+00  0.14962417334E+03  0.14962417334E+03  0.00000000000E+00 0. -1.
         -3   -1    0    0    0  501 -0.00000000000E+00 -0.00000000000E+00 -0.19461630126E+02  0.19461630126E+02  0.00000000000E+00 0.  1.
         24    2    1    2    0    0  0.23568838476E+02 -0.17030744188E+01  0.11552509287E+03  0.14128930077E+03  0.77834624817E+02 0.  0.
        -11    1    3    3    0    0  0.37298584677E+02 -0.29955280301E+02  0.53534262687E+02  0.71794293075E+02  0.00000000000E+00 0.  1.
         12    1    3    3    0    0 -0.13729746200E+02  0.28252205882E+02  0.61990830179E+02  0.69495007693E+02  0.00000000000E+00 0. -1.
         -4    1    1    2    0  502 -0.23568838476E+02  0.17030744188E+01  0.14637450350E+02  0.27796502700E+02  0.00000000000E+00 0.  1.
<mgrwt>
<rscale>  1 0.81342605E+02</rscale>
<asrwt>0</asrwt>
<pdfrwt beam="1">  1       21 0.23019103E-01 0.81342605E+02</pdfrwt>
<pdfrwt beam="2">  1       -3 0.29940970E-02 0.81342605E+02</pdfrwt>
<totfact> 0.39430793E+05</totfact>
</mgrwt>
</event>
<event>
 6    2  0.7993170E+000  0.8385887E+02  0.7546771E-02  0.1318444E+00
         21   -1    0    0  501  502  0.00000000000E+00  0.00000000000E+00  0.65313957358E+03  0.65313957358E+03  0.00000000000E+00 0.  1.
          2   -1    0    0  502    0 -0.00000000000E+00 -0.00000000000E+00 -0.44689959050E+01  0.44689959050E+01  0.00000000000E+00 0. -1.
         24    2    1    2    0    0  0.14749665418E+02 -0.18603171806E+02  0.47902378809E+03  0.48630864582E+03  0.80428097154E+02 0.  0.
        -11    1    3    3    0    0  0.26624063793E+02 -0.41769381742E+02  0.19878547435E+03  0.20486382511E+03  0.00000000000E+00 0.  1.
         12    1    3    3    0    0 -0.11874398375E+02  0.23166209936E+02  0.28023831374E+03  0.28144482071E+03  0.00000000000E+00 0. -1.
          1    1    1    2  501    0 -0.14749665418E+02  0.18603171806E+02  0.16964678959E+03  0.17129992367E+03  0.00000000000E+00 0. -1.
<mgrwt>
<rscale>  1 0.83858866E+02</rscale>
<asrwt>0</asrwt>
<pdfrwt beam="1">  1       21 0.10048294E+00 0.83858866E+02</pdfrwt>
<pdfrwt beam="2">  1        2 0.68753835E-03 0.83858866E+02</pdfrwt>
<totfact> 0.22176970E+05</totfact>
</mgrwt>
</event>
<event>
 6    2  0.7993170E+000  0.9571141E+02  0.7546771E-02  0.1289582E+00
          2   -1    0    0  502    0 -0.00000000000E+00  0.00000000000E+00  0.50664451156E+03  0.50664451156E+03  0.00000000000E+00 0. -1.
         21   -1    0    0  501  502  0.00000000000E+00 -0.00000000000E+00 -0.11475180035E+02  0.11475180035E+02  0.00000000000E+00 0.  1.
         24    2    1    2    0    0  0.49292960959E+02 -0.31237166869E+01  0.39506253877E+03  0.40649118466E+03  0.81982437488E+02 0.  0.
        -11    1    3    3    0    0  0.91040895629E+01 -0.88232808196E+01  0.39517981828E+01  0.13279737952E+02  0.00000000000E+00 0.  1.
         12    1    3    3    0    0  0.40188871396E+02  0.56995641327E+01  0.39111074059E+03  0.39321144670E+03  0.00000000000E+00 0. -1.
          1    1    1    2  501    0 -0.49292960959E+02  0.31237166869E+01  0.10010679276E+03  0.11162850694E+03  0.00000000000E+00 0. -1.
<mgrwt>
<rscale>  1 0.95711408E+02</rscale>
<asrwt>0</asrwt>
<pdfrwt beam="1">  1       21 0.17654127E-02 0.95711408E+02</pdfrwt>
<pdfrwt beam="2">  1        2 0.77945292E-01 0.95711408E+02</pdfrwt>
<totfact> 0.10945667E+06</totfact>
</mgrwt>
</event>
<event>
 6    2  0.7993170E+000  0.8706529E+02  0.7546771E-02  0.1310118E+00
         21   -1    0    0  501  502  0.00000000000E+00  0.00000000000E+00  0.80220113954E+03  0.80220113954E+03  0.00000000000E+00 0. -1.
          2   -1    0    0  502    0 -0.00000000000E+00 -0.00000000000E+00 -0.49420933973E+01  0.49420933973E+01  0.00000000000E+00 0. -1.
         24    2    1    2    0    0 -0.28460820576E+02 -0.99154841823E+01  0.43467960295E+03  0.44331334444E+03  0.81682488991E+02 0.  0.
        -11    1    3    3    0    0  0.90194303065E+00  0.30891973201E+00  0.38300374761E+03  0.38300493419E+03  0.00000000000E+00 0.  1.
         12    1    3    3    0    0 -0.29362763607E+02 -0.10224403914E+02  0.51675855340E+02  0.60308410252E+02  0.00000000000E+00 0. -1.
          1    1    1    2  501    0  0.28460820576E+02  0.99154841823E+01  0.36257944319E+03  0.36382988849E+03  0.00000000000E+00 0. -1.
<mgrwt>
<rscale>  1 0.87065287E+02</rscale>
<asrwt>0</asrwt>
<pdfrwt beam="1">  1       21 0.12341546E+00 0.87065287E+02</pdfrwt>
<pdfrwt beam="2">  1        2 0.76032270E-03 0.87065287E+02</pdfrwt>
<totfact> 0.11914734E+05</totfact>
</mgrwt>
</event>
<event>
 6    2  0.7993170E+000  0.9148651E+02  0.7546771E-02  0.1299291E+00
          2   -1    0    0  502    0 -0.00000000000E+00  0.00000000000E+00  0.92033164284E+03  0.92033164284E+03  0.00000000000E+00 0. -1.
         21   -1    0    0  501  502  0.00000000000E+00 -0.00000000000E+00 -0.67379820672E+01  0.67379820672E+01  0.00000000000E+00 0. -1.
         24    2    1    2    0    0  0.10084227582E+02  0.41966222194E+02  0.80548288854E+03  0.81066174492E+03  0.80665516107E+02 0.  0.
        -13    1    3    3    0    0  0.18011412806E+02 -0.53515780300E+01  0.46342157459E+02  0.50006458949E+02  0.00000000000E+00 0.  1.
         14    1    3    3    0    0 -0.79271852238E+01  0.47317800224E+02  0.75914073108E+03  0.76065528597E+03  0.00000000000E+00 0. -1.
          1    1    1    2  501    0 -0.10084227582E+02 -0.41966222194E+02  0.10811077223E+03  0.11640787999E+03  0.00000000000E+00 0. -1.
<mgrwt>
<rscale>  1 0.91486507E+02</rscale>
<asrwt>0</asrwt>
<pdfrwt beam="1">  1       21 0.10366134E-02 0.91486507E+02</pdfrwt>
<pdfrwt beam="2">  1        2 0.14158938E+00 0.91486507E+02</pdfrwt>
<totfact> 0.12574047E+06</totfact>
</mgrwt>
</event>
<event>
 6    2  0.7993170E+000  0.8871589E+02  0.7546771E-02  0.1305991E+00
          2   -1    0    0  502    0 -0.00000000000E+00  0.00000000000E+00  0.19441349407E+04  0.19441349407E+04  0.00000000000E+00 0. -1.
         21   -1    0    0  501  502  0.00000000000E+00 -0.00000000000E+00 -0.22241127487E+02  0.22241127487E+02  0.00000000000E+00 0. -1.
         24    2    1    2    0    0 -0.15002501558E+02  0.38494328216E+02  0.19230013939E+04  0.19250467192E+04  0.78508735969E+02 0.  0.
        -11    1    3    3    0    0 -0.30790138501E+02  0.50878958875E+02  0.96234690766E+03  0.96418269626E+03  0.00000000000E+00 0.  1.
         12    1    3    3    0    0  0.15787636943E+02 -0.12384630659E+02  0.96065448626E+03  0.96086402291E+03  0.00000000000E+00 0. -1.
          1    1    1    2  501    0  0.15002501558E+02 -0.38494328216E+02 -0.11075806727E+01  0.41329349048E+02  0.00000000000E+00 0. -1.
<mgrwt>
<rscale>  1 0.88715895E+02</rscale>
<asrwt>0</asrwt>
<pdfrwt beam="1">  1       21 0.34217135E-02 0.88715895E+02</pdfrwt>
<pdfrwt beam="2">  1        2 0.29909755E+00 0.88715895E+02</pdfrwt>
<totfact> 0.53654948E+04</totfact>
</mgrwt>
</event>
<event>
 6    2  0.7993170E+000  0.1046014E+03  0.7546771E-02  0.1270907E+00
          2   -1    0    0  502    0 -0.00000000000E+00  0.00000000000E+00  0.93551612229E+03  0.93551612229E+03  0.00000000000E+00 0. -1.
         21   -1    0    0  501  502  0.00000000000E+00 -0.00000000000E+00 -0.85042510683E+01  0.85042510683E+01  0.00000000000E+00 0. -1.
         24    2    1    2    0    0 -0.67502985525E+02 -0.71506915868E+00  0.67794608090E+03  0.68596818428E+03  0.79901795102E+02 0.  0.
        -13    1    3    3    0    0  0.13408460918E+02  0.17102277247E+02  0.13556545604E+03  0.13729627665E+03  0.00000000000E+00 0.  1.
         14    1    3    3    0    0 -0.80911446442E+02 -0.17817346406E+02  0.54238062486E+03  0.54867190763E+03  0.00000000000E+00 0. -1.
          1    1    1    2  501    0  0.67502985525E+02  0.71506915868E+00  0.24906579032E+03  0.25805218907E+03  0.00000000000E+00 0. -1.
<mgrwt>
<rscale>  1 0.10460144E+03</rscale>
<asrwt>0</asrwt>
<pdfrwt beam="1">  1       21 0.13083471E-02 0.10460144E+03</pdfrwt>
<pdfrwt beam="2">  1        2 0.14392548E+00 0.10460144E+03</pdfrwt>
<totfact> 0.86227891E+05</totfact>
</mgrwt>
</event>
<event>
 6    2  0.7993170E+000  0.9264194E+02  0.7546771E-02  0.1296577E+00
         21   -1    0    0  501  502  0.00000000000E+00  0.00000000000E+00  0.79077264657E+03  0.79077264657E+03  0.00000000000E+00 0. -1.
          4   -1    0    0  502    0 -0.00000000000E+00 -0.00000000000E+00 -0.65652727659E+01  0.65652727659E+01  0.00000000000E+00 0. -1.
         24    2    1    2    0    0 -0.27039151932E+02 -0.36655180221E+02  0.40813990423E+03  0.41852205425E+03  0.80671001535E+02 0.  0.
        -13    1    3    3    0    0  0.18326026913E+02  0.13669766881E+02  0.14541187671E+03  0.14719823259E+03  0.00000000000E+00 0.  1.
         14    1    3    3    0    0 -0.45365178845E+02 -0.50324947102E+02  0.26272802752E+03  0.27132382166E+03  0.00000000000E+00 0. -1.
          3    1    1    2  501    0  0.27039151932E+02  0.36655180221E+02  0.37606746957E+03  0.37881586509E+03  0.00000000000E+00 0. -1.
<mgrwt>
<rscale>  1 0.92641937E+02</rscale>
<asrwt>0</asrwt>
<pdfrwt beam="1">  1       21 0.12165725E+00 0.92641937E+02</pdfrwt>
<pdfrwt beam="2">  1        4 0.10100426E-02 0.92641937E+02</pdfrwt>
<totfact> 0.58361557E+04</totfact>
</mgrwt>
</event>
<event>
 6    2  0.7993170E+000  0.1095740E+03  0.7546771E-02  0.1261361E+00
         -1   -1    0    0    0  501 -0.00000000000E+00  0.00000000000E+00  0.11053268298E+03  0.11053268298E+03  0.00000000000E+00 0.  1.
         21   -1    0    0  501  502  0.00000000000E+00 -0.00000000000E+00 -0.83794932640E+02  0.83794932640E+02  0.00000000000E+00 0.  1.
         24    2    1    2    0    0 -0.69786441555E+02  0.29695915830E+02 -0.10051001453E+02  0.11003403875E+03  0.79085221202E+02 0.  0.
        -11    1    3    3    0    0 -0.69733888078E+02  0.52096853697E+02 -0.10130523995E+02  0.87632898092E+02  0.00000000000E+00 0.  1.
         12    1    3    3    0    0 -0.52553476782E-01 -0.22400937866E+02  0.79522542052E-01  0.22401140663E+02  0.00000000000E+00 0. -1.
         -2    1    1    2    0  502  0.69786441555E+02 -0.29695915830E+02  0.36788751788E+02  0.84293576861E+02  0.00000000000E+00 0.  1.
<mgrwt>
<rscale>  1 0.10957403E+03</rscale>
<asrwt>0</asrwt>
<pdfrwt beam="1">  1       21 0.12891528E-01 0.10957403E+03</pdfrwt>
<pdfrwt beam="2">  1       -1 0.17005028E-01 0.10957403E+03</pdfrwt>
<totfact> 0.11894315E+05</totfact>
</mgrwt>
</event>
<event>
 6    2  0.7993170E+000  0.9871946E+02  0.7546771E-02  0.1283012E+00
          2   -1    0    0  502    0 -0.00000000000E+00  0.00000000000E+00  0.87211387307E+02  0.87211387307E+02  0.00000000000E+00 0. -1.
         21   -1    0    0  501  502  0.00000000000E+00 -0.00000000000E+00 -0.79684632714E+02  0.79684632714E+02  0.00000000000E+00 0.  1.
         24    2    1    2    0    0  0.53312509472E+02  0.29682677746E+02 -0.18708117298E+02  0.10047649332E+03  0.77603138031E+02 0.  0.
        -13    1    3    3    0    0  0.52603867048E+02 -0.50704978216E+01 -0.33638534017E+02  0.62645253191E+02  0.00000000000E+00 0.  1.
         14    1    3    3    0    0  0.70864242431E+00  0.34753175568E+02  0.14930416719E+02  0.37831240127E+02  0.00000000000E+00 0. -1.
          1    1    1    2  501    0 -0.53312509472E+02 -0.29682677746E+02  0.26234871891E+02  0.66419526704E+02  0.00000000000E+00 0. -1.
<mgrwt>
<rscale>  1 0.98719461E+02</rscale>
<asrwt>0</asrwt>
<pdfrwt beam="1">  1       21 0.12259174E-01 0.98719461E+02</pdfrwt>
<pdfrwt beam="2">  1        2 0.13417137E-01 0.98719461E+02</pdfrwt>
<totfact> 0.29341156E+05</totfact>
</mgrwt>
</event>
<event>
 6    2  0.7993170E+000  0.8259347E+02  0.7546771E-02  0.1321849E+00
         -1   -1    0    0    0  501 -0.00000000000E+00  0.00000000000E+00  0.51155565555E+03  0.51155565555E+03  0.00000000000E+00 0.  1.
         21   -1    0    0  501  502  0.00000000000E+00 -0.00000000000E+00 -0.80790853157E+01  0.80790853157E+01  0.00000000000E+00 0.  1.
         24    2    1    2    0    0 -0.21831777708E+01 -0.27241709158E+02  0.22254906501E+03  0.23738106034E+03  0.77941032100E+02 0.  0.
        -11    1    3    3    0    0 -0.77975256725E+01 -0.43480249190E+02  0.21338276418E+03  0.21790717640E+03  0.00000000000E+00 0.  1.
         12    1    3    3    0    0  0.56143479017E+01  0.16238540032E+02  0.91663008355E+01  0.19473883941E+02  0.00000000000E+00 0. -1.
         -2    1    1    2    0  502  0.21831777708E+01  0.27241709158E+02  0.28092750522E+03  0.28225368053E+03  0.00000000000E+00 0.  1.
<mgrwt>
<rscale>  1 0.82593471E+02</rscale>
<asrwt>0</asrwt>
<pdfrwt beam="1">  1       21 0.12429366E-02 0.82593471E+02</pdfrwt>
<pdfrwt beam="2">  1       -1 0.78700845E-01 0.82593471E+02</pdfrwt>
<totfact> 0.38992513E+05</totfact>
</mgrwt>
</event>
<event>
 6    2  0.7993170E+000  0.7763195E+02  0.7546771E-02  0.1335909E+00
          2   -1    0    0  502    0 -0.00000000000E+00  0.00000000000E+00  0.78320266828E+03  0.78320266828E+03  0.00000000000E+00 0. -1.
         21   -1    0    0  501  502  0.00000000000E+00 -0.00000000000E+00 -0.66702734383E+01  0.66702734383E+01  0.00000000000E+00 0. -1.
         24    2    1    2    0    0  0.10772889078E+02 -0.22341245031E+02  0.74820448249E+03  0.75222115575E+03  0.73563123693E+02 0.  0.
        -11    1    3    3    0    0  0.21791408261E+02 -0.18670218943E+02  0.10328679264E+03  0.10719889964E+03  0.00000000000E+00 0.  1.
         12    1    3    3    0    0 -0.11018519183E+02 -0.36710260880E+01  0.64491768985E+03  0.64502225611E+03  0.00000000000E+00 0. -1.
          1    1    1    2  501    0 -0.10772889078E+02  0.22341245031E+02  0.28327912353E+02  0.37651785972E+02  0.00000000000E+00 0. -1.
<mgrwt>
<rscale>  1 0.77631949E+02</rscale>
<asrwt>0</asrwt>
<pdfrwt beam="1">  1       21 0.10261965E-02 0.77631949E+02</pdfrwt>
<pdfrwt beam="2">  1        2 0.12049265E+00 0.77631949E+02</pdfrwt>
<totfact> 0.15380910E+06</totfact>
</mgrwt>
</event>
<event>
 6    2  0.7993170E+000  0.8465530E+02  0.7546771E-02  0.1316336E+00
          2   -1    0    0  502    0 -0.00000000000E+00  0.00000000000E+00  0.16843147065E+04  0.16843147065E+04  0.00000000000E+00 0. -1.
         21   -1    0    0  501  502  0.00000000000E+00 -0.00000000000E+00 -0.25628534991E+01  0.25628534991E+01  0.00000000000E+00 0.  1.
         24    2    1    2    0    0  0.14369944472E+02  0.18554679018E+02  0.15872250772E+04  0.15894810367E+04  0.81337253148E+02 0.  0.
        -13    1    3    3    0    0  0.76010710044E+01 -0.97628183073E+01  0.37619554483E+02  0.39602017388E+02  0.00000000000E+00 0.  1.
         14    1    3    3    0    0  0.67688734681E+01  0.28317497326E+02  0.15496055228E+04  0.15498790193E+04  0.00000000000E+00 0. -1.
          1    1    1    2  501    0 -0.14369944472E+02 -0.18554679018E+02  0.94526775766E+02  0.97396523318E+02  0.00000000000E+00 0. -1.
<mgrwt>
<rscale>  1 0.84655302E+02</rscale>
<asrwt>0</asrwt>
<pdfrwt beam="1">  1       21 0.39428650E-03 0.84655302E+02</pdfrwt>
<pdfrwt beam="2">  1        2 0.25912445E+00 0.84655302E+02</pdfrwt>
<totfact> 0.21567484E+06</totfact>
</mgrwt>
</event>
<event>
 6    2  0.7993170E+000  0.8367796E+02  0.7546771E-02  0.1318926E+00
         21   -1    0    0  501  502  0.00000000000E+00  0.00000000000E+00  0.11957024101E+02  0.11957024101E+02  0.00000000000E+00 0. -1.
          2   -1    0    0  502    0 -0.00000000000E+00 -0.00000000000E+00 -0.97715781979E+03  0.97715781979E+03  0.00000000000E+00 0. -1.
         24    2    1    2    0    0  0.43464598516E+01 -0.21849932614E+02 -0.96311070723E+03  0.96673896987E+03  0.80657858975E+02 0.  0.
        -11    1    3    3    0    0  0.21348125719E+02  0.20002120011E+02 -0.61694336480E+03  0.61763657813E+03  0.00000000000E+00 0.  1.
         12    1    3    3    0    0 -0.17001665868E+02 -0.41852052625E+02 -0.34616734243E+03  0.34910239174E+03  0.00000000000E+00 0. -1.
          1    1    1    2  501    0 -0.43464598516E+01  0.21849932614E+02 -0.20900884587E+01  0.22375874022E+02  0.00000000000E+00 0. -1.
<mgrwt>
<rscale>  1 0.83677963E+02</rscale>
<asrwt>0</asrwt>
<pdfrwt beam="1">  1       21 0.18395420E-02 0.83677963E+02</pdfrwt>
<pdfrwt beam="2">  1        2 0.15033198E+00 0.83677963E+02</pdfrwt>
<totfact> 0.46700187E+05</totfact>
</mgrwt>
</event>
<event>
 6    2  0.7993170E+000  0.8597085E+02  0.7546771E-02  0.1312913E+00
         -1   -1    0    0    0  501 -0.00000000000E+00  0.00000000000E+00  0.66279876008E+02  0.66279876008E+02  0.00000000000E+00 0.  1.
         21   -1    0    0  501  502  0.00000000000E+00 -0.00000000000E+00 -0.52892702842E+02  0.52892702842E+02  0.00000000000E+00 0.  1.
         24    2    1    2    0    0  0.22342273194E+02  0.14050403060E+02  0.26144128194E+02  0.89858232548E+02  0.81819285746E+02 0.  0.
        -11    1    3    3    0    0  0.53555477254E+02  0.86814556096E+01  0.17901846932E+02  0.57131715702E+02  0.00000000000E+00 0.  1.
         12    1    3    3    0    0 -0.31213204061E+02  0.53689474500E+01  0.82422812617E+01  0.32726516846E+02  0.00000000000E+00 0. -1.
         -2    1    1    2    0  502 -0.22342273194E+02 -0.14050403060E+02 -0.12756955027E+02  0.29314346303E+02  0.00000000000E+00 0.  1.
<mgrwt>
<rscale>  1 0.85970847E+02</rscale>
<asrwt>0</asrwt>
<pdfrwt beam="1">  1       21 0.81373389E-02 0.85970847E+02</pdfrwt>
<pdfrwt beam="2">  1       -1 0.10196904E-01 0.85970847E+02</pdfrwt>
<totfact> 0.56964624E+05</totfact>
</mgrwt>
</event>
<event>
 6    2  0.7993170E+000  0.8524730E+02  0.7546771E-02  0.1314787E+00
          2   -1    0    0  502    0 -0.00000000000E+00  0.00000000000E+00  0.65840613978E+03  0.65840613978E+03  0.00000000000E+00 0. -1.
         21   -1    0    0  501  502  0.00000000000E+00 -0.00000000000E+00 -0.70497852194E+01  0.70497852194E+01  0.00000000000E+00 0. -1.
         24    2    1    2    0    0 -0.24052078418E+02  0.13248539631E+02  0.60926223425E+03  0.61519718204E+03  0.80703633346E+02 0.  0.
        -13    1    3    3    0    0 -0.32656412434E+02  0.12743713671E+02  0.10188807301E+03  0.10774981639E+03  0.00000000000E+00 0.  1.
         14    1    3    3    0    0  0.86043340165E+01  0.50482596017E+00  0.50737416124E+03  0.50744736565E+03  0.00000000000E+00 0. -1.
          1    1    1    2  501    0  0.24052078418E+02 -0.13248539631E+02  0.42094120312E+02  0.50258742955E+02  0.00000000000E+00 0. -1.
<mgrwt>
<rscale>  1 0.85247303E+02</rscale>
<asrwt>0</asrwt>
<pdfrwt beam="1">  1       21 0.10845829E-02 0.85247303E+02</pdfrwt>
<pdfrwt beam="2">  1        2 0.10129320E+00 0.85247303E+02</pdfrwt>
<totfact> 0.17456417E+06</totfact>
</mgrwt>
</event>
<event>
 6    2  0.7993170E+000  0.9124810E+02  0.7546771E-02  0.1299857E+00
         21   -1    0    0  501  502  0.00000000000E+00  0.00000000000E+00  0.23303823384E+03  0.23303823384E+03  0.00000000000E+00 0.  1.
          2   -1    0    0  502    0 -0.00000000000E+00 -0.00000000000E+00 -0.63135917960E+02  0.63135917960E+02  0.00000000000E+00 0. -1.
         24    2    1    2    0    0  0.28343779188E+02  0.44478393993E+02  0.21062466777E+03  0.22954077207E+03  0.74461520407E+02 0.  0.
        -11    1    3    3    0    0  0.59463502038E+01  0.56633920954E+02  0.18432168259E+03  0.19291770980E+03  0.00000000000E+00 0.  1.
         12    1    3    3    0    0  0.22397428984E+02 -0.12155526961E+02  0.26302985178E+02  0.36623062270E+02  0.00000000000E+00 0. -1.
          1    1    1    2  501    0 -0.28343779188E+02 -0.44478393993E+02 -0.40722351886E+02  0.66633379728E+02  0.00000000000E+00 0. -1.
<mgrwt>
<rscale>  1 0.91248098E+02</rscale>
<asrwt>0</asrwt>
<pdfrwt beam="1">  1       21 0.35852036E-01 0.91248098E+02</pdfrwt>
<pdfrwt beam="2">  1        2 0.97132183E-02 0.91248098E+02</pdfrwt>
<totfact> 0.59275830E+04</totfact>
</mgrwt>
</event>
<event>
 6    2  0.7993170E+000  0.8979007E+02  0.7546771E-02  0.1303361E+00
         21   -1    0    0  501  502  0.00000000000E+00  0.00000000000E+00  0.10491086339E+01  0.10491086339E+01  0.00000000000E+00 0. -1.
          2   -1    0    0  502    0 -0.00000000000E+00 -0.00000000000E+00 -0.32487385551E+04  0.32487385551E+04  0.00000000000E+00 0. -1.
         24    2    1    2    0    0  0.21086598028E+02 -0.56274260502E+01 -0.29153410254E+04  0.29167234274E+04  0.87097330705E+02 0.  0.
        -11    1    3    3    0    0  0.34185643816E+02 -0.18115154631E+02 -0.56951975798E+03  0.57083234999E+03  0.00000000000E+00 0.  1.
         12    1    3    3    0    0 -0.13099045788E+02  0.12487728581E+02 -0.23458212675E+04  0.23458910774E+04  0.00000000000E+00 0. -1.
          1    1    1    2  501    0 -0.21086598028E+02  0.56274260502E+01 -0.33234842101E+03  0.33306423628E+03  0.00000000000E+00 0. -1.
<mgrwt>
<rscale>  1 0.89790075E+02</rscale>
<asrwt>0</asrwt>
<pdfrwt beam="1">  1       21 0.16140137E-03 0.89790075E+02</pdfrwt>
<pdfrwt beam="2">  1        2 0.49980580E+00 0.89790075E+02</pdfrwt>
<totfact> 0.12252961E+06</totfact>
</mgrwt>
</event>
<event>
 6    2  0.7993170E+000  0.8640685E+02  0.7546771E-02  0.1311794E+00
         21   -1    0    0  501  502  0.00000000000E+00  0.00000000000E+00  0.25553145020E+02  0.25553145020E+02  0.00000000000E+00 0.  1.
          2   -1    0    0  502    0 -0.00000000000E+00 -0.00000000000E+00 -0.14528871437E+03  0.14528871437E+03  0.00000000000E+00 0. -1.
         24    2    1    2    0    0  0.62844207178E+01  0.29570771099E+02 -0.10823897882E+03  0.13849845139E+03  0.80945784668E+02 0.  0.
        -11    1    3    3    0    0 -0.12560563931E+02  0.21523383262E+02  0.32595360595E+01  0.25132615634E+02  0.00000000000E+00 0.  1.
         12    1    3    3    0    0  0.18844984649E+02  0.80473878378E+01 -0.11149851488E+03  0.11336583576E+03  0.00000000000E+00 0. -1.
          1    1    1    2  501    0 -0.62844207178E+01 -0.29570771099E+02 -0.11496590535E+02  0.32343408001E+02  0.00000000000E+00 0. -1.
<mgrwt>
<rscale>  1 0.86406854E+02</rscale>
<asrwt>0</asrwt>
<pdfrwt beam="1">  1       21 0.39312531E-02 0.86406854E+02</pdfrwt>
<pdfrwt beam="2">  1        2 0.22352110E-01 0.86406854E+02</pdfrwt>
<totfact> 0.11177525E+06</totfact>
</mgrwt>
</event>
<event>
 6    2  0.7993170E+000  0.9292696E+02  0.7546771E-02  0.1295915E+00
          2   -1    0    0  502    0 -0.00000000000E+00  0.00000000000E+00  0.33460777962E+03  0.33460777962E+03  0.00000000000E+00 0. -1.
         21   -1    0    0  501  502  0.00000000000E+00 -0.00000000000E+00 -0.14833358190E+02  0.14833358190E+02  0.00000000000E+00 0.  1.
         24    2    1    2    0    0 -0.44489287412E+02  0.16353306268E+02  0.22626793051E+03  0.24460702521E+03  0.79929300542E+02 0.  0.
        -11    1    3    3    0    0 -0.15347068167E+02 -0.65818217432E+01  0.14619730650E+01  0.16762763616E+02  0.00000000000E+00 0.  1.
         12    1    3    3    0    0 -0.29142219245E+02  0.22935128011E+02  0.22480595744E+03  0.22784426159E+03  0.00000000000E+00 0. -1.
          1    1    1    2  501    0  0.44489287412E+02 -0.16353306268E+02  0.93506490927E+02  0.10483411261E+03  0.00000000000E+00 0. -1.
<mgrwt>
<rscale>  1 0.92926963E+02</rscale>
<asrwt>0</asrwt>
<pdfrwt beam="1">  1       21 0.22820554E-02 0.92926963E+02</pdfrwt>
<pdfrwt beam="2">  1        2 0.51478114E-01 0.92926963E+02</pdfrwt>
<totfact> 0.11231595E+06</totfact>
</mgrwt>
</event>
<event>
 6    2  0.7993170E+000  0.8833334E+02  0.7546771E-02  0.1306939E+00
          2   -1    0    0  502    0 -0.00000000000E+00  0.00000000000E+00  0.81383923015E+03  0.81383923015E+03  0.00000000000E+00 0. -1.
         21   -1    0    0  501  502  0.00000000000E+00 -0.00000000000E+00 -0.58333690917E+01  0.58333690917E+01  0.00000000000E+00 0. -1.
         24    2    1    2    0    0 -0.25944887312E+02  0.29184440110E+02  0.68356240385E+03  0.68924621094E+03  0.79233267144E+02 0.  0.
        -11    1    3    3    0    0 -0.39300629917E+02 -0.14809684981E+02  0.35742384429E+03  0.35988285698E+03  0.00000000000E+00 0.  1.
         12    1    3    3    0    0  0.13355742604E+02  0.43994125091E+02  0.32613855956E+03  0.32936335397E+03  0.00000000000E+00 0. -1.
          1    1    1    2  501    0  0.25944887312E+02 -0.29184440110E+02  0.12444345721E+03  0.13042638829E+03  0.00000000000E+00 0. -1.
<mgrwt>
<rscale>  1 0.88333342E+02</rscale>
<asrwt>0</asrwt>
<pdfrwt beam="1">  1       21 0.89744204E-03 0.88333342E+02</pdfrwt>
<pdfrwt beam="2">  1        2 0.12520595E+00 0.88333342E+02</pdfrwt>
<totfact> 0.18328068E+06</totfact>
</mgrwt>
</event>
<event>
 6    2  0.7993170E+000  0.9294850E+02  0.7546771E-02  0.1295865E+00
         21   -1    0    0  501  502  0.00000000000E+00  0.00000000000E+00  0.29531688323E+01  0.29531688323E+01  0.00000000000E+00 0. -1.
          2   -1    0    0  502    0 -0.00000000000E+00 -0.00000000000E+00 -0.32020634594E+04  0.32020634594E+04  0.00000000000E+00 0. -1.
         24    2    1    2    0    0  0.31860768617E+02 -0.35514624586E+02 -0.29449731038E+04  0.29464395472E+04  0.79768578213E+02 0.  0.
        -11    1    3    3    0    0 -0.61160142583E+01  0.10568962268E+02 -0.88079053790E+02  0.88921472718E+02  0.00000000000E+00 0.  1.
         12    1    3    3    0    0  0.37976782876E+02 -0.46083586855E+02 -0.28568940500E+04  0.28575180745E+04  0.00000000000E+00 0. -1.
          1    1    1    2  501    0 -0.31860768617E+02  0.35514624586E+02 -0.25413718678E+03  0.25857708104E+03  0.00000000000E+00 0. -1.
<mgrwt>
<rscale>  1 0.92948498E+02</rscale>
<asrwt>0</asrwt>
<pdfrwt beam="1">  1       21 0.45433524E-03 0.92948498E+02</pdfrwt>
<pdfrwt beam="2">  1        2 0.49262344E+00 0.92948498E+02</pdfrwt>
<totfact> 0.27393201E+05</totfact>
</mgrwt>
</event>
<event>
 6    2  0.7993170E+000  0.8491946E+02  0.7546771E-02  0.1315643E+00
         -1   -1    0    0    0  501 -0.00000000000E+00  0.00000000000E+00  0.37539933308E+01  0.37539933308E+01  0.00000000000E+00 0.  1.
         21   -1    0    0  501  502  0.00000000000E+00 -0.00000000000E+00 -0.88793477623E+03  0.88793477623E+03  0.00000000000E+00 0. -1.
         24    2    1    2    0    0 -0.28170309893E+02 -0.97662019028E+01 -0.60758962516E+03  0.61349528725E+03  0.79513331086E+02 0.  0.
        -13    1    3    3    0    0  0.12721996491E+02 -0.26529546749E+01 -0.16753296194E+02  0.21202836994E+02  0.00000000000E+00 0.  1.
         14    1    3    3    0    0 -0.40892306384E+02 -0.71132472278E+01 -0.59083632896E+03  0.59229245026E+03  0.00000000000E+00 0. -1.
         -2    1    1    2    0  502  0.28170309893E+02  0.97662019028E+01 -0.27659115775E+03  0.27819348231E+03  0.00000000000E+00 0.  1.
<mgrwt>
<rscale>  1 0.84919461E+02</rscale>
<asrwt>0</asrwt>
<pdfrwt beam="1">  1       21 0.13660531E+00 0.84919461E+02</pdfrwt>
<pdfrwt beam="2">  1       -1 0.57753762E-03 0.84919461E+02</pdfrwt>
<totfact> 0.13185616E+05</totfact>
</mgrwt>
</event>
<event>
 6    2  0.7993170E+000  0.1079772E+03  0.7546771E-02  0.1264362E+00
          2   -1    0    0  502    0 -0.00000000000E+00  0.00000000000E+00  0.11937657648E+04  0.11937657648E+04  0.00000000000E+00 0. -1.
         21   -1    0    0  501  502  0.00000000000E+00 -0.00000000000E+00 -0.68627501451E+01  0.68627501451E+01  0.00000000000E+00 0.  1.
         24    2    1    2    0    0 -0.39246570428E+02  0.59875617796E+02  0.63733643986E+03  0.64641844373E+03  0.80831206430E+02 0.  0.
        -13    1    3    3    0    0 -0.25506116701E+02  0.71603245258E+02  0.33379888198E+03  0.34234380428E+03  0.00000000000E+00 0.  1.
         14    1    3    3    0    0 -0.13740453727E+02 -0.11727627462E+02  0.30353755788E+03  0.30407463945E+03  0.00000000000E+00 0. -1.
          1    1    1    2  501    0  0.39246570428E+02 -0.59875617796E+02  0.54956657481E+03  0.55421007122E+03  0.00000000000E+00 0. -1.
<mgrwt>
<rscale>  1 0.10797716E+03</rscale>
<asrwt>0</asrwt>
<pdfrwt beam="1">  1       21 0.10558087E-02 0.10797716E+03</pdfrwt>
<pdfrwt beam="2">  1        2 0.18365611E+00 0.10797716E+03</pdfrwt>
<totfact> 0.86052628E+05</totfact>
</mgrwt>
</event>
<event>
 6    2  0.7993170E+000  0.1022011E+03  0.7546771E-02  0.1275734E+00
         21   -1    0    0  501  502  0.00000000000E+00  0.00000000000E+00  0.27268316452E+01  0.27268316452E+01  0.00000000000E+00 0. -1.
          2   -1    0    0  502    0 -0.00000000000E+00 -0.00000000000E+00 -0.24317562713E+04  0.24317562713E+04  0.00000000000E+00 0. -1.
         24    2    1    2    0    0 -0.12372941340E+02  0.58431466106E+02 -0.16550876485E+04  0.16582400856E+04  0.82932088518E+02 0.  0.
        -11    1    3    3    0    0 -0.34034648799E+02  0.17685060114E+02 -0.31038366218E+03  0.31274452261E+03  0.00000000000E+00 0.  1.
         12    1    3    3    0    0  0.21661707459E+02  0.40746405991E+02 -0.13447039863E+04  0.13454955630E+04  0.00000000000E+00 0. -1.
          1    1    1    2  501    0  0.12372941340E+02 -0.58431466106E+02 -0.77394179113E+03  0.77624301734E+03  0.00000000000E+00 0. -1.
<mgrwt>
<rscale>  1 0.10220106E+03</rscale>
<asrwt>0</asrwt>
<pdfrwt beam="1">  1       21 0.41951314E-03 0.10220106E+03</pdfrwt>
<pdfrwt beam="2">  1        2 0.37411583E+00 0.10220106E+03</pdfrwt>
<totfact> 0.82789084E+05</totfact>
</mgrwt>
</event>
<event>
 6    2  0.7993170E+000  0.8465930E+02  0.7546771E-02  0.1316326E+00
         21   -1    0    0  501  502  0.00000000000E+00  0.00000000000E+00  0.95849620298E+01  0.95849620298E+01  0.00000000000E+00 0. -1.
         -1   -1    0    0    0  501 -0.00000000000E+00 -0.00000000000E+00 -0.41172840624E+03  0.41172840624E+03  0.00000000000E+00 0.  1.
         24    2    1    2    0    0 -0.15535938468E+02  0.24810600950E+02 -0.20174473595E+03  0.21878787956E+03  0.79437185603E+02 0.  0.
        -11    1    3    3    0    0 -0.15653447821E+02  0.62942510233E+01 -0.19941240221E+03  0.20012484648E+03  0.00000000000E+00 0.  1.
         12    1    3    3    0    0  0.11750935249E+00  0.18516349927E+02 -0.23323337400E+01  0.18663033080E+02  0.00000000000E+00 0. -1.
         -2    1    1    2    0  502  0.15535938468E+02 -0.24810600950E+02 -0.20039870825E+03  0.20252548870E+03  0.00000000000E+00 0.  1.
<mgrwt>
<rscale>  1 0.84659304E+02</rscale>
<asrwt>0</asrwt>
<pdfrwt beam="1">  1       21 0.14746093E-02 0.84659304E+02</pdfrwt>
<pdfrwt beam="2">  1       -1 0.63342843E-01 0.84659304E+02</pdfrwt>
<totfact> 0.45643514E+05</totfact>
</mgrwt>
</event>
<event>
 6    2  0.7993170E+000  0.8857566E+02  0.7546771E-02  0.1306338E+00
         21   -1    0    0  501  502  0.00000000000E+00  0.00000000000E+00  0.18427946575E+03  0.18427946575E+03  0.00000000000E+00 0.  1.
         -1   -1    0    0    0  501 -0.00000000000E+00 -0.00000000000E+00 -0.30242614162E+02  0.30242614162E+02  0.00000000000E+00 0.  1.
         24    2    1    2    0    0  0.31605349268E+02 -0.18340191876E+02  0.44649739009E+02  0.99192980640E+02  0.80686972147E+02 0.  0.
        -13    1    3    3    0    0  0.23719899918E+02 -0.46249894011E+02  0.82124664468E+01  0.52622532752E+02  0.00000000000E+00 0.  1.
         14    1    3    3    0    0  0.78854493501E+01  0.27909702134E+02  0.36437272562E+02  0.46570447887E+02  0.00000000000E+00 0. -1.
         -2    1    1    2    0  502 -0.31605349268E+02  0.18340191876E+02  0.10938711258E+03  0.11532909927E+03  0.00000000000E+00 0.  1.
<mgrwt>
<rscale>  1 0.88575664E+02</rscale>
<asrwt>0</asrwt>
<pdfrwt beam="1">  1       21 0.28350686E-01 0.88575664E+02</pdfrwt>
<pdfrwt beam="2">  1       -1 0.46527100E-02 0.88575664E+02</pdfrwt>
<totfact> 0.19544725E+05</totfact>
</mgrwt>
</event>
<event>
 6    2  0.7993170E+000  0.9445637E+02  0.7546771E-02  0.1292405E+00
         21   -1    0    0  501  502  0.00000000000E+00  0.00000000000E+00  0.31673579980E+02  0.31673579980E+02  0.00000000000E+00 0. -1.
          4   -1    0    0  502    0 -0.00000000000E+00 -0.00000000000E+00 -0.37054933254E+03  0.37054933254E+03  0.00000000000E+00 0. -1.
         24    2    1    2    0    0 -0.47725691074E+02 -0.12877396657E+02 -0.33989941791E+03  0.35277984603E+03  0.80488735452E+02 0.  0.
        -11    1    3    3    0    0  0.20921496218E+02 -0.46302292584E+00 -0.43365529934E+02  0.48150727728E+02  0.00000000000E+00 0.  1.
         12    1    3    3    0    0 -0.68647187292E+02 -0.12414373731E+02 -0.29653388798E+03  0.30462911830E+03  0.00000000000E+00 0. -1.
          3    1    1    2  501    0  0.47725691074E+02  0.12877396657E+02  0.10236653529E+01  0.49443066490E+02  0.00000000000E+00 0. -1.
<mgrwt>
<rscale>  1 0.94456368E+02</rscale>
<asrwt>0</asrwt>
<pdfrwt beam="1">  1       21 0.48728583E-02 0.94456368E+02</pdfrwt>
<pdfrwt beam="2">  1        4 0.57007591E-01 0.94456368E+02</pdfrwt>
<totfact> 0.32104072E+04</totfact>
</mgrwt>
</event>
<event>
 6    2  0.7993170E+000  0.8425323E+02  0.7546771E-02  0.1317397E+00
         -1   -1    0    0    0  501 -0.00000000000E+00  0.00000000000E+00  0.48597306655E+02  0.48597306655E+02  0.00000000000E+00 0.  1.
         21   -1    0    0  501  502  0.00000000000E+00 -0.00000000000E+00 -0.20575311624E+03  0.20575311624E+03  0.00000000000E+00 0.  1.
         24    2    1    2    0    0 -0.21757663035E+02 -0.11053001585E+02  0.10520460401E+02  0.84907523187E+02  0.80641445063E+02 0.  0.
        -11    1    3    3    0    0 -0.89633245577E+01 -0.17145072705E+01  0.45554206594E+02  0.46459298970E+02  0.00000000000E+00 0.  1.
         12    1    3    3    0    0 -0.12794338477E+02 -0.93384943148E+01 -0.35033746193E+02  0.38448224217E+02  0.00000000000E+00 0. -1.
         -2    1    1    2    0  502  0.21757663035E+02  0.11053001585E+02 -0.16767626999E+03  0.16944289971E+03  0.00000000000E+00 0.  1.
<mgrwt>
<rscale>  1 0.84253234E+02</rscale>
<asrwt>0</asrwt>
<pdfrwt beam="1">  1       21 0.31654326E-01 0.84253234E+02</pdfrwt>
<pdfrwt beam="2">  1       -1 0.74765087E-02 0.84253234E+02</pdfrwt>
<totfact> 0.78568571E+04</totfact>
</mgrwt>
</event>
<event>
 6    2  0.7993170E+000  0.8082957E+02  0.7546771E-02  0.1326714E+00
         21   -1    0    0  501  502  0.00000000000E+00  0.00000000000E+00  0.15265232436E+01  0.15265232436E+01  0.00000000000E+00 0. -1.
          2   -1    0    0  502    0 -0.00000000000E+00 -0.00000000000E+00 -0.22966391540E+04  0.22966391540E+04  0.00000000000E+00 0. -1.
         24    2    1    2    0    0  0.36291558741E+01  0.25378430397E+02 -0.20735457075E+04  0.20751205316E+04  0.76656272991E+02 0.  0.
        -11    1    3    3    0    0  0.23543088422E+02  0.43908232140E+01 -0.21174645155E+03  0.21309649478E+03  0.00000000000E+00 0.  1.
         12    1    3    3    0    0 -0.19913932548E+02  0.20987607183E+02 -0.18617992559E+04  0.18620240368E+04  0.00000000000E+00 0. -1.
          1    1    1    2  501    0 -0.36291558741E+01 -0.25378430397E+02 -0.22156692333E+03  0.22304514569E+03  0.00000000000E+00 0. -1.
<mgrwt>
<rscale>  1 0.80829572E+02</rscale>
<asrwt>0</asrwt>
<pdfrwt beam="1">  1       21 0.23484899E-03 0.80829572E+02</pdfrwt>
<pdfrwt beam="2">  1        2 0.35333021E+00 0.80829572E+02</pdfrwt>
<totfact> 0.23162338E+06</totfact>
</mgrwt>
</event>
<event>
 6    2  0.7993170E+000  0.9509648E+02  0.7546771E-02  0.1290959E+00
          2   -1    0    0  502    0 -0.00000000000E+00  0.00000000000E+00  0.54173943012E+03  0.54173943012E+03  0.00000000000E+00 0. -1.
         21   -1    0    0  501  502  0.00000000000E+00 -0.00000000000E+00 -0.13857176379E+02  0.13857176379E+02  0.00000000000E+00 0.  1.
         24    2    1    2    0    0 -0.19998000539E+02 -0.48929636840E+02  0.17862116891E+03  0.20235825246E+03  0.79052583568E+02 0.  0.
        -11    1    3    3    0    0 -0.86388401650E+01 -0.30348007572E+02  0.11132958329E+02  0.33460034132E+02  0.00000000000E+00 0.  1.
         12    1    3    3    0    0 -0.11359160374E+02 -0.18581629269E+02  0.16748821058E+03  0.16889821832E+03  0.00000000000E+00 0. -1.
          1    1    1    2  501    0  0.19998000539E+02  0.48929636840E+02  0.34926108484E+03  0.35323835405E+03  0.00000000000E+00 0. -1.
<mgrwt>
<rscale>  1 0.95096479E+02</rscale>
<asrwt>0</asrwt>
<pdfrwt beam="1">  1       21 0.21318737E-02 0.95096479E+02</pdfrwt>
<pdfrwt beam="2">  1        2 0.83344511E-01 0.95096479E+02</pdfrwt>
<totfact> 0.75192660E+05</totfact>
</mgrwt>
</event>
<event>
 6    2  0.7993170E+000  0.1141262E+03  0.7546771E-02  0.1253114E+00
          4   -1    0    0  502    0 -0.00000000000E+00  0.00000000000E+00  0.20340089117E+03  0.20340089117E+03  0.00000000000E+00 0. -1.
         21   -1    0    0  501  502  0.00000000000E+00 -0.00000000000E+00 -0.12352419480E+03  0.12352419480E+03  0.00000000000E+00 0. -1.
         24    2    1    2    0    0  0.49580293852E+02  0.63843162492E+02  0.17070164715E+03  0.20533838184E+03  0.80564531792E+02 0.  0.
        -13    1    3    3    0    0 -0.17403948446E+02  0.26868696296E+02  0.24448726704E+02  0.40281068750E+02  0.00000000000E+00 0.  1.
         14    1    3    3    0    0  0.66984242298E+02  0.36974466195E+02  0.14625292045E+03  0.16505731309E+03  0.00000000000E+00 0. -1.
          3    1    1    2  501    0 -0.49580293852E+02 -0.63843162492E+02 -0.90824950781E+02  0.12158670412E+03  0.00000000000E+00 0. -1.
<mgrwt>
<rscale>  1 0.11412624E+03</rscale>
<asrwt>0</asrwt>
<pdfrwt beam="1">  1       21 0.19003722E-01 0.11412624E+03</pdfrwt>
<pdfrwt beam="2">  1        4 0.31292445E-01 0.11412624E+03</pdfrwt>
<totfact> 0.10056412E+04</totfact>
</mgrwt>
</event>
<event>
 6    2  0.7993170E+000  0.8441311E+02  0.7546771E-02  0.1316974E+00
         21   -1    0    0  501  502  0.00000000000E+00  0.00000000000E+00  0.34284820232E+01  0.34284820232E+01  0.00000000000E+00 0.  1.
          2   -1    0    0  502    0 -0.00000000000E+00 -0.00000000000E+00 -0.93020375851E+03  0.93020375851E+03  0.00000000000E+00 0. -1.
         24    2    1    2    0    0 -0.19465469501E+02 -0.17020906899E+02 -0.61157251050E+03  0.61737064081E+03  0.80355191237E+02 0.  0.
        -11    1    3    3    0    0 -0.25665812773E+02  0.68708503096E+00 -0.57399474512E+02  0.62880089897E+02  0.00000000000E+00 0.  1.
         12    1    3    3    0    0  0.62003432719E+01 -0.17707991930E+02 -0.55417303599E+03  0.55449055091E+03  0.00000000000E+00 0. -1.
          1    1    1    2  501    0  0.19465469501E+02  0.17020906899E+02 -0.31520276598E+03  0.31626159972E+03  0.00000000000E+00 0. -1.
<mgrwt>
<rscale>  1 0.84413106E+02</rscale>
<asrwt>0</asrwt>
<pdfrwt beam="1">  1       21 0.52745874E-03 0.84413106E+02</pdfrwt>
<pdfrwt beam="2">  1        2 0.14310828E+00 0.84413106E+02</pdfrwt>
<totfact> 0.35011998E+06</totfact>
</mgrwt>
</event>
<event>
 6    2  0.7993170E+000  0.8541773E+02  0.7546771E-02  0.1314344E+00
          2   -1    0    0  502    0 -0.00000000000E+00  0.00000000000E+00  0.18467694958E+04  0.18467694958E+04  0.00000000000E+00 0. -1.
         21   -1    0    0  501  502  0.00000000000E+00 -0.00000000000E+00 -0.94512581270E+01  0.94512581270E+01  0.00000000000E+00 0. -1.
         24    2    1    2    0    0  0.58177853779E+01 -0.23416996964E+02  0.18285562781E+04  0.18305502590E+04  0.81938918510E+02 0.  0.
        -11    1    3    3    0    0  0.38031863494E+01  0.29217869996E+02  0.43364811104E+03  0.43464794071E+03  0.00000000000E+00 0.  1.
         12    1    3    3    0    0  0.20145990285E+01 -0.52634866960E+02  0.13949081670E+04  0.13959023183E+04  0.00000000000E+00 0. -1.
          1    1    1    2  501    0 -0.58177853779E+01  0.23416996964E+02  0.87619596326E+01  0.25670494934E+02  0.00000000000E+00 0. -1.
<mgrwt>
<rscale>  1 0.85417731E+02</rscale>
<asrwt>0</asrwt>
<pdfrwt beam="1">  1       21 0.14540412E-02 0.85417731E+02</pdfrwt>
<pdfrwt beam="2">  1        2 0.28411810E+00 0.85417731E+02</pdfrwt>
<totfact> 0.23716753E+05</totfact>
</mgrwt>
</event>
<event>
 6    2  0.7993170E+000  0.1208974E+03  0.7546771E-02  0.1241624E+00
          2   -1    0    0  502    0 -0.00000000000E+00  0.00000000000E+00  0.30068740465E+04  0.30068740465E+04  0.00000000000E+00 0. -1.
         21   -1    0    0  501  502  0.00000000000E+00 -0.00000000000E+00 -0.37356398224E+01  0.37356398224E+01  0.00000000000E+00 0.  1.
         24    2    1    2    0    0 -0.71413160931E+02 -0.55870843217E+02  0.18066169042E+04  0.18106575637E+04  0.79967392071E+02 0.  0.
        -13    1    3    3    0    0 -0.67874440485E+02 -0.64303487969E+02  0.10957275510E+04  0.10997093908E+04  0.00000000000E+00 0.  1.
         14    1    3    3    0    0 -0.35387204460E+01  0.84326447518E+01  0.71088935322E+03  0.71094817290E+03  0.00000000000E+00 0. -1.
          1    1    1    2  501    0  0.71413160931E+02  0.55870843217E+02  0.11965215024E+04  0.11999521226E+04  0.00000000000E+00 0. -1.
<mgrwt>
<rscale>  1 0.12089737E+03</rscale>
<asrwt>0</asrwt>
<pdfrwt beam="1">  1       21 0.57471622E-03 0.12089737E+03</pdfrwt>
<pdfrwt beam="2">  1        2 0.46259407E+00 0.12089737E+03</pdfrwt>
<totfact> 0.24722509E+05</totfact>
</mgrwt>
</event>
<event>
 6    2  0.7993170E+000  0.1152904E+03  0.7546771E-02  0.1251075E+00
         21   -1    0    0  501  502  0.00000000000E+00  0.00000000000E+00  0.10403420675E+02  0.10403420675E+02  0.00000000000E+00 0.  1.
          2   -1    0    0  502    0 -0.00000000000E+00 -0.00000000000E+00 -0.11994774512E+04  0.11994774512E+04  0.00000000000E+00 0. -1.
         24    2    1    2    0    0 -0.33583447809E+02 -0.74171000169E+02 -0.39040433293E+03  0.40707175939E+03  0.81625295651E+02 0.  0.
        -13    1    3    3    0    0 -0.56674690116E+02 -0.40090149853E+02 -0.18530405675E+03  0.19788085825E+03  0.00000000000E+00 0.  1.
         14    1    3    3    0    0  0.23091242307E+02 -0.34080850316E+02 -0.20510027619E+03  0.20919090114E+03  0.00000000000E+00 0. -1.
          1    1    1    2  501    0  0.33583447809E+02  0.74171000169E+02 -0.79866969762E+03  0.80280911251E+03  0.00000000000E+00 0. -1.
<mgrwt>
<rscale>  1 0.11529039E+03</rscale>
<asrwt>0</asrwt>
<pdfrwt beam="1">  1       21 0.16005270E-02 0.11529039E+03</pdfrwt>
<pdfrwt beam="2">  1        2 0.18453491E+00 0.11529039E+03</pdfrwt>
<totfact> 0.44352289E+05</totfact>
</mgrwt>
</event>
<event>
 6    2  0.7993170E+000  0.9001972E+02  0.7546771E-02  0.1302804E+00
         -1   -1    0    0    0  501 -0.00000000000E+00  0.00000000000E+00  0.40578617672E+02  0.40578617672E+02  0.00000000000E+00 0.  1.
         21   -1    0    0  501  502  0.00000000000E+00 -0.00000000000E+00 -0.18204559506E+03  0.18204559506E+03  0.00000000000E+00 0.  1.
         24    2    1    2    0    0  0.31186127448E+02  0.21906293965E+02 -0.15915462995E+02  0.91415817320E+02  0.81554211623E+02 0.  0.
        -13    1    3    3    0    0  0.50114045308E+02  0.39780779622E+02 -0.11590117640E+02  0.65025062794E+02  0.00000000000E+00 0.  1.
         14    1    3    3    0    0 -0.18927917860E+02 -0.17874485657E+02 -0.43253453555E+01  0.26390754526E+02  0.00000000000E+00 0. -1.
         -2    1    1    2    0  502 -0.31186127448E+02 -0.21906293965E+02 -0.12555151440E+03  0.13120839542E+03  0.00000000000E+00 0.  1.
<mgrwt>
<rscale>  1 0.90019718E+02</rscale>
<asrwt>0</asrwt>
<pdfrwt beam="1">  1       21 0.28007014E-01 0.90019718E+02</pdfrwt>
<pdfrwt beam="2">  1       -1 0.62428643E-02 0.90019718E+02</pdfrwt>
<totfact> 0.13012158E+05</totfact>
</mgrwt>
</event>
<event>
 6    2  0.7993170E+000  0.9212599E+02  0.7546771E-02  0.1297783E+00
         21   -1    0    0  501  502  0.00000000000E+00  0.00000000000E+00  0.97441032370E+01  0.97441032370E+01  0.00000000000E+00 0. -1.
          2   -1    0    0  502    0 -0.00000000000E+00 -0.00000000000E+00 -0.51155744683E+03  0.51155744683E+03  0.00000000000E+00 0. -1.
         24    2    1    2    0    0 -0.41675596607E+02  0.28147608637E+01 -0.25842857206E+03  0.27435838809E+03  0.82112240433E+02 0.  0.
        -11    1    3    3    0    0 -0.24457139594E+01 -0.30774991511E+02 -0.43690400969E+02  0.53497035022E+02  0.00000000000E+00 0.  1.
         12    1    3    3    0    0 -0.39229882648E+02  0.33589752375E+02 -0.21473817109E+03  0.22086135307E+03  0.00000000000E+00 0. -1.
          1    1    1    2  501    0  0.41675596607E+02 -0.28147608637E+01 -0.24338477153E+03  0.24694316197E+03  0.00000000000E+00 0. -1.
<mgrwt>
<rscale>  1 0.92125991E+02</rscale>
<asrwt>0</asrwt>
<pdfrwt beam="1">  1       21 0.14990923E-02 0.92125991E+02</pdfrwt>
<pdfrwt beam="2">  1        2 0.78701171E-01 0.92125991E+02</pdfrwt>
<totfact> 0.13994970E+06</totfact>
</mgrwt>
</event>
<event>
 6    2  0.7993170E+000  0.8353111E+02  0.7546771E-02  0.1319319E+00
         21   -1    0    0  501  502  0.00000000000E+00  0.00000000000E+00  0.32666068828E+02  0.32666068828E+02  0.00000000000E+00 0. -1.
         -3   -1    0    0    0  501 -0.00000000000E+00 -0.00000000000E+00 -0.86763778160E+02  0.86763778160E+02  0.00000000000E+00 0.  1.
         24    2    1    2    0    0 -0.13334522872E+02  0.17927525483E+02 -0.37320337145E+02  0.91489090240E+02  0.80487517033E+02 0.  0.
        -13    1    3    3    0    0  0.29176537773E+02 -0.96830092079E+01 -0.24211655735E+02  0.39131001740E+02  0.00000000000E+00 0.  1.
         14    1    3    3    0    0 -0.42511060645E+02  0.27610534691E+02 -0.13108681410E+02  0.52358088500E+02  0.00000000000E+00 0. -1.
         -4    1    1    2    0  502  0.13334522872E+02 -0.17927525483E+02 -0.16777372186E+02  0.27940756748E+02  0.00000000000E+00 0.  1.
<mgrwt>
<rscale>  1 0.83531108E+02</rscale>
<asrwt>0</asrwt>
<pdfrwt beam="1">  1       21 0.50255491E-02 0.83531108E+02</pdfrwt>
<pdfrwt beam="2">  1       -3 0.13348273E-01 0.83531108E+02</pdfrwt>
<totfact> 0.52263601E+05</totfact>
</mgrwt>
</event>
<event>
 6    2  0.7993170E+000  0.8365536E+02  0.7546771E-02  0.1318987E+00
          2   -1    0    0  502    0 -0.00000000000E+00  0.00000000000E+00  0.46099870038E+03  0.46099870038E+03  0.00000000000E+00 0. -1.
         21   -1    0    0  501  502  0.00000000000E+00 -0.00000000000E+00 -0.63172282910E+01  0.63172282910E+01  0.00000000000E+00 0. -1.
         24    2    1    2    0    0  0.14091497366E+02  0.18265167784E+02  0.38235484680E+03  0.39139934697E+03  0.80411648915E+02 0.  0.
        -11    1    3    3    0    0 -0.20889949528E+02 -0.20255514441E+02  0.18621954017E+03  0.18847915799E+03  0.00000000000E+00 0.  1.
         12    1    3    3    0    0  0.34981446894E+02  0.38520682224E+02  0.19613530664E+03  0.20292018898E+03  0.00000000000E+00 0. -1.
          1    1    1    2  501    0 -0.14091497366E+02 -0.18265167784E+02  0.72326625288E+02  0.75916581704E+02  0.00000000000E+00 0. -1.
<mgrwt>
<rscale>  1 0.83655364E+02</rscale>
<asrwt>0</asrwt>
<pdfrwt beam="1">  1       21 0.97188164E-03 0.83655364E+02</pdfrwt>
<pdfrwt beam="2">  1        2 0.70922851E-01 0.83655364E+02</pdfrwt>
<totfact> 0.30576844E+06</totfact>
</mgrwt>
</event>
<event>
 6    2  0.7993170E+000  0.9171809E+02  0.7546771E-02  0.1298744E+00
         21   -1    0    0  501  502  0.00000000000E+00  0.00000000000E+00  0.16067163461E+01  0.16067163461E+01  0.00000000000E+00 0.  1.
          2   -1    0    0  502    0 -0.00000000000E+00 -0.00000000000E+00 -0.27072329024E+04  0.27072329024E+04  0.00000000000E+00 0. -1.
         24    2    1    2    0    0 -0.21203077014E+02  0.34138562330E+02 -0.18824331305E+04  0.18846662034E+04  0.82445105253E+02 0.  0.
        -13    1    3    3    0    0  0.18472294046E+02 -0.71160713929E+01 -0.15160277595E+03  0.15288971776E+03  0.00000000000E+00 0.  1.
         14    1    3    3    0    0 -0.39675371060E+02  0.41254633723E+02 -0.17308303546E+04  0.17317764856E+04  0.00000000000E+00 0. -1.
          1    1    1    2  501    0  0.21203077014E+02 -0.34138562330E+02 -0.82319305557E+03  0.82417341540E+03  0.00000000000E+00 0. -1.
<mgrwt>
<rscale>  1 0.91718086E+02</rscale>
<asrwt>0</asrwt>
<pdfrwt beam="1">  1       21 0.24718885E-03 0.91718086E+02</pdfrwt>
<pdfrwt beam="2">  1        2 0.41649447E+00 0.91718086E+02</pdfrwt>
<totfact> 0.13143502E+06</totfact>
</mgrwt>
</event>
<event>
 6    2  0.7993170E+000  0.1197853E+03  0.7546771E-02  0.1243452E+00
         21   -1    0    0  501  502  0.00000000000E+00  0.00000000000E+00  0.37385267308E+01  0.37385267308E+01  0.00000000000E+00 0. -1.
          2   -1    0    0  502    0 -0.00000000000E+00 -0.00000000000E+00 -0.42631170453E+04  0.42631170453E+04  0.00000000000E+00 0. -1.
         24    2    1    2    0    0 -0.29847455158E+02  0.82269109855E+02 -0.35611163119E+04  0.35631303513E+04  0.81788975599E+02 0.  0.
        -13    1    3    3    0    0 -0.20433261849E+02 -0.25241190324E+01 -0.22943946609E+03  0.23036136387E+03  0.00000000000E+00 0.  1.
         14    1    3    3    0    0 -0.94141933083E+01  0.84793228888E+02 -0.33316768458E+04  0.33327689875E+04  0.00000000000E+00 0. -1.
          1    1    1    2  501    0  0.29847455158E+02 -0.82269109855E+02 -0.69826220662E+03  0.70372522067E+03  0.00000000000E+00 0. -1.
<mgrwt>
<rscale>  1 0.11978528E+03</rscale>
<asrwt>0</asrwt>
<pdfrwt beam="1">  1       21 0.57515216E-03 0.11978528E+03</pdfrwt>
<pdfrwt beam="2">  1        2 0.65587078E+00 0.11978528E+03</pdfrwt>
<totfact> 0.34736370E+04</totfact>
</mgrwt>
</event>
<event>
 6    2  0.7993170E+000  0.8406032E+02  0.7546771E-02  0.1317908E+00
          2   -1    0    0  502    0 -0.00000000000E+00  0.00000000000E+00  0.90332024877E+01  0.90332024877E+01  0.00000000000E+00 0. -1.
         21   -1    0    0  501  502  0.00000000000E+00 -0.00000000000E+00 -0.48915823736E+03  0.48915823736E+03  0.00000000000E+00 0. -1.
         24    2    1    2    0    0 -0.13622069814E+02  0.20237863424E+02 -0.19921163852E+03  0.21622075316E+03  0.80442558839E+02 0.  0.
        -11    1    3    3    0    0  0.27827331897E+02 -0.12627529970E+02 -0.85797156058E+02  0.91076708885E+02  0.00000000000E+00 0.  1.
         12    1    3    3    0    0 -0.41449401710E+02  0.32865393394E+02 -0.11341448246E+03  0.12514404428E+03  0.00000000000E+00 0. -1.
          1    1    1    2  501    0  0.13622069814E+02 -0.20237863424E+02 -0.28091339635E+03  0.28197068669E+03  0.00000000000E+00 0. -1.
<mgrwt>
<rscale>  1 0.84060319E+02</rscale>
<asrwt>0</asrwt>
<pdfrwt beam="1">  1       21 0.75255126E-01 0.84060319E+02</pdfrwt>
<pdfrwt beam="2">  1        2 0.13897232E-02 0.84060319E+02</pdfrwt>
<totfact> 0.16215854E+05</totfact>
</mgrwt>
</event>
<event>
 6    2  0.7993170E+000  0.1061822E+03  0.7546771E-02  0.1267808E+00
         21   -1    0    0  501  502  0.00000000000E+00  0.00000000000E+00  0.12707289291E+03  0.12707289291E+03  0.00000000000E+00 0.  1.
          4   -1    0    0  502    0 -0.00000000000E+00 -0.00000000000E+00 -0.54937155811E+02  0.54937155811E+02  0.00000000000E+00 0. -1.
         24    2    1    2    0    0 -0.27680361607E+02  0.54199947287E+02  0.43428849707E+02  0.11472021228E+03  0.87010490251E+02 0.  0.
        -11    1    3    3    0    0  0.42400566381E+01  0.42701279053E+02  0.62489456458E+02  0.75804415976E+02  0.00000000000E+00 0.  1.
         12    1    3    3    0    0 -0.31920418245E+02  0.11498668234E+02 -0.19060606751E+02  0.38915796302E+02  0.00000000000E+00 0. -1.
          3    1    1    2  501    0  0.27680361607E+02 -0.54199947287E+02  0.28706887390E+02  0.67289836441E+02  0.00000000000E+00 0. -1.
<mgrwt>
<rscale>  1 0.10618221E+03</rscale>
<asrwt>0</asrwt>
<pdfrwt beam="1">  1       21 0.19549676E-01 0.10618221E+03</pdfrwt>
<pdfrwt beam="2">  1        4 0.84518702E-02 0.10618221E+03</pdfrwt>
<totfact> 0.94685059E+04</totfact>
</mgrwt>
</event>
<event>
 6    2  0.7993170E+000  0.9437998E+02  0.7546771E-02  0.1292579E+00
         -3   -1    0    0    0  501 -0.00000000000E+00  0.00000000000E+00  0.55451770010E+03  0.55451770010E+03  0.00000000000E+00 0.  1.
         21   -1    0    0  501  502  0.00000000000E+00 -0.00000000000E+00 -0.67208362925E+01  0.67208362925E+01  0.00000000000E+00 0. -1.
         24    2    1    2    0    0  0.26360016259E+02  0.71370499953E+01  0.40474450494E+03  0.41560280823E+03  0.90342636611E+02 0.  0.
        -11    1    3    3    0    0  0.21236956542E+02  0.21728092677E+02  0.39726420966E+03  0.39842435996E+03  0.00000000000E+00 0.  1.
         12    1    3    3    0    0  0.51230597175E+01 -0.14591042682E+02  0.74802952802E+01  0.17178448268E+02  0.00000000000E+00 0. -1.
         -4    1    1    2    0  502 -0.26360016259E+02 -0.71370499953E+01  0.14305235887E+03  0.14563572816E+03  0.00000000000E+00 0.  1.
<mgrwt>
<rscale>  1 0.94379976E+02</rscale>
<asrwt>0</asrwt>
<pdfrwt beam="1">  1       21 0.10339752E-02 0.94379976E+02</pdfrwt>
<pdfrwt beam="2">  1       -3 0.85310380E-01 0.94379976E+02</pdfrwt>
<totfact> 0.20678732E+05</totfact>
</mgrwt>
</event>
<event>
 6    2  0.7993170E+000  0.9027711E+02  0.7546771E-02  0.1302182E+00
          2   -1    0    0  502    0 -0.00000000000E+00  0.00000000000E+00  0.21951116728E+04  0.21951116728E+04  0.00000000000E+00 0. -1.
         21   -1    0    0  501  502  0.00000000000E+00 -0.00000000000E+00 -0.39118371900E+01  0.39118371900E+01  0.00000000000E+00 0. -1.
         24    2    1    2    0    0  0.40079700928E+01  0.39954629631E+02  0.20561355266E+04  0.20581164348E+04  0.80854928408E+02 0.  0.
        -11    1    3    3    0    0 -0.20115102813E+01  0.40097989058E+02  0.40814440112E+03  0.41011430976E+03  0.00000000000E+00 0.  1.
         12    1    3    3    0    0  0.60194803741E+01 -0.14335942694E+00  0.16479911254E+04  0.16480021251E+04  0.00000000000E+00 0. -1.
          1    1    1    2  501    0 -0.40079700928E+01 -0.39954629631E+02  0.13506430904E+03  0.14090707516E+03  0.00000000000E+00 0. -1.
<mgrwt>
<rscale>  1 0.90277105E+02</rscale>
<asrwt>0</asrwt>
<pdfrwt beam="1">  1       21 0.60182286E-03 0.90277105E+02</pdfrwt>
<pdfrwt beam="2">  1        2 0.33770850E+00 0.90277105E+02</pdfrwt>
<totfact> 0.62774768E+05</totfact>
</mgrwt>
</event>
<event>
 6    2  0.7993170E+000  0.8565757E+02  0.7546771E-02  0.1313722E+00
         21   -1    0    0  501  502  0.00000000000E+00  0.00000000000E+00  0.35291797376E+01  0.35291797376E+01  0.00000000000E+00 0.  1.
          2   -1    0    0  502    0 -0.00000000000E+00 -0.00000000000E+00 -0.11114599231E+04  0.11114599231E+04  0.00000000000E+00 0. -1.
         24    2    1    2    0    0 -0.28345920757E+02  0.18031447078E+01 -0.57959325394E+03  0.58588869150E+03  0.80811362158E+02 0.  0.
        -11    1    3    3    0    0 -0.20663425808E+02 -0.31354079931E+02 -0.13900170808E+03  0.14398447952E+03  0.00000000000E+00 0.  1.
         12    1    3    3    0    0 -0.76824949489E+01  0.33157224638E+02 -0.44059154587E+03  0.44190421198E+03  0.00000000000E+00 0. -1.
          1    1    1    2  501    0  0.28345920757E+02 -0.18031447078E+01 -0.52833748938E+03  0.52910041130E+03  0.00000000000E+00 0. -1.
<mgrwt>
<rscale>  1 0.85657567E+02</rscale>
<asrwt>0</asrwt>
<pdfrwt beam="1">  1       21 0.54295176E-03 0.85657567E+02</pdfrwt>
<pdfrwt beam="2">  1        2 0.17099351E+00 0.85657567E+02</pdfrwt>
<totfact> 0.26336276E+06</totfact>
</mgrwt>
</event>
<event>
 6    2  0.7993170E+000  0.8570428E+02  0.7546771E-02  0.1313601E+00
         21   -1    0    0  501  502  0.00000000000E+00  0.00000000000E+00  0.15312777454E+02  0.15312777454E+02  0.00000000000E+00 0. -1.
         -1   -1    0    0    0  501 -0.00000000000E+00 -0.00000000000E+00 -0.20623725403E+03  0.20623725403E+03  0.00000000000E+00 0.  1.
         24    2    1    2    0    0 -0.20041328919E+02  0.11228269268E+02 -0.12354051452E+03  0.15035784625E+03  0.82568119188E+02 0.  0.
        -11    1    3    3    0    0  0.18591972213E+02 -0.63283499609E+01 -0.99838337295E+02  0.10175167339E+03  0.00000000000E+00 0.  1.
         12    1    3    3    0    0 -0.38633301132E+02  0.17556619229E+02 -0.23702177226E+02  0.48606172863E+02  0.00000000000E+00 0. -1.
         -2    1    1    2    0  502  0.20041328919E+02 -0.11228269268E+02 -0.67383962050E+02  0.71192185226E+02  0.00000000000E+00 0.  1.
<mgrwt>
<rscale>  1 0.85704278E+02</rscale>
<asrwt>0</asrwt>
<pdfrwt beam="1">  1       21 0.23558119E-02 0.85704278E+02</pdfrwt>
<pdfrwt beam="2">  1       -1 0.31728809E-01 0.85704278E+02</pdfrwt>
<totfact> 0.73784349E+05</totfact>
</mgrwt>
</event>
<event>
 6    2  0.7993170E+000  0.8429687E+02  0.7546771E-02  0.1317282E+00
         21   -1    0    0  501  502  0.00000000000E+00  0.00000000000E+00  0.52004814412E+02  0.52004814412E+02  0.00000000000E+00 0. -1.
          2   -1    0    0  502    0 -0.00000000000E+00 -0.00000000000E+00 -0.23970310545E+03  0.23970310545E+03  0.00000000000E+00 0. -1.
         24    2    1    2    0    0  0.93863912692E+01  0.22539017346E+02 -0.22883705172E+03  0.24386955372E+03  0.80683649814E+02 0.  0.
        -11    1    3    3    0    0 -0.26601165074E+02  0.65426404805E+01 -0.27865961851E+02  0.39076079098E+02  0.00000000000E+00 0.  1.
         12    1    3    3    0    0  0.35987556343E+02  0.15996376866E+02 -0.20097108987E+03  0.20479347462E+03  0.00000000000E+00 0. -1.
          1    1    1    2  501    0 -0.93863912692E+01 -0.22539017346E+02  0.41138760687E+02  0.47838366139E+02  0.00000000000E+00 0. -1.
<mgrwt>
<rscale>  1 0.84296874E+02</rscale>
<asrwt>0</asrwt>
<pdfrwt beam="1">  1       21 0.80007406E-02 0.84296874E+02</pdfrwt>
<pdfrwt beam="2">  1        2 0.36877401E-01 0.84296874E+02</pdfrwt>
<totfact> 0.19859100E+05</totfact>
</mgrwt>
</event>
<event>
 6    2  0.7993170E+000  0.8407278E+02  0.7546771E-02  0.1317875E+00
          2   -1    0    0  502    0 -0.00000000000E+00  0.00000000000E+00  0.73014154040E+03  0.73014154040E+03  0.00000000000E+00 0. -1.
         21   -1    0    0  501  502  0.00000000000E+00 -0.00000000000E+00 -0.49535313282E+01  0.49535313282E+01  0.00000000000E+00 0.  1.
         24    2    1    2    0    0  0.17618041375E+02  0.15637581401E+02  0.66763443614E+03  0.67290710592E+03  0.80705040399E+02 0.  0.
        -11    1    3    3    0    0 -0.11992195012E+02 -0.86594789515E+01  0.24401516173E+02  0.28534773671E+02  0.00000000000E+00 0.  1.
         12    1    3    3    0    0  0.29610236387E+02  0.24297060352E+02  0.64323291997E+03  0.64437233225E+03  0.00000000000E+00 0. -1.
          1    1    1    2  501    0 -0.17618041375E+02 -0.15637581401E+02  0.57553572931E+02  0.62187965806E+02  0.00000000000E+00 0. -1.
<mgrwt>
<rscale>  1 0.84072783E+02</rscale>
<asrwt>0</asrwt>
<pdfrwt beam="1">  1       21 0.76208232E-03 0.84072783E+02</pdfrwt>
<pdfrwt beam="2">  1        2 0.11232938E+00 0.84072783E+02</pdfrwt>
<totfact> 0.26771358E+06</totfact>
</mgrwt>
</event>
<event>
 6    2  0.7993170E+000  0.8801013E+02  0.7546771E-02  0.1307743E+00
          2   -1    0    0  502    0 -0.00000000000E+00  0.00000000000E+00  0.13890485089E+04  0.13890485089E+04  0.00000000000E+00 0. -1.
         21   -1    0    0  501  502  0.00000000000E+00 -0.00000000000E+00 -0.26443438069E+01  0.26443438069E+01  0.00000000000E+00 0.  1.
         24    2    1    2    0    0 -0.19441461340E+02  0.21119486962E+02  0.85600673389E+03  0.86051921050E+03  0.83197235687E+02 0.  0.
        -11    1    3    3    0    0  0.21550556474E+02  0.37074431215E+02  0.35368770507E+03  0.35627788684E+03  0.00000000000E+00 0.  1.
         12    1    3    3    0    0 -0.40992017814E+02 -0.15954944254E+02  0.50231902882E+03  0.50424132365E+03  0.00000000000E+00 0. -1.
          1    1    1    2  501    0  0.19441461340E+02 -0.21119486962E+02  0.53039743122E+03  0.53117364222E+03  0.00000000000E+00 0. -1.
<mgrwt>
<rscale>  1 0.88010131E+02</rscale>
<asrwt>0</asrwt>
<pdfrwt beam="1">  1       21 0.40682323E-03 0.88010131E+02</pdfrwt>
<pdfrwt beam="2">  1        2 0.21369919E+00 0.88010131E+02</pdfrwt>
<totfact> 0.29150873E+06</totfact>
</mgrwt>
</event>
<event>
 6    2  0.7993170E+000  0.9491425E+02  0.7546771E-02  0.1291369E+00
         21   -1    0    0  501  502  0.00000000000E+00  0.00000000000E+00  0.24433224778E+03  0.24433224778E+03  0.00000000000E+00 0. -1.
          2   -1    0    0  502    0 -0.00000000000E+00 -0.00000000000E+00 -0.33489218880E+02  0.33489218880E+02  0.00000000000E+00 0. -1.
         24    2    1    2    0    0  0.20061869552E+02  0.41359947205E+02  0.21152920151E+03  0.23184761892E+03  0.83039698134E+02 0.  0.
        -13    1    3    3    0    0 -0.22952221084E+02 -0.10305282471E+02  0.83956926045E+02  0.87645700011E+02  0.00000000000E+00 0.  1.
         14    1    3    3    0    0  0.43014090636E+02  0.51665229676E+02  0.12757227546E+03  0.14420191891E+03  0.00000000000E+00 0. -1.
          1    1    1    2  501    0 -0.20061869552E+02 -0.41359947205E+02 -0.68617261141E+00  0.45973847735E+02  0.00000000000E+00 0. -1.
<mgrwt>
<rscale>  1 0.94914252E+02</rscale>
<asrwt>0</asrwt>
<pdfrwt beam="1">  1       21 0.37589575E-01 0.94914252E+02</pdfrwt>
<pdfrwt beam="2">  1        2 0.51521877E-02 0.94914252E+02</pdfrwt>
<totfact> 0.11987358E+05</totfact>
</mgrwt>
</event>
<event>
 6    2  0.7993170E+000  0.8570351E+02  0.7546771E-02  0.1313603E+00
         21   -1    0    0  501  502  0.00000000000E+00  0.00000000000E+00  0.11394374706E+01  0.11394374706E+01  0.00000000000E+00 0. -1.
          2   -1    0    0  502    0 -0.00000000000E+00 -0.00000000000E+00 -0.29250536291E+04  0.29250536291E+04  0.00000000000E+00 0. -1.
         24    2    1    2    0    0 -0.57156574475E+00 -0.28794282829E+02 -0.23402371522E+04  0.23418059314E+04  0.80719603144E+02 0.  0.
        -11    1    3    3    0    0 -0.68762514033E+00  0.23068641235E+02 -0.29140948677E+03  0.29232195267E+03  0.00000000000E+00 0.  1.
         12    1    3    3    0    0  0.11605939558E+00 -0.51862924064E+02 -0.20488276654E+04  0.20494839787E+04  0.00000000000E+00 0. -1.
          1    1    1    2  501    0  0.57156574475E+00  0.28794282829E+02 -0.58367703946E+03  0.58438713522E+03  0.00000000000E+00 0. -1.
<mgrwt>
<rscale>  1 0.85703511E+02</rscale>
<asrwt>0</asrwt>
<pdfrwt beam="1">  1       21 0.17529720E-03 0.85703511E+02</pdfrwt>
<pdfrwt beam="2">  1        2 0.45001050E+00 0.85703511E+02</pdfrwt>
<totfact> 0.16656592E+06</totfact>
</mgrwt>
</event>
<event>
 6    2  0.7993170E+000  0.8244908E+02  0.7546771E-02  0.1322242E+00
          4   -1    0    0  502    0 -0.00000000000E+00  0.00000000000E+00  0.57789263462E+02  0.57789263462E+02  0.00000000000E+00 0. -1.
         21   -1    0    0  501  502  0.00000000000E+00 -0.00000000000E+00 -0.87123655411E+02  0.87123655411E+02  0.00000000000E+00 0. -1.
         24    2    1    2    0    0 -0.19774455434E+02  0.84741637014E+01  0.25260616626E+02  0.86231955184E+02  0.79592781107E+02 0.  0.
        -11    1    3    3    0    0  0.24424828130E+02  0.25263684283E+02  0.11888240316E+02  0.37096579769E+02  0.00000000000E+00 0.  1.
         12    1    3    3    0    0 -0.44199283564E+02 -0.16789520582E+02  0.13372376310E+02  0.49135375415E+02  0.00000000000E+00 0. -1.
          3    1    1    2  501    0  0.19774455434E+02 -0.84741637014E+01 -0.54595008575E+02  0.58680963689E+02  0.00000000000E+00 0. -1.
<mgrwt>
<rscale>  1 0.82449083E+02</rscale>
<asrwt>0</asrwt>
<pdfrwt beam="1">  1       21 0.13403639E-01 0.82449083E+02</pdfrwt>
<pdfrwt beam="2">  1        4 0.88906559E-02 0.82449083E+02</pdfrwt>
<totfact> 0.16475657E+05</totfact>
</mgrwt>
</event>
<event>
 6    2  0.7993170E+000  0.8437669E+02  0.7546771E-02  0.1317071E+00
          2   -1    0    0  502    0 -0.00000000000E+00  0.00000000000E+00  0.62241187095E+03  0.62241187095E+03  0.00000000000E+00 0. -1.
         21   -1    0    0  501  502  0.00000000000E+00 -0.00000000000E+00 -0.60542842095E+01  0.60542842095E+01  0.00000000000E+00 0.  1.
         24    2    1    2    0    0  0.67129112495E+01 -0.23772589727E+02  0.31523087413E+03  0.32632794796E+03  0.80679777006E+02 0.  0.
        -11    1    3    3    0    0 -0.22498421685E+02 -0.22634422927E+02  0.27361853633E+03  0.27547340979E+03  0.00000000000E+00 0.  1.
         12    1    3    3    0    0  0.29211332934E+02 -0.11381667999E+01  0.41612337804E+02  0.50854538175E+02  0.00000000000E+00 0. -1.
          1    1    1    2  501    0 -0.67129112495E+01  0.23772589727E+02  0.30112671262E+03  0.30213820720E+03  0.00000000000E+00 0. -1.
<mgrwt>
<rscale>  1 0.84376689E+02</rscale>
<asrwt>0</asrwt>
<pdfrwt beam="1">  1       21 0.93142883E-03 0.84376689E+02</pdfrwt>
<pdfrwt beam="2">  1        2 0.95755622E-01 0.84376689E+02</pdfrwt>
<totfact> 0.23568548E+06</totfact>
</mgrwt>
</event>
<event>
 6    2  0.7993170E+000  0.9662782E+02  0.7546771E-02  0.1287551E+00
         21   -1    0    0  501  502  0.00000000000E+00  0.00000000000E+00  0.12185716518E+02  0.12185716518E+02  0.00000000000E+00 0. -1.
          2   -1    0    0  502    0 -0.00000000000E+00 -0.00000000000E+00 -0.67672462086E+03  0.67672462086E+03  0.00000000000E+00 0. -1.
         24    2    1    2    0    0  0.51133967220E+02 -0.23561052432E+02 -0.57556324209E+03  0.58361800970E+03  0.78531075385E+02 0.  0.
        -11    1    3    3    0    0 -0.40853346552E+01 -0.26566197181E+01  0.15928990532E+00  0.48757523364E+01  0.00000000000E+00 0.  1.
         12    1    3    3    0    0  0.55219301876E+02 -0.20904432714E+02 -0.57572253200E+03  0.57874225736E+03  0.00000000000E+00 0. -1.
          1    1    1    2  501    0 -0.51133967220E+02  0.23561052432E+02 -0.88975662250E+02  0.10529232768E+03  0.00000000000E+00 0. -1.
<mgrwt>
<rscale>  1 0.96627820E+02</rscale>
<asrwt>0</asrwt>
<pdfrwt beam="1">  1       21 0.18747261E-02 0.96627820E+02</pdfrwt>
<pdfrwt beam="2">  1        2 0.10411145E+00 0.96627820E+02</pdfrwt>
<totfact> 0.72020616E+05</totfact>
</mgrwt>
</event>
<event>
 6    2  0.7993170E+000  0.8438485E+02  0.7546771E-02  0.1317049E+00
         21   -1    0    0  501  502  0.00000000000E+00  0.00000000000E+00  0.39569779800E+01  0.39569779800E+01  0.00000000000E+00 0.  1.
          2   -1    0    0  502    0 -0.00000000000E+00 -0.00000000000E+00 -0.79036295971E+03  0.79036295971E+03  0.00000000000E+00 0. -1.
         24    2    1    2    0    0 -0.56339989873E+01  0.23717405389E+02 -0.67651708341E+03  0.68175961059E+03  0.80787036229E+02 0.  0.
        -13    1    3    3    0    0  0.20833652601E+02 -0.43204907004E-01 -0.49125842563E+02  0.53360953467E+02  0.00000000000E+00 0.  1.
         14    1    3    3    0    0 -0.26467651588E+02  0.23760610296E+02 -0.62739124084E+03  0.62839865712E+03  0.00000000000E+00 0. -1.
          1    1    1    2  501    0  0.56339989873E+01 -0.23717405389E+02 -0.10988889832E+03  0.11256032710E+03  0.00000000000E+00 0. -1.
<mgrwt>
<rscale>  1 0.84384847E+02</rscale>
<asrwt>0</asrwt>
<pdfrwt beam="1">  1       21 0.60876556E-03 0.84384847E+02</pdfrwt>
<pdfrwt beam="2">  1        2 0.12159436E+00 0.84384847E+02</pdfrwt>
<totfact> 0.34454827E+06</totfact>
</mgrwt>
</event>
<event>
 6    2  0.7993170E+000  0.8958698E+02  0.7546771E-02  0.1303855E+00
         21   -1    0    0  501  502  0.00000000000E+00  0.00000000000E+00  0.87938949251E+01  0.87938949251E+01  0.00000000000E+00 0. -1.
          2   -1    0    0  502    0 -0.00000000000E+00 -0.00000000000E+00 -0.85972488924E+03  0.85972488924E+03  0.00000000000E+00 0. -1.
         24    2    1    2    0    0 -0.28028340277E+02  0.21661022532E+02 -0.80758872678E+03  0.81254254000E+03  0.82286328939E+02 0.  0.
        -13    1    3    3    0    0 -0.10257225454E+02  0.22934460049E+02 -0.64207391579E+02  0.68947728499E+02  0.00000000000E+00 0.  1.
         14    1    3    3    0    0 -0.17771114822E+02 -0.12734375173E+01 -0.74338133520E+03  0.74359481150E+03  0.00000000000E+00 0. -1.
          1    1    1    2  501    0  0.28028340277E+02 -0.21661022532E+02 -0.43342267530E+02  0.55976244162E+02  0.00000000000E+00 0. -1.
<mgrwt>
<rscale>  1 0.89586984E+02</rscale>
<asrwt>0</asrwt>
<pdfrwt beam="1">  1       21 0.13529067E-02 0.89586984E+02</pdfrwt>
<pdfrwt beam="2">  1        2 0.13226539E+00 0.89586984E+02</pdfrwt>
<totfact> 0.90103235E+05</totfact>
</mgrwt>
</event>
<event>
 6    2  0.7993170E+000  0.8531865E+02  0.7546771E-02  0.1314601E+00
          4   -1    0    0  502    0 -0.00000000000E+00  0.00000000000E+00  0.21975869070E+02  0.21975869070E+02  0.00000000000E+00 0. -1.
         21   -1    0    0  501  502  0.00000000000E+00 -0.00000000000E+00 -0.20931081257E+03  0.20931081257E+03  0.00000000000E+00 0. -1.
         24    2    1    2    0    0  0.72652663478E+01 -0.27298347334E+02 -0.69295778005E+02  0.10991440947E+03  0.80506451272E+02 0.  0.
        -11    1    3    3    0    0  0.60989729375E+01 -0.33813712453E+02 -0.85642844320E+02  0.92278174039E+02  0.00000000000E+00 0.  1.
         12    1    3    3    0    0  0.11662934103E+01  0.65153651186E+01  0.16347066314E+02  0.17636235427E+02  0.00000000000E+00 0. -1.
          3    1    1    2  501    0 -0.72652663478E+01  0.27298347334E+02 -0.11803916549E+03  0.12137227217E+03  0.00000000000E+00 0. -1.
<mgrwt>
<rscale>  1 0.85318653E+02</rscale>
<asrwt>0</asrwt>
<pdfrwt beam="1">  1       21 0.32201664E-01 0.85318653E+02</pdfrwt>
<pdfrwt beam="2">  1        4 0.33809028E-02 0.85318653E+02</pdfrwt>
<totfact> 0.15583040E+05</totfact>
</mgrwt>
</event>
<event>
 6    2  0.7993170E+000  0.9601309E+02  0.7546771E-02  0.1288911E+00
         21   -1    0    0  501  502  0.00000000000E+00  0.00000000000E+00  0.23426973406E+02  0.23426973406E+02  0.00000000000E+00 0. -1.
          2   -1    0    0  502    0 -0.00000000000E+00 -0.00000000000E+00 -0.39604276204E+03  0.39604276204E+03  0.00000000000E+00 0. -1.
         24    2    1    2    0    0  0.48790680002E+02 -0.22299625561E+02 -0.34697052656E+03  0.36000980589E+03  0.79628577050E+02 0.  0.
        -13    1    3    3    0    0 -0.12365340867E+02 -0.27855163569E+02 -0.70564003694E+02  0.76864103517E+02  0.00000000000E+00 0.  1.
         14    1    3    3    0    0  0.61156020869E+02  0.55555380084E+01 -0.27640652287E+03  0.28314570238E+03  0.00000000000E+00 0. -1.
          1    1    1    2  501    0 -0.48790680002E+02  0.22299625561E+02 -0.25645262067E+02  0.59459929547E+02  0.00000000000E+00 0. -1.
<mgrwt>
<rscale>  1 0.96013093E+02</rscale>
<asrwt>0</asrwt>
<pdfrwt beam="1">  1       21 0.36041501E-02 0.96013093E+02</pdfrwt>
<pdfrwt beam="2">  1        2 0.60929651E-01 0.96013093E+02</pdfrwt>
<totfact> 0.44913248E+05</totfact>
</mgrwt>
</event>
<event>
 6    2  0.7993170E+000  0.8097121E+02  0.7546771E-02  0.1326318E+00
         21   -1    0    0  501  502  0.00000000000E+00  0.00000000000E+00  0.48478320242E+01  0.48478320242E+01  0.00000000000E+00 0. -1.
         -3   -1    0    0    0  501 -0.00000000000E+00 -0.00000000000E+00 -0.64146852346E+03  0.64146852346E+03  0.00000000000E+00 0.  1.
         24    2    1    2    0    0 -0.28584477716E+02  0.10533184517E+02 -0.47424628189E+03  0.48110900329E+03  0.75022108885E+02 0.  0.
        -11    1    3    3    0    0  0.67854873387E+01  0.98709092246E+01 -0.38385321537E+03  0.38404006124E+03  0.00000000000E+00 0.  1.
         12    1    3    3    0    0 -0.35369965055E+02  0.66227529208E+00 -0.90393066518E+02  0.97068942052E+02  0.00000000000E+00 0. -1.
         -4    1    1    2    0  502  0.28584477716E+02 -0.10533184517E+02 -0.16237440955E+03  0.16520735219E+03  0.00000000000E+00 0.  1.
<mgrwt>
<rscale>  1 0.80971212E+02</rscale>
<asrwt>0</asrwt>
<pdfrwt beam="1">  1       21 0.74581985E-03 0.80971212E+02</pdfrwt>
<pdfrwt beam="2">  1       -3 0.98687526E-01 0.80971212E+02</pdfrwt>
<totfact> 0.24310297E+05</totfact>
</mgrwt>
</event>
<event>
 6    2  0.7993170E+000  0.1151052E+03  0.7546771E-02  0.1251398E+00
         21   -1    0    0  501  502  0.00000000000E+00  0.00000000000E+00  0.28769171392E+03  0.28769171392E+03  0.00000000000E+00 0.  1.
         -3   -1    0    0    0  501 -0.00000000000E+00 -0.00000000000E+00 -0.36426826368E+02  0.36426826368E+02  0.00000000000E+00 0.  1.
         24    2    1    2    0    0  0.76635176905E+02  0.31145318729E+02  0.10360061440E+03  0.15486217030E+03  0.80038885965E+02 0.  0.
        -11    1    3    3    0    0  0.72287587159E+02  0.53141720979E+02  0.67142110694E+02  0.11206070138E+03  0.00000000000E+00 0.  1.
         12    1    3    3    0    0  0.43475897460E+01 -0.21996402251E+02  0.36458503709E+02  0.42801468915E+02  0.00000000000E+00 0. -1.
         -4    1    1    2    0  502 -0.76635176905E+02 -0.31145318729E+02  0.14766427315E+03  0.16925636999E+03  0.00000000000E+00 0.  1.
<mgrwt>
<rscale>  1 0.11510519E+03</rscale>
<asrwt>0</asrwt>
<pdfrwt beam="1">  1       21 0.44260262E-01 0.11510519E+03</pdfrwt>
<pdfrwt beam="2">  1       -3 0.56041273E-02 0.11510519E+03</pdfrwt>
<totfact> 0.44056583E+04</totfact>
</mgrwt>
</event>
<event>
 6    2  0.7993170E+000  0.8197261E+02  0.7546771E-02  0.1323545E+00
         21   -1    0    0  501  502  0.00000000000E+00  0.00000000000E+00  0.90560331132E+01  0.90560331132E+01  0.00000000000E+00 0. -1.
          2   -1    0    0  502    0 -0.00000000000E+00 -0.00000000000E+00 -0.98812460918E+03  0.98812460918E+03  0.00000000000E+00 0. -1.
         24    2    1    2    0    0  0.18579840062E+01 -0.25531588387E+02 -0.96399362324E+03  0.96747259098E+03  0.77872938409E+02 0.  0.
        -11    1    3    3    0    0 -0.33237189815E+02 -0.28857108413E+02 -0.40931931035E+03  0.41167917280E+03  0.00000000000E+00 0.  1.
         12    1    3    3    0    0  0.35095173821E+02  0.33255200267E+01 -0.55467431290E+03  0.55579341818E+03  0.00000000000E+00 0. -1.
          1    1    1    2  501    0 -0.18579840062E+01  0.25531588387E+02 -0.15074952823E+02  0.29708051312E+02  0.00000000000E+00 0. -1.
<mgrwt>
<rscale>  1 0.81972609E+02</rscale>
<asrwt>0</asrwt>
<pdfrwt beam="1">  1       21 0.13932363E-02 0.81972609E+02</pdfrwt>
<pdfrwt beam="2">  1        2 0.15201912E+00 0.81972609E+02</pdfrwt>
<totfact> 0.71347236E+05</totfact>
</mgrwt>
</event>
<event>
 6    2  0.7993170E+000  0.1436787E+03  0.7546771E-02  0.1208463E+00
          2   -1    0    0  502    0 -0.00000000000E+00  0.00000000000E+00  0.29846284519E+04  0.29846284519E+04  0.00000000000E+00 0. -1.
         21   -1    0    0  501  502  0.00000000000E+00 -0.00000000000E+00 -0.64281498369E+01  0.64281498369E+01  0.00000000000E+00 0. -1.
         24    2    1    2    0    0 -0.87123648407E+02 -0.76842775437E+02  0.21436549029E+04  0.21484645501E+04  0.84547252949E+02 0.  0.
        -13    1    3    3    0    0 -0.40500785638E+01 -0.11097231749E+02  0.31306844242E+02  0.33461473148E+02  0.00000000000E+00 0.  1.
         14    1    3    3    0    0 -0.83073569844E+02 -0.65745543689E+02  0.21123480586E+04  0.21150030769E+04  0.00000000000E+00 0. -1.
          1    1    1    2  501    0  0.87123648407E+02  0.76842775437E+02  0.83454539919E+03  0.84259205168E+03  0.00000000000E+00 0. -1.
<mgrwt>
<rscale>  1 0.14367874E+03</rscale>
<asrwt>0</asrwt>
<pdfrwt beam="1">  1       21 0.98894851E-03 0.14367874E+03</pdfrwt>
<pdfrwt beam="2">  1        2 0.45917250E+00 0.14367874E+03</pdfrwt>
<totfact> 0.10848783E+05</totfact>
</mgrwt>
</event>
<event>
 6    2  0.7993170E+000  0.9470068E+02  0.7546771E-02  0.1291852E+00
          2   -1    0    0  502    0 -0.00000000000E+00  0.00000000000E+00  0.73507957502E+03  0.73507957502E+03  0.00000000000E+00 0. -1.
         21   -1    0    0  501  502  0.00000000000E+00 -0.00000000000E+00 -0.97690908032E+01  0.97690908032E+01  0.00000000000E+00 0.  1.
         24    2    1    2    0    0  0.42718829041E+01 -0.20571521172E+02  0.71536002697E+03  0.72160112689E+03  0.92340574400E+02 0.  0.
        -11    1    3    3    0    0  0.46671455129E+02 -0.21474118551E+02  0.44107183112E+03  0.44405373853E+03  0.00000000000E+00 0.  1.
         12    1    3    3    0    0 -0.42399572225E+02  0.90259737961E+00  0.27428819585E+03  0.27754738836E+03  0.00000000000E+00 0. -1.
          1    1    1    2  501    0 -0.42718829041E+01  0.20571521172E+02  0.99504572463E+01  0.23247538929E+02  0.00000000000E+00 0. -1.
<mgrwt>
<rscale>  1 0.94700677E+02</rscale>
<asrwt>0</asrwt>
<pdfrwt beam="1">  1       21 0.15029376E-02 0.94700677E+02</pdfrwt>
<pdfrwt beam="2">  1        2 0.11308912E+00 0.94700677E+02</pdfrwt>
<totfact> 0.92783739E+05</totfact>
</mgrwt>
</event>
<event>
 6    2  0.7993170E+000  0.9584662E+02  0.7546771E-02  0.1289281E+00
         21   -1    0    0  501  502  0.00000000000E+00  0.00000000000E+00  0.56512197202E+01  0.56512197202E+01  0.00000000000E+00 0.  1.
          2   -1    0    0  502    0 -0.00000000000E+00 -0.00000000000E+00 -0.11703241928E+04  0.11703241928E+04  0.00000000000E+00 0. -1.
         24    2    1    2    0    0 -0.69263068291E+01  0.50405273218E+02 -0.97142219528E+03  0.97613915852E+03  0.81227520026E+02 0.  0.
        -13    1    3    3    0    0  0.19646764699E+02  0.40197480535E+02 -0.23825995157E+03  0.24242449820E+03  0.00000000000E+00 0.  1.
         14    1    3    3    0    0 -0.26573071529E+02  0.10207792683E+02 -0.73316224371E+03  0.73371466032E+03  0.00000000000E+00 0. -1.
          1    1    1    2  501    0  0.69263068291E+01 -0.50405273218E+02 -0.19325077780E+03  0.19983625400E+03  0.00000000000E+00 0. -1.
<mgrwt>
<rscale>  1 0.95846624E+02</rscale>
<asrwt>0</asrwt>
<pdfrwt beam="1">  1       21 0.86941745E-03 0.95846624E+02</pdfrwt>
<pdfrwt beam="2">  1        2 0.18005008E+00 0.95846624E+02</pdfrwt>
<totfact> 0.11916334E+06</totfact>
</mgrwt>
</event>
<event>
 6    2  0.7993170E+000  0.8745188E+02  0.7546771E-02  0.1309142E+00
          2   -1    0    0  502    0 -0.00000000000E+00  0.00000000000E+00  0.12783456110E+03  0.12783456110E+03  0.00000000000E+00 0. -1.
         21   -1    0    0  501  502  0.00000000000E+00 -0.00000000000E+00 -0.29817663840E+02  0.29817663840E+02  0.00000000000E+00 0.  1.
         24    2    1    2    0    0  0.17792010220E+02  0.18387630534E+02  0.44033240032E+02  0.97911988649E+02  0.83625179875E+02 0.  0.
        -13    1    3    3    0    0  0.29932264672E+02  0.40354863429E+02  0.36651050173E+01  0.50377459896E+02  0.00000000000E+00 0.  1.
         14    1    3    3    0    0 -0.12140254451E+02 -0.21967232895E+02  0.40368135015E+02  0.47534528753E+02  0.00000000000E+00 0. -1.
          1    1    1    2  501    0 -0.17792010220E+02 -0.18387630534E+02  0.53983657229E+02  0.59740236291E+02  0.00000000000E+00 0. -1.
<mgrwt>
<rscale>  1 0.87451880E+02</rscale>
<asrwt>0</asrwt>
<pdfrwt beam="1">  1       21 0.45873330E-02 0.87451880E+02</pdfrwt>
<pdfrwt beam="2">  1        2 0.19666855E-01 0.87451880E+02</pdfrwt>
<totfact> 0.10000584E+06</totfact>
</mgrwt>
</event>
<event>
 6    2  0.7993170E+000  0.8658945E+02  0.7546771E-02  0.1311328E+00
          2   -1    0    0  502    0 -0.00000000000E+00  0.00000000000E+00  0.90185828544E+03  0.90185828544E+03  0.00000000000E+00 0. -1.
         21   -1    0    0  501  502  0.00000000000E+00 -0.00000000000E+00 -0.15518966932E+02  0.15518966932E+02  0.00000000000E+00 0. -1.
         24    2    1    2    0    0 -0.26538196956E+02  0.19994036230E+02  0.87912116496E+03  0.88337520651E+03  0.79960586578E+02 0.  0.
        -13    1    3    3    0    0 -0.13090252255E+02  0.37957597124E+02  0.20579695388E+03  0.20967718071E+03  0.00000000000E+00 0.  1.
         14    1    3    3    0    0 -0.13447944701E+02 -0.17963560894E+02  0.67332421108E+03  0.67369802580E+03  0.00000000000E+00 0. -1.
          1    1    1    2  501    0  0.26538196956E+02 -0.19994036230E+02  0.72181535471E+01  0.34002045866E+02  0.00000000000E+00 0. -1.
<mgrwt>
<rscale>  1 0.86589450E+02</rscale>
<asrwt>0</asrwt>
<pdfrwt beam="1">  1       21 0.23875341E-02 0.86589450E+02</pdfrwt>
<pdfrwt beam="2">  1        2 0.13874739E+00 0.86589450E+02</pdfrwt>
<totfact> 0.34231938E+05</totfact>
</mgrwt>
</event>
<event>
 6    2  0.7993170E+000  0.9313392E+02  0.7546771E-02  0.1295435E+00
         21   -1    0    0  501  502  0.00000000000E+00  0.00000000000E+00  0.13948816575E+02  0.13948816575E+02  0.00000000000E+00 0. -1.
         -1   -1    0    0    0  501 -0.00000000000E+00 -0.00000000000E+00 -0.37060849108E+03  0.37060849108E+03  0.00000000000E+00 0.  1.
         24    2    1    2    0    0 -0.32215400236E+02 -0.35300263000E+02 -0.19713480291E+03  0.21802765492E+03  0.79937395593E+02 0.  0.
        -11    1    3    3    0    0 -0.42006991031E+02  0.77976585072E+01 -0.13625881224E+03  0.14280005143E+03  0.00000000000E+00 0.  1.
         12    1    3    3    0    0  0.97915907944E+01 -0.43097921508E+02 -0.60875990663E+02  0.75227603496E+02  0.00000000000E+00 0. -1.
         -2    1    1    2    0  502  0.32215400236E+02  0.35300263000E+02 -0.15952487160E+03  0.16652965273E+03  0.00000000000E+00 0.  1.
<mgrwt>
<rscale>  1 0.93133924E+02</rscale>
<asrwt>0</asrwt>
<pdfrwt beam="1">  1       21 0.21459719E-02 0.93133924E+02</pdfrwt>
<pdfrwt beam="2">  1       -1 0.57016687E-01 0.93133924E+02</pdfrwt>
<totfact> 0.30893814E+05</totfact>
</mgrwt>
</event>
<event>
 6    2  0.7993170E+000  0.8664654E+02  0.7546771E-02  0.1311182E+00
         21   -1    0    0  501  502  0.00000000000E+00  0.00000000000E+00  0.13088544873E+03  0.13088544873E+03  0.00000000000E+00 0. -1.
          2   -1    0    0  502    0 -0.00000000000E+00 -0.00000000000E+00 -0.46537534982E+02  0.46537534982E+02  0.00000000000E+00 0. -1.
         24    2    1    2    0    0 -0.22445428732E+02 -0.25640209784E+02  0.21053699466E+00  0.86646798532E+02  0.79664331676E+02 0.  0.
        -13    1    3    3    0    0 -0.35737669363E+02  0.58451334584E+01  0.25364261608E+02  0.44211902963E+02  0.00000000000E+00 0.  1.
         14    1    3    3    0    0  0.13292240630E+02 -0.31485343242E+02 -0.25153724614E+02  0.42434895570E+02  0.00000000000E+00 0. -1.
          1    1    1    2  501    0  0.22445428732E+02  0.25640209784E+02  0.84137376758E+02  0.90776185183E+02  0.00000000000E+00 0. -1.
<mgrwt>
<rscale>  1 0.86646543E+02</rscale>
<asrwt>0</asrwt>
<pdfrwt beam="1">  1       21 0.20136223E-01 0.86646543E+02</pdfrwt>
<pdfrwt beam="2">  1        2 0.71596208E-02 0.86646543E+02</pdfrwt>
<totfact> 0.25572356E+05</totfact>
</mgrwt>
</event>
<event>
 6    2  0.7993170E+000  0.8229029E+02  0.7546771E-02  0.1322675E+00
          2   -1    0    0  502    0 -0.00000000000E+00  0.00000000000E+00  0.76364497022E+02  0.76364497022E+02  0.00000000000E+00 0. -1.
         21   -1    0    0  501  502  0.00000000000E+00 -0.00000000000E+00 -0.42445691590E+02  0.42445691590E+02  0.00000000000E+00 0. -1.
         24    2    1    2    0    0 -0.24476481106E+02 -0.11176790278E+02  0.39579028081E+02  0.91313699951E+02  0.77766789612E+02 0.  0.
        -11    1    3    3    0    0  0.74413430049E+01  0.51201047782E+01 -0.19910402002E+02  0.21863512218E+02  0.00000000000E+00 0.  1.
         12    1    3    3    0    0 -0.31917824111E+02 -0.16296895057E+02  0.59489430083E+02  0.69450187732E+02  0.00000000000E+00 0. -1.
          1    1    1    2  501    0  0.24476481106E+02  0.11176790278E+02 -0.56602226501E+01  0.27496488662E+02  0.00000000000E+00 0. -1.
<mgrwt>
<rscale>  1 0.82290293E+02</rscale>
<asrwt>0</asrwt>
<pdfrwt beam="1">  1       21 0.65301064E-02 0.82290293E+02</pdfrwt>
<pdfrwt beam="2">  1        2 0.11748384E-01 0.82290293E+02</pdfrwt>
<totfact> 0.99713999E+05</totfact>
</mgrwt>
</event>
<event>
 6    2  0.7993170E+000  0.8593306E+02  0.7546771E-02  0.1313010E+00
          2   -1    0    0  502    0 -0.00000000000E+00  0.00000000000E+00  0.37530434214E+03  0.37530434214E+03  0.00000000000E+00 0. -1.
         21   -1    0    0  501  502  0.00000000000E+00 -0.00000000000E+00 -0.20666949487E+02  0.20666949487E+02  0.00000000000E+00 0. -1.
         24    2    1    2    0    0 -0.78556349975E+00 -0.21546108686E+02  0.36285964801E+03  0.37289625332E+03  0.83184371579E+02 0.  0.
        -13    1    3    3    0    0  0.30200881426E+02  0.17865019767E+02  0.17347846573E+03  0.17699161066E+03  0.00000000000E+00 0.  1.
         14    1    3    3    0    0 -0.30986444926E+02 -0.39411128453E+02  0.18938118228E+03  0.19590464266E+03  0.00000000000E+00 0. -1.
          1    1    1    2  501    0  0.78556349975E+00  0.21546108686E+02 -0.82222553620E+01  0.23075038305E+02  0.00000000000E+00 0. -1.
<mgrwt>
<rscale>  1 0.85933065E+02</rscale>
<asrwt>0</asrwt>
<pdfrwt beam="1">  1       21 0.31795310E-02 0.85933065E+02</pdfrwt>
<pdfrwt beam="2">  1        2 0.57739124E-01 0.85933065E+02</pdfrwt>
<totfact> 0.57800070E+05</totfact>
</mgrwt>
</event>
<event>
 6    2  0.7993170E+000  0.8455430E+02  0.7546771E-02  0.1316602E+00
         21   -1    0    0  501  502  0.00000000000E+00  0.00000000000E+00  0.27831266788E+03  0.27831266788E+03  0.00000000000E+00 0. -1.
          2   -1    0    0  502    0 -0.00000000000E+00 -0.00000000000E+00 -0.11543408889E+02  0.11543408889E+02  0.00000000000E+00 0. -1.
         24    2    1    2    0    0 -0.28009461338E+02  0.67300833236E+01  0.19895973411E+03  0.21618141620E+03  0.79495943073E+02 0.  0.
        -13    1    3    3    0    0 -0.19329096927E+02 -0.20394763196E+02  0.17950495835E+03  0.18169092004E+03  0.00000000000E+00 0.  1.
         14    1    3    3    0    0 -0.86803644110E+01  0.27124846520E+02  0.19454775763E+02  0.34490496155E+02  0.00000000000E+00 0. -1.
          1    1    1    2  501    0  0.28009461338E+02 -0.67300833236E+01  0.67809524879E+02  0.73674660571E+02  0.00000000000E+00 0. -1.
<mgrwt>
<rscale>  1 0.84554296E+02</rscale>
<asrwt>0</asrwt>
<pdfrwt beam="1">  1       21 0.42817328E-01 0.84554296E+02</pdfrwt>
<pdfrwt beam="2">  1        2 0.17759093E-02 0.84554296E+02</pdfrwt>
<totfact> 0.37635813E+05</totfact>
</mgrwt>
</event>
<event>
 6    2  0.7993170E+000  0.8767193E+02  0.7546771E-02  0.1308589E+00
         21   -1    0    0  501  502  0.00000000000E+00  0.00000000000E+00  0.46712437076E+02  0.46712437076E+02  0.00000000000E+00 0. -1.
          2   -1    0    0  502    0 -0.00000000000E+00 -0.00000000000E+00 -0.88545135740E+02  0.88545135740E+02  0.00000000000E+00 0. -1.
         24    2    1    2    0    0 -0.30682413680E+02 -0.23984380545E+02 -0.39736911095E+02  0.96256888913E+02  0.78547473164E+02 0.  0.
        -13    1    3    3    0    0  0.86641910472E-01  0.14172700493E+02  0.16436916879E+02  0.21703575341E+02  0.00000000000E+00 0.  1.
         14    1    3    3    0    0 -0.30769055591E+02 -0.38157081038E+02 -0.56173827974E+02  0.74553313572E+02  0.00000000000E+00 0. -1.
          1    1    1    2  501    0  0.30682413680E+02  0.23984380545E+02 -0.20957875680E+01  0.39000683903E+02  0.00000000000E+00 0. -1.
<mgrwt>
<rscale>  1 0.87671926E+02</rscale>
<asrwt>0</asrwt>
<pdfrwt beam="1">  1       21 0.71865288E-02 0.87671926E+02</pdfrwt>
<pdfrwt beam="2">  1        2 0.13622329E-01 0.87671926E+02</pdfrwt>
<totfact> 0.71752787E+05</totfact>
</mgrwt>
</event>
<event>
 6    2  0.7993170E+000  0.8442793E+02  0.7546771E-02  0.1316935E+00
          2   -1    0    0  502    0 -0.00000000000E+00  0.00000000000E+00  0.34525188076E+03  0.34525188076E+03  0.00000000000E+00 0. -1.
         21   -1    0    0  501  502  0.00000000000E+00 -0.00000000000E+00 -0.10241766625E+02  0.10241766625E+02  0.00000000000E+00 0. -1.
         24    2    1    2    0    0  0.14384822420E+02 -0.21404423555E+02  0.18595129962E+03  0.20422037595E+03  0.80392808521E+02 0.  0.
        -13    1    3    3    0    0  0.22939151177E+02 -0.49050329204E+01  0.72461181898E+01  0.24551379462E+02  0.00000000000E+00 0.  1.
         14    1    3    3    0    0 -0.85543287562E+01 -0.16499390635E+02  0.17870518143E+03  0.17966899649E+03  0.00000000000E+00 0. -1.
          1    1    1    2  501    0 -0.14384822420E+02  0.21404423555E+02  0.14905881452E+03  0.15127327143E+03  0.00000000000E+00 0. -1.
<mgrwt>
<rscale>  1 0.84427935E+02</rscale>
<asrwt>0</asrwt>
<pdfrwt beam="1">  1       21 0.15756567E-02 0.84427935E+02</pdfrwt>
<pdfrwt beam="2">  1        2 0.53115665E-01 0.84427935E+02</pdfrwt>
<totfact> 0.19420563E+06</totfact>
</mgrwt>
</event>
<event>
 6    2  0.7993170E+000  0.9071913E+02  0.7546771E-02  0.1301120E+00
         21   -1    0    0  501  502  0.00000000000E+00  0.00000000000E+00  0.19550243733E+02  0.19550243733E+02  0.00000000000E+00 0. -1.
          2   -1    0    0  502    0 -0.00000000000E+00 -0.00000000000E+00 -0.22745242781E+03  0.22745242781E+03  0.00000000000E+00 0. -1.
         24    2    1    2    0    0  0.37103970726E+01 -0.27617878451E+02 -0.19735543432E+03  0.21720756813E+03  0.86333342003E+02 0.  0.
        -11    1    3    3    0    0 -0.22154171021E+02 -0.44905844008E+01 -0.17381581269E+03  0.17527951786E+03  0.00000000000E+00 0.  1.
         12    1    3    3    0    0  0.25864568094E+02 -0.23127294050E+02 -0.23539621633E+02  0.41928050270E+02  0.00000000000E+00 0. -1.
          1    1    1    2  501    0 -0.37103970726E+01  0.27617878451E+02 -0.10546749751E+02  0.29795103404E+02  0.00000000000E+00 0. -1.
<mgrwt>
<rscale>  1 0.90719128E+02</rscale>
<asrwt>0</asrwt>
<pdfrwt beam="1">  1       21 0.30077297E-02 0.90719128E+02</pdfrwt>
<pdfrwt beam="2">  1        2 0.34992683E-01 0.90719128E+02</pdfrwt>
<totfact> 0.10745242E+06</totfact>
</mgrwt>
</event>
<event>
 6    2  0.7993170E+000  0.8415179E+02  0.7546771E-02  0.1317666E+00
         21   -1    0    0  501  502  0.00000000000E+00  0.00000000000E+00  0.60915694609E+01  0.60915694609E+01  0.00000000000E+00 0. -1.
          2   -1    0    0  502    0 -0.00000000000E+00 -0.00000000000E+00 -0.11022089282E+04  0.11022089282E+04  0.00000000000E+00 0. -1.
         24    2    1    2    0    0  0.14613570045E+01  0.23874352824E+02 -0.10683183156E+04  0.10716275228E+04  0.80680876544E+02 0.  0.
        -11    1    3    3    0    0 -0.37496972065E+02  0.60321563123E+01 -0.35562820309E+03  0.35765042801E+03  0.00000000000E+00 0.  1.
         12    1    3    3    0    0  0.38958329070E+02  0.17842196511E+02 -0.71269011252E+03  0.71397709478E+03  0.00000000000E+00 0. -1.
          1    1    1    2  501    0 -0.14613570045E+01 -0.23874352824E+02 -0.27799043120E+02  0.36672974864E+02  0.00000000000E+00 0. -1.
<mgrwt>
<rscale>  1 0.84151792E+02</rscale>
<asrwt>0</asrwt>
<pdfrwt beam="1">  1       21 0.93716365E-03 0.84151792E+02</pdfrwt>
<pdfrwt beam="2">  1        2 0.16957076E+00 0.84151792E+02</pdfrwt>
<totfact> 0.11447687E+06</totfact>
</mgrwt>
</event>
<event>
 6    2  0.7993170E+000  0.8890781E+02  0.7546771E-02  0.1305518E+00
          4   -1    0    0  502    0 -0.00000000000E+00  0.00000000000E+00  0.12627865606E+02  0.12627865606E+02  0.00000000000E+00 0. -1.
         21   -1    0    0  501  502  0.00000000000E+00 -0.00000000000E+00 -0.33199292012E+03  0.33199292012E+03  0.00000000000E+00 0. -1.
         24    2    1    2    0    0 -0.24124653059E+02  0.28644394709E+02 -0.25620165845E+03  0.27118976479E+03  0.80635590783E+02 0.  0.
        -13    1    3    3    0    0  0.74798657096E+01 -0.89054203606E+01 -0.18109989822E+03  0.18147294023E+03  0.00000000000E+00 0.  1.
         14    1    3    3    0    0 -0.31604518768E+02  0.37549815070E+02 -0.75101760232E+02  0.89716824556E+02  0.00000000000E+00 0. -1.
          3    1    1    2  501    0  0.24124653059E+02 -0.28644394709E+02 -0.63163396064E+02  0.73431020936E+02  0.00000000000E+00 0. -1.
<mgrwt>
<rscale>  1 0.88907810E+02</rscale>
<asrwt>0</asrwt>
<pdfrwt beam="1">  1       21 0.51075832E-01 0.88907810E+02</pdfrwt>
<pdfrwt beam="2">  1        4 0.19427486E-02 0.88907810E+02</pdfrwt>
<totfact> 0.14770945E+05</totfact>
</mgrwt>
</event>
<event>
 6    2  0.7993170E+000  0.1101063E+03  0.7546771E-02  0.1260373E+00
          2   -1    0    0  502    0 -0.00000000000E+00  0.00000000000E+00  0.31082757526E+03  0.31082757526E+03  0.00000000000E+00 0. -1.
         21   -1    0    0  501  502  0.00000000000E+00 -0.00000000000E+00 -0.27148162061E+02  0.27148162061E+02  0.00000000000E+00 0.  1.
         24    2    1    2    0    0  0.49568855320E+02  0.54313623454E+02  0.17503011235E+03  0.20678232405E+03  0.81953329400E+02 0.  0.
        -11    1    3    3    0    0  0.44611541487E+02  0.75816394798E+02  0.13687065951E+03  0.16270185244E+03  0.00000000000E+00 0.  1.
         12    1    3    3    0    0  0.49573138338E+01 -0.21502771344E+02  0.38159452841E+02  0.44080471607E+02  0.00000000000E+00 0. -1.
          1    1    1    2  501    0 -0.49568855320E+02 -0.54313623454E+02  0.10864930085E+03  0.13119341327E+03  0.00000000000E+00 0. -1.
<mgrwt>
<rscale>  1 0.11010626E+03</rscale>
<asrwt>0</asrwt>
<pdfrwt beam="1">  1       21 0.41766405E-02 0.11010626E+03</pdfrwt>
<pdfrwt beam="2">  1        2 0.47819624E-01 0.11010626E+03</pdfrwt>
<totfact> 0.45920869E+05</totfact>
</mgrwt>
</event>
<event>
 6    2  0.7993170E+000  0.9137486E+02  0.7546771E-02  0.1299556E+00
          2   -1    0    0  502    0 -0.00000000000E+00  0.00000000000E+00  0.10528048958E+02  0.10528048958E+02  0.00000000000E+00 0. -1.
         21   -1    0    0  501  502  0.00000000000E+00 -0.00000000000E+00 -0.51263697699E+03  0.51263697699E+03  0.00000000000E+00 0. -1.
         24    2    1    2    0    0  0.26248037089E+02  0.37607849645E+02 -0.23485176183E+03  0.25200141723E+03  0.79031983692E+02 0.  0.
        -13    1    3    3    0    0 -0.17351849172E+02  0.25318258337E+02 -0.17088386657E+03  0.17361853798E+03  0.00000000000E+00 0.  1.
         14    1    3    3    0    0  0.43599886260E+02  0.12289591308E+02 -0.63967895259E+02  0.78382879255E+02  0.00000000000E+00 0. -1.
          1    1    1    2  501    0 -0.26248037089E+02 -0.37607849645E+02 -0.26725716620E+03  0.27116360871E+03  0.00000000000E+00 0. -1.
<mgrwt>
<rscale>  1 0.91374856E+02</rscale>
<asrwt>0</asrwt>
<pdfrwt beam="1">  1       21 0.78867226E-01 0.91374856E+02</pdfrwt>
<pdfrwt beam="2">  1        2 0.16196999E-02 0.91374856E+02</pdfrwt>
<totfact> 0.11949427E+05</totfact>
</mgrwt>
</event>
<event>
 6    2  0.7993170E+000  0.9085594E+02  0.7546771E-02  0.1300792E+00
          2   -1    0    0  502    0 -0.00000000000E+00  0.00000000000E+00  0.17151615480E+04  0.17151615480E+04  0.00000000000E+00 0. -1.
         21   -1    0    0  501  502  0.00000000000E+00 -0.00000000000E+00 -0.27070974991E+01  0.27070974991E+01  0.00000000000E+00 0.  1.
         24    2    1    2    0    0 -0.36535101846E+02 -0.15541919897E+02  0.13923743679E+04  0.13953355089E+04  0.81721704637E+02 0.  0.
        -11    1    3    3    0    0 -0.35016490163E+01 -0.40456522011E+02  0.39018437365E+03  0.39229177555E+03  0.00000000000E+00 0.  1.
         12    1    3    3    0    0 -0.33033452830E+02  0.24914602114E+02  0.10021899943E+04  0.10030437334E+04  0.00000000000E+00 0. -1.
          1    1    1    2  501    0  0.36535101846E+02  0.15541919897E+02  0.32008008257E+03  0.32253313659E+03  0.00000000000E+00 0. -1.
<mgrwt>
<rscale>  1 0.90855941E+02</rscale>
<asrwt>0</asrwt>
<pdfrwt beam="1">  1       21 0.41647791E-03 0.90855941E+02</pdfrwt>
<pdfrwt beam="2">  1        2 0.26387014E+00 0.90855941E+02</pdfrwt>
<totfact> 0.19248101E+06</totfact>
</mgrwt>
</event>
<event>
 6    2  0.7993170E+000  0.8172225E+02  0.7546771E-02  0.1324234E+00
         21   -1    0    0  501  502  0.00000000000E+00  0.00000000000E+00  0.86523246769E+03  0.86523246769E+03  0.00000000000E+00 0.  1.
          2   -1    0    0  502    0 -0.00000000000E+00 -0.00000000000E+00 -0.38959903078E+01  0.38959903078E+01  0.00000000000E+00 0. -1.
         24    2    1    2    0    0  0.22546665498E+02 -0.17438567914E+02  0.49654272163E+03  0.50322281441E+03  0.76590278494E+02 0.  0.
        -13    1    3    3    0    0  0.26530105337E+01 -0.43876888002E+02  0.19623960241E+03  0.20110246473E+03  0.00000000000E+00 0.  1.
         14    1    3    3    0    0  0.19893654964E+02  0.26438320088E+02  0.30030311922E+03  0.30212034968E+03  0.00000000000E+00 0. -1.
          1    1    1    2  501    0 -0.22546665498E+02  0.17438567914E+02  0.36479375576E+03  0.36590564360E+03  0.00000000000E+00 0. -1.
<mgrwt>
<rscale>  1 0.81722252E+02</rscale>
<asrwt>0</asrwt>
<pdfrwt beam="1">  1       21 0.13311253E+00 0.81722252E+02</pdfrwt>
<pdfrwt beam="2">  1        2 0.59938381E-03 0.81722252E+02</pdfrwt>
<totfact> 0.13681751E+05</totfact>
</mgrwt>
</event>
<event>
 6    2  0.7993170E+000  0.8800027E+02  0.7546771E-02  0.1307768E+00
         21   -1    0    0  501  502  0.00000000000E+00  0.00000000000E+00  0.49778343813E+01  0.49778343813E+01  0.00000000000E+00 0.  1.
          4   -1    0    0  502    0 -0.00000000000E+00 -0.00000000000E+00 -0.80134263963E+03  0.80134263963E+03  0.00000000000E+00 0. -1.
         24    2    1    2    0    0 -0.34370254828E+02  0.78851998625E+01 -0.48035158015E+03  0.48834586932E+03  0.80626030112E+02 0.  0.
        -11    1    3    3    0    0 -0.50609293817E+02  0.24689260172E+02 -0.22547114311E+03  0.23239642115E+03  0.00000000000E+00 0.  1.
         12    1    3    3    0    0  0.16239038989E+02 -0.16804060309E+02 -0.25488043705E+03  0.25594944817E+03  0.00000000000E+00 0. -1.
          3    1    1    2  501    0  0.34370254828E+02 -0.78851998625E+01 -0.31601322510E+03  0.31797460469E+03  0.00000000000E+00 0. -1.
<mgrwt>
<rscale>  1 0.88000270E+02</rscale>
<asrwt>0</asrwt>
<pdfrwt beam="1">  1       21 0.76582028E-03 0.88000270E+02</pdfrwt>
<pdfrwt beam="2">  1        4 0.12328355E+00 0.88000270E+02</pdfrwt>
<totfact> 0.11122774E+05</totfact>
</mgrwt>
</event>
<event>
 6    2  0.7993170E+000  0.8319594E+02  0.7546771E-02  0.1320219E+00
          2   -1    0    0  502    0 -0.00000000000E+00  0.00000000000E+00  0.58046190150E+02  0.58046190150E+02  0.00000000000E+00 0. -1.
         21   -1    0    0  501  502  0.00000000000E+00 -0.00000000000E+00 -0.50041729392E+02  0.50041729392E+02  0.00000000000E+00 0.  1.
         24    2    1    2    0    0 -0.14256230756E+02 -0.15573798704E+02  0.17370800516E+02  0.84990048604E+02  0.80472233283E+02 0.  0.
        -11    1    3    3    0    0  0.24322962286E+01 -0.46496412633E+02  0.19060425104E+01  0.46598985512E+02  0.00000000000E+00 0.  1.
         12    1    3    3    0    0 -0.16688526985E+02  0.30922613929E+02  0.15464758006E+02  0.38391063091E+02  0.00000000000E+00 0. -1.
          1    1    1    2  501    0  0.14256230756E+02  0.15573798704E+02 -0.93663397580E+01  0.23097870939E+02  0.00000000000E+00 0. -1.
<mgrwt>
<rscale>  1 0.83195935E+02</rscale>
<asrwt>0</asrwt>
<pdfrwt beam="1">  1       21 0.76987276E-02 0.83195935E+02</pdfrwt>
<pdfrwt beam="2">  1        2 0.89301831E-02 0.83195935E+02</pdfrwt>
<totfact> 0.10516550E+06</totfact>
</mgrwt>
</event>
<event>
 6    2  0.7993170E+000  0.8585997E+02  0.7546771E-02  0.1313199E+00
         -3   -1    0    0    0  501 -0.00000000000E+00  0.00000000000E+00  0.58765970385E+03  0.58765970385E+03  0.00000000000E+00 0.  1.
         21   -1    0    0  501  502  0.00000000000E+00 -0.00000000000E+00 -0.32347738518E+02  0.32347738518E+02  0.00000000000E+00 0.  1.
         24    2    1    2    0    0  0.27853886074E+02  0.11226072670E+02  0.57675233330E+03  0.58310821398E+03  0.80436755096E+02 0.  0.
        -11    1    3    3    0    0  0.48914994102E+02  0.21964676137E+02  0.25981078749E+03  0.26528620194E+03  0.00000000000E+00 0.  1.
         12    1    3    3    0    0 -0.21061108029E+02 -0.10738603467E+02  0.31694154581E+03  0.31782201204E+03  0.00000000000E+00 0. -1.
         -4    1    1    2    0  502 -0.27853886074E+02 -0.11226072670E+02 -0.21440367967E+02  0.36899228387E+02  0.00000000000E+00 0.  1.
<mgrwt>
<rscale>  1 0.85859975E+02</rscale>
<asrwt>0</asrwt>
<pdfrwt beam="1">  1       21 0.49765756E-02 0.85859975E+02</pdfrwt>
<pdfrwt beam="2">  1       -3 0.90409177E-01 0.85859975E+02</pdfrwt>
<totfact> 0.14349624E+04</totfact>
</mgrwt>
</event>
<event>
 6    2  0.7993170E+000  0.8755323E+02  0.7546771E-02  0.1308887E+00
         21   -1    0    0  501  502  0.00000000000E+00  0.00000000000E+00  0.66491815369E+02  0.66491815369E+02  0.00000000000E+00 0. -1.
          4   -1    0    0  502    0 -0.00000000000E+00 -0.00000000000E+00 -0.58199192003E+02  0.58199192003E+02  0.00000000000E+00 0. -1.
         24    2    1    2    0    0 -0.25474862526E+02 -0.22110031390E+02 -0.66342787017E+01  0.87804227707E+02  0.80794471596E+02 0.  0.
        -11    1    3    3    0    0  0.23322917975E+02  0.13053720433E+02  0.29805804023E+01  0.26893158601E+02  0.00000000000E+00 0.  1.
         12    1    3    3    0    0 -0.48797780500E+02 -0.35163751823E+02 -0.96148591040E+01  0.60911069106E+02  0.00000000000E+00 0. -1.
          3    1    1    2  501    0  0.25474862526E+02  0.22110031390E+02  0.14926902067E+02  0.36886779666E+02  0.00000000000E+00 0. -1.
<mgrwt>
<rscale>  1 0.87553234E+02</rscale>
<asrwt>0</asrwt>
<pdfrwt beam="1">  1       21 0.10229510E-01 0.87553234E+02</pdfrwt>
<pdfrwt beam="2">  1        4 0.89537219E-02 0.87553234E+02</pdfrwt>
<totfact> 0.26417835E+05</totfact>
</mgrwt>
</event>
<event>
 6    2  0.7993170E+000  0.8351152E+02  0.7546771E-02  0.1319372E+00
         21   -1    0    0  501  502  0.00000000000E+00  0.00000000000E+00  0.29963586350E+03  0.29963586350E+03  0.00000000000E+00 0.  1.
          2   -1    0    0  502    0 -0.00000000000E+00 -0.00000000000E+00 -0.11938040498E+02  0.11938040498E+02  0.00000000000E+00 0. -1.
         24    2    1    2    0    0  0.21811242360E+02 -0.31318377559E+01  0.14619850295E+03  0.16836916847E+03  0.80552069661E+02 0.  0.
        -11    1    3    3    0    0  0.20614402723E+02 -0.22808182564E+01  0.15654804915E+03  0.15791595050E+03  0.00000000000E+00 0.  1.
         12    1    3    3    0    0  0.11968396374E+01 -0.85101949948E+00 -0.10349546201E+02  0.10453217967E+02  0.00000000000E+00 0. -1.
          1    1    1    2  501    0 -0.21811242360E+02  0.31318377559E+01  0.14149932005E+03  0.14320473553E+03  0.00000000000E+00 0. -1.
<mgrwt>
<rscale>  1 0.83511524E+02</rscale>
<asrwt>0</asrwt>
<pdfrwt beam="1">  1       21 0.46097820E-01 0.83511524E+02</pdfrwt>
<pdfrwt beam="2">  1        2 0.18366218E-02 0.83511524E+02</pdfrwt>
<totfact> 0.30986663E+05</totfact>
</mgrwt>
</event>
<event>
 6    2  0.7993170E+000  0.8876943E+02  0.7546771E-02  0.1305859E+00
          2   -1    0    0  502    0 -0.00000000000E+00  0.00000000000E+00  0.57727546273E+03  0.57727546273E+03  0.00000000000E+00 0. -1.
         21   -1    0    0  501  502  0.00000000000E+00 -0.00000000000E+00 -0.13888906097E+02  0.13888906097E+02  0.00000000000E+00 0. -1.
         24    2    1    2    0    0 -0.19254967492E+02 -0.30222764052E+02  0.54244147151E+03  0.54965694984E+03  0.81214796989E+02 0.  0.
        -13    1    3    3    0    0 -0.17789625424E+02 -0.12221807229E+02  0.30322328915E+02  0.37219443514E+02  0.00000000000E+00 0.  1.
         14    1    3    3    0    0 -0.14653420676E+01 -0.18000956823E+02  0.51211914260E+03  0.51243750633E+03  0.00000000000E+00 0. -1.
          1    1    1    2  501    0  0.19254967492E+02  0.30222764052E+02  0.20945085114E+02  0.41507418981E+02  0.00000000000E+00 0. -1.
<mgrwt>
<rscale>  1 0.88769434E+02</rscale>
<asrwt>0</asrwt>
<pdfrwt beam="1">  1       21 0.21367552E-02 0.88769434E+02</pdfrwt>
<pdfrwt beam="2">  1        2 0.88811591E-01 0.88769434E+02</pdfrwt>
<totfact> 0.69447697E+05</totfact>
</mgrwt>
</event>
<event>
 6    2  0.7993170E+000  0.8549749E+02  0.7546771E-02  0.1314137E+00
         21   -1    0    0  501  502  0.00000000000E+00  0.00000000000E+00  0.11858262165E+02  0.11858262165E+02  0.00000000000E+00 0. -1.
          2   -1    0    0  502    0 -0.00000000000E+00 -0.00000000000E+00 -0.36454904819E+03  0.36454904819E+03  0.00000000000E+00 0. -1.
         24    2    1    2    0    0 -0.73588959726E+01  0.29019671610E+02 -0.32344835313E+03  0.33455740507E+03  0.80084489496E+02 0.  0.
        -11    1    3    3    0    0 -0.12027705320E+02  0.53417024816E+02 -0.15718454813E+03  0.16644826946E+03  0.00000000000E+00 0.  1.
         12    1    3    3    0    0  0.46688093475E+01 -0.24397353205E+02 -0.16626380500E+03  0.16810913562E+03  0.00000000000E+00 0. -1.
          1    1    1    2  501    0  0.73588959726E+01 -0.29019671610E+02 -0.29242432892E+02  0.41849905278E+02  0.00000000000E+00 0. -1.
<mgrwt>
<rscale>  1 0.85497486E+02</rscale>
<asrwt>0</asrwt>
<pdfrwt beam="1">  1       21 0.18243480E-02 0.85497486E+02</pdfrwt>
<pdfrwt beam="2">  1        2 0.56084471E-01 0.85497486E+02</pdfrwt>
<totfact> 0.14559967E+06</totfact>
</mgrwt>
</event>
<event>
 6    2  0.7993170E+000  0.8988112E+02  0.7546771E-02  0.1303140E+00
         21   -1    0    0  501  502  0.00000000000E+00  0.00000000000E+00  0.23439701856E+03  0.23439701856E+03  0.00000000000E+00 0.  1.
         -3   -1    0    0    0  501 -0.00000000000E+00 -0.00000000000E+00 -0.42631428328E+02  0.42631428328E+02  0.00000000000E+00 0.  1.
         24    2    1    2    0    0 -0.17812049940E+02  0.13261949455E+02  0.61522886126E+01  0.90091435665E+02  0.87094590525E+02 0.  0.
        -13    1    3    3    0    0 -0.18560934386E+02 -0.21236531625E+02 -0.29264673403E+02  0.40643814660E+02  0.00000000000E+00 0.  1.
         14    1    3    3    0    0  0.74888444627E+00  0.34498481080E+02  0.35416962015E+02  0.49447621005E+02  0.00000000000E+00 0. -1.
         -4    1    1    2    0  502  0.17812049940E+02 -0.13261949455E+02  0.18561330162E+03  0.18693701122E+03  0.00000000000E+00 0.  1.
<mgrwt>
<rscale>  1 0.89881122E+02</rscale>
<asrwt>0</asrwt>
<pdfrwt beam="1">  1       21 0.36061079E-01 0.89881122E+02</pdfrwt>
<pdfrwt beam="2">  1       -3 0.65586814E-02 0.89881122E+02</pdfrwt>
<totfact> 0.50306785E+04</totfact>
</mgrwt>
</event>
<event>
 6    2  0.7993170E+000  0.7293990E+02  0.7546771E-02  0.1350372E+00
          4   -1    0    0  502    0 -0.00000000000E+00  0.00000000000E+00  0.65488462786E+02  0.65488462786E+02  0.00000000000E+00 0. -1.
         21   -1    0    0  501  502  0.00000000000E+00 -0.00000000000E+00 -0.34813360384E+02  0.34813360384E+02  0.00000000000E+00 0. -1.
         24    2    1    2    0    0 -0.20911682001E+02  0.77198142885E+01  0.26614947271E+02  0.77643958388E+02  0.69450233111E+02 0.  0.
        -11    1    3    3    0    0  0.25399347343E+02  0.23272910787E+01  0.15020591470E+02  0.29600021914E+02  0.00000000000E+00 0.  1.
         12    1    3    3    0    0 -0.46311029344E+02  0.53925232097E+01  0.11594355801E+02  0.48043936474E+02  0.00000000000E+00 0. -1.
          3    1    1    2  501    0  0.20911682001E+02 -0.77198142885E+01  0.40601551311E+01  0.22657864781E+02  0.00000000000E+00 0. -1.
<mgrwt>
<rscale>  1 0.72939899E+02</rscale>
<asrwt>0</asrwt>
<pdfrwt beam="1">  1       21 0.53559016E-02 0.72939899E+02</pdfrwt>
<pdfrwt beam="2">  1        4 0.10075148E-01 0.72939899E+02</pdfrwt>
<totfact> 0.62610871E+05</totfact>
</mgrwt>
</event>
<event>
 6    2  0.7993170E+000  0.1045767E+03  0.7546771E-02  0.1270956E+00
          2   -1    0    0  502    0 -0.00000000000E+00  0.00000000000E+00  0.91178983312E+03  0.91178983312E+03  0.00000000000E+00 0. -1.
         21   -1    0    0  501  502  0.00000000000E+00 -0.00000000000E+00 -0.86990876961E+01  0.86990876961E+01  0.00000000000E+00 0. -1.
         24    2    1    2    0    0  0.44147526149E+02  0.53872686898E+02  0.63198751800E+03  0.64058138184E+03  0.78006495801E+02 0.  0.
        -13    1    3    3    0    0 -0.15681715638E+02 -0.36332086508E+01  0.45743924409E+02  0.48493535969E+02  0.00000000000E+00 0.  1.
         14    1    3    3    0    0  0.59829241787E+02  0.57505895549E+02  0.58624359359E+03  0.59208784587E+03  0.00000000000E+00 0. -1.
          1    1    1    2  501    0 -0.44147526149E+02 -0.53872686898E+02  0.27110322742E+03  0.27990753898E+03  0.00000000000E+00 0. -1.
<mgrwt>
<rscale>  1 0.10457669E+03</rscale>
<asrwt>0</asrwt>
<pdfrwt beam="1">  1       21 0.13383219E-02 0.10457669E+03</pdfrwt>
<pdfrwt beam="2">  1        2 0.14027528E+00 0.10457669E+03</pdfrwt>
<totfact> 0.86030793E+05</totfact>
</mgrwt>
</event>
<event>
 6    2  0.7993170E+000  0.9368696E+02  0.7546771E-02  0.1294161E+00
         21   -1    0    0  501  502  0.00000000000E+00  0.00000000000E+00  0.15384211291E+02  0.15384211291E+02  0.00000000000E+00 0.  1.
          2   -1    0    0  502    0 -0.00000000000E+00 -0.00000000000E+00 -0.42806629015E+03  0.42806629015E+03  0.00000000000E+00 0. -1.
         24    2    1    2    0    0 -0.25796203661E+02  0.45960274162E+02 -0.34597302948E+03  0.35843351377E+03  0.77456153645E+02 0.  0.
        -11    1    3    3    0    0 -0.11993997991E+02 -0.21066075002E+02 -0.69095658297E+02  0.73224623586E+02  0.00000000000E+00 0.  1.
         12    1    3    3    0    0 -0.13802205670E+02  0.67026349164E+02 -0.27687737119E+03  0.28520889018E+03  0.00000000000E+00 0. -1.
          1    1    1    2  501    0  0.25796203661E+02 -0.45960274162E+02 -0.66709049375E+02  0.85016987673E+02  0.00000000000E+00 0. -1.
<mgrwt>
<rscale>  1 0.93686961E+02</rscale>
<asrwt>0</asrwt>
<pdfrwt beam="1">  1       21 0.23668016E-02 0.93686961E+02</pdfrwt>
<pdfrwt beam="2">  1        2 0.65856355E-01 0.93686961E+02</pdfrwt>
<totfact> 0.81802282E+05</totfact>
</mgrwt>
</event>
<event>
 6    2  0.7993170E+000  0.8504535E+02  0.7546771E-02  0.1315314E+00
          2   -1    0    0  502    0 -0.00000000000E+00  0.00000000000E+00  0.85889658642E+02  0.85889658642E+02  0.00000000000E+00 0. -1.
         21   -1    0    0  501  502  0.00000000000E+00 -0.00000000000E+00 -0.65741199999E+02  0.65741199999E+02  0.00000000000E+00 0. -1.
         24    2    1    2    0    0 -0.20840249067E+02  0.22241992896E+02  0.58068940663E+02  0.10297918667E+03  0.79395773111E+02 0.  0.
        -13    1    3    3    0    0  0.18504299853E+02 -0.14568514453E+02  0.39502915159E+02  0.45990553731E+02  0.00000000000E+00 0.  1.
         14    1    3    3    0    0 -0.39344548919E+02  0.36810507349E+02  0.18566025504E+02  0.56988632937E+02  0.00000000000E+00 0. -1.
          1    1    1    2  501    0  0.20840249067E+02 -0.22241992896E+02 -0.37920482020E+02  0.48651671973E+02  0.00000000000E+00 0. -1.
<mgrwt>
<rscale>  1 0.85045347E+02</rscale>
<asrwt>0</asrwt>
<pdfrwt beam="1">  1       21 0.10114031E-01 0.85045347E+02</pdfrwt>
<pdfrwt beam="2">  1        2 0.13213794E-01 0.85045347E+02</pdfrwt>
<totfact> 0.41284917E+05</totfact>
</mgrwt>
</event>
<event>
 6    2  0.7993170E+000  0.1207444E+03  0.7546771E-02  0.1241874E+00
         21   -1    0    0  501  502  0.00000000000E+00  0.00000000000E+00  0.42297070969E+01  0.42297070969E+01  0.00000000000E+00 0.  1.
          2   -1    0    0  502    0 -0.00000000000E+00 -0.00000000000E+00 -0.26358512086E+04  0.26358512086E+04  0.00000000000E+00 0. -1.
         24    2    1    2    0    0  0.67263078612E+02 -0.59194277204E+02 -0.16248391328E+04  0.16293193107E+04  0.80937781993E+02 0.  0.
        -13    1    3    3    0    0  0.72116834381E+02 -0.70052760054E+02 -0.11661485955E+04  0.11704745934E+04  0.00000000000E+00 0.  1.
         14    1    3    3    0    0 -0.48537557691E+01  0.10858482850E+02 -0.45869053726E+03  0.45884471727E+03  0.00000000000E+00 0. -1.
          1    1    1    2  501    0 -0.67263078612E+02  0.59194277204E+02 -0.10067823687E+04  0.10107616050E+04  0.00000000000E+00 0. -1.
<mgrwt>
<rscale>  1 0.12074439E+03</rscale>
<asrwt>0</asrwt>
<pdfrwt beam="1">  1       21 0.65072514E-03 0.12074439E+03</pdfrwt>
<pdfrwt beam="2">  1        2 0.40551497E+00 0.12074439E+03</pdfrwt>
<totfact> 0.32842666E+05</totfact>
</mgrwt>
</event>
<event>
 6    2  0.7993170E+000  0.9095802E+02  0.7546771E-02  0.1300548E+00
         -1   -1    0    0    0  501 -0.00000000000E+00  0.00000000000E+00  0.62191371582E+02  0.62191371582E+02  0.00000000000E+00 0.  1.
         21   -1    0    0  501  502  0.00000000000E+00 -0.00000000000E+00 -0.11786719634E+03  0.11786719634E+03  0.00000000000E+00 0.  1.
         24    2    1    2    0    0 -0.30989159393E+02 -0.21443304123E+02  0.22126026819E+02  0.93610482921E+02  0.82784166109E+02 0.  0.
        -13    1    3    3    0    0 -0.11781453199E+02  0.38052726317E+01  0.49920445830E+02  0.51432807149E+02  0.00000000000E+00 0.  1.
         14    1    3    3    0    0 -0.19207706194E+02 -0.25248576754E+02 -0.27794419012E+02  0.42177675772E+02  0.00000000000E+00 0. -1.
         -2    1    1    2    0  502  0.30989159393E+02  0.21443304123E+02 -0.77801851581E+02  0.86448085005E+02  0.00000000000E+00 0.  1.
<mgrwt>
<rscale>  1 0.90958020E+02</rscale>
<asrwt>0</asrwt>
<pdfrwt beam="1">  1       21 0.18133415E-01 0.90958020E+02</pdfrwt>
<pdfrwt beam="2">  1       -1 0.95679034E-02 0.90958020E+02</pdfrwt>
<totfact> 0.15422224E+05</totfact>
</mgrwt>
</event>
<event>
 6    2  0.7993170E+000  0.8408961E+02  0.7546771E-02  0.1317831E+00
          2   -1    0    0  502    0 -0.00000000000E+00  0.00000000000E+00  0.98450124565E+03  0.98450124565E+03  0.00000000000E+00 0. -1.
         21   -1    0    0  501  502  0.00000000000E+00 -0.00000000000E+00 -0.17678667390E+02  0.17678667390E+02  0.00000000000E+00 0. -1.
         24    2    1    2    0    0  0.20628613829E+02 -0.25425496835E+02  0.96576763986E+03  0.96942157833E+03  0.77453642571E+02 0.  0.
        -13    1    3    3    0    0  0.23319886985E+02  0.22938995401E+02  0.27093119710E+03  0.27289875082E+03  0.00000000000E+00 0.  1.
         14    1    3    3    0    0 -0.26912731561E+01 -0.48364492237E+02  0.69483644276E+03  0.69652282751E+03  0.00000000000E+00 0. -1.
          1    1    1    2  501    0 -0.20628613829E+02  0.25425496835E+02  0.10549384067E+01  0.32758334709E+02  0.00000000000E+00 0. -1.
<mgrwt>
<rscale>  1 0.84089609E+02</rscale>
<asrwt>0</asrwt>
<pdfrwt beam="1">  1       21 0.27197957E-02 0.84089609E+02</pdfrwt>
<pdfrwt beam="2">  1        2 0.15146169E+00 0.84089609E+02</pdfrwt>
<totfact> 0.24704365E+05</totfact>
</mgrwt>
</event>
<event>
 6    2  0.7993170E+000  0.9521582E+02  0.7546771E-02  0.1290691E+00
         -3   -1    0    0    0  501 -0.00000000000E+00  0.00000000000E+00  0.10402642260E+02  0.10402642260E+02  0.00000000000E+00 0.  1.
         21   -1    0    0  501  502  0.00000000000E+00 -0.00000000000E+00 -0.44207931533E+03  0.44207931533E+03  0.00000000000E+00 0. -1.
         24    2    1    2    0    0 -0.66590299795E+01  0.37828523539E+02 -0.34007880688E+03  0.35315668908E+03  0.87124693868E+02 0.  0.
        -11    1    3    3    0    0  0.17521817321E+02 -0.23395857771E+02 -0.95362791058E+02  0.99741877672E+02  0.00000000000E+00 0.  1.
         12    1    3    3    0    0 -0.24180847300E+02  0.61224381310E+02 -0.24471601582E+03  0.25341481141E+03  0.00000000000E+00 0. -1.
         -4    1    1    2    0  502  0.66590299795E+01 -0.37828523539E+02 -0.91597866190E+02  0.99325268507E+02  0.00000000000E+00 0.  1.
<mgrwt>
<rscale>  1 0.95215819E+02</rscale>
<asrwt>0</asrwt>
<pdfrwt beam="1">  1       21 0.68012215E-01 0.95215819E+02</pdfrwt>
<pdfrwt beam="2">  1       -3 0.16004062E-02 0.95215819E+02</pdfrwt>
<totfact> 0.12146341E+05</totfact>
</mgrwt>
</event>
<event>
 6    2  0.7993170E+000  0.8271167E+02  0.7546771E-02  0.1321528E+00
          2   -1    0    0  502    0 -0.00000000000E+00  0.00000000000E+00  0.19334114492E+03  0.19334114492E+03  0.00000000000E+00 0. -1.
         21   -1    0    0  501  502  0.00000000000E+00 -0.00000000000E+00 -0.14794877495E+02  0.14794877495E+02  0.00000000000E+00 0. -1.
         24    2    1    2    0    0 -0.11007931957E+02  0.16952862933E+02  0.16245931763E+03  0.18230263160E+03  0.80203774689E+02 0.  0.
        -11    1    3    3    0    0  0.12358353669E+02  0.17097182436E+01 -0.43224061071E+01  0.13203606948E+02  0.00000000000E+00 0.  1.
         12    1    3    3    0    0 -0.23366285626E+02  0.15243144690E+02  0.16678172374E+03  0.16909902465E+03  0.00000000000E+00 0. -1.
          1    1    1    2  501    0  0.11007931957E+02 -0.16952862933E+02  0.16086949796E+02  0.25833390822E+02  0.00000000000E+00 0. -1.
<mgrwt>
<rscale>  1 0.82711665E+02</rscale>
<asrwt>0</asrwt>
<pdfrwt beam="1">  1       21 0.22761351E-02 0.82711665E+02</pdfrwt>
<pdfrwt beam="2">  1        2 0.29744790E-01 0.82711665E+02</pdfrwt>
<totfact> 0.19804958E+06</totfact>
</mgrwt>
</event>
<event>
 6    2  0.7993170E+000  0.1383059E+03  0.7546771E-02  0.1215627E+00
          2   -1    0    0  502    0 -0.00000000000E+00  0.00000000000E+00  0.48763770085E+03  0.48763770085E+03  0.00000000000E+00 0. -1.
         21   -1    0    0  501  502  0.00000000000E+00 -0.00000000000E+00 -0.35737193697E+02  0.35737193697E+02  0.00000000000E+00 0.  1.
         24    2    1    2    0    0 -0.19696607144E+02 -0.11156161212E+03  0.16736678578E+03  0.21711783221E+03  0.79338278600E+02 0.  0.
        -13    1    3    3    0    0 -0.45624340225E+02 -0.67692292927E+02  0.71360649849E+02  0.10842587002E+03  0.00000000000E+00 0.  1.
         14    1    3    3    0    0  0.25927733081E+02 -0.43869319190E+02  0.96006135931E+02  0.10869196219E+03  0.00000000000E+00 0. -1.
          1    1    1    2  501    0  0.19696607144E+02  0.11156161212E+03  0.28453372138E+03  0.30625706234E+03  0.00000000000E+00 0. -1.
<mgrwt>
<rscale>  1 0.13830586E+03</rscale>
<asrwt>0</asrwt>
<pdfrwt beam="1">  1       21 0.54980301E-02 0.13830586E+03</pdfrwt>
<pdfrwt beam="2">  1        2 0.75021180E-01 0.13830586E+03</pdfrwt>
<totfact> 0.18157231E+05</totfact>
</mgrwt>
</event>
<event>
 6    2  0.7993170E+000  0.9050055E+02  0.7546771E-02  0.1301644E+00
         21   -1    0    0  501  502  0.00000000000E+00  0.00000000000E+00  0.91398301933E+01  0.91398301933E+01  0.00000000000E+00 0.  1.
         -1   -1    0    0    0  501 -0.00000000000E+00 -0.00000000000E+00 -0.10898544301E+04  0.10898544301E+04  0.00000000000E+00 0.  1.
         24    2    1    2    0    0  0.24599866197E+02 -0.32998015619E+02 -0.10286621205E+04  0.10326355151E+04  0.80599791799E+02 0.  0.
        -13    1    3    3    0    0  0.24451341585E+02  0.22426911357E+02 -0.49247385201E+03  0.49359024441E+03  0.00000000000E+00 0.  1.
         14    1    3    3    0    0  0.14852461270E+00 -0.55424926975E+02 -0.53618826845E+03  0.53904527065E+03  0.00000000000E+00 0. -1.
         -2    1    1    2    0  502 -0.24599866197E+02  0.32998015619E+02 -0.52052479413E+02  0.66358745202E+02  0.00000000000E+00 0.  1.
<mgrwt>
<rscale>  1 0.90500546E+02</rscale>
<asrwt>0</asrwt>
<pdfrwt beam="1">  1       21 0.14061273E-02 0.90500546E+02</pdfrwt>
<pdfrwt beam="2">  1       -1 0.16766996E+00 0.90500546E+02</pdfrwt>
<totfact> 0.56351790E+04</totfact>
</mgrwt>
</event>
<event>
 6    2  0.7993170E+000  0.7685567E+02  0.7546771E-02  0.1338219E+00
          2   -1    0    0  502    0 -0.00000000000E+00  0.00000000000E+00  0.36587846605E+03  0.36587846605E+03  0.00000000000E+00 0. -1.
         21   -1    0    0  501  502  0.00000000000E+00 -0.00000000000E+00 -0.44631288216E+02  0.44631288216E+02  0.00000000000E+00 0. -1.
         24    2    1    2    0    0  0.73141120306E+01  0.18981612701E+02  0.35926400922E+03  0.36739273530E+03  0.74114747332E+02 0.  0.
        -13    1    3    3    0    0  0.13395360251E+02  0.22929745079E+02  0.39797835491E+02  0.47844295328E+02  0.00000000000E+00 0.  1.
         14    1    3    3    0    0 -0.60812482206E+01 -0.39481323777E+01  0.31946617373E+03  0.31954843997E+03  0.00000000000E+00 0. -1.
          1    1    1    2  501    0 -0.73141120306E+01 -0.18981612701E+02 -0.38016831390E+02  0.43117018966E+02  0.00000000000E+00 0. -1.
<mgrwt>
<rscale>  1 0.76855668E+02</rscale>
<asrwt>0</asrwt>
<pdfrwt beam="1">  1       21 0.68663523E-02 0.76855668E+02</pdfrwt>
<pdfrwt beam="2">  1        2 0.56288993E-01 0.76855668E+02</pdfrwt>
<totfact> 0.16468394E+05</totfact>
</mgrwt>
</event>
<event>
 6    2  0.7993170E+000  0.9458972E+02  0.7546771E-02  0.1292103E+00
         21   -1    0    0  501  502  0.00000000000E+00  0.00000000000E+00  0.83600854305E+01  0.83600854305E+01  0.00000000000E+00 0. -1.
          2   -1    0    0  502    0 -0.00000000000E+00 -0.00000000000E+00 -0.50242380197E+03  0.50242380197E+03  0.00000000000E+00 0. -1.
         24    2    1    2    0    0  0.45871300685E+00  0.35000847033E+02 -0.35602992881E+03  0.36838095110E+03  0.87874599390E+02 0.  0.
        -11    1    3    3    0    0  0.26384815629E+02  0.37820957830E+02 -0.32310355053E+03  0.32637782969E+03  0.00000000000E+00 0.  1.
         12    1    3    3    0    0 -0.25926102623E+02 -0.28201107975E+01 -0.32926378280E+02  0.42003121417E+02  0.00000000000E+00 0. -1.
          1    1    1    2  501    0 -0.45871300685E+00 -0.35000847033E+02 -0.13803378773E+03  0.14240293629E+03  0.00000000000E+00 0. -1.
<mgrwt>
<rscale>  1 0.94589719E+02</rscale>
<asrwt>0</asrwt>
<pdfrwt beam="1">  1       21 0.12861668E-02 0.94589719E+02</pdfrwt>
<pdfrwt beam="2">  1        2 0.77295984E-01 0.94589719E+02</pdfrwt>
<totfact> 0.18230644E+06</totfact>
</mgrwt>
</event>
<event>
 6    2  0.7993170E+000  0.8769668E+02  0.7546771E-02  0.1308527E+00
          2   -1    0    0  502    0 -0.00000000000E+00  0.00000000000E+00  0.28094594111E+04  0.28094594111E+04  0.00000000000E+00 0. -1.
         21   -1    0    0  501  502  0.00000000000E+00 -0.00000000000E+00 -0.25131198828E+01  0.25131198828E+01  0.00000000000E+00 0. -1.
         24    2    1    2    0    0  0.35014707289E+02  0.15771490061E+00  0.81252533113E+03  0.81724422351E+03  0.80403062947E+02 0.  0.
        -13    1    3    3    0    0  0.56339137878E+02 -0.67213911024E+01  0.71175221986E+03  0.71401015261E+03  0.00000000000E+00 0.  1.
         14    1    3    3    0    0 -0.21324430590E+02  0.68791060030E+01  0.10077311128E+03  0.10323407091E+03  0.00000000000E+00 0. -1.
          1    1    1    2  501    0 -0.35014707289E+02 -0.15771490061E+00  0.19944209601E+04  0.19947283075E+04  0.00000000000E+00 0. -1.
<mgrwt>
<rscale>  1 0.87696677E+02</rscale>
<asrwt>0</asrwt>
<pdfrwt beam="1">  1       21 0.38663608E-03 0.87696677E+02</pdfrwt>
<pdfrwt beam="2">  1        2 0.43222201E+00 0.87696677E+02</pdfrwt>
<totfact> 0.58677921E+05</totfact>
</mgrwt>
</event>
<event>
 6    2  0.7993170E+000  0.8368488E+02  0.7546771E-02  0.1318908E+00
         -1   -1    0    0    0  501 -0.00000000000E+00  0.00000000000E+00  0.18241291921E+03  0.18241291921E+03  0.00000000000E+00 0.  1.
         21   -1    0    0  501  502  0.00000000000E+00 -0.00000000000E+00 -0.26334213221E+02  0.26334213221E+02  0.00000000000E+00 0. -1.
         24    2    1    2    0    0 -0.27428538151E+02 -0.17484960819E+02  0.15506307702E+03  0.17620362213E+03  0.77104539678E+02 0.  0.
        -13    1    3    3    0    0  0.11157952666E+02  0.15946058978E+02  0.96797855260E+02  0.98735006394E+02  0.00000000000E+00 0.  1.
         14    1    3    3    0    0 -0.38586490817E+02 -0.33431019797E+02  0.58265221759E+02  0.77468615741E+02  0.00000000000E+00 0. -1.
         -2    1    1    2    0  502  0.27428538151E+02  0.17484960819E+02  0.10156289653E+01  0.32543510292E+02  0.00000000000E+00 0.  1.
<mgrwt>
<rscale>  1 0.83684877E+02</rscale>
<asrwt>0</asrwt>
<pdfrwt beam="1">  1       21 0.40514175E-02 0.83684877E+02</pdfrwt>
<pdfrwt beam="2">  1       -1 0.28063525E-01 0.83684877E+02</pdfrwt>
<totfact> 0.37369774E+05</totfact>
</mgrwt>
</event>
<event>
 6    2  0.7993170E+000  0.8529035E+02  0.7546771E-02  0.1314675E+00
         21   -1    0    0  501  502  0.00000000000E+00  0.00000000000E+00  0.17827444475E+02  0.17827444475E+02  0.00000000000E+00 0. -1.
         -1   -1    0    0    0  501 -0.00000000000E+00 -0.00000000000E+00 -0.20876721231E+03  0.20876721231E+03  0.00000000000E+00 0.  1.
         24    2    1    2    0    0 -0.89618076326E+01  0.28766986797E+02 -0.10353061364E+03  0.13413810611E+03  0.79790914428E+02 0.  0.
        -11    1    3    3    0    0  0.31245454427E+02 -0.27463934696E+01 -0.23499874262E+02  0.39192667551E+02  0.00000000000E+00 0.  1.
         12    1    3    3    0    0 -0.40207262059E+02  0.31513380267E+02 -0.80030739378E+02  0.94945438561E+02  0.00000000000E+00 0. -1.
         -2    1    1    2    0  502  0.89618076326E+01 -0.28766986797E+02 -0.87409154197E+02  0.92456550676E+02  0.00000000000E+00 0.  1.
<mgrwt>
<rscale>  1 0.85290349E+02</rscale>
<asrwt>0</asrwt>
<pdfrwt beam="1">  1       21 0.27426838E-02 0.85290349E+02</pdfrwt>
<pdfrwt beam="2">  1       -1 0.32118032E-01 0.85290349E+02</pdfrwt>
<totfact> 0.56545332E+05</totfact>
</mgrwt>
</event>
<event>
 6    2  0.7993170E+000  0.8957190E+02  0.7546771E-02  0.1303892E+00
          2   -1    0    0  502    0 -0.00000000000E+00  0.00000000000E+00  0.19868974858E+04  0.19868974858E+04  0.00000000000E+00 0. -1.
         21   -1    0    0  501  502  0.00000000000E+00 -0.00000000000E+00 -0.21894843553E+01  0.21894843553E+01  0.00000000000E+00 0. -1.
         24    2    1    2    0    0 -0.33997217582E+02 -0.18978923292E+02  0.15707652286E+04  0.15733170464E+04  0.80666688862E+02 0.  0.
        -13    1    3    3    0    0  0.39777736106E+00 -0.40497657612E+02  0.45032154213E+03  0.45213903813E+03  0.00000000000E+00 0.  1.
         14    1    3    3    0    0 -0.34394994943E+02  0.21518734320E+02  0.11204436865E+04  0.11211780082E+04  0.00000000000E+00 0. -1.
          1    1    1    2  501    0  0.33997217582E+02  0.18978923292E+02  0.41394277281E+03  0.41576992375E+03  0.00000000000E+00 0. -1.
<mgrwt>
<rscale>  1 0.89571899E+02</rscale>
<asrwt>0</asrwt>
<pdfrwt beam="1">  1       21 0.33684533E-03 0.89571899E+02</pdfrwt>
<pdfrwt beam="2">  1        2 0.30567510E+00 0.89571899E+02</pdfrwt>
<totfact> 0.19403928E+06</totfact>
</mgrwt>
</event>
<event>
 6    2  0.7993170E+000  0.8817908E+02  0.7546771E-02  0.1307322E+00
          2   -1    0    0  502    0 -0.00000000000E+00  0.00000000000E+00  0.11126835218E+04  0.11126835218E+04  0.00000000000E+00 0. -1.
         21   -1    0    0  501  502  0.00000000000E+00 -0.00000000000E+00 -0.57104450357E+01  0.57104450357E+01  0.00000000000E+00 0. -1.
         24    2    1    2    0    0  0.28674203284E+02 -0.11284072656E+02  0.10493554309E+04  0.10530538311E+04  0.82619673748E+02 0.  0.
        -11    1    3    3    0    0  0.27410050925E+02 -0.11151324031E+02  0.11656297690E+03  0.12026051098E+03  0.00000000000E+00 0.  1.
         12    1    3    3    0    0  0.12641523586E+01 -0.13274862500E+00  0.93279245402E+03  0.93279332007E+03  0.00000000000E+00 0. -1.
          1    1    1    2  501    0 -0.28674203284E+02  0.11284072656E+02  0.57617645833E+02  0.65340135759E+02  0.00000000000E+00 0. -1.
<mgrwt>
<rscale>  1 0.88179083E+02</rscale>
<asrwt>0</asrwt>
<pdfrwt beam="1">  1       21 0.87853089E-03 0.88179083E+02</pdfrwt>
<pdfrwt beam="2">  1        2 0.17118191E+00 0.88179083E+02</pdfrwt>
<totfact> 0.12537133E+06</totfact>
</mgrwt>
</event>
<event>
 6    2  0.7993170E+000  0.8662795E+02  0.7546771E-02  0.1311229E+00
          4   -1    0    0  502    0 -0.00000000000E+00  0.00000000000E+00  0.16811712762E+02  0.16811712762E+02  0.00000000000E+00 0. -1.
         21   -1    0    0  501  502  0.00000000000E+00 -0.00000000000E+00 -0.20284043148E+03  0.20284043148E+03  0.00000000000E+00 0. -1.
         24    2    1    2    0    0 -0.19352016740E+02 -0.20755048959E+02 -0.12210893244E+03  0.14971637595E+03  0.81848208508E+02 0.  0.
        -13    1    3    3    0    0 -0.87690644966E+01  0.27682454522E+02 -0.78456563926E+02  0.83657917758E+02  0.00000000000E+00 0.  1.
         14    1    3    3    0    0 -0.10582952244E+02 -0.48437503480E+02 -0.43652368518E+02  0.66058458193E+02  0.00000000000E+00 0. -1.
          3    1    1    2  501    0  0.19352016740E+02  0.20755048959E+02 -0.63919786275E+02  0.69935768292E+02  0.00000000000E+00 0. -1.
<mgrwt>
<rscale>  1 0.86627951E+02</rscale>
<asrwt>0</asrwt>
<pdfrwt beam="1">  1       21 0.31206220E-01 0.86627951E+02</pdfrwt>
<pdfrwt beam="2">  1        4 0.25864174E-02 0.86627951E+02</pdfrwt>
<totfact> 0.25135680E+05</totfact>
</mgrwt>
</event>
<event>
 6    2  0.7993170E+000  0.8598368E+02  0.7546771E-02  0.1312880E+00
         -1   -1    0    0    0  501 -0.00000000000E+00  0.00000000000E+00  0.25273981853E+01  0.25273981853E+01  0.00000000000E+00 0.  1.
         21   -1    0    0  501  502  0.00000000000E+00 -0.00000000000E+00 -0.13294295718E+04  0.13294295718E+04  0.00000000000E+00 0. -1.
         24    2    1    2    0    0 -0.17921062814E+02  0.22779344791E+02 -0.10615493752E+04  0.10650259477E+04  0.80951406452E+02 0.  0.
        -11    1    3    3    0    0 -0.45443830506E+01  0.44337455156E+02 -0.32524429704E+03  0.32828389254E+03  0.00000000000E+00 0.  1.
         12    1    3    3    0    0 -0.13376679763E+02 -0.21558110364E+02 -0.73630507819E+03  0.73674205517E+03  0.00000000000E+00 0. -1.
         -2    1    1    2    0  502  0.17921062814E+02 -0.22779344791E+02 -0.26535279840E+03  0.26693102229E+03  0.00000000000E+00 0.  1.
<mgrwt>
<rscale>  1 0.85983680E+02</rscale>
<asrwt>0</asrwt>
<pdfrwt beam="1">  1       21 0.20452753E+00 0.85983680E+02</pdfrwt>
<pdfrwt beam="2">  1       -1 0.38883068E-03 0.85983680E+02</pdfrwt>
<totfact> 0.78749223E+04</totfact>
</mgrwt>
</event>
<event>
 6    2  0.7993170E+000  0.9493708E+02  0.7546771E-02  0.1291318E+00
         21   -1    0    0  501  502  0.00000000000E+00  0.00000000000E+00  0.42253269575E+01  0.42253269575E+01  0.00000000000E+00 0.  1.
          2   -1    0    0  502    0 -0.00000000000E+00 -0.00000000000E+00 -0.18666996237E+04  0.18666996237E+04  0.00000000000E+00 0. -1.
         24    2    1    2    0    0  0.40114249235E+02 -0.20764493087E+02 -0.58508697827E+03  0.59273925266E+03  0.83502888218E+02 0.  0.
        -13    1    3    3    0    0 -0.78946751467E+01 -0.41777882033E+02 -0.25709882892E+03  0.26059072346E+03  0.00000000000E+00 0.  1.
         14    1    3    3    0    0  0.48008924382E+02  0.21013388947E+02 -0.32798814935E+03  0.33214852920E+03  0.00000000000E+00 0. -1.
          1    1    1    2  501    0 -0.40114249235E+02  0.20764493087E+02 -0.12773873185E+04  0.12781856980E+04  0.00000000000E+00 0. -1.
<mgrwt>
<rscale>  1 0.94937082E+02</rscale>
<asrwt>0</asrwt>
<pdfrwt beam="1">  1       21 0.65005149E-03 0.94937082E+02</pdfrwt>
<pdfrwt beam="2">  1        2 0.28718403E+00 0.94937082E+02</pdfrwt>
<totfact> 0.81770530E+05</totfact>
</mgrwt>
</event>
<event>
 6    2  0.7993170E+000  0.9558368E+02  0.7546771E-02  0.1289867E+00
          4   -1    0    0  502    0 -0.00000000000E+00  0.00000000000E+00  0.20371019354E+03  0.20371019354E+03  0.00000000000E+00 0. -1.
         21   -1    0    0  501  502  0.00000000000E+00 -0.00000000000E+00 -0.70114236797E+02  0.70114236797E+02  0.00000000000E+00 0. -1.
         24    2    1    2    0    0  0.36612229708E+02 -0.11149648402E+02  0.18588802674E+03  0.20902295961E+03  0.87586923303E+02 0.  0.
        -11    1    3    3    0    0  0.16759974280E+02  0.65593849719E+01 -0.30212811375E+01  0.18249668731E+02  0.00000000000E+00 0.  1.
         12    1    3    3    0    0  0.19852255428E+02 -0.17709033374E+02  0.18890930788E+03  0.19077329088E+03  0.00000000000E+00 0. -1.
          3    1    1    2  501    0 -0.36612229708E+02  0.11149648402E+02 -0.52292069999E+02  0.64801470728E+02  0.00000000000E+00 0. -1.
<mgrwt>
<rscale>  1 0.95583676E+02</rscale>
<asrwt>0</asrwt>
<pdfrwt beam="1">  1       21 0.10786806E-01 0.95583676E+02</pdfrwt>
<pdfrwt beam="2">  1        4 0.31340030E-01 0.95583676E+02</pdfrwt>
<totfact> 0.27045466E+04</totfact>
</mgrwt>
</event>
<event>
 6    2  0.7993170E+000  0.8397578E+02  0.7546771E-02  0.1318133E+00
         21   -1    0    0  501  502  0.00000000000E+00  0.00000000000E+00  0.50220561486E+02  0.50220561486E+02  0.00000000000E+00 0. -1.
          2   -1    0    0  502    0 -0.00000000000E+00 -0.00000000000E+00 -0.76052498657E+02  0.76052498657E+02  0.00000000000E+00 0. -1.
         24    2    1    2    0    0 -0.41249902873E+01 -0.27680355851E+02 -0.42062437023E+02  0.93921139483E+02  0.79175211957E+02 0.  0.
        -13    1    3    3    0    0  0.69567505161E+00  0.27897147318E+02 -0.17710971914E+02  0.33051676484E+02  0.00000000000E+00 0.  1.
         14    1    3    3    0    0 -0.48206653389E+01 -0.55577503169E+02 -0.24351465110E+02  0.60869462999E+02  0.00000000000E+00 0. -1.
          1    1    1    2  501    0  0.41249902873E+01  0.27680355851E+02  0.16230499852E+02  0.32351920660E+02  0.00000000000E+00 0. -1.
<mgrwt>
<rscale>  1 0.83975781E+02</rscale>
<asrwt>0</asrwt>
<pdfrwt beam="1">  1       21 0.77262402E-02 0.83975781E+02</pdfrwt>
<pdfrwt beam="2">  1        2 0.11700384E-01 0.83975781E+02</pdfrwt>
<totfact> 0.75550133E+05</totfact>
</mgrwt>
</event>
<event>
 6    2  0.7993170E+000  0.8532887E+02  0.7546771E-02  0.1314575E+00
         21   -1    0    0  501  502  0.00000000000E+00  0.00000000000E+00  0.83352688695E+01  0.83352688695E+01  0.00000000000E+00 0. -1.
         -1   -1    0    0    0  501 -0.00000000000E+00 -0.00000000000E+00 -0.40065342286E+03  0.40065342286E+03  0.00000000000E+00 0.  1.
         24    2    1    2    0    0  0.12602986559E+02  0.25776263580E+02 -0.32014509676E+03  0.33132144494E+03  0.80360225618E+02 0.  0.
        -13    1    3    3    0    0 -0.68463766558E+01  0.10518815215E+02 -0.29760074876E+03  0.29786527829E+03  0.00000000000E+00 0.  1.
         14    1    3    3    0    0  0.19449363215E+02  0.15257448365E+02 -0.22544347998E+02  0.33456166647E+02  0.00000000000E+00 0. -1.
         -2    1    1    2    0  502 -0.12602986559E+02 -0.25776263580E+02 -0.72173057231E+02  0.77667246793E+02  0.00000000000E+00 0.  1.
<mgrwt>
<rscale>  1 0.85328875E+02</rscale>
<asrwt>0</asrwt>
<pdfrwt beam="1">  1       21 0.12823491E-02 0.85328875E+02</pdfrwt>
<pdfrwt beam="2">  1       -1 0.61638988E-01 0.85328875E+02</pdfrwt>
<totfact> 0.59956173E+05</totfact>
</mgrwt>
</event>
<event>
 6    2  0.7993170E+000  0.8780249E+02  0.7546771E-02  0.1308262E+00
          2   -1    0    0  502    0 -0.00000000000E+00  0.00000000000E+00  0.18283931634E+04  0.18283931634E+04  0.00000000000E+00 0. -1.
         21   -1    0    0  501  502  0.00000000000E+00 -0.00000000000E+00 -0.24174897861E+01  0.24174897861E+01  0.00000000000E+00 0. -1.
         24    2    1    2    0    0  0.33636474715E+02  0.14179652555E+02  0.15421132226E+04  0.15446107823E+04  0.79854884749E+02 0.  0.
        -13    1    3    3    0    0 -0.24534087582E+02  0.70612242804E+01  0.28811889568E+03  0.28924778372E+03  0.00000000000E+00 0.  1.
         14    1    3    3    0    0  0.58170562297E+02  0.71184282745E+01  0.12539943269E+04  0.12553629986E+04  0.00000000000E+00 0. -1.
          1    1    1    2  501    0 -0.33636474715E+02 -0.14179652555E+02  0.28386245098E+03  0.28619987082E+03  0.00000000000E+00 0. -1.
<mgrwt>
<rscale>  1 0.87802492E+02</rscale>
<asrwt>0</asrwt>
<pdfrwt beam="1">  1       21 0.37192297E-03 0.87802492E+02</pdfrwt>
<pdfrwt beam="2">  1        2 0.28129015E+00 0.87802492E+02</pdfrwt>
<totfact> 0.20016857E+06</totfact>
</mgrwt>
</event>
<event>
 6    2  0.7993170E+000  0.8732380E+02  0.7546771E-02  0.1309465E+00
         21   -1    0    0  501  502  0.00000000000E+00  0.00000000000E+00  0.11035456236E+02  0.11035456236E+02  0.00000000000E+00 0. -1.
          2   -1    0    0  502    0 -0.00000000000E+00 -0.00000000000E+00 -0.41013997707E+03  0.41013997707E+03  0.00000000000E+00 0. -1.
         24    2    1    2    0    0 -0.19189583300E+02  0.12901553927E+02 -0.38341092901E+03  0.39322943135E+03  0.84206620852E+02 0.  0.
        -13    1    3    3    0    0  0.22790872756E+02  0.94249429108E+01 -0.38277416584E+02  0.45534756507E+02  0.00000000000E+00 0.  1.
         14    1    3    3    0    0 -0.41980456056E+02  0.34766110157E+01 -0.34513351243E+03  0.34769467485E+03  0.00000000000E+00 0. -1.
          1    1    1    2  501    0  0.19189583300E+02 -0.12901553927E+02 -0.15693591825E+02  0.27946001956E+02  0.00000000000E+00 0. -1.
<mgrwt>
<rscale>  1 0.87323795E+02</rscale>
<asrwt>0</asrwt>
<pdfrwt beam="1">  1       21 0.16977624E-02 0.87323795E+02</pdfrwt>
<pdfrwt beam="2">  1        2 0.63098462E-01 0.87323795E+02</pdfrwt>
<totfact> 0.14460684E+06</totfact>
</mgrwt>
</event>
<event>
 6    2  0.7993170E+000  0.9197080E+02  0.7546771E-02  0.1298148E+00
         21   -1    0    0  501  502  0.00000000000E+00  0.00000000000E+00  0.18503745514E+01  0.18503745514E+01  0.00000000000E+00 0.  1.
          2   -1    0    0  502    0 -0.00000000000E+00 -0.00000000000E+00 -0.24136655585E+04  0.24136655585E+04  0.00000000000E+00 0. -1.
         24    2    1    2    0    0  0.36118535776E+02  0.20817330961E+02 -0.16595018936E+04  0.16620484841E+04  0.81979988533E+02 0.  0.
        -13    1    3    3    0    0  0.38078757028E+02  0.34202872839E+02 -0.53004883406E+03  0.53251440800E+03  0.00000000000E+00 0.  1.
         14    1    3    3    0    0 -0.19602212519E+01 -0.13385541878E+02 -0.11294530596E+04  0.11295340761E+04  0.00000000000E+00 0. -1.
          1    1    1    2  501    0 -0.36118535776E+02 -0.20817330961E+02 -0.75231329034E+03  0.75346744901E+03  0.00000000000E+00 0. -1.
<mgrwt>
<rscale>  1 0.91970802E+02</rscale>
<asrwt>0</asrwt>
<pdfrwt beam="1">  1       21 0.28467266E-03 0.91970802E+02</pdfrwt>
<pdfrwt beam="2">  1        2 0.37133362E+00 0.91970802E+02</pdfrwt>
<totfact> 0.15196716E+06</totfact>
</mgrwt>
</event>
<event>
 6    2  0.7993170E+000  0.8384811E+02  0.7546771E-02  0.1318473E+00
         21   -1    0    0  501  502  0.00000000000E+00  0.00000000000E+00  0.24351082734E+02  0.24351082734E+02  0.00000000000E+00 0.  1.
         -1   -1    0    0    0  501 -0.00000000000E+00 -0.00000000000E+00 -0.19380391322E+03  0.19380391322E+03  0.00000000000E+00 0.  1.
         24    2    1    2    0    0  0.22950344854E+02  0.89924258996E+01 -0.17394541569E+03  0.19309974951E+03  0.80143144236E+02 0.  0.
        -11    1    3    3    0    0  0.24721858934E+02  0.39789907380E+02 -0.13798964160E+03  0.14572421977E+03  0.00000000000E+00 0.  1.
         12    1    3    3    0    0 -0.17715140796E+01 -0.30797481481E+02 -0.35955774092E+02  0.47375529741E+02  0.00000000000E+00 0. -1.
         -2    1    1    2    0  502 -0.22950344854E+02 -0.89924258996E+01  0.44925852064E+01  0.25055246443E+02  0.00000000000E+00 0.  1.
<mgrwt>
<rscale>  1 0.83848110E+02</rscale>
<asrwt>0</asrwt>
<pdfrwt beam="1">  1       21 0.37463206E-02 0.83848110E+02</pdfrwt>
<pdfrwt beam="2">  1       -1 0.29815985E-01 0.83848110E+02</pdfrwt>
<totfact> 0.38457630E+05</totfact>
</mgrwt>
</event>
<event>
 6    2  0.7993170E+000  0.8716967E+02  0.7546771E-02  0.1309854E+00
         21   -1    0    0  501  502  0.00000000000E+00  0.00000000000E+00  0.17078401804E+02  0.17078401804E+02  0.00000000000E+00 0. -1.
          2   -1    0    0  502    0 -0.00000000000E+00 -0.00000000000E+00 -0.22714487773E+03  0.22714487773E+03  0.00000000000E+00 0. -1.
         24    2    1    2    0    0  0.17659952888E+02  0.31610004935E+02 -0.13223217381E+03  0.15837897318E+03  0.79293663087E+02 0.  0.
        -13    1    3    3    0    0 -0.26033869836E+02  0.25176114012E+02 -0.91067414959E+02  0.98004454811E+02  0.00000000000E+00 0.  1.
         14    1    3    3    0    0  0.43693822723E+02  0.64338909233E+01 -0.41164758849E+02  0.60374518364E+02  0.00000000000E+00 0. -1.
          1    1    1    2  501    0 -0.17659952888E+02 -0.31610004935E+02 -0.77834302119E+02  0.85844306360E+02  0.00000000000E+00 0. -1.
<mgrwt>
<rscale>  1 0.87169670E+02</rscale>
<asrwt>0</asrwt>
<pdfrwt beam="1">  1       21 0.26274466E-02 0.87169670E+02</pdfrwt>
<pdfrwt beam="2">  1        2 0.34945364E-01 0.87169670E+02</pdfrwt>
<totfact> 0.13335304E+06</totfact>
</mgrwt>
</event>
<event>
 6    2  0.7993170E+000  0.9423438E+02  0.7546771E-02  0.1292910E+00
          2   -1    0    0  502    0 -0.00000000000E+00  0.00000000000E+00  0.53748310796E+03  0.53748310796E+03  0.00000000000E+00 0. -1.
         21   -1    0    0  501  502  0.00000000000E+00 -0.00000000000E+00 -0.15203170076E+02  0.15203170076E+02  0.00000000000E+00 0.  1.
         24    2    1    2    0    0 -0.46517582932E+02 -0.93592376281E+01  0.14829303523E+03  0.17570128602E+03  0.81416440353E+02 0.  0.
        -13    1    3    3    0    0 -0.58831143770E+02  0.10703475603E+02  0.61522970914E+02  0.85794777331E+02  0.00000000000E+00 0.  1.
         14    1    3    3    0    0  0.12313560838E+02 -0.20062713231E+02  0.86770064317E+02  0.89906508687E+02  0.00000000000E+00 0. -1.
          1    1    1    2  501    0  0.46517582932E+02  0.93592376281E+01  0.37398690265E+03  0.37698499202E+03  0.00000000000E+00 0. -1.
<mgrwt>
<rscale>  1 0.94234376E+02</rscale>
<asrwt>0</asrwt>
<pdfrwt beam="1">  1       21 0.23389497E-02 0.94234376E+02</pdfrwt>
<pdfrwt beam="2">  1        2 0.82689694E-01 0.94234376E+02</pdfrwt>
<totfact> 0.65291205E+05</totfact>
</mgrwt>
</event>
<event>
 6    2  0.7993170E+000  0.8341402E+02  0.7546771E-02  0.1319633E+00
          2   -1    0    0  502    0 -0.00000000000E+00  0.00000000000E+00  0.10116948291E+04  0.10116948291E+04  0.00000000000E+00 0. -1.
         21   -1    0    0  501  502  0.00000000000E+00 -0.00000000000E+00 -0.77770449290E+01  0.77770449290E+01  0.00000000000E+00 0. -1.
         24    2    1    2    0    0  0.15885049135E+02  0.13032761445E+02  0.99243397482E+03  0.99593327733E+03  0.80843743469E+02 0.  0.
        -13    1    3    3    0    0  0.36754290825E+02  0.12352229307E+02  0.23239180857E+03  0.23560434663E+03  0.00000000000E+00 0.  1.
         14    1    3    3    0    0 -0.20869241690E+02  0.68053213832E+00  0.76004216625E+03  0.76032893070E+03  0.00000000000E+00 0. -1.
          1    1    1    2  501    0 -0.15885049135E+02 -0.13032761445E+02  0.11483809331E+02  0.23538596680E+02  0.00000000000E+00 0. -1.
<mgrwt>
<rscale>  1 0.83414019E+02</rscale>
<asrwt>0</asrwt>
<pdfrwt beam="1">  1       21 0.11964693E-02 0.83414019E+02</pdfrwt>
<pdfrwt beam="2">  1        2 0.15564525E+00 0.83414019E+02</pdfrwt>
<totfact> 0.87932087E+05</totfact>
</mgrwt>
</event>
<event>
 6    2  0.7993170E+000  0.9295818E+02  0.7546771E-02  0.1295842E+00
         -3   -1    0    0    0  501 -0.00000000000E+00  0.00000000000E+00  0.78456871148E+01  0.78456871148E+01  0.00000000000E+00 0.  1.
         21   -1    0    0  501  502  0.00000000000E+00 -0.00000000000E+00 -0.61457047580E+03  0.61457047580E+03  0.00000000000E+00 0. -1.
         24    2    1    2    0    0  0.45176149096E+02  0.35293346625E+01 -0.37971897369E+03  0.39093186390E+03  0.81165772215E+02 0.  0.
        -11    1    3    3    0    0  0.52012478770E+02 -0.10346725035E+01 -0.11653603049E+03  0.12762058963E+03  0.00000000000E+00 0.  1.
         12    1    3    3    0    0 -0.68363296741E+01  0.45640071660E+01 -0.26318294321E+03  0.26331127427E+03  0.00000000000E+00 0. -1.
         -4    1    1    2    0  502 -0.45176149096E+02 -0.35293346625E+01 -0.22700581499E+03  0.23148429901E+03  0.00000000000E+00 0.  1.
<mgrwt>
<rscale>  1 0.92958180E+02</rscale>
<asrwt>0</asrwt>
<pdfrwt beam="1">  1       21 0.94549291E-01 0.92958180E+02</pdfrwt>
<pdfrwt beam="2">  1       -3 0.12070290E-02 0.92958180E+02</pdfrwt>
<totfact> 0.89019990E+04</totfact>
</mgrwt>
</event>
<event>
 6    2  0.7993170E+000  0.9145496E+02  0.7546771E-02  0.1299366E+00
          2   -1    0    0  502    0 -0.00000000000E+00  0.00000000000E+00  0.53510379867E+02  0.53510379867E+02  0.00000000000E+00 0. -1.
         21   -1    0    0  501  502  0.00000000000E+00 -0.00000000000E+00 -0.87041119968E+02  0.87041119968E+02  0.00000000000E+00 0.  1.
         24    2    1    2    0    0  0.31520625130E+02  0.34926998377E+01 -0.50617109864E+02  0.10452799650E+03  0.85780309400E+02 0.  0.
        -11    1    3    3    0    0  0.32339669163E+02  0.35948833596E+02 -0.51062404691E+01  0.48623518283E+02  0.00000000000E+00 0.  1.
         12    1    3    3    0    0 -0.81904403343E+00 -0.32456133759E+02 -0.45510869395E+02  0.55904478217E+02  0.00000000000E+00 0. -1.
          1    1    1    2  501    0 -0.31520625130E+02 -0.34926998377E+01  0.17086369763E+02  0.36023503334E+02  0.00000000000E+00 0. -1.
<mgrwt>
<rscale>  1 0.91454963E+02</rscale>
<asrwt>0</asrwt>
<pdfrwt beam="1">  1       21 0.13390941E-01 0.91454963E+02</pdfrwt>
<pdfrwt beam="2">  1        2 0.82323663E-02 0.91454963E+02</pdfrwt>
<totfact> 0.44980597E+05</totfact>
</mgrwt>
</event>
<event>
 6    2  0.7993170E+000  0.9215658E+02  0.7546771E-02  0.1297712E+00
         21   -1    0    0  501  502  0.00000000000E+00  0.00000000000E+00  0.13975730183E+02  0.13975730183E+02  0.00000000000E+00 0. -1.
         -1   -1    0    0    0  501 -0.00000000000E+00 -0.00000000000E+00 -0.40606184541E+03  0.40606184541E+03  0.00000000000E+00 0.  1.
         24    2    1    2    0    0  0.41473066807E+02 -0.17122420497E+02 -0.33491107868E+03  0.34735898619E+03  0.80496224181E+02 0.  0.
        -11    1    3    3    0    0 -0.21063487293E+02 -0.17586180855E+01 -0.15158848215E+03  0.15305499389E+03  0.00000000000E+00 0.  1.
         12    1    3    3    0    0  0.62536554100E+02 -0.15363802411E+02 -0.18332259654E+03  0.19430399230E+03  0.00000000000E+00 0. -1.
         -2    1    1    2    0  502 -0.41473066807E+02  0.17122420497E+02 -0.57175036548E+02  0.72678589408E+02  0.00000000000E+00 0.  1.
<mgrwt>
<rscale>  1 0.92156577E+02</rscale>
<asrwt>0</asrwt>
<pdfrwt beam="1">  1       21 0.21501125E-02 0.92156577E+02</pdfrwt>
<pdfrwt beam="2">  1       -1 0.62471049E-01 0.92156577E+02</pdfrwt>
<totfact> 0.25917057E+05</totfact>
</mgrwt>
</event>
<event>
 6    2  0.7993170E+000  0.8443196E+02  0.7546771E-02  0.1316925E+00
         21   -1    0    0  501  502  0.00000000000E+00  0.00000000000E+00  0.11675305950E+02  0.11675305950E+02  0.00000000000E+00 0. -1.
          2   -1    0    0  502    0 -0.00000000000E+00 -0.00000000000E+00 -0.47506477264E+03  0.47506477264E+03  0.00000000000E+00 0. -1.
         24    2    1    2    0    0  0.18469640912E+02 -0.12226944174E+02 -0.45545019682E+03  0.46321014435E+03  0.81474721494E+02 0.  0.
        -13    1    3    3    0    0  0.29409811754E+01 -0.41960524676E+02 -0.14574306182E+03  0.15169171061E+03  0.00000000000E+00 0.  1.
         14    1    3    3    0    0  0.15528659736E+02  0.29733580503E+02 -0.30970713501E+03  0.31151843374E+03  0.00000000000E+00 0. -1.
          1    1    1    2  501    0 -0.18469640912E+02  0.12226944174E+02 -0.79392698645E+01  0.23529934237E+02  0.00000000000E+00 0. -1.
<mgrwt>
<rscale>  1 0.84431961E+02</rscale>
<asrwt>0</asrwt>
<pdfrwt beam="1">  1       21 0.17962011E-02 0.84431961E+02</pdfrwt>
<pdfrwt beam="2">  1        2 0.73086879E-01 0.84431961E+02</pdfrwt>
<totfact> 0.11272390E+06</totfact>
</mgrwt>
</event>
<event>
 6    2  0.7993170E+000  0.9801735E+02  0.7546771E-02  0.1284521E+00
         21   -1    0    0  501  502  0.00000000000E+00  0.00000000000E+00  0.33981611842E+01  0.33981611842E+01  0.00000000000E+00 0.  1.
          2   -1    0    0  502    0 -0.00000000000E+00 -0.00000000000E+00 -0.16578430193E+04  0.16578430193E+04  0.00000000000E+00 0. -1.
         24    2    1    2    0    0  0.46930427862E+02  0.16812742305E+02 -0.95308553973E+03  0.95811243918E+03  0.84393522877E+02 0.  0.
        -11    1    3    3    0    0  0.63187382509E+02  0.22893283421E+02 -0.47707240254E+03  0.48178296462E+03  0.00000000000E+00 0.  1.
         12    1    3    3    0    0 -0.16256954647E+02 -0.60805411169E+01 -0.47601313719E+03  0.47632947455E+03  0.00000000000E+00 0. -1.
          1    1    1    2  501    0 -0.46930427862E+02 -0.16812742305E+02 -0.70135931836E+03  0.70312874128E+03  0.00000000000E+00 0. -1.
<mgrwt>
<rscale>  1 0.98017346E+02</rscale>
<asrwt>0</asrwt>
<pdfrwt beam="1">  1       21 0.52279307E-03 0.98017346E+02</pdfrwt>
<pdfrwt beam="2">  1        2 0.25505324E+00 0.98017346E+02</pdfrwt>
<totfact> 0.14597907E+06</totfact>
</mgrwt>
</event>
<event>
 6    2  0.7993170E+000  0.8543636E+02  0.7546771E-02  0.1314295E+00
          2   -1    0    0  502    0 -0.00000000000E+00  0.00000000000E+00  0.36610446508E+03  0.36610446508E+03  0.00000000000E+00 0. -1.
         21   -1    0    0  501  502  0.00000000000E+00 -0.00000000000E+00 -0.35168878000E+02  0.35168878000E+02  0.00000000000E+00 0. -1.
         24    2    1    2    0    0 -0.16844920170E+02 -0.17901270743E+02  0.35603493547E+03  0.36614238637E+03  0.81823987882E+02 0.  0.
        -11    1    3    3    0    0  0.42530192339E+01 -0.10846897619E+02  0.25099858461E+01  0.11918195733E+02  0.00000000000E+00 0.  1.
         12    1    3    3    0    0 -0.21097939404E+02 -0.70543731237E+01  0.35352494962E+03  0.35422419064E+03  0.00000000000E+00 0. -1.
          1    1    1    2  501    0  0.16844920170E+02  0.17901270743E+02 -0.25099348389E+02  0.35130956709E+02  0.00000000000E+00 0. -1.
<mgrwt>
<rscale>  1 0.85436361E+02</rscale>
<asrwt>0</asrwt>
<pdfrwt beam="1">  1       21 0.54105969E-02 0.85436361E+02</pdfrwt>
<pdfrwt beam="2">  1        2 0.56323761E-01 0.85436361E+02</pdfrwt>
<totfact> 0.24699825E+05</totfact>
</mgrwt>
</event>
<event>
 6    2  0.7993170E+000  0.9198448E+02  0.7546771E-02  0.1298116E+00
          2   -1    0    0  502    0 -0.00000000000E+00  0.00000000000E+00  0.53787032289E+03  0.53787032289E+03  0.00000000000E+00 0. -1.
         21   -1    0    0  501  502  0.00000000000E+00 -0.00000000000E+00 -0.11486497043E+02  0.11486497043E+02  0.00000000000E+00 0.  1.
         24    2    1    2    0    0 -0.40621820646E+02 -0.18002674967E+02  0.46238769088E+03  0.47144832290E+03  0.80541392295E+02 0.  0.
        -13    1    3    3    0    0  0.12412879368E+02 -0.34469920320E+01  0.11653508117E+02  0.17371401202E+02  0.00000000000E+00 0.  1.
         14    1    3    3    0    0 -0.53034700014E+02 -0.14555682935E+02  0.45073418276E+03  0.45407692170E+03  0.00000000000E+00 0. -1.
          1    1    1    2  501    0  0.40621820646E+02  0.18002674967E+02  0.63996134968E+02  0.77908497029E+02  0.00000000000E+00 0. -1.
<mgrwt>
<rscale>  1 0.91984480E+02</rscale>
<asrwt>0</asrwt>
<pdfrwt beam="1">  1       21 0.17671538E-02 0.91984480E+02</pdfrwt>
<pdfrwt beam="2">  1        2 0.82749261E-01 0.91984480E+02</pdfrwt>
<totfact> 0.10201255E+06</totfact>
</mgrwt>
</event>
<event>
 6    2  0.7993170E+000  0.8121013E+02  0.7546771E-02  0.1325652E+00
         21   -1    0    0  501  502  0.00000000000E+00  0.00000000000E+00  0.18729976725E+01  0.18729976725E+01  0.00000000000E+00 0. -1.
          2   -1    0    0  502    0 -0.00000000000E+00 -0.00000000000E+00 -0.25019728107E+04  0.25019728107E+04  0.00000000000E+00 0. -1.
         24    2    1    2    0    0  0.21476811153E+02 -0.10232573263E+02 -0.23814617449E+04  0.23828460142E+04  0.77647447798E+02 0.  0.
        -13    1    3    3    0    0  0.28117510468E+02  0.11674094851E+01 -0.29426882647E+03  0.29561139942E+03  0.00000000000E+00 0.  1.
         14    1    3    3    0    0 -0.66406993152E+01 -0.11399982748E+02 -0.20871929184E+04  0.20872346148E+04  0.00000000000E+00 0. -1.
          1    1    1    2  501    0 -0.21476811153E+02  0.10232573263E+02 -0.11863806814E+03  0.12099979415E+03  0.00000000000E+00 0. -1.
<mgrwt>
<rscale>  1 0.81210129E+02</rscale>
<asrwt>0</asrwt>
<pdfrwt beam="1">  1       21 0.28815386E-03 0.81210129E+02</pdfrwt>
<pdfrwt beam="2">  1        2 0.38491840E+00 0.81210129E+02</pdfrwt>
<totfact> 0.13345760E+06</totfact>
</mgrwt>
</event>
<event>
 6    2  0.7993170E+000  0.9264515E+02  0.7546771E-02  0.1296570E+00
         21   -1    0    0  501  502  0.00000000000E+00  0.00000000000E+00  0.16899085763E+03  0.16899085763E+03  0.00000000000E+00 0.  1.
         -1   -1    0    0    0  501 -0.00000000000E+00 -0.00000000000E+00 -0.22765995951E+02  0.22765995951E+02  0.00000000000E+00 0.  1.
         24    2    1    2    0    0 -0.13433820131E+02 -0.23504195089E+02  0.13173570664E+03  0.16105098568E+03  0.88601404469E+02 0.  0.
        -11    1    3    3    0    0 -0.31690930729E+02 -0.48906803915E+02  0.64706016876E+02  0.87080762397E+02  0.00000000000E+00 0.  1.
         12    1    3    3    0    0  0.18257110598E+02  0.25402608826E+02  0.67029689760E+02  0.73970223278E+02  0.00000000000E+00 0. -1.
         -2    1    1    2    0  502  0.13433820131E+02  0.23504195089E+02  0.14489155045E+02  0.30705867908E+02  0.00000000000E+00 0.  1.
<mgrwt>
<rscale>  1 0.92645149E+02</rscale>
<asrwt>0</asrwt>
<pdfrwt beam="1">  1       21 0.25998593E-01 0.92645149E+02</pdfrwt>
<pdfrwt beam="2">  1       -1 0.35024610E-02 0.92645149E+02</pdfrwt>
<totfact> 0.34911473E+05</totfact>
</mgrwt>
</event>
<event>
 6    2  0.7993170E+000  0.8337466E+02  0.7546771E-02  0.1319739E+00
         21   -1    0    0  501  502  0.00000000000E+00  0.00000000000E+00  0.70503292957E+01  0.70503292957E+01  0.00000000000E+00 0. -1.
          2   -1    0    0  502    0 -0.00000000000E+00 -0.00000000000E+00 -0.10054563881E+04  0.10054563881E+04  0.00000000000E+00 0. -1.
         24    2    1    2    0    0 -0.26351192381E+02  0.15735296220E+01 -0.97056779170E+03  0.97414227486E+03  0.79085220203E+02 0.  0.
        -11    1    3    3    0    0 -0.10825263500E+02 -0.38446155387E+02 -0.41438274271E+03  0.41630319558E+03  0.00000000000E+00 0.  1.
         12    1    3    3    0    0 -0.15525928881E+02  0.40019685009E+02 -0.55618504899E+03  0.55783907928E+03  0.00000000000E+00 0. -1.
          1    1    1    2  501    0  0.26351192381E+02 -0.15735296220E+01 -0.27838267099E+02  0.38364442527E+02  0.00000000000E+00 0. -1.
<mgrwt>
<rscale>  1 0.83374657E+02</rscale>
<asrwt>0</asrwt>
<pdfrwt beam="1">  1       21 0.10846669E-02 0.83374657E+02</pdfrwt>
<pdfrwt beam="2">  1        2 0.15468548E+00 0.83374657E+02</pdfrwt>
<totfact> 0.10339178E+06</totfact>
</mgrwt>
</event>
<event>
 6    2  0.7993170E+000  0.8937629E+02  0.7546771E-02  0.1304369E+00
         21   -1    0    0  501  502  0.00000000000E+00  0.00000000000E+00  0.59841146736E+03  0.59841146736E+03  0.00000000000E+00 0. -1.
         -3   -1    0    0    0  501 -0.00000000000E+00 -0.00000000000E+00 -0.63239493452E+01  0.63239493452E+01  0.00000000000E+00 0.  1.
         24    2    1    2    0    0 -0.32357259184E+02  0.83880953827E+01  0.41393703507E+03  0.42347608056E+03  0.82890104587E+02 0.  0.
        -11    1    3    3    0    0 -0.37098500197E+01  0.88678311847E+01  0.11331920808E+01  0.96791291644E+01  0.00000000000E+00 0.  1.
         12    1    3    3    0    0 -0.28647409164E+02 -0.47973580201E+00  0.41280384299E+03  0.41379695139E+03  0.00000000000E+00 0. -1.
         -4    1    1    2    0  502  0.32357259184E+02 -0.83880953827E+01  0.17815048295E+03  0.18125933615E+03  0.00000000000E+00 0.  1.
<mgrwt>
<rscale>  1 0.89376293E+02</rscale>
<asrwt>0</asrwt>
<pdfrwt beam="1">  1       21 0.92063258E-01 0.89376293E+02</pdfrwt>
<pdfrwt beam="2">  1       -3 0.97291576E-03 0.89376293E+02</pdfrwt>
<totfact> 0.12967971E+05</totfact>
</mgrwt>
</event>
<event>
 6    2  0.7993170E+000  0.9127616E+02  0.7546771E-02  0.1299790E+00
         21   -1    0    0  501  502  0.00000000000E+00  0.00000000000E+00  0.59297135464E+01  0.59297135464E+01  0.00000000000E+00 0. -1.
          2   -1    0    0  502    0 -0.00000000000E+00 -0.00000000000E+00 -0.18661649239E+04  0.18661649239E+04  0.00000000000E+00 0. -1.
         24    2    1    2    0    0 -0.27278200944E+02 -0.29935163935E+02 -0.17788416653E+04  0.17811819130E+04  0.81799283408E+02 0.  0.
        -13    1    3    3    0    0 -0.40693301877E+02 -0.80896938136E+00 -0.42128300663E+03  0.42324457578E+03  0.00000000000E+00 0.  1.
         14    1    3    3    0    0  0.13415100934E+02 -0.29126194554E+02 -0.13575586587E+04  0.13579373373E+04  0.00000000000E+00 0. -1.
          1    1    1    2  501    0  0.27278200944E+02  0.29935163935E+02 -0.81393545045E+02  0.90912724420E+02  0.00000000000E+00 0. -1.
<mgrwt>
<rscale>  1 0.91276158E+02</rscale>
<asrwt>0</asrwt>
<pdfrwt beam="1">  1       21 0.91226415E-03 0.91276158E+02</pdfrwt>
<pdfrwt beam="2">  1        2 0.28710213E+00 0.91276158E+02</pdfrwt>
<totfact> 0.48282390E+05</totfact>
</mgrwt>
</event>
<event>
 6    2  0.7993170E+000  0.7684717E+02  0.7546771E-02  0.1338245E+00
         -1   -1    0    0    0  501 -0.00000000000E+00  0.00000000000E+00  0.39768960106E+03  0.39768960106E+03  0.00000000000E+00 0.  1.
         21   -1    0    0  501  502  0.00000000000E+00 -0.00000000000E+00 -0.61645206829E+01  0.61645206829E+01  0.00000000000E+00 0.  1.
         24    2    1    2    0    0 -0.16001351473E+02  0.13085186579E+02  0.33404391876E+03  0.34276935034E+03  0.74015015460E+02 0.  0.
        -11    1    3    3    0    0 -0.29624642522E+02 -0.22531157517E+02  0.19871388976E+03  0.20216944004E+03  0.00000000000E+00 0.  1.
         12    1    3    3    0    0  0.13623291050E+02  0.35616344096E+02  0.13533002900E+03  0.14059991030E+03  0.00000000000E+00 0. -1.
         -2    1    1    2    0  502  0.16001351473E+02 -0.13085186579E+02  0.57481161609E+02  0.61084771397E+02  0.00000000000E+00 0.  1.
<mgrwt>
<rscale>  1 0.76847172E+02</rscale>
<asrwt>0</asrwt>
<pdfrwt beam="1">  1       21 0.94838811E-03 0.76847172E+02</pdfrwt>
<pdfrwt beam="2">  1       -1 0.61182996E-01 0.76847172E+02</pdfrwt>
<totfact> 0.96241552E+05</totfact>
</mgrwt>
</event>
<event>
 6    2  0.7993170E+000  0.9521631E+02  0.7546771E-02  0.1290690E+00
         21   -1    0    0  501  502  0.00000000000E+00  0.00000000000E+00  0.32865057232E+01  0.32865057232E+01  0.00000000000E+00 0. -1.
          2   -1    0    0  502    0 -0.00000000000E+00 -0.00000000000E+00 -0.21065902159E+04  0.21065902159E+04  0.00000000000E+00 0. -1.
         24    2    1    2    0    0 -0.16189312254E+02  0.49231374251E+02 -0.17708389338E+04  0.17733969309E+04  0.79876923958E+02 0.  0.
        -11    1    3    3    0    0  0.10589365357E+02  0.17823424640E+02 -0.10395779396E+03  0.10600486804E+03  0.00000000000E+00 0.  1.
         12    1    3    3    0    0 -0.26778677611E+02  0.31407949611E+02 -0.16668811398E+04  0.16673920628E+04  0.00000000000E+00 0. -1.
          1    1    1    2  501    0  0.16189312254E+02 -0.49231374251E+02 -0.33246477642E+03  0.33647979078E+03  0.00000000000E+00 0. -1.
<mgrwt>
<rscale>  1 0.95216306E+02</rscale>
<asrwt>0</asrwt>
<pdfrwt beam="1">  1       21 0.50561444E-03 0.95216306E+02</pdfrwt>
<pdfrwt beam="2">  1        2 0.32409197E+00 0.95216306E+02</pdfrwt>
<totfact> 0.91165601E+05</totfact>
</mgrwt>
</event>
<event>
 6    2  0.7993170E+000  0.8151563E+02  0.7546771E-02  0.1324805E+00
         21   -1    0    0  501  502  0.00000000000E+00  0.00000000000E+00  0.15128345994E+01  0.15128345994E+01  0.00000000000E+00 0. -1.
          2   -1    0    0  502    0 -0.00000000000E+00 -0.00000000000E+00 -0.20845825238E+04  0.20845825238E+04  0.00000000000E+00 0. -1.
         24    2    1    2    0    0 -0.15911668688E+02 -0.13651980020E+02 -0.19133465138E+04  0.19150821600E+04  0.78773345241E+02 0.  0.
        -11    1    3    3    0    0  0.31118092268E+02  0.36382934339E+01 -0.77730705010E+03  0.77793818712E+03  0.00000000000E+00 0.  1.
         12    1    3    3    0    0 -0.47029760956E+02 -0.17290273454E+02 -0.11360394637E+04  0.11371439729E+04  0.00000000000E+00 0. -1.
          1    1    1    2  501    0  0.15911668688E+02  0.13651980020E+02 -0.16972317545E+03  0.17101319845E+03  0.00000000000E+00 0. -1.
<mgrwt>
<rscale>  1 0.81515628E+02</rscale>
<asrwt>0</asrwt>
<pdfrwt beam="1">  1       21 0.23274370E-03 0.81515628E+02</pdfrwt>
<pdfrwt beam="2">  1        2 0.32070512E+00 0.81515628E+02</pdfrwt>
<totfact> 0.30072613E+06</totfact>
</mgrwt>
</event>
<event>
 6    2  0.8535475E+000  0.8728795E+02  0.7546771E-02  0.1309555E+00
         -1   -1    0    0    0  501 -0.00000000000E+00  0.00000000000E+00  0.69274192285E+02  0.69274192285E+02  0.00000000000E+00 0.  1.
         21   -1    0    0  501  502  0.00000000000E+00 -0.00000000000E+00 -0.11405240724E+03  0.11405240724E+03  0.00000000000E+00 0. -1.
         24    2    1    2    0    0  0.29705605700E+02  0.13344511727E+02 -0.91447062576E+02  0.12641895204E+03  0.80985722062E+02 0.  0.
        -13    1    3    3    0    0 -0.17489879505E+02  0.47299381403E+01  0.49165246171E+01  0.18773396449E+02  0.00000000000E+00 0.  1.
         14    1    3    3    0    0  0.47195485205E+02  0.86145735865E+01 -0.96363587193E+02  0.10764555559E+03  0.00000000000E+00 0. -1.
         -2    1    1    2    0  502 -0.29705605700E+02 -0.13344511727E+02  0.46668847625E+02  0.56907647481E+02  0.00000000000E+00 0.  1.
<mgrwt>
<rscale>  1 0.87287950E+02</rscale>
<asrwt>0</asrwt>
<pdfrwt beam="1">  1       21 0.17546524E-01 0.87287950E+02</pdfrwt>
<pdfrwt beam="2">  1       -1 0.10657568E-01 0.87287950E+02</pdfrwt>
<totfact> 0.13865223E+05</totfact>
</mgrwt>
</event>
<event>
 6    2  0.7993170E+000  0.1233546E+03  0.7546771E-02  0.1237663E+00
         21   -1    0    0  501  502  0.00000000000E+00  0.00000000000E+00  0.11112354733E+04  0.11112354733E+04  0.00000000000E+00 0. -1.
         -1   -1    0    0    0  501 -0.00000000000E+00 -0.00000000000E+00 -0.10563458559E+02  0.10563458559E+02  0.00000000000E+00 0.  1.
         24    2    1    2    0    0 -0.53732127262E+02 -0.71343721355E+02  0.74138615820E+03  0.75157819393E+03  0.85083946524E+02 0.  0.
        -11    1    3    3    0    0 -0.53405012306E+02 -0.65806777355E+02  0.34864752469E+03  0.35880039542E+03  0.00000000000E+00 0.  1.
         12    1    3    3    0    0 -0.32711495671E+00 -0.55369440001E+01  0.39273863351E+03  0.39277779851E+03  0.00000000000E+00 0. -1.
         -2    1    1    2    0  502  0.53732127262E+02  0.71343721355E+02  0.35928585657E+03  0.37022073795E+03  0.00000000000E+00 0.  1.
<mgrwt>
<rscale>  1 0.12335455E+03</rscale>
<asrwt>0</asrwt>
<pdfrwt beam="1">  1       21 0.17095921E+00 0.12335455E+03</pdfrwt>
<pdfrwt beam="2">  1       -1 0.16251483E-02 0.12335455E+03</pdfrwt>
<totfact> 0.17206580E+04</totfact>
</mgrwt>
</event>
<event>
 6    2  0.7993170E+000  0.8749284E+02  0.7546771E-02  0.1309039E+00
         21   -1    0    0  501  502  0.00000000000E+00  0.00000000000E+00  0.13278681140E+02  0.13278681140E+02  0.00000000000E+00 0.  1.
         -1   -1    0    0    0  501 -0.00000000000E+00 -0.00000000000E+00 -0.36494591489E+03  0.36494591489E+03  0.00000000000E+00 0.  1.
         24    2    1    2    0    0 -0.20650430371E+02 -0.28695899804E+02 -0.31645312543E+03  0.32832541402E+03  0.80031880899E+02 0.  0.
        -11    1    3    3    0    0 -0.50976977414E+01 -0.55139658512E+02 -0.23060630250E+03  0.23716162257E+03  0.00000000000E+00 0.  1.
         12    1    3    3    0    0 -0.15552732629E+02  0.26443758708E+02 -0.85846822921E+02  0.91163791455E+02  0.00000000000E+00 0. -1.
         -2    1    1    2    0  502  0.20650430371E+02  0.28695899804E+02 -0.35214108322E+02  0.49899182007E+02  0.00000000000E+00 0.  1.
<mgrwt>
<rscale>  1 0.87492839E+02</rscale>
<asrwt>0</asrwt>
<pdfrwt beam="1">  1       21 0.20428745E-02 0.87492839E+02</pdfrwt>
<pdfrwt beam="2">  1       -1 0.56145513E-01 0.87492839E+02</pdfrwt>
<totfact> 0.34196908E+05</totfact>
</mgrwt>
</event>
<event>
 6    2  0.7993170E+000  0.8111155E+02  0.7546771E-02  0.1325926E+00
          2   -1    0    0  502    0 -0.00000000000E+00  0.00000000000E+00  0.78751686406E+03  0.78751686406E+03  0.00000000000E+00 0. -1.
         21   -1    0    0  501  502  0.00000000000E+00 -0.00000000000E+00 -0.24525200959E+02  0.24525200959E+02  0.00000000000E+00 0. -1.
         24    2    1    2    0    0 -0.18235198563E+02 -0.22281438347E+02  0.77615631555E+03  0.78038305310E+03  0.75829403509E+02 0.  0.
        -11    1    3    3    0    0  0.11505328665E+02  0.22322621455E+02  0.16775035829E+03  0.16961973565E+03  0.00000000000E+00 0.  1.
         12    1    3    3    0    0 -0.29740527229E+02 -0.44604059802E+02  0.60840595726E+03  0.61076331745E+03  0.00000000000E+00 0. -1.
          1    1    1    2  501    0  0.18235198563E+02  0.22281438347E+02 -0.13164652451E+02  0.31659011918E+02  0.00000000000E+00 0. -1.
<mgrwt>
<rscale>  1 0.81111549E+02</rscale>
<asrwt>0</asrwt>
<pdfrwt beam="1">  1       21 0.37731084E-02 0.81111549E+02</pdfrwt>
<pdfrwt beam="2">  1        2 0.12115642E+00 0.81111549E+02</pdfrwt>
<totfact> 0.19214957E+05</totfact>
</mgrwt>
</event>
<event>
 6    2  0.7993170E+000  0.8307475E+02  0.7546771E-02  0.1320545E+00
         -3   -1    0    0    0  501 -0.00000000000E+00  0.00000000000E+00  0.22377913988E+02  0.22377913988E+02  0.00000000000E+00 0.  1.
         21   -1    0    0  501  502  0.00000000000E+00 -0.00000000000E+00 -0.13186492482E+03  0.13186492482E+03  0.00000000000E+00 0. -1.
         24    2    1    2    0    0  0.62338810906E+01 -0.21480416835E+02 -0.69017774526E+02  0.10800401672E+03  0.80007154970E+02 0.  0.
        -11    1    3    3    0    0 -0.42949960303E+01 -0.15937209699E+02  0.15506003842E+02  0.22646805493E+02  0.00000000000E+00 0.  1.
         12    1    3    3    0    0  0.10528877121E+02 -0.55432071358E+01 -0.84523778369E+02  0.85357211227E+02  0.00000000000E+00 0. -1.
         -4    1    1    2    0  502 -0.62338810906E+01  0.21480416835E+02 -0.40469236309E+02  0.46238822090E+02  0.00000000000E+00 0.  1.
<mgrwt>
<rscale>  1 0.83074752E+02</rscale>
<asrwt>0</asrwt>
<pdfrwt beam="1">  1       21 0.20286912E-01 0.83074752E+02</pdfrwt>
<pdfrwt beam="2">  1       -3 0.34427559E-02 0.83074752E+02</pdfrwt>
<totfact> 0.40308611E+05</totfact>
</mgrwt>
</event>
<event>
 6    2  0.7993170E+000  0.2633359E+03  0.7546771E-02  0.1105155E+00
         21   -1    0    0  501  502  0.00000000000E+00  0.00000000000E+00  0.36651872843E+02  0.36651872843E+02  0.00000000000E+00 0. -1.
          2   -1    0    0  502    0 -0.00000000000E+00 -0.00000000000E+00 -0.24081630756E+04  0.24081630756E+04  0.00000000000E+00 0. -1.
         24    2    1    2    0    0 -0.16065293562E+03 -0.19277466151E+03 -0.59502085297E+03  0.65068858759E+03  0.79839756379E+02 0.  0.
        -13    1    3    3    0    0 -0.14024251186E+02 -0.18932430012E+01 -0.80450759631E+01  0.16278428598E+02  0.00000000000E+00 0.  1.
         14    1    3    3    0    0 -0.14662868444E+03 -0.19088141851E+03 -0.58697577701E+03  0.63441015899E+03  0.00000000000E+00 0. -1.
          1    1    1    2  501    0  0.16065293562E+03  0.19277466151E+03 -0.17764903498E+04  0.17941263609E+04  0.00000000000E+00 0. -1.
<mgrwt>
<rscale>  1 0.26333595E+03</rscale>
<asrwt>0</asrwt>
<pdfrwt beam="1">  1       21 0.56387499E-02 0.26333595E+03</pdfrwt>
<pdfrwt beam="2">  1        2 0.37048661E+00 0.26333595E+03</pdfrwt>
<totfact> 0.12534331E+04</totfact>
</mgrwt>
</event>
<event>
 6    2  0.7993170E+000  0.8242384E+02  0.7546771E-02  0.1322310E+00
         21   -1    0    0  501  502  0.00000000000E+00  0.00000000000E+00  0.24501436657E+01  0.24501436657E+01  0.00000000000E+00 0.  1.
         -1   -1    0    0    0  501 -0.00000000000E+00 -0.00000000000E+00 -0.10903199958E+04  0.10903199958E+04  0.00000000000E+00 0.  1.
         24    2    1    2    0    0  0.55921453901E+01  0.20157862619E+02 -0.85708359623E+03  0.86103773468E+03  0.79725015480E+02 0.  0.
        -13    1    3    3    0    0  0.20227581452E+02 -0.11508187273E+02 -0.83906628970E+02  0.87074197159E+02  0.00000000000E+00 0.  1.
         14    1    3    3    0    0 -0.14635436062E+02  0.31666049892E+02 -0.77317696726E+03  0.77396353752E+03  0.00000000000E+00 0. -1.
         -2    1    1    2    0  502 -0.55921453901E+01 -0.20157862619E+02 -0.23078625586E+03  0.23173240474E+03  0.00000000000E+00 0.  1.
<mgrwt>
<rscale>  1 0.82423841E+02</rscale>
<asrwt>0</asrwt>
<pdfrwt beam="1">  1       21 0.37694537E-03 0.82423841E+02</pdfrwt>
<pdfrwt beam="2">  1       -1 0.16774145E+00 0.82423841E+02</pdfrwt>
<totfact> 0.42868766E+05</totfact>
</mgrwt>
</event>
<event>
 6    2  0.7993170E+000  0.8762779E+02  0.7546771E-02  0.1308700E+00
         21   -1    0    0  501  502  0.00000000000E+00  0.00000000000E+00  0.19448553517E+01  0.19448553517E+01  0.00000000000E+00 0. -1.
          2   -1    0    0  502    0 -0.00000000000E+00 -0.00000000000E+00 -0.37511722733E+04  0.37511722733E+04  0.00000000000E+00 0. -1.
         24    2    1    2    0    0  0.16519306188E+02  0.32971670106E+02 -0.35073504454E+04  0.35084449227E+04  0.79489687433E+02 0.  0.
        -13    1    3    3    0    0 -0.84837755112E+01 -0.17503532448E+02 -0.31639246152E+03  0.31698980710E+03  0.00000000000E+00 0.  1.
         14    1    3    3    0    0  0.25003081700E+02  0.50475202554E+02 -0.31909579838E+04  0.31914551156E+04  0.00000000000E+00 0. -1.
          1    1    1    2  501    0 -0.16519306188E+02 -0.32971670106E+02 -0.24187697261E+03  0.24467220600E+03  0.00000000000E+00 0. -1.
<mgrwt>
<rscale>  1 0.87627786E+02</rscale>
<asrwt>0</asrwt>
<pdfrwt beam="1">  1       21 0.29921325E-03 0.87627786E+02</pdfrwt>
<pdfrwt beam="2">  1        2 0.57709429E+00 0.87627786E+02</pdfrwt>
<totfact> 0.23180411E+05</totfact>
</mgrwt>
</event>
<event>
 6    2  0.7993170E+000  0.8856007E+02  0.7546771E-02  0.1306377E+00
         21   -1    0    0  501  502  0.00000000000E+00  0.00000000000E+00  0.88448344997E+02  0.88448344997E+02  0.00000000000E+00 0.  1.
         -1   -1    0    0    0  501 -0.00000000000E+00 -0.00000000000E+00 -0.78889428510E+02  0.78889428510E+02  0.00000000000E+00 0.  1.
         24    2    1    2    0    0  0.32041841989E+02  0.58546998727E+00 -0.48537197413E+02  0.10098884086E+03  0.82558246302E+02 0.  0.
        -11    1    3    3    0    0  0.26805113492E+02 -0.39491260284E+01 -0.71786513118E+02  0.76729480458E+02  0.00000000000E+00 0.  1.
         12    1    3    3    0    0  0.52367284963E+01  0.45345960157E+01  0.23249315705E+02  0.24259360402E+02  0.00000000000E+00 0. -1.
         -2    1    1    2    0  502 -0.32041841989E+02 -0.58546998727E+00  0.58096113900E+02  0.66348932647E+02  0.00000000000E+00 0.  1.
<mgrwt>
<rscale>  1 0.88560073E+02</rscale>
<asrwt>0</asrwt>
<pdfrwt beam="1">  1       21 0.13607438E-01 0.88560073E+02</pdfrwt>
<pdfrwt beam="2">  1       -1 0.12136835E-01 0.88560073E+02</pdfrwt>
<totfact> 0.17951341E+05</totfact>
</mgrwt>
</event>
<event>
 6    2  0.7993170E+000  0.8758516E+02  0.7546771E-02  0.1308807E+00
         21   -1    0    0  501  502  0.00000000000E+00  0.00000000000E+00  0.97001796986E+01  0.97001796986E+01  0.00000000000E+00 0.  1.
          2   -1    0    0  502    0 -0.00000000000E+00 -0.00000000000E+00 -0.35600224834E+03  0.35600224834E+03  0.00000000000E+00 0. -1.
         24    2    1    2    0    0 -0.18048621358E+02  0.23892717990E+02 -0.25754293051E+03  0.27202852928E+03  0.82307624090E+02 0.  0.
        -13    1    3    3    0    0 -0.49462319300E+02  0.13907048644E+02 -0.19069289623E+03  0.19749356371E+03  0.00000000000E+00 0.  1.
         14    1    3    3    0    0  0.31413697941E+02  0.99856693461E+01 -0.66850034274E+02  0.74534965573E+02  0.00000000000E+00 0. -1.
          1    1    1    2  501    0  0.18048621358E+02 -0.23892717990E+02 -0.88759138134E+02  0.93673898756E+02  0.00000000000E+00 0. -1.
<mgrwt>
<rscale>  1 0.87585157E+02</rscale>
<asrwt>0</asrwt>
<pdfrwt beam="1">  1       21 0.14923355E-02 0.87585157E+02</pdfrwt>
<pdfrwt beam="2">  1        2 0.54769571E-01 0.87585157E+02</pdfrwt>
<totfact> 0.20588842E+06</totfact>
</mgrwt>
</event>
<event>
 6    2  0.7993170E+000  0.8525814E+02  0.7546771E-02  0.1314759E+00
         -3   -1    0    0    0  501 -0.00000000000E+00  0.00000000000E+00  0.21885560789E+03  0.21885560789E+03  0.00000000000E+00 0.  1.
         21   -1    0    0  501  502  0.00000000000E+00 -0.00000000000E+00 -0.28374130979E+02  0.28374130979E+02  0.00000000000E+00 0.  1.
         24    2    1    2    0    0  0.27077574986E+02 -0.89124012322E+01  0.19980687154E+03  0.21723659052E+03  0.80351256259E+02 0.  0.
        -11    1    3    3    0    0 -0.14363535445E+02 -0.32452477823E+02  0.10975690976E+03  0.11535186911E+03  0.00000000000E+00 0.  1.
         12    1    3    3    0    0  0.41441110431E+02  0.23540076591E+02  0.90049961786E+02  0.10188472141E+03  0.00000000000E+00 0. -1.
         -4    1    1    2    0  502 -0.27077574986E+02  0.89124012322E+01 -0.93253946311E+01  0.29993148349E+02  0.00000000000E+00 0.  1.
<mgrwt>
<rscale>  1 0.85258139E+02</rscale>
<asrwt>0</asrwt>
<pdfrwt beam="1">  1       21 0.43652511E-02 0.85258139E+02</pdfrwt>
<pdfrwt beam="2">  1       -3 0.33670092E-01 0.85258139E+02</pdfrwt>
<totfact> 0.13033580E+05</totfact>
</mgrwt>
</event>
<event>
 6    2  0.7993170E+000  0.9087689E+02  0.7546771E-02  0.1300742E+00
         21   -1    0    0  501  502  0.00000000000E+00  0.00000000000E+00  0.32928403448E+02  0.32928403448E+02  0.00000000000E+00 0.  1.
         -3   -1    0    0    0  501 -0.00000000000E+00 -0.00000000000E+00 -0.19902306953E+03  0.19902306953E+03  0.00000000000E+00 0.  1.
         24    2    1    2    0    0 -0.15462947693E+02 -0.36203756983E+02 -0.16961547536E+03  0.19242665964E+03  0.81907234661E+02 0.  0.
        -11    1    3    3    0    0  0.42304603801E+01 -0.46098064811E+02 -0.16295548716E+03  0.16940312621E+03  0.00000000000E+00 0.  1.
         12    1    3    3    0    0 -0.19693408073E+02  0.98943078278E+01 -0.66599881962E+01  0.23023533432E+02  0.00000000000E+00 0. -1.
         -4    1    1    2    0  502  0.15462947693E+02  0.36203756983E+02  0.35208092770E+01  0.39524813333E+02  0.00000000000E+00 0.  1.
<mgrwt>
<rscale>  1 0.90876894E+02</rscale>
<asrwt>0</asrwt>
<pdfrwt beam="1">  1       21 0.50659082E-02 0.90876894E+02</pdfrwt>
<pdfrwt beam="2">  1       -3 0.30618934E-01 0.90876894E+02</pdfrwt>
<totfact> 0.12251926E+05</totfact>
</mgrwt>
</event>
<event>
 6    2  0.7993170E+000  0.9214223E+02  0.7546771E-02  0.1297745E+00
          2   -1    0    0  502    0 -0.00000000000E+00  0.00000000000E+00  0.96371923134E+03  0.96371923134E+03  0.00000000000E+00 0. -1.
         21   -1    0    0  501  502  0.00000000000E+00 -0.00000000000E+00 -0.57042865073E+01  0.57042865073E+01  0.00000000000E+00 0.  1.
         24    2    1    2    0    0  0.23217726067E+02 -0.40389961363E+02  0.77960168783E+03  0.78502801341E+03  0.79497033828E+02 0.  0.
        -13    1    3    3    0    0  0.30120490082E+02 -0.50228459538E+02  0.32291698139E+03  0.32818519000E+03  0.00000000000E+00 0.  1.
         14    1    3    3    0    0 -0.69027640145E+01  0.98384981752E+01  0.45668470644E+03  0.45684282340E+03  0.00000000000E+00 0. -1.
          1    1    1    2  501    0 -0.23217726067E+02  0.40389961363E+02  0.17841325701E+03  0.18439550444E+03  0.00000000000E+00 0. -1.
<mgrwt>
<rscale>  1 0.92142228E+02</rscale>
<asrwt>0</asrwt>
<pdfrwt beam="1">  1       21 0.87758330E-03 0.92142228E+02</pdfrwt>
<pdfrwt beam="2">  1        2 0.14826437E+00 0.92142228E+02</pdfrwt>
<totfact> 0.15361570E+06</totfact>
</mgrwt>
</event>
<event>
 6    2  0.7993170E+000  0.9666511E+02  0.7546771E-02  0.1287469E+00
         -3   -1    0    0    0  501 -0.00000000000E+00  0.00000000000E+00  0.39686162340E+02  0.39686162340E+02  0.00000000000E+00 0.  1.
         21   -1    0    0  501  502  0.00000000000E+00 -0.00000000000E+00 -0.12202304235E+03  0.12202304235E+03  0.00000000000E+00 0. -1.
         24    2    1    2    0    0  0.42342599284E+02 -0.34707039177E+01 -0.55691195310E+02  0.11156008692E+03  0.86828579735E+02 0.  0.
        -11    1    3    3    0    0  0.38453996544E+02  0.94134553303E+01  0.12917760488E+02  0.41643625293E+02  0.00000000000E+00 0.  1.
         12    1    3    3    0    0  0.38886027399E+01 -0.12884159248E+02 -0.68608955799E+02  0.69916461628E+02  0.00000000000E+00 0. -1.
         -4    1    1    2    0  502 -0.42342599284E+02  0.34707039177E+01 -0.26645684700E+02  0.50149117769E+02  0.00000000000E+00 0.  1.
<mgrwt>
<rscale>  1 0.96665111E+02</rscale>
<asrwt>0</asrwt>
<pdfrwt beam="1">  1       21 0.18772775E-01 0.96665111E+02</pdfrwt>
<pdfrwt beam="2">  1       -3 0.61055636E-02 0.96665111E+02</pdfrwt>
<totfact> 0.19448828E+05</totfact>
</mgrwt>
</event>
<event>
 6    2  0.7993170E+000  0.1031251E+03  0.7546771E-02  0.1273858E+00
         21   -1    0    0  501  502  0.00000000000E+00  0.00000000000E+00  0.38433498994E+03  0.38433498994E+03  0.00000000000E+00 0. -1.
         -1   -1    0    0    0  501 -0.00000000000E+00 -0.00000000000E+00 -0.13876609132E+02  0.13876609132E+02  0.00000000000E+00 0.  1.
         24    2    1    2    0    0  0.86318827504E+01 -0.29228417691E+02  0.19970295228E+03  0.22475778339E+03  0.98518943599E+02 0.  0.
        -13    1    3    3    0    0  0.61562861365E+01  0.35533883717E+02  0.50192863925E+02  0.61805180527E+02  0.00000000000E+00 0.  1.
         14    1    3    3    0    0  0.24755966138E+01 -0.64762301408E+02  0.14951008835E+03  0.16295260287E+03  0.00000000000E+00 0. -1.
         -2    1    1    2    0  502 -0.86318827504E+01  0.29228417691E+02  0.17075542854E+03  0.17345381568E+03  0.00000000000E+00 0.  1.
<mgrwt>
<rscale>  1 0.10312513E+03</rscale>
<asrwt>0</asrwt>
<pdfrwt beam="1">  1       21 0.59128452E-01 0.10312513E+03</pdfrwt>
<pdfrwt beam="2">  1       -1 0.21348632E-02 0.10312513E+03</pdfrwt>
<totfact> 0.14086087E+05</totfact>
</mgrwt>
</event>
<event>
 6    2  0.7993170E+000  0.8907334E+02  0.7546771E-02  0.1305111E+00
          2   -1    0    0  502    0 -0.00000000000E+00  0.00000000000E+00  0.11299269638E+04  0.11299269638E+04  0.00000000000E+00 0. -1.
         21   -1    0    0  501  502  0.00000000000E+00 -0.00000000000E+00 -0.46610435717E+01  0.46610435717E+01  0.00000000000E+00 0.  1.
         24    2    1    2    0    0  0.18834593618E+02 -0.33349979526E+02  0.48055432344E+03  0.48873972326E+03  0.80418258303E+02 0.  0.
        -11    1    3    3    0    0  0.32761625926E+02 -0.29175866504E+02  0.11795235894E+03  0.12584639168E+03  0.00000000000E+00 0.  1.
         12    1    3    3    0    0 -0.13927032308E+02 -0.41741130213E+01  0.36260196450E+03  0.36289333159E+03  0.00000000000E+00 0. -1.
          1    1    1    2  501    0 -0.18834593618E+02  0.33349979526E+02  0.64471159683E+03  0.64584828415E+03  0.00000000000E+00 0. -1.
<mgrwt>
<rscale>  1 0.89073337E+02</rscale>
<asrwt>0</asrwt>
<pdfrwt beam="1">  1       21 0.71708453E-03 0.89073337E+02</pdfrwt>
<pdfrwt beam="2">  1        2 0.17383470E+00 0.89073337E+02</pdfrwt>
<totfact> 0.16818684E+06</totfact>
</mgrwt>
</event>
<event>
 6    2  0.7993170E+000  0.1001188E+03  0.7546771E-02  0.1280046E+00
          2   -1    0    0  502    0 -0.00000000000E+00  0.00000000000E+00  0.42949485600E+03  0.42949485600E+03  0.00000000000E+00 0. -1.
         21   -1    0    0  501  502  0.00000000000E+00 -0.00000000000E+00 -0.34907897486E+02  0.34907897486E+02  0.00000000000E+00 0.  1.
         24    2    1    2    0    0  0.13426915658E+02 -0.57533816915E+02  0.44840716992E+02  0.10970167425E+03  0.80829111586E+02 0.  0.
        -13    1    3    3    0    0 -0.21722729682E+02 -0.11108129202E+02 -0.12983627876E+02  0.27637693681E+02  0.00000000000E+00 0.  1.
         14    1    3    3    0    0  0.35149645340E+02 -0.46425687714E+02  0.57824344868E+02  0.82063980568E+02  0.00000000000E+00 0. -1.
          1    1    1    2  501    0 -0.13426915658E+02  0.57533816915E+02  0.34974624153E+03  0.35470107924E+03  0.00000000000E+00 0. -1.
<mgrwt>
<rscale>  1 0.10011877E+03</rscale>
<asrwt>0</asrwt>
<pdfrwt beam="1">  1       21 0.53704461E-02 0.10011877E+03</pdfrwt>
<pdfrwt beam="2">  1        2 0.66076128E-01 0.10011877E+03</pdfrwt>
<totfact> 0.21338149E+05</totfact>
</mgrwt>
</event>
<event>
 6    2  0.7993170E+000  0.8860741E+02  0.7546771E-02  0.1306260E+00
          2   -1    0    0  502    0 -0.00000000000E+00  0.00000000000E+00  0.23047318045E+03  0.23047318045E+03  0.00000000000E+00 0. -1.
         21   -1    0    0  501  502  0.00000000000E+00 -0.00000000000E+00 -0.44813417799E+02  0.44813417799E+02  0.00000000000E+00 0. -1.
         24    2    1    2    0    0 -0.18252034333E+02 -0.31462012556E+02  0.21240043557E+03  0.23014173608E+03  0.80797764005E+02 0.  0.
        -11    1    3    3    0    0  0.95538732849E+01  0.72740280832E+01 -0.44947177386E+00  0.12016239186E+02  0.00000000000E+00 0.  1.
         12    1    3    3    0    0 -0.27805907618E+02 -0.38736040639E+02  0.21284990734E+03  0.21812549690E+03  0.00000000000E+00 0. -1.
          1    1    1    2  501    0  0.18252034333E+02  0.31462012556E+02 -0.26740672919E+02  0.45144862160E+02  0.00000000000E+00 0. -1.
<mgrwt>
<rscale>  1 0.88607413E+02</rscale>
<asrwt>0</asrwt>
<pdfrwt beam="1">  1       21 0.68943721E-02 0.88607413E+02</pdfrwt>
<pdfrwt beam="2">  1        2 0.35457412E-01 0.88607413E+02</pdfrwt>
<totfact> 0.26742233E+05</totfact>
</mgrwt>
</event>
<event>
 6    2  0.7993170E+000  0.6442755E+02  0.7546771E-02  0.1380138E+00
          4   -1    0    0  502    0 -0.00000000000E+00  0.00000000000E+00  0.23968688428E+02  0.23968688428E+02  0.00000000000E+00 0. -1.
         21   -1    0    0  501  502  0.00000000000E+00 -0.00000000000E+00 -0.10255901159E+03  0.10255901159E+03  0.00000000000E+00 0.  1.
         24    2    1    2    0    0 -0.15655594116E+02  0.17365972446E+02 -0.26942713680E+02  0.69834224279E+02  0.60035276580E+02 0.  0.
        -11    1    3    3    0    0 -0.16669067341E+02  0.39882447737E+01 -0.44529654747E+02  0.47714296120E+02  0.00000000000E+00 0.  1.
         12    1    3    3    0    0  0.10134732254E+01  0.13377727672E+02  0.17586941066E+02  0.22119928158E+02  0.00000000000E+00 0. -1.
          3    1    1    2  501    0  0.15655594116E+02 -0.17365972446E+02 -0.51647609478E+02  0.56693475735E+02  0.00000000000E+00 0. -1.
<mgrwt>
<rscale>  1 0.64427549E+02</rscale>
<asrwt>0</asrwt>
<pdfrwt beam="1">  1       21 0.15778309E-01 0.64427549E+02</pdfrwt>
<pdfrwt beam="2">  1        4 0.36874906E-02 0.64427549E+02</pdfrwt>
<totfact> 0.47974185E+05</totfact>
</mgrwt>
</event>
<event>
 6    2  0.7993170E+000  0.8139504E+02  0.7546771E-02  0.1325138E+00
         21   -1    0    0  501  502  0.00000000000E+00  0.00000000000E+00  0.26921518791E+03  0.26921518791E+03  0.00000000000E+00 0. -1.
         -1   -1    0    0    0  501 -0.00000000000E+00 -0.00000000000E+00 -0.97163005121E+01  0.97163005121E+01  0.00000000000E+00 0.  1.
         24    2    1    2    0    0 -0.14292954268E+02 -0.15218618082E+02  0.20849976257E+03  0.22382426919E+03  0.78671834919E+02 0.  0.
        -13    1    3    3    0    0 -0.32414696403E+02  0.30928997268E+01  0.32701424627E+02  0.46148258302E+02  0.00000000000E+00 0.  1.
         14    1    3    3    0    0  0.18121742135E+02 -0.18311517809E+02  0.17579833794E+03  0.17767601089E+03  0.00000000000E+00 0. -1.
         -2    1    1    2    0  502  0.14292954268E+02  0.15218618082E+02  0.50999124829E+02  0.55107219231E+02  0.00000000000E+00 0.  1.
<mgrwt>
<rscale>  1 0.81395040E+02</rscale>
<asrwt>0</asrwt>
<pdfrwt beam="1">  1       21 0.41417716E-01 0.81395040E+02</pdfrwt>
<pdfrwt beam="2">  1       -1 0.14948157E-02 0.81395040E+02</pdfrwt>
<totfact> 0.47396395E+05</totfact>
</mgrwt>
</event>
<event>
 6    2  0.7993170E+000  0.1516832E+03  0.7546771E-02  0.1198420E+00
         21   -1    0    0  501  502  0.00000000000E+00  0.00000000000E+00  0.87327986396E+03  0.87327986396E+03  0.00000000000E+00 0.  1.
         -1   -1    0    0    0  501 -0.00000000000E+00 -0.00000000000E+00 -0.22880567434E+02  0.22880567434E+02  0.00000000000E+00 0.  1.
         24    2    1    2    0    0 -0.60618922948E+02  0.11415104283E+03  0.40871588876E+03  0.43595466535E+03  0.79389408110E+02 0.  0.
        -11    1    3    3    0    0 -0.38879167111E+02  0.11756260964E+03  0.38069040347E+03  0.40032204550E+03  0.00000000000E+00 0.  1.
         12    1    3    3    0    0 -0.21739755837E+02 -0.34115668006E+01  0.28025485286E+02  0.35632619851E+02  0.00000000000E+00 0. -1.
         -2    1    1    2    0  502  0.60618922948E+02 -0.11415104283E+03  0.44168340777E+03  0.46020576604E+03  0.00000000000E+00 0.  1.
<mgrwt>
<rscale>  1 0.15168320E+03</rscale>
<asrwt>0</asrwt>
<pdfrwt beam="1">  1       21 0.13435072E+00 0.15168320E+03</pdfrwt>
<pdfrwt beam="2">  1       -1 0.35200880E-02 0.15168320E+03</pdfrwt>
<totfact> 0.10488501E+04</totfact>
</mgrwt>
</event>
<event>
 6    2  0.7993170E+000  0.8291484E+02  0.7546771E-02  0.1320977E+00
          2   -1    0    0  502    0 -0.00000000000E+00  0.00000000000E+00  0.16303307395E+04  0.16303307395E+04  0.00000000000E+00 0. -1.
         21   -1    0    0  501  502  0.00000000000E+00 -0.00000000000E+00 -0.42509840951E+01  0.42509840951E+01  0.00000000000E+00 0. -1.
         24    2    1    2    0    0  0.65383647001E+01  0.27995468561E+02  0.15636918163E+04  0.15658885549E+04  0.77771290938E+02 0.  0.
        -13    1    3    3    0    0  0.20523539475E+02  0.32915238895E+02  0.35621718700E+03  0.35832291712E+03  0.00000000000E+00 0.  1.
         14    1    3    3    0    0 -0.13985174775E+02 -0.49197703342E+01  0.12074746293E+04  0.12075656378E+04  0.00000000000E+00 0. -1.
          1    1    1    2  501    0 -0.65383647001E+01 -0.27995468561E+02  0.62387939142E+02  0.68693168680E+02  0.00000000000E+00 0. -1.
<mgrwt>
<rscale>  1 0.82914837E+02</rscale>
<asrwt>0</asrwt>
<pdfrwt beam="1">  1       21 0.65399886E-03 0.82914837E+02</pdfrwt>
<pdfrwt beam="2">  1        2 0.25081961E+00 0.82914837E+02</pdfrwt>
<totfact> 0.10566451E+06</totfact>
</mgrwt>
</event>
<event>
 6    2  0.7993170E+000  0.8764438E+02  0.7546771E-02  0.1308659E+00
         -3   -1    0    0    0  501 -0.00000000000E+00  0.00000000000E+00  0.58183481223E+03  0.58183481223E+03  0.00000000000E+00 0.  1.
         21   -1    0    0  501  502  0.00000000000E+00 -0.00000000000E+00 -0.79509016606E+01  0.79509016606E+01  0.00000000000E+00 0. -1.
         24    2    1    2    0    0  0.16094342439E+02  0.35531346439E+02  0.48295851831E+03  0.49084668521E+03  0.78485881131E+02 0.  0.
        -11    1    3    3    0    0  0.26131614655E+02  0.37784867173E+02  0.47647981842E+03  0.47868943464E+03  0.00000000000E+00 0.  1.
         12    1    3    3    0    0 -0.10037272215E+02 -0.22535207339E+01  0.64786998857E+01  0.12157250570E+02  0.00000000000E+00 0. -1.
         -4    1    1    2    0  502 -0.16094342439E+02 -0.35531346439E+02  0.90925392259E+02  0.98939028678E+02  0.00000000000E+00 0.  1.
<mgrwt>
<rscale>  1 0.87644384E+02</rscale>
<asrwt>0</asrwt>
<pdfrwt beam="1">  1       21 0.12232161E-02 0.87644384E+02</pdfrwt>
<pdfrwt beam="2">  1       -3 0.89513015E-01 0.87644384E+02</pdfrwt>
<totfact> 0.14137977E+05</totfact>
</mgrwt>
</event>
<event>
 6    2  0.7993170E+000  0.9232195E+02  0.7546771E-02  0.1297324E+00
          2   -1    0    0  502    0 -0.00000000000E+00  0.00000000000E+00  0.32521235768E+03  0.32521235768E+03  0.00000000000E+00 0. -1.
         21   -1    0    0  501  502  0.00000000000E+00 -0.00000000000E+00 -0.41021051713E+02  0.41021051713E+02  0.00000000000E+00 0. -1.
         24    2    1    2    0    0  0.25461166190E+02 -0.34789683054E+02  0.30478149541E+03  0.31845738055E+03  0.81637921634E+02 0.  0.
        -11    1    3    3    0    0 -0.97563587252E+01  0.22798259168E+02  0.78912618569E+02  0.82717280698E+02  0.00000000000E+00 0.  1.
         12    1    3    3    0    0  0.35217524915E+02 -0.57587942223E+02  0.22586887684E+03  0.23574009985E+03  0.00000000000E+00 0. -1.
          1    1    1    2  501    0 -0.25461166190E+02  0.34789683054E+02 -0.20590189446E+02  0.47776028845E+02  0.00000000000E+00 0. -1.
<mgrwt>
<rscale>  1 0.92321954E+02</rscale>
<asrwt>0</asrwt>
<pdfrwt beam="1">  1       21 0.63109312E-02 0.92321954E+02</pdfrwt>
<pdfrwt beam="2">  1        2 0.50032669E-01 0.92321954E+02</pdfrwt>
<totfact> 0.21704890E+05</totfact>
</mgrwt>
</event>
<event>
 6    2  0.7993170E+000  0.8769130E+02  0.7546771E-02  0.1308541E+00
          2   -1    0    0  502    0 -0.00000000000E+00  0.00000000000E+00  0.94338949844E+03  0.94338949844E+03  0.00000000000E+00 0. -1.
         21   -1    0    0  501  502  0.00000000000E+00 -0.00000000000E+00 -0.38406674474E+01  0.38406674474E+01  0.00000000000E+00 0.  1.
         24    2    1    2    0    0  0.29072829256E+02 -0.13892792153E+02  0.72263208558E+03  0.72793330427E+03  0.81556883716E+02 0.  0.
        -13    1    3    3    0    0 -0.45369821578E+00 -0.97882249098E+01  0.79185798234E+01  0.12598376696E+02  0.00000000000E+00 0.  1.
         14    1    3    3    0    0  0.29526527472E+02 -0.41045672428E+01  0.71471350576E+03  0.71533492757E+03  0.00000000000E+00 0. -1.
          1    1    1    2  501    0 -0.29072829256E+02  0.13892792153E+02  0.21691674541E+03  0.21929686162E+03  0.00000000000E+00 0. -1.
<mgrwt>
<rscale>  1 0.87691301E+02</rscale>
<asrwt>0</asrwt>
<pdfrwt beam="1">  1       21 0.59087267E-03 0.87691301E+02</pdfrwt>
<pdfrwt beam="2">  1        2 0.14513666E+00 0.87691301E+02</pdfrwt>
<totfact> 0.28999902E+06</totfact>
</mgrwt>
</event>
<event>
 6    2  0.7993170E+000  0.8516983E+02  0.7546771E-02  0.1314989E+00
         -1   -1    0    0    0  501 -0.00000000000E+00  0.00000000000E+00  0.12264318010E+03  0.12264318010E+03  0.00000000000E+00 0.  1.
         21   -1    0    0  501  502  0.00000000000E+00 -0.00000000000E+00 -0.28135052848E+02  0.28135052848E+02  0.00000000000E+00 0. -1.
         24    2    1    2    0    0  0.10924453866E+02  0.26907394433E+02  0.84724826124E+02  0.12013407284E+03  0.80065896163E+02 0.  0.
        -13    1    3    3    0    0 -0.29605733816E+02  0.29977015237E+02  0.28948976617E+02  0.51119117407E+02  0.00000000000E+00 0.  1.
         14    1    3    3    0    0  0.40530187682E+02 -0.30696208040E+01  0.55775849507E+02  0.69014955435E+02  0.00000000000E+00 0. -1.
         -2    1    1    2    0  502 -0.10924453866E+02 -0.26907394433E+02  0.97833011244E+01  0.30644160102E+02  0.00000000000E+00 0.  1.
<mgrwt>
<rscale>  1 0.85169826E+02</rscale>
<asrwt>0</asrwt>
<pdfrwt beam="1">  1       21 0.43284697E-02 0.85169826E+02</pdfrwt>
<pdfrwt beam="2">  1       -1 0.18868181E-01 0.85169826E+02</pdfrwt>
<totfact> 0.63586690E+05</totfact>
</mgrwt>
</event>
<event>
 6    2  0.7993170E+000  0.8717106E+02  0.7546771E-02  0.1309851E+00
         -1   -1    0    0    0  501 -0.00000000000E+00  0.00000000000E+00  0.20191632992E+03  0.20191632992E+03  0.00000000000E+00 0.  1.
         21   -1    0    0  501  502  0.00000000000E+00 -0.00000000000E+00 -0.15443954244E+02  0.15443954244E+02  0.00000000000E+00 0. -1.
         24    2    1    2    0    0  0.28717872707E+01  0.24288066754E+02  0.14269828414E+03  0.16721720450E+03  0.83669802404E+02 0.  0.
        -13    1    3    3    0    0  0.33476052612E+02 -0.15072461863E+02  0.70342568279E+02  0.79346720897E+02  0.00000000000E+00 0.  1.
         14    1    3    3    0    0 -0.30604265342E+02  0.39360528617E+02  0.72355715861E+02  0.87870483599E+02  0.00000000000E+00 0. -1.
         -2    1    1    2    0  502 -0.28717872707E+01 -0.24288066754E+02  0.43774091533E+02  0.50143079665E+02  0.00000000000E+00 0.  1.
<mgrwt>
<rscale>  1 0.87171057E+02</rscale>
<asrwt>0</asrwt>
<pdfrwt beam="1">  1       21 0.23759931E-02 0.87171057E+02</pdfrwt>
<pdfrwt beam="2">  1       -1 0.31064049E-01 0.87171057E+02</pdfrwt>
<totfact> 0.75552105E+05</totfact>
</mgrwt>
</event>
<event>
 6    2  0.7993170E+000  0.9335669E+02  0.7546771E-02  0.1294921E+00
          2   -1    0    0  502    0 -0.00000000000E+00  0.00000000000E+00  0.45361931039E+02  0.45361931039E+02  0.00000000000E+00 0. -1.
         21   -1    0    0  501  502  0.00000000000E+00 -0.00000000000E+00 -0.12635386777E+03  0.12635386777E+03  0.00000000000E+00 0. -1.
         24    2    1    2    0    0 -0.41734935123E+02  0.24261309568E+02 -0.22788179156E+02  0.96097723275E+02  0.79906541395E+02 0.  0.
        -13    1    3    3    0    0  0.19728254452E+02 -0.98330405754E+01  0.51556799159E+00  0.22049002722E+02  0.00000000000E+00 0.  1.
         14    1    3    3    0    0 -0.61463189575E+02  0.34094350143E+02 -0.23303747147E+02  0.74048720553E+02  0.00000000000E+00 0. -1.
          1    1    1    2  501    0  0.41734935123E+02 -0.24261309568E+02 -0.58203757572E+02  0.75618075532E+02  0.00000000000E+00 0. -1.
<mgrwt>
<rscale>  1 0.93356689E+02</rscale>
<asrwt>0</asrwt>
<pdfrwt beam="1">  1       21 0.19439056E-01 0.93356689E+02</pdfrwt>
<pdfrwt beam="2">  1        2 0.69787587E-02 0.93356689E+02</pdfrwt>
<totfact> 0.28330534E+05</totfact>
</mgrwt>
</event>
<event>
 6    2  0.7993170E+000  0.8843053E+02  0.7546771E-02  0.1306698E+00
          2   -1    0    0  502    0 -0.00000000000E+00  0.00000000000E+00  0.42128460940E+04  0.42128460940E+04  0.00000000000E+00 0. -1.
         21   -1    0    0  501  502  0.00000000000E+00 -0.00000000000E+00 -0.10265231207E+01  0.10265231207E+01  0.00000000000E+00 0.  1.
         24    2    1    2    0    0  0.26330325917E+02  0.26695956069E+02  0.23261335652E+04  0.23278138502E+04  0.80087440090E+02 0.  0.
        -13    1    3    3    0    0  0.39454829125E+02  0.42188879011E+02  0.11027627728E+04  0.11042745664E+04  0.00000000000E+00 0.  1.
         14    1    3    3    0    0 -0.13124503208E+02 -0.15492922942E+02  0.12233707924E+04  0.12235392838E+04  0.00000000000E+00 0. -1.
          1    1    1    2  501    0 -0.26330325917E+02 -0.26695956069E+02  0.18856860057E+04  0.18860587669E+04  0.00000000000E+00 0. -1.
<mgrwt>
<rscale>  1 0.88430527E+02</rscale>
<asrwt>0</asrwt>
<pdfrwt beam="1">  1       21 0.15793001E-03 0.88430527E+02</pdfrwt>
<pdfrwt beam="2">  1        2 0.64811633E+00 0.88430527E+02</pdfrwt>
<totfact> 0.27637961E+05</totfact>
</mgrwt>
</event>
<event>
 6    2  0.7993170E+000  0.8435732E+02  0.7546771E-02  0.1317122E+00
          2   -1    0    0  502    0 -0.00000000000E+00  0.00000000000E+00  0.14722418611E+03  0.14722418611E+03  0.00000000000E+00 0. -1.
         21   -1    0    0  501  502  0.00000000000E+00 -0.00000000000E+00 -0.25253230577E+02  0.25253230577E+02  0.00000000000E+00 0. -1.
         24    2    1    2    0    0  0.39678603085E+01 -0.25811165863E+02  0.11946024276E+03  0.14624263296E+03  0.80213452087E+02 0.  0.
        -11    1    3    3    0    0 -0.19498269078E+02 -0.43698341202E+02  0.43175486031E+02  0.64450369393E+02  0.00000000000E+00 0.  1.
         12    1    3    3    0    0  0.23466129387E+02  0.17887175338E+02  0.76284756732E+02  0.81792263568E+02  0.00000000000E+00 0. -1.
          1    1    1    2  501    0 -0.39678603085E+01  0.25811165863E+02  0.25107127720E+01  0.26234783728E+02  0.00000000000E+00 0. -1.
<mgrwt>
<rscale>  1 0.84357324E+02</rscale>
<asrwt>0</asrwt>
<pdfrwt beam="1">  1       21 0.38851125E-02 0.84357324E+02</pdfrwt>
<pdfrwt beam="2">  1        2 0.22649874E-01 0.84357324E+02</pdfrwt>
<totfact> 0.11200623E+06</totfact>
</mgrwt>
</event>
<event>
 6    2  0.7993170E+000  0.1124139E+03  0.7546771E-02  0.1256164E+00
         21   -1    0    0  501  502  0.00000000000E+00  0.00000000000E+00  0.81744188072E+01  0.81744188072E+01  0.00000000000E+00 0.  1.
          2   -1    0    0  502    0 -0.00000000000E+00 -0.00000000000E+00 -0.54798079092E+03  0.54798079092E+03  0.00000000000E+00 0. -1.
         24    2    1    2    0    0  0.96592659431E+01 -0.18653145002E+02 -0.47002116551E+03  0.48327711770E+03  0.11043385001E+03 0.  0.
        -11    1    3    3    0    0 -0.12842109943E+02 -0.41890934459E+02 -0.74454110943E+02  0.86389726322E+02  0.00000000000E+00 0.  1.
         12    1    3    3    0    0  0.22501375886E+02  0.23237789457E+02 -0.39556705457E+03  0.39688739138E+03  0.00000000000E+00 0. -1.
          1    1    1    2  501    0 -0.96592659431E+01  0.18653145002E+02 -0.69785206597E+02  0.72878092022E+02  0.00000000000E+00 0. -1.
<mgrwt>
<rscale>  1 0.11241386E+03</rscale>
<asrwt>0</asrwt>
<pdfrwt beam="1">  1       21 0.12576028E-02 0.11241386E+03</pdfrwt>
<pdfrwt beam="2">  1        2 0.84304746E-01 0.11241386E+03</pdfrwt>
<totfact> 0.17484064E+06</totfact>
</mgrwt>
</event>
<event>
 6    2  0.7993170E+000  0.8490015E+02  0.7546771E-02  0.1315694E+00
         21   -1    0    0  501  502  0.00000000000E+00  0.00000000000E+00  0.47730798407E+01  0.47730798407E+01  0.00000000000E+00 0.  1.
          2   -1    0    0  502    0 -0.00000000000E+00 -0.00000000000E+00 -0.70835256625E+03  0.70835256625E+03  0.00000000000E+00 0. -1.
         24    2    1    2    0    0 -0.20210257692E+02  0.13642009235E+02 -0.62793053132E+03  0.63364405490E+03  0.81323288273E+02 0.  0.
        -13    1    3    3    0    0  0.55920787445E+01  0.42888261227E+02 -0.25078753529E+03  0.25448980756E+03  0.00000000000E+00 0.  1.
         14    1    3    3    0    0 -0.25802336437E+02 -0.29246251992E+02 -0.37714299603E+03  0.37915424734E+03  0.00000000000E+00 0. -1.
          1    1    1    2  501    0  0.20210257692E+02 -0.13642009235E+02 -0.75648955089E+02  0.79481591190E+02  0.00000000000E+00 0. -1.
<mgrwt>
<rscale>  1 0.84900154E+02</rscale>
<asrwt>0</asrwt>
<pdfrwt beam="1">  1       21 0.73432069E-03 0.84900154E+02</pdfrwt>
<pdfrwt beam="2">  1        2 0.10897721E+00 0.84900154E+02</pdfrwt>
<totfact> 0.29412227E+06</totfact>
</mgrwt>
</event>
<event>
 6    2  0.7993170E+000  0.8769741E+02  0.7546771E-02  0.1308526E+00
         21   -1    0    0  501  502  0.00000000000E+00  0.00000000000E+00  0.93648358417E+01  0.93648358417E+01  0.00000000000E+00 0. -1.
          2   -1    0    0  502    0 -0.00000000000E+00 -0.00000000000E+00 -0.12055231291E+04  0.12055231291E+04  0.00000000000E+00 0. -1.
         24    2    1    2    0    0 -0.36219287567E+02  0.24467572231E+02 -0.11416767038E+04  0.11450399694E+04  0.76028526189E+02 0.  0.
        -13    1    3    3    0    0 -0.15551763239E+02  0.35761134376E+02 -0.24751427444E+03  0.25056742031E+03  0.00000000000E+00 0.  1.
         14    1    3    3    0    0 -0.20667524328E+02 -0.11293562145E+02 -0.89416242933E+03  0.89447254912E+03  0.00000000000E+00 0. -1.
          1    1    1    2  501    0  0.36219287567E+02 -0.24467572231E+02 -0.54481589485E+02  0.69847995501E+02  0.00000000000E+00 0. -1.
<mgrwt>
<rscale>  1 0.87697410E+02</rscale>
<asrwt>0</asrwt>
<pdfrwt beam="1">  1       21 0.14407437E-02 0.87697410E+02</pdfrwt>
<pdfrwt beam="2">  1        2 0.18546514E+00 0.87697410E+02</pdfrwt>
<totfact> 0.51314839E+05</totfact>
</mgrwt>
</event>
<event>
 6    2  0.7993170E+000  0.8473078E+02  0.7546771E-02  0.1316138E+00
         21   -1    0    0  501  502  0.00000000000E+00  0.00000000000E+00  0.30478067408E+03  0.30478067408E+03  0.00000000000E+00 0.  1.
          4   -1    0    0  502    0 -0.00000000000E+00 -0.00000000000E+00 -0.19288562719E+02  0.19288562719E+02  0.00000000000E+00 0. -1.
         24    2    1    2    0    0 -0.73005904746E+01 -0.26312717616E+02  0.28438598212E+03  0.29674010854E+03  0.80210020954E+02 0.  0.
        -13    1    3    3    0    0 -0.23343962443E+02 -0.50068589437E+02  0.16678791718E+03  0.17569864412E+03  0.00000000000E+00 0.  1.
         14    1    3    3    0    0  0.16043371969E+02  0.23755871821E+02  0.11759806494E+03  0.12104146442E+03  0.00000000000E+00 0. -1.
          3    1    1    2  501    0  0.73005904746E+01  0.26312717616E+02  0.11061292458E+01  0.27329128261E+02  0.00000000000E+00 0. -1.
<mgrwt>
<rscale>  1 0.84730781E+02</rscale>
<asrwt>0</asrwt>
<pdfrwt beam="1">  1       21 0.46889331E-01 0.84730781E+02</pdfrwt>
<pdfrwt beam="2">  1        4 0.29674714E-02 0.84730781E+02</pdfrwt>
<totfact> 0.90983661E+04</totfact>
</mgrwt>
</event>
<event>
 6    2  0.7993170E+000  0.1159392E+03  0.7546771E-02  0.1249950E+00
         21   -1    0    0  501  502  0.00000000000E+00  0.00000000000E+00  0.17329198652E+03  0.17329198652E+03  0.00000000000E+00 0.  1.
         -1   -1    0    0    0  501 -0.00000000000E+00 -0.00000000000E+00 -0.45141704856E+03  0.45141704856E+03  0.00000000000E+00 0.  1.
         24    2    1    2    0    0 -0.81386129649E+01 -0.84125721579E+02 -0.43301083675E+03  0.44826364052E+03  0.79363295127E+02 0.  0.
        -11    1    3    3    0    0 -0.96023621981E+01 -0.99752678464E+02 -0.37079905648E+03  0.38410251562E+03  0.00000000000E+00 0.  1.
         12    1    3    3    0    0  0.14637492332E+01  0.15626956885E+02 -0.62211780274E+02  0.64161124898E+02  0.00000000000E+00 0. -1.
         -2    1    1    2    0  502  0.81386129649E+01  0.84125721579E+02  0.15488577471E+03  0.17644539455E+03  0.00000000000E+00 0.  1.
<mgrwt>
<rscale>  1 0.11593924E+03</rscale>
<asrwt>0</asrwt>
<pdfrwt beam="1">  1       21 0.26660306E-01 0.11593924E+03</pdfrwt>
<pdfrwt beam="2">  1       -1 0.69448776E-01 0.11593924E+03</pdfrwt>
<totfact> 0.27799468E+03</totfact>
</mgrwt>
</event>
<event>
 6    2  0.7993170E+000  0.1026968E+03  0.7546771E-02  0.1274725E+00
          2   -1    0    0  502    0 -0.00000000000E+00  0.00000000000E+00  0.64205932962E+02  0.64205932962E+02  0.00000000000E+00 0. -1.
         21   -1    0    0  501  502  0.00000000000E+00 -0.00000000000E+00 -0.13741991656E+03  0.13741991656E+03  0.00000000000E+00 0.  1.
         24    2    1    2    0    0  0.17879966668E+02  0.58403320070E+02 -0.91837534949E+02  0.13777071920E+03  0.82559053049E+02 0.  0.
        -11    1    3    3    0    0 -0.41256379189E+01  0.49828457817E+02 -0.10079281641E+03  0.11251261234E+03  0.00000000000E+00 0.  1.
         12    1    3    3    0    0  0.22005604587E+02  0.85748622536E+01  0.89552814614E+01  0.25258106856E+02  0.00000000000E+00 0. -1.
          1    1    1    2  501    0 -0.17879966668E+02 -0.58403320070E+02  0.18623551352E+02  0.63855130321E+02  0.00000000000E+00 0. -1.
<mgrwt>
<rscale>  1 0.10269683E+03</rscale>
<asrwt>0</asrwt>
<pdfrwt beam="1">  1       21 0.21141525E-01 0.10269683E+03</pdfrwt>
<pdfrwt beam="2">  1        2 0.98778360E-02 0.10269683E+03</pdfrwt>
<totfact> 0.15894588E+05</totfact>
</mgrwt>
</event>
<event>
 6    2  0.7993170E+000  0.9831042E+02  0.7546771E-02  0.1283890E+00
         21   -1    0    0  501  502  0.00000000000E+00  0.00000000000E+00  0.36900665029E+02  0.36900665029E+02  0.00000000000E+00 0.  1.
         -1   -1    0    0    0  501 -0.00000000000E+00 -0.00000000000E+00 -0.16463340912E+03  0.16463340912E+03  0.00000000000E+00 0.  1.
         24    2    1    2    0    0  0.46549844748E+02  0.31513253299E+02 -0.93758295599E+02  0.13585122761E+03  0.80653362414E+02 0.  0.
        -11    1    3    3    0    0  0.57189076344E+02 -0.59867934143E+01 -0.68353865405E+02  0.89323474318E+02  0.00000000000E+00 0.  1.
         12    1    3    3    0    0 -0.10639231596E+02  0.37500046713E+02 -0.25404430194E+02  0.46527753287E+02  0.00000000000E+00 0. -1.
         -2    1    1    2    0  502 -0.46549844748E+02 -0.31513253299E+02 -0.33974448487E+02  0.65682846539E+02  0.00000000000E+00 0.  1.
<mgrwt>
<rscale>  1 0.98310417E+02</rscale>
<asrwt>0</asrwt>
<pdfrwt beam="1">  1       21 0.56770253E-02 0.98310417E+02</pdfrwt>
<pdfrwt beam="2">  1       -1 0.25328217E-01 0.98310417E+02</pdfrwt>
<totfact> 0.25622934E+05</totfact>
</mgrwt>
</event>
<event>
 6    2  0.7993170E+000  0.8211074E+02  0.7546771E-02  0.1323166E+00
          2   -1    0    0  502    0 -0.00000000000E+00  0.00000000000E+00  0.49850695319E+03  0.49850695319E+03  0.00000000000E+00 0. -1.
         21   -1    0    0  501  502  0.00000000000E+00 -0.00000000000E+00 -0.86878267237E+01  0.86878267237E+01  0.00000000000E+00 0.  1.
         24    2    1    2    0    0  0.88035072969E+01 -0.20598120733E+02  0.47050902670E+03  0.47762005639E+03  0.78996137512E+02 0.  0.
        -13    1    3    3    0    0 -0.21522789274E+01 -0.11794929545E+02  0.69708482621E+01  0.13868864159E+02  0.00000000000E+00 0.  1.
         14    1    3    3    0    0  0.10955786224E+02 -0.88031911875E+01  0.46353817844E+03  0.46375119224E+03  0.00000000000E+00 0. -1.
          1    1    1    2  501    0 -0.88035072969E+01  0.20598120733E+02  0.19310099764E+02  0.29574723521E+02  0.00000000000E+00 0. -1.
<mgrwt>
<rscale>  1 0.82110743E+02</rscale>
<asrwt>0</asrwt>
<pdfrwt beam="1">  1       21 0.13365891E-02 0.82110743E+02</pdfrwt>
<pdfrwt beam="2">  1        2 0.76693355E-01 0.82110743E+02</pdfrwt>
<totfact> 0.17035403E+06</totfact>
</mgrwt>
</event>
<event>
 6    2  0.7993170E+000  0.8399270E+02  0.7546771E-02  0.1318088E+00
         21   -1    0    0  501  502  0.00000000000E+00  0.00000000000E+00  0.50501334926E+01  0.50501334926E+01  0.00000000000E+00 0. -1.
          2   -1    0    0  502    0 -0.00000000000E+00 -0.00000000000E+00 -0.82783240207E+03  0.82783240207E+03  0.00000000000E+00 0. -1.
         24    2    1    2    0    0 -0.84994476397E+01 -0.28267343624E+02 -0.74445153547E+03  0.74917478756E+03  0.78635172371E+02 0.  0.
        -11    1    3    3    0    0 -0.23894729630E+02  0.21348275734E+02 -0.28593793118E+03  0.28772766198E+03  0.00000000000E+00 0.  1.
         12    1    3    3    0    0  0.15395281990E+02 -0.49615619358E+02 -0.45851360428E+03  0.46144712558E+03  0.00000000000E+00 0. -1.
          1    1    1    2  501    0  0.84994476397E+01  0.28267343624E+02 -0.78330733115E+02  0.83707748005E+02  0.00000000000E+00 0. -1.
<mgrwt>
<rscale>  1 0.83992700E+02</rscale>
<asrwt>0</asrwt>
<pdfrwt beam="1">  1       21 0.77694468E-03 0.83992700E+02</pdfrwt>
<pdfrwt beam="2">  1        2 0.12735866E+00 0.83992700E+02</pdfrwt>
<totfact> 0.22332724E+06</totfact>
</mgrwt>
</event>
<event>
 6    2  0.7993170E+000  0.8763314E+02  0.7546771E-02  0.1308687E+00
          2   -1    0    0  502    0 -0.00000000000E+00  0.00000000000E+00  0.11173712734E+04  0.11173712734E+04  0.00000000000E+00 0. -1.
         21   -1    0    0  501  502  0.00000000000E+00 -0.00000000000E+00 -0.59380230674E+01  0.59380230674E+01  0.00000000000E+00 0.  1.
         24    2    1    2    0    0  0.18910200049E+02  0.27841784920E+02  0.10465834664E+04  0.10502459327E+04  0.80912337009E+02 0.  0.
        -11    1    3    3    0    0  0.26895921472E+02  0.45742356850E+01  0.10976991566E+03  0.11310945410E+03  0.00000000000E+00 0.  1.
         12    1    3    3    0    0 -0.79857214231E+01  0.23267549235E+02  0.93681355076E+03  0.93713647858E+03  0.00000000000E+00 0. -1.
          1    1    1    2  501    0 -0.18910200049E+02 -0.27841784920E+02  0.64849783878E+02  0.73063363750E+02  0.00000000000E+00 0. -1.
<mgrwt>
<rscale>  1 0.87633138E+02</rscale>
<asrwt>0</asrwt>
<pdfrwt beam="1">  1       21 0.91354290E-03 0.87633138E+02</pdfrwt>
<pdfrwt beam="2">  1        2 0.17190311E+00 0.87633138E+02</pdfrwt>
<totfact> 0.11720533E+06</totfact>
</mgrwt>
</event>
<event>
 6    2  0.7993170E+000  0.1023315E+03  0.7546771E-02  0.1275468E+00
         21   -1    0    0  501  502  0.00000000000E+00  0.00000000000E+00  0.72905122168E+02  0.72905122168E+02  0.00000000000E+00 0. -1.
          2   -1    0    0  502    0 -0.00000000000E+00 -0.00000000000E+00 -0.20184233334E+03  0.20184233334E+03  0.00000000000E+00 0. -1.
         24    2    1    2    0    0 -0.11384153385E+02  0.62186213831E+02 -0.17066866028E+03  0.19899629722E+03  0.80467450353E+02 0.  0.
        -11    1    3    3    0    0 -0.60807831048E+01 -0.19308522149E+02 -0.27112622357E+02  0.33836211990E+02  0.00000000000E+00 0.  1.
         12    1    3    3    0    0 -0.53033702806E+01  0.81494735981E+02 -0.14355603792E+03  0.16516008523E+03  0.00000000000E+00 0. -1.
          1    1    1    2  501    0  0.11384153385E+02 -0.62186213831E+02  0.41731449101E+02  0.75751158295E+02  0.00000000000E+00 0. -1.
<mgrwt>
<rscale>  1 0.10233149E+03</rscale>
<asrwt>0</asrwt>
<pdfrwt beam="1">  1       21 0.11216173E-01 0.10233149E+03</pdfrwt>
<pdfrwt beam="2">  1        2 0.31052666E-01 0.10233149E+03</pdfrwt>
<totfact> 0.13437568E+05</totfact>
</mgrwt>
</event>
<event>
 6    2  0.7993170E+000  0.1042746E+03  0.7546771E-02  0.1271555E+00
          2   -1    0    0  502    0 -0.00000000000E+00  0.00000000000E+00  0.75838684960E+02  0.75838684960E+02  0.00000000000E+00 0. -1.
         21   -1    0    0  501  502  0.00000000000E+00 -0.00000000000E+00 -0.14186247870E+03  0.14186247870E+03  0.00000000000E+00 0. -1.
         24    2    1    2    0    0  0.59848020096E+00  0.70342397485E+02  0.20416532667E+02  0.10625457963E+03  0.76972656338E+02 0.  0.
        -11    1    3    3    0    0 -0.32542623899E+02  0.86638309159E+01  0.14251394118E+01  0.33706310369E+02  0.00000000000E+00 0.  1.
         12    1    3    3    0    0  0.33141104100E+02  0.61678566569E+02  0.18991393256E+02  0.72548269261E+02  0.00000000000E+00 0. -1.
          1    1    1    2  501    0 -0.59848020096E+00 -0.70342397485E+02 -0.86440326406E+02  0.11144658403E+03  0.00000000000E+00 0. -1.
<mgrwt>
<rscale>  1 0.10427464E+03</rscale>
<asrwt>0</asrwt>
<pdfrwt beam="1">  1       21 0.21824997E-01 0.10427464E+03</pdfrwt>
<pdfrwt beam="2">  1        2 0.11667490E-01 0.10427464E+03</pdfrwt>
<totfact> 0.12266710E+05</totfact>
</mgrwt>
</event>
<event>
 6    2  0.7993170E+000  0.8766993E+02  0.7546771E-02  0.1308594E+00
         21   -1    0    0  501  502  0.00000000000E+00  0.00000000000E+00  0.54499250957E+02  0.54499250957E+02  0.00000000000E+00 0.  1.
          2   -1    0    0  502    0 -0.00000000000E+00 -0.00000000000E+00 -0.68947749149E+02  0.68947749149E+02  0.00000000000E+00 0. -1.
         24    2    1    2    0    0  0.27686340150E+02  0.20395944454E+02 -0.15565272874E+02  0.89040966234E+02  0.80644206037E+02 0.  0.
        -13    1    3    3    0    0  0.37455205770E+02 -0.21102585331E+02  0.17489514686E+01  0.43026391647E+02  0.00000000000E+00 0.  1.
         14    1    3    3    0    0 -0.97688656204E+01  0.41498529785E+02 -0.17314224342E+02  0.46014574587E+02  0.00000000000E+00 0. -1.
          1    1    1    2  501    0 -0.27686340150E+02 -0.20395944454E+02  0.11167746815E+01  0.34406033871E+02  0.00000000000E+00 0. -1.
<mgrwt>
<rscale>  1 0.87669926E+02</rscale>
<asrwt>0</asrwt>
<pdfrwt beam="1">  1       21 0.83845002E-02 0.87669926E+02</pdfrwt>
<pdfrwt beam="2">  1        2 0.10607346E-01 0.87669926E+02</pdfrwt>
<totfact> 0.74233030E+05</totfact>
</mgrwt>
</event>
<event>
 6    2  0.7993170E+000  0.8376962E+02  0.7546771E-02  0.1318682E+00
         21   -1    0    0  501  502  0.00000000000E+00  0.00000000000E+00  0.79244170096E+02  0.79244170096E+02  0.00000000000E+00 0.  1.
         -1   -1    0    0    0  501 -0.00000000000E+00 -0.00000000000E+00 -0.71589754168E+02  0.71589754168E+02  0.00000000000E+00 0.  1.
         24    2    1    2    0    0  0.12673283827E+02  0.18686145526E+02  0.53732433692E+02  0.99521470818E+02  0.80669477287E+02 0.  0.
        -13    1    3    3    0    0  0.34200387818E+02  0.35878792598E+02  0.14617359857E+02  0.51678056217E+02  0.00000000000E+00 0.  1.
         14    1    3    3    0    0 -0.21527103991E+02 -0.17192647072E+02  0.39115073835E+02  0.47843414601E+02  0.00000000000E+00 0. -1.
         -2    1    1    2    0  502 -0.12673283827E+02 -0.18686145526E+02 -0.46078017764E+02  0.51312453446E+02  0.00000000000E+00 0.  1.
<mgrwt>
<rscale>  1 0.83769617E+02</rscale>
<asrwt>0</asrwt>
<pdfrwt beam="1">  1       21 0.12191411E-01 0.83769617E+02</pdfrwt>
<pdfrwt beam="2">  1       -1 0.11013808E-01 0.83769617E+02</pdfrwt>
<totfact> 0.25128790E+05</totfact>
</mgrwt>
</event>
<event>
 6    2  0.7993170E+000  0.8607216E+02  0.7546771E-02  0.1312652E+00
         21   -1    0    0  501  502  0.00000000000E+00  0.00000000000E+00  0.35809195001E+02  0.35809195001E+02  0.00000000000E+00 0.  1.
         -1   -1    0    0    0  501 -0.00000000000E+00 -0.00000000000E+00 -0.93688410249E+02  0.93688410249E+02  0.00000000000E+00 0.  1.
         24    2    1    2    0    0  0.75478907827E-01 -0.29074871366E+02 -0.36923207328E+02  0.93657570233E+02  0.81012735916E+02 0.  0.
        -11    1    3    3    0    0 -0.17086590772E+02 -0.52801242817E+02 -0.31700396835E+02  0.63912737281E+02  0.00000000000E+00 0.  1.
         12    1    3    3    0    0  0.17162069679E+02  0.23726371451E+02 -0.52228104922E+01  0.29744832952E+02  0.00000000000E+00 0. -1.
         -2    1    1    2    0  502 -0.75478907827E-01  0.29074871366E+02 -0.20956007921E+02  0.35840035017E+02  0.00000000000E+00 0.  1.
<mgrwt>
<rscale>  1 0.86072163E+02</rscale>
<asrwt>0</asrwt>
<pdfrwt beam="1">  1       21 0.55091070E-02 0.86072163E+02</pdfrwt>
<pdfrwt beam="2">  1       -1 0.14413601E-01 0.86072163E+02</pdfrwt>
<totfact> 0.64924815E+05</totfact>
</mgrwt>
</event>
<event>
 6    2  0.7993170E+000  0.1023501E+03  0.7546771E-02  0.1275430E+00
         21   -1    0    0  501  502  0.00000000000E+00  0.00000000000E+00  0.43178216440E+01  0.43178216440E+01  0.00000000000E+00 0.  1.
          2   -1    0    0  502    0 -0.00000000000E+00 -0.00000000000E+00 -0.16901755092E+04  0.16901755092E+04  0.00000000000E+00 0. -1.
         24    2    1    2    0    0  0.25151521526E+02 -0.52685459396E+02 -0.76936265276E+03  0.77614072674E+03  0.84066518716E+02 0.  0.
        -13    1    3    3    0    0 -0.14682468004E+02 -0.49232263352E+02 -0.24902959941E+03  0.25427373439E+03  0.00000000000E+00 0.  1.
         14    1    3    3    0    0  0.39833989531E+02 -0.34531960438E+01 -0.52033305336E+03  0.52186699235E+03  0.00000000000E+00 0. -1.
          1    1    1    2  501    0 -0.25151521526E+02  0.52685459396E+02 -0.91649503481E+03  0.91835260412E+03  0.00000000000E+00 0. -1.
<mgrwt>
<rscale>  1 0.10235007E+03</rscale>
<asrwt>0</asrwt>
<pdfrwt beam="1">  1       21 0.66427970E-03 0.10235007E+03</pdfrwt>
<pdfrwt beam="2">  1        2 0.26002722E+00 0.10235007E+03</pdfrwt>
<totfact> 0.97393658E+05</totfact>
</mgrwt>
</event>
<event>
 6    2  0.7993170E+000  0.8676511E+02  0.7546771E-02  0.1310880E+00
          4   -1    0    0  502    0 -0.00000000000E+00  0.00000000000E+00  0.18774884879E+03  0.18774884879E+03  0.00000000000E+00 0. -1.
         21   -1    0    0  501  502  0.00000000000E+00 -0.00000000000E+00 -0.35419959911E+02  0.35419959911E+02  0.00000000000E+00 0. -1.
         24    2    1    2    0    0  0.12099563150E+02 -0.25841136419E+02  0.16910785141E+03  0.19006748934E+03  0.81939131901E+02 0.  0.
        -11    1    3    3    0    0  0.46741588499E+02 -0.91631568273E+01  0.10529363804E+03  0.11556595411E+03  0.00000000000E+00 0.  1.
         12    1    3    3    0    0 -0.34642025349E+02 -0.16677979591E+02  0.63814213371E+02  0.74501535230E+02  0.00000000000E+00 0. -1.
          3    1    1    2  501    0 -0.12099563150E+02  0.25841136419E+02 -0.16778962529E+02  0.33101319360E+02  0.00000000000E+00 0. -1.
<mgrwt>
<rscale>  1 0.86765115E+02</rscale>
<asrwt>0</asrwt>
<pdfrwt beam="1">  1       21 0.54492247E-02 0.86765115E+02</pdfrwt>
<pdfrwt beam="2">  1        4 0.28884438E-01 0.86765115E+02</pdfrwt>
<totfact> 0.99500073E+04</totfact>
</mgrwt>
</event>
<event>
 6    2  0.7993170E+000  0.1042363E+03  0.7546771E-02  0.1271632E+00
          2   -1    0    0  502    0 -0.00000000000E+00  0.00000000000E+00  0.74131542968E+03  0.74131542968E+03  0.00000000000E+00 0. -1.
         21   -1    0    0  501  502  0.00000000000E+00 -0.00000000000E+00 -0.99744421155E+01  0.99744421155E+01  0.00000000000E+00 0.  1.
         24    2    1    2    0    0 -0.32754255915E+02  0.58891779868E+02  0.46743174527E+03  0.47891298000E+03  0.79524354184E+02 0.  0.
        -13    1    3    3    0    0 -0.26121000123E+02  0.78611861841E+02  0.35152302701E+03  0.36115172710E+03  0.00000000000E+00 0.  1.
         14    1    3    3    0    0 -0.66332557920E+01 -0.19720081973E+02  0.11590871826E+03  0.11776125289E+03  0.00000000000E+00 0. -1.
          1    1    1    2  501    0  0.32754255915E+02 -0.58891779868E+02  0.26390924230E+03  0.27237689180E+03  0.00000000000E+00 0. -1.
<mgrwt>
<rscale>  1 0.10423630E+03</rscale>
<asrwt>0</asrwt>
<pdfrwt beam="1">  1       21 0.15345301E-02 0.10423630E+03</pdfrwt>
<pdfrwt beam="2">  1        2 0.11404848E+00 0.10423630E+03</pdfrwt>
<totfact> 0.89559810E+05</totfact>
</mgrwt>
</event>
<event>
 6    2  0.7993170E+000  0.1276400E+03  0.7546771E-02  0.1231000E+00
          2   -1    0    0  502    0 -0.00000000000E+00  0.00000000000E+00  0.77377697175E+03  0.77377697175E+03  0.00000000000E+00 0. -1.
         21   -1    0    0  501  502  0.00000000000E+00 -0.00000000000E+00 -0.19997267684E+02  0.19997267684E+02  0.00000000000E+00 0. -1.
         24    2    1    2    0    0 -0.29397650328E+02 -0.94881525005E+02  0.57747482878E+03  0.59141284321E+03  0.80157642216E+02 0.  0.
        -11    1    3    3    0    0 -0.38153989292E+02 -0.12800752224E+02  0.12050753893E+03  0.12704980557E+03  0.00000000000E+00 0.  1.
         12    1    3    3    0    0  0.87563389637E+01 -0.82080772782E+02  0.45696728985E+03  0.46436303764E+03  0.00000000000E+00 0. -1.
          1    1    1    2  501    0  0.29397650328E+02  0.94881525005E+02  0.17630487528E+03  0.20236139622E+03  0.00000000000E+00 0. -1.
<mgrwt>
<rscale>  1 0.12764001E+03</rscale>
<asrwt>0</asrwt>
<pdfrwt beam="1">  1       21 0.30765033E-02 0.12764001E+03</pdfrwt>
<pdfrwt beam="2">  1        2 0.11904259E+00 0.12764001E+03</pdfrwt>
<totfact> 0.27995919E+05</totfact>
</mgrwt>
</event>
<event>
 6    2  0.7993170E+000  0.1291628E+03  0.7546771E-02  0.1228703E+00
         -1   -1    0    0    0  501 -0.00000000000E+00  0.00000000000E+00  0.37213281234E+03  0.37213281234E+03  0.00000000000E+00 0.  1.
         21   -1    0    0  501  502  0.00000000000E+00 -0.00000000000E+00 -0.88415230161E+02  0.88415230161E+02  0.00000000000E+00 0.  1.
         24    2    1    2    0    0 -0.64479985728E+02  0.78253364905E+02  0.32602557762E+03  0.35067891965E+03  0.80011060172E+02 0.  0.
        -13    1    3    3    0    0 -0.61148392045E+02  0.94453094201E+02  0.27931605441E+03  0.30112783183E+03  0.00000000000E+00 0.  1.
         14    1    3    3    0    0 -0.33315936827E+01 -0.16199729297E+02  0.46709523208E+02  0.49551087820E+02  0.00000000000E+00 0. -1.
         -2    1    1    2    0  502  0.64479985728E+02 -0.78253364905E+02 -0.42307995436E+02  0.10986912285E+03  0.00000000000E+00 0.  1.
<mgrwt>
<rscale>  1 0.12916279E+03</rscale>
<asrwt>0</asrwt>
<pdfrwt beam="1">  1       21 0.13602343E-01 0.12916279E+03</pdfrwt>
<pdfrwt beam="2">  1       -1 0.57251201E-01 0.12916279E+03</pdfrwt>
<totfact> 0.13854453E+04</totfact>
</mgrwt>
</event>
<event>
 6    2  0.7993170E+000  0.8330393E+02  0.7546771E-02  0.1319928E+00
         21   -1    0    0  501  502  0.00000000000E+00  0.00000000000E+00  0.84546548438E+01  0.84546548438E+01  0.00000000000E+00 0.  1.
         -1   -1    0    0    0  501 -0.00000000000E+00 -0.00000000000E+00 -0.81394086720E+03  0.81394086720E+03  0.00000000000E+00 0.  1.
         24    2    1    2    0    0  0.38253204626E+01  0.21478774993E+02 -0.79278746949E+03  0.79715212841E+03  0.80396350640E+02 0.  0.
        -11    1    3    3    0    0 -0.22753436170E+02  0.37368374630E+02 -0.62511656937E+03  0.62664570499E+03  0.00000000000E+00 0.  1.
         12    1    3    3    0    0  0.26578756633E+02 -0.15889599638E+02 -0.16767090012E+03  0.17050642342E+03  0.00000000000E+00 0. -1.
         -2    1    1    2    0  502 -0.38253204626E+01 -0.21478774993E+02 -0.12698742868E+02  0.25243393636E+02  0.00000000000E+00 0.  1.
<mgrwt>
<rscale>  1 0.83303926E+02</rscale>
<asrwt>0</asrwt>
<pdfrwt beam="1">  1       21 0.13007159E-02 0.83303926E+02</pdfrwt>
<pdfrwt beam="2">  1       -1 0.12522170E+00 0.83303926E+02</pdfrwt>
<totfact> 0.13247289E+05</totfact>
</mgrwt>
</event>
<event>
 6    2  0.7993170E+000  0.1025438E+03  0.7546771E-02  0.1275036E+00
         21   -1    0    0  501  502  0.00000000000E+00  0.00000000000E+00  0.51163174123E+02  0.51163174123E+02  0.00000000000E+00 0.  1.
          2   -1    0    0  502    0 -0.00000000000E+00 -0.00000000000E+00 -0.16831879961E+03  0.16831879961E+03  0.00000000000E+00 0. -1.
         24    2    1    2    0    0 -0.27540024351E+02  0.36892031375E+02 -0.13549671974E+03  0.16992523193E+03  0.91628316928E+02 0.  0.
        -11    1    3    3    0    0 -0.17560624897E+02  0.48450131182E+02 -0.23063623779E+02  0.56459910558E+02  0.00000000000E+00 0.  1.
         12    1    3    3    0    0 -0.99793994539E+01 -0.11558099808E+02 -0.11243309597E+03  0.11346532137E+03  0.00000000000E+00 0. -1.
          1    1    1    2  501    0  0.27540024351E+02 -0.36892031375E+02  0.18341094257E+02  0.49556741809E+02  0.00000000000E+00 0. -1.
<mgrwt>
<rscale>  1 0.10254376E+03</rscale>
<asrwt>0</asrwt>
<pdfrwt beam="1">  1       21 0.78712575E-02 0.10254376E+03</pdfrwt>
<pdfrwt beam="2">  1        2 0.25895200E-01 0.10254376E+03</pdfrwt>
<totfact> 0.30189717E+05</totfact>
</mgrwt>
</event>
<event>
 6    2  0.7993170E+000  0.6794772E+02  0.7546771E-02  0.1367214E+00
          2   -1    0    0  502    0 -0.00000000000E+00  0.00000000000E+00  0.11037563787E+04  0.11037563787E+04  0.00000000000E+00 0. -1.
         21   -1    0    0  501  502  0.00000000000E+00 -0.00000000000E+00 -0.24856365414E+01  0.24856365414E+01  0.00000000000E+00 0. -1.
         24    2    1    2    0    0 -0.11299891168E+02 -0.22959155812E+02  0.97722401499E+03  0.97958341546E+03  0.62945071337E+02 0.  0.
        -13    1    3    3    0    0 -0.24183454299E+02  0.13719360193E+02  0.31754933475E+03  0.31876423938E+03  0.00000000000E+00 0.  1.
         14    1    3    3    0    0  0.12883563131E+02 -0.36678516005E+02  0.65967468024E+03  0.66081917608E+03  0.00000000000E+00 0. -1.
          1    1    1    2  501    0  0.11299891168E+02  0.22959155812E+02  0.12404672717E+03  0.12665859978E+03  0.00000000000E+00 0. -1.
<mgrwt>
<rscale>  1 0.67947718E+02</rscale>
<asrwt>0</asrwt>
<pdfrwt beam="1">  1       21 0.38240650E-03 0.67947718E+02</pdfrwt>
<pdfrwt beam="2">  1        2 0.16980828E+00 0.67947718E+02</pdfrwt>
<totfact> 0.44190768E+06</totfact>
</mgrwt>
</event>
<event>
 6    2  0.7993170E+000  0.1843655E+03  0.7546771E-02  0.1163644E+00
          2   -1    0    0  502    0 -0.00000000000E+00  0.00000000000E+00  0.13686903015E+03  0.13686903015E+03  0.00000000000E+00 0. -1.
         21   -1    0    0  501  502  0.00000000000E+00 -0.00000000000E+00 -0.54168594452E+03  0.54168594452E+03  0.00000000000E+00 0. -1.
         24    2    1    2    0    0  0.79859895178E+02  0.14543562236E+03  0.52808649754E+02  0.19177958494E+03  0.80383658804E+02 0.  0.
        -11    1    3    3    0    0 -0.15224908120E+02  0.20397807127E+02 -0.16909865673E+01  0.25509366877E+02  0.00000000000E+00 0.  1.
         12    1    3    3    0    0  0.95084803298E+02  0.12503781523E+03  0.54499636322E+02  0.16627021806E+03  0.00000000000E+00 0. -1.
          1    1    1    2  501    0 -0.79859895178E+02 -0.14543562236E+03 -0.45762556412E+03  0.48677538973E+03  0.00000000000E+00 0. -1.
<mgrwt>
<rscale>  1 0.18436555E+03</rscale>
<asrwt>0</asrwt>
<pdfrwt beam="1">  1       21 0.83336300E-01 0.18436555E+03</pdfrwt>
<pdfrwt beam="2">  1        2 0.21056774E-01 0.18436555E+03</pdfrwt>
<totfact> 0.40262596E+03</totfact>
</mgrwt>
</event>
<event>
 6    2  0.7993170E+000  0.8694477E+02  0.7546771E-02  0.1310424E+00
         -1   -1    0    0    0  501 -0.00000000000E+00  0.00000000000E+00  0.35837486681E+03  0.35837486681E+03  0.00000000000E+00 0.  1.
         21   -1    0    0  501  502  0.00000000000E+00 -0.00000000000E+00 -0.10685682807E+02  0.10685682807E+02  0.00000000000E+00 0. -1.
         24    2    1    2    0    0  0.19939143646E+02 -0.27607087858E+02  0.28154960726E+03  0.29466858526E+03  0.79997956481E+02 0.  0.
        -11    1    3    3    0    0 -0.48618686252E-01  0.15564566717E+01  0.24044647438E+03  0.24045151687E+03  0.00000000000E+00 0.  1.
         12    1    3    3    0    0  0.19987762332E+02 -0.29163544530E+02  0.41103132877E+02  0.54217068390E+02  0.00000000000E+00 0. -1.
         -2    1    1    2    0  502 -0.19939143646E+02  0.27607087858E+02  0.66139576740E+02  0.74391964355E+02  0.00000000000E+00 0.  1.
<mgrwt>
<rscale>  1 0.86944774E+02</rscale>
<asrwt>0</asrwt>
<pdfrwt beam="1">  1       21 0.16439515E-02 0.86944774E+02</pdfrwt>
<pdfrwt beam="2">  1       -1 0.55134586E-01 0.86944774E+02</pdfrwt>
<totfact> 0.49955794E+05</totfact>
</mgrwt>
</event>
<event>
 6    2  0.7993170E+000  0.8787955E+02  0.7546771E-02  0.1308069E+00
         21   -1    0    0  501  502  0.00000000000E+00  0.00000000000E+00  0.84949574141E+02  0.84949574141E+02  0.00000000000E+00 0. -1.
         -3   -1    0    0    0  501 -0.00000000000E+00 -0.00000000000E+00 -0.43560243497E+02  0.43560243497E+02  0.00000000000E+00 0.  1.
         24    2    1    2    0    0 -0.30384625745E+02 -0.14582331383E+02  0.27817943616E+02  0.92177292043E+02  0.81159998220E+02 0.  0.
        -13    1    3    3    0    0 -0.27978977492E+02  0.28186407896E+02 -0.23489587850E+01  0.39784599771E+02  0.00000000000E+00 0.  1.
         14    1    3    3    0    0 -0.24056482537E+01 -0.42768739279E+02  0.30166902401E+02  0.52392692272E+02  0.00000000000E+00 0. -1.
         -4    1    1    2    0  502  0.30384625745E+02  0.14582331383E+02  0.13571387029E+02  0.36332525595E+02  0.00000000000E+00 0.  1.
<mgrwt>
<rscale>  1 0.87879549E+02</rscale>
<asrwt>0</asrwt>
<pdfrwt beam="1">  1       21 0.13069165E-01 0.87879549E+02</pdfrwt>
<pdfrwt beam="2">  1       -3 0.67015759E-02 0.87879549E+02</pdfrwt>
<totfact> 0.31646144E+05</totfact>
</mgrwt>
</event>
<event>
 6    2  0.7993170E+000  0.8256603E+02  0.7546771E-02  0.1321923E+00
          4   -1    0    0  502    0 -0.00000000000E+00  0.00000000000E+00  0.60515981746E+01  0.60515981746E+01  0.00000000000E+00 0. -1.
         21   -1    0    0  501  502  0.00000000000E+00 -0.00000000000E+00 -0.44997050038E+03  0.44997050038E+03  0.00000000000E+00 0. -1.
         24    2    1    2    0    0 -0.10772510424E+02 -0.17157008040E+02 -0.32119891377E+03  0.33164120988E+03  0.80042113780E+02 0.  0.
        -13    1    3    3    0    0 -0.19308376195E+02 -0.11023568863E+02 -0.32032315041E+03  0.32109383855E+03  0.00000000000E+00 0.  1.
         14    1    3    3    0    0  0.85358657707E+01 -0.61334391764E+01 -0.87576335579E+00  0.10547371333E+02  0.00000000000E+00 0. -1.
          3    1    1    2  501    0  0.10772510424E+02  0.17157008040E+02 -0.12271998843E+03  0.12438088867E+03  0.00000000000E+00 0. -1.
<mgrwt>
<rscale>  1 0.82566033E+02</rscale>
<asrwt>0</asrwt>
<pdfrwt beam="1">  1       21 0.69226215E-01 0.82566033E+02</pdfrwt>
<pdfrwt beam="2">  1        4 0.93101532E-03 0.82566033E+02</pdfrwt>
<totfact> 0.23346422E+05</totfact>
</mgrwt>
</event>
<event>
 6    2  0.7993170E+000  0.8566830E+02  0.7546771E-02  0.1313694E+00
         21   -1    0    0  501  502  0.00000000000E+00  0.00000000000E+00  0.12895492732E+03  0.12895492732E+03  0.00000000000E+00 0. -1.
         -1   -1    0    0    0  501 -0.00000000000E+00 -0.00000000000E+00 -0.27325468218E+02  0.27325468218E+02  0.00000000000E+00 0.  1.
         24    2    1    2    0    0  0.20727440876E+02  0.15003594593E+02  0.51389475083E+02  0.99899630643E+02  0.81757711546E+02 0.  0.
        -11    1    3    3    0    0 -0.38258431614E+01 -0.61801328492E+01 -0.20113555842E+02  0.21386590344E+02  0.00000000000E+00 0.  1.
         12    1    3    3    0    0  0.24553284037E+02  0.21183727443E+02  0.71503030925E+02  0.78513040298E+02  0.00000000000E+00 0. -1.
         -2    1    1    2    0  502 -0.20727440876E+02 -0.15003594593E+02  0.50239984024E+02  0.56380764900E+02  0.00000000000E+00 0.  1.
<mgrwt>
<rscale>  1 0.85668302E+02</rscale>
<asrwt>0</asrwt>
<pdfrwt beam="1">  1       21 0.19839219E-01 0.85668302E+02</pdfrwt>
<pdfrwt beam="2">  1       -1 0.42039183E-02 0.85668302E+02</pdfrwt>
<totfact> 0.43864023E+05</totfact>
</mgrwt>
</event>
<event>
 6    2  0.7993170E+000  0.8384306E+02  0.7546771E-02  0.1318486E+00
          2   -1    0    0  502    0 -0.00000000000E+00  0.00000000000E+00  0.29418130333E+03  0.29418130333E+03  0.00000000000E+00 0. -1.
         21   -1    0    0  501  502  0.00000000000E+00 -0.00000000000E+00 -0.12797263399E+02  0.12797263399E+02  0.00000000000E+00 0. -1.
         24    2    1    2    0    0  0.18411429809E+02  0.14216032663E+02  0.26646486723E+03  0.27934420322E+03  0.80551735387E+02 0.  0.
        -13    1    3    3    0    0  0.43169062313E+02  0.86625912158E+01  0.81371751127E+02  0.92520107592E+02  0.00000000000E+00 0.  1.
         14    1    3    3    0    0 -0.24757632503E+02  0.55534414470E+01  0.18509311610E+03  0.18682409563E+03  0.00000000000E+00 0. -1.
          1    1    1    2  501    0 -0.18411429809E+02 -0.14216032663E+02  0.14919172698E+02  0.27634363504E+02  0.00000000000E+00 0. -1.
<mgrwt>
<rscale>  1 0.83843058E+02</rscale>
<asrwt>0</asrwt>
<pdfrwt beam="1">  1       21 0.19688100E-02 0.83843058E+02</pdfrwt>
<pdfrwt beam="2">  1        2 0.45258657E-01 0.83843058E+02</pdfrwt>
<totfact> 0.16090936E+06</totfact>
</mgrwt>
</event>
<event>
 6    2  0.7993170E+000  0.8800328E+02  0.7546771E-02  0.1307760E+00
         21   -1    0    0  501  502  0.00000000000E+00  0.00000000000E+00  0.37291588354E+01  0.37291588354E+01  0.00000000000E+00 0. -1.
          2   -1    0    0  502    0 -0.00000000000E+00 -0.00000000000E+00 -0.88643741016E+03  0.88643741016E+03  0.00000000000E+00 0. -1.
         24    2    1    2    0    0 -0.25322340230E+02  0.56689697613E+01 -0.72760156153E+03  0.73290422973E+03  0.84090543340E+02 0.  0.
        -13    1    3    3    0    0  0.11893524501E+01  0.34131898019E+02 -0.14346781269E+03  0.14747682631E+03  0.00000000000E+00 0.  1.
         14    1    3    3    0    0 -0.26511692680E+02 -0.28462928258E+02 -0.58413374884E+03  0.58542740341E+03  0.00000000000E+00 0. -1.
          1    1    1    2  501    0  0.25322340230E+02 -0.56689697613E+01 -0.15510668979E+03  0.15726233926E+03  0.00000000000E+00 0. -1.
<mgrwt>
<rscale>  1 0.88003282E+02</rscale>
<asrwt>0</asrwt>
<pdfrwt beam="1">  1       21 0.57371667E-03 0.88003282E+02</pdfrwt>
<pdfrwt beam="2">  1        2 0.13637500E+00 0.88003282E+02</pdfrwt>
<totfact> 0.32895301E+06</totfact>
</mgrwt>
</event>
<event>
 6    2  0.7993170E+000  0.8367351E+02  0.7546771E-02  0.1318938E+00
         -3   -1    0    0    0  501 -0.00000000000E+00  0.00000000000E+00  0.28776176294E+02  0.28776176294E+02  0.00000000000E+00 0.  1.
         21   -1    0    0  501  502  0.00000000000E+00 -0.00000000000E+00 -0.13380234302E+03  0.13380234302E+03  0.00000000000E+00 0. -1.
         24    2    1    2    0    0  0.22065888252E+02  0.12163551791E+02 -0.39803865787E+02  0.92658536788E+02  0.79789731743E+02 0.  0.
        -13    1    3    3    0    0  0.36567873337E+02  0.31886011161E+01  0.11602756408E+02  0.38496759523E+02  0.00000000000E+00 0.  1.
         14    1    3    3    0    0 -0.14501985085E+02  0.89749506747E+01 -0.51406622195E+02  0.54161777265E+02  0.00000000000E+00 0. -1.
         -4    1    1    2    0  502 -0.22065888252E+02 -0.12163551791E+02 -0.65222300941E+02  0.69919982526E+02  0.00000000000E+00 0.  1.
<mgrwt>
<rscale>  1 0.83673513E+02</rscale>
<asrwt>0</asrwt>
<pdfrwt beam="1">  1       21 0.20584976E-01 0.83673513E+02</pdfrwt>
<pdfrwt beam="2">  1       -3 0.44271040E-02 0.83673513E+02</pdfrwt>
<totfact> 0.26639842E+05</totfact>
</mgrwt>
</event>
<event>
 6    2  0.7993170E+000  0.1038319E+03  0.7546771E-02  0.1272438E+00
         21   -1    0    0  501  502  0.00000000000E+00  0.00000000000E+00  0.21988204341E+02  0.21988204341E+02  0.00000000000E+00 0.  1.
          2   -1    0    0  502    0 -0.00000000000E+00 -0.00000000000E+00 -0.32693191500E+03  0.32693191500E+03  0.00000000000E+00 0. -1.
         24    2    1    2    0    0  0.41079183606E+02  0.21734001839E+02 -0.12218125204E+03  0.16034126994E+03  0.92850408366E+02 0.  0.
        -13    1    3    3    0    0  0.70850023431E+02  0.11951167025E+02 -0.76571099897E+02  0.10500328353E+03  0.00000000000E+00 0.  1.
         14    1    3    3    0    0 -0.29770839825E+02  0.97828348133E+01 -0.45610152141E+02  0.55337986404E+02  0.00000000000E+00 0. -1.
          1    1    1    2  501    0 -0.41079183606E+02 -0.21734001839E+02 -0.18276245862E+03  0.18857884940E+03  0.00000000000E+00 0. -1.
<mgrwt>
<rscale>  1 0.10383190E+03</rscale>
<asrwt>0</asrwt>
<pdfrwt beam="1">  1       21 0.33828008E-02 0.10383190E+03</pdfrwt>
<pdfrwt beam="2">  1        2 0.50297216E-01 0.10383190E+03</pdfrwt>
<totfact> 0.61353800E+05</totfact>
</mgrwt>
</event>
<event>
 6    2  0.7993170E+000  0.8265568E+02  0.7546771E-02  0.1321680E+00
         21   -1    0    0  501  502  0.00000000000E+00  0.00000000000E+00  0.21062127190E+01  0.21062127190E+01  0.00000000000E+00 0.  1.
          2   -1    0    0  502    0 -0.00000000000E+00 -0.00000000000E+00 -0.19446026743E+04  0.19446026743E+04  0.00000000000E+00 0. -1.
         24    2    1    2    0    0 -0.16510720417E+02  0.11420106933E+02 -0.18588609230E+04  0.18606976898E+04  0.80180665311E+02 0.  0.
        -13    1    3    3    0    0 -0.23962522571E+02  0.22635954155E+02 -0.30460073051E+03  0.30637916694E+03  0.00000000000E+00 0.  1.
         14    1    3    3    0    0  0.74518021540E+01 -0.11215847222E+02 -0.15542601924E+04  0.15543185228E+04  0.00000000000E+00 0. -1.
          1    1    1    2  501    0  0.16510720417E+02 -0.11420106933E+02 -0.83635538590E+02  0.86011197215E+02  0.00000000000E+00 0. -1.
<mgrwt>
<rscale>  1 0.82655682E+02</rscale>
<asrwt>0</asrwt>
<pdfrwt beam="1">  1       21 0.32403285E-03 0.82655682E+02</pdfrwt>
<pdfrwt beam="2">  1        2 0.29916953E+00 0.82655682E+02</pdfrwt>
<totfact> 0.21489648E+06</totfact>
</mgrwt>
</event>
<event>
 6    2  0.7993170E+000  0.8200806E+02  0.7546771E-02  0.1323448E+00
          2   -1    0    0  502    0 -0.00000000000E+00  0.00000000000E+00  0.25793616574E+02  0.25793616574E+02  0.00000000000E+00 0. -1.
         21   -1    0    0  501  502  0.00000000000E+00 -0.00000000000E+00 -0.18040011047E+03  0.18040011047E+03  0.00000000000E+00 0. -1.
         24    2    1    2    0    0 -0.23734350941E+02  0.45773966578E+01 -0.44177615545E+02  0.93150332064E+02  0.78364856113E+02 0.  0.
        -11    1    3    3    0    0  0.24954489022E+02  0.18196131339E+02 -0.11521528664E+02  0.32963181595E+02  0.00000000000E+00 0.  1.
         12    1    3    3    0    0 -0.48688839962E+02 -0.13618734682E+02 -0.32656086881E+02  0.60187150469E+02  0.00000000000E+00 0. -1.
          1    1    1    2  501    0  0.23734350941E+02 -0.45773966578E+01 -0.11042887835E+03  0.11304339498E+03  0.00000000000E+00 0. -1.
<mgrwt>
<rscale>  1 0.82008065E+02</rscale>
<asrwt>0</asrwt>
<pdfrwt beam="1">  1       21 0.27753863E-01 0.82008065E+02</pdfrwt>
<pdfrwt beam="2">  1        2 0.39682487E-02 0.82008065E+02</pdfrwt>
<totfact> 0.29848055E+05</totfact>
</mgrwt>
</event>
<event>
 6    2  0.7993170E+000  0.9181252E+02  0.7546771E-02  0.1298521E+00
         -3   -1    0    0    0  501 -0.00000000000E+00  0.00000000000E+00  0.34953177133E+02  0.34953177133E+02  0.00000000000E+00 0.  1.
         21   -1    0    0  501  502  0.00000000000E+00 -0.00000000000E+00 -0.25721971332E+03  0.25721971332E+03  0.00000000000E+00 0.  1.
         24    2    1    2    0    0 -0.34929886461E+02  0.25982913433E+02 -0.32372449054E+02  0.97352529384E+02  0.80835207435E+02 0.  0.
        -13    1    3    3    0    0 -0.39989291487E+02 -0.93959082598E+01 -0.43588826113E+02  0.59895010540E+02  0.00000000000E+00 0.  1.
         14    1    3    3    0    0  0.50594050265E+01  0.35378821693E+02  0.11216377060E+02  0.37457518844E+02  0.00000000000E+00 0. -1.
         -4    1    1    2    0  502  0.34929886461E+02 -0.25982913433E+02 -0.18989408713E+03  0.19482036107E+03  0.00000000000E+00 0.  1.
<mgrwt>
<rscale>  1 0.91812524E+02</rscale>
<asrwt>0</asrwt>
<pdfrwt beam="1">  1       21 0.39572263E-01 0.91812524E+02</pdfrwt>
<pdfrwt beam="2">  1       -3 0.53774119E-02 0.91812524E+02</pdfrwt>
<totfact> 0.57520075E+04</totfact>
</mgrwt>
</event>
<event>
 6    2  0.7993170E+000  0.8438103E+02  0.7546771E-02  0.1317059E+00
         21   -1    0    0  501  502  0.00000000000E+00  0.00000000000E+00  0.27768061210E+02  0.27768061210E+02  0.00000000000E+00 0.  1.
          2   -1    0    0  502    0 -0.00000000000E+00 -0.00000000000E+00 -0.14496459102E+03  0.14496459102E+03  0.00000000000E+00 0. -1.
         24    2    1    2    0    0 -0.10707675170E+02 -0.19391135683E+02 -0.12361621972E+03  0.14967006631E+03  0.81421671064E+02 0.  0.
        -13    1    3    3    0    0 -0.28834112409E+02 -0.18667445426E+02 -0.11691273072E+02  0.36284506655E+02  0.00000000000E+00 0.  1.
         14    1    3    3    0    0  0.18126437239E+02 -0.72369025673E+00 -0.11192494665E+03  0.11338555965E+03  0.00000000000E+00 0. -1.
          1    1    1    2  501    0  0.10707675170E+02  0.19391135683E+02  0.64196899176E+01  0.23062585919E+02  0.00000000000E+00 0. -1.
<mgrwt>
<rscale>  1 0.84381034E+02</rscale>
<asrwt>0</asrwt>
<pdfrwt beam="1">  1       21 0.42720094E-02 0.84381034E+02</pdfrwt>
<pdfrwt beam="2">  1        2 0.22302245E-01 0.84381034E+02</pdfrwt>
<totfact> 0.97461525E+05</totfact>
</mgrwt>
</event>
<event>
 6    2  0.7993170E+000  0.9161748E+02  0.7546771E-02  0.1298981E+00
          2   -1    0    0  502    0 -0.00000000000E+00  0.00000000000E+00  0.15725559889E+04  0.15725559889E+04  0.00000000000E+00 0. -1.
         21   -1    0    0  501  502  0.00000000000E+00 -0.00000000000E+00 -0.34353781992E+01  0.34353781992E+01  0.00000000000E+00 0. -1.
         24    2    1    2    0    0 -0.23876830530E+02 -0.22564541979E+02  0.14344052944E+04  0.14373281851E+04  0.85524859249E+02 0.  0.
        -13    1    3    3    0    0  0.28945778803E+02 -0.24156487086E+02  0.49204316020E+03  0.49348542580E+03  0.00000000000E+00 0.  1.
         14    1    3    3    0    0 -0.52822609333E+02  0.15919451076E+01  0.94236213416E+03  0.94384275928E+03  0.00000000000E+00 0. -1.
          1    1    1    2  501    0  0.23876830530E+02  0.22564541979E+02  0.13471531638E+03  0.13866318205E+03  0.00000000000E+00 0. -1.
<mgrwt>
<rscale>  1 0.91617483E+02</rscale>
<asrwt>0</asrwt>
<pdfrwt beam="1">  1       21 0.52852098E-03 0.91617483E+02</pdfrwt>
<pdfrwt beam="2">  1        2 0.24193112E+00 0.91617483E+02</pdfrwt>
<totfact> 0.15785789E+06</totfact>
</mgrwt>
</event>
<event>
 6    2  0.7993170E+000  0.8517999E+02  0.7546771E-02  0.1314963E+00
         21   -1    0    0  501  502  0.00000000000E+00  0.00000000000E+00  0.59783914042E+01  0.59783914042E+01  0.00000000000E+00 0. -1.
         -1   -1    0    0    0  501 -0.00000000000E+00 -0.00000000000E+00 -0.61477389120E+03  0.61477389120E+03  0.00000000000E+00 0.  1.
         24    2    1    2    0    0 -0.22098917042E+02 -0.17027937033E+02 -0.33978884773E+03  0.35030285733E+03  0.80481787006E+02 0.  0.
        -11    1    3    3    0    0 -0.10130045511E+02 -0.16096544663E+02 -0.33755668320E+03  0.33809204508E+03  0.00000000000E+00 0.  1.
         12    1    3    3    0    0 -0.11968871531E+02 -0.93139237023E+00 -0.22321645327E+01  0.12210812257E+02  0.00000000000E+00 0. -1.
         -2    1    1    2    0  502  0.22098917042E+02  0.17027937033E+02 -0.26900665207E+03  0.27044942527E+03  0.00000000000E+00 0.  1.
<mgrwt>
<rscale>  1 0.85179991E+02</rscale>
<asrwt>0</asrwt>
<pdfrwt beam="1">  1       21 0.91975272E-03 0.85179991E+02</pdfrwt>
<pdfrwt beam="2">  1       -1 0.94580579E-01 0.85179991E+02</pdfrwt>
<totfact> 0.42818613E+05</totfact>
</mgrwt>
</event>
<event>
 6    2  0.7993170E+000  0.9040845E+02  0.7546771E-02  0.1301866E+00
          2   -1    0    0  502    0 -0.00000000000E+00  0.00000000000E+00  0.13037238723E+04  0.13037238723E+04  0.00000000000E+00 0. -1.
         21   -1    0    0  501  502  0.00000000000E+00 -0.00000000000E+00 -0.66954578126E+01  0.66954578126E+01  0.00000000000E+00 0. -1.
         24    2    1    2    0    0  0.25582041386E+02  0.23654517982E+02  0.12420112186E+04  0.12452973760E+04  0.83424879502E+02 0.  0.
        -13    1    3    3    0    0 -0.26317641308E+02  0.24397497936E+02  0.36779571211E+03  0.36954234128E+03  0.00000000000E+00 0.  1.
         14    1    3    3    0    0  0.51899682694E+02 -0.74297995458E+00  0.87421550648E+03  0.87575503473E+03  0.00000000000E+00 0. -1.
          1    1    1    2  501    0 -0.25582041386E+02 -0.23654517982E+02  0.55017195901E+02  0.65121954111E+02  0.00000000000E+00 0. -1.
<mgrwt>
<rscale>  1 0.90408449E+02</rscale>
<asrwt>0</asrwt>
<pdfrwt beam="1">  1       21 0.10300715E-02 0.90408449E+02</pdfrwt>
<pdfrwt beam="2">  1        2 0.20057270E+00 0.90408449E+02</pdfrwt>
<totfact> 0.77205601E+05</totfact>
</mgrwt>
</event>
<event>
 6    2  0.7993170E+000  0.9162019E+02  0.7546771E-02  0.1298975E+00
         21   -1    0    0  501  502  0.00000000000E+00  0.00000000000E+00  0.30198453286E+02  0.30198453286E+02  0.00000000000E+00 0.  1.
          2   -1    0    0  502    0 -0.00000000000E+00 -0.00000000000E+00 -0.14994518646E+03  0.14994518646E+03  0.00000000000E+00 0. -1.
         24    2    1    2    0    0  0.27657124514E+02 -0.30706045801E+02 -0.68985285594E+02  0.11468752967E+03  0.81770912000E+02 0.  0.
        -11    1    3    3    0    0 -0.37718614341E+01 -0.52513710183E+02 -0.46942520567E+02  0.70537344245E+02  0.00000000000E+00 0.  1.
         12    1    3    3    0    0  0.31428985948E+02  0.21807664382E+02 -0.22042765026E+02  0.44150185430E+02  0.00000000000E+00 0. -1.
          1    1    1    2  501    0 -0.27657124514E+02  0.30706045801E+02 -0.50761447579E+02  0.65456110069E+02  0.00000000000E+00 0. -1.
<mgrwt>
<rscale>  1 0.91620193E+02</rscale>
<asrwt>0</asrwt>
<pdfrwt beam="1">  1       21 0.46459159E-02 0.91620193E+02</pdfrwt>
<pdfrwt beam="2">  1        2 0.23068490E-01 0.91620193E+02</pdfrwt>
<totfact> 0.82474721E+05</totfact>
</mgrwt>
</event>
<event>
 6    2  0.7993170E+000  0.1245619E+03  0.7546771E-02  0.1235756E+00
          2   -1    0    0  502    0 -0.00000000000E+00  0.00000000000E+00  0.16263357707E+04  0.16263357707E+04  0.00000000000E+00 0. -1.
         21   -1    0    0  501  502  0.00000000000E+00 -0.00000000000E+00 -0.82365660316E+01  0.82365660316E+01  0.00000000000E+00 0.  1.
         24    2    1    2    0    0  0.55114831744E+02 -0.77694152791E+02  0.11603492674E+04  0.11670158898E+04  0.80259818651E+02 0.  0.
        -13    1    3    3    0    0  0.62170461337E+02 -0.90508265310E+02  0.10401920995E+04  0.10459715657E+04  0.00000000000E+00 0.  1.
         14    1    3    3    0    0 -0.70556295932E+01  0.12814112519E+02  0.12015716791E+03  0.12104432407E+03  0.00000000000E+00 0. -1.
          1    1    1    2  501    0 -0.55114831744E+02  0.77694152791E+02  0.45774993727E+03  0.46755644700E+03  0.00000000000E+00 0. -1.
<mgrwt>
<rscale>  1 0.12456189E+03</rscale>
<asrwt>0</asrwt>
<pdfrwt beam="1">  1       21 0.12671653E-02 0.12456189E+03</pdfrwt>
<pdfrwt beam="2">  1        2 0.25020525E+00 0.12456189E+03</pdfrwt>
<totfact> 0.38437735E+05</totfact>
</mgrwt>
</event>
<event>
 6    2  0.7993170E+000  0.8627845E+02  0.7546771E-02  0.1312123E+00
         21   -1    0    0  501  502  0.00000000000E+00  0.00000000000E+00  0.12421821836E+02  0.12421821836E+02  0.00000000000E+00 0. -1.
          2   -1    0    0  502    0 -0.00000000000E+00 -0.00000000000E+00 -0.33548310908E+03  0.33548310908E+03  0.00000000000E+00 0. -1.
         24    2    1    2    0    0 -0.19686577902E+02  0.24110340940E+02 -0.15884046930E+03  0.18076024229E+03  0.80468009889E+02 0.  0.
        -13    1    3    3    0    0  0.25118589615E+02  0.28411334312E+02 -0.48312720321E+02  0.61418778940E+02  0.00000000000E+00 0.  1.
         14    1    3    3    0    0 -0.44805167516E+02 -0.43009933715E+01 -0.11052774898E+03  0.11934146335E+03  0.00000000000E+00 0. -1.
          1    1    1    2  501    0  0.19686577902E+02 -0.24110340940E+02 -0.16422081793E+03  0.16714468862E+03  0.00000000000E+00 0. -1.
<mgrwt>
<rscale>  1 0.86278448E+02</rscale>
<asrwt>0</asrwt>
<pdfrwt beam="1">  1       21 0.19110496E-02 0.86278448E+02</pdfrwt>
<pdfrwt beam="2">  1        2 0.51612783E-01 0.86278448E+02</pdfrwt>
<totfact> 0.14763491E+06</totfact>
</mgrwt>
</event>
<event>
 6    2  0.7993170E+000  0.1027438E+03  0.7546771E-02  0.1274630E+00
         21   -1    0    0  501  502  0.00000000000E+00  0.00000000000E+00  0.91379665388E+01  0.91379665388E+01  0.00000000000E+00 0. -1.
          2   -1    0    0  502    0 -0.00000000000E+00 -0.00000000000E+00 -0.50216164597E+03  0.50216164597E+03  0.00000000000E+00 0. -1.
         24    2    1    2    0    0  0.23412685536E+01 -0.28039997578E+02 -0.43278118445E+03  0.44480990500E+03  0.98815863969E+02 0.  0.
        -13    1    3    3    0    0 -0.17992374866E+02  0.93204863083E+01 -0.15879743577E+02  0.25744189139E+02  0.00000000000E+00 0.  1.
         14    1    3    3    0    0  0.20333643419E+02 -0.37360483886E+02 -0.41690144087E+03  0.41906571586E+03  0.00000000000E+00 0. -1.
          1    1    1    2  501    0 -0.23412685536E+01  0.28039997578E+02 -0.60242494976E+02  0.66489707501E+02  0.00000000000E+00 0. -1.
<mgrwt>
<rscale>  1 0.10274385E+03</rscale>
<asrwt>0</asrwt>
<pdfrwt beam="1">  1       21 0.14058409E-02 0.10274385E+03</pdfrwt>
<pdfrwt beam="2">  1        2 0.77255644E-01 0.10274385E+03</pdfrwt>
<totfact> 0.15984494E+06</totfact>
</mgrwt>
</event>
<event>
 6    2  0.7993170E+000  0.8079194E+02  0.7546771E-02  0.1326819E+00
          2   -1    0    0  502    0 -0.00000000000E+00  0.00000000000E+00  0.24659040193E+04  0.24659040193E+04  0.00000000000E+00 0. -1.
         21   -1    0    0  501  502  0.00000000000E+00 -0.00000000000E+00 -0.26569586322E+01  0.26569586322E+01  0.00000000000E+00 0. -1.
         24    2    1    2    0    0  0.76726288574E+01  0.19829475603E+02  0.24081320954E+04  0.24094869842E+04  0.77943960144E+02 0.  0.
        -11    1    3    3    0    0  0.42172830127E+01 -0.59804266937E+01  0.21470366670E+02  0.22683201370E+02  0.00000000000E+00 0.  1.
         12    1    3    3    0    0  0.34553458447E+01  0.25809902297E+02  0.23866617287E+04  0.23868037829E+04  0.00000000000E+00 0. -1.
          1    1    1    2  501    0 -0.76726288574E+01 -0.19829475603E+02  0.55114965313E+02  0.59073993751E+02  0.00000000000E+00 0. -1.
<mgrwt>
<rscale>  1 0.80791944E+02</rscale>
<asrwt>0</asrwt>
<pdfrwt beam="1">  1       21 0.40876484E-03 0.80791944E+02</pdfrwt>
<pdfrwt beam="2">  1        2 0.37936802E+00 0.80791944E+02</pdfrwt>
<totfact> 0.82066591E+05</totfact>
</mgrwt>
</event>
<event>
 6    2  0.7993170E+000  0.8330494E+02  0.7546771E-02  0.1319926E+00
         21   -1    0    0  501  502  0.00000000000E+00  0.00000000000E+00  0.54787060558E+02  0.54787060558E+02  0.00000000000E+00 0.  1.
          4   -1    0    0  502    0 -0.00000000000E+00 -0.00000000000E+00 -0.71999521881E+02  0.71999521881E+02  0.00000000000E+00 0. -1.
         24    2    1    2    0    0  0.77402312806E+01 -0.25075910296E+02 -0.39649415925E+02  0.92259355656E+02  0.79063266220E+02 0.  0.
        -11    1    3    3    0    0 -0.15877172559E+02 -0.32241158910E+02  0.95768073482E+01  0.37192636036E+02  0.00000000000E+00 0.  1.
         12    1    3    3    0    0  0.23617403840E+02  0.71652486142E+01 -0.49226223274E+02  0.55066719619E+02  0.00000000000E+00 0. -1.
          3    1    1    2  501    0 -0.77402312806E+01  0.25075910296E+02  0.22436954603E+02  0.34527226783E+02  0.00000000000E+00 0. -1.
<mgrwt>
<rscale>  1 0.83304937E+02</rscale>
<asrwt>0</asrwt>
<pdfrwt beam="1">  1       21 0.84287786E-02 0.83304937E+02</pdfrwt>
<pdfrwt beam="2">  1        4 0.11076849E-01 0.83304937E+02</pdfrwt>
<totfact> 0.25610382E+05</totfact>
</mgrwt>
</event>
<event>
 6    2  0.7993170E+000  0.8355502E+02  0.7546771E-02  0.1319255E+00
         21   -1    0    0  501  502  0.00000000000E+00  0.00000000000E+00  0.33301568332E+01  0.33301568332E+01  0.00000000000E+00 0. -1.
         -3   -1    0    0    0  501 -0.00000000000E+00 -0.00000000000E+00 -0.10189311673E+04  0.10189311673E+04  0.00000000000E+00 0.  1.
         24    2    1    2    0    0 -0.84505935448E+01  0.20027588496E+02 -0.56589274583E+03  0.57202800672E+03  0.80677901864E+02 0.  0.
        -11    1    3    3    0    0  0.33883674174E+02  0.21534982881E+02 -0.23044774843E+03  0.23391883982E+03  0.00000000000E+00 0.  1.
         12    1    3    3    0    0 -0.42334267719E+02 -0.15073943848E+01 -0.33544499740E+03  0.33810916690E+03  0.00000000000E+00 0. -1.
         -4    1    1    2    0  502  0.84505935448E+01 -0.20027588496E+02 -0.44970826462E+03  0.45023331740E+03  0.00000000000E+00 0.  1.
<mgrwt>
<rscale>  1 0.83555016E+02</rscale>
<asrwt>0</asrwt>
<pdfrwt beam="1">  1       21 0.51233020E-03 0.83555016E+02</pdfrwt>
<pdfrwt beam="2">  1       -3 0.15675914E+00 0.83555016E+02</pdfrwt>
<totfact> 0.14665924E+05</totfact>
</mgrwt>
</event>
<event>
 6    2  0.7993170E+000  0.9135781E+02  0.7546771E-02  0.1299596E+00
         21   -1    0    0  501  502  0.00000000000E+00  0.00000000000E+00  0.29546527263E+01  0.29546527263E+01  0.00000000000E+00 0. -1.
          2   -1    0    0  502    0 -0.00000000000E+00 -0.00000000000E+00 -0.13730639807E+04  0.13730639807E+04  0.00000000000E+00 0. -1.
         24    2    1    2    0    0 -0.34200369310E+02 -0.59487552861E+01 -0.89815853184E+03  0.90279288716E+03  0.84505596584E+02 0.  0.
        -13    1    3    3    0    0  0.27081797736E+02  0.79744200410E+01 -0.31228625320E+03  0.31355975361E+03  0.00000000000E+00 0.  1.
         14    1    3    3    0    0 -0.61282167045E+02 -0.13923175327E+02 -0.58587227863E+03  0.58923313356E+03  0.00000000000E+00 0. -1.
          1    1    1    2  501    0  0.34200369310E+02  0.59487552861E+01 -0.47195079617E+03  0.47322574630E+03  0.00000000000E+00 0. -1.
<mgrwt>
<rscale>  1 0.91357806E+02</rscale>
<asrwt>0</asrwt>
<pdfrwt beam="1">  1       21 0.45456074E-03 0.91357806E+02</pdfrwt>
<pdfrwt beam="2">  1        2 0.21124118E+00 0.91357806E+02</pdfrwt>
<totfact> 0.25170393E+06</totfact>
</mgrwt>
</event>
<event>
 6    2  0.7993170E+000  0.1053956E+03  0.7546771E-02  0.1269342E+00
          2   -1    0    0  502    0 -0.00000000000E+00  0.00000000000E+00  0.37361983195E+03  0.37361983195E+03  0.00000000000E+00 0. -1.
         21   -1    0    0  501  502  0.00000000000E+00 -0.00000000000E+00 -0.13554405234E+02  0.13554405234E+02  0.00000000000E+00 0.  1.
         24    2    1    2    0    0 -0.20492956049E+02 -0.29579057541E+02  0.28670462074E+03  0.30546322357E+03  0.99062402084E+02 0.  0.
        -13    1    3    3    0    0 -0.59291127292E+02 -0.28654316914E+02  0.16248335465E+03  0.17532070098E+03  0.00000000000E+00 0.  1.
         14    1    3    3    0    0  0.38798171243E+02 -0.92474062666E+00  0.12422126608E+03  0.13014252258E+03  0.00000000000E+00 0. -1.
          1    1    1    2  501    0  0.20492956049E+02  0.29579057541E+02  0.73360805979E+02  0.81711013618E+02  0.00000000000E+00 0. -1.
<mgrwt>
<rscale>  1 0.10539564E+03</rscale>
<asrwt>0</asrwt>
<pdfrwt beam="1">  1       21 0.20852934E-02 0.10539564E+03</pdfrwt>
<pdfrwt beam="2">  1        2 0.57479966E-01 0.10539564E+03</pdfrwt>
<totfact> 0.11709787E+06</totfact>
</mgrwt>
</event>
<event>
 6    2  0.7993170E+000  0.8892978E+02  0.7546771E-02  0.1305464E+00
         21   -1    0    0  501  502  0.00000000000E+00  0.00000000000E+00  0.32867319995E+02  0.32867319995E+02  0.00000000000E+00 0. -1.
         -1   -1    0    0    0  501 -0.00000000000E+00 -0.00000000000E+00 -0.11615420712E+03  0.11615420712E+03  0.00000000000E+00 0.  1.
         24    2    1    2    0    0 -0.20336520543E+02  0.26765389293E+02 -0.68713598820E+02  0.11238355687E+03  0.82331920053E+02 0.  0.
        -11    1    3    3    0    0 -0.11672873568E+02  0.52118250072E+02 -0.66794890843E+02  0.85522660217E+02  0.00000000000E+00 0.  1.
         12    1    3    3    0    0 -0.86636469748E+01 -0.25352860779E+02 -0.19187079766E+01  0.26860896650E+02  0.00000000000E+00 0. -1.
         -2    1    1    2    0  502  0.20336520543E+02 -0.26765389293E+02 -0.14573288306E+02  0.36637970248E+02  0.00000000000E+00 0.  1.
<mgrwt>
<rscale>  1 0.88929777E+02</rscale>
<asrwt>0</asrwt>
<pdfrwt beam="1">  1       21 0.50565109E-02 0.88929777E+02</pdfrwt>
<pdfrwt beam="2">  1       -1 0.17869878E-01 0.88929777E+02</pdfrwt>
<totfact> 0.53801684E+05</totfact>
</mgrwt>
</event>
<event>
 6    2  0.7993170E+000  0.6698245E+02  0.7546771E-02  0.1370666E+00
          2   -1    0    0  502    0 -0.00000000000E+00  0.00000000000E+00  0.24935135017E+04  0.24935135017E+04  0.00000000000E+00 0. -1.
         21   -1    0    0  501  502  0.00000000000E+00 -0.00000000000E+00 -0.10780420961E+01  0.10780420961E+01  0.00000000000E+00 0. -1.
         24    2    1    2    0    0  0.26077135823E+02 -0.23419315786E+02  0.18354459853E+04  0.18366678014E+04  0.57080352607E+02 0.  0.
        -11    1    3    3    0    0 -0.81950080218E+00  0.15196384906E+02  0.21466620410E+03  0.21520497410E+03  0.00000000000E+00 0.  1.
         12    1    3    3    0    0  0.26896636625E+02 -0.38615700692E+02  0.16207797812E+04  0.16214628273E+04  0.00000000000E+00 0. -1.
          1    1    1    2  501    0 -0.26077135823E+02  0.23419315786E+02  0.65698947433E+03  0.65792374235E+03  0.00000000000E+00 0. -1.
<mgrwt>
<rscale>  1 0.66982446E+02</rscale>
<asrwt>0</asrwt>
<pdfrwt beam="1">  1       21 0.16585463E-03 0.66982446E+02</pdfrwt>
<pdfrwt beam="2">  1        2 0.38361284E+00 0.66982446E+02</pdfrwt>
<totfact> 0.30432986E+06</totfact>
</mgrwt>
</event>
<event>
 6    2  0.7993170E+000  0.8743270E+02  0.7546771E-02  0.1309191E+00
         21   -1    0    0  501  502  0.00000000000E+00  0.00000000000E+00  0.19847775741E+03  0.19847775741E+03  0.00000000000E+00 0.  1.
         -3   -1    0    0    0  501 -0.00000000000E+00 -0.00000000000E+00 -0.47838484934E+02  0.47838484934E+02  0.00000000000E+00 0.  1.
         24    2    1    2    0    0 -0.26268504544E+02 -0.15900162269E+01 -0.58513228060E+01  0.87628281571E+02  0.83378146237E+02 0.  0.
        -11    1    3    3    0    0 -0.27855627588E+02 -0.39925383575E+02 -0.73326235403E+01  0.49231490023E+02  0.00000000000E+00 0.  1.
         12    1    3    3    0    0  0.15871230444E+01  0.38335367348E+02  0.14813007343E+01  0.38396791547E+02  0.00000000000E+00 0. -1.
         -4    1    1    2    0  502  0.26268504544E+02  0.15900162269E+01  0.15649059528E+03  0.15868796077E+03  0.00000000000E+00 0.  1.
<mgrwt>
<rscale>  1 0.87432704E+02</rscale>
<asrwt>0</asrwt>
<pdfrwt beam="1">  1       21 0.30535039E-01 0.87432704E+02</pdfrwt>
<pdfrwt beam="2">  1       -3 0.73597670E-02 0.87432704E+02</pdfrwt>
<totfact> 0.57533459E+04</totfact>
</mgrwt>
</event>
<event>
 6    2  0.7993170E+000  0.8210457E+02  0.7546771E-02  0.1323183E+00
         21   -1    0    0  501  502  0.00000000000E+00  0.00000000000E+00  0.61987699888E+02  0.61987699888E+02  0.00000000000E+00 0. -1.
         -1   -1    0    0    0  501 -0.00000000000E+00 -0.00000000000E+00 -0.83434007100E+02  0.83434007100E+02  0.00000000000E+00 0.  1.
         24    2    1    2    0    0  0.23164051439E+01  0.20645536160E+02 -0.59956015451E+02  0.10166554714E+03  0.79432712343E+02 0.  0.
        -13    1    3    3    0    0 -0.73524735491E+01  0.90437803963E+01 -0.77582937871E+02  0.78453560020E+02  0.00000000000E+00 0.  1.
         14    1    3    3    0    0  0.96688786930E+01  0.11601755763E+02  0.17626922420E+02  0.23211987118E+02  0.00000000000E+00 0. -1.
         -2    1    1    2    0  502 -0.23164051439E+01 -0.20645536160E+02  0.38509708239E+02  0.43756159849E+02  0.00000000000E+00 0.  1.
<mgrwt>
<rscale>  1 0.82104566E+02</rscale>
<asrwt>0</asrwt>
<pdfrwt beam="1">  1       21 0.95365692E-02 0.82104566E+02</pdfrwt>
<pdfrwt beam="2">  1       -1 0.12836001E-01 0.82104566E+02</pdfrwt>
<totfact> 0.30443611E+05</totfact>
</mgrwt>
</event>
<event>
 6    2  0.7993170E+000  0.9445355E+02  0.7546771E-02  0.1292412E+00
         21   -1    0    0  501  502  0.00000000000E+00  0.00000000000E+00  0.67628240511E+01  0.67628240511E+01  0.00000000000E+00 0. -1.
          2   -1    0    0  502    0 -0.00000000000E+00 -0.00000000000E+00 -0.13859595710E+04  0.13859595710E+04  0.00000000000E+00 0. -1.
         24    2    1    2    0    0 -0.48725499920E+02 -0.22879841183E+01 -0.35456666952E+03  0.36693186829E+03  0.80883024307E+02 0.  0.
        -13    1    3    3    0    0 -0.33901809150E+02 -0.20925081711E+02 -0.33113640126E+03  0.33352437384E+03  0.00000000000E+00 0.  1.
         14    1    3    3    0    0 -0.14823690769E+02  0.18637097593E+02 -0.23430268260E+02  0.33407494450E+02  0.00000000000E+00 0. -1.
          1    1    1    2  501    0  0.48725499920E+02  0.22879841183E+01 -0.10246300774E+04  0.10257905268E+04  0.00000000000E+00 0. -1.
<mgrwt>
<rscale>  1 0.94453549E+02</rscale>
<asrwt>0</asrwt>
<pdfrwt beam="1">  1       21 0.10404347E-02 0.94453549E+02</pdfrwt>
<pdfrwt beam="2">  1        2 0.21322451E+00 0.94453549E+02</pdfrwt>
<totfact> 0.68995762E+05</totfact>
</mgrwt>
</event>
<event>
 6    2  0.7993170E+000  0.1030794E+03  0.7546771E-02  0.1273951E+00
         21   -1    0    0  501  502  0.00000000000E+00  0.00000000000E+00  0.29877723223E+02  0.29877723223E+02  0.00000000000E+00 0. -1.
          2   -1    0    0  502    0 -0.00000000000E+00 -0.00000000000E+00 -0.23859531346E+03  0.23859531346E+03  0.00000000000E+00 0. -1.
         24    2    1    2    0    0  0.63417723528E+02  0.10250667291E+02 -0.14576124777E+03  0.17852646980E+03  0.80613120707E+02 0.  0.
        -11    1    3    3    0    0  0.24332385922E+02  0.53085535830E+01  0.25845444836E+01  0.25038482702E+02  0.00000000000E+00 0.  1.
         12    1    3    3    0    0  0.39085337605E+02  0.49421137084E+01 -0.14834579226E+03  0.15348798710E+03  0.00000000000E+00 0. -1.
          1    1    1    2  501    0 -0.63417723528E+02 -0.10250667291E+02 -0.62956342465E+02  0.89946566882E+02  0.00000000000E+00 0. -1.
<mgrwt>
<rscale>  1 0.10307938E+03</rscale>
<asrwt>0</asrwt>
<pdfrwt beam="1">  1       21 0.45965728E-02 0.10307938E+03</pdfrwt>
<pdfrwt beam="2">  1        2 0.36706972E-01 0.10307938E+03</pdfrwt>
<totfact> 0.51476593E+05</totfact>
</mgrwt>
</event>
<event>
 6    2  0.7993170E+000  0.8387245E+02  0.7546771E-02  0.1318408E+00
         21   -1    0    0  501  502  0.00000000000E+00  0.00000000000E+00  0.73167155402E+01  0.73167155402E+01  0.00000000000E+00 0. -1.
          2   -1    0    0  502    0 -0.00000000000E+00 -0.00000000000E+00 -0.57343543754E+03  0.57343543754E+03  0.00000000000E+00 0. -1.
         24    2    1    2    0    0 -0.20641502670E+02 -0.13559900405E+02 -0.53234627389E+03  0.53891292767E+03  0.80153887958E+02 0.  0.
        -11    1    3    3    0    0  0.27214850667E+02  0.11562850609E+00 -0.97484446613E+02  0.10121204868E+03  0.00000000000E+00 0.  1.
         12    1    3    3    0    0 -0.47856353337E+02 -0.13675528911E+02 -0.43486182728E+03  0.43770087899E+03  0.00000000000E+00 0. -1.
          1    1    1    2  501    0  0.20641502670E+02  0.13559900405E+02 -0.33772448105E+02  0.41839225405E+02  0.00000000000E+00 0. -1.
<mgrwt>
<rscale>  1 0.83872452E+02</rscale>
<asrwt>0</asrwt>
<pdfrwt beam="1">  1       21 0.11256486E-02 0.83872452E+02</pdfrwt>
<pdfrwt beam="2">  1        2 0.88220829E-01 0.83872452E+02</pdfrwt>
<totfact> 0.19198230E+06</totfact>
</mgrwt>
</event>
<event>
 6    2  0.7993170E+000  0.8685796E+02  0.7546771E-02  0.1310644E+00
         21   -1    0    0  501  502  0.00000000000E+00  0.00000000000E+00  0.24464477946E+01  0.24464477946E+01  0.00000000000E+00 0. -1.
          2   -1    0    0  502    0 -0.00000000000E+00 -0.00000000000E+00 -0.15912680932E+04  0.15912680932E+04  0.00000000000E+00 0. -1.
         24    2    1    2    0    0 -0.26482008402E+02  0.66558668727E+01 -0.14239870977E+04  0.14266336460E+04  0.82454280310E+02 0.  0.
        -11    1    3    3    0    0  0.11459760961E+02 -0.41879767701E+01 -0.34634265890E+02  0.36720534371E+02  0.00000000000E+00 0.  1.
         12    1    3    3    0    0 -0.37941769364E+02  0.10843843643E+02 -0.13893528318E+04  0.13899131117E+04  0.00000000000E+00 0. -1.
          1    1    1    2  501    0  0.26482008402E+02 -0.66558668727E+01 -0.16483454778E+03  0.16708089500E+03  0.00000000000E+00 0. -1.
<mgrwt>
<rscale>  1 0.86857963E+02</rscale>
<asrwt>0</asrwt>
<pdfrwt beam="1">  1       21 0.37637603E-03 0.86857963E+02</pdfrwt>
<pdfrwt beam="2">  1        2 0.24481084E+00 0.86857963E+02</pdfrwt>
<totfact> 0.25834588E+06</totfact>
</mgrwt>
</event>
<event>
 6    2  0.7993170E+000  0.8295410E+02  0.7546771E-02  0.1320871E+00
          2   -1    0    0  502    0 -0.00000000000E+00  0.00000000000E+00  0.29901799902E+04  0.29901799902E+04  0.00000000000E+00 0. -1.
         21   -1    0    0  501  502  0.00000000000E+00 -0.00000000000E+00 -0.19192587779E+02  0.19192587779E+02  0.00000000000E+00 0. -1.
         24    2    1    2    0    0  0.10634721055E+02 -0.20081878300E+02  0.29826686763E+04  0.29838220147E+04  0.79780975304E+02 0.  0.
        -13    1    3    3    0    0 -0.15318830938E+02 -0.70153506416E+01  0.14076124223E+03  0.14176603627E+03  0.00000000000E+00 0.  1.
         14    1    3    3    0    0  0.25953551993E+02 -0.13066527658E+02  0.28419074340E+04  0.28420559784E+04  0.00000000000E+00 0. -1.
          1    1    1    2  501    0 -0.10634721055E+02  0.20081878300E+02 -0.11681273795E+02  0.25550563310E+02  0.00000000000E+00 0. -1.
<mgrwt>
<rscale>  1 0.82954103E+02</rscale>
<asrwt>0</asrwt>
<pdfrwt beam="1">  1       21 0.29527082E-02 0.82954103E+02</pdfrwt>
<pdfrwt beam="2">  1        2 0.46002732E+00 0.82954103E+02</pdfrwt>
<totfact> 0.19299094E+04</totfact>
</mgrwt>
</event>
<event>
 6    2  0.7993170E+000  0.5922253E+02  0.7546771E-02  0.1401124E+00
         21   -1    0    0  501  502  0.00000000000E+00  0.00000000000E+00  0.27916768350E+03  0.27916768350E+03  0.00000000000E+00 0. -1.
         -1   -1    0    0    0  501 -0.00000000000E+00 -0.00000000000E+00 -0.75862494162E+01  0.75862494162E+01  0.00000000000E+00 0.  1.
         24    2    1    2    0    0 -0.29613810540E+02  0.19531829829E+01  0.21305384098E+03  0.22113174267E+03  0.51249543999E+02 0.  0.
        -13    1    3    3    0    0  0.35360689616E+01  0.19114401896E+02  0.45647573204E+02  0.49614162121E+02  0.00000000000E+00 0.  1.
         14    1    3    3    0    0 -0.33149879502E+02 -0.17161218913E+02  0.16740626778E+03  0.17151758055E+03  0.00000000000E+00 0. -1.
         -2    1    1    2    0  502  0.29613810540E+02 -0.19531829829E+01  0.58527593094E+02  0.65622190240E+02  0.00000000000E+00 0.  1.
<mgrwt>
<rscale>  1 0.59222533E+02</rscale>
<asrwt>0</asrwt>
<pdfrwt beam="1">  1       21 0.42948866E-01 0.59222533E+02</pdfrwt>
<pdfrwt beam="2">  1       -1 0.11671155E-02 0.59222533E+02</pdfrwt>
<totfact> 0.60086394E+05</totfact>
</mgrwt>
</event>
<event>
 6    2  0.7993170E+000  0.8893396E+02  0.7546771E-02  0.1305454E+00
          2   -1    0    0  502    0 -0.00000000000E+00  0.00000000000E+00  0.22251709120E+04  0.22251709120E+04  0.00000000000E+00 0. -1.
         21   -1    0    0  501  502  0.00000000000E+00 -0.00000000000E+00 -0.62095232578E+01  0.62095232578E+01  0.00000000000E+00 0. -1.
         24    2    1    2    0    0 -0.89394658143E+00  0.36990123888E+02  0.21596077595E+04  0.21614381612E+04  0.80871386027E+02 0.  0.
        -11    1    3    3    0    0  0.37984193045E+01 -0.14291768815E+02  0.91333336931E+02  0.92522759795E+02  0.00000000000E+00 0.  1.
         12    1    3    3    0    0 -0.46923658860E+01  0.51281892703E+02  0.20682744226E+04  0.20689154014E+04  0.00000000000E+00 0. -1.
          1    1    1    2  501    0  0.89394658143E+00 -0.36990123888E+02  0.59353629213E+02  0.69942274101E+02  0.00000000000E+00 0. -1.
<mgrwt>
<rscale>  1 0.88933961E+02</rscale>
<asrwt>0</asrwt>
<pdfrwt beam="1">  1       21 0.95531305E-03 0.88933961E+02</pdfrwt>
<pdfrwt beam="2">  1        2 0.34233335E+00 0.88933961E+02</pdfrwt>
<totfact> 0.29602254E+05</totfact>
</mgrwt>
</event>
<event>
 6    2  0.7993170E+000  0.8660666E+02  0.7546771E-02  0.1311284E+00
         21   -1    0    0  501  502  0.00000000000E+00  0.00000000000E+00  0.10277011789E+03  0.10277011789E+03  0.00000000000E+00 0.  1.
          4   -1    0    0  502    0 -0.00000000000E+00 -0.00000000000E+00 -0.30204895172E+02  0.30204895172E+02  0.00000000000E+00 0. -1.
         24    2    1    2    0    0  0.10515008112E+02 -0.22419030043E+02  0.58236793067E+02  0.10436588515E+03  0.82991177922E+02 0.  0.
        -11    1    3    3    0    0  0.17377050206E+02 -0.15170396473E+02  0.78477718344E+02  0.81797647151E+02  0.00000000000E+00 0.  1.
         12    1    3    3    0    0 -0.68620420944E+01 -0.72486335698E+01 -0.20240925277E+02  0.22568237999E+02  0.00000000000E+00 0. -1.
          3    1    1    2  501    0 -0.10515008112E+02  0.22419030043E+02  0.14328429654E+02  0.28609127914E+02  0.00000000000E+00 0. -1.
<mgrwt>
<rscale>  1 0.86606662E+02</rscale>
<asrwt>0</asrwt>
<pdfrwt beam="1">  1       21 0.15810787E-01 0.86606662E+02</pdfrwt>
<pdfrwt beam="2">  1        4 0.46469070E-02 0.86606662E+02</pdfrwt>
<totfact> 0.35378116E+05</totfact>
</mgrwt>
</event>
<event>
 6    2  0.7993170E+000  0.1171676E+03  0.7546771E-02  0.1247844E+00
         -1   -1    0    0    0  501 -0.00000000000E+00  0.00000000000E+00  0.56782389050E+03  0.56782389050E+03  0.00000000000E+00 0.  1.
         21   -1    0    0  501  502  0.00000000000E+00 -0.00000000000E+00 -0.26187480420E+02  0.26187480420E+02  0.00000000000E+00 0.  1.
         24    2    1    2    0    0 -0.72577210728E+02 -0.44286227235E+02  0.46504527972E+03  0.47957832198E+03  0.80619682984E+02 0.  0.
        -11    1    3    3    0    0 -0.84601086198E+02 -0.15797201913E+02  0.35356500696E+03  0.36388886974E+03  0.00000000000E+00 0.  1.
         12    1    3    3    0    0  0.12023875470E+02 -0.28489025322E+02  0.11148027276E+03  0.11568945224E+03  0.00000000000E+00 0. -1.
         -2    1    1    2    0  502  0.72577210728E+02  0.44286227235E+02  0.76591130364E+02  0.11443304894E+03  0.00000000000E+00 0.  1.
<mgrwt>
<rscale>  1 0.11716764E+03</rscale>
<asrwt>0</asrwt>
<pdfrwt beam="1">  1       21 0.40288436E-02 0.11716764E+03</pdfrwt>
<pdfrwt beam="2">  1       -1 0.87357512E-01 0.11716764E+03</pdfrwt>
<totfact> 0.48450480E+04</totfact>
</mgrwt>
</event>
<event>
 6    2  0.7993170E+000  0.9049226E+02  0.7546771E-02  0.1301664E+00
          2   -1    0    0  502    0 -0.00000000000E+00  0.00000000000E+00  0.16737436300E+04  0.16737436300E+04  0.00000000000E+00 0. -1.
         21   -1    0    0  501  502  0.00000000000E+00 -0.00000000000E+00 -0.25791855302E+01  0.25791855302E+01  0.00000000000E+00 0. -1.
         24    2    1    2    0    0  0.38059396199E+02 -0.10666349651E+02  0.12682375391E+04  0.12714618768E+04  0.81403684629E+02 0.  0.
        -13    1    3    3    0    0  0.18640463667E+02 -0.42027874594E+02  0.43824583695E+03  0.44065090801E+03  0.00000000000E+00 0.  1.
         14    1    3    3    0    0  0.19418932532E+02  0.31361524944E+02  0.82999170213E+03  0.83081096875E+03  0.00000000000E+00 0. -1.
          1    1    1    2  501    0 -0.38059396199E+02  0.10666349651E+02  0.40292690537E+03  0.40486093875E+03  0.00000000000E+00 0. -1.
<mgrwt>
<rscale>  1 0.90492257E+02</rscale>
<asrwt>0</asrwt>
<pdfrwt beam="1">  1       21 0.39679911E-03 0.90492257E+02</pdfrwt>
<pdfrwt beam="2">  1        2 0.25749815E+00 0.90492257E+02</pdfrwt>
<totfact> 0.21733495E+06</totfact>
</mgrwt>
</event>
<event>
 6    2  0.7993170E+000  0.1095670E+03  0.7546771E-02  0.1261374E+00
         -1   -1    0    0    0  501 -0.00000000000E+00  0.00000000000E+00  0.10615420800E+03  0.10615420800E+03  0.00000000000E+00 0.  1.
         21   -1    0    0  501  502  0.00000000000E+00 -0.00000000000E+00 -0.83694112542E+02  0.83694112542E+02  0.00000000000E+00 0. -1.
         24    2    1    2    0    0 -0.74084520489E+02  0.75482549996E+01 -0.69404067304E+01  0.10978658275E+03  0.80370592737E+02 0.  0.
        -11    1    3    3    0    0  0.51762387031E+01 -0.23022779536E+02 -0.77284610941E+01  0.24830846452E+02  0.00000000000E+00 0.  1.
         12    1    3    3    0    0 -0.79260759192E+02  0.30571034535E+02  0.78805436371E+00  0.84955736298E+02  0.00000000000E+00 0. -1.
         -2    1    1    2    0  502  0.74084520489E+02 -0.75482549996E+01  0.29400502193E+02  0.80061737795E+02  0.00000000000E+00 0.  1.
<mgrwt>
<rscale>  1 0.10956699E+03</rscale>
<asrwt>0</asrwt>
<pdfrwt beam="1">  1       21 0.12876017E-01 0.10956699E+03</pdfrwt>
<pdfrwt beam="2">  1       -1 0.16331417E-01 0.10956699E+03</pdfrwt>
<totfact> 0.12701142E+05</totfact>
</mgrwt>
</event>
<event>
 6    2  0.7993170E+000  0.1058018E+03  0.7546771E-02  0.1268548E+00
         21   -1    0    0  501  502  0.00000000000E+00  0.00000000000E+00  0.29021637309E+02  0.29021637309E+02  0.00000000000E+00 0.  1.
          2   -1    0    0  502    0 -0.00000000000E+00 -0.00000000000E+00 -0.21232240162E+03  0.21232240162E+03  0.00000000000E+00 0. -1.
         24    2    1    2    0    0 -0.46504936086E+02  0.20741612434E+02 -0.11696157760E+03  0.15771502925E+03  0.92742095349E+02 0.  0.
        -11    1    3    3    0    0 -0.36554128560E+02  0.21644767643E+02 -0.22205264193E+01  0.42539758094E+02  0.00000000000E+00 0.  1.
         12    1    3    3    0    0 -0.99508075259E+01 -0.90315520874E+00 -0.11474105118E+03  0.11517527115E+03  0.00000000000E+00 0. -1.
          1    1    1    2  501    0  0.46504936086E+02 -0.20741612434E+02 -0.66339186716E+02  0.83629009685E+02  0.00000000000E+00 0. -1.
<mgrwt>
<rscale>  1 0.10580179E+03</rscale>
<asrwt>0</asrwt>
<pdfrwt beam="1">  1       21 0.44648674E-02 0.10580179E+03</pdfrwt>
<pdfrwt beam="2">  1        2 0.32664984E-01 0.10580179E+03</pdfrwt>
<totfact> 0.61295054E+05</totfact>
</mgrwt>
</event>
<event>
 6    2  0.7993170E+000  0.8434876E+02  0.7546771E-02  0.1317144E+00
         21   -1    0    0  501  502  0.00000000000E+00  0.00000000000E+00  0.65276665697E+02  0.65276665697E+02  0.00000000000E+00 0.  1.
         -1   -1    0    0    0  501 -0.00000000000E+00 -0.00000000000E+00 -0.17163230149E+03  0.17163230149E+03  0.00000000000E+00 0.  1.
         24    2    1    2    0    0  0.66389549520E+01 -0.21839785066E+02 -0.15874489966E+03  0.17976277832E+03  0.81201363075E+02 0.  0.
        -11    1    3    3    0    0  0.21975117385E+02 -0.37002624338E+02 -0.15073292845E+03  0.15675623021E+03  0.00000000000E+00 0.  1.
         12    1    3    3    0    0 -0.15336162433E+02  0.15162839272E+02 -0.80119712131E+01  0.23006548104E+02  0.00000000000E+00 0. -1.
         -2    1    1    2    0  502 -0.66389549520E+01  0.21839785066E+02  0.52389263864E+02  0.57146188874E+02  0.00000000000E+00 0.  1.
<mgrwt>
<rscale>  1 0.84348760E+02</rscale>
<asrwt>0</asrwt>
<pdfrwt beam="1">  1       21 0.10042564E-01 0.84348760E+02</pdfrwt>
<pdfrwt beam="2">  1       -1 0.26404969E-01 0.84348760E+02</pdfrwt>
<totfact> 0.89589492E+04</totfact>
</mgrwt>
</event>
<event>
 6    2  0.7993170E+000  0.9522920E+02  0.7546771E-02  0.1290661E+00
         21   -1    0    0  501  502  0.00000000000E+00  0.00000000000E+00  0.64372909581E+03  0.64372909581E+03  0.00000000000E+00 0. -1.
          2   -1    0    0  502    0 -0.00000000000E+00 -0.00000000000E+00 -0.29482799594E+02  0.29482799594E+02  0.00000000000E+00 0. -1.
         24    2    1    2    0    0 -0.92928877369E+01  0.53763560149E+02  0.52344031483E+02  0.10866691644E+03  0.78049490288E+02 0.  0.
        -11    1    3    3    0    0 -0.60293546067E+01 -0.50477176045E+01  0.49046586183E+02  0.49672932128E+02  0.00000000000E+00 0.  1.
         12    1    3    3    0    0 -0.32635331301E+01  0.58811277753E+02  0.32974452998E+01  0.58993984312E+02  0.00000000000E+00 0. -1.
          1    1    1    2  501    0  0.92928877369E+01 -0.53763560149E+02  0.56190226473E+03  0.56454497896E+03  0.00000000000E+00 0. -1.
<mgrwt>
<rscale>  1 0.95229203E+02</rscale>
<asrwt>0</asrwt>
<pdfrwt beam="1">  1       21 0.99035235E-01 0.95229203E+02</pdfrwt>
<pdfrwt beam="2">  1        2 0.45358158E-02 0.95229203E+02</pdfrwt>
<totfact> 0.18146851E+04</totfact>
</mgrwt>
</event>
<event>
 6    2  0.7993170E+000  0.7988884E+02  0.7546771E-02  0.1329367E+00
         21   -1    0    0  501  502  0.00000000000E+00  0.00000000000E+00  0.68521675954E+01  0.68521675954E+01  0.00000000000E+00 0. -1.
          2   -1    0    0  502    0 -0.00000000000E+00 -0.00000000000E+00 -0.56291217056E+03  0.56291217056E+03  0.00000000000E+00 0. -1.
         24    2    1    2    0    0 -0.20552954139E+02  0.25463985303E+02 -0.48494909523E+03  0.49148535202E+03  0.72879268759E+02 0.  0.
        -13    1    3    3    0    0  0.44087054163E+00 -0.14358362314E+02 -0.21514864306E+02  0.25869795540E+02  0.00000000000E+00 0.  1.
         14    1    3    3    0    0 -0.20993824681E+02  0.39822347618E+02 -0.46343423093E+03  0.46561555648E+03  0.00000000000E+00 0. -1.
          1    1    1    2  501    0  0.20552954139E+02 -0.25463985303E+02 -0.71110907728E+02  0.78278986128E+02  0.00000000000E+00 0. -1.
<mgrwt>
<rscale>  1 0.79888837E+02</rscale>
<asrwt>0</asrwt>
<pdfrwt beam="1">  1       21 0.10541797E-02 0.79888837E+02</pdfrwt>
<pdfrwt beam="2">  1        2 0.86601869E-01 0.79888837E+02</pdfrwt>
<totfact> 0.21588418E+06</totfact>
</mgrwt>
</event>
<event>
 6    2  0.7993170E+000  0.8429827E+02  0.7546771E-02  0.1317278E+00
         21   -1    0    0  501  502  0.00000000000E+00  0.00000000000E+00  0.12689357572E+02  0.12689357572E+02  0.00000000000E+00 0. -1.
          2   -1    0    0  502    0 -0.00000000000E+00 -0.00000000000E+00 -0.10725982461E+04  0.10725982461E+04  0.00000000000E+00 0. -1.
         24    2    1    2    0    0 -0.19455098947E+02 -0.17463816160E+02 -0.10553961764E+04  0.10587574262E+04  0.80141827350E+02 0.  0.
        -13    1    3    3    0    0  0.92079605552E+01 -0.77673248615E+01 -0.23409344807E+02  0.26327082964E+02  0.00000000000E+00 0.  1.
         14    1    3    3    0    0 -0.28663059502E+02 -0.96964912984E+01 -0.10319868316E+04  0.10324303432E+04  0.00000000000E+00 0. -1.
          1    1    1    2  501    0  0.19455098947E+02  0.17463816160E+02 -0.45127121431E+01  0.26530177549E+02  0.00000000000E+00 0. -1.
<mgrwt>
<rscale>  1 0.84298270E+02</rscale>
<asrwt>0</asrwt>
<pdfrwt beam="1">  1       21 0.19522090E-02 0.84298270E+02</pdfrwt>
<pdfrwt beam="2">  1        2 0.16501510E+00 0.84298270E+02</pdfrwt>
<totfact> 0.37432730E+05</totfact>
</mgrwt>
</event>
<event>
 6    2  0.7993170E+000  0.8767550E+02  0.7546771E-02  0.1308580E+00
          2   -1    0    0  502    0 -0.00000000000E+00  0.00000000000E+00  0.64014150794E+03  0.64014150794E+03  0.00000000000E+00 0. -1.
         21   -1    0    0  501  502  0.00000000000E+00 -0.00000000000E+00 -0.12915320826E+02  0.12915320826E+02  0.00000000000E+00 0. -1.
         24    2    1    2    0    0 -0.28844794779E+02  0.10296169899E+02  0.61308517085E+03  0.61932254885E+03  0.82152051089E+02 0.  0.
        -11    1    3    3    0    0 -0.11079540537E+02  0.76357759989E+01  0.12182484557E+02  0.18151424837E+02  0.00000000000E+00 0.  1.
         12    1    3    3    0    0 -0.17765254242E+02  0.26603938996E+01  0.60090268629E+03  0.60117112401E+03  0.00000000000E+00 0. -1.
          1    1    1    2  501    0  0.28844794779E+02 -0.10296169899E+02  0.14141016262E+02  0.33734279915E+02  0.00000000000E+00 0. -1.
<mgrwt>
<rscale>  1 0.87675497E+02</rscale>
<asrwt>0</asrwt>
<pdfrwt beam="1">  1       21 0.19869729E-02 0.87675497E+02</pdfrwt>
<pdfrwt beam="2">  1        2 0.98483284E-01 0.87675497E+02</pdfrwt>
<totfact> 0.69404369E+05</totfact>
</mgrwt>
</event>
<event>
 6    2  0.7993170E+000  0.8425611E+02  0.7546771E-02  0.1317389E+00
         21   -1    0    0  501  502  0.00000000000E+00  0.00000000000E+00  0.16479633073E+01  0.16479633073E+01  0.00000000000E+00 0.  1.
          2   -1    0    0  502    0 -0.00000000000E+00 -0.00000000000E+00 -0.22769110158E+04  0.22769110158E+04  0.00000000000E+00 0. -1.
         24    2    1    2    0    0  0.66685875011E+01 -0.19772653745E+02 -0.21433720790E+04  0.21450274967E+04  0.81631273567E+02 0.  0.
        -13    1    3    3    0    0  0.31267316463E+02 -0.18031154412E+02 -0.19127847399E+04  0.19131252517E+04  0.00000000000E+00 0.  1.
         14    1    3    3    0    0 -0.24598728962E+02 -0.17414993334E+01 -0.23058733911E+03  0.23190224501E+03  0.00000000000E+00 0. -1.
          1    1    1    2  501    0 -0.66685875011E+01  0.19772653745E+02 -0.13189097353E+03  0.13353148241E+03  0.00000000000E+00 0. -1.
<mgrwt>
<rscale>  1 0.84256114E+02</rscale>
<asrwt>0</asrwt>
<pdfrwt beam="1">  1       21 0.25353292E-03 0.84256114E+02</pdfrwt>
<pdfrwt beam="2">  1        2 0.35029385E+00 0.84256114E+02</pdfrwt>
<totfact> 0.21185013E+06</totfact>
</mgrwt>
</event>
<event>
 6    2  0.7993170E+000  0.1024674E+03  0.7546771E-02  0.1275191E+00
         21   -1    0    0  501  502  0.00000000000E+00  0.00000000000E+00  0.13506661209E+02  0.13506661209E+02  0.00000000000E+00 0. -1.
          2   -1    0    0  502    0 -0.00000000000E+00 -0.00000000000E+00 -0.73440631238E+03  0.73440631238E+03  0.00000000000E+00 0. -1.
         24    2    1    2    0    0 -0.27014786249E+02 -0.50818150817E+02 -0.64270410696E+03  0.65082112911E+03  0.84777885534E+02 0.  0.
        -13    1    3    3    0    0 -0.11194400100E+02  0.80590387959E+00 -0.79000599629E+01  0.13724978035E+02  0.00000000000E+00 0.  1.
         14    1    3    3    0    0 -0.15820386149E+02 -0.51624054696E+02 -0.63480404699E+03  0.63709615108E+03  0.00000000000E+00 0. -1.
          1    1    1    2  501    0  0.27014786249E+02  0.50818150817E+02 -0.78195544216E+02  0.97091844476E+02  0.00000000000E+00 0. -1.
<mgrwt>
<rscale>  1 0.10246742E+03</rscale>
<asrwt>0</asrwt>
<pdfrwt beam="1">  1       21 0.20779472E-02 0.10246742E+03</pdfrwt>
<pdfrwt beam="2">  1        2 0.11298563E+00 0.10246742E+03</pdfrwt>
<totfact> 0.55713802E+05</totfact>
</mgrwt>
</event>
<event>
 6    2  0.7993170E+000  0.8509405E+02  0.7546771E-02  0.1315187E+00
         21   -1    0    0  501  502  0.00000000000E+00  0.00000000000E+00  0.29402541468E+03  0.29402541468E+03  0.00000000000E+00 0.  1.
          2   -1    0    0  502    0 -0.00000000000E+00 -0.00000000000E+00 -0.11710271773E+02  0.11710271773E+02  0.00000000000E+00 0. -1.
         24    2    1    2    0    0  0.69830660176E+01  0.28717424593E+02  0.17765875434E+03  0.19698637218E+03  0.79796893086E+02 0.  0.
        -11    1    3    3    0    0  0.11004553656E+02  0.51499342636E+02  0.15827142262E+03  0.16680265499E+03  0.00000000000E+00 0.  1.
         12    1    3    3    0    0 -0.40214876385E+01 -0.22781918043E+02  0.19387331722E+02  0.30183717197E+02  0.00000000000E+00 0. -1.
          1    1    1    2  501    0 -0.69830660176E+01 -0.28717424593E+02  0.10465638857E+03  0.10874931427E+03  0.00000000000E+00 0. -1.
<mgrwt>
<rscale>  1 0.85094053E+02</rscale>
<asrwt>0</asrwt>
<pdfrwt beam="1">  1       21 0.45234674E-01 0.85094053E+02</pdfrwt>
<pdfrwt beam="2">  1        2 0.18015805E-02 0.85094053E+02</pdfrwt>
<totfact> 0.33091180E+05</totfact>
</mgrwt>
</event>
<event>
 6    2  0.7993170E+000  0.8504023E+02  0.7546771E-02  0.1315327E+00
          2   -1    0    0  502    0 -0.00000000000E+00  0.00000000000E+00  0.45800968533E+02  0.45800968533E+02  0.00000000000E+00 0. -1.
         21   -1    0    0  501  502  0.00000000000E+00 -0.00000000000E+00 -0.70135674138E+02  0.70135674138E+02  0.00000000000E+00 0.  1.
         24    2    1    2    0    0  0.16995309371E+02  0.21567449482E+02 -0.12180995885E+02  0.85908188204E+02  0.80485058998E+02 0.  0.
        -11    1    3    3    0    0  0.16680156923E+02  0.51880748586E+02 -0.10838148277E+02  0.55563523709E+02  0.00000000000E+00 0.  1.
         12    1    3    3    0    0  0.31515244821E+00 -0.30313299104E+02 -0.13428476082E+01  0.30344664495E+02  0.00000000000E+00 0. -1.
          1    1    1    2  501    0 -0.16995309371E+02 -0.21567449482E+02 -0.12153709720E+02  0.30028454468E+02  0.00000000000E+00 0. -1.
<mgrwt>
<rscale>  1 0.85040227E+02</rscale>
<asrwt>0</asrwt>
<pdfrwt beam="1">  1       21 0.10790104E-01 0.85040227E+02</pdfrwt>
<pdfrwt beam="2">  1        2 0.70463029E-02 0.85040227E+02</pdfrwt>
<totfact> 0.79128078E+05</totfact>
</mgrwt>
</event>
<event>
 6    2  0.7993170E+000  0.8435233E+02  0.7546771E-02  0.1317135E+00
         21   -1    0    0  501  502  0.00000000000E+00  0.00000000000E+00  0.21764526504E+02  0.21764526504E+02  0.00000000000E+00 0. -1.
          2   -1    0    0  502    0 -0.00000000000E+00 -0.00000000000E+00 -0.13858763257E+03  0.13858763257E+03  0.00000000000E+00 0. -1.
         24    2    1    2    0    0  0.45519468096E+01 -0.23207200603E+02 -0.10233029346E+03  0.13261525231E+03  0.80969264575E+02 0.  0.
        -11    1    3    3    0    0  0.14420836089E+01  0.30160062522E+02 -0.45365714131E+02  0.54495476831E+02  0.00000000000E+00 0.  1.
         12    1    3    3    0    0  0.31098632007E+01 -0.53367263125E+02 -0.56964579326E+02  0.78119775476E+02  0.00000000000E+00 0. -1.
          1    1    1    2  501    0 -0.45519468096E+01  0.23207200603E+02 -0.14492812604E+02  0.27736906763E+02  0.00000000000E+00 0. -1.
<mgrwt>
<rscale>  1 0.84352334E+02</rscale>
<asrwt>0</asrwt>
<pdfrwt beam="1">  1       21 0.33483888E-02 0.84352334E+02</pdfrwt>
<pdfrwt beam="2">  1        2 0.21321174E-01 0.84352334E+02</pdfrwt>
<totfact> 0.15267952E+06</totfact>
</mgrwt>
</event>
<event>
 6    2  0.7993170E+000  0.8450339E+02  0.7546771E-02  0.1316736E+00
          2   -1    0    0  502    0 -0.00000000000E+00  0.00000000000E+00  0.20800347724E+02  0.20800347724E+02  0.00000000000E+00 0. -1.
         21   -1    0    0  501  502  0.00000000000E+00 -0.00000000000E+00 -0.15009214183E+03  0.15009214183E+03  0.00000000000E+00 0.  1.
         24    2    1    2    0    0 -0.23277662076E+02 -0.66355635336E+01 -0.81910899133E+02  0.11768694977E+03  0.80962599357E+02 0.  0.
        -13    1    3    3    0    0 -0.18723067998E+02  0.95853445963E+01 -0.94399736914E+02  0.96714747767E+02  0.00000000000E+00 0.  1.
         14    1    3    3    0    0 -0.45545940778E+01 -0.16220908130E+02  0.12488837781E+02  0.20972202004E+02  0.00000000000E+00 0. -1.
          1    1    1    2  501    0  0.23277662076E+02  0.66355635336E+01 -0.47380894973E+02  0.53205539783E+02  0.00000000000E+00 0. -1.
<mgrwt>
<rscale>  1 0.84503389E+02</rscale>
<asrwt>0</asrwt>
<pdfrwt beam="1">  1       21 0.23091098E-01 0.84503389E+02</pdfrwt>
<pdfrwt beam="2">  1        2 0.32000536E-02 0.84503389E+02</pdfrwt>
<totfact> 0.55997325E+05</totfact>
</mgrwt>
</event>
<event>
 6    2  0.7993170E+000  0.6955026E+02  0.7546771E-02  0.1361629E+00
         21   -1    0    0  501  502  0.00000000000E+00  0.00000000000E+00  0.12678670453E+03  0.12678670453E+03  0.00000000000E+00 0. -1.
         -3   -1    0    0    0  501 -0.00000000000E+00 -0.00000000000E+00 -0.29054444550E+02  0.29054444550E+02  0.00000000000E+00 0.  1.
         24    2    1    2    0    0 -0.70752117217E+01 -0.38905886846E+02  0.92830428114E+02  0.11599451048E+03  0.57214608500E+02 0.  0.
        -11    1    3    3    0    0  0.22307751031E+02 -0.29930405794E+01  0.37995376358E+02  0.44161551972E+02  0.00000000000E+00 0.  1.
         12    1    3    3    0    0 -0.29382962753E+02 -0.35912846267E+02  0.54835051756E+02  0.71832958509E+02  0.00000000000E+00 0. -1.
         -4    1    1    2    0  502  0.70752117217E+01  0.38905886846E+02  0.49018318695E+01  0.39846638602E+02  0.00000000000E+00 0.  1.
<mgrwt>
<rscale>  1 0.69550256E+02</rscale>
<asrwt>0</asrwt>
<pdfrwt beam="1">  1       21 0.19505647E-01 0.69550256E+02</pdfrwt>
<pdfrwt beam="2">  1       -3 0.44699146E-02 0.69550256E+02</pdfrwt>
<totfact> 0.28076065E+05</totfact>
</mgrwt>
</event>
<event>
 6    2  0.7993170E+000  0.8334560E+02  0.7546771E-02  0.1319817E+00
          2   -1    0    0  502    0 -0.00000000000E+00  0.00000000000E+00  0.27885974557E+03  0.27885974557E+03  0.00000000000E+00 0. -1.
         21   -1    0    0  501  502  0.00000000000E+00 -0.00000000000E+00 -0.10811197627E+02  0.10811197627E+02  0.00000000000E+00 0.  1.
         24    2    1    2    0    0  0.23601006937E+02 -0.54254027293E+01  0.18011682965E+03  0.19846551789E+03  0.79749902478E+02 0.  0.
        -11    1    3    3    0    0  0.52315677362E+02  0.30648475382E+01  0.12877336733E+03  0.13902842703E+03  0.00000000000E+00 0.  1.
         12    1    3    3    0    0 -0.28714670426E+02 -0.84902502675E+01  0.51343462321E+02  0.59437090864E+02  0.00000000000E+00 0. -1.
          1    1    1    2  501    0 -0.23601006937E+02  0.54254027293E+01  0.87931718296E+02  0.91205425308E+02  0.00000000000E+00 0. -1.
<mgrwt>
<rscale>  1 0.83345603E+02</rscale>
<asrwt>0</asrwt>
<pdfrwt beam="1">  1       21 0.16632614E-02 0.83345603E+02</pdfrwt>
<pdfrwt beam="2">  1        2 0.42901494E-01 0.83345603E+02</pdfrwt>
<totfact> 0.22231958E+06</totfact>
</mgrwt>
</event>
<event>
 6    2  0.7993170E+000  0.8319497E+02  0.7546771E-02  0.1320222E+00
         21   -1    0    0  501  502  0.00000000000E+00  0.00000000000E+00  0.75947159148E+01  0.75947159148E+01  0.00000000000E+00 0.  1.
         -1   -1    0    0    0  501 -0.00000000000E+00 -0.00000000000E+00 -0.40986202152E+03  0.40986202152E+03  0.00000000000E+00 0.  1.
         24    2    1    2    0    0 -0.22259826652E+02  0.68698905676E+01 -0.25157283479E+03  0.26497225031E+03  0.79866807573E+02 0.  0.
        -13    1    3    3    0    0 -0.50106657001E+02  0.87421944774E+01 -0.11768416060E+03  0.12820555642E+03  0.00000000000E+00 0.  1.
         14    1    3    3    0    0  0.27846830349E+02 -0.18723039098E+01 -0.13388867419E+03  0.13676669389E+03  0.00000000000E+00 0. -1.
         -2    1    1    2    0  502  0.22259826652E+02 -0.68698905676E+01 -0.15069447082E+03  0.15248448713E+03  0.00000000000E+00 0.  1.
<mgrwt>
<rscale>  1 0.83194965E+02</rscale>
<asrwt>0</asrwt>
<pdfrwt beam="1">  1       21 0.11684178E-02 0.83194965E+02</pdfrwt>
<pdfrwt beam="2">  1       -1 0.63055695E-01 0.83194965E+02</pdfrwt>
<totfact> 0.66274906E+05</totfact>
</mgrwt>
</event>
<event>
 6    2  0.7993170E+000  0.8568147E+02  0.7546771E-02  0.1313660E+00
         -1   -1    0    0    0  501 -0.00000000000E+00  0.00000000000E+00  0.41703058314E+03  0.41703058314E+03  0.00000000000E+00 0.  1.
         21   -1    0    0  501  502  0.00000000000E+00 -0.00000000000E+00 -0.81685349364E+01  0.81685349364E+01  0.00000000000E+00 0. -1.
         24    2    1    2    0    0  0.29056222873E+02  0.99720633390E+01  0.31449998276E+03  0.32596250422E+03  0.79985054019E+02 0.  0.
        -13    1    3    3    0    0  0.11155312287E+02  0.40188457086E+02  0.24002536371E+03  0.24362210142E+03  0.00000000000E+00 0.  1.
         14    1    3    3    0    0  0.17900910586E+02 -0.30216393747E+02  0.74474619042E+02  0.82340402794E+02  0.00000000000E+00 0. -1.
         -2    1    1    2    0  502 -0.29056222873E+02 -0.99720633390E+01  0.94362065445E+02  0.99236613858E+02  0.00000000000E+00 0.  1.
<mgrwt>
<rscale>  1 0.85681474E+02</rscale>
<asrwt>0</asrwt>
<pdfrwt beam="1">  1       21 0.12566980E-02 0.85681474E+02</pdfrwt>
<pdfrwt beam="2">  1       -1 0.64158535E-01 0.85681474E+02</pdfrwt>
<totfact> 0.57386445E+05</totfact>
</mgrwt>
</event>
<event>
 6    2  0.7993170E+000  0.8729665E+02  0.7546771E-02  0.1309534E+00
         21   -1    0    0  501  502  0.00000000000E+00  0.00000000000E+00  0.86908460655E+01  0.86908460655E+01  0.00000000000E+00 0.  1.
          2   -1    0    0  502    0 -0.00000000000E+00 -0.00000000000E+00 -0.56117845421E+03  0.56117845421E+03  0.00000000000E+00 0. -1.
         24    2    1    2    0    0  0.31734340816E+02  0.16197152428E+02 -0.49186794372E+03  0.49955458027E+03  0.79694971488E+02 0.  0.
        -11    1    3    3    0    0  0.35417591661E+02 -0.21833043450E+02 -0.15358894836E+03  0.15912464499E+03  0.00000000000E+00 0.  1.
         12    1    3    3    0    0 -0.36832508446E+01  0.38030195878E+02 -0.33827899535E+03  0.34042993528E+03  0.00000000000E+00 0. -1.
          1    1    1    2  501    0 -0.31734340816E+02 -0.16197152428E+02 -0.60619664426E+02  0.70314720002E+02  0.00000000000E+00 0. -1.
<mgrwt>
<rscale>  1 0.87296647E+02</rscale>
<asrwt>0</asrwt>
<pdfrwt beam="1">  1       21 0.13370533E-02 0.87296647E+02</pdfrwt>
<pdfrwt beam="2">  1        2 0.86335141E-01 0.87296647E+02</pdfrwt>
<totfact> 0.15069292E+06</totfact>
</mgrwt>
</event>
<event>
 6    2  0.7993170E+000  0.8882662E+02  0.7546771E-02  0.1305718E+00
         21   -1    0    0  501  502  0.00000000000E+00  0.00000000000E+00  0.72869809951E+02  0.72869809951E+02  0.00000000000E+00 0.  1.
          2   -1    0    0  502    0 -0.00000000000E+00 -0.00000000000E+00 -0.57693186628E+02  0.57693186628E+02  0.00000000000E+00 0. -1.
         24    2    1    2    0    0  0.31211760848E+02  0.19000750259E+02 -0.47291036432E+01  0.88952415092E+02  0.80962739601E+02 0.  0.
        -11    1    3    3    0    0  0.69027211041E+01  0.37942902526E+02  0.25139102066E+02  0.46035702052E+02  0.00000000000E+00 0.  1.
         12    1    3    3    0    0  0.24309039744E+02 -0.18942152268E+02 -0.29868205709E+02  0.42916713039E+02  0.00000000000E+00 0. -1.
          1    1    1    2  501    0 -0.31211760848E+02 -0.19000750259E+02  0.19905726966E+02  0.41610581487E+02  0.00000000000E+00 0. -1.
<mgrwt>
<rscale>  1 0.88826616E+02</rscale>
<asrwt>0</asrwt>
<pdfrwt beam="1">  1       21 0.11210740E-01 0.88826616E+02</pdfrwt>
<pdfrwt beam="2">  1        2 0.88758748E-02 0.88826616E+02</pdfrwt>
<totfact> 0.55868589E+05</totfact>
</mgrwt>
</event>
<event>
 6    2  0.7993170E+000  0.8438652E+02  0.7546771E-02  0.1317045E+00
         21   -1    0    0  501  502  0.00000000000E+00  0.00000000000E+00  0.12818319517E+01  0.12818319517E+01  0.00000000000E+00 0.  1.
          2   -1    0    0  502    0 -0.00000000000E+00 -0.00000000000E+00 -0.23148376324E+04  0.23148376324E+04  0.00000000000E+00 0. -1.
         24    2    1    2    0    0  0.22215063464E+02  0.28413884439E+00 -0.19988047676E+04  0.20005853102E+04  0.81409425038E+02 0.  0.
        -11    1    3    3    0    0 -0.24101027073E+02  0.14677600574E+02 -0.37663179797E+03  0.37768744049E+03  0.00000000000E+00 0.  1.
         12    1    3    3    0    0  0.46316090536E+02 -0.14393461729E+02 -0.16221729697E+04  0.16228978697E+04  0.00000000000E+00 0. -1.
          1    1    1    2  501    0 -0.22215063464E+02 -0.28413884439E+00 -0.31475103279E+03  0.31553415413E+03  0.00000000000E+00 0. -1.
<mgrwt>
<rscale>  1 0.84386517E+02</rscale>
<asrwt>0</asrwt>
<pdfrwt beam="1">  1       21 0.19720766E-03 0.84386517E+02</pdfrwt>
<pdfrwt beam="2">  1        2 0.35612390E+00 0.84386517E+02</pdfrwt>
<totfact> 0.29535995E+06</totfact>
</mgrwt>
</event>
<event>
 6    2  0.7993170E+000  0.1609728E+03  0.7546771E-02  0.1187603E+00
         21   -1    0    0  501  502  0.00000000000E+00  0.00000000000E+00  0.18618306560E+03  0.18618306560E+03  0.00000000000E+00 0. -1.
          2   -1    0    0  502    0 -0.00000000000E+00 -0.00000000000E+00 -0.17295640183E+03  0.17295640183E+03  0.00000000000E+00 0. -1.
         24    2    1    2    0    0 -0.54494853596E+02  0.12677503965E+03 -0.92178140072E+02  0.18549681018E+03  0.82889428355E+02 0.  0.
        -13    1    3    3    0    0  0.11653034174E+02  0.96280172885E+01  0.86117237345E+01  0.17396945365E+02  0.00000000000E+00 0.  1.
         14    1    3    3    0    0 -0.66147887770E+02  0.11714702236E+03 -0.10078986381E+03  0.16809986481E+03  0.00000000000E+00 0. -1.
          1    1    1    2  501    0  0.54494853596E+02 -0.12677503965E+03  0.10540480384E+03  0.17364265725E+03  0.00000000000E+00 0. -1.
<mgrwt>
<rscale>  1 0.16097285E+03</rscale>
<asrwt>0</asrwt>
<pdfrwt beam="1">  1       21 0.28643549E-01 0.16097285E+03</pdfrwt>
<pdfrwt beam="2">  1        2 0.26608677E-01 0.16097285E+03</pdfrwt>
<totfact> 0.28778261E+04</totfact>
</mgrwt>
</event>
<event>
 6    2  0.7993170E+000  0.8185868E+02  0.7546771E-02  0.1323858E+00
         21   -1    0    0  501  502  0.00000000000E+00  0.00000000000E+00  0.14762914061E+03  0.14762914061E+03  0.00000000000E+00 0. -1.
          4   -1    0    0  502    0 -0.00000000000E+00 -0.00000000000E+00 -0.55899521540E+02  0.55899521540E+02  0.00000000000E+00 0. -1.
         24    2    1    2    0    0 -0.27501399940E+02 -0.49999695526E+01 -0.23333259573E+02  0.85119233744E+02  0.76938392605E+02 0.  0.
        -13    1    3    3    0    0  0.21080798063E+02  0.17798244057E+02 -0.30871000458E+01  0.27761623245E+02  0.00000000000E+00 0.  1.
         14    1    3    3    0    0 -0.48582198003E+02 -0.22798213610E+02 -0.20246159527E+02  0.57357610499E+02  0.00000000000E+00 0. -1.
          3    1    1    2  501    0  0.27501399940E+02  0.49999695526E+01  0.11506287865E+03  0.11840942841E+03  0.00000000000E+00 0. -1.
<mgrwt>
<rscale>  1 0.81858677E+02</rscale>
<asrwt>0</asrwt>
<pdfrwt beam="1">  1       21 0.22712175E-01 0.81858677E+02</pdfrwt>
<pdfrwt beam="2">  1        4 0.85999264E-02 0.81858677E+02</pdfrwt>
<totfact> 0.67126528E+04</totfact>
</mgrwt>
</event>
<event>
 6    2  0.7993170E+000  0.1020869E+03  0.7546771E-02  0.1275968E+00
          2   -1    0    0  502    0 -0.00000000000E+00  0.00000000000E+00  0.62773224282E+03  0.62773224282E+03  0.00000000000E+00 0. -1.
         21   -1    0    0  501  502  0.00000000000E+00 -0.00000000000E+00 -0.10612848366E+02  0.10612848366E+02  0.00000000000E+00 0.  1.
         24    2    1    2    0    0  0.57943533291E+02 -0.25143895263E+01  0.45043478217E+03  0.46185844813E+03  0.84011653449E+02 0.  0.
        -11    1    3    3    0    0  0.13318216886E+01 -0.25075029968E+02  0.42243797031E+02  0.49143354226E+02  0.00000000000E+00 0.  1.
         12    1    3    3    0    0  0.56611711602E+02  0.22560640442E+02  0.40819098514E+03  0.41271509390E+03  0.00000000000E+00 0. -1.
          1    1    1    2  501    0 -0.57943533291E+02  0.25143895263E+01  0.16668461229E+03  0.17648664306E+03  0.00000000000E+00 0. -1.
<mgrwt>
<rscale>  1 0.10208689E+03</rscale>
<asrwt>0</asrwt>
<pdfrwt beam="1">  1       21 0.16327464E-02 0.10208689E+03</pdfrwt>
<pdfrwt beam="2">  1        2 0.96574162E-01 0.10208689E+03</pdfrwt>
<totfact> 0.98315715E+05</totfact>
</mgrwt>
</event>
<event>
 6    2  0.7993170E+000  0.9306985E+02  0.7546771E-02  0.1295583E+00
          2   -1    0    0  502    0 -0.00000000000E+00  0.00000000000E+00  0.10798336827E+04  0.10798336827E+04  0.00000000000E+00 0. -1.
         21   -1    0    0  501  502  0.00000000000E+00 -0.00000000000E+00 -0.43368279948E+01  0.43368279948E+01  0.00000000000E+00 0. -1.
         24    2    1    2    0    0 -0.22087662328E+02 -0.43290738399E+01  0.10206544650E+04  0.10248890345E+04  0.90307200578E+02 0.  0.
        -13    1    3    3    0    0  0.15214280054E+02  0.23829123971E+02  0.13139197717E+03  0.13439923039E+03  0.00000000000E+00 0.  1.
         14    1    3    3    0    0 -0.37301942383E+02 -0.28158197811E+02  0.88926248783E+03  0.89048980413E+03  0.00000000000E+00 0. -1.
          1    1    1    2  501    0  0.22087662328E+02  0.43290738399E+01  0.54842389731E+02  0.59281476187E+02  0.00000000000E+00 0. -1.
<mgrwt>
<rscale>  1 0.93069846E+02</rscale>
<asrwt>0</asrwt>
<pdfrwt beam="1">  1       21 0.66720517E-03 0.93069846E+02</pdfrwt>
<pdfrwt beam="2">  1        2 0.16612804E+00 0.93069846E+02</pdfrwt>
<totfact> 0.20137079E+06</totfact>
</mgrwt>
</event>
<event>
 6    2  0.7993170E+000  0.8754657E+02  0.7546771E-02  0.1308904E+00
          2   -1    0    0  502    0 -0.00000000000E+00  0.00000000000E+00  0.11037203333E+03  0.11037203333E+03  0.00000000000E+00 0. -1.
         21   -1    0    0  501  502  0.00000000000E+00 -0.00000000000E+00 -0.33480423652E+02  0.33480423652E+02  0.00000000000E+00 0.  1.
         24    2    1    2    0    0  0.28388975899E+02 -0.16194056508E+02  0.65135521966E+02  0.10911937452E+03  0.81217117998E+02 0.  0.
        -13    1    3    3    0    0  0.51836589772E+02 -0.28895061347E+02  0.35078167977E+02  0.68937903058E+02  0.00000000000E+00 0.  1.
         14    1    3    3    0    0 -0.23447613873E+02  0.12701004839E+02  0.30057353990E+02  0.40181471465E+02  0.00000000000E+00 0. -1.
          1    1    1    2  501    0 -0.28388975899E+02  0.16194056508E+02  0.11756087712E+02  0.34733082458E+02  0.00000000000E+00 0. -1.
<mgrwt>
<rscale>  1 0.87546569E+02</rscale>
<asrwt>0</asrwt>
<pdfrwt beam="1">  1       21 0.51508345E-02 0.87546569E+02</pdfrwt>
<pdfrwt beam="2">  1        2 0.16980313E-01 0.87546569E+02</pdfrwt>
<totfact> 0.97377792E+05</totfact>
</mgrwt>
</event>
<event>
 6    2  0.7993170E+000  0.8603587E+02  0.7546771E-02  0.1312746E+00
         -3   -1    0    0    0  501 -0.00000000000E+00  0.00000000000E+00  0.40514096359E+03  0.40514096359E+03  0.00000000000E+00 0.  1.
         21   -1    0    0  501  502  0.00000000000E+00 -0.00000000000E+00 -0.28687914103E+02  0.28687914103E+02  0.00000000000E+00 0.  1.
         24    2    1    2    0    0  0.28011629266E+02 -0.37998509834E+01  0.39216224702E+03  0.40148897775E+03  0.81259344206E+02 0.  0.
        -11    1    3    3    0    0  0.46627744847E+02 -0.42810564543E+01  0.36808084893E+03  0.37104714712E+03  0.00000000000E+00 0.  1.
         12    1    3    3    0    0 -0.18616115581E+02  0.48120547091E+00  0.24081398090E+02  0.30441830628E+02  0.00000000000E+00 0. -1.
         -4    1    1    2    0  502 -0.28011629266E+02  0.37998509834E+01 -0.15709197533E+02  0.32339899950E+02  0.00000000000E+00 0.  1.
<mgrwt>
<rscale>  1 0.86035872E+02</rscale>
<asrwt>0</asrwt>
<pdfrwt beam="1">  1       21 0.44135256E-02 0.86035872E+02</pdfrwt>
<pdfrwt beam="2">  1       -3 0.62329375E-01 0.86035872E+02</pdfrwt>
<totfact> 0.38573196E+04</totfact>
</mgrwt>
</event>
<event>
 6    2  0.7993170E+000  0.1448048E+03  0.7546771E-02  0.1207006E+00
         21   -1    0    0  501  502  0.00000000000E+00  0.00000000000E+00  0.23431759762E+02  0.23431759762E+02  0.00000000000E+00 0. -1.
          2   -1    0    0  502    0 -0.00000000000E+00 -0.00000000000E+00 -0.94552001695E+03  0.94552001695E+03  0.00000000000E+00 0. -1.
         24    2    1    2    0    0 -0.12079148533E+03  0.26625968836E+02 -0.69925160947E+03  0.71408770175E+03  0.75292146266E+02 0.  0.
        -11    1    3    3    0    0 -0.16365578986E+02 -0.11939861672E+02 -0.33930337219E+02  0.39517847311E+02  0.00000000000E+00 0.  1.
         12    1    3    3    0    0 -0.10442590634E+03  0.38565830507E+02 -0.66532127226E+03  0.67456985444E+03  0.00000000000E+00 0. -1.
          1    1    1    2  501    0  0.12079148533E+03 -0.26625968836E+02 -0.22283664771E+03  0.25486407496E+03  0.00000000000E+00 0. -1.
<mgrwt>
<rscale>  1 0.14480481E+03</rscale>
<asrwt>0</asrwt>
<pdfrwt beam="1">  1       21 0.36048861E-02 0.14480481E+03</pdfrwt>
<pdfrwt beam="2">  1        2 0.14546462E+00 0.14480481E+03</pdfrwt>
<totfact> 0.16746350E+05</totfact>
</mgrwt>
</event>
<event>
 6    2  0.7993170E+000  0.9062753E+02  0.7546771E-02  0.1301339E+00
          2   -1    0    0  502    0 -0.00000000000E+00  0.00000000000E+00  0.13717967124E+04  0.13717967124E+04  0.00000000000E+00 0. -1.
         21   -1    0    0  501  502  0.00000000000E+00 -0.00000000000E+00 -0.27597419967E+01  0.27597419967E+01  0.00000000000E+00 0.  1.
         24    2    1    2    0    0 -0.63513596112E-01  0.31474989739E+02  0.10859497922E+04  0.10897248735E+04  0.84986291434E+02 0.  0.
        -11    1    3    3    0    0 -0.16562943492E+02  0.50977885267E+02  0.43738034037E+03  0.44065251392E+03  0.00000000000E+00 0.  1.
         12    1    3    3    0    0  0.16499429896E+02 -0.19502895528E+02  0.64856945187E+03  0.64907235962E+03  0.00000000000E+00 0. -1.
          1    1    1    2  501    0  0.63513596112E-01 -0.31474989739E+02  0.28308717815E+03  0.28483158084E+03  0.00000000000E+00 0. -1.
<mgrwt>
<rscale>  1 0.90627528E+02</rscale>
<asrwt>0</asrwt>
<pdfrwt beam="1">  1       21 0.42457679E-03 0.90627528E+02</pdfrwt>
<pdfrwt beam="2">  1        2 0.21104510E+00 0.90627528E+02</pdfrwt>
<totfact> 0.27958136E+06</totfact>
</mgrwt>
</event>
<event>
 6    2  0.7993170E+000  0.8235563E+02  0.7546771E-02  0.1322496E+00
         21   -1    0    0  501  502  0.00000000000E+00  0.00000000000E+00  0.20075669793E+01  0.20075669793E+01  0.00000000000E+00 0. -1.
         -3   -1    0    0    0  501 -0.00000000000E+00 -0.00000000000E+00 -0.19276549980E+04  0.19276549980E+04  0.00000000000E+00 0.  1.
         24    2    1    2    0    0 -0.39880973821E+01 -0.31331005503E+02 -0.96884070015E+03  0.97233469164E+03  0.76058618707E+02 0.  0.
        -11    1    3    3    0    0 -0.11132753783E+02 -0.19893783150E+02 -0.94219583651E+03  0.94247158852E+03  0.00000000000E+00 0.  1.
         12    1    3    3    0    0  0.71446564013E+01 -0.11437222353E+02 -0.26644863637E+02  0.29863103128E+02  0.00000000000E+00 0. -1.
         -4    1    1    2    0  502  0.39880973821E+01  0.31331005503E+02 -0.95680673090E+03  0.95732787336E+03  0.00000000000E+00 0.  1.
<mgrwt>
<rscale>  1 0.82355633E+02</rscale>
<asrwt>0</asrwt>
<pdfrwt beam="1">  1       21 0.30885626E-03 0.82355633E+02</pdfrwt>
<pdfrwt beam="2">  1       -3 0.29656250E+00 0.82355633E+02</pdfrwt>
<totfact> 0.50761092E+04</totfact>
</mgrwt>
</event>
<event>
 6    2  0.7993170E+000  0.8447215E+02  0.7546771E-02  0.1316819E+00
          4   -1    0    0  502    0 -0.00000000000E+00  0.00000000000E+00  0.27307782028E+02  0.27307782028E+02  0.00000000000E+00 0. -1.
         21   -1    0    0  501  502  0.00000000000E+00 -0.00000000000E+00 -0.11281328384E+03  0.11281328384E+03  0.00000000000E+00 0. -1.
         24    2    1    2    0    0  0.23275611628E+02 -0.10392593354E+02 -0.57129046766E+02  0.10197682260E+03  0.80534367012E+02 0.  0.
        -11    1    3    3    0    0 -0.76954193287E+01  0.20115108345E+02 -0.54295927036E+02  0.58411340980E+02  0.00000000000E+00 0.  1.
         12    1    3    3    0    0  0.30971030957E+02 -0.30507701698E+02 -0.28331197299E+01  0.43565481621E+02  0.00000000000E+00 0. -1.
          3    1    1    2  501    0 -0.23275611628E+02  0.10392593354E+02 -0.28376455042E+02  0.38144243262E+02  0.00000000000E+00 0. -1.
<mgrwt>
<rscale>  1 0.84472151E+02</rscale>
<asrwt>0</asrwt>
<pdfrwt beam="1">  1       21 0.17355890E-01 0.84472151E+02</pdfrwt>
<pdfrwt beam="2">  1        4 0.42011972E-02 0.84472151E+02</pdfrwt>
<totfact> 0.34919411E+05</totfact>
</mgrwt>
</event>
<event>
 6    2  0.7993170E+000  0.1091751E+03  0.7546771E-02  0.1262105E+00
         21   -1    0    0  501  502  0.00000000000E+00  0.00000000000E+00  0.33962581885E+01  0.33962581885E+01  0.00000000000E+00 0. -1.
          2   -1    0    0  502    0 -0.00000000000E+00 -0.00000000000E+00 -0.27071108618E+04  0.27071108618E+04  0.00000000000E+00 0. -1.
         24    2    1    2    0    0 -0.13533413127E+02  0.55887272085E+02 -0.23139036350E+04  0.23164777662E+04  0.92804463556E+02 0.  0.
        -13    1    3    3    0    0 -0.60939919533E+01 -0.23509267110E+02 -0.89959365804E+03  0.89992142544E+03  0.00000000000E+00 0.  1.
         14    1    3    3    0    0 -0.74394211737E+01  0.79396539195E+02 -0.14143099770E+04  0.14165563407E+04  0.00000000000E+00 0. -1.
          1    1    1    2  501    0  0.13533413127E+02 -0.55887272085E+02 -0.38981096855E+03  0.39402935380E+03  0.00000000000E+00 0. -1.
<mgrwt>
<rscale>  1 0.10917513E+03</rscale>
<asrwt>0</asrwt>
<pdfrwt beam="1">  1       21 0.52249820E-03 0.10917513E+03</pdfrwt>
<pdfrwt beam="2">  1        2 0.41648104E+00 0.10917513E+03</pdfrwt>
<totfact> 0.42181634E+05</totfact>
</mgrwt>
</event>
<event>
 6    2  0.7993170E+000  0.8716885E+02  0.7546771E-02  0.1309856E+00
          2   -1    0    0  502    0 -0.00000000000E+00  0.00000000000E+00  0.66176867860E+03  0.66176867860E+03  0.00000000000E+00 0. -1.
         21   -1    0    0  501  502  0.00000000000E+00 -0.00000000000E+00 -0.51967842905E+01  0.51967842905E+01  0.00000000000E+00 0. -1.
         24    2    1    2    0    0 -0.16950356883E+02 -0.16278600335E+02  0.58917978791E+03  0.59559317532E+03  0.83941054230E+02 0.  0.
        -11    1    3    3    0    0 -0.38331469298E+02 -0.20763485982E+02  0.15925934910E+03  0.16511803101E+03  0.00000000000E+00 0.  1.
         12    1    3    3    0    0  0.21381112415E+02  0.44848856470E+01  0.42992043881E+03  0.43047514431E+03  0.00000000000E+00 0. -1.
          1    1    1    2  501    0  0.16950356883E+02  0.16278600335E+02  0.67392106398E+02  0.71372287564E+02  0.00000000000E+00 0. -1.
<mgrwt>
<rscale>  1 0.87168848E+02</rscale>
<asrwt>0</asrwt>
<pdfrwt beam="1">  1       21 0.79950580E-03 0.87168848E+02</pdfrwt>
<pdfrwt beam="2">  1        2 0.10181050E+00 0.87168848E+02</pdfrwt>
<totfact> 0.27978566E+06</totfact>
</mgrwt>
</event>
<event>
 6    2  0.7993170E+000  0.1130184E+03  0.7546771E-02  0.1255080E+00
         21   -1    0    0  501  502  0.00000000000E+00  0.00000000000E+00  0.40099158189E+02  0.40099158189E+02  0.00000000000E+00 0.  1.
         -1   -1    0    0    0  501 -0.00000000000E+00 -0.00000000000E+00 -0.42818851934E+03  0.42818851934E+03  0.00000000000E+00 0.  1.
         24    2    1    2    0    0  0.53068074499E+02 -0.56721801121E+02 -0.37222949070E+03  0.38900893672E+03  0.82094919753E+02 0.  0.
        -11    1    3    3    0    0  0.62433795542E+02 -0.85295537853E+01 -0.18439712597E+03  0.19486670362E+03  0.00000000000E+00 0.  1.
         12    1    3    3    0    0 -0.93657210433E+01 -0.48192247335E+02 -0.18783236472E+03  0.19414223310E+03  0.00000000000E+00 0. -1.
         -2    1    1    2    0  502 -0.53068074499E+02  0.56721801121E+02 -0.15859870453E+02  0.79278740809E+02  0.00000000000E+00 0.  1.
<mgrwt>
<rscale>  1 0.11301840E+03</rscale>
<asrwt>0</asrwt>
<pdfrwt beam="1">  1       21 0.61691017E-02 0.11301840E+03</pdfrwt>
<pdfrwt beam="2">  1       -1 0.65875152E-01 0.11301840E+03</pdfrwt>
<totfact> 0.41806464E+04</totfact>
</mgrwt>
</event>
<event>
 6    2  0.7993170E+000  0.8285882E+02  0.7546771E-02  0.1321129E+00
         21   -1    0    0  501  502  0.00000000000E+00  0.00000000000E+00  0.90751057457E+01  0.90751057457E+01  0.00000000000E+00 0.  1.
          2   -1    0    0  502    0 -0.00000000000E+00 -0.00000000000E+00 -0.36390754247E+03  0.36390754247E+03  0.00000000000E+00 0. -1.
         24    2    1    2    0    0  0.22005868199E+02  0.52053724906E+01 -0.32586244345E+03  0.33623193872E+03  0.79713426901E+02 0.  0.
        -13    1    3    3    0    0  0.13888557801E+02  0.37250947214E+02 -0.94534137206E+02  0.10255353823E+03  0.00000000000E+00 0.  1.
         14    1    3    3    0    0  0.81173103987E+01 -0.32045574724E+02 -0.23132830624E+03  0.23367840049E+03  0.00000000000E+00 0. -1.
          1    1    1    2  501    0 -0.22005868199E+02 -0.52053724906E+01 -0.28969993280E+02  0.36750709498E+02  0.00000000000E+00 0. -1.
<mgrwt>
<rscale>  1 0.82858823E+02</rscale>
<asrwt>0</asrwt>
<pdfrwt beam="1">  1       21 0.13961702E-02 0.82858823E+02</pdfrwt>
<pdfrwt beam="2">  1        2 0.55985773E-01 0.82858823E+02</pdfrwt>
<totfact> 0.22201084E+06</totfact>
</mgrwt>
</event>
<event>
 6    2  0.7993170E+000  0.9812226E+02  0.7546771E-02  0.1284295E+00
         21   -1    0    0  501  502  0.00000000000E+00  0.00000000000E+00  0.85225473016E+02  0.85225473016E+02  0.00000000000E+00 0.  1.
          2   -1    0    0  502    0 -0.00000000000E+00 -0.00000000000E+00 -0.25103121237E+03  0.25103121237E+03  0.00000000000E+00 0. -1.
         24    2    1    2    0    0  0.59899549781E+02 -0.19940367776E+01  0.51515058402E+02  0.11082318880E+03  0.77691992424E+02 0.  0.
        -13    1    3    3    0    0  0.36970859674E+02  0.31150336664E+02  0.51341572005E+02  0.70520528609E+02  0.00000000000E+00 0.  1.
         14    1    3    3    0    0  0.22928690107E+02 -0.33144373442E+02  0.17348639675E+00  0.40302660190E+02  0.00000000000E+00 0. -1.
          1    1    1    2  501    0 -0.59899549781E+02  0.19940367776E+01 -0.21732079775E+03  0.22543349659E+03  0.00000000000E+00 0. -1.
<mgrwt>
<rscale>  1 0.98122260E+02</rscale>
<asrwt>0</asrwt>
<pdfrwt beam="1">  1       21 0.13111611E-01 0.98122260E+02</pdfrwt>
<pdfrwt beam="2">  1        2 0.38620186E-01 0.98122260E+02</pdfrwt>
<totfact> 0.80833241E+04</totfact>
</mgrwt>
</event>
<event>
 6    2  0.7993170E+000  0.8946988E+02  0.7546771E-02  0.1304141E+00
         -1   -1    0    0    0  501 -0.00000000000E+00  0.00000000000E+00  0.26774758071E+03  0.26774758071E+03  0.00000000000E+00 0.  1.
         21   -1    0    0  501  502  0.00000000000E+00 -0.00000000000E+00 -0.12328889015E+02  0.12328889015E+02  0.00000000000E+00 0. -1.
         24    2    1    2    0    0 -0.19635331564E+02  0.14974658833E+02  0.18608015025E+03  0.20647198628E+03  0.85994605357E+02 0.  0.
        -11    1    3    3    0    0 -0.35059584587E+02  0.24141784718E+01  0.18299952924E+03  0.18634331335E+03  0.00000000000E+00 0.  1.
         12    1    3    3    0    0  0.15424253023E+02  0.12560480361E+02  0.30806210111E+01  0.20128672933E+02  0.00000000000E+00 0. -1.
         -2    1    1    2    0  502  0.19635331564E+02 -0.14974658833E+02  0.69338541445E+02  0.73604483440E+02  0.00000000000E+00 0.  1.
<mgrwt>
<rscale>  1 0.89469877E+02</rscale>
<asrwt>0</asrwt>
<pdfrwt beam="1">  1       21 0.18967524E-02 0.89469877E+02</pdfrwt>
<pdfrwt beam="2">  1       -1 0.41191931E-01 0.89469877E+02</pdfrwt>
<totfact> 0.67243416E+05</totfact>
</mgrwt>
</event>
<event>
 6    2  0.7993170E+000  0.8507905E+02  0.7546771E-02  0.1315226E+00
         21   -1    0    0  501  502  0.00000000000E+00  0.00000000000E+00  0.13465677437E+02  0.13465677437E+02  0.00000000000E+00 0.  1.
          4   -1    0    0  502    0 -0.00000000000E+00 -0.00000000000E+00 -0.21963976404E+03  0.21963976404E+03  0.00000000000E+00 0. -1.
         24    2    1    2    0    0 -0.18518380739E+02  0.93776319536E+01 -0.18407916587E+03  0.20278950625E+03  0.82508024655E+02 0.  0.
        -11    1    3    3    0    0  0.24925935488E+02  0.16317251301E+02 -0.28944796855E+02  0.41537407417E+02  0.00000000000E+00 0.  1.
         12    1    3    3    0    0 -0.43444316227E+02 -0.69396193470E+01 -0.15513436902E+03  0.16125209884E+03  0.00000000000E+00 0. -1.
          3    1    1    2  501    0  0.18518380739E+02 -0.93776319536E+01 -0.22094920726E+02  0.30315935218E+02  0.00000000000E+00 0. -1.
<mgrwt>
<rscale>  1 0.85079049E+02</rscale>
<asrwt>0</asrwt>
<pdfrwt beam="1">  1       21 0.20716428E-02 0.85079049E+02</pdfrwt>
<pdfrwt beam="2">  1        4 0.33790732E-01 0.85079049E+02</pdfrwt>
<totfact> 0.35782282E+05</totfact>
</mgrwt>
</event>
<event>
 6    2  0.7993170E+000  0.9911483E+02  0.7546771E-02  0.1282168E+00
         21   -1    0    0  501  502  0.00000000000E+00  0.00000000000E+00  0.33816837798E+02  0.33816837798E+02  0.00000000000E+00 0. -1.
          2   -1    0    0  502    0 -0.00000000000E+00 -0.00000000000E+00 -0.18698317739E+03  0.18698317739E+03  0.00000000000E+00 0. -1.
         24    2    1    2    0    0  0.50876713378E+02  0.29250132298E+02 -0.10918792507E+03  0.14746440892E+03  0.79873266570E+02 0.  0.
        -11    1    3    3    0    0 -0.73139950586E+01  0.36527428903E+02 -0.24996478730E+02  0.44861693402E+02  0.00000000000E+00 0.  1.
         12    1    3    3    0    0  0.58190708436E+02 -0.72772966050E+01 -0.84191446340E+02  0.10260271551E+03  0.00000000000E+00 0. -1.
          1    1    1    2  501    0 -0.50876713378E+02 -0.29250132298E+02 -0.43978414525E+02  0.73335606275E+02  0.00000000000E+00 0. -1.
<mgrwt>
<rscale>  1 0.99114827E+02</rscale>
<asrwt>0</asrwt>
<pdfrwt beam="1">  1       21 0.52025905E-02 0.99114827E+02</pdfrwt>
<pdfrwt beam="2">  1        2 0.28766642E-01 0.99114827E+02</pdfrwt>
<totfact> 0.54124353E+05</totfact>
</mgrwt>
</event>
<event>
 6    2  0.7993170E+000  0.8959864E+02  0.7546771E-02  0.1303827E+00
         -1   -1    0    0    0  501 -0.00000000000E+00  0.00000000000E+00  0.81679875765E+01  0.81679875765E+01  0.00000000000E+00 0.  1.
         21   -1    0    0  501  502  0.00000000000E+00 -0.00000000000E+00 -0.52669444869E+03  0.52669444869E+03  0.00000000000E+00 0. -1.
         24    2    1    2    0    0 -0.13160663344E+02  0.36779832053E+02 -0.30910545261E+03  0.32182929822E+03  0.80634714924E+02 0.  0.
        -13    1    3    3    0    0  0.24741633021E+02  0.26182860470E+01 -0.19812205257E+03  0.19967811983E+03  0.00000000000E+00 0.  1.
         14    1    3    3    0    0 -0.37902296365E+02  0.34161546006E+02 -0.11098340005E+03  0.12215117839E+03  0.00000000000E+00 0. -1.
         -2    1    1    2    0  502  0.13160663344E+02 -0.36779832053E+02 -0.20942100850E+03  0.21303313805E+03  0.00000000000E+00 0.  1.
<mgrwt>
<rscale>  1 0.89598640E+02</rscale>
<asrwt>0</asrwt>
<pdfrwt beam="1">  1       21 0.81029939E-01 0.89598640E+02</pdfrwt>
<pdfrwt beam="2">  1       -1 0.12566131E-02 0.89598640E+02</pdfrwt>
<totfact> 0.15033953E+05</totfact>
</mgrwt>
</event>
<event>
 6    2  0.7993170E+000  0.9324641E+02  0.7546771E-02  0.1295175E+00
         21   -1    0    0  501  502  0.00000000000E+00  0.00000000000E+00  0.22499560902E+02  0.22499560902E+02  0.00000000000E+00 0.  1.
         -1   -1    0    0    0  501 -0.00000000000E+00 -0.00000000000E+00 -0.62775348025E+03  0.62775348025E+03  0.00000000000E+00 0.  1.
         24    2    1    2    0    0  0.14872479115E+02  0.45981148042E+02 -0.59314874290E+03  0.60043344755E+03  0.79746079051E+02 0.  0.
        -13    1    3    3    0    0 -0.22613502385E+02  0.47826912705E+02 -0.41615588436E+03  0.41950507048E+03  0.00000000000E+00 0.  1.
         14    1    3    3    0    0  0.37485981500E+02 -0.18457646636E+01 -0.17699285854E+03  0.18092837707E+03  0.00000000000E+00 0. -1.
         -2    1    1    2    0  502 -0.14872479115E+02 -0.45981148042E+02 -0.12105176454E+02  0.49819593608E+02  0.00000000000E+00 0.  1.
<mgrwt>
<rscale>  1 0.93246414E+02</rscale>
<asrwt>0</asrwt>
<pdfrwt beam="1">  1       21 0.34614716E-02 0.93246414E+02</pdfrwt>
<pdfrwt beam="2">  1       -1 0.96577439E-01 0.93246414E+02</pdfrwt>
<totfact> 0.49840310E+04</totfact>
</mgrwt>
</event>
<event>
 6    2  0.7993170E+000  0.9194927E+02  0.7546771E-02  0.1298199E+00
          2   -1    0    0  502    0 -0.00000000000E+00  0.00000000000E+00  0.93152025923E+02  0.93152025923E+02  0.00000000000E+00 0. -1.
         21   -1    0    0  501  502  0.00000000000E+00 -0.00000000000E+00 -0.66290785853E+02  0.66290785853E+02  0.00000000000E+00 0. -1.
         24    2    1    2    0    0  0.83047199688E+01 -0.44598661659E+02  0.53947254608E+02  0.10660663876E+03  0.79979123226E+02 0.  0.
        -13    1    3    3    0    0 -0.23687167667E+02  0.21917061283E+01 -0.55545909952E+01  0.24428241217E+02  0.00000000000E+00 0.  1.
         14    1    3    3    0    0  0.31991887636E+02 -0.46790367787E+02  0.59501845604E+02  0.82178397541E+02  0.00000000000E+00 0. -1.
          1    1    1    2  501    0 -0.83047199688E+01  0.44598661659E+02 -0.27086014539E+02  0.52836173018E+02  0.00000000000E+00 0. -1.
<mgrwt>
<rscale>  1 0.91949275E+02</rscale>
<asrwt>0</asrwt>
<pdfrwt beam="1">  1       21 0.10198582E-01 0.91949275E+02</pdfrwt>
<pdfrwt beam="2">  1        2 0.14331081E-01 0.91949275E+02</pdfrwt>
<totfact> 0.37271226E+05</totfact>
</mgrwt>
</event>
<event>
 6    2  0.7993170E+000  0.1334298E+03  0.7546771E-02  0.1222453E+00
         21   -1    0    0  501  502  0.00000000000E+00  0.00000000000E+00  0.15421979420E+02  0.15421979420E+02  0.00000000000E+00 0. -1.
          2   -1    0    0  502    0 -0.00000000000E+00 -0.00000000000E+00 -0.48306987444E+04  0.48306987444E+04  0.00000000000E+00 0. -1.
         24    2    1    2    0    0 -0.97165672481E+02  0.28294849216E+02 -0.46527397580E+04  0.46546525933E+04  0.86958273866E+02 0.  0.
        -11    1    3    3    0    0 -0.28607948856E+02  0.35707529183E+02 -0.80794219511E+03  0.80923669777E+03  0.00000000000E+00 0.  1.
         12    1    3    3    0    0 -0.68557723626E+02 -0.74126799674E+01 -0.38447975629E+04  0.38454158955E+04  0.00000000000E+00 0. -1.
          1    1    1    2  501    0  0.97165672481E+02 -0.28294849216E+02 -0.16253700697E+03  0.19146813060E+03  0.00000000000E+00 0. -1.
<mgrwt>
<rscale>  1 0.13342979E+03</rscale>
<asrwt>0</asrwt>
<pdfrwt beam="1">  1       21 0.23726101E-02 0.13342979E+03</pdfrwt>
<pdfrwt beam="2">  1        2 0.74318508E+00 0.13342979E+03</pdfrwt>
<totfact> 0.10729081E+03</totfact>
</mgrwt>
</event>
<event>
 6    2  0.7993170E+000  0.8901438E+02  0.7546771E-02  0.1305256E+00
         21   -1    0    0  501  502  0.00000000000E+00  0.00000000000E+00  0.69039112358E+02  0.69039112358E+02  0.00000000000E+00 0.  1.
         -3   -1    0    0    0  501 -0.00000000000E+00 -0.00000000000E+00 -0.95606076826E+02  0.95606076826E+02  0.00000000000E+00 0.  1.
         24    2    1    2    0    0  0.16280704772E+02 -0.31495839866E+02 -0.66598150640E+02  0.11117047420E+03  0.81648707201E+02 0.  0.
        -13    1    3    3    0    0  0.46989585775E+02 -0.12901102729E+02 -0.54914934656E+02  0.73417366278E+02  0.00000000000E+00 0.  1.
         14    1    3    3    0    0 -0.30708881004E+02 -0.18594737137E+02 -0.11683215984E+02  0.37753107918E+02  0.00000000000E+00 0. -1.
         -4    1    1    2    0  502 -0.16280704772E+02  0.31495839866E+02  0.40031186172E+02  0.53474714988E+02  0.00000000000E+00 0.  1.
<mgrwt>
<rscale>  1 0.89014385E+02</rscale>
<asrwt>0</asrwt>
<pdfrwt beam="1">  1       21 0.10621402E-01 0.89014385E+02</pdfrwt>
<pdfrwt beam="2">  1       -3 0.14708627E-01 0.89014385E+02</pdfrwt>
<totfact> 0.12590875E+05</totfact>
</mgrwt>
</event>
<event>
 6    2  0.7993170E+000  0.9232470E+02  0.7546771E-02  0.1297318E+00
          2   -1    0    0  502    0 -0.00000000000E+00  0.00000000000E+00  0.43222947940E+03  0.43222947940E+03  0.00000000000E+00 0. -1.
         21   -1    0    0  501  502  0.00000000000E+00 -0.00000000000E+00 -0.90094544741E+01  0.90094544741E+01  0.00000000000E+00 0.  1.
         24    2    1    2    0    0 -0.19506181170E+02 -0.10195811846E+02  0.24774289616E+03  0.26438682503E+03  0.89662728980E+02 0.  0.
        -11    1    3    3    0    0 -0.49806765497E+01  0.14112702657E+02 -0.65249089010E-01  0.14965953782E+02  0.00000000000E+00 0.  1.
         12    1    3    3    0    0 -0.14525504620E+02 -0.24308514502E+02  0.24780814525E+03  0.24942087125E+03  0.00000000000E+00 0. -1.
          1    1    1    2  501    0  0.19506181170E+02  0.10195811846E+02  0.17547712876E+03  0.17685210884E+03  0.00000000000E+00 0. -1.
<mgrwt>
<rscale>  1 0.92324702E+02</rscale>
<asrwt>0</asrwt>
<pdfrwt beam="1">  1       21 0.13860703E-02 0.92324702E+02</pdfrwt>
<pdfrwt beam="2">  1        2 0.66496827E-01 0.92324702E+02</pdfrwt>
<totfact> 0.18984764E+06</totfact>
</mgrwt>
</event>
<event>
 6    2  0.7993170E+000  0.8322747E+02  0.7546771E-02  0.1320134E+00
         21   -1    0    0  501  502  0.00000000000E+00  0.00000000000E+00  0.13409695690E+02  0.13409695690E+02  0.00000000000E+00 0. -1.
         -3   -1    0    0    0  501 -0.00000000000E+00 -0.00000000000E+00 -0.24349183443E+03  0.24349183443E+03  0.00000000000E+00 0.  1.
         24    2    1    2    0    0 -0.11385238578E+02  0.16492402896E+02 -0.21836265864E+03  0.23368581939E+03  0.80778638811E+02 0.  0.
        -11    1    3    3    0    0  0.22748681128E+02 -0.65238063615E+01 -0.16291874181E+03  0.16462860923E+03  0.00000000000E+00 0.  1.
         12    1    3    3    0    0 -0.34133919706E+02  0.23016209257E+02 -0.55443916822E+02  0.69057210164E+02  0.00000000000E+00 0. -1.
         -4    1    1    2    0  502  0.11385238578E+02 -0.16492402896E+02 -0.11719480110E+02  0.23215710732E+02  0.00000000000E+00 0.  1.
<mgrwt>
<rscale>  1 0.83227468E+02</rscale>
<asrwt>0</asrwt>
<pdfrwt beam="1">  1       21 0.20630303E-02 0.83227468E+02</pdfrwt>
<pdfrwt beam="2">  1       -3 0.37460279E-01 0.83227468E+02</pdfrwt>
<totfact> 0.35891183E+05</totfact>
</mgrwt>
</event>
<event>
 6    2  0.7993170E+000  0.8227219E+02  0.7546771E-02  0.1322724E+00
          2   -1    0    0  502    0 -0.00000000000E+00  0.00000000000E+00  0.21231266356E+04  0.21231266356E+04  0.00000000000E+00 0. -1.
         21   -1    0    0  501  502  0.00000000000E+00 -0.00000000000E+00 -0.20935550261E+01  0.20935550261E+01  0.00000000000E+00 0.  1.
         24    2    1    2    0    0  0.51515703802E+01  0.21958207607E+02  0.20210870056E+04  0.20227608354E+04  0.79120235765E+02 0.  0.
        -11    1    3    3    0    0  0.22201072232E+02  0.42141796149E+02  0.81930137302E+03  0.82068481065E+03  0.00000000000E+00 0.  1.
         12    1    3    3    0    0 -0.17049501852E+02 -0.20183588541E+02  0.12017856325E+04  0.12020760248E+04  0.00000000000E+00 0. -1.
          1    1    1    2  501    0 -0.51515703802E+01 -0.21958207607E+02  0.99946075050E+02  0.10245935524E+03  0.00000000000E+00 0. -1.
<mgrwt>
<rscale>  1 0.82272190E+02</rscale>
<asrwt>0</asrwt>
<pdfrwt beam="1">  1       21 0.32208709E-03 0.82272190E+02</pdfrwt>
<pdfrwt beam="2">  1        2 0.32663314E+00 0.82272190E+02</pdfrwt>
<totfact> 0.17643240E+06</totfact>
</mgrwt>
</event>
<event>
 6    2  0.7993170E+000  0.8437823E+02  0.7546771E-02  0.1317067E+00
          2   -1    0    0  502    0 -0.00000000000E+00  0.00000000000E+00  0.69715397885E+03  0.69715397885E+03  0.00000000000E+00 0. -1.
         21   -1    0    0  501  502  0.00000000000E+00 -0.00000000000E+00 -0.21788736987E+02  0.21788736987E+02  0.00000000000E+00 0. -1.
         24    2    1    2    0    0 -0.10992553188E+02  0.22392195853E+02  0.68647103400E+03  0.69163730832E+03  0.80606693718E+02 0.  0.
        -13    1    3    3    0    0 -0.20811535576E+02 -0.18362519885E+02  0.10336380780E+03  0.10702513215E+03  0.00000000000E+00 0.  1.
         14    1    3    3    0    0  0.98189823879E+01  0.40754715738E+02  0.58310722621E+03  0.58461217617E+03  0.00000000000E+00 0. -1.
          1    1    1    2  501    0  0.10992553188E+02 -0.22392195853E+02 -0.11105792140E+02  0.27305407519E+02  0.00000000000E+00 0. -1.
<mgrwt>
<rscale>  1 0.84378230E+02</rscale>
<asrwt>0</asrwt>
<pdfrwt beam="1">  1       21 0.33521139E-02 0.84378230E+02</pdfrwt>
<pdfrwt beam="2">  1        2 0.10725444E+00 0.84378230E+02</pdfrwt>
<totfact> 0.26985453E+05</totfact>
</mgrwt>
</event>
<event>
 6    2  0.7993170E+000  0.8270823E+02  0.7546771E-02  0.1321537E+00
         21   -1    0    0  501  502  0.00000000000E+00  0.00000000000E+00  0.49421709446E+01  0.49421709446E+01  0.00000000000E+00 0.  1.
         -1   -1    0    0    0  501 -0.00000000000E+00 -0.00000000000E+00 -0.14187151660E+04  0.14187151660E+04  0.00000000000E+00 0.  1.
         24    2    1    2    0    0  0.20605633390E+02  0.85802062591E+01 -0.13838856507E+04  0.13863549855E+04  0.79639435336E+02 0.  0.
        -11    1    3    3    0    0  0.67642117501E+01 -0.21585793988E+02 -0.11396535154E+04  0.11398779918E+04  0.00000000000E+00 0.  1.
         12    1    3    3    0    0  0.13841421640E+02  0.30166000247E+02 -0.24423213534E+03  0.24647699377E+03  0.00000000000E+00 0. -1.
         -2    1    1    2    0  502 -0.20605633390E+02 -0.85802062591E+01 -0.29887344317E+02  0.37302351363E+02  0.00000000000E+00 0.  1.
<mgrwt>
<rscale>  1 0.82708233E+02</rscale>
<asrwt>0</asrwt>
<pdfrwt beam="1">  1       21 0.76033232E-03 0.82708233E+02</pdfrwt>
<pdfrwt beam="2">  1       -1 0.21826435E+00 0.82708233E+02</pdfrwt>
<totfact> 0.67857661E+04</totfact>
</mgrwt>
</event>
<event>
 6    2  0.7993170E+000  0.8091579E+02  0.7546771E-02  0.1326472E+00
          2   -1    0    0  502    0 -0.00000000000E+00  0.00000000000E+00  0.27104176486E+04  0.27104176486E+04  0.00000000000E+00 0. -1.
         21   -1    0    0  501  502  0.00000000000E+00 -0.00000000000E+00 -0.19533229825E+01  0.19533229825E+01  0.00000000000E+00 0. -1.
         24    2    1    2    0    0 -0.22892062373E+02 -0.82068840021E+01  0.25980726572E+04  0.25993323945E+04  0.77174900456E+02 0.  0.
        -11    1    3    3    0    0 -0.28053430225E+02 -0.22692820462E+02  0.54086129302E+03  0.54206355470E+03  0.00000000000E+00 0.  1.
         12    1    3    3    0    0  0.51613678519E+01  0.14485936460E+02  0.20572113642E+04  0.20572688398E+04  0.00000000000E+00 0. -1.
          1    1    1    2  501    0  0.22892062373E+02  0.82068840021E+01  0.11039166835E+03  0.11303857707E+03  0.00000000000E+00 0. -1.
<mgrwt>
<rscale>  1 0.80915788E+02</rscale>
<asrwt>0</asrwt>
<pdfrwt beam="1">  1       21 0.30051340E-03 0.80915788E+02</pdfrwt>
<pdfrwt beam="2">  1        2 0.41698432E+00 0.80915788E+02</pdfrwt>
<totfact> 0.97116709E+05</totfact>
</mgrwt>
</event>
<event>
 6    2  0.7993170E+000  0.8671629E+02  0.7546771E-02  0.1311004E+00
         21   -1    0    0  501  502  0.00000000000E+00  0.00000000000E+00  0.77932728692E+02  0.77932728692E+02  0.00000000000E+00 0.  1.
          4   -1    0    0  502    0 -0.00000000000E+00 -0.00000000000E+00 -0.13214136316E+03  0.13214136316E+03  0.00000000000E+00 0. -1.
         24    2    1    2    0    0 -0.35617203943E+02  0.57742135042E+01 -0.11218122147E+03  0.14178977739E+03  0.78852950266E+02 0.  0.
        -11    1    3    3    0    0 -0.46612509887E+02 -0.54434583314E+01 -0.24937993771E+02  0.53143775269E+02  0.00000000000E+00 0.  1.
         12    1    3    3    0    0  0.10995305944E+02  0.11217671836E+02 -0.87243227695E+02  0.88646002125E+02  0.00000000000E+00 0. -1.
          3    1    1    2  501    0  0.35617203943E+02 -0.57742135042E+01  0.57972586996E+02  0.68284314460E+02  0.00000000000E+00 0. -1.
<mgrwt>
<rscale>  1 0.86716288E+02</rscale>
<asrwt>0</asrwt>
<pdfrwt beam="1">  1       21 0.11989651E-01 0.86716288E+02</pdfrwt>
<pdfrwt beam="2">  1        4 0.20329441E-01 0.86716288E+02</pdfrwt>
<totfact> 0.49036960E+04</totfact>
</mgrwt>
</event>
<event>
 6    2  0.7993170E+000  0.8130331E+02  0.7546771E-02  0.1325393E+00
          2   -1    0    0  502    0 -0.00000000000E+00  0.00000000000E+00  0.15170096637E+04  0.15170096637E+04  0.00000000000E+00 0. -1.
         21   -1    0    0  501  502  0.00000000000E+00 -0.00000000000E+00 -0.78169238595E+01  0.78169238595E+01  0.00000000000E+00 0. -1.
         24    2    1    2    0    0 -0.17172751271E+02 -0.21231229429E+02  0.14881065702E+04  0.14903259348E+04  0.76580410207E+02 0.  0.
        -13    1    3    3    0    0 -0.35455371684E+01 -0.25171295529E+02  0.14960539231E+03  0.15174959097E+03  0.00000000000E+00 0.  1.
         14    1    3    3    0    0 -0.13627214102E+02  0.39400661001E+01  0.13385011779E+04  0.13385763439E+04  0.00000000000E+00 0. -1.
          1    1    1    2  501    0  0.17172751271E+02  0.21231229429E+02  0.21086169631E+02  0.34500652732E+02  0.00000000000E+00 0. -1.
<mgrwt>
<rscale>  1 0.81303307E+02</rscale>
<asrwt>0</asrwt>
<pdfrwt beam="1">  1       21 0.12026049E-02 0.81303307E+02</pdfrwt>
<pdfrwt beam="2">  1        2 0.23338587E+00 0.81303307E+02</pdfrwt>
<totfact> 0.46727726E+05</totfact>
</mgrwt>
</event>
<event>
 6    2  0.7993170E+000  0.9106678E+02  0.7546771E-02  0.1300289E+00
         21   -1    0    0  501  502  0.00000000000E+00  0.00000000000E+00  0.42763087365E+01  0.42763087365E+01  0.00000000000E+00 0.  1.
          2   -1    0    0  502    0 -0.00000000000E+00 -0.00000000000E+00 -0.11175460940E+04  0.11175460940E+04  0.00000000000E+00 0. -1.
         24    2    1    2    0    0 -0.25026350069E+01  0.36894095757E+02 -0.95303274271E+03  0.95737378678E+03  0.83220919551E+02 0.  0.
        -11    1    3    3    0    0  0.36737589066E+02  0.27571102862E+02 -0.35118332614E+03  0.35417445520E+03  0.00000000000E+00 0.  1.
         12    1    3    3    0    0 -0.39240224073E+02  0.93229928957E+01 -0.60184941658E+03  0.60319933158E+03  0.00000000000E+00 0. -1.
          1    1    1    2  501    0  0.25026350069E+01 -0.36894095757E+02 -0.16023704252E+03  0.16444861593E+03  0.00000000000E+00 0. -1.
<mgrwt>
<rscale>  1 0.91066783E+02</rscale>
<asrwt>0</asrwt>
<pdfrwt beam="1">  1       21 0.65789293E-03 0.91066783E+02</pdfrwt>
<pdfrwt beam="2">  1        2 0.17193036E+00 0.91066783E+02</pdfrwt>
<totfact> 0.19560411E+06</totfact>
</mgrwt>
</event>
<event>
 6    2  0.7993170E+000  0.8480744E+02  0.7546771E-02  0.1315937E+00
         21   -1    0    0  501  502  0.00000000000E+00  0.00000000000E+00  0.16552885660E+01  0.16552885660E+01  0.00000000000E+00 0.  1.
          2   -1    0    0  502    0 -0.00000000000E+00 -0.00000000000E+00 -0.18221572112E+04  0.18221572112E+04  0.00000000000E+00 0. -1.
         24    2    1    2    0    0  0.81758726162E+01 -0.23615279859E+02 -0.14268793445E+04  0.14293974134E+04  0.81041812292E+02 0.  0.
        -11    1    3    3    0    0 -0.84789556397E+01 -0.25920733741E+02 -0.15329371012E+03  0.15570079861E+03  0.00000000000E+00 0.  1.
         12    1    3    3    0    0  0.16654828256E+02  0.23054538821E+01 -0.12735856344E+04  0.12736966148E+04  0.00000000000E+00 0. -1.
          1    1    1    2  501    0 -0.81758726162E+01  0.23615279859E+02 -0.39362257811E+03  0.39441508635E+03  0.00000000000E+00 0. -1.
<mgrwt>
<rscale>  1 0.84807439E+02</rscale>
<asrwt>0</asrwt>
<pdfrwt beam="1">  1       21 0.25465937E-03 0.84807439E+02</pdfrwt>
<pdfrwt beam="2">  1        2 0.28033233E+00 0.84807439E+02</pdfrwt>
<totfact> 0.35651120E+06</totfact>
</mgrwt>
</event>
<event>
 6    2  0.7993170E+000  0.9418506E+02  0.7546771E-02  0.1293022E+00
         21   -1    0    0  501  502  0.00000000000E+00  0.00000000000E+00  0.81596543183E+02  0.81596543183E+02  0.00000000000E+00 0. -1.
         -1   -1    0    0    0  501 -0.00000000000E+00 -0.00000000000E+00 -0.82295157894E+02  0.82295157894E+02  0.00000000000E+00 0.  1.
         24    2    1    2    0    0  0.11299124292E+02  0.49707336736E+02  0.36264432420E+02  0.10092538954E+03  0.79198078640E+02 0.  0.
        -13    1    3    3    0    0  0.13731198402E+02 -0.16913725087E+02 -0.52251692095E+01  0.22403622456E+02  0.00000000000E+00 0.  1.
         14    1    3    3    0    0 -0.24320741105E+01  0.66621061823E+02  0.41489601630E+02  0.78521767086E+02  0.00000000000E+00 0. -1.
         -2    1    1    2    0  502 -0.11299124292E+02 -0.49707336736E+02 -0.36963047131E+02  0.62966311535E+02  0.00000000000E+00 0.  1.
<mgrwt>
<rscale>  1 0.94185058E+02</rscale>
<asrwt>0</asrwt>
<pdfrwt beam="1">  1       21 0.12553314E-01 0.94185058E+02</pdfrwt>
<pdfrwt beam="2">  1       -1 0.12660793E-01 0.94185058E+02</pdfrwt>
<totfact> 0.19499565E+05</totfact>
</mgrwt>
</event>
<event>
 6    2  0.7993170E+000  0.8364491E+02  0.7546771E-02  0.1319015E+00
         21   -1    0    0  501  502  0.00000000000E+00  0.00000000000E+00  0.17205595160E+01  0.17205595160E+01  0.00000000000E+00 0.  1.
          2   -1    0    0  502    0 -0.00000000000E+00 -0.00000000000E+00 -0.17555308227E+04  0.17555308227E+04  0.00000000000E+00 0. -1.
         24    2    1    2    0    0  0.89122831305E-01 -0.23019603429E+02 -0.15232378192E+04  0.15255326691E+04  0.80414927443E+02 0.  0.
        -13    1    3    3    0    0  0.20325365825E+02  0.10940805410E+02 -0.15362944522E+03  0.15535388040E+03  0.00000000000E+00 0.  1.
         14    1    3    3    0    0 -0.20236242994E+02 -0.33960408838E+02 -0.13696083740E+04  0.13701787887E+04  0.00000000000E+00 0. -1.
          1    1    1    2  501    0 -0.89122831305E-01  0.23019603429E+02 -0.23057244398E+03  0.23171871312E+03  0.00000000000E+00 0. -1.
<mgrwt>
<rscale>  1 0.83644908E+02</rscale>
<asrwt>0</asrwt>
<pdfrwt beam="1">  1       21 0.26470234E-03 0.83644908E+02</pdfrwt>
<pdfrwt beam="2">  1        2 0.27008077E+00 0.83644908E+02</pdfrwt>
<totfact> 0.36271159E+06</totfact>
</mgrwt>
</event>
<event>
 6    2  0.7993170E+000  0.9086831E+02  0.7546771E-02  0.1300762E+00
          2   -1    0    0  502    0 -0.00000000000E+00  0.00000000000E+00  0.84159153247E+03  0.84159153247E+03  0.00000000000E+00 0. -1.
         21   -1    0    0  501  502  0.00000000000E+00 -0.00000000000E+00 -0.55562303690E+01  0.55562303690E+01  0.00000000000E+00 0.  1.
         24    2    1    2    0    0  0.39917580089E+02 -0.49531621641E+01  0.67852726157E+03  0.68458476014E+03  0.81480685456E+02 0.  0.
        -13    1    3    3    0    0  0.31872391512E+02  0.56716799505E+01  0.85745338001E+02  0.91653042955E+02  0.00000000000E+00 0.  1.
         14    1    3    3    0    0  0.80451885775E+01 -0.10624842115E+02  0.59278192357E+03  0.59293171718E+03  0.00000000000E+00 0. -1.
          1    1    1    2  501    0 -0.39917580089E+02  0.49531621641E+01  0.15750804053E+03  0.16256300270E+03  0.00000000000E+00 0. -1.
<mgrwt>
<rscale>  1 0.90868306E+02</rscale>
<asrwt>0</asrwt>
<pdfrwt beam="1">  1       21 0.85480534E-03 0.90868306E+02</pdfrwt>
<pdfrwt beam="2">  1        2 0.12947552E+00 0.90868306E+02</pdfrwt>
<totfact> 0.19021413E+06</totfact>
</mgrwt>
</event>
<event>
 6    2  0.7993170E+000  0.8412027E+02  0.7546771E-02  0.1317749E+00
         21   -1    0    0  501  502  0.00000000000E+00  0.00000000000E+00  0.30071132001E+02  0.30071132001E+02  0.00000000000E+00 0.  1.
          4   -1    0    0  502    0 -0.00000000000E+00 -0.00000000000E+00 -0.10572286901E+03  0.10572286901E+03  0.00000000000E+00 0. -1.
         24    2    1    2    0    0 -0.18191710800E+01 -0.23640269211E+02 -0.73982535149E+02  0.11202515698E+03  0.80709656034E+02 0.  0.
        -11    1    3    3    0    0 -0.33683576865E+02  0.11246080364E+02 -0.41849048081E+02  0.54885339566E+02  0.00000000000E+00 0.  1.
         12    1    3    3    0    0  0.31864405785E+02 -0.34886349575E+02 -0.32133487068E+02  0.57139817412E+02  0.00000000000E+00 0. -1.
          3    1    1    2  501    0  0.18191710800E+01  0.23640269211E+02 -0.16692018585E+01  0.23768844032E+02  0.00000000000E+00 0. -1.
<mgrwt>
<rscale>  1 0.84120273E+02</rscale>
<asrwt>0</asrwt>
<pdfrwt beam="1">  1       21 0.46263280E-02 0.84120273E+02</pdfrwt>
<pdfrwt beam="2">  1        4 0.16265057E-01 0.84120273E+02</pdfrwt>
<totfact> 0.36470971E+05</totfact>
</mgrwt>
</event>
<event>
 6    2  0.7993170E+000  0.8795677E+02  0.7546771E-02  0.1307876E+00
          2   -1    0    0  502    0 -0.00000000000E+00  0.00000000000E+00  0.22646592602E+03  0.22646592602E+03  0.00000000000E+00 0. -1.
         21   -1    0    0  501  502  0.00000000000E+00 -0.00000000000E+00 -0.21507641906E+02  0.21507641906E+02  0.00000000000E+00 0. -1.
         24    2    1    2    0    0 -0.16491980613E+02 -0.32471218048E+02  0.18849375363E+03  0.20800550330E+03  0.80062655586E+02 0.  0.
        -11    1    3    3    0    0 -0.30080703592E+02 -0.15088454423E+02  0.22339295453E+02  0.40392503102E+02  0.00000000000E+00 0.  1.
         12    1    3    3    0    0  0.13588722979E+02 -0.17382763625E+02  0.16615445817E+03  0.16761300019E+03  0.00000000000E+00 0. -1.
          1    1    1    2  501    0  0.16491980613E+02  0.32471218048E+02  0.16464530490E+02  0.39968064631E+02  0.00000000000E+00 0. -1.
<mgrwt>
<rscale>  1 0.87956775E+02</rscale>
<asrwt>0</asrwt>
<pdfrwt beam="1">  1       21 0.33088682E-02 0.87956775E+02</pdfrwt>
<pdfrwt beam="2">  1        2 0.34840910E-01 0.87956775E+02</pdfrwt>
<totfact> 0.92100204E+05</totfact>
</mgrwt>
</event>
<event>
 6    2  0.7993170E+000  0.8394004E+02  0.7546771E-02  0.1318228E+00
          2   -1    0    0  502    0 -0.00000000000E+00  0.00000000000E+00  0.79318394315E+03  0.79318394315E+03  0.00000000000E+00 0. -1.
         21   -1    0    0  501  502  0.00000000000E+00 -0.00000000000E+00 -0.62348950775E+01  0.62348950775E+01  0.00000000000E+00 0.  1.
         24    2    1    2    0    0  0.80328021788E+01  0.26320805765E+02  0.74187078084E+03  0.74660443769E+03  0.79300820900E+02 0.  0.
        -13    1    3    3    0    0 -0.12859151332E+01  0.52974758945E+02  0.38682459349E+03  0.39043724821E+03  0.00000000000E+00 0.  1.
         14    1    3    3    0    0  0.93187173119E+01 -0.26653953180E+02  0.35504618735E+03  0.35616718948E+03  0.00000000000E+00 0. -1.
          1    1    1    2  501    0 -0.80328021788E+01 -0.26320805765E+02  0.45078267237E+02  0.52814400536E+02  0.00000000000E+00 0. -1.
<mgrwt>
<rscale>  1 0.83940044E+02</rscale>
<asrwt>0</asrwt>
<pdfrwt beam="1">  1       21 0.95921525E-03 0.83940044E+02</pdfrwt>
<pdfrwt beam="2">  1        2 0.12202822E+00 0.83940044E+02</pdfrwt>
<totfact> 0.16961586E+06</totfact>
</mgrwt>
</event>
<event>
 6    2  0.7993170E+000  0.8510119E+02  0.7546771E-02  0.1315168E+00
         21   -1    0    0  501  502  0.00000000000E+00  0.00000000000E+00  0.10277261679E+03  0.10277261679E+03  0.00000000000E+00 0. -1.
         -3   -1    0    0    0  501 -0.00000000000E+00 -0.00000000000E+00 -0.61125062661E+02  0.61125062661E+02  0.00000000000E+00 0.  1.
         24    2    1    2    0    0 -0.35112761163E+02  0.16921083426E+02 -0.23227503771E+02  0.88214113213E+02  0.75650405007E+02 0.  0.
        -11    1    3    3    0    0 -0.53848501418E+02  0.29957482607E+02 -0.12003981362E+02  0.62779036610E+02  0.00000000000E+00 0.  1.
         12    1    3    3    0    0  0.18735740256E+02 -0.13036399181E+02 -0.11223522410E+02  0.25435076603E+02  0.00000000000E+00 0. -1.
         -4    1    1    2    0  502  0.35112761163E+02 -0.16921083426E+02  0.64875057897E+02  0.75683566234E+02  0.00000000000E+00 0.  1.
<mgrwt>
<rscale>  1 0.85101192E+02</rscale>
<asrwt>0</asrwt>
<pdfrwt beam="1">  1       21 0.15811172E-01 0.85101192E+02</pdfrwt>
<pdfrwt beam="2">  1       -3 0.94038558E-02 0.85101192E+02</pdfrwt>
<totfact> 0.13015844E+05</totfact>
</mgrwt>
</event>
<event>
 6    2  0.7993170E+000  0.8307670E+02  0.7546771E-02  0.1320540E+00
          2   -1    0    0  502    0 -0.00000000000E+00  0.00000000000E+00  0.38312514804E+03  0.38312514804E+03  0.00000000000E+00 0. -1.
         21   -1    0    0  501  502  0.00000000000E+00 -0.00000000000E+00 -0.75676776801E+01  0.75676776801E+01  0.00000000000E+00 0.  1.
         24    2    1    2    0    0 -0.13074697717E+02 -0.15341734309E+02  0.24780829457E+03  0.26136313676E+03  0.80594180103E+02 0.  0.
        -13    1    3    3    0    0  0.13732908759E+02 -0.42380546703E+02  0.14706765103E+03  0.15366716468E+03  0.00000000000E+00 0.  1.
         14    1    3    3    0    0 -0.26807606476E+02  0.27038812394E+02  0.10074064354E+03  0.10769597208E+03  0.00000000000E+00 0. -1.
          1    1    1    2  501    0  0.13074697717E+02  0.15341734309E+02  0.12774917578E+03  0.12932968895E+03  0.00000000000E+00 0. -1.
<mgrwt>
<rscale>  1 0.83076702E+02</rscale>
<asrwt>0</asrwt>
<pdfrwt beam="1">  1       21 0.11642584E-02 0.83076702E+02</pdfrwt>
<pdfrwt beam="2">  1        2 0.58942315E-01 0.83076702E+02</pdfrwt>
<totfact> 0.27998473E+06</totfact>
</mgrwt>
</event>
<event>
 6    2  0.7993170E+000  0.8809747E+02  0.7546771E-02  0.1307525E+00
          4   -1    0    0  502    0 -0.00000000000E+00  0.00000000000E+00  0.79860618412E+01  0.79860618412E+01  0.00000000000E+00 0. -1.
         21   -1    0    0  501  502  0.00000000000E+00 -0.00000000000E+00 -0.79018248694E+03  0.79018248694E+03  0.00000000000E+00 0. -1.
         24    2    1    2    0    0 -0.53778248855E+01  0.29100914860E+02 -0.24853043769E+03  0.26368265527E+03  0.82978189817E+02 0.  0.
        -11    1    3    3    0    0  0.21037988344E+01  0.48426815084E+02 -0.23245507883E+03  0.23745514537E+03  0.00000000000E+00 0.  1.
         12    1    3    3    0    0 -0.74816237200E+01 -0.19325900224E+02 -0.16075358856E+02  0.26227509896E+02  0.00000000000E+00 0. -1.
          3    1    1    2  501    0  0.53778248855E+01 -0.29100914860E+02 -0.53366598741E+03  0.53448589351E+03  0.00000000000E+00 0. -1.
<mgrwt>
<rscale>  1 0.88097470E+02</rscale>
<asrwt>0</asrwt>
<pdfrwt beam="1">  1       21 0.12156657E+00 0.88097470E+02</pdfrwt>
<pdfrwt beam="2">  1        4 0.12286245E-02 0.88097470E+02</pdfrwt>
<totfact> 0.43358289E+04</totfact>
</mgrwt>
</event>
<event>
 6    2  0.7993170E+000  0.8691913E+02  0.7546771E-02  0.1310489E+00
         -3   -1    0    0    0  501 -0.00000000000E+00  0.00000000000E+00  0.98068726461E+03  0.98068726461E+03  0.00000000000E+00 0.  1.
         21   -1    0    0  501  502  0.00000000000E+00 -0.00000000000E+00 -0.44780206098E+01  0.44780206098E+01  0.00000000000E+00 0. -1.
         24    2    1    2    0    0  0.22279992373E+02 -0.23606510713E+02  0.47367516918E+03  0.48158394942E+03  0.80630447322E+02 0.  0.
        -13    1    3    3    0    0 -0.17230671478E+02  0.35362894215E+01  0.32275487891E+03  0.32323383679E+03  0.00000000000E+00 0.  1.
         14    1    3    3    0    0  0.39510663851E+02 -0.27142800134E+02  0.15092029027E+03  0.15835011263E+03  0.00000000000E+00 0. -1.
         -4    1    1    2    0  502 -0.22279992373E+02  0.23606510713E+02  0.50253407482E+03  0.50358133579E+03  0.00000000000E+00 0.  1.
<mgrwt>
<rscale>  1 0.86919126E+02</rscale>
<asrwt>0</asrwt>
<pdfrwt beam="1">  1       21 0.68892703E-03 0.86919126E+02</pdfrwt>
<pdfrwt beam="2">  1       -3 0.15087479E+00 0.86919126E+02</pdfrwt>
<totfact> 0.10284496E+05</totfact>
</mgrwt>
</event>
<event>
 6    2  0.7993170E+000  0.9124567E+02  0.7546771E-02  0.1299863E+00
         21   -1    0    0  501  502  0.00000000000E+00  0.00000000000E+00  0.42429066656E+02  0.42429066656E+02  0.00000000000E+00 0. -1.
          2   -1    0    0  502    0 -0.00000000000E+00 -0.00000000000E+00 -0.12625260160E+03  0.12625260160E+03  0.00000000000E+00 0. -1.
         24    2    1    2    0    0 -0.36071457226E+02  0.23924887998E+02 -0.23124712223E+02  0.94130361280E+02  0.80325726309E+02 0.  0.
        -11    1    3    3    0    0 -0.20578856257E+02 -0.19324108608E+02  0.17154228584E+02  0.33032984374E+02  0.00000000000E+00 0.  1.
         12    1    3    3    0    0 -0.15492600969E+02  0.43248996606E+02 -0.40278940807E+02  0.61097376906E+02  0.00000000000E+00 0. -1.
          1    1    1    2  501    0  0.36071457226E+02 -0.23924887998E+02 -0.60698822725E+02  0.74551306980E+02  0.00000000000E+00 0. -1.
<mgrwt>
<rscale>  1 0.91245672E+02</rscale>
<asrwt>0</asrwt>
<pdfrwt beam="1">  1       21 0.65275488E-02 0.91245672E+02</pdfrwt>
<pdfrwt beam="2">  1        2 0.19423477E-01 0.91245672E+02</pdfrwt>
<totfact> 0.56483916E+05</totfact>
</mgrwt>
</event>
<event>
 6    2  0.7993170E+000  0.8763146E+02  0.7546771E-02  0.1308691E+00
         -3   -1    0    0    0  501 -0.00000000000E+00  0.00000000000E+00  0.54142149678E+03  0.54142149678E+03  0.00000000000E+00 0.  1.
         21   -1    0    0  501  502  0.00000000000E+00 -0.00000000000E+00 -0.13901994045E+02  0.13901994045E+02  0.00000000000E+00 0.  1.
         24    2    1    2    0    0 -0.22399538422E+02  0.28887503435E+02  0.50465563401E+03  0.51220755793E+03  0.79643243821E+02 0.  0.
        -11    1    3    3    0    0 -0.18543926337E+02 -0.57446970866E+01  0.42277541144E+03  0.42322089654E+03  0.00000000000E+00 0.  1.
         12    1    3    3    0    0 -0.38556120847E+01  0.34632200522E+02  0.81880222572E+02  0.88986661394E+02  0.00000000000E+00 0. -1.
         -4    1    1    2    0  502  0.22399538422E+02 -0.28887503435E+02  0.22863868723E+02  0.43115932892E+02  0.00000000000E+00 0.  1.
<mgrwt>
<rscale>  1 0.87631464E+02</rscale>
<asrwt>0</asrwt>
<pdfrwt beam="1">  1       21 0.21387687E-02 0.87631464E+02</pdfrwt>
<pdfrwt beam="2">  1       -3 0.83295599E-01 0.87631464E+02</pdfrwt>
<totfact> 0.68155673E+04</totfact>
</mgrwt>
</event>
<event>
 6    2  0.7993170E+000  0.9294202E+02  0.7546771E-02  0.1295880E+00
         21   -1    0    0  501  502  0.00000000000E+00  0.00000000000E+00  0.42765316181E+02  0.42765316181E+02  0.00000000000E+00 0. -1.
          2   -1    0    0  502    0 -0.00000000000E+00 -0.00000000000E+00 -0.11896594690E+03  0.11896594690E+03  0.00000000000E+00 0. -1.
         24    2    1    2    0    0  0.43726901441E+02  0.77023182871E+01 -0.71140951127E+02  0.11704381546E+03  0.81650794205E+02 0.  0.
        -13    1    3    3    0    0 -0.10916976592E+02  0.19723470924E+02  0.44706934925E+01  0.22982227558E+02  0.00000000000E+00 0.  1.
         14    1    3    3    0    0  0.54643878034E+02 -0.12021152637E+02 -0.75611644619E+02  0.94061587905E+02  0.00000000000E+00 0. -1.
          1    1    1    2  501    0 -0.43726901441E+02 -0.77023182871E+01 -0.50596795879E+01  0.44687447613E+02  0.00000000000E+00 0. -1.
<mgrwt>
<rscale>  1 0.92942024E+02</rscale>
<asrwt>0</asrwt>
<pdfrwt beam="1">  1       21 0.65792795E-02 0.92942024E+02</pdfrwt>
<pdfrwt beam="2">  1        2 0.18302453E-01 0.92942024E+02</pdfrwt>
<totfact> 0.59691921E+05</totfact>
</mgrwt>
</event>
<event>
 6    2  0.7993170E+000  0.2867076E+03  0.7546771E-02  0.1092081E+00
         21   -1    0    0  501  502  0.00000000000E+00  0.00000000000E+00  0.60363955348E+03  0.60363955348E+03  0.00000000000E+00 0.  1.
         -1   -1    0    0    0  501 -0.00000000000E+00 -0.00000000000E+00 -0.13314883166E+03  0.13314883166E+03  0.00000000000E+00 0.  1.
         24    2    1    2    0    0  0.11781562492E+03  0.24889574159E+03  0.28835487716E+03  0.40663224396E+03  0.79822521829E+02 0.  0.
        -13    1    3    3    0    0  0.40787406299E+02  0.79656847838E+02  0.15073926027E+03  0.17530302481E+03  0.00000000000E+00 0.  1.
         14    1    3    3    0    0  0.77028218617E+02  0.16923889375E+03  0.13761561689E+03  0.23132921915E+03  0.00000000000E+00 0. -1.
         -2    1    1    2    0  502 -0.11781562492E+03 -0.24889574159E+03  0.18213584466E+03  0.33015614119E+03  0.00000000000E+00 0.  1.
<mgrwt>
<rscale>  1 0.28670760E+03</rscale>
<asrwt>0</asrwt>
<pdfrwt beam="1">  1       21 0.92867622E-01 0.28670760E+03</pdfrwt>
<pdfrwt beam="2">  1       -1 0.20484436E-01 0.28670760E+03</pdfrwt>
<totfact> 0.16665387E+03</totfact>
</mgrwt>
</event>
<event>
 6    2  0.7993170E+000  0.7286225E+02  0.7546771E-02  0.1350622E+00
         21   -1    0    0  501  502  0.00000000000E+00  0.00000000000E+00  0.22387018551E+03  0.22387018551E+03  0.00000000000E+00 0. -1.
          4   -1    0    0  502    0 -0.00000000000E+00 -0.00000000000E+00 -0.10746175741E+02  0.10746175741E+02  0.00000000000E+00 0. -1.
         24    2    1    2    0    0 -0.22167678614E+02 -0.10827666827E+02  0.14767135038E+03  0.16466855953E+03  0.68558459957E+02 0.  0.
        -13    1    3    3    0    0  0.18656553396E+02  0.13124589186E+02  0.28929390990E+02  0.36840622809E+02  0.00000000000E+00 0.  1.
         14    1    3    3    0    0 -0.40824232010E+02 -0.23952256013E+02  0.11874195939E+03  0.12782793672E+03  0.00000000000E+00 0. -1.
          3    1    1    2  501    0  0.22167678614E+02  0.10827666827E+02  0.65452659392E+02  0.69947801721E+02  0.00000000000E+00 0. -1.
<mgrwt>
<rscale>  1 0.72862245E+02</rscale>
<asrwt>0</asrwt>
<pdfrwt beam="1">  1       21 0.34441564E-01 0.72862245E+02</pdfrwt>
<pdfrwt beam="2">  1        4 0.16532580E-02 0.72862245E+02</pdfrwt>
<totfact> 0.39813697E+05</totfact>
</mgrwt>
</event>
<event>
 6    2  0.7993170E+000  0.7799580E+02  0.7546771E-02  0.1334837E+00
         -1   -1    0    0    0  501 -0.00000000000E+00  0.00000000000E+00  0.55202230435E+01  0.55202230435E+01  0.00000000000E+00 0.  1.
         21   -1    0    0  501  502  0.00000000000E+00 -0.00000000000E+00 -0.69112367680E+03  0.69112367680E+03  0.00000000000E+00 0.  1.
         24    2    1    2    0    0  0.48793988521E+01  0.24933449663E+02 -0.29250109506E+03  0.30272138226E+03  0.73741841731E+02 0.  0.
        -13    1    3    3    0    0 -0.25799286222E+02  0.31926675277E+02 -0.10763181233E+03  0.11519341470E+03  0.00000000000E+00 0.  1.
         14    1    3    3    0    0  0.30678685074E+02 -0.69932256135E+01 -0.18486928273E+03  0.18752796756E+03  0.00000000000E+00 0. -1.
         -2    1    1    2    0  502 -0.48793988521E+01 -0.24933449663E+02 -0.39310235870E+03  0.39392251759E+03  0.00000000000E+00 0.  1.
<mgrwt>
<rscale>  1 0.77995799E+02</rscale>
<asrwt>0</asrwt>
<pdfrwt beam="1">  1       21 0.10632667E+00 0.77995799E+02</pdfrwt>
<pdfrwt beam="2">  1       -1 0.84926551E-03 0.77995799E+02</pdfrwt>
<totfact> 0.13945457E+05</totfact>
</mgrwt>
</event>
<event>
 6    2  0.7993170E+000  0.8538897E+02  0.7546771E-02  0.1314418E+00
          2   -1    0    0  502    0 -0.00000000000E+00  0.00000000000E+00  0.10810768400E+03  0.10810768400E+03  0.00000000000E+00 0. -1.
         21   -1    0    0  501  502  0.00000000000E+00 -0.00000000000E+00 -0.52435711757E+02  0.52435711757E+02  0.00000000000E+00 0. -1.
         24    2    1    2    0    0  0.22963391461E+02 -0.83540723806E+01  0.86271741058E+02  0.12138405813E+03  0.81817897733E+02 0.  0.
        -13    1    3    3    0    0 -0.68834549446E+01 -0.39141152816E+02  0.56917697252E+02  0.69419277266E+02  0.00000000000E+00 0.  1.
         14    1    3    3    0    0  0.29846846406E+02  0.30787080435E+02  0.29354043806E+02  0.51964780860E+02  0.00000000000E+00 0. -1.
          1    1    1    2  501    0 -0.22963391461E+02  0.83540723806E+01 -0.30599768811E+02  0.39159337635E+02  0.00000000000E+00 0. -1.
<mgrwt>
<rscale>  1 0.85388970E+02</rscale>
<asrwt>0</asrwt>
<pdfrwt beam="1">  1       21 0.80670326E-02 0.85388970E+02</pdfrwt>
<pdfrwt beam="2">  1        2 0.16631951E-01 0.85388970E+02</pdfrwt>
<totfact> 0.46694275E+05</totfact>
</mgrwt>
</event>
<event>
 6    2  0.7993170E+000  0.8410632E+02  0.7546771E-02  0.1317786E+00
         21   -1    0    0  501  502  0.00000000000E+00  0.00000000000E+00  0.40872160974E+01  0.40872160974E+01  0.00000000000E+00 0.  1.
          2   -1    0    0  502    0 -0.00000000000E+00 -0.00000000000E+00 -0.74514588908E+03  0.74514588908E+03  0.00000000000E+00 0. -1.
         24    2    1    2    0    0 -0.26027631086E+02  0.33643890906E+01 -0.55823487599E+03  0.56453525072E+03  0.79906919860E+02 0.  0.
        -11    1    3    3    0    0  0.18698763431E+02 -0.79018690543E+01 -0.46650204727E+02  0.50875582448E+02  0.00000000000E+00 0.  1.
         12    1    3    3    0    0 -0.44726394516E+02  0.11266258145E+02 -0.51158467126E+03  0.51365966827E+03  0.00000000000E+00 0. -1.
          1    1    1    2  501    0  0.26027631086E+02 -0.33643890906E+01 -0.18282379699E+03  0.18469785446E+03  0.00000000000E+00 0. -1.
<mgrwt>
<rscale>  1 0.84106317E+02</rscale>
<asrwt>0</asrwt>
<pdfrwt beam="1">  1       21 0.62880252E-03 0.84106317E+02</pdfrwt>
<pdfrwt beam="2">  1        2 0.11463782E+00 0.84106317E+02</pdfrwt>
<totfact> 0.35164910E+06</totfact>
</mgrwt>
</event>
<event>
 6    2  0.7993170E+000  0.9189329E+02  0.7546771E-02  0.1298331E+00
         21   -1    0    0  501  502  0.00000000000E+00  0.00000000000E+00  0.22998380364E+01  0.22998380364E+01  0.00000000000E+00 0. -1.
         -3   -1    0    0    0  501 -0.00000000000E+00 -0.00000000000E+00 -0.20674520360E+04  0.20674520360E+04  0.00000000000E+00 0.  1.
         24    2    1    2    0    0  0.40523853286E+02 -0.15007631704E+02 -0.11954119023E+04  0.11989386945E+04  0.81098491942E+02 0.  0.
        -13    1    3    3    0    0  0.16656783915E+02 -0.48182766508E+02 -0.68193186038E+03  0.68383484091E+03  0.00000000000E+00 0.  1.
         14    1    3    3    0    0  0.23867069370E+02  0.33175134804E+02 -0.51348004187E+03  0.51510385357E+03  0.00000000000E+00 0. -1.
         -4    1    1    2    0  502 -0.40523853286E+02  0.15007631704E+02 -0.86974029575E+03  0.87081317958E+03  0.00000000000E+00 0.  1.
<mgrwt>
<rscale>  1 0.91893292E+02</rscale>
<asrwt>0</asrwt>
<pdfrwt beam="1">  1       21 0.35382282E-03 0.91893292E+02</pdfrwt>
<pdfrwt beam="2">  1       -3 0.31806812E+00 0.91893292E+02</pdfrwt>
<totfact> 0.32353589E+04</totfact>
</mgrwt>
</event>
<event>
 6    2  0.7993170E+000  0.8327128E+02  0.7546771E-02  0.1320016E+00
         21   -1    0    0  501  502  0.00000000000E+00  0.00000000000E+00  0.63497380460E+01  0.63497380460E+01  0.00000000000E+00 0.  1.
          2   -1    0    0  502    0 -0.00000000000E+00 -0.00000000000E+00 -0.44874215063E+03  0.44874215063E+03  0.00000000000E+00 0. -1.
         24    2    1    2    0    0  0.22169944675E+02  0.49189644940E+01 -0.32316264167E+03  0.33371874118E+03  0.80114933635E+02 0.  0.
        -11    1    3    3    0    0  0.39493350765E+02 -0.26306794568E+02 -0.19279665579E+03  0.19855055447E+03  0.00000000000E+00 0.  1.
         12    1    3    3    0    0 -0.17323406090E+02  0.31225759061E+02 -0.13036598588E+03  0.13516818672E+03  0.00000000000E+00 0. -1.
          1    1    1    2  501    0 -0.22169944675E+02 -0.49189644940E+01 -0.11922977092E+03  0.12137314749E+03  0.00000000000E+00 0. -1.
<mgrwt>
<rscale>  1 0.83271275E+02</rscale>
<asrwt>0</asrwt>
<pdfrwt beam="1">  1       21 0.97688239E-03 0.83271275E+02</pdfrwt>
<pdfrwt beam="2">  1        2 0.69037281E-01 0.83271275E+02</pdfrwt>
<totfact> 0.31195963E+06</totfact>
</mgrwt>
</event>
<event>
 6    2  0.7993170E+000  0.8417841E+02  0.7546771E-02  0.1317595E+00
         -1   -1    0    0    0  501 -0.00000000000E+00  0.00000000000E+00  0.68604853504E+02  0.68604853504E+02  0.00000000000E+00 0.  1.
         21   -1    0    0  501  502  0.00000000000E+00 -0.00000000000E+00 -0.10377998750E+03  0.10377998750E+03  0.00000000000E+00 0. -1.
         24    2    1    2    0    0  0.18716531831E+02 -0.16087108258E+02 -0.83220799443E+02  0.11837105031E+03  0.80479192816E+02 0.  0.
        -13    1    3    3    0    0  0.32638924380E+02  0.22872419534E+02 -0.56417039209E+02  0.69074809251E+02  0.00000000000E+00 0.  1.
         14    1    3    3    0    0 -0.13922392549E+02 -0.38959527792E+02 -0.26803760234E+02  0.49296241061E+02  0.00000000000E+00 0. -1.
         -2    1    1    2    0  502 -0.18716531831E+02  0.16087108258E+02  0.48045665451E+02  0.54013790688E+02  0.00000000000E+00 0.  1.
<mgrwt>
<rscale>  1 0.84178406E+02</rscale>
<asrwt>0</asrwt>
<pdfrwt beam="1">  1       21 0.15966152E-01 0.84178406E+02</pdfrwt>
<pdfrwt beam="2">  1       -1 0.10554593E-01 0.84178406E+02</pdfrwt>
<totfact> 0.16626787E+05</totfact>
</mgrwt>
</event>
<event>
 6    2  0.7993170E+000  0.8253800E+02  0.7546771E-02  0.1321999E+00
          2   -1    0    0  502    0 -0.00000000000E+00  0.00000000000E+00  0.19171610638E+04  0.19171610638E+04  0.00000000000E+00 0. -1.
         21   -1    0    0  501  502  0.00000000000E+00 -0.00000000000E+00 -0.17504064991E+01  0.17504064991E+01  0.00000000000E+00 0.  1.
         24    2    1    2    0    0 -0.11055552509E+02 -0.20161010299E+02  0.17457163613E+04  0.17476664830E+04  0.79270613321E+02 0.  0.
        -11    1    3    3    0    0 -0.15678288112E+02 -0.47125478877E+01  0.70630008124E+02  0.72502516324E+02  0.00000000000E+00 0.  1.
         12    1    3    3    0    0  0.46227356024E+01 -0.15448462412E+02  0.16750863531E+04  0.16751639666E+04  0.00000000000E+00 0. -1.
          1    1    1    2  501    0  0.11055552509E+02  0.20161010299E+02  0.16969429601E+03  0.17124498730E+03  0.00000000000E+00 0. -1.
<mgrwt>
<rscale>  1 0.82538002E+02</rscale>
<asrwt>0</asrwt>
<pdfrwt beam="1">  1       21 0.26929484E-03 0.82538002E+02</pdfrwt>
<pdfrwt beam="2">  1        2 0.29494618E+00 0.82538002E+02</pdfrwt>
<totfact> 0.29319564E+06</totfact>
</mgrwt>
</event>
<event>
 6    2  0.7993170E+000  0.1035105E+03  0.7546771E-02  0.1273082E+00
         21   -1    0    0  501  502  0.00000000000E+00  0.00000000000E+00  0.21719325864E+01  0.21719325864E+01  0.00000000000E+00 0. -1.
          2   -1    0    0  502    0 -0.00000000000E+00 -0.00000000000E+00 -0.34677206523E+04  0.34677206523E+04  0.00000000000E+00 0. -1.
         24    2    1    2    0    0  0.39897623594E+02  0.55701023749E+02 -0.18528795681E+04  0.18557686067E+04  0.77588680147E+02 0.  0.
        -13    1    3    3    0    0 -0.17867797761E+02 -0.17571617890E+01 -0.58400437099E+03  0.58428028476E+03  0.00000000000E+00 0.  1.
         14    1    3    3    0    0  0.57765421355E+02  0.57458185538E+02 -0.12688751971E+04  0.12714883219E+04  0.00000000000E+00 0. -1.
          1    1    1    2  501    0 -0.39897623594E+02 -0.55701023749E+02 -0.16126691517E+04  0.16141239782E+04  0.00000000000E+00 0. -1.
<mgrwt>
<rscale>  1 0.10351052E+03</rscale>
<asrwt>0</asrwt>
<pdfrwt beam="1">  1       21 0.33414469E-03 0.10351052E+03</pdfrwt>
<pdfrwt beam="2">  1        2 0.53349354E+00 0.10351052E+03</pdfrwt>
<totfact> 0.30011221E+05</totfact>
</mgrwt>
</event>
<event>
 6    2  0.7993170E+000  0.8405236E+02  0.7546771E-02  0.1317929E+00
         21   -1    0    0  501  502  0.00000000000E+00  0.00000000000E+00  0.59209886083E+01  0.59209886083E+01  0.00000000000E+00 0.  1.
          2   -1    0    0  502    0 -0.00000000000E+00 -0.00000000000E+00 -0.48274581480E+03  0.48274581480E+03  0.00000000000E+00 0. -1.
         24    2    1    2    0    0  0.16225062391E+02  0.15727057809E+02 -0.36067242762E+03  0.37033687190E+03  0.80958048680E+02 0.  0.
        -11    1    3    3    0    0 -0.21006750403E+01  0.41262736854E+02 -0.10658294849E+03  0.11431076589E+03  0.00000000000E+00 0.  1.
         12    1    3    3    0    0  0.18325737432E+02 -0.25535679045E+02 -0.25408947912E+03  0.25602610601E+03  0.00000000000E+00 0. -1.
          1    1    1    2  501    0 -0.16225062391E+02 -0.15727057809E+02 -0.11615239858E+03  0.11832993151E+03  0.00000000000E+00 0. -1.
<mgrwt>
<rscale>  1 0.84052357E+02</rscale>
<asrwt>0</asrwt>
<pdfrwt beam="1">  1       21 0.91092104E-03 0.84052357E+02</pdfrwt>
<pdfrwt beam="2">  1        2 0.74268610E-01 0.84052357E+02</pdfrwt>
<totfact> 0.32216670E+06</totfact>
</mgrwt>
</event>
<event>
 6    2  0.7993170E+000  0.1021168E+03  0.7546771E-02  0.1275906E+00
         21   -1    0    0  501  502  0.00000000000E+00  0.00000000000E+00  0.33555448328E+03  0.33555448328E+03  0.00000000000E+00 0.  1.
         -1   -1    0    0    0  501 -0.00000000000E+00 -0.00000000000E+00 -0.68237605402E+02  0.68237605402E+02  0.00000000000E+00 0.  1.
         24    2    1    2    0    0 -0.66051800171E+02 -0.85066615992E+01 -0.24050321388E+02  0.10491076038E+03  0.77412183070E+02 0.  0.
        -13    1    3    3    0    0 -0.21795203143E+02 -0.15338852931E+02 -0.47421736533E+02  0.54397907911E+02  0.00000000000E+00 0.  1.
         14    1    3    3    0    0 -0.44256597028E+02  0.68321913318E+01  0.23371415145E+02  0.50512852471E+02  0.00000000000E+00 0. -1.
         -2    1    1    2    0  502  0.66051800171E+02  0.85066615992E+01  0.29136719926E+03  0.29888132830E+03  0.00000000000E+00 0.  1.
<mgrwt>
<rscale>  1 0.10211684E+03</rscale>
<asrwt>0</asrwt>
<pdfrwt beam="1">  1       21 0.51623766E-01 0.10211684E+03</pdfrwt>
<pdfrwt beam="2">  1       -1 0.10498093E-01 0.10211684E+03</pdfrwt>
<totfact> 0.17994930E+04</totfact>
</mgrwt>
</event>
<event>
 6    2  0.7993170E+000  0.8083397E+02  0.7546771E-02  0.1326701E+00
         21   -1    0    0  501  502  0.00000000000E+00  0.00000000000E+00  0.10126185020E+01  0.10126185020E+01  0.00000000000E+00 0.  1.
          2   -1    0    0  502    0 -0.00000000000E+00 -0.00000000000E+00 -0.30679551241E+04  0.30679551241E+04  0.00000000000E+00 0. -1.
         24    2    1    2    0    0  0.14081424770E+02  0.17724141243E+02 -0.17895839330E+04  0.17914086032E+04  0.77599604533E+02 0.  0.
        -13    1    3    3    0    0  0.43263493530E+02  0.11215632010E+02 -0.70662517704E+03  0.70803718906E+03  0.00000000000E+00 0.  1.
         14    1    3    3    0    0 -0.29182068760E+02  0.65085092329E+01 -0.10829587560E+04  0.10833714141E+04  0.00000000000E+00 0. -1.
          1    1    1    2  501    0 -0.14081424770E+02 -0.17724141243E+02 -0.12773585726E+04  0.12775591394E+04  0.00000000000E+00 0. -1.
<mgrwt>
<rscale>  1 0.80833968E+02</rscale>
<asrwt>0</asrwt>
<pdfrwt beam="1">  1       21 0.15578893E-03 0.80833968E+02</pdfrwt>
<pdfrwt beam="2">  1        2 0.47198864E+00 0.80833968E+02</pdfrwt>
<totfact> 0.16442578E+06</totfact>
</mgrwt>
</event>
<event>
 6    2  0.7993170E+000  0.8399493E+02  0.7546771E-02  0.1318082E+00
         21   -1    0    0  501  502  0.00000000000E+00  0.00000000000E+00  0.10266197217E+04  0.10266197217E+04  0.00000000000E+00 0. -1.
          2   -1    0    0  502    0 -0.00000000000E+00 -0.00000000000E+00 -0.12605744098E+02  0.12605744098E+02  0.00000000000E+00 0. -1.
         24    2    1    2    0    0  0.24841149376E+02  0.66765776540E+01  0.12960738593E+03  0.15444488351E+03  0.79959290670E+02 0.  0.
        -11    1    3    3    0    0 -0.88542775492E+01 -0.29035791573E+02  0.75536217335E+02  0.81407589035E+02  0.00000000000E+00 0.  1.
         12    1    3    3    0    0  0.33695426925E+02  0.35712369227E+02  0.54071168592E+02  0.73037294476E+02  0.00000000000E+00 0. -1.
          1    1    1    2  501    0 -0.24841149376E+02 -0.66765776540E+01  0.88440659164E+03  0.88478058225E+03  0.00000000000E+00 0. -1.
<mgrwt>
<rscale>  1 0.83994926E+02</rscale>
<asrwt>0</asrwt>
<pdfrwt beam="1">  1       21 0.15794143E+00 0.83994926E+02</pdfrwt>
<pdfrwt beam="2">  1        2 0.19393461E-02 0.83994926E+02</pdfrwt>
<totfact> 0.17981610E+04</totfact>
</mgrwt>
</event>
<event>
 6    2  0.7993170E+000  0.9062476E+02  0.7546771E-02  0.1301346E+00
          2   -1    0    0  502    0 -0.00000000000E+00  0.00000000000E+00  0.13040947236E+03  0.13040947236E+03  0.00000000000E+00 0. -1.
         21   -1    0    0  501  502  0.00000000000E+00 -0.00000000000E+00 -0.41284915547E+02  0.41284915547E+02  0.00000000000E+00 0. -1.
         24    2    1    2    0    0  0.21637176608E+02 -0.39072120527E+02  0.89017142885E+02  0.12703109704E+03  0.78854612250E+02 0.  0.
        -11    1    3    3    0    0 -0.68624979881E+01 -0.31997628769E+02 -0.59476049272E+00  0.32730656356E+02  0.00000000000E+00 0.  1.
         12    1    3    3    0    0  0.28499674596E+02 -0.70744917580E+01  0.89611903377E+02  0.94300440681E+02  0.00000000000E+00 0. -1.
          1    1    1    2  501    0 -0.21637176608E+02  0.39072120527E+02  0.10741393236E+00  0.44663290875E+02  0.00000000000E+00 0. -1.
<mgrwt>
<rscale>  1 0.90624764E+02</rscale>
<asrwt>0</asrwt>
<pdfrwt beam="1">  1       21 0.63515255E-02 0.90624764E+02</pdfrwt>
<pdfrwt beam="2">  1        2 0.20062996E-01 0.90624764E+02</pdfrwt>
<totfact> 0.57008645E+05</totfact>
</mgrwt>
</event>
<event>
 6    2  0.7993170E+000  0.9344116E+02  0.7546771E-02  0.1294726E+00
         21   -1    0    0  501  502  0.00000000000E+00  0.00000000000E+00  0.94014632562E+03  0.94014632562E+03  0.00000000000E+00 0. -1.
          2   -1    0    0  502    0 -0.00000000000E+00 -0.00000000000E+00 -0.13939900093E+02  0.13939900093E+02  0.00000000000E+00 0. -1.
         24    2    1    2    0    0 -0.20832712444E+02 -0.41500249178E+02  0.15156269513E+03  0.17805195995E+03  0.81086233717E+02 0.  0.
        -11    1    3    3    0    0  0.97420197993E+01  0.19336703531E+02  0.61141261214E+02  0.64861921619E+02  0.00000000000E+00 0.  1.
         12    1    3    3    0    0 -0.30574732243E+02 -0.60836952709E+02  0.90421433914E+02  0.11319003833E+03  0.00000000000E+00 0. -1.
          1    1    1    2  501    0  0.20832712444E+02  0.41500249178E+02  0.77464373040E+03  0.77603426576E+03  0.00000000000E+00 0. -1.
<mgrwt>
<rscale>  1 0.93441157E+02</rscale>
<asrwt>0</asrwt>
<pdfrwt beam="1">  1       21 0.14463785E+00 0.93441157E+02</pdfrwt>
<pdfrwt beam="2">  1        2 0.21446007E-02 0.93441157E+02</pdfrwt>
<totfact> 0.19640375E+04</totfact>
</mgrwt>
</event>
<event>
 6    2  0.7993170E+000  0.1261045E+03  0.7546771E-02  0.1233353E+00
         -1   -1    0    0    0  501 -0.00000000000E+00  0.00000000000E+00  0.93764904306E+02  0.93764904306E+02  0.00000000000E+00 0.  1.
         21   -1    0    0  501  502  0.00000000000E+00 -0.00000000000E+00 -0.18741713959E+03  0.18741713959E+03  0.00000000000E+00 0.  1.
         24    2    1    2    0    0  0.37856481494E+02  0.88116998261E+02  0.25059981151E+02  0.12857041621E+03  0.81881809310E+02 0.  0.
        -11    1    3    3    0    0 -0.79973209076E+01  0.76291216806E+02  0.26602409461E+02  0.81191102299E+02  0.00000000000E+00 0.  1.
         12    1    3    3    0    0  0.45853802402E+02  0.11825781455E+02 -0.15424283102E+01  0.47379313913E+02  0.00000000000E+00 0. -1.
         -2    1    1    2    0  502 -0.37856481494E+02 -0.88116998261E+02 -0.11871221644E+03  0.15261162769E+03  0.00000000000E+00 0.  1.
<mgrwt>
<rscale>  1 0.12610452E+03</rscale>
<asrwt>0</asrwt>
<pdfrwt beam="1">  1       21 0.28833406E-01 0.12610452E+03</pdfrwt>
<pdfrwt beam="2">  1       -1 0.14425370E-01 0.12610452E+03</pdfrwt>
<totfact> 0.35188336E+04</totfact>
</mgrwt>
</event>
<event>
 6    2  0.7993170E+000  0.8465310E+02  0.7546771E-02  0.1316342E+00
          2   -1    0    0  502    0 -0.00000000000E+00  0.00000000000E+00  0.17086475403E+04  0.17086475403E+04  0.00000000000E+00 0. -1.
         21   -1    0    0  501  502  0.00000000000E+00 -0.00000000000E+00 -0.47062934699E+01  0.47062934699E+01  0.00000000000E+00 0. -1.
         24    2    1    2    0    0  0.85787603329E+01 -0.24336061317E+02  0.16616989731E+04  0.16638538469E+04  0.80624485470E+02 0.  0.
        -11    1    3    3    0    0  0.42827719105E+02 -0.33584314589E+00  0.83374683752E+03  0.83484616271E+03  0.00000000000E+00 0.  1.
         12    1    3    3    0    0 -0.34248958773E+02 -0.24000218171E+02  0.82795213562E+03  0.82900768424E+03  0.00000000000E+00 0. -1.
          1    1    1    2  501    0 -0.85787603329E+01  0.24336061317E+02  0.42242273712E+02  0.49499986845E+02  0.00000000000E+00 0. -1.
<mgrwt>
<rscale>  1 0.84653096E+02</rscale>
<asrwt>0</asrwt>
<pdfrwt beam="1">  1       21 0.72404651E-03 0.84653096E+02</pdfrwt>
<pdfrwt beam="2">  1        2 0.26286836E+00 0.84653096E+02</pdfrwt>
<totfact> 0.82601672E+05</totfact>
</mgrwt>
</event>
<event>
 6    2  0.7993170E+000  0.8611606E+02  0.7546771E-02  0.1312539E+00
         21   -1    0    0  501  502  0.00000000000E+00  0.00000000000E+00  0.64460255730E+03  0.64460255730E+03  0.00000000000E+00 0.  1.
          4   -1    0    0  502    0 -0.00000000000E+00 -0.00000000000E+00 -0.48121854755E+01  0.48121854755E+01  0.00000000000E+00 0. -1.
         24    2    1    2    0    0 -0.22412046086E+02  0.10814701851E+02  0.51778501413E+03  0.52489741509E+03  0.82442209654E+02 0.  0.
        -13    1    3    3    0    0 -0.11544255881E+01 -0.30269686516E+02  0.33436078223E+03  0.33573012869E+03  0.00000000000E+00 0.  1.
         14    1    3    3    0    0 -0.21257620498E+02  0.41084388367E+02  0.18342423190E+03  0.18916728640E+03  0.00000000000E+00 0. -1.
          3    1    1    2  501    0  0.22412046086E+02 -0.10814701851E+02  0.12200535770E+03  0.12451732768E+03  0.00000000000E+00 0. -1.
<mgrwt>
<rscale>  1 0.86116058E+02</rscale>
<asrwt>0</asrwt>
<pdfrwt beam="1">  1       21 0.99169556E-01 0.86116058E+02</pdfrwt>
<pdfrwt beam="2">  1        4 0.74033674E-03 0.86116058E+02</pdfrwt>
<totfact> 0.14859343E+05</totfact>
</mgrwt>
</event>
<event>
 6    2  0.7993170E+000  0.8337505E+02  0.7546771E-02  0.1319737E+00
         21   -1    0    0  501  502  0.00000000000E+00  0.00000000000E+00  0.48007209204E+02  0.48007209204E+02  0.00000000000E+00 0. -1.
         -1   -1    0    0    0  501 -0.00000000000E+00 -0.00000000000E+00 -0.93755488195E+02  0.93755488195E+02  0.00000000000E+00 0.  1.
         24    2    1    2    0    0  0.33408542534E+00  0.25361458629E+02  0.65566764851E+01  0.83632468049E+02  0.79423450621E+02 0.  0.
        -13    1    3    3    0    0  0.31233734756E+02 -0.42191285556E+01 -0.15920721150E+02  0.35310290207E+02  0.00000000000E+00 0.  1.
         14    1    3    3    0    0 -0.30899649331E+02  0.29580587185E+02  0.22477397635E+02  0.48322177842E+02  0.00000000000E+00 0. -1.
         -2    1    1    2    0  502 -0.33408542534E+00 -0.25361458629E+02 -0.52304955476E+02  0.58130229349E+02  0.00000000000E+00 0.  1.
<mgrwt>
<rscale>  1 0.83375054E+02</rscale>
<asrwt>0</asrwt>
<pdfrwt beam="1">  1       21 0.73857244E-02 0.83375054E+02</pdfrwt>
<pdfrwt beam="2">  1       -1 0.14423921E-01 0.83375054E+02</pdfrwt>
<totfact> 0.39455702E+05</totfact>
</mgrwt>
</event>
<event>
 6    2  0.7993170E+000  0.8366431E+02  0.7546771E-02  0.1318963E+00
          2   -1    0    0  502    0 -0.00000000000E+00  0.00000000000E+00  0.82843499727E+02  0.82843499727E+02  0.00000000000E+00 0. -1.
         21   -1    0    0  501  502  0.00000000000E+00 -0.00000000000E+00 -0.52193774601E+02  0.52193774601E+02  0.00000000000E+00 0.  1.
         24    2    1    2    0    0 -0.20094862644E+02 -0.75531678696E+01  0.56860310112E+02  0.10115735971E+03  0.80863234581E+02 0.  0.
        -13    1    3    3    0    0  0.26764967066E+02  0.15789494097E+01 -0.13109244655E+00  0.26811820686E+02  0.00000000000E+00 0.  1.
         14    1    3    3    0    0 -0.46859829710E+02 -0.91321172793E+01  0.56991402559E+02  0.74345539019E+02  0.00000000000E+00 0. -1.
          1    1    1    2  501    0  0.20094862644E+02  0.75531678696E+01 -0.26210584986E+02  0.33879914623E+02  0.00000000000E+00 0. -1.
<mgrwt>
<rscale>  1 0.83664309E+02</rscale>
<asrwt>0</asrwt>
<pdfrwt beam="1">  1       21 0.80298115E-02 0.83664309E+02</pdfrwt>
<pdfrwt beam="2">  1        2 0.12745154E-01 0.83664309E+02</pdfrwt>
<totfact> 0.63922655E+05</totfact>
</mgrwt>
</event>
<event>
 6    2  0.7993170E+000  0.2160134E+03  0.7546771E-02  0.1136891E+00
         21   -1    0    0  501  502  0.00000000000E+00  0.00000000000E+00  0.23921740515E+03  0.23921740515E+03  0.00000000000E+00 0.  1.
         -3   -1    0    0    0  501 -0.00000000000E+00 -0.00000000000E+00 -0.19776562725E+03  0.19776562725E+03  0.00000000000E+00 0.  1.
         24    2    1    2    0    0  0.16752627419E+03  0.10987227375E+03 -0.41819727991E+02  0.22002425112E+03  0.80776310560E+02 0.  0.
        -13    1    3    3    0    0  0.11476984391E+03  0.74157470027E+02 -0.66168378863E+02  0.15182128241E+03  0.00000000000E+00 0.  1.
         14    1    3    3    0    0  0.52756430283E+02  0.35714803725E+02  0.24348650873E+02  0.68202968708E+02  0.00000000000E+00 0. -1.
         -4    1    1    2    0  502 -0.16752627419E+03 -0.10987227375E+03  0.83271505888E+02  0.21695878129E+03  0.00000000000E+00 0.  1.
<mgrwt>
<rscale>  1 0.21601338E+03</rscale>
<asrwt>0</asrwt>
<pdfrwt beam="1">  1       21 0.36802678E-01 0.21601338E+03</pdfrwt>
<pdfrwt beam="2">  1       -3 0.30425481E-01 0.21601338E+03</pdfrwt>
<totfact> 0.36742396E+03</totfact>
</mgrwt>
</event>
<event>
 6    2  0.7993170E+000  0.8610449E+02  0.7546771E-02  0.1312569E+00
         21   -1    0    0  501  502  0.00000000000E+00  0.00000000000E+00  0.50940228705E+01  0.50940228705E+01  0.00000000000E+00 0.  1.
          2   -1    0    0  502    0 -0.00000000000E+00 -0.00000000000E+00 -0.75951236500E+03  0.75951236500E+03  0.00000000000E+00 0. -1.
         24    2    1    2    0    0  0.27574218077E+02  0.14232840779E+02 -0.64989274789E+03  0.65557193868E+03  0.80318564264E+02 0.  0.
        -13    1    3    3    0    0  0.24735464438E+02  0.30685779868E+02 -0.14099301616E+03  0.14639839785E+03  0.00000000000E+00 0.  1.
         14    1    3    3    0    0  0.28387536397E+01 -0.16452939089E+02 -0.50889973172E+03  0.50917354082E+03  0.00000000000E+00 0. -1.
          1    1    1    2  501    0 -0.27574218077E+02 -0.14232840779E+02 -0.10452559425E+03  0.10903444920E+03  0.00000000000E+00 0. -1.
<mgrwt>
<rscale>  1 0.86104489E+02</rscale>
<asrwt>0</asrwt>
<pdfrwt beam="1">  1       21 0.78369586E-03 0.86104489E+02</pdfrwt>
<pdfrwt beam="2">  1        2 0.11684805E+00 0.86104489E+02</pdfrwt>
<totfact> 0.24530531E+06</totfact>
</mgrwt>
</event>
<event>
 6    2  0.7993170E+000  0.8687108E+02  0.7546771E-02  0.1310611E+00
         -1   -1    0    0    0  501 -0.00000000000E+00  0.00000000000E+00  0.18959643669E+03  0.18959643669E+03  0.00000000000E+00 0.  1.
         21   -1    0    0  501  502  0.00000000000E+00 -0.00000000000E+00 -0.21808630703E+02  0.21808630703E+02  0.00000000000E+00 0. -1.
         24    2    1    2    0    0  0.17068822382E+02  0.26898629900E+02  0.15374474293E+03  0.17659000445E+03  0.80818950149E+02 0.  0.
        -13    1    3    3    0    0  0.17381056382E+02 -0.26054614505E+02  0.37548254710E+02  0.48895965986E+02  0.00000000000E+00 0.  1.
         14    1    3    3    0    0 -0.31223399973E+00  0.52953244405E+02  0.11619648822E+03  0.12769403846E+03  0.00000000000E+00 0. -1.
         -2    1    1    2    0  502 -0.17068822382E+02 -0.26898629900E+02  0.14043063056E+02  0.34815062947E+02  0.00000000000E+00 0.  1.
<mgrwt>
<rscale>  1 0.86871075E+02</rscale>
<asrwt>0</asrwt>
<pdfrwt beam="1">  1       21 0.33551741E-02 0.86871075E+02</pdfrwt>
<pdfrwt beam="2">  1       -1 0.29168681E-01 0.86871075E+02</pdfrwt>
<totfact> 0.47939276E+05</totfact>
</mgrwt>
</event>
<event>
 6    2  0.7993170E+000  0.8354270E+02  0.7546771E-02  0.1319288E+00
         21   -1    0    0  501  502  0.00000000000E+00  0.00000000000E+00  0.72528339269E+02  0.72528339269E+02  0.00000000000E+00 0.  1.
          4   -1    0    0  502    0 -0.00000000000E+00 -0.00000000000E+00 -0.70531960268E+02  0.70531960268E+02  0.00000000000E+00 0. -1.
         24    2    1    2    0    0 -0.97688338976E+01 -0.23729169236E+02  0.43557059978E+02  0.94215711386E+02  0.79503957195E+02 0.  0.
        -13    1    3    3    0    0 -0.31091819677E+02 -0.37796167994E+02  0.47694772672E+02  0.68337712180E+02  0.00000000000E+00 0.  1.
         14    1    3    3    0    0  0.21322985779E+02  0.14066998757E+02 -0.41377126939E+01  0.25877999206E+02  0.00000000000E+00 0. -1.
          3    1    1    2  501    0  0.97688338976E+01  0.23729169236E+02 -0.41560680976E+02  0.48844588150E+02  0.00000000000E+00 0. -1.
<mgrwt>
<rscale>  1 0.83542700E+02</rscale>
<asrwt>0</asrwt>
<pdfrwt beam="1">  1       21 0.11158206E-01 0.83542700E+02</pdfrwt>
<pdfrwt beam="2">  1        4 0.10851071E-01 0.83542700E+02</pdfrwt>
<totfact> 0.16347355E+05</totfact>
</mgrwt>
</event>
<event>
 6    2  0.7993170E+000  0.9200008E+02  0.7546771E-02  0.1298079E+00
          2   -1    0    0  502    0 -0.00000000000E+00  0.00000000000E+00  0.16497802868E+04  0.16497802868E+04  0.00000000000E+00 0. -1.
         21   -1    0    0  501  502  0.00000000000E+00 -0.00000000000E+00 -0.28159247894E+01  0.28159247894E+01  0.00000000000E+00 0.  1.
         24    2    1    2    0    0 -0.40188221543E+00 -0.41605603039E+02  0.12741874669E+04  0.12775044878E+04  0.82053810854E+02 0.  0.
        -13    1    3    3    0    0  0.35327805982E+02 -0.42952486991E+02  0.70078017146E+03  0.70298351241E+03  0.00000000000E+00 0.  1.
         14    1    3    3    0    0 -0.35729688198E+02  0.13468839515E+01  0.57340729544E+03  0.57452097541E+03  0.00000000000E+00 0. -1.
          1    1    1    2  501    0  0.40188221543E+00  0.41605603039E+02  0.37277689507E+03  0.37509172373E+03  0.00000000000E+00 0. -1.
<mgrwt>
<rscale>  1 0.92000085E+02</rscale>
<asrwt>0</asrwt>
<pdfrwt beam="1">  1       21 0.43322052E-03 0.92000085E+02</pdfrwt>
<pdfrwt beam="2">  1        2 0.25381158E+00 0.92000085E+02</pdfrwt>
<totfact> 0.19568802E+06</totfact>
</mgrwt>
</event>
<event>
 6    2  0.7993170E+000  0.9831954E+02  0.7546771E-02  0.1283870E+00
         21   -1    0    0  501  502  0.00000000000E+00  0.00000000000E+00  0.40512134567E+02  0.40512134567E+02  0.00000000000E+00 0. -1.
          2   -1    0    0  502    0 -0.00000000000E+00 -0.00000000000E+00 -0.22743547724E+03  0.22743547724E+03  0.00000000000E+00 0. -1.
         24    2    1    2    0    0  0.12671431309E+02 -0.56194562542E+02 -0.18593960635E+03  0.21033370925E+03  0.79676458286E+02 0.  0.
        -13    1    3    3    0    0 -0.11365609536E+02 -0.14816698699E+02 -0.35317025296E+00  0.18677161714E+02  0.00000000000E+00 0.  1.
         14    1    3    3    0    0  0.24037040845E+02 -0.41377863843E+02 -0.18558643610E+03  0.19165654753E+03  0.00000000000E+00 0. -1.
          1    1    1    2  501    0 -0.12671431309E+02  0.56194562542E+02 -0.98373631860E+00  0.57613902557E+02  0.00000000000E+00 0. -1.
<mgrwt>
<rscale>  1 0.98319540E+02</rscale>
<asrwt>0</asrwt>
<pdfrwt beam="1">  1       21 0.62326363E-02 0.98319540E+02</pdfrwt>
<pdfrwt beam="2">  1        2 0.34990072E-01 0.98319540E+02</pdfrwt>
<totfact> 0.32401432E+05</totfact>
</mgrwt>
</event>
<event>
 6    2  0.7993170E+000  0.8087267E+02  0.7546771E-02  0.1326593E+00
          2   -1    0    0  502    0 -0.00000000000E+00  0.00000000000E+00  0.25407183515E+03  0.25407183515E+03  0.00000000000E+00 0. -1.
         21   -1    0    0  501  502  0.00000000000E+00 -0.00000000000E+00 -0.10715608359E+02  0.10715608359E+02  0.00000000000E+00 0.  1.
         24    2    1    2    0    0  0.49678998534E+01  0.20665345574E+02  0.16736935592E+03  0.18588407804E+03  0.78029818873E+02 0.  0.
        -11    1    3    3    0    0 -0.76329124572E+01  0.47010835480E+02  0.73541227880E+02  0.87616164052E+02  0.00000000000E+00 0.  1.
         12    1    3    3    0    0  0.12600812311E+02 -0.26345489906E+02  0.93828128036E+02  0.98267913991E+02  0.00000000000E+00 0. -1.
          1    1    1    2  501    0 -0.49678998534E+01 -0.20665345574E+02  0.75986870876E+02  0.78903365468E+02  0.00000000000E+00 0. -1.
<mgrwt>
<rscale>  1 0.80872673E+02</rscale>
<asrwt>0</asrwt>
<pdfrwt beam="1">  1       21 0.16485553E-02 0.80872673E+02</pdfrwt>
<pdfrwt beam="2">  1        2 0.39087970E-01 0.80872673E+02</pdfrwt>
<totfact> 0.24750203E+06</totfact>
</mgrwt>
</event>
<event>
 6    2  0.7993170E+000  0.8618763E+02  0.7546771E-02  0.1312356E+00
         -1   -1    0    0    0  501 -0.00000000000E+00  0.00000000000E+00  0.36968843325E+02  0.36968843325E+02  0.00000000000E+00 0.  1.
         21   -1    0    0  501  502  0.00000000000E+00 -0.00000000000E+00 -0.93606301242E+02  0.93606301242E+02  0.00000000000E+00 0. -1.
         24    2    1    2    0    0 -0.19868871379E+02 -0.24320809511E+02 -0.43338368424E+02  0.96470311970E+02  0.80262276873E+02 0.  0.
        -11    1    3    3    0    0 -0.44031071508E+02 -0.30096645026E+02 -0.90011012444E+01  0.54088474960E+02  0.00000000000E+00 0.  1.
         12    1    3    3    0    0  0.24162200129E+02  0.57758355148E+01 -0.34337267179E+02  0.42381837009E+02  0.00000000000E+00 0. -1.
         -2    1    1    2    0  502  0.19868871379E+02  0.24320809511E+02 -0.13299089493E+02  0.34104832597E+02  0.00000000000E+00 0.  1.
<mgrwt>
<rscale>  1 0.86187626E+02</rscale>
<asrwt>0</asrwt>
<pdfrwt beam="1">  1       21 0.14400969E-01 0.86187626E+02</pdfrwt>
<pdfrwt beam="2">  1       -1 0.56875144E-02 0.86187626E+02</pdfrwt>
<totfact> 0.50269959E+05</totfact>
</mgrwt>
</event>
<event>
 6    2  0.7993170E+000  0.9069485E+02  0.7546771E-02  0.1301178E+00
         -1   -1    0    0    0  501 -0.00000000000E+00  0.00000000000E+00  0.76958923276E+03  0.76958923276E+03  0.00000000000E+00 0.  1.
         21   -1    0    0  501  502  0.00000000000E+00 -0.00000000000E+00 -0.11339052831E+02  0.11339052831E+02  0.00000000000E+00 0.  1.
         24    2    1    2    0    0 -0.31205645662E+02 -0.16948760022E+02  0.72983272840E+03  0.73544637337E+03  0.83453603175E+02 0.  0.
        -11    1    3    3    0    0 -0.26577730454E+02  0.22985896939E+02  0.55239039756E+03  0.55350689114E+03  0.00000000000E+00 0.  1.
         12    1    3    3    0    0 -0.46279152084E+01 -0.39934656961E+02  0.17744233083E+03  0.18193948224E+03  0.00000000000E+00 0. -1.
         -2    1    1    2    0  502  0.31205645662E+02  0.16948760022E+02  0.28417451535E+02  0.45481912221E+02  0.00000000000E+00 0.  1.
<mgrwt>
<rscale>  1 0.90694855E+02</rscale>
<asrwt>0</asrwt>
<pdfrwt beam="1">  1       21 0.17444703E-02 0.90694855E+02</pdfrwt>
<pdfrwt beam="2">  1       -1 0.11839830E+00 0.90694855E+02</pdfrwt>
<totfact> 0.95470455E+04</totfact>
</mgrwt>
</event>
<event>
 6    2  0.7993170E+000  0.8377539E+02  0.7546771E-02  0.1318666E+00
         -3   -1    0    0    0  501 -0.00000000000E+00  0.00000000000E+00  0.29333022089E+03  0.29333022089E+03  0.00000000000E+00 0.  1.
         21   -1    0    0  501  502  0.00000000000E+00 -0.00000000000E+00 -0.10971814608E+02  0.10971814608E+02  0.00000000000E+00 0. -1.
         24    2    1    2    0    0 -0.19108480275E+02 -0.60519916403E+01  0.16295968036E+03  0.18323256630E+03  0.81342211104E+02 0.  0.
        -13    1    3    3    0    0  0.94714678692E-01  0.14442137223E+01  0.16260868157E+03  0.16261512243E+03  0.00000000000E+00 0.  1.
         14    1    3    3    0    0 -0.19203194954E+02 -0.74962053626E+01  0.35099879583E+00  0.20617443862E+02  0.00000000000E+00 0. -1.
         -4    1    1    2    0  502  0.19108480275E+02  0.60519916403E+01  0.11939872592E+03  0.12106946920E+03  0.00000000000E+00 0.  1.
<mgrwt>
<rscale>  1 0.83775390E+02</rscale>
<asrwt>0</asrwt>
<pdfrwt beam="1">  1       21 0.16879717E-02 0.83775390E+02</pdfrwt>
<pdfrwt beam="2">  1       -3 0.45127720E-01 0.83775390E+02</pdfrwt>
<totfact> 0.34636615E+05</totfact>
</mgrwt>
</event>
<event>
 6    2  0.7993170E+000  0.8745429E+02  0.7546771E-02  0.1309136E+00
          2   -1    0    0  502    0 -0.00000000000E+00  0.00000000000E+00  0.14526747214E+04  0.14526747214E+04  0.00000000000E+00 0. -1.
         21   -1    0    0  501  502  0.00000000000E+00 -0.00000000000E+00 -0.30605680417E+01  0.30605680417E+01  0.00000000000E+00 0.  1.
         24    2    1    2    0    0 -0.27145148600E+02 -0.21909033097E+02  0.72067300736E+03  0.72595994103E+03  0.80195932663E+02 0.  0.
        -13    1    3    3    0    0 -0.43479652051E+02 -0.43863970832E+01  0.19920693177E+03  0.20394391947E+03  0.00000000000E+00 0.  1.
         14    1    3    3    0    0  0.16334503451E+02 -0.17522636014E+02  0.52146607559E+03  0.52201602156E+03  0.00000000000E+00 0. -1.
          1    1    1    2  501    0  0.27145148600E+02  0.21909033097E+02  0.72894114603E+03  0.72977534845E+03  0.00000000000E+00 0. -1.
<mgrwt>
<rscale>  1 0.87454288E+02</rscale>
<asrwt>0</asrwt>
<pdfrwt beam="1">  1       21 0.47085778E-03 0.87454288E+02</pdfrwt>
<pdfrwt beam="2">  1        2 0.22348787E+00 0.87454288E+02</pdfrwt>
<totfact> 0.21612792E+06</totfact>
</mgrwt>
</event>
<event>
 6    2  0.7993170E+000  0.1085514E+03  0.7546771E-02  0.1263276E+00
          2   -1    0    0  502    0 -0.00000000000E+00  0.00000000000E+00  0.27364791153E+04  0.27364791153E+04  0.00000000000E+00 0. -1.
         21   -1    0    0  501  502  0.00000000000E+00 -0.00000000000E+00 -0.45170886414E+01  0.45170886414E+01  0.00000000000E+00 0. -1.
         24    2    1    2    0    0  0.50028924587E+02  0.55863787873E+02  0.23009430521E+04  0.23035021897E+04  0.78484092222E+02 0.  0.
        -11    1    3    3    0    0  0.36243001099E+02  0.17867845728E+02  0.38157819775E+03  0.38371178772E+03  0.00000000000E+00 0.  1.
         12    1    3    3    0    0  0.13785923488E+02  0.37995942144E+02  0.19193648544E+04  0.19197904020E+04  0.00000000000E+00 0. -1.
          1    1    1    2  501    0 -0.50028924587E+02 -0.55863787873E+02  0.43101897456E+03  0.43749401427E+03  0.00000000000E+00 0. -1.
<mgrwt>
<rscale>  1 0.10855141E+03</rscale>
<asrwt>0</asrwt>
<pdfrwt beam="1">  1       21 0.69493890E-03 0.10855141E+03</pdfrwt>
<pdfrwt beam="2">  1        2 0.42099546E+00 0.10855141E+03</pdfrwt>
<totfact> 0.26153505E+05</totfact>
</mgrwt>
</event>
<event>
 6    2  0.7993170E+000  0.8631167E+02  0.7546771E-02  0.1312038E+00
          2   -1    0    0  502    0 -0.00000000000E+00  0.00000000000E+00  0.22334338707E+04  0.22334338707E+04  0.00000000000E+00 0. -1.
         21   -1    0    0  501  502  0.00000000000E+00 -0.00000000000E+00 -0.19472897428E+01  0.19472897428E+01  0.00000000000E+00 0.  1.
         24    2    1    2    0    0 -0.27434064634E+02  0.11635097509E+02  0.20156560149E+04  0.20175031289E+04  0.81004328329E+02 0.  0.
        -11    1    3    3    0    0 -0.16688945677E+02  0.65504506844E+01  0.87864676088E+02  0.89675139342E+02  0.00000000000E+00 0.  1.
         12    1    3    3    0    0 -0.10745118957E+02  0.50846468246E+01  0.19277913389E+04  0.19278279896E+04  0.00000000000E+00 0. -1.
          1    1    1    2  501    0  0.27434064634E+02 -0.11635097509E+02  0.21583056597E+03  0.21787803149E+03  0.00000000000E+00 0. -1.
<mgrwt>
<rscale>  1 0.86311671E+02</rscale>
<asrwt>0</asrwt>
<pdfrwt beam="1">  1       21 0.29958482E-03 0.86311671E+02</pdfrwt>
<pdfrwt beam="2">  1        2 0.34360316E+00 0.86311671E+02</pdfrwt>
<totfact> 0.17358610E+06</totfact>
</mgrwt>
</event>
<event>
 6    2  0.7993170E+000  0.8629333E+02  0.7546771E-02  0.1312085E+00
          2   -1    0    0  502    0 -0.00000000000E+00  0.00000000000E+00  0.82071146374E+03  0.82071146374E+03  0.00000000000E+00 0. -1.
         21   -1    0    0  501  502  0.00000000000E+00 -0.00000000000E+00 -0.42660673611E+01  0.42660673611E+01  0.00000000000E+00 0.  1.
         24    2    1    2    0    0  0.30687704912E+02  0.17457783084E+01  0.65181060981E+03  0.65749799228E+03  0.80633465872E+02 0.  0.
        -11    1    3    3    0    0  0.35232737870E+01  0.97902703137E+01  0.81569468749E+01  0.13221143419E+02  0.00000000000E+00 0.  1.
         12    1    3    3    0    0  0.27164431125E+02 -0.80444920053E+01  0.64365366293E+03  0.64427684886E+03  0.00000000000E+00 0. -1.
          1    1    1    2  501    0 -0.30687704912E+02 -0.17457783084E+01  0.16463478657E+03  0.16747953882E+03  0.00000000000E+00 0. -1.
<mgrwt>
<rscale>  1 0.86293330E+02</rscale>
<asrwt>0</asrwt>
<pdfrwt beam="1">  1       21 0.65631871E-03 0.86293330E+02</pdfrwt>
<pdfrwt beam="2">  1        2 0.12626318E+00 0.86293330E+02</pdfrwt>
<totfact> 0.29382765E+06</totfact>
</mgrwt>
</event>
<event>
 6    2  0.7993170E+000  0.8151671E+02  0.7546771E-02  0.1324802E+00
         21   -1    0    0  501  502  0.00000000000E+00  0.00000000000E+00  0.61980870088E+01  0.61980870088E+01  0.00000000000E+00 0. -1.
          2   -1    0    0  502    0 -0.00000000000E+00 -0.00000000000E+00 -0.17435068290E+04  0.17435068290E+04  0.00000000000E+00 0. -1.
         24    2    1    2    0    0  0.17190609291E+02  0.21639967015E+02 -0.17059869945E+04  0.17079334295E+04  0.76688779991E+02 0.  0.
        -13    1    3    3    0    0 -0.61604239565E+01 -0.26905019723E+02 -0.60551449919E+03  0.60614325010E+03  0.00000000000E+00 0.  1.
         14    1    3    3    0    0  0.23351033247E+02  0.48544986739E+02 -0.11004724953E+04  0.11017901794E+04  0.00000000000E+00 0. -1.
          1    1    1    2  501    0 -0.17190609291E+02 -0.21639967015E+02 -0.31321747533E+02  0.41771486551E+02  0.00000000000E+00 0. -1.
<mgrwt>
<rscale>  1 0.81516711E+02</rscale>
<asrwt>0</asrwt>
<pdfrwt beam="1">  1       21 0.95355120E-03 0.81516711E+02</pdfrwt>
<pdfrwt beam="2">  1        2 0.26823200E+00 0.81516711E+02</pdfrwt>
<totfact> 0.51675265E+05</totfact>
</mgrwt>
</event>
<event>
 6    2  0.7993170E+000  0.1859214E+03  0.7546771E-02  0.1162192E+00
          2   -1    0    0  502    0 -0.00000000000E+00  0.00000000000E+00  0.16375005425E+04  0.16375005425E+04  0.00000000000E+00 0. -1.
         21   -1    0    0  501  502  0.00000000000E+00 -0.00000000000E+00 -0.19467716017E+02  0.19467716017E+02  0.00000000000E+00 0.  1.
         24    2    1    2    0    0 -0.14303492104E+03  0.87473223276E+02  0.73430206230E+03  0.75747361318E+03  0.80350498054E+02 0.  0.
        -11    1    3    3    0    0 -0.11697598469E+03  0.52146712928E+02  0.39256182857E+03  0.41292547744E+03  0.00000000000E+00 0.  1.
         12    1    3    3    0    0 -0.26058936357E+02  0.35326510349E+02  0.34174023372E+03  0.34454813574E+03  0.00000000000E+00 0. -1.
          1    1    1    2  501    0  0.14303492104E+03 -0.87473223276E+02  0.88373076420E+03  0.89949464535E+03  0.00000000000E+00 0. -1.
<mgrwt>
<rscale>  1 0.18592137E+03</rscale>
<asrwt>0</asrwt>
<pdfrwt beam="1">  1       21 0.29950345E-02 0.18592137E+03</pdfrwt>
<pdfrwt beam="2">  1        2 0.25192305E+00 0.18592137E+03</pdfrwt>
<totfact> 0.94368709E+04</totfact>
</mgrwt>
</event>
<event>
 6    2  0.7993170E+000  0.1008452E+03  0.7546771E-02  0.1278529E+00
          2   -1    0    0  502    0 -0.00000000000E+00  0.00000000000E+00  0.10282502648E+04  0.10282502648E+04  0.00000000000E+00 0. -1.
         21   -1    0    0  501  502  0.00000000000E+00 -0.00000000000E+00 -0.19198297507E+02  0.19198297507E+02  0.00000000000E+00 0. -1.
         24    2    1    2    0    0  0.10636884977E+02 -0.68981481211E+02  0.95193087503E+03  0.95725761347E+03  0.72788458182E+02 0.  0.
        -11    1    3    3    0    0 -0.12380021590E+01 -0.32251604727E+02  0.11517431094E+03  0.11961112222E+03  0.00000000000E+00 0.  1.
         12    1    3    3    0    0  0.11874887136E+02 -0.36729876484E+02  0.83675656408E+03  0.83764649125E+03  0.00000000000E+00 0. -1.
          1    1    1    2  501    0 -0.10636884977E+02  0.68981481211E+02  0.57121092291E+02  0.90190948862E+02  0.00000000000E+00 0. -1.
<mgrwt>
<rscale>  1 0.10084517E+03</rscale>
<asrwt>0</asrwt>
<pdfrwt beam="1">  1       21 0.29535850E-02 0.10084517E+03</pdfrwt>
<pdfrwt beam="2">  1        2 0.15819231E+00 0.10084517E+03</pdfrwt>
<totfact> 0.20523697E+05</totfact>
</mgrwt>
</event>
<event>
 6    2  0.7993170E+000  0.1060280E+03  0.7546771E-02  0.1268107E+00
          2   -1    0    0  502    0 -0.00000000000E+00  0.00000000000E+00  0.10635887708E+04  0.10635887708E+04  0.00000000000E+00 0. -1.
         21   -1    0    0  501  502  0.00000000000E+00 -0.00000000000E+00 -0.79158416051E+01  0.79158416051E+01  0.00000000000E+00 0. -1.
         24    2    1    2    0    0 -0.63788288558E+02 -0.26006345690E+02  0.78838052010E+03  0.79547833153E+03  0.80601834285E+02 0.  0.
        -13    1    3    3    0    0 -0.49788265149E+02 -0.36191162385E+02  0.27492957128E+03  0.28173558658E+03  0.00000000000E+00 0.  1.
         14    1    3    3    0    0 -0.14000023409E+02  0.10184816695E+02  0.51345094882E+03  0.51374274495E+03  0.00000000000E+00 0. -1.
          1    1    1    2  501    0  0.63788288558E+02  0.26006345690E+02  0.26729240911E+03  0.27602628089E+03  0.00000000000E+00 0. -1.
<mgrwt>
<rscale>  1 0.10602797E+03</rscale>
<asrwt>0</asrwt>
<pdfrwt beam="1">  1       21 0.12178226E-02 0.10602797E+03</pdfrwt>
<pdfrwt beam="2">  1        2 0.16362893E+00 0.10602797E+03</pdfrwt>
<totfact> 0.81199546E+05</totfact>
</mgrwt>
</event>
<event>
 6    2  0.7993170E+000  0.8472173E+02  0.7546771E-02  0.1316162E+00
         -1   -1    0    0    0  501 -0.00000000000E+00  0.00000000000E+00  0.10686921127E+03  0.10686921127E+03  0.00000000000E+00 0.  1.
         21   -1    0    0  501  502  0.00000000000E+00 -0.00000000000E+00 -0.47845403874E+02  0.47845403874E+02  0.00000000000E+00 0.  1.
         24    2    1    2    0    0 -0.16985176388E+02 -0.18589690441E+02  0.83959227818E+02  0.11927666939E+03  0.80893133933E+02 0.  0.
        -13    1    3    3    0    0 -0.37619436604E+02 -0.29750807765E+02  0.82923066454E+02  0.95794402359E+02  0.00000000000E+00 0.  1.
         14    1    3    3    0    0  0.20634260216E+02  0.11161117324E+02  0.10361613640E+01  0.23482267032E+02  0.00000000000E+00 0. -1.
         -2    1    1    2    0  502  0.16985176388E+02  0.18589690441E+02 -0.24935420421E+02  0.35437945753E+02  0.00000000000E+00 0.  1.
<mgrwt>
<rscale>  1 0.84721732E+02</rscale>
<asrwt>0</asrwt>
<pdfrwt beam="1">  1       21 0.73608314E-02 0.84721732E+02</pdfrwt>
<pdfrwt beam="2">  1       -1 0.16441417E-01 0.84721732E+02</pdfrwt>
<totfact> 0.32447560E+05</totfact>
</mgrwt>
</event>
<event>
 6    2  0.7993170E+000  0.9114113E+02  0.7546771E-02  0.1300112E+00
          2   -1    0    0  502    0 -0.00000000000E+00  0.00000000000E+00  0.79930222350E+03  0.79930222350E+03  0.00000000000E+00 0. -1.
         21   -1    0    0  501  502  0.00000000000E+00 -0.00000000000E+00 -0.53777965951E+01  0.53777965951E+01  0.00000000000E+00 0.  1.
         24    2    1    2    0    0 -0.25502470538E+02  0.40523826858E-01  0.73283992598E+03  0.73848565554E+03  0.87500449607E+02 0.  0.
        -11    1    3    3    0    0 -0.43672793823E+02  0.16535895603E+02  0.21265059864E+03  0.21771776654E+03  0.00000000000E+00 0.  1.
         12    1    3    3    0    0  0.18170323285E+02 -0.16495371776E+02  0.52018932733E+03  0.52076788900E+03  0.00000000000E+00 0. -1.
          1    1    1    2  501    0  0.25502470538E+02 -0.40523826858E-01  0.61084500931E+02  0.66194364562E+02  0.00000000000E+00 0. -1.
<mgrwt>
<rscale>  1 0.91141134E+02</rscale>
<asrwt>0</asrwt>
<pdfrwt beam="1">  1       21 0.82735395E-03 0.91141134E+02</pdfrwt>
<pdfrwt beam="2">  1        2 0.12296948E+00 0.91141134E+02</pdfrwt>
<totfact> 0.21332380E+06</totfact>
</mgrwt>
</event>
<event>
 6    2  0.7993170E+000  0.8600948E+02  0.7546771E-02  0.1312814E+00
          2   -1    0    0  502    0 -0.00000000000E+00  0.00000000000E+00  0.12663678698E+03  0.12663678698E+03  0.00000000000E+00 0. -1.
         21   -1    0    0  501  502  0.00000000000E+00 -0.00000000000E+00 -0.22961391001E+02  0.22961391001E+02  0.00000000000E+00 0. -1.
         24    2    1    2    0    0 -0.19740797549E+02 -0.73123920749E+01  0.90029010952E+02  0.12451045210E+03  0.83393403231E+02 0.  0.
        -13    1    3    3    0    0  0.10526461569E+02  0.32864898226E+02  0.26687271419E+02  0.43624745093E+02  0.00000000000E+00 0.  1.
         14    1    3    3    0    0 -0.30267259118E+02 -0.40177290301E+02  0.63341739533E+02  0.80885707004E+02  0.00000000000E+00 0. -1.
          1    1    1    2  501    0  0.19740797549E+02  0.73123920749E+01  0.13646385024E+02  0.25087725883E+02  0.00000000000E+00 0. -1.
<mgrwt>
<rscale>  1 0.86009475E+02</rscale>
<asrwt>0</asrwt>
<pdfrwt beam="1">  1       21 0.35325218E-02 0.86009475E+02</pdfrwt>
<pdfrwt beam="2">  1        2 0.19482582E-01 0.86009475E+02</pdfrwt>
<totfact> 0.15503120E+06</totfact>
</mgrwt>
</event>
<event>
 6    2  0.7993170E+000  0.8626700E+02  0.7546771E-02  0.1312152E+00
         21   -1    0    0  501  502  0.00000000000E+00  0.00000000000E+00  0.64942238756E+03  0.64942238756E+03  0.00000000000E+00 0. -1.
         -3   -1    0    0    0  501 -0.00000000000E+00 -0.00000000000E+00 -0.56551730278E+01  0.56551730278E+01  0.00000000000E+00 0.  1.
         24    2    1    2    0    0  0.20790570926E+02  0.24807051572E+02  0.40190245792E+03  0.41105666366E+03  0.79964726028E+02 0.  0.
        -11    1    3    3    0    0  0.19888892766E+02 -0.27157220941E+02  0.13431339222E+03  0.13846721646E+03  0.00000000000E+00 0.  1.
         12    1    3    3    0    0  0.90167816046E+00  0.51964272514E+02  0.26758906570E+03  0.27258944720E+03  0.00000000000E+00 0. -1.
         -4    1    1    2    0  502 -0.20790570926E+02 -0.24807051572E+02  0.24186475661E+03  0.24402089693E+03  0.00000000000E+00 0.  1.
<mgrwt>
<rscale>  1 0.86266999E+02</rscale>
<asrwt>0</asrwt>
<pdfrwt beam="1">  1       21 0.99911078E-01 0.86266999E+02</pdfrwt>
<pdfrwt beam="2">  1       -3 0.87002713E-03 0.86266999E+02</pdfrwt>
<totfact> 0.12632333E+05</totfact>
</mgrwt>
</event>
<event>
 6    2  0.7993170E+000  0.1954698E+03  0.7546771E-02  0.1153618E+00
         21   -1    0    0  501  502  0.00000000000E+00  0.00000000000E+00  0.49587202736E+02  0.49587202736E+02  0.00000000000E+00 0. -1.
          2   -1    0    0  502    0 -0.00000000000E+00 -0.00000000000E+00 -0.89498520115E+03  0.89498520115E+03  0.00000000000E+00 0. -1.
         24    2    1    2    0    0 -0.15380017961E+03  0.91361612414E+02 -0.65401628236E+03  0.68260217521E+03  0.78784468954E+02 0.  0.
        -11    1    3    3    0    0 -0.27510898020E+02 -0.91214749188E+01 -0.54310074729E+02  0.61560011628E+02  0.00000000000E+00 0.  1.
         12    1    3    3    0    0 -0.12628928159E+03  0.10048308733E+03 -0.59970620763E+03  0.62104216358E+03  0.00000000000E+00 0. -1.
          1    1    1    2  501    0  0.15380017961E+03 -0.91361612414E+02 -0.19138171606E+03  0.26197022867E+03  0.00000000000E+00 0. -1.
<mgrwt>
<rscale>  1 0.19546977E+03</rscale>
<asrwt>0</asrwt>
<pdfrwt beam="1">  1       21 0.76288006E-02 0.19546977E+03</pdfrwt>
<pdfrwt beam="2">  1        2 0.13769003E+00 0.19546977E+03</pdfrwt>
<totfact> 0.50583011E+04</totfact>
</mgrwt>
</event>
<event>
 6    2  0.7993170E+000  0.8024966E+02  0.7546771E-02  0.1328344E+00
          2   -1    0    0  502    0 -0.00000000000E+00  0.00000000000E+00  0.11432646379E+03  0.11432646379E+03  0.00000000000E+00 0. -1.
         21   -1    0    0  501  502  0.00000000000E+00 -0.00000000000E+00 -0.38240673882E+02  0.38240673882E+02  0.00000000000E+00 0.  1.
         24    2    1    2    0    0 -0.41499200988E+01  0.22888650399E+02  0.80356470958E+01  0.80650977522E+02  0.76804273300E+02 0.  0.
        -13    1    3    3    0    0 -0.59124114992E+01  0.21785160907E+02 -0.32770074815E+02  0.39792306403E+02  0.00000000000E+00 0.  1.
         14    1    3    3    0    0  0.17624914003E+01  0.11034894916E+01  0.40805721911E+02  0.40858671119E+02  0.00000000000E+00 0. -1.
          1    1    1    2  501    0  0.41499200988E+01 -0.22888650399E+02  0.68050142812E+02  0.71916160149E+02  0.00000000000E+00 0. -1.
<mgrwt>
<rscale>  1 0.80249664E+02</rscale>
<asrwt>0</asrwt>
<pdfrwt beam="1">  1       21 0.58831806E-02 0.80249664E+02</pdfrwt>
<pdfrwt beam="2">  1        2 0.17588687E-01 0.80249664E+02</pdfrwt>
<totfact> 0.74235121E+05</totfact>
</mgrwt>
</event>
<event>
 6    2  0.7993170E+000  0.8406022E+02  0.7546771E-02  0.1317909E+00
          2   -1    0    0  502    0 -0.00000000000E+00  0.00000000000E+00  0.25953018621E+03  0.25953018621E+03  0.00000000000E+00 0. -1.
         21   -1    0    0  501  502  0.00000000000E+00 -0.00000000000E+00 -0.10873016748E+02  0.10873016748E+02  0.00000000000E+00 0.  1.
         24    2    1    2    0    0  0.28326094066E+01  0.20505689567E+02  0.21550406251E+03  0.23131822526E+03  0.81471549644E+02 0.  0.
        -13    1    3    3    0    0 -0.29718391832E+02  0.10452849507E+02  0.32851029612E+02  0.45515217482E+02  0.00000000000E+00 0.  1.
         14    1    3    3    0    0  0.32551001238E+02  0.10052840060E+02  0.18265303289E+03  0.18580300778E+03  0.00000000000E+00 0. -1.
          1    1    1    2  501    0 -0.28326094066E+01 -0.20505689567E+02  0.33153106958E+02  0.39084977698E+02  0.00000000000E+00 0. -1.
<mgrwt>
<rscale>  1 0.84060219E+02</rscale>
<asrwt>0</asrwt>
<pdfrwt beam="1">  1       21 0.16727720E-02 0.84060219E+02</pdfrwt>
<pdfrwt beam="2">  1        2 0.39927716E-01 0.84060219E+02</pdfrwt>
<totfact> 0.23773150E+06</totfact>
</mgrwt>
</event>
<event>
 6    2  0.7993170E+000  0.9164612E+02  0.7546771E-02  0.1298914E+00
          2   -1    0    0  502    0 -0.00000000000E+00  0.00000000000E+00  0.90549422906E+02  0.90549422906E+02  0.00000000000E+00 0. -1.
         21   -1    0    0  501  502  0.00000000000E+00 -0.00000000000E+00 -0.65234580699E+02  0.65234580699E+02  0.00000000000E+00 0. -1.
         24    2    1    2    0    0 -0.95939646271E+01 -0.21809470105E+02  0.62990740313E+02  0.11120631365E+03  0.88494709938E+02 0.  0.
        -13    1    3    3    0    0 -0.37155849287E+02 -0.38955565772E+02  0.20204522681E+02  0.57500573716E+02  0.00000000000E+00 0.  1.
         14    1    3    3    0    0  0.27561884660E+02  0.17146095667E+02  0.42786217632E+02  0.53705739935E+02  0.00000000000E+00 0. -1.
          1    1    1    2  501    0  0.95939646271E+01  0.21809470105E+02 -0.37675898107E+02  0.44577689954E+02  0.00000000000E+00 0. -1.
<mgrwt>
<rscale>  1 0.91646117E+02</rscale>
<asrwt>0</asrwt>
<pdfrwt beam="1">  1       21 0.10036089E-01 0.91646117E+02</pdfrwt>
<pdfrwt beam="2">  1        2 0.13930680E-01 0.91646117E+02</pdfrwt>
<totfact> 0.39600007E+05</totfact>
</mgrwt>
</event>
<event>
 6    2  0.7993170E+000  0.9007411E+02  0.7546771E-02  0.1302672E+00
         21   -1    0    0  501  502  0.00000000000E+00  0.00000000000E+00  0.94409409477E+01  0.94409409477E+01  0.00000000000E+00 0.  1.
         -1   -1    0    0    0  501 -0.00000000000E+00 -0.00000000000E+00 -0.26566021804E+04  0.26566021804E+04  0.00000000000E+00 0.  1.
         24    2    1    2    0    0 -0.60274615328E+01  0.39532064305E+02 -0.26096823457E+04  0.26112363528E+04  0.80710782261E+02 0.  0.
        -11    1    3    3    0    0  0.35177815842E+02  0.12582755959E+02 -0.78328504042E+03  0.78417552820E+03  0.00000000000E+00 0.  1.
         12    1    3    3    0    0 -0.41205277375E+02  0.26949308346E+02 -0.18263973053E+04  0.18270608246E+04  0.00000000000E+00 0. -1.
         -2    1    1    2    0  502  0.60274615328E+01 -0.39532064305E+02 -0.37478893753E+02  0.54806768540E+02  0.00000000000E+00 0.  1.
<mgrwt>
<rscale>  1 0.90074107E+02</rscale>
<asrwt>0</asrwt>
<pdfrwt beam="1">  1       21 0.14524495E-02 0.90074107E+02</pdfrwt>
<pdfrwt beam="2">  1       -1 0.40870885E+00 0.90074107E+02</pdfrwt>
<totfact> 0.16174751E+03</totfact>
</mgrwt>
</event>
<event>
 6    2  0.7993170E+000  0.9462850E+02  0.7546771E-02  0.1292015E+00
         21   -1    0    0  501  502  0.00000000000E+00  0.00000000000E+00  0.10519321010E+02  0.10519321010E+02  0.00000000000E+00 0.  1.
          2   -1    0    0  502    0 -0.00000000000E+00 -0.00000000000E+00 -0.70917293177E+03  0.70917293177E+03  0.00000000000E+00 0. -1.
         24    2    1    2    0    0 -0.47645527616E+02  0.15264450903E+02 -0.23484552606E+03  0.25319355054E+03  0.80320938487E+02 0.  0.
        -13    1    3    3    0    0 -0.22020835794E+02 -0.24565897729E+02 -0.36190768902E+02  0.48971137357E+02  0.00000000000E+00 0.  1.
         14    1    3    3    0    0 -0.25624691821E+02  0.39830348632E+02 -0.19865475716E+03  0.20422241318E+03  0.00000000000E+00 0. -1.
          1    1    1    2  501    0  0.47645527616E+02 -0.15264450903E+02 -0.46380808469E+03  0.46649870224E+03  0.00000000000E+00 0. -1.
<mgrwt>
<rscale>  1 0.94628500E+02</rscale>
<asrwt>0</asrwt>
<pdfrwt beam="1">  1       21 0.16183572E-02 0.94628500E+02</pdfrwt>
<pdfrwt beam="2">  1        2 0.10910352E+00 0.94628500E+02</pdfrwt>
<totfact> 0.86064516E+05</totfact>
</mgrwt>
</event>
<event>
 6    2  0.7993170E+000  0.1505291E+03  0.7546771E-02  0.1199824E+00
         21   -1    0    0  501  502  0.00000000000E+00  0.00000000000E+00  0.67077197380E+02  0.67077197380E+02  0.00000000000E+00 0. -1.
          2   -1    0    0  502    0 -0.00000000000E+00 -0.00000000000E+00 -0.56311897600E+03  0.56311897600E+03  0.00000000000E+00 0. -1.
         24    2    1    2    0    0 -0.98794838690E+02 -0.83452646056E+02 -0.47611705396E+03  0.49934603414E+03  0.77034073320E+02 0.  0.
        -11    1    3    3    0    0 -0.54778938834E+02  0.90237705440E+00 -0.15312162066E+03  0.16262772561E+03  0.00000000000E+00 0.  1.
         12    1    3    3    0    0 -0.44015899856E+02 -0.84355023110E+02 -0.32299543331E+03  0.33671830853E+03  0.00000000000E+00 0. -1.
          1    1    1    2  501    0  0.98794838690E+02  0.83452646056E+02 -0.19924724654E+02  0.13085013924E+03  0.00000000000E+00 0. -1.
<mgrwt>
<rscale>  1 0.15052911E+03</rscale>
<asrwt>0</asrwt>
<pdfrwt beam="1">  1       21 0.10319568E-01 0.15052911E+03</pdfrwt>
<pdfrwt beam="2">  1        2 0.86633692E-01 0.15052911E+03</pdfrwt>
<totfact> 0.52380722E+04</totfact>
</mgrwt>
</event>
<event>
 6    2  0.7993170E+000  0.1013597E+03  0.7546771E-02  0.1277462E+00
         21   -1    0    0  501  502  0.00000000000E+00  0.00000000000E+00  0.98436745151E+02  0.98436745151E+02  0.00000000000E+00 0. -1.
          2   -1    0    0  502    0 -0.00000000000E+00 -0.00000000000E+00 -0.77580261145E+02  0.77580261145E+02  0.00000000000E+00 0. -1.
         24    2    1    2    0    0  0.18479407914E+01 -0.60333812632E+02  0.45135676529E+02  0.11095501262E+03  0.81426050484E+02 0.  0.
        -13    1    3    3    0    0  0.35922864624E+01  0.14904446183E+02  0.30713158662E+02  0.34327032395E+02  0.00000000000E+00 0.  1.
         14    1    3    3    0    0 -0.17443456710E+01 -0.75238258815E+02  0.14422517867E+02  0.76627980222E+02  0.00000000000E+00 0. -1.
          1    1    1    2  501    0 -0.18479407914E+01  0.60333812632E+02 -0.24279192524E+02  0.65061993679E+02  0.00000000000E+00 0. -1.
<mgrwt>
<rscale>  1 0.10135968E+03</rscale>
<asrwt>0</asrwt>
<pdfrwt beam="1">  1       21 0.15144115E-01 0.10135968E+03</pdfrwt>
<pdfrwt beam="2">  1        2 0.11935425E-01 0.10135968E+03</pdfrwt>
<totfact> 0.23193038E+05</totfact>
</mgrwt>
</event>
<event>
 6    2  0.7993170E+000  0.8264982E+02  0.7546771E-02  0.1321695E+00
         21   -1    0    0  501  502  0.00000000000E+00  0.00000000000E+00  0.14688571160E+02  0.14688571160E+02  0.00000000000E+00 0.  1.
          4   -1    0    0  502    0 -0.00000000000E+00 -0.00000000000E+00 -0.19628143485E+03  0.19628143485E+03  0.00000000000E+00 0. -1.
         24    2    1    2    0    0 -0.19274124611E+02  0.10069833393E+02 -0.12048633798E+03  0.14610937922E+03  0.79737692659E+02 0.  0.
        -11    1    3    3    0    0  0.24883168533E+02 -0.14473642746E+02 -0.25197570896E+02  0.38256711694E+02  0.00000000000E+00 0.  1.
         12    1    3    3    0    0 -0.44157293145E+02  0.24543476139E+02 -0.95288767088E+02  0.10785266752E+03  0.00000000000E+00 0. -1.
          3    1    1    2  501    0  0.19274124611E+02 -0.10069833393E+02 -0.61106525705E+02  0.64860626792E+02  0.00000000000E+00 0. -1.
<mgrwt>
<rscale>  1 0.82649822E+02</rscale>
<asrwt>0</asrwt>
<pdfrwt beam="1">  1       21 0.22597803E-02 0.82649822E+02</pdfrwt>
<pdfrwt beam="2">  1        4 0.30197143E-01 0.82649822E+02</pdfrwt>
<totfact> 0.38249994E+05</totfact>
</mgrwt>
</event>
<event>
 6    2  0.7993170E+000  0.9927645E+02  0.7546771E-02  0.1281825E+00
          2   -1    0    0  502    0 -0.00000000000E+00  0.00000000000E+00  0.36933143276E+03  0.36933143276E+03  0.00000000000E+00 0. -1.
         21   -1    0    0  501  502  0.00000000000E+00 -0.00000000000E+00 -0.52065626227E+02  0.52065626227E+02  0.00000000000E+00 0. -1.
         24    2    1    2    0    0  0.43305764988E+02 -0.41137846031E+02  0.34246830133E+03  0.35656745618E+03  0.79297551879E+02 0.  0.
        -13    1    3    3    0    0 -0.22085333990E+02 -0.17352674779E+02  0.12984329411E+03  0.13284637113E+03  0.00000000000E+00 0.  1.
         14    1    3    3    0    0  0.65391098978E+02 -0.23785171252E+02  0.21262500722E+03  0.22372108504E+03  0.00000000000E+00 0. -1.
          1    1    1    2  501    0 -0.43305764988E+02  0.41137846031E+02 -0.25202494789E+02  0.64829602813E+02  0.00000000000E+00 0. -1.
<mgrwt>
<rscale>  1 0.99276449E+02</rscale>
<asrwt>0</asrwt>
<pdfrwt beam="1">  1       21 0.80100966E-02 0.99276449E+02</pdfrwt>
<pdfrwt beam="2">  1        2 0.56820219E-01 0.99276449E+02</pdfrwt>
<totfact> 0.12713097E+05</totfact>
</mgrwt>
</event>
<event>
 6    2  0.7993170E+000  0.8828511E+02  0.7546771E-02  0.1307058E+00
         21   -1    0    0  501  502  0.00000000000E+00  0.00000000000E+00  0.39281597238E+02  0.39281597238E+02  0.00000000000E+00 0. -1.
          2   -1    0    0  502    0 -0.00000000000E+00 -0.00000000000E+00 -0.28263186045E+03  0.28263186045E+03  0.00000000000E+00 0. -1.
         24    2    1    2    0    0 -0.99353323599E+01 -0.33724129234E+02 -0.26588168928E+03  0.28015590888E+03  0.80982917118E+02 0.  0.
        -11    1    3    3    0    0  0.19278944489E+02 -0.32307098179E+02 -0.51446312956E+02  0.63734993607E+02  0.00000000000E+00 0.  1.
         12    1    3    3    0    0 -0.29214276849E+02 -0.14170310550E+01 -0.21443537633E+03  0.21642091528E+03  0.00000000000E+00 0. -1.
          1    1    1    2  501    0  0.99353323599E+01  0.33724129234E+02  0.22531426069E+02  0.41757548807E+02  0.00000000000E+00 0. -1.
<mgrwt>
<rscale>  1 0.88285110E+02</rscale>
<asrwt>0</asrwt>
<pdfrwt beam="1">  1       21 0.60433228E-02 0.88285110E+02</pdfrwt>
<pdfrwt beam="2">  1        2 0.43481824E-01 0.88285110E+02</pdfrwt>
<totfact> 0.26953218E+05</totfact>
</mgrwt>
</event>
<event>
 6    2  0.7993170E+000  0.9453463E+02  0.7546771E-02  0.1292228E+00
         -1   -1    0    0    0  501 -0.00000000000E+00  0.00000000000E+00  0.11606178698E+02  0.11606178698E+02  0.00000000000E+00 0.  1.
         21   -1    0    0  501  502  0.00000000000E+00 -0.00000000000E+00 -0.49712207392E+03  0.49712207392E+03  0.00000000000E+00 0.  1.
         24    2    1    2    0    0 -0.45840839002E+02 -0.26228323145E+02 -0.24789199542E+03  0.26530593398E+03  0.78405929332E+02 0.  0.
        -13    1    3    3    0    0 -0.36545891537E+02  0.46888721752E+00 -0.35198524987E+02  0.50742075290E+02  0.00000000000E+00 0.  1.
         14    1    3    3    0    0 -0.92949474649E+01 -0.26697210362E+02 -0.21269347044E+03  0.21456385869E+03  0.00000000000E+00 0. -1.
         -2    1    1    2    0  502  0.45840839002E+02  0.26228323145E+02 -0.23762389980E+03  0.24342231864E+03  0.00000000000E+00 0.  1.
<mgrwt>
<rscale>  1 0.94534635E+02</rscale>
<asrwt>0</asrwt>
<pdfrwt beam="1">  1       21 0.76480304E-01 0.94534635E+02</pdfrwt>
<pdfrwt beam="2">  1       -1 0.17855663E-02 0.94534635E+02</pdfrwt>
<totfact> 0.10405503E+05</totfact>
</mgrwt>
</event>
<event>
 6    2  0.7993170E+000  0.8773840E+02  0.7546771E-02  0.1308423E+00
         21   -1    0    0  501  502  0.00000000000E+00  0.00000000000E+00  0.13349171701E+02  0.13349171701E+02  0.00000000000E+00 0.  1.
          2   -1    0    0  502    0 -0.00000000000E+00 -0.00000000000E+00 -0.31503919216E+03  0.31503919216E+03  0.00000000000E+00 0. -1.
         24    2    1    2    0    0 -0.23508628874E+02  0.32131186274E+02 -0.17800456377E+03  0.19845314555E+03  0.78185404586E+02 0.  0.
        -11    1    3    3    0    0  0.59552281022E-01  0.43292232260E+02 -0.43235724592E+02  0.61184547081E+02  0.00000000000E+00 0.  1.
         12    1    3    3    0    0 -0.23568181155E+02 -0.11161045985E+02 -0.13476883918E+03  0.13726859847E+03  0.00000000000E+00 0. -1.
          1    1    1    2  501    0  0.23508628874E+02 -0.32131186274E+02 -0.12368545669E+03  0.12993521832E+03  0.00000000000E+00 0. -1.
<mgrwt>
<rscale>  1 0.87738397E+02</rscale>
<asrwt>0</asrwt>
<pdfrwt beam="1">  1       21 0.20537190E-02 0.87738397E+02</pdfrwt>
<pdfrwt beam="2">  1        2 0.48467562E-01 0.87738397E+02</pdfrwt>
<totfact> 0.14078681E+06</totfact>
</mgrwt>
</event>
<event>
 6    2  0.7993170E+000  0.9729687E+02  0.7546771E-02  0.1286085E+00
         21   -1    0    0  501  502  0.00000000000E+00  0.00000000000E+00  0.17956071450E+02  0.17956071450E+02  0.00000000000E+00 0.  1.
          2   -1    0    0  502    0 -0.00000000000E+00 -0.00000000000E+00 -0.32253660084E+03  0.32253660084E+03  0.00000000000E+00 0. -1.
         24    2    1    2    0    0  0.16524667611E+02  0.51506768412E+02 -0.21215026116E+03  0.23339754487E+03  0.80874401449E+02 0.  0.
        -11    1    3    3    0    0  0.15438095671E+02  0.73570737805E+02 -0.16137589631E+03  0.17802575142E+03  0.00000000000E+00 0.  1.
         12    1    3    3    0    0  0.10865719394E+01 -0.22063969393E+02 -0.50774364850E+02  0.55371793451E+02  0.00000000000E+00 0. -1.
          1    1    1    2  501    0 -0.16524667611E+02 -0.51506768412E+02 -0.92430268224E+02  0.10709512741E+03  0.00000000000E+00 0. -1.
<mgrwt>
<rscale>  1 0.97296869E+02</rscale>
<asrwt>0</asrwt>
<pdfrwt beam="1">  1       21 0.27624728E-02 0.97296869E+02</pdfrwt>
<pdfrwt beam="2">  1        2 0.49621010E-01 0.97296869E+02</pdfrwt>
<totfact> 0.86103318E+05</totfact>
</mgrwt>
</event>
<event>
 6    2  0.7993170E+000  0.8894257E+02  0.7546771E-02  0.1305433E+00
         21   -1    0    0  501  502  0.00000000000E+00  0.00000000000E+00  0.25333650342E+02  0.25333650342E+02  0.00000000000E+00 0. -1.
          2   -1    0    0  502    0 -0.00000000000E+00 -0.00000000000E+00 -0.24977537056E+03  0.24977537056E+03  0.00000000000E+00 0. -1.
         24    2    1    2    0    0 -0.36638154081E+02 -0.13117402182E+02 -0.21828452097E+03  0.23570938033E+03  0.79977242430E+02 0.  0.
        -11    1    3    3    0    0 -0.28125735507E+02 -0.35058692179E+02 -0.56379666386E+02  0.72102951929E+02  0.00000000000E+00 0.  1.
         12    1    3    3    0    0 -0.85124185742E+01  0.21941289997E+02 -0.16190485458E+03  0.16360642840E+03  0.00000000000E+00 0. -1.
          1    1    1    2  501    0  0.36638154081E+02  0.13117402182E+02 -0.61571992468E+01  0.39399640570E+02  0.00000000000E+00 0. -1.
<mgrwt>
<rscale>  1 0.88942565E+02</rscale>
<asrwt>0</asrwt>
<pdfrwt beam="1">  1       21 0.38974845E-02 0.88942565E+02</pdfrwt>
<pdfrwt beam="2">  1        2 0.38426982E-01 0.88942565E+02</pdfrwt>
<totfact> 0.63606412E+05</totfact>
</mgrwt>
</event>
<event>
 6    2  0.7993170E+000  0.9133716E+02  0.7546771E-02  0.1299645E+00
         21   -1    0    0  501  502  0.00000000000E+00  0.00000000000E+00  0.72556492414E+02  0.72556492414E+02  0.00000000000E+00 0. -1.
          2   -1    0    0  502    0 -0.00000000000E+00 -0.00000000000E+00 -0.25817878636E+03  0.25817878636E+03  0.00000000000E+00 0. -1.
         24    2    1    2    0    0 -0.17390199204E+02  0.34748306360E+02 -0.24404133361E+03  0.26057369372E+03  0.82659624501E+02 0.  0.
        -11    1    3    3    0    0 -0.19235756882E+02  0.14818649672E+02 -0.10970498411E+02  0.26645047501E+02  0.00000000000E+00 0.  1.
         12    1    3    3    0    0  0.18455576777E+01  0.19929656688E+02 -0.23307083520E+03  0.23392864622E+03  0.00000000000E+00 0. -1.
          1    1    1    2  501    0  0.17390199204E+02 -0.34748306360E+02  0.58419039662E+02  0.70161585061E+02  0.00000000000E+00 0. -1.
<mgrwt>
<rscale>  1 0.91337163E+02</rscale>
<asrwt>0</asrwt>
<pdfrwt beam="1">  1       21 0.11162537E-01 0.91337163E+02</pdfrwt>
<pdfrwt beam="2">  1        2 0.39719813E-01 0.91337163E+02</pdfrwt>
<totfact> 0.10387063E+05</totfact>
</mgrwt>
</event>
<event>
 6    2  0.7993170E+000  0.8364932E+02  0.7546771E-02  0.1319003E+00
         21   -1    0    0  501  502  0.00000000000E+00  0.00000000000E+00  0.24016594514E+03  0.24016594514E+03  0.00000000000E+00 0. -1.
          2   -1    0    0  502    0 -0.00000000000E+00 -0.00000000000E+00 -0.14226877390E+03  0.14226877390E+03  0.00000000000E+00 0. -1.
         24    2    1    2    0    0  0.18703041069E+02 -0.13165232436E+02 -0.12934914641E+03  0.15404028833E+03  0.80461678218E+02 0.  0.
        -13    1    3    3    0    0  0.43104544705E+02 -0.13259772785E+02 -0.36440003493E+02  0.57980144904E+02  0.00000000000E+00 0.  1.
         14    1    3    3    0    0 -0.24401503635E+02  0.94540349475E-01 -0.92909142918E+02  0.96060143428E+02  0.00000000000E+00 0. -1.
          1    1    1    2  501    0 -0.18703041069E+02  0.13165232436E+02  0.22724631766E+03  0.22839443071E+03  0.00000000000E+00 0. -1.
<mgrwt>
<rscale>  1 0.83649320E+02</rscale>
<asrwt>0</asrwt>
<pdfrwt beam="1">  1       21 0.36948607E-01 0.83649320E+02</pdfrwt>
<pdfrwt beam="2">  1        2 0.21887504E-01 0.83649320E+02</pdfrwt>
<totfact> 0.21763625E+04</totfact>
</mgrwt>
</event>
<event>
 6    2  0.7993170E+000  0.9155026E+02  0.7546771E-02  0.1299140E+00
         21   -1    0    0  501  502  0.00000000000E+00  0.00000000000E+00  0.12786011320E+03  0.12786011320E+03  0.00000000000E+00 0.  1.
          2   -1    0    0  502    0 -0.00000000000E+00 -0.00000000000E+00 -0.30125839168E+02  0.30125839168E+02  0.00000000000E+00 0. -1.
         24    2    1    2    0    0 -0.30477289902E+02  0.10307724761E+02  0.66576273360E+02  0.11319828224E+03  0.85710772592E+02 0.  0.
        -11    1    3    3    0    0 -0.38452744495E+02  0.17192202811E+02  0.83350965179E+02  0.93389339825E+02  0.00000000000E+00 0.  1.
         12    1    3    3    0    0  0.79754545932E+01 -0.68844780504E+01 -0.16774691819E+02  0.19808942416E+02  0.00000000000E+00 0. -1.
          1    1    1    2  501    0  0.30477289902E+02 -0.10307724761E+02  0.31158000671E+02  0.44787670126E+02  0.00000000000E+00 0. -1.
<mgrwt>
<rscale>  1 0.91550264E+02</rscale>
<asrwt>0</asrwt>
<pdfrwt beam="1">  1       21 0.19670786E-01 0.91550264E+02</pdfrwt>
<pdfrwt beam="2">  1        2 0.46347446E-02 0.91550264E+02</pdfrwt>
<totfact> 0.46689717E+05</totfact>
</mgrwt>
</event>
<event>
 6    2  0.7993170E+000  0.9136008E+02  0.7546771E-02  0.1299591E+00
          2   -1    0    0  502    0 -0.00000000000E+00  0.00000000000E+00  0.35771389903E+02  0.35771389903E+02  0.00000000000E+00 0. -1.
         21   -1    0    0  501  502  0.00000000000E+00 -0.00000000000E+00 -0.22236855496E+03  0.22236855496E+03  0.00000000000E+00 0. -1.
         24    2    1    2    0    0  0.36926832568E+02 -0.18097942275E+02 -0.29887757771E+02  0.96124622101E+02  0.81581483385E+02 0.  0.
        -13    1    3    3    0    0  0.49068297142E+02  0.84547759964E+01 -0.41385629716E+02  0.64745280666E+02  0.00000000000E+00 0.  1.
         14    1    3    3    0    0 -0.12141464574E+02 -0.26552718271E+02  0.11497871945E+02  0.31379341434E+02  0.00000000000E+00 0. -1.
          1    1    1    2  501    0 -0.36926832568E+02  0.18097942275E+02 -0.15670940728E+03  0.16201532276E+03  0.00000000000E+00 0. -1.
<mgrwt>
<rscale>  1 0.91360084E+02</rscale>
<asrwt>0</asrwt>
<pdfrwt beam="1">  1       21 0.34210548E-01 0.91360084E+02</pdfrwt>
<pdfrwt beam="2">  1        2 0.55032906E-02 0.91360084E+02</pdfrwt>
<totfact> 0.13209873E+05</totfact>
</mgrwt>
</event>
<event>
 6    2  0.7993170E+000  0.8333667E+02  0.7546771E-02  0.1319841E+00
         -1   -1    0    0    0  501 -0.00000000000E+00  0.00000000000E+00  0.28878029974E+03  0.28878029974E+03  0.00000000000E+00 0.  1.
         21   -1    0    0  501  502  0.00000000000E+00 -0.00000000000E+00 -0.10884393350E+02  0.10884393350E+02  0.00000000000E+00 0.  1.
         24    2    1    2    0    0  0.17390226478E+02 -0.16066601072E+02  0.24738765208E+03  0.26104722000E+03  0.79902722234E+02 0.  0.
        -11    1    3    3    0    0  0.49226490641E+02 -0.14794789196E+02  0.15799258825E+03  0.16614388677E+03  0.00000000000E+00 0.  1.
         12    1    3    3    0    0 -0.31836264163E+02 -0.12718118759E+01  0.89395063831E+02  0.94903333232E+02  0.00000000000E+00 0. -1.
         -2    1    1    2    0  502 -0.17390226478E+02  0.16066601072E+02  0.30508254310E+02  0.38617473092E+02  0.00000000000E+00 0.  1.
<mgrwt>
<rscale>  1 0.83336671E+02</rscale>
<asrwt>0</asrwt>
<pdfrwt beam="1">  1       21 0.16745223E-02 0.83336671E+02</pdfrwt>
<pdfrwt beam="2">  1       -1 0.44427733E-01 0.83336671E+02</pdfrwt>
<totfact> 0.71221223E+05</totfact>
</mgrwt>
</event>
<event>
 6    2  0.7993170E+000  0.8678606E+02  0.7546771E-02  0.1310827E+00
          2   -1    0    0  502    0 -0.00000000000E+00  0.00000000000E+00  0.39967481645E+03  0.39967481645E+03  0.00000000000E+00 0. -1.
         21   -1    0    0  501  502  0.00000000000E+00 -0.00000000000E+00 -0.24617691076E+02  0.24617691076E+02  0.00000000000E+00 0. -1.
         24    2    1    2    0    0  0.75998938137E+01 -0.31099330684E+02  0.38183071681E+03  0.39156930022E+03  0.80665319833E+02 0.  0.
        -13    1    3    3    0    0  0.37351403039E+02  0.11960092063E+01  0.10901684344E+03  0.11524421851E+03  0.00000000000E+00 0.  1.
         14    1    3    3    0    0 -0.29751509225E+02 -0.32295339890E+02  0.27281387337E+03  0.27632508171E+03  0.00000000000E+00 0. -1.
          1    1    1    2  501    0 -0.75998938137E+01  0.31099330684E+02 -0.67735914388E+01  0.32723207299E+02  0.00000000000E+00 0. -1.
<mgrwt>
<rscale>  1 0.86786062E+02</rscale>
<asrwt>0</asrwt>
<pdfrwt beam="1">  1       21 0.37873374E-02 0.86786062E+02</pdfrwt>
<pdfrwt beam="2">  1        2 0.61488429E-01 0.86786062E+02</pdfrwt>
<totfact> 0.40692239E+05</totfact>
</mgrwt>
</event>
<event>
 6    2  0.7993170E+000  0.8411453E+02  0.7546771E-02  0.1317765E+00
         -3   -1    0    0    0  501 -0.00000000000E+00  0.00000000000E+00  0.20283886218E+03  0.20283886218E+03  0.00000000000E+00 0.  1.
         21   -1    0    0  501  502  0.00000000000E+00 -0.00000000000E+00 -0.16516200090E+02  0.16516200090E+02  0.00000000000E+00 0. -1.
         24    2    1    2    0    0 -0.25678955889E+02 -0.43873308149E+00  0.16775993136E+03  0.18766632240E+03  0.80097769828E+02 0.  0.
        -11    1    3    3    0    0 -0.29431085091E+02 -0.36901522607E+02  0.87071727449E+02  0.99042399311E+02  0.00000000000E+00 0.  1.
         12    1    3    3    0    0  0.37521292020E+01  0.36462789525E+02  0.80688203908E+02  0.88623923087E+02  0.00000000000E+00 0. -1.
         -4    1    1    2    0  502  0.25678955889E+02  0.43873308149E+00  0.18562730728E+02  0.31688739867E+02  0.00000000000E+00 0.  1.
<mgrwt>
<rscale>  1 0.84114529E+02</rscale>
<asrwt>0</asrwt>
<pdfrwt beam="1">  1       21 0.25409540E-02 0.84114529E+02</pdfrwt>
<pdfrwt beam="2">  1       -3 0.31205977E-01 0.84114529E+02</pdfrwt>
<totfact> 0.36164281E+05</totfact>
</mgrwt>
</event>
<event>
 6    2  0.7993170E+000  0.8023570E+02  0.7546771E-02  0.1328384E+00
         21   -1    0    0  501  502  0.00000000000E+00  0.00000000000E+00  0.36417755665E+02  0.36417755665E+02  0.00000000000E+00 0.  1.
          2   -1    0    0  502    0 -0.00000000000E+00 -0.00000000000E+00 -0.81612699935E+02  0.81612699935E+02  0.00000000000E+00 0. -1.
         24    2    1    2    0    0  0.75709434258E+00  0.28650972690E+02 -0.30655587780E+02  0.85892560289E+02  0.74942080455E+02 0.  0.
        -13    1    3    3    0    0  0.32296441346E+02  0.35331798821E+02 -0.20687196171E+02  0.52147446888E+02  0.00000000000E+00 0.  1.
         14    1    3    3    0    0 -0.31539347003E+02 -0.66808261310E+01 -0.99683916083E+01  0.33745113401E+02  0.00000000000E+00 0. -1.
          1    1    1    2  501    0 -0.75709434258E+00 -0.28650972690E+02 -0.14539356491E+02  0.32137895312E+02  0.00000000000E+00 0. -1.
<mgrwt>
<rscale>  1 0.80235696E+02</rscale>
<asrwt>0</asrwt>
<pdfrwt beam="1">  1       21 0.56027317E-02 0.80235696E+02</pdfrwt>
<pdfrwt beam="2">  1        2 0.12555800E-01 0.80235696E+02</pdfrwt>
<totfact> 0.11880415E+06</totfact>
</mgrwt>
</event>
<event>
 6    2  0.7993170E+000  0.1576757E+03  0.7546771E-02  0.1191346E+00
          2   -1    0    0  502    0 -0.00000000000E+00  0.00000000000E+00  0.25615098800E+03  0.25615098800E+03  0.00000000000E+00 0. -1.
         21   -1    0    0  501  502  0.00000000000E+00 -0.00000000000E+00 -0.22790307128E+03  0.22790307128E+03  0.00000000000E+00 0. -1.
         24    2    1    2    0    0  0.29144976431E+02  0.13135058365E+03  0.20707042513E+03  0.26026868221E+03  0.82214478637E+02 0.  0.
        -13    1    3    3    0    0  0.52232892951E+01 -0.54441035296E+00 -0.63518629583E+01  0.82416804557E+01  0.00000000000E+00 0.  1.
         14    1    3    3    0    0  0.23921687136E+02  0.13189499401E+03  0.21342228809E+03  0.25202700176E+03  0.00000000000E+00 0. -1.
          1    1    1    2  501    0 -0.29144976431E+02 -0.13135058365E+03 -0.17882250842E+03  0.22378537708E+03  0.00000000000E+00 0. -1.
<mgrwt>
<rscale>  1 0.15767570E+03</rscale>
<asrwt>0</asrwt>
<pdfrwt beam="1">  1       21 0.35062011E-01 0.15767570E+03</pdfrwt>
<pdfrwt beam="2">  1        2 0.39407845E-01 0.15767570E+03</pdfrwt>
<totfact> 0.12677740E+04</totfact>
</mgrwt>
</event>
<event>
 6    2  0.7993170E+000  0.8503795E+02  0.7546771E-02  0.1315333E+00
          2   -1    0    0  502    0 -0.00000000000E+00  0.00000000000E+00  0.91132034701E+03  0.91132034701E+03  0.00000000000E+00 0. -1.
         21   -1    0    0  501  502  0.00000000000E+00 -0.00000000000E+00 -0.37606186399E+01  0.37606186399E+01  0.00000000000E+00 0.  1.
         24    2    1    2    0    0 -0.16614309087E+02  0.24599240483E+02  0.74454796796E+03  0.74938850375E+03  0.79688738595E+02 0.  0.
        -11    1    3    3    0    0  0.27950461213E+01 -0.12548633331E+02  0.20966706071E+02  0.24594374251E+02  0.00000000000E+00 0.  1.
         12    1    3    3    0    0 -0.19409355209E+02  0.37147873815E+02  0.72358126189E+03  0.72479412950E+03  0.00000000000E+00 0. -1.
          1    1    1    2  501    0  0.16614309087E+02 -0.24599240483E+02  0.16301176041E+03  0.16569246190E+03  0.00000000000E+00 0. -1.
<mgrwt>
<rscale>  1 0.85037950E+02</rscale>
<asrwt>0</asrwt>
<pdfrwt beam="1">  1       21 0.57855744E-03 0.85037950E+02</pdfrwt>
<pdfrwt beam="2">  1        2 0.14020295E+00 0.85037950E+02</pdfrwt>
<totfact> 0.31223179E+06</totfact>
</mgrwt>
</event>
<event>
 6    2  0.7993170E+000  0.8442255E+02  0.7546771E-02  0.1316950E+00
         -3   -1    0    0    0  501 -0.00000000000E+00  0.00000000000E+00  0.39740765336E+02  0.39740765336E+02  0.00000000000E+00 0.  1.
         21   -1    0    0  501  502  0.00000000000E+00 -0.00000000000E+00 -0.80371944101E+02  0.80371944101E+02  0.00000000000E+00 0.  1.
         24    2    1    2    0    0 -0.33807537251E+01  0.24111728943E+02 -0.16868910536E+02  0.86091387303E+02  0.80835399774E+02 0.  0.
        -13    1    3    3    0    0 -0.13031191708E+01 -0.57108539249E+01  0.29963563624E+02  0.30530756905E+02  0.00000000000E+00 0.  1.
         14    1    3    3    0    0 -0.20776345543E+01  0.29822582868E+02 -0.46832474160E+02  0.55560630398E+02  0.00000000000E+00 0. -1.
         -4    1    1    2    0  502  0.33807537251E+01 -0.24111728943E+02 -0.23762268229E+02  0.34021322134E+02  0.00000000000E+00 0.  1.
<mgrwt>
<rscale>  1 0.84422549E+02</rscale>
<asrwt>0</asrwt>
<pdfrwt beam="1">  1       21 0.12364914E-01 0.84422549E+02</pdfrwt>
<pdfrwt beam="2">  1       -3 0.61139639E-02 0.84422549E+02</pdfrwt>
<totfact> 0.40082124E+05</totfact>
</mgrwt>
</event>
<event>
 6    2  0.7993170E+000  0.8497895E+02  0.7546771E-02  0.1315488E+00
          2   -1    0    0  502    0 -0.00000000000E+00  0.00000000000E+00  0.81342996170E+03  0.81342996170E+03  0.00000000000E+00 0. -1.
         21   -1    0    0  501  502  0.00000000000E+00 -0.00000000000E+00 -0.57716721247E+01  0.57716721247E+01  0.00000000000E+00 0.  1.
         24    2    1    2    0    0 -0.21306730020E+02  0.32056103249E+02  0.69442017196E+03  0.69960045581E+03  0.75761811326E+02 0.  0.
        -13    1    3    3    0    0 -0.41386345887E+02  0.22336857165E+02  0.23613880068E+03  0.24077644819E+03  0.00000000000E+00 0.  1.
         14    1    3    3    0    0  0.20079615867E+02  0.97192460839E+01  0.45828137127E+03  0.45882400763E+03  0.00000000000E+00 0. -1.
          1    1    1    2  501    0  0.21306730020E+02 -0.32056103249E+02  0.11323811762E+03  0.11960117801E+03  0.00000000000E+00 0. -1.
<mgrwt>
<rscale>  1 0.84978954E+02</rscale>
<asrwt>0</asrwt>
<pdfrwt beam="1">  1       21 0.88795020E-03 0.84978954E+02</pdfrwt>
<pdfrwt beam="2">  1        2 0.12514298E+00 0.84978954E+02</pdfrwt>
<totfact> 0.18571628E+06</totfact>
</mgrwt>
</event>
<event>
 6    2  0.7993170E+000  0.8814386E+02  0.7546771E-02  0.1307410E+00
         21   -1    0    0  501  502  0.00000000000E+00  0.00000000000E+00  0.22536714048E+04  0.22536714048E+04  0.00000000000E+00 0. -1.
          2   -1    0    0  502    0 -0.00000000000E+00 -0.00000000000E+00 -0.33080879320E+02  0.33080879320E+02  0.00000000000E+00 0. -1.
         24    2    1    2    0    0 -0.20648158326E+02  0.34755821210E+02  0.26152334228E+02  0.91941748157E+02  0.78326412648E+02 0.  0.
        -11    1    3    3    0    0  0.17422439037E+02  0.45377434370E+02  0.15184042082E+02  0.50923551191E+02  0.00000000000E+00 0.  1.
         12    1    3    3    0    0 -0.38070597363E+02 -0.10621613160E+02  0.10968292145E+02  0.41018196965E+02  0.00000000000E+00 0. -1.
          1    1    1    2  501    0  0.20648158326E+02 -0.34755821210E+02  0.21944381913E+04  0.21948105360E+04  0.00000000000E+00 0. -1.
<mgrwt>
<rscale>  1 0.88143862E+02</rscale>
<asrwt>0</asrwt>
<pdfrwt beam="1">  1       21 0.34671856E+00 0.88143862E+02</pdfrwt>
<pdfrwt beam="2">  1        2 0.50893678E-02 0.88143862E+02</pdfrwt>
<totfact> 0.39712893E+02</totfact>
</mgrwt>
</event>
<event>
 6    2  0.7993170E+000  0.8336179E+02  0.7546771E-02  0.1319773E+00
          2   -1    0    0  502    0 -0.00000000000E+00  0.00000000000E+00  0.59989354342E+03  0.59989354342E+03  0.00000000000E+00 0. -1.
         21   -1    0    0  501  502  0.00000000000E+00 -0.00000000000E+00 -0.51845827477E+01  0.51845827477E+01  0.00000000000E+00 0.  1.
         24    2    1    2    0    0  0.21749013975E+02 -0.14290576493E+02  0.39652641698E+03  0.40519425786E+03  0.79195625221E+02 0.  0.
        -13    1    3    3    0    0  0.20424846575E+01 -0.40568762121E+02  0.11923495872E+03  0.12596416786E+03  0.00000000000E+00 0.  1.
         14    1    3    3    0    0  0.19706529317E+02  0.26278185628E+02  0.27729145825E+03  0.27923008999E+03  0.00000000000E+00 0. -1.
          1    1    1    2  501    0 -0.21749013975E+02  0.14290576493E+02  0.19818254369E+03  0.19988386831E+03  0.00000000000E+00 0. -1.
<mgrwt>
<rscale>  1 0.83361785E+02</rscale>
<asrwt>0</asrwt>
<pdfrwt beam="1">  1       21 0.79762859E-03 0.83361785E+02</pdfrwt>
<pdfrwt beam="2">  1        2 0.92291259E-01 0.83361785E+02</pdfrwt>
<totfact> 0.31204885E+06</totfact>
</mgrwt>
</event>
<event>
 6    2  0.7993170E+000  0.1137344E+03  0.7546771E-02  0.1253807E+00
          2   -1    0    0  502    0 -0.00000000000E+00  0.00000000000E+00  0.13876271267E+04  0.13876271267E+04  0.00000000000E+00 0. -1.
         21   -1    0    0  501  502  0.00000000000E+00 -0.00000000000E+00 -0.22397502912E+02  0.22397502912E+02  0.00000000000E+00 0. -1.
         24    2    1    2    0    0  0.24096684181E+01 -0.81418468375E+02  0.13018725896E+04  0.13068311837E+04  0.79377135704E+02 0.  0.
        -11    1    3    3    0    0 -0.57502261929E+01 -0.43926794665E+02  0.22748146915E+03  0.23175514492E+03  0.00000000000E+00 0.  1.
         12    1    3    3    0    0  0.81598946110E+01 -0.37491673709E+02  0.10743911204E+04  0.10750760388E+04  0.00000000000E+00 0. -1.
          1    1    1    2  501    0 -0.24096684181E+01  0.81418468375E+02  0.63357034168E+02  0.10319344588E+03  0.00000000000E+00 0. -1.
<mgrwt>
<rscale>  1 0.11373435E+03</rscale>
<asrwt>0</asrwt>
<pdfrwt beam="1">  1       21 0.34457708E-02 0.11373435E+03</pdfrwt>
<pdfrwt beam="2">  1        2 0.21348103E+00 0.11373435E+03</pdfrwt>
<totfact> 0.10151864E+05</totfact>
</mgrwt>
</event>
<event>
 6    2  0.7993170E+000  0.9162279E+02  0.7546771E-02  0.1298969E+00
         21   -1    0    0  501  502  0.00000000000E+00  0.00000000000E+00  0.23146199311E+02  0.23146199311E+02  0.00000000000E+00 0. -1.
          2   -1    0    0  502    0 -0.00000000000E+00 -0.00000000000E+00 -0.46311068096E+03  0.46311068096E+03  0.00000000000E+00 0. -1.
         24    2    1    2    0    0 -0.22649384655E+02  0.75999695125E+01 -0.45080524969E+03  0.46002185762E+03  0.88453276832E+02 0.  0.
        -11    1    3    3    0    0 -0.11660870173E+02  0.37962280966E+02 -0.97981061566E+02  0.10572321928E+03  0.00000000000E+00 0.  1.
         12    1    3    3    0    0 -0.10988514482E+02 -0.30362311454E+02 -0.35282418812E+03  0.35429863834E+03  0.00000000000E+00 0. -1.
          1    1    1    2  501    0  0.22649384655E+02 -0.75999695125E+01  0.10840768037E+02  0.26235022651E+02  0.00000000000E+00 0. -1.
<mgrwt>
<rscale>  1 0.91622794E+02</rscale>
<asrwt>0</asrwt>
<pdfrwt beam="1">  1       21 0.35609538E-02 0.91622794E+02</pdfrwt>
<pdfrwt beam="2">  1        2 0.71247797E-01 0.91622794E+02</pdfrwt>
<totfact> 0.38672962E+05</totfact>
</mgrwt>
</event>
<event>
 6    2  0.7993170E+000  0.8177949E+02  0.7546771E-02  0.1324076E+00
         21   -1    0    0  501  502  0.00000000000E+00  0.00000000000E+00  0.49168561119E+02  0.49168561119E+02  0.00000000000E+00 0. -1.
          2   -1    0    0  502    0 -0.00000000000E+00 -0.00000000000E+00 -0.25563185830E+03  0.25563185830E+03  0.00000000000E+00 0. -1.
         24    2    1    2    0    0 -0.11661697351E+02 -0.17340847415E+02 -0.24645992074E+03  0.25967359734E+03  0.79064432272E+02 0.  0.
        -11    1    3    3    0    0  0.81474594147E+01  0.29591877857E+02 -0.85296240307E+02  0.90650476781E+02  0.00000000000E+00 0.  1.
         12    1    3    3    0    0 -0.19809156766E+02 -0.46932725272E+02 -0.16116368043E+03  0.16902312056E+03  0.00000000000E+00 0. -1.
          1    1    1    2  501    0  0.11661697351E+02  0.17340847415E+02  0.39996623562E+02  0.45126822075E+02  0.00000000000E+00 0. -1.
<mgrwt>
<rscale>  1 0.81779488E+02</rscale>
<asrwt>0</asrwt>
<pdfrwt beam="1">  1       21 0.75643939E-02 0.81779488E+02</pdfrwt>
<pdfrwt beam="2">  1        2 0.39327979E-01 0.81779488E+02</pdfrwt>
<totfact> 0.20381337E+05</totfact>
</mgrwt>
</event>
<event>
 6    2  0.7993170E+000  0.1345968E+03  0.7546771E-02  0.1220790E+00
         21   -1    0    0  501  502  0.00000000000E+00  0.00000000000E+00  0.60825232952E+02  0.60825232952E+02  0.00000000000E+00 0. -1.
          2   -1    0    0  502    0 -0.00000000000E+00 -0.00000000000E+00 -0.24676791843E+03  0.24676791843E+03  0.00000000000E+00 0. -1.
         24    2    1    2    0    0  0.10775803453E+03  0.10904806364E+02 -0.12294503155E+03  0.18229585210E+03  0.79909874883E+02 0.  0.
        -11    1    3    3    0    0  0.88302401449E+02  0.17734031186E+01 -0.13212454218E+03  0.15892562319E+03  0.00000000000E+00 0.  1.
         12    1    3    3    0    0  0.19455633078E+02  0.91314032451E+01  0.91795106350E+01  0.23370228908E+02  0.00000000000E+00 0. -1.
          1    1    1    2  501    0 -0.10775803453E+03 -0.10904806364E+02 -0.62997653933E+02  0.12529729928E+03  0.00000000000E+00 0. -1.
<mgrwt>
<rscale>  1 0.13459679E+03</rscale>
<asrwt>0</asrwt>
<pdfrwt beam="1">  1       21 0.93577280E-02 0.13459679E+03</pdfrwt>
<pdfrwt beam="2">  1        2 0.37964296E-01 0.13459679E+03</pdfrwt>
<totfact> 0.15068014E+05</totfact>
</mgrwt>
</event>
<event>
 6    2  0.7993170E+000  0.8247149E+02  0.7546771E-02  0.1322180E+00
         21   -1    0    0  501  502  0.00000000000E+00  0.00000000000E+00  0.28562074391E+01  0.28562074391E+01  0.00000000000E+00 0. -1.
         -1   -1    0    0    0  501 -0.00000000000E+00 -0.00000000000E+00 -0.10243957085E+04  0.10243957085E+04  0.00000000000E+00 0.  1.
         24    2    1    2    0    0 -0.11732793938E+02 -0.19573970287E+02 -0.68648856745E+03  0.69142468821E+03  0.79251166990E+02 0.  0.
        -11    1    3    3    0    0 -0.98452711604E+01  0.29891279097E+02 -0.33360044000E+03  0.33508158932E+03  0.00000000000E+00 0.  1.
         12    1    3    3    0    0 -0.18875227779E+01 -0.49465249384E+02 -0.35288812744E+03  0.35634309889E+03  0.00000000000E+00 0. -1.
         -2    1    1    2    0  502  0.11732793938E+02  0.19573970287E+02 -0.33505093362E+03  0.33582722773E+03  0.00000000000E+00 0.  1.
<mgrwt>
<rscale>  1 0.82471487E+02</rscale>
<asrwt>0</asrwt>
<pdfrwt beam="1">  1       21 0.43941595E-03 0.82471487E+02</pdfrwt>
<pdfrwt beam="2">  1       -1 0.15759955E+00 0.82471487E+02</pdfrwt>
<totfact> 0.40083199E+05</totfact>
</mgrwt>
</event>
<event>
 6    2  0.7993170E+000  0.8226977E+02  0.7546771E-02  0.1322731E+00
          2   -1    0    0  502    0 -0.00000000000E+00  0.00000000000E+00  0.88988780987E+03  0.88988780987E+03  0.00000000000E+00 0. -1.
         21   -1    0    0  501  502  0.00000000000E+00 -0.00000000000E+00 -0.30434736270E+01  0.30434736270E+01  0.00000000000E+00 0.  1.
         24    2    1    2    0    0 -0.17679159501E+02 -0.12694420412E+02  0.68990145719E+03  0.69478941866E+03  0.79338607643E+02 0.  0.
        -11    1    3    3    0    0 -0.23810855721E+01 -0.40563147722E+02  0.21374881011E+03  0.21757663556E+03  0.00000000000E+00 0.  1.
         12    1    3    3    0    0 -0.15298073929E+02  0.27868727310E+02  0.47615264708E+03  0.47721278310E+03  0.00000000000E+00 0. -1.
          1    1    1    2  501    0  0.17679159501E+02  0.12694420412E+02  0.19694287906E+03  0.19814186484E+03  0.00000000000E+00 0. -1.
<mgrwt>
<rscale>  1 0.82269774E+02</rscale>
<asrwt>0</asrwt>
<pdfrwt beam="1">  1       21 0.46822742E-03 0.82269774E+02</pdfrwt>
<pdfrwt beam="2">  1        2 0.13690561E+00 0.82269774E+02</pdfrwt>
<totfact> 0.44332229E+06</totfact>
</mgrwt>
</event>
<event>
 6    2  0.7993170E+000  0.1112084E+03  0.7546771E-02  0.1258348E+00
          2   -1    0    0  502    0 -0.00000000000E+00  0.00000000000E+00  0.24341892265E+03  0.24341892265E+03  0.00000000000E+00 0. -1.
         21   -1    0    0  501  502  0.00000000000E+00 -0.00000000000E+00 -0.81268147191E+02  0.81268147191E+02  0.00000000000E+00 0. -1.
         24    2    1    2    0    0  0.44849516786E+02  0.62123872209E+02  0.20766458529E+03  0.23556714199E+03  0.80600519520E+02 0.  0.
        -13    1    3    3    0    0  0.17319024021E+02  0.77052835503E+02  0.13433650633E+03  0.15583127088E+03  0.00000000000E+00 0.  1.
         14    1    3    3    0    0  0.27530492765E+02 -0.14928963294E+02  0.73328078964E+02  0.79735871109E+02  0.00000000000E+00 0. -1.
          1    1    1    2  501    0 -0.44849516786E+02 -0.62123872209E+02 -0.45513809834E+02  0.89119927849E+02  0.00000000000E+00 0. -1.
<mgrwt>
<rscale>  1 0.11120836E+03</rscale>
<asrwt>0</asrwt>
<pdfrwt beam="1">  1       21 0.12502792E-01 0.11120836E+03</pdfrwt>
<pdfrwt beam="2">  1        2 0.37449065E-01 0.11120836E+03</pdfrwt>
<totfact> 0.91237627E+04</totfact>
</mgrwt>
</event>
<event>
 6    2  0.7993170E+000  0.8597585E+02  0.7546771E-02  0.1312900E+00
         21   -1    0    0  501  502  0.00000000000E+00  0.00000000000E+00  0.76789202856E+02  0.76789202856E+02  0.00000000000E+00 0. -1.
          2   -1    0    0  502    0 -0.00000000000E+00 -0.00000000000E+00 -0.14683743634E+03  0.14683743634E+03  0.00000000000E+00 0. -1.
         24    2    1    2    0    0 -0.13132505410E+02  0.20859861045E+02 -0.13167205806E+03  0.15725577016E+03  0.82366557980E+02 0.  0.
        -13    1    3    3    0    0  0.26525538645E+02 -0.26916040942E-01 -0.11341699249E+02  0.28848553980E+02  0.00000000000E+00 0.  1.
         14    1    3    3    0    0 -0.39658044055E+02  0.20886777086E+02 -0.12033035881E+03  0.12840721618E+03  0.00000000000E+00 0. -1.
          1    1    1    2  501    0  0.13132505410E+02 -0.20859861045E+02  0.61623824577E+02  0.66370869037E+02  0.00000000000E+00 0. -1.
<mgrwt>
<rscale>  1 0.85975848E+02</rscale>
<asrwt>0</asrwt>
<pdfrwt beam="1">  1       21 0.11813724E-01 0.85975848E+02</pdfrwt>
<pdfrwt beam="2">  1        2 0.22590375E-01 0.85975848E+02</pdfrwt>
<totfact> 0.17157478E+05</totfact>
</mgrwt>
</event>
<event>
 6    2  0.7993170E+000  0.1397665E+03  0.7546771E-02  0.1213644E+00
         21   -1    0    0  501  502  0.00000000000E+00  0.00000000000E+00  0.80749734781E+01  0.80749734781E+01  0.00000000000E+00 0. -1.
          2   -1    0    0  502    0 -0.00000000000E+00 -0.00000000000E+00 -0.20772121661E+04  0.20772121661E+04  0.00000000000E+00 0. -1.
         24    2    1    2    0    0  0.11164998785E+03 -0.22937487367E+02 -0.13437910562E+04  0.13510399974E+04  0.80887723745E+02 0.  0.
        -13    1    3    3    0    0 -0.79136544456E+01 -0.93743438654E+01 -0.31448980623E+03  0.31472899846E+03  0.00000000000E+00 0.  1.
         14    1    3    3    0    0  0.11956364229E+03 -0.13563143502E+02 -0.10293012499E+04  0.10363109990E+04  0.00000000000E+00 0. -1.
          1    1    1    2  501    0 -0.11164998785E+03  0.22937487367E+02 -0.72534613647E+03  0.73424714218E+03  0.00000000000E+00 0. -1.
<mgrwt>
<rscale>  1 0.13976649E+03</rscale>
<asrwt>0</asrwt>
<pdfrwt beam="1">  1       21 0.12423032E-02 0.13976649E+03</pdfrwt>
<pdfrwt beam="2">  1        2 0.31957121E+00 0.13976649E+03</pdfrwt>
<totfact> 0.23369449E+05</totfact>
</mgrwt>
</event>
<event>
 6    2  0.7993170E+000  0.1262088E+03  0.7546771E-02  0.1233192E+00
         21   -1    0    0  501  502  0.00000000000E+00  0.00000000000E+00  0.15914725973E+03  0.15914725973E+03  0.00000000000E+00 0.  1.
         -3   -1    0    0    0  501 -0.00000000000E+00 -0.00000000000E+00 -0.10281385161E+03  0.10281385161E+03  0.00000000000E+00 0.  1.
         24    2    1    2    0    0  0.25828539820E+02 -0.85417768771E+02 -0.38296723842E+02  0.13189124332E+03  0.89248822488E+02 0.  0.
        -13    1    3    3    0    0  0.10008441878E+02 -0.18539726806E+02 -0.56915639445E+02  0.60690035363E+02  0.00000000000E+00 0.  1.
         14    1    3    3    0    0  0.15820097941E+02 -0.66878041964E+02  0.18618915603E+02  0.71201207954E+02  0.00000000000E+00 0. -1.
         -4    1    1    2    0  502 -0.25828539820E+02  0.85417768771E+02  0.94630131964E+02  0.13006986802E+03  0.00000000000E+00 0.  1.
<mgrwt>
<rscale>  1 0.12620880E+03</rscale>
<asrwt>0</asrwt>
<pdfrwt beam="1">  1       21 0.24484194E-01 0.12620880E+03</pdfrwt>
<pdfrwt beam="2">  1       -3 0.15817516E-01 0.12620880E+03</pdfrwt>
<totfact> 0.25556970E+04</totfact>
</mgrwt>
</event>
<event>
 6    2  0.7993170E+000  0.8043027E+02  0.7546771E-02  0.1327835E+00
          2   -1    0    0  502    0 -0.00000000000E+00  0.00000000000E+00  0.18980817129E+03  0.18980817129E+03  0.00000000000E+00 0. -1.
         21   -1    0    0  501  502  0.00000000000E+00 -0.00000000000E+00 -0.16785315664E+02  0.16785315664E+02  0.00000000000E+00 0. -1.
         24    2    1    2    0    0  0.14313064943E+02 -0.20003830461E+02  0.93401505092E+02  0.12325936116E+03  0.76576836566E+02 0.  0.
        -11    1    3    3    0    0  0.27318700465E+02  0.21462082821E+02  0.56112093818E+02  0.65996207973E+02  0.00000000000E+00 0.  1.
         12    1    3    3    0    0 -0.13005635522E+02 -0.41465913282E+02  0.37289411274E+02  0.57263153186E+02  0.00000000000E+00 0. -1.
          1    1    1    2  501    0 -0.14313064943E+02  0.20003830461E+02  0.79621350531E+02  0.83334125792E+02  0.00000000000E+00 0. -1.
<mgrwt>
<rscale>  1 0.80430274E+02</rscale>
<asrwt>0</asrwt>
<pdfrwt beam="1">  1       21 0.25823564E-02 0.80430274E+02</pdfrwt>
<pdfrwt beam="2">  1        2 0.29201256E-01 0.80430274E+02</pdfrwt>
<totfact> 0.16431317E+06</totfact>
</mgrwt>
</event>
<event>
 6    2  0.7993170E+000  0.8862983E+02  0.7546771E-02  0.1306204E+00
         21   -1    0    0  501  502  0.00000000000E+00  0.00000000000E+00  0.51536452644E+01  0.51536452644E+01  0.00000000000E+00 0. -1.
          2   -1    0    0  502    0 -0.00000000000E+00 -0.00000000000E+00 -0.11113285679E+04  0.11113285679E+04  0.00000000000E+00 0. -1.
         24    2    1    2    0    0  0.12220677427E+02 -0.35686071608E+02 -0.99783700443E+03  0.10017654089E+04  0.80202283979E+02 0.  0.
        -13    1    3    3    0    0  0.31893939563E+02  0.13922258901E+02 -0.34496376978E+03  0.34671465954E+03  0.00000000000E+00 0.  1.
         14    1    3    3    0    0 -0.19673262136E+02 -0.49608330509E+02 -0.65287323465E+03  0.65505074935E+03  0.00000000000E+00 0. -1.
          1    1    1    2  501    0 -0.12220677427E+02  0.35686071608E+02 -0.10833791817E+03  0.11471680425E+03  0.00000000000E+00 0. -1.
<mgrwt>
<rscale>  1 0.88629831E+02</rscale>
<asrwt>0</asrwt>
<pdfrwt beam="1">  1       21 0.79286779E-03 0.88629831E+02</pdfrwt>
<pdfrwt beam="2">  1        2 0.17097378E+00 0.88629831E+02</pdfrwt>
<totfact> 0.14735369E+06</totfact>
</mgrwt>
</event>
<event>
 6    2  0.7993170E+000  0.8635387E+02  0.7546771E-02  0.1311930E+00
         21   -1    0    0  501  502  0.00000000000E+00  0.00000000000E+00  0.56801750804E+02  0.56801750804E+02  0.00000000000E+00 0.  1.
          2   -1    0    0  502    0 -0.00000000000E+00 -0.00000000000E+00 -0.60763563648E+02  0.60763563648E+02  0.00000000000E+00 0. -1.
         24    2    1    2    0    0 -0.19236138949E+02  0.24013410466E+02  0.12281736075E+01  0.86362608107E+02  0.80686546243E+02 0.  0.
        -11    1    3    3    0    0 -0.30924224025E+02  0.26323235928E+02  0.33065315795E+02  0.52369222735E+02  0.00000000000E+00 0.  1.
         12    1    3    3    0    0  0.11688085076E+02 -0.23098254612E+01 -0.31837142187E+02  0.33993385372E+02  0.00000000000E+00 0. -1.
          1    1    1    2  501    0  0.19236138949E+02 -0.24013410466E+02 -0.51899864512E+01  0.31202706345E+02  0.00000000000E+00 0. -1.
<mgrwt>
<rscale>  1 0.86353875E+02</rscale>
<asrwt>0</asrwt>
<pdfrwt beam="1">  1       21 0.87387309E-02 0.86353875E+02</pdfrwt>
<pdfrwt beam="2">  1        2 0.93482406E-02 0.86353875E+02</pdfrwt>
<totfact> 0.80449642E+05</totfact>
</mgrwt>
</event>
<event>
 6    2  0.7993170E+000  0.8595565E+02  0.7546771E-02  0.1312952E+00
         21   -1    0    0  501  502  0.00000000000E+00  0.00000000000E+00  0.67881030705E+01  0.67881030705E+01  0.00000000000E+00 0. -1.
          2   -1    0    0  502    0 -0.00000000000E+00 -0.00000000000E+00 -0.21840134087E+04  0.21840134087E+04  0.00000000000E+00 0. -1.
         24    2    1    2    0    0 -0.29718740690E+02  0.10761937538E+02 -0.21410033426E+04  0.21427280944E+04  0.79933415466E+02 0.  0.
        -11    1    3    3    0    0  0.20609688943E+02 -0.16277478890E+02 -0.93976167081E+03  0.94012856223E+03  0.00000000000E+00 0.  1.
         12    1    3    3    0    0 -0.50328429633E+02  0.27039416428E+02 -0.12012416718E+04  0.12025995322E+04  0.00000000000E+00 0. -1.
          1    1    1    2  501    0  0.29718740690E+02 -0.10761937538E+02 -0.36221963087E+02  0.48073417370E+02  0.00000000000E+00 0. -1.
<mgrwt>
<rscale>  1 0.85955650E+02</rscale>
<asrwt>0</asrwt>
<pdfrwt beam="1">  1       21 0.10443229E-02 0.85955650E+02</pdfrwt>
<pdfrwt beam="2">  1        2 0.33600226E+00 0.85955650E+02</pdfrwt>
<totfact> 0.27015296E+05</totfact>
</mgrwt>
</event>
<event>
 6    2  0.7993170E+000  0.9011625E+02  0.7546771E-02  0.1302570E+00
          2   -1    0    0  502    0 -0.00000000000E+00  0.00000000000E+00  0.16312176622E+04  0.16312176622E+04  0.00000000000E+00 0. -1.
         21   -1    0    0  501  502  0.00000000000E+00 -0.00000000000E+00 -0.33172389424E+01  0.33172389424E+01  0.00000000000E+00 0. -1.
         24    2    1    2    0    0 -0.28394355316E+02 -0.28429034354E+02  0.14156117783E+04  0.14184772279E+04  0.80662814682E+02 0.  0.
        -11    1    3    3    0    0  0.17917600841E+02  0.11294268691E+02  0.16161262562E+03  0.16299460631E+03  0.00000000000E+00 0.  1.
         12    1    3    3    0    0 -0.46311956156E+02 -0.39723303044E+02  0.12539991527E+04  0.12554826216E+04  0.00000000000E+00 0. -1.
          1    1    1    2  501    0  0.28394355316E+02  0.28429034354E+02  0.21228864489E+03  0.21605767322E+03  0.00000000000E+00 0. -1.
<mgrwt>
<rscale>  1 0.90116253E+02</rscale>
<asrwt>0</asrwt>
<pdfrwt beam="1">  1       21 0.51034576E-03 0.90116253E+02</pdfrwt>
<pdfrwt beam="2">  1        2 0.25095592E+00 0.90116253E+02</pdfrwt>
<totfact> 0.15538468E+06</totfact>
</mgrwt>
</event>
<event>
 6    2  0.7993170E+000  0.9473474E+02  0.7546771E-02  0.1291775E+00
         -3   -1    0    0    0  501 -0.00000000000E+00  0.00000000000E+00  0.23178288019E+03  0.23178288019E+03  0.00000000000E+00 0.  1.
         21   -1    0    0  501  502  0.00000000000E+00 -0.00000000000E+00 -0.28006710758E+02  0.28006710758E+02  0.00000000000E+00 0. -1.
         24    2    1    2    0    0 -0.39560751782E+02 -0.38354456195E+02  0.78865853402E+02  0.12326595035E+03  0.77062015878E+02 0.  0.
        -11    1    3    3    0    0 -0.30069376036E+02 -0.24076214616E+02  0.93245602148E+02  0.10088891815E+03  0.00000000000E+00 0.  1.
         12    1    3    3    0    0 -0.94913757467E+01 -0.14278241579E+02 -0.14379748745E+02  0.22377032201E+02  0.00000000000E+00 0. -1.
         -4    1    1    2    0  502  0.39560751782E+02  0.38354456195E+02  0.12491031603E+03  0.13652364060E+03  0.00000000000E+00 0.  1.
<mgrwt>
<rscale>  1 0.94734744E+02</rscale>
<asrwt>0</asrwt>
<pdfrwt beam="1">  1       21 0.43087249E-02 0.94734744E+02</pdfrwt>
<pdfrwt beam="2">  1       -3 0.35658903E-01 0.94734744E+02</pdfrwt>
<totfact> 0.12147084E+05</totfact>
</mgrwt>
</event>
<event>
 6    2  0.7993170E+000  0.9452340E+02  0.7546771E-02  0.1292253E+00
         21   -1    0    0  501  502  0.00000000000E+00  0.00000000000E+00  0.88918666882E+02  0.88918666882E+02  0.00000000000E+00 0. -1.
         -3   -1    0    0    0  501 -0.00000000000E+00 -0.00000000000E+00 -0.55948784735E+02  0.55948784735E+02  0.00000000000E+00 0.  1.
         24    2    1    2    0    0 -0.45646017667E+02  0.40013408892E+01  0.29013211133E+02  0.98875877353E+02  0.82674682004E+02 0.  0.
        -11    1    3    3    0    0  0.17989345794E+02 -0.18110953560E+02  0.16389918747E+02  0.30335666096E+02  0.00000000000E+00 0.  1.
         12    1    3    3    0    0 -0.63635363461E+02  0.22112294449E+02  0.12623292386E+02  0.68540211258E+02  0.00000000000E+00 0. -1.
         -4    1    1    2    0  502  0.45646017667E+02 -0.40013408892E+01  0.39566710136E+01  0.45991574264E+02  0.00000000000E+00 0.  1.
<mgrwt>
<rscale>  1 0.94523398E+02</rscale>
<asrwt>0</asrwt>
<pdfrwt beam="1">  1       21 0.13679795E-01 0.94523398E+02</pdfrwt>
<pdfrwt beam="2">  1       -3 0.86075053E-02 0.94523398E+02</pdfrwt>
<totfact> 0.19748574E+05</totfact>
</mgrwt>
</event>
<event>
 6    2  0.7993170E+000  0.9751351E+02  0.7546771E-02  0.1285613E+00
         21   -1    0    0  501  502  0.00000000000E+00  0.00000000000E+00  0.79843736344E+01  0.79843736344E+01  0.00000000000E+00 0.  1.
         -1   -1    0    0    0  501 -0.00000000000E+00 -0.00000000000E+00 -0.11527658623E+04  0.11527658623E+04  0.00000000000E+00 0.  1.
         24    2    1    2    0    0 -0.36969894079E+02 -0.41601900765E+02 -0.33092778112E+03  0.34499577012E+03  0.80071179997E+02 0.  0.
        -13    1    3    3    0    0 -0.33982898541E+02 -0.56485751982E+02 -0.31886037181E+03  0.32560315459E+03  0.00000000000E+00 0.  1.
         14    1    3    3    0    0 -0.29869955383E+01  0.14883851217E+02 -0.12067409310E+02  0.19392615524E+02  0.00000000000E+00 0. -1.
         -2    1    1    2    0  502  0.36969894079E+02  0.41601900765E+02 -0.81385370756E+03  0.81575446584E+03  0.00000000000E+00 0.  1.
<mgrwt>
<rscale>  1 0.97513512E+02</rscale>
<asrwt>0</asrwt>
<pdfrwt beam="1">  1       21 0.12283660E-02 0.97513512E+02</pdfrwt>
<pdfrwt beam="2">  1       -1 0.17734848E+00 0.97513512E+02</pdfrwt>
<totfact> 0.59963445E+04</totfact>
</mgrwt>
</event>
<event>
 6    2  0.7993170E+000  0.9514604E+02  0.7546771E-02  0.1290848E+00
         21   -1    0    0  501  502  0.00000000000E+00  0.00000000000E+00  0.69876031392E+01  0.69876031392E+01  0.00000000000E+00 0. -1.
         -3   -1    0    0    0  501 -0.00000000000E+00 -0.00000000000E+00 -0.74884571984E+03  0.74884571984E+03  0.00000000000E+00 0.  1.
         24    2    1    2    0    0  0.15102132930E+02  0.42444307455E+02 -0.40787766073E+03  0.41882807284E+03  0.83804384239E+02 0.  0.
        -11    1    3    3    0    0 -0.17396382626E+02 -0.11046956753E+02 -0.21643120813E+03  0.21741006700E+03  0.00000000000E+00 0.  1.
         12    1    3    3    0    0  0.32498515556E+02  0.53491264208E+02 -0.19144645260E+03  0.20141800583E+03  0.00000000000E+00 0. -1.
         -4    1    1    2    0  502 -0.15102132930E+02 -0.42444307455E+02 -0.33398045597E+03  0.33700525014E+03  0.00000000000E+00 0.  1.
<mgrwt>
<rscale>  1 0.95146038E+02</rscale>
<asrwt>0</asrwt>
<pdfrwt beam="1">  1       21 0.10750156E-02 0.95146038E+02</pdfrwt>
<pdfrwt beam="2">  1       -3 0.11520707E+00 0.95146038E+02</pdfrwt>
<totfact> 0.99175938E+04</totfact>
</mgrwt>
</event>
<event>
 6    2  0.7993170E+000  0.8512947E+02  0.7546771E-02  0.1315094E+00
          2   -1    0    0  502    0 -0.00000000000E+00  0.00000000000E+00  0.49165458072E+03  0.49165458072E+03  0.00000000000E+00 0. -1.
         21   -1    0    0  501  502  0.00000000000E+00 -0.00000000000E+00 -0.16433778241E+02  0.16433778241E+02  0.00000000000E+00 0. -1.
         24    2    1    2    0    0 -0.10230696395E+02 -0.32043507539E+02  0.46529342632E+03  0.47301691300E+03  0.78202134776E+02 0.  0.
        -13    1    3    3    0    0 -0.44458595941E+02 -0.20636992042E+02  0.26117171989E+03  0.26573129184E+03  0.00000000000E+00 0.  1.
         14    1    3    3    0    0  0.34227899546E+02 -0.11406515497E+02  0.20412170643E+03  0.20728562116E+03  0.00000000000E+00 0. -1.
          1    1    1    2  501    0  0.10230696395E+02  0.32043507539E+02  0.99273761541E+01  0.35071445956E+02  0.00000000000E+00 0. -1.
<mgrwt>
<rscale>  1 0.85129474E+02</rscale>
<asrwt>0</asrwt>
<pdfrwt beam="1">  1       21 0.25282740E-02 0.85129474E+02</pdfrwt>
<pdfrwt beam="2">  1        2 0.75639155E-01 0.85129474E+02</pdfrwt>
<totfact> 0.62901679E+05</totfact>
</mgrwt>
</event>
<event>
 6    2  0.7993170E+000  0.9944880E+02  0.7546771E-02  0.1281459E+00
          2   -1    0    0  502    0 -0.00000000000E+00  0.00000000000E+00  0.15819903712E+04  0.15819903712E+04  0.00000000000E+00 0. -1.
         21   -1    0    0  501  502  0.00000000000E+00 -0.00000000000E+00 -0.40686829145E+01  0.40686829145E+01  0.00000000000E+00 0. -1.
         24    2    1    2    0    0  0.27322485393E+02  0.54394042887E+02  0.94660645347E+03  0.95181607558E+03  0.78643714770E+02 0.  0.
        -13    1    3    3    0    0 -0.23503865428E+02 -0.58169015601E+00  0.29102366316E+03  0.29197181812E+03  0.00000000000E+00 0.  1.
         14    1    3    3    0    0  0.50826350821E+02  0.54975733043E+02  0.65558279031E+03  0.65984425747E+03  0.00000000000E+00 0. -1.
          1    1    1    2  501    0 -0.27322485393E+02 -0.54394042887E+02  0.63131523485E+03  0.63424297857E+03  0.00000000000E+00 0. -1.
<mgrwt>
<rscale>  1 0.99448801E+02</rscale>
<asrwt>0</asrwt>
<pdfrwt beam="1">  1       21 0.62595248E-03 0.99448801E+02</pdfrwt>
<pdfrwt beam="2">  1        2 0.24338264E+00 0.99448801E+02</pdfrwt>
<totfact> 0.12095565E+06</totfact>
</mgrwt>
</event>
<event>
 6    2  0.7993170E+000  0.8392758E+02  0.7546771E-02  0.1318261E+00
         21   -1    0    0  501  502  0.00000000000E+00  0.00000000000E+00  0.52037763311E+01  0.52037763311E+01  0.00000000000E+00 0.  1.
          2   -1    0    0  502    0 -0.00000000000E+00 -0.00000000000E+00 -0.56729666807E+03  0.56729666807E+03  0.00000000000E+00 0. -1.
         24    2    1    2    0    0 -0.13342221193E+02 -0.19203327307E+02 -0.39825673138E+03  0.40700400913E+03  0.80604321927E+02 0.  0.
        -13    1    3    3    0    0 -0.58514170343E+01 -0.66093678415E+01 -0.35705640682E+00  0.88346088680E+01  0.00000000000E+00 0.  1.
         14    1    3    3    0    0 -0.74908041584E+01 -0.12593959465E+02 -0.39789967498E+03  0.39816940027E+03  0.00000000000E+00 0. -1.
          1    1    1    2  501    0  0.13342221193E+02  0.19203327307E+02 -0.16383616036E+03  0.16549643527E+03  0.00000000000E+00 0. -1.
<mgrwt>
<rscale>  1 0.83927584E+02</rscale>
<asrwt>0</asrwt>
<pdfrwt beam="1">  1       21 0.80058170E-03 0.83927584E+02</pdfrwt>
<pdfrwt beam="2">  1        2 0.87276331E-01 0.83927584E+02</pdfrwt>
<totfact> 0.33035483E+06</totfact>
</mgrwt>
</event>
<event>
 6    2  0.7993170E+000  0.8430310E+02  0.7546771E-02  0.1317265E+00
         21   -1    0    0  501  502  0.00000000000E+00  0.00000000000E+00  0.43617864524E+01  0.43617864524E+01  0.00000000000E+00 0. -1.
          2   -1    0    0  502    0 -0.00000000000E+00 -0.00000000000E+00 -0.73799745752E+03  0.73799745752E+03  0.00000000000E+00 0. -1.
         24    2    1    2    0    0 -0.25608209170E+02  0.10256989674E+02 -0.60112237088E+03  0.60700503849E+03  0.79661946817E+02 0.  0.
        -11    1    3    3    0    0  0.28289478359E+02 -0.13008079135E+01 -0.24699009752E+03  0.24860831635E+03  0.00000000000E+00 0.  1.
         12    1    3    3    0    0 -0.53897687530E+02  0.11557797588E+02 -0.35413227336E+03  0.35839672214E+03  0.00000000000E+00 0. -1.
          1    1    1    2  501    0  0.25608209170E+02 -0.10256989674E+02 -0.13251330019E+03  0.13535420549E+03  0.00000000000E+00 0. -1.
<mgrwt>
<rscale>  1 0.84303096E+02</rscale>
<asrwt>0</asrwt>
<pdfrwt beam="1">  1       21 0.67104453E-03 0.84303096E+02</pdfrwt>
<pdfrwt beam="2">  1        2 0.11353799E+00 0.84303096E+02</pdfrwt>
<totfact> 0.32187347E+06</totfact>
</mgrwt>
</event>
<event>
 6    2  0.7993170E+000  0.8185763E+02  0.7546771E-02  0.1323861E+00
         21   -1    0    0  501  502  0.00000000000E+00  0.00000000000E+00  0.47148661546E+02  0.47148661546E+02  0.00000000000E+00 0. -1.
         -1   -1    0    0    0  501 -0.00000000000E+00 -0.00000000000E+00 -0.61785869451E+02  0.61785869451E+02  0.00000000000E+00 0.  1.
         24    2    1    2    0    0 -0.41065322204E+01 -0.22545757192E+02 -0.22178419757E+02  0.84808929441E+02  0.78584333272E+02 0.  0.
        -13    1    3    3    0    0  0.49664548930E+01  0.27746264803E+02  0.20317486346E+01  0.28260376629E+02  0.00000000000E+00 0.  1.
         14    1    3    3    0    0 -0.90729871134E+01 -0.50292021995E+02 -0.24210168392E+02  0.56548552812E+02  0.00000000000E+00 0. -1.
         -2    1    1    2    0  502  0.41065322204E+01  0.22545757192E+02  0.75412118518E+01  0.24125601556E+02  0.00000000000E+00 0.  1.
<mgrwt>
<rscale>  1 0.81857634E+02</rscale>
<asrwt>0</asrwt>
<pdfrwt beam="1">  1       21 0.72536402E-02 0.81857634E+02</pdfrwt>
<pdfrwt beam="2">  1       -1 0.95055184E-02 0.81857634E+02</pdfrwt>
<totfact> 0.76532002E+05</totfact>
</mgrwt>
</event>
<event>
 6    2  0.7993170E+000  0.8791501E+02  0.7546771E-02  0.1307981E+00
         21   -1    0    0  501  502  0.00000000000E+00  0.00000000000E+00  0.63683185280E+01  0.63683185280E+01  0.00000000000E+00 0.  1.
         -1   -1    0    0    0  501 -0.00000000000E+00 -0.00000000000E+00 -0.55150745088E+03  0.55150745088E+03  0.00000000000E+00 0.  1.
         24    2    1    2    0    0 -0.13551108749E+02  0.26767702726E+02 -0.42971861652E+03  0.43861958327E+03  0.82637200979E+02 0.  0.
        -11    1    3    3    0    0 -0.44345268830E+02  0.32477153006E+02 -0.23109425765E+03  0.23754120538E+03  0.00000000000E+00 0.  1.
         12    1    3    3    0    0  0.30794160080E+02 -0.57094502810E+01 -0.19862435888E+03  0.20107837790E+03  0.00000000000E+00 0. -1.
         -2    1    1    2    0  502  0.13551108749E+02 -0.26767702726E+02 -0.11542051583E+03  0.11925618614E+03  0.00000000000E+00 0.  1.
<mgrwt>
<rscale>  1 0.87915013E+02</rscale>
<asrwt>0</asrwt>
<pdfrwt beam="1">  1       21 0.97974119E-03 0.87915013E+02</pdfrwt>
<pdfrwt beam="2">  1       -1 0.84847311E-01 0.87915013E+02</pdfrwt>
<totfact> 0.48873387E+05</totfact>
</mgrwt>
</event>
<event>
 6    2  0.7993170E+000  0.8478427E+02  0.7546771E-02  0.1315998E+00
         21   -1    0    0  501  502  0.00000000000E+00  0.00000000000E+00  0.16078971201E+03  0.16078971201E+03  0.00000000000E+00 0. -1.
          2   -1    0    0  502    0 -0.00000000000E+00 -0.00000000000E+00 -0.68216697495E+02  0.68216697495E+02  0.00000000000E+00 0. -1.
         24    2    1    2    0    0 -0.74317037426E+01  0.26783655525E+02 -0.39860877575E+02  0.93687045782E+02  0.80098555309E+02 0.  0.
        -11    1    3    3    0    0 -0.39350158636E+01  0.22042626580E+02  0.22091820062E+02  0.31454892307E+02  0.00000000000E+00 0.  1.
         12    1    3    3    0    0 -0.34966878790E+01  0.47410289456E+01 -0.61952697638E+02  0.62232153475E+02  0.00000000000E+00 0. -1.
          1    1    1    2  501    0  0.74317037426E+01 -0.26783655525E+02  0.13243389209E+03  0.13531936372E+03  0.00000000000E+00 0. -1.
<mgrwt>
<rscale>  1 0.84784273E+02</rscale>
<asrwt>0</asrwt>
<pdfrwt beam="1">  1       21 0.24736879E-01 0.84784273E+02</pdfrwt>
<pdfrwt beam="2">  1        2 0.10494877E-01 0.84784273E+02</pdfrwt>
<totfact> 0.10918858E+05</totfact>
</mgrwt>
</event>
<event>
 6    2  0.7993170E+000  0.8549099E+02  0.7546771E-02  0.1314154E+00
         21   -1    0    0  501  502  0.00000000000E+00  0.00000000000E+00  0.23024642942E+02  0.23024642942E+02  0.00000000000E+00 0.  1.
          2   -1    0    0  502    0 -0.00000000000E+00 -0.00000000000E+00 -0.25706256448E+03  0.25706256448E+03  0.00000000000E+00 0. -1.
         24    2    1    2    0    0  0.26485441836E+02 -0.14027352090E+02 -0.23503457346E+03  0.25009990093E+03  0.80065376325E+02 0.  0.
        -13    1    3    3    0    0  0.30490149719E+02  0.25497377894E+02 -0.16362800554E+03  0.16838613277E+03  0.00000000000E+00 0.  1.
         14    1    3    3    0    0 -0.40047078834E+01 -0.39524729984E+02 -0.71406567916E+02  0.81713768162E+02  0.00000000000E+00 0. -1.
          1    1    1    2  501    0 -0.26485441836E+02  0.14027352090E+02  0.99665192018E+00  0.29987306497E+02  0.00000000000E+00 0. -1.
<mgrwt>
<rscale>  1 0.85490992E+02</rscale>
<asrwt>0</asrwt>
<pdfrwt beam="1">  1       21 0.35422527E-02 0.85490992E+02</pdfrwt>
<pdfrwt beam="2">  1        2 0.39548087E-01 0.85490992E+02</pdfrwt>
<totfact> 0.71904681E+05</totfact>
</mgrwt>
</event>
<event>
 6    2  0.7993170E+000  0.9284534E+02  0.7546771E-02  0.1296104E+00
          2   -1    0    0  502    0 -0.00000000000E+00  0.00000000000E+00  0.64705317740E+03  0.64705317740E+03  0.00000000000E+00 0. -1.
         21   -1    0    0  501  502  0.00000000000E+00 -0.00000000000E+00 -0.75021337900E+01  0.75021337900E+01  0.00000000000E+00 0.  1.
         24    2    1    2    0    0 -0.16844559341E+02  0.41887869918E+02  0.38543791449E+03  0.39646266268E+03  0.81129058569E+02 0.  0.
        -11    1    3    3    0    0 -0.28426840269E+01  0.41610697893E+02  0.75870714572E+02  0.86578844767E+02  0.00000000000E+00 0.  1.
         12    1    3    3    0    0 -0.14001875314E+02  0.27717202519E+00  0.30956719992E+03  0.30988381791E+03  0.00000000000E+00 0. -1.
          1    1    1    2  501    0  0.16844559341E+02 -0.41887869918E+02  0.25411312912E+03  0.25809264851E+03  0.00000000000E+00 0. -1.
<mgrwt>
<rscale>  1 0.92845339E+02</rscale>
<asrwt>0</asrwt>
<pdfrwt beam="1">  1       21 0.11541749E-02 0.92845339E+02</pdfrwt>
<pdfrwt beam="2">  1        2 0.99546599E-01 0.92845339E+02</pdfrwt>
<totfact> 0.16296795E+06</totfact>
</mgrwt>
</event>
<event>
 6    2  0.7993170E+000  0.1043224E+03  0.7546771E-02  0.1271460E+00
         21   -1    0    0  501  502  0.00000000000E+00  0.00000000000E+00  0.92988225791E+02  0.92988225791E+02  0.00000000000E+00 0.  1.
         -1   -1    0    0    0  501 -0.00000000000E+00 -0.00000000000E+00 -0.13203805377E+03  0.13203805377E+03  0.00000000000E+00 0.  1.
         24    2    1    2    0    0  0.55480648548E+02 -0.41607124193E+02 -0.90954177552E+02  0.13840459260E+03  0.77935317354E+02 0.  0.
        -11    1    3    3    0    0  0.66169114818E+02 -0.18201827790E+02 -0.89296150207E+02  0.11262087166E+03  0.00000000000E+00 0.  1.
         12    1    3    3    0    0 -0.10688466271E+02 -0.23405296403E+02 -0.16580273452E+01  0.25783720942E+02  0.00000000000E+00 0. -1.
         -2    1    1    2    0  502 -0.55480648548E+02  0.41607124193E+02  0.51904349577E+02  0.86621686961E+02  0.00000000000E+00 0.  1.
<mgrwt>
<rscale>  1 0.10432243E+03</rscale>
<asrwt>0</asrwt>
<pdfrwt beam="1">  1       21 0.14305881E-01 0.10432243E+03</pdfrwt>
<pdfrwt beam="2">  1       -1 0.20313547E-01 0.10432243E+03</pdfrwt>
<totfact> 0.74348287E+04</totfact>
</mgrwt>
</event>
<event>
 6    2  0.7993170E+000  0.9235157E+02  0.7546771E-02  0.1297255E+00
         21   -1    0    0  501  502  0.00000000000E+00  0.00000000000E+00  0.43830961585E+03  0.43830961585E+03  0.00000000000E+00 0.  1.
          4   -1    0    0  502    0 -0.00000000000E+00 -0.00000000000E+00 -0.10871614234E+02  0.10871614234E+02  0.00000000000E+00 0. -1.
         24    2    1    2    0    0 -0.43493979252E+02 -0.73863146107E+01  0.31938814477E+03  0.33247195265E+03  0.81132782553E+02 0.  0.
        -11    1    3    3    0    0 -0.31145218287E+02  0.22025647071E+02  0.27597740467E+03  0.27860129511E+03  0.00000000000E+00 0.  1.
         12    1    3    3    0    0 -0.12348760965E+02 -0.29411961682E+02  0.43410740101E+02  0.53870657537E+02  0.00000000000E+00 0. -1.
          3    1    1    2  501    0  0.43493979252E+02  0.73863146107E+01  0.10804985684E+03  0.11670927743E+03  0.00000000000E+00 0. -1.
<mgrwt>
<rscale>  1 0.92351569E+02</rscale>
<asrwt>0</asrwt>
<pdfrwt beam="1">  1       21 0.67432235E-01 0.92351569E+02</pdfrwt>
<pdfrwt beam="2">  1        4 0.16725564E-02 0.92351569E+02</pdfrwt>
<totfact> 0.10425487E+05</totfact>
</mgrwt>
</event>
<event>
 6    2  0.7993170E+000  0.7810913E+02  0.7546771E-02  0.1334505E+00
          2   -1    0    0  502    0 -0.00000000000E+00  0.00000000000E+00  0.40835403058E+03  0.40835403058E+03  0.00000000000E+00 0. -1.
         21   -1    0    0  501  502  0.00000000000E+00 -0.00000000000E+00 -0.12128862621E+02  0.12128862621E+02  0.00000000000E+00 0. -1.
         24    2    1    2    0    0  0.15105916011E+02 -0.19774306244E+02  0.38558956151E+03  0.39342133355E+03  0.74039339975E+02 0.  0.
        -13    1    3    3    0    0  0.11187133078E+02  0.27074489158E+02  0.10915671487E+03  0.11301932715E+03  0.00000000000E+00 0.  1.
         14    1    3    3    0    0  0.39187829328E+01 -0.46848795402E+02  0.27643284664E+03  0.28040200640E+03  0.00000000000E+00 0. -1.
          1    1    1    2  501    0 -0.15105916011E+02  0.19774306244E+02  0.10635606448E+02  0.27061559647E+02  0.00000000000E+00 0. -1.
<mgrwt>
<rscale>  1 0.78109127E+02</rscale>
<asrwt>0</asrwt>
<pdfrwt beam="1">  1       21 0.18659792E-02 0.78109127E+02</pdfrwt>
<pdfrwt beam="2">  1        2 0.62823687E-01 0.78109127E+02</pdfrwt>
<totfact> 0.12349443E+06</totfact>
</mgrwt>
</event>
<event>
 6    2  0.7993170E+000  0.8391989E+02  0.7546771E-02  0.1318282E+00
         21   -1    0    0  501  502  0.00000000000E+00  0.00000000000E+00  0.84704638113E+02  0.84704638113E+02  0.00000000000E+00 0. -1.
          2   -1    0    0  502    0 -0.00000000000E+00 -0.00000000000E+00 -0.35846105428E+02  0.35846105428E+02  0.00000000000E+00 0. -1.
         24    2    1    2    0    0 -0.70662014272E+00 -0.22241043708E+02  0.24207120109E+02  0.87341475569E+02  0.80915915328E+02 0.  0.
        -11    1    3    3    0    0  0.18904700325E+02 -0.16797279030E+02  0.49074331782E+02  0.55207121978E+02  0.00000000000E+00 0.  1.
         12    1    3    3    0    0 -0.19611320468E+02 -0.54437646784E+01 -0.24867211673E+02  0.32134353592E+02  0.00000000000E+00 0. -1.
          1    1    1    2  501    0  0.70662014272E+00  0.22241043708E+02  0.24651412576E+02  0.33209267972E+02  0.00000000000E+00 0. -1.
<mgrwt>
<rscale>  1 0.83919894E+02</rscale>
<asrwt>0</asrwt>
<pdfrwt beam="1">  1       21 0.13031483E-01 0.83919894E+02</pdfrwt>
<pdfrwt beam="2">  1        2 0.55147854E-02 0.83919894E+02</pdfrwt>
<totfact> 0.77421429E+05</totfact>
</mgrwt>
</event>
<event>
 6    2  0.7993170E+000  0.8412575E+02  0.7546771E-02  0.1317735E+00
         -3   -1    0    0    0  501 -0.00000000000E+00  0.00000000000E+00  0.36699982682E+03  0.36699982682E+03  0.00000000000E+00 0.  1.
         21   -1    0    0  501  502  0.00000000000E+00 -0.00000000000E+00 -0.80082711868E+01  0.80082711868E+01  0.00000000000E+00 0. -1.
         24    2    1    2    0    0 -0.15311917835E+02  0.17487122579E+02  0.30091021401E+03  0.31244855414E+03  0.80851022293E+02 0.  0.
        -13    1    3    3    0    0  0.13482586225E+01  0.22072745170E+02  0.29231295743E+03  0.29314823718E+03  0.00000000000E+00 0.  1.
         14    1    3    3    0    0 -0.16660176457E+02 -0.45856225910E+01  0.85972565820E+01  0.19300316963E+02  0.00000000000E+00 0. -1.
         -4    1    1    2    0  502  0.15311917835E+02 -0.17487122579E+02  0.58081341626E+02  0.62559543868E+02  0.00000000000E+00 0.  1.
<mgrwt>
<rscale>  1 0.84125752E+02</rscale>
<asrwt>0</asrwt>
<pdfrwt beam="1">  1       21 0.12320420E-02 0.84125752E+02</pdfrwt>
<pdfrwt beam="2">  1       -3 0.56461499E-01 0.84125752E+02</pdfrwt>
<totfact> 0.36583999E+05</totfact>
</mgrwt>
</event>
<event>
 6    2  0.7993170E+000  0.9611603E+02  0.7546771E-02  0.1288682E+00
          4   -1    0    0  502    0 -0.00000000000E+00  0.00000000000E+00  0.36229339199E+03  0.36229339199E+03  0.00000000000E+00 0. -1.
         21   -1    0    0  501  502  0.00000000000E+00 -0.00000000000E+00 -0.12728048085E+02  0.12728048085E+02  0.00000000000E+00 0.  1.
         24    2    1    2    0    0 -0.10347436420E+02  0.23782780627E+02  0.18553661425E+03  0.20895484426E+03  0.92550535470E+02 0.  0.
        -13    1    3    3    0    0  0.60699671535E+01  0.53175632017E+02  0.67125663888E+02  0.85850725647E+02  0.00000000000E+00 0.  1.
         14    1    3    3    0    0 -0.16417403573E+02 -0.29392851390E+02  0.11841095037E+03  0.12310411861E+03  0.00000000000E+00 0. -1.
          3    1    1    2  501    0  0.10347436420E+02 -0.23782780627E+02  0.16402872965E+03  0.16606659582E+03  0.00000000000E+00 0. -1.
<mgrwt>
<rscale>  1 0.96116033E+02</rscale>
<asrwt>0</asrwt>
<pdfrwt beam="1">  1       21 0.19581615E-02 0.96116033E+02</pdfrwt>
<pdfrwt beam="2">  1        4 0.55737437E-01 0.96116033E+02</pdfrwt>
<totfact> 0.14913649E+05</totfact>
</mgrwt>
</event>
<event>
 6    2  0.7993170E+000  0.8272052E+02  0.7546771E-02  0.1321504E+00
          2   -1    0    0  502    0 -0.00000000000E+00  0.00000000000E+00  0.14171242766E+02  0.14171242766E+02  0.00000000000E+00 0. -1.
         21   -1    0    0  501  502  0.00000000000E+00 -0.00000000000E+00 -0.24410371877E+03  0.24410371877E+03  0.00000000000E+00 0.  1.
         24    2    1    2    0    0 -0.22224890068E+02  0.87036748058E+01 -0.11978929752E+03  0.14557527449E+03  0.79202178310E+02 0.  0.
        -11    1    3    3    0    0 -0.31469978627E+02  0.34894588561E+02 -0.42173280342E+02  0.63139349383E+02  0.00000000000E+00 0.  1.
         12    1    3    3    0    0  0.92450885588E+01 -0.26190913755E+02 -0.77616017180E+02  0.82435925109E+02  0.00000000000E+00 0. -1.
          1    1    1    2  501    0  0.22224890068E+02 -0.87036748058E+01 -0.11014317848E+03  0.11269968704E+03  0.00000000000E+00 0. -1.
<mgrwt>
<rscale>  1 0.82720522E+02</rscale>
<asrwt>0</asrwt>
<pdfrwt beam="1">  1       21 0.37554419E-01 0.82720522E+02</pdfrwt>
<pdfrwt beam="2">  1        2 0.21801912E-02 0.82720522E+02</pdfrwt>
<totfact> 0.36926432E+05</totfact>
</mgrwt>
</event>
<event>
 6    2  0.7993170E+000  0.8109513E+02  0.7546771E-02  0.1325972E+00
         -3   -1    0    0    0  501 -0.00000000000E+00  0.00000000000E+00  0.27037174668E+03  0.27037174668E+03  0.00000000000E+00 0.  1.
         21   -1    0    0  501  502  0.00000000000E+00 -0.00000000000E+00 -0.16448571029E+02  0.16448571029E+02  0.00000000000E+00 0.  1.
         24    2    1    2    0    0 -0.12767525500E+02  0.18857357288E+02  0.25110302711E+03  0.26387335998E+03  0.77831935931E+02 0.  0.
        -13    1    3    3    0    0  0.16693514265E+02  0.16552235190E+02  0.21892969107E+03  0.22018823661E+03  0.00000000000E+00 0.  1.
         14    1    3    3    0    0 -0.29461039765E+02  0.23051220986E+01  0.32173336040E+02  0.43685123370E+02  0.00000000000E+00 0. -1.
         -4    1    1    2    0  502  0.12767525500E+02 -0.18857357288E+02  0.28201485390E+01  0.22946957730E+02  0.00000000000E+00 0.  1.
<mgrwt>
<rscale>  1 0.81095129E+02</rscale>
<asrwt>0</asrwt>
<pdfrwt beam="1">  1       21 0.25305496E-02 0.81095129E+02</pdfrwt>
<pdfrwt beam="2">  1       -3 0.41595650E-01 0.81095129E+02</pdfrwt>
<totfact> 0.21103050E+05</totfact>
</mgrwt>
</event>
<event>
 6    2  0.7993170E+000  0.8669707E+02  0.7546771E-02  0.1311053E+00
          2   -1    0    0  502    0 -0.00000000000E+00  0.00000000000E+00  0.28626852565E+04  0.28626852565E+04  0.00000000000E+00 0. -1.
         21   -1    0    0  501  502  0.00000000000E+00 -0.00000000000E+00 -0.24947249334E+01  0.24947249334E+01  0.00000000000E+00 0. -1.
         24    2    1    2    0    0 -0.53884287617E+01  0.29113625187E+02  0.27408712264E+04  0.27422420502E+04  0.81484625366E+02 0.  0.
        -13    1    3    3    0    0  0.29425806679E+02 -0.11301765266E+02  0.76137964354E+03  0.76203186914E+03  0.00000000000E+00 0.  1.
         14    1    3    3    0    0 -0.34814235441E+02  0.40415390453E+02  0.19794915828E+04  0.19802101811E+04  0.00000000000E+00 0. -1.
          1    1    1    2  501    0  0.53884287617E+01 -0.29113625187E+02  0.11931930521E+03  0.12293793122E+03  0.00000000000E+00 0. -1.
<mgrwt>
<rscale>  1 0.86697073E+02</rscale>
<asrwt>0</asrwt>
<pdfrwt beam="1">  1       21 0.38380613E-03 0.86697073E+02</pdfrwt>
<pdfrwt beam="2">  1        2 0.44041049E+00 0.86697073E+02</pdfrwt>
<totfact> 0.55451070E+05</totfact>
</mgrwt>
</event>
<event>
 6    2  0.7993170E+000  0.8482254E+02  0.7546771E-02  0.1315897E+00
          2   -1    0    0  502    0 -0.00000000000E+00  0.00000000000E+00  0.62790788215E+03  0.62790788215E+03  0.00000000000E+00 0. -1.
         21   -1    0    0  501  502  0.00000000000E+00 -0.00000000000E+00 -0.77082439943E+01  0.77082439943E+01  0.00000000000E+00 0. -1.
         24    2    1    2    0    0  0.23658968487E+01  0.21333930213E+02  0.60056562407E+03  0.60652611832E+03  0.82061741017E+02 0.  0.
        -13    1    3    3    0    0 -0.10324532435E+02  0.51265106615E+01  0.90576720502E+01  0.14660099063E+02  0.00000000000E+00 0.  1.
         14    1    3    3    0    0  0.12690429284E+02  0.16207419552E+02  0.59150795202E+03  0.59186601926E+03  0.00000000000E+00 0. -1.
          1    1    1    2  501    0 -0.23658968487E+01 -0.21333930213E+02  0.19634014080E+02  0.29090007823E+02  0.00000000000E+00 0. -1.
<mgrwt>
<rscale>  1 0.84822541E+02</rscale>
<asrwt>0</asrwt>
<pdfrwt beam="1">  1       21 0.11858842E-02 0.84822541E+02</pdfrwt>
<pdfrwt beam="2">  1        2 0.96601172E-01 0.84822541E+02</pdfrwt>
<totfact> 0.16008521E+06</totfact>
</mgrwt>
</event>
<event>
 6    2  0.7993170E+000  0.8126626E+02  0.7546771E-02  0.1325496E+00
         -1   -1    0    0    0  501 -0.00000000000E+00  0.00000000000E+00  0.26828818124E+03  0.26828818124E+03  0.00000000000E+00 0.  1.
         21   -1    0    0  501  502  0.00000000000E+00 -0.00000000000E+00 -0.16591149880E+02  0.16591149880E+02  0.00000000000E+00 0. -1.
         24    2    1    2    0    0  0.15301269501E+02 -0.17277330957E+02  0.24865844205E+03  0.26160127196E+03  0.77920277693E+02 0.  0.
        -11    1    3    3    0    0 -0.57433283226E+01  0.29400780037E+02  0.98344444479E+02  0.10280574618E+03  0.00000000000E+00 0.  1.
         12    1    3    3    0    0  0.21044597823E+02 -0.46678110994E+02  0.15031399757E+03  0.15879552578E+03  0.00000000000E+00 0. -1.
         -2    1    1    2    0  502 -0.15301269501E+02  0.17277330957E+02  0.30385893124E+01  0.23278059162E+02  0.00000000000E+00 0.  1.
<mgrwt>
<rscale>  1 0.81266258E+02</rscale>
<asrwt>0</asrwt>
<pdfrwt beam="1">  1       21 0.25524848E-02 0.81266258E+02</pdfrwt>
<pdfrwt beam="2">  1       -1 0.41275102E-01 0.81266258E+02</pdfrwt>
<totfact> 0.41188581E+05</totfact>
</mgrwt>
</event>
<event>
 6    2  0.7993170E+000  0.8790180E+02  0.7546771E-02  0.1308014E+00
          4   -1    0    0  502    0 -0.00000000000E+00  0.00000000000E+00  0.53684110443E+02  0.53684110443E+02  0.00000000000E+00 0. -1.
         21   -1    0    0  501  502  0.00000000000E+00 -0.00000000000E+00 -0.11460934154E+03  0.11460934154E+03  0.00000000000E+00 0. -1.
         24    2    1    2    0    0  0.14349795245E+02  0.24850049383E+02  0.13126225702E+02  0.88876452342E+02  0.83086006053E+02 0.  0.
        -13    1    3    3    0    0 -0.30645891951E+02  0.60457574246E+01 -0.12668542930E+02  0.33707771453E+02  0.00000000000E+00 0.  1.
         14    1    3    3    0    0  0.44995687196E+02  0.18804291958E+02  0.25794768632E+02  0.55168680889E+02  0.00000000000E+00 0. -1.
          3    1    1    2  501    0 -0.14349795245E+02 -0.24850049383E+02 -0.74051456804E+02  0.79416999645E+02  0.00000000000E+00 0. -1.
<mgrwt>
<rscale>  1 0.87901797E+02</rscale>
<asrwt>0</asrwt>
<pdfrwt beam="1">  1       21 0.17632206E-01 0.87901797E+02</pdfrwt>
<pdfrwt beam="2">  1        4 0.82590940E-02 0.87901797E+02</pdfrwt>
<totfact> 0.11527371E+05</totfact>
</mgrwt>
</event>
<event>
 6    2  0.7993170E+000  0.8375420E+02  0.7546771E-02  0.1318723E+00
         21   -1    0    0  501  502  0.00000000000E+00  0.00000000000E+00  0.27724954180E+01  0.27724954180E+01  0.00000000000E+00 0.  1.
          2   -1    0    0  502    0 -0.00000000000E+00 -0.00000000000E+00 -0.10585914644E+04  0.10585914644E+04  0.00000000000E+00 0. -1.
         24    2    1    2    0    0  0.17450956461E+02  0.16099250192E+02 -0.76265881949E+03  0.76724392481E+03  0.80318388220E+02 0.  0.
        -11    1    3    3    0    0  0.47391587207E+02  0.22840691431E+02 -0.51913998205E+03  0.52179879330E+03  0.00000000000E+00 0.  1.
         12    1    3    3    0    0 -0.29940630745E+02 -0.67414412387E+01 -0.24351883743E+03  0.24544513151E+03  0.00000000000E+00 0. -1.
          1    1    1    2  501    0 -0.17450956461E+02 -0.16099250192E+02 -0.29316014949E+03  0.29412003499E+03  0.00000000000E+00 0. -1.
<mgrwt>
<rscale>  1 0.83754195E+02</rscale>
<asrwt>0</asrwt>
<pdfrwt beam="1">  1       21 0.42653690E-03 0.83754195E+02</pdfrwt>
<pdfrwt beam="2">  1        2 0.16286055E+00 0.83754195E+02</pdfrwt>
<totfact> 0.40689006E+06</totfact>
</mgrwt>
</event>
<event>
 6    2  0.7993170E+000  0.8235558E+02  0.7546771E-02  0.1322497E+00
         21   -1    0    0  501  502  0.00000000000E+00  0.00000000000E+00  0.16482919956E+01  0.16482919956E+01  0.00000000000E+00 0.  1.
          2   -1    0    0  502    0 -0.00000000000E+00 -0.00000000000E+00 -0.17858456191E+04  0.17858456191E+04  0.00000000000E+00 0. -1.
         24    2    1    2    0    0  0.14571035396E+02  0.20400965541E+02 -0.14653831924E+04  0.14676955888E+04  0.78446964842E+02 0.  0.
        -13    1    3    3    0    0  0.41613210124E+02  0.20447403856E+02 -0.56254842903E+03  0.56445592440E+03  0.00000000000E+00 0.  1.
         14    1    3    3    0    0 -0.27042174728E+02 -0.46438314730E-01 -0.90283476337E+03  0.90323966439E+03  0.00000000000E+00 0. -1.
          1    1    1    2  501    0 -0.14571035396E+02 -0.20400965541E+02 -0.31881413465E+03  0.31979832226E+03  0.00000000000E+00 0. -1.
<mgrwt>
<rscale>  1 0.82355575E+02</rscale>
<asrwt>0</asrwt>
<pdfrwt beam="1">  1       21 0.25358388E-03 0.82355575E+02</pdfrwt>
<pdfrwt beam="2">  1        2 0.27474494E+00 0.82355575E+02</pdfrwt>
<totfact> 0.37313462E+06</totfact>
</mgrwt>
</event>
<event>
 6    2  0.7993170E+000  0.8119718E+02  0.7546771E-02  0.1325688E+00
          2   -1    0    0  502    0 -0.00000000000E+00  0.00000000000E+00  0.78748912514E+03  0.78748912514E+03  0.00000000000E+00 0. -1.
         21   -1    0    0  501  502  0.00000000000E+00 -0.00000000000E+00 -0.82315683913E+02  0.82315683913E+02  0.00000000000E+00 0. -1.
         24    2    1    2    0    0 -0.52848774012E+01  0.25857354987E+02  0.78321952031E+03  0.78741716923E+03  0.76788336729E+02 0.  0.
        -11    1    3    3    0    0 -0.19585197687E+02  0.80642206511E+01  0.56505398054E+02  0.60344607319E+02  0.00000000000E+00 0.  1.
         12    1    3    3    0    0  0.14300320285E+02  0.17793134336E+02  0.72671412226E+03  0.72707256191E+03  0.00000000000E+00 0. -1.
          1    1    1    2  501    0  0.52848774012E+01 -0.25857354987E+02 -0.78046079084E+02  0.82387639829E+02  0.00000000000E+00 0. -1.
<mgrwt>
<rscale>  1 0.81197176E+02</rscale>
<asrwt>0</asrwt>
<pdfrwt beam="1">  1       21 0.12663952E-01 0.81197176E+02</pdfrwt>
<pdfrwt beam="2">  1        2 0.12115217E+00 0.81197176E+02</pdfrwt>
<totfact> 0.24791020E+04</totfact>
</mgrwt>
</event>
<event>
 6    2  0.7993170E+000  0.8461115E+02  0.7546771E-02  0.1316453E+00
          4   -1    0    0  502    0 -0.00000000000E+00  0.00000000000E+00  0.54484356827E+02  0.54484356827E+02  0.00000000000E+00 0. -1.
         21   -1    0    0  501  502  0.00000000000E+00 -0.00000000000E+00 -0.54010804530E+02  0.54010804530E+02  0.00000000000E+00 0.  1.
         24    2    1    2    0    0 -0.21110210903E+02  0.11154684035E+02  0.87567497079E+00  0.84615678889E+02  0.81172521995E+02 0.  0.
        -13    1    3    3    0    0 -0.12576452695E+02  0.46302406601E+02 -0.38746488457E+01  0.48136191406E+02  0.00000000000E+00 0.  1.
         14    1    3    3    0    0 -0.85337582077E+01 -0.35147722565E+02  0.47503238165E+01  0.36479487483E+02  0.00000000000E+00 0. -1.
          3    1    1    2  501    0  0.21110210903E+02 -0.11154684035E+02 -0.40212267370E+00  0.23879482468E+02  0.00000000000E+00 0. -1.
<mgrwt>
<rscale>  1 0.84611148E+02</rscale>
<asrwt>0</asrwt>
<pdfrwt beam="1">  1       21 0.83093545E-02 0.84611148E+02</pdfrwt>
<pdfrwt beam="2">  1        4 0.83822088E-02 0.84611148E+02</pdfrwt>
<totfact> 0.41840163E+05</totfact>
</mgrwt>
</event>
<event>
 6    2  0.7993170E+000  0.9477187E+02  0.7546771E-02  0.1291691E+00
         21   -1    0    0  501  502  0.00000000000E+00  0.00000000000E+00  0.12918579689E+03  0.12918579689E+03  0.00000000000E+00 0. -1.
          4   -1    0    0  502    0 -0.00000000000E+00 -0.00000000000E+00 -0.47503108363E+02  0.47503108363E+02  0.00000000000E+00 0. -1.
         24    2    1    2    0    0 -0.52449681889E+02 -0.23819182241E+01  0.22177701544E+02  0.97332203326E+02  0.78899079170E+02 0.  0.
        -11    1    3    3    0    0 -0.35889684620E+02  0.20351865431E+02  0.45044213556E+02  0.61083950949E+02  0.00000000000E+00 0.  1.
         12    1    3    3    0    0 -0.16559997269E+02 -0.22733783655E+02 -0.22866512012E+02  0.36248252377E+02  0.00000000000E+00 0. -1.
          3    1    1    2  501    0  0.52449681889E+02  0.23819182241E+01  0.59504986983E+02  0.79356701926E+02  0.00000000000E+00 0. -1.
<mgrwt>
<rscale>  1 0.94771870E+02</rscale>
<asrwt>0</asrwt>
<pdfrwt beam="1">  1       21 0.19874738E-01 0.94771870E+02</pdfrwt>
<pdfrwt beam="2">  1        4 0.73081706E-02 0.94771870E+02</pdfrwt>
<totfact> 0.11466606E+05</totfact>
</mgrwt>
</event>
<event>
 6    2  0.7993170E+000  0.9778890E+02  0.7546771E-02  0.1285016E+00
         21   -1    0    0  501  502  0.00000000000E+00  0.00000000000E+00  0.25533761652E+02  0.25533761652E+02  0.00000000000E+00 0. -1.
          2   -1    0    0  502    0 -0.00000000000E+00 -0.00000000000E+00 -0.12746092127E+04  0.12746092127E+04  0.00000000000E+00 0. -1.
         24    2    1    2    0    0  0.51674556563E+02  0.78735249984E+01 -0.12437645986E+04  0.12476029197E+04  0.82646332031E+02 0.  0.
        -13    1    3    3    0    0  0.40327674060E+02 -0.16578507329E+02 -0.27266586187E+03  0.27613011503E+03  0.00000000000E+00 0.  1.
         14    1    3    3    0    0  0.11346882503E+02  0.24452032327E+02 -0.97109873676E+03  0.97147280465E+03  0.00000000000E+00 0. -1.
          1    1    1    2  501    0 -0.51674556563E+02 -0.78735249984E+01 -0.53108524226E+01  0.52540054675E+02  0.00000000000E+00 0. -1.
<mgrwt>
<rscale>  1 0.97788897E+02</rscale>
<asrwt>0</asrwt>
<pdfrwt beam="1">  1       21 0.39282718E-02 0.97788897E+02</pdfrwt>
<pdfrwt beam="2">  1        2 0.19609369E+00 0.97788897E+02</pdfrwt>
<totfact> 0.93816406E+04</totfact>
</mgrwt>
</event>
<event>
 6    2  0.7993170E+000  0.8644852E+02  0.7546771E-02  0.1311687E+00
          2   -1    0    0  502    0 -0.00000000000E+00  0.00000000000E+00  0.25870036897E+04  0.25870036897E+04  0.00000000000E+00 0. -1.
         21   -1    0    0  501  502  0.00000000000E+00 -0.00000000000E+00 -0.14975395883E+01  0.14975395883E+01  0.00000000000E+00 0.  1.
         24    2    1    2    0    0 -0.30586129469E+02  0.19912873929E+02  0.19909446632E+04  0.19928206139E+04  0.78366531663E+02 0.  0.
        -11    1    3    3    0    0 -0.26221998404E+02  0.18308214802E+02  0.27258659462E+03  0.27445625425E+03  0.00000000000E+00 0.  1.
         12    1    3    3    0    0 -0.43641310652E+01  0.16046591262E+01  0.17183580686E+04  0.17183643596E+04  0.00000000000E+00 0. -1.
          1    1    1    2  501    0  0.30586129469E+02 -0.19912873929E+02  0.59456148692E+03  0.59568061542E+03  0.00000000000E+00 0. -1.
<mgrwt>
<rscale>  1 0.86448523E+02</rscale>
<asrwt>0</asrwt>
<pdfrwt beam="1">  1       21 0.23039278E-03 0.86448523E+02</pdfrwt>
<pdfrwt beam="2">  1        2 0.39799699E+00 0.86448523E+02</pdfrwt>
<totfact> 0.16905601E+06</totfact>
</mgrwt>
</event>
<event>
 6    2  0.7993170E+000  0.8275471E+02  0.7546771E-02  0.1321411E+00
          2   -1    0    0  502    0 -0.00000000000E+00  0.00000000000E+00  0.12685492569E+04  0.12685492569E+04  0.00000000000E+00 0. -1.
         21   -1    0    0  501  502  0.00000000000E+00 -0.00000000000E+00 -0.79000380064E+01  0.79000380064E+01  0.00000000000E+00 0.  1.
         24    2    1    2    0    0  0.73156100063E+01 -0.32232692723E+02  0.21649939998E+03  0.23177647102E+03  0.75867500926E+02 0.  0.
        -13    1    3    3    0    0 -0.25619657581E+02 -0.37350779167E+02  0.87337605800E+02  0.98383458700E+02  0.00000000000E+00 0.  1.
         14    1    3    3    0    0  0.32935267588E+02  0.51180864436E+01  0.12916179418E+03  0.13339301232E+03  0.00000000000E+00 0. -1.
          1    1    1    2  501    0 -0.73156100063E+01  0.32232692723E+02  0.10441498189E+04  0.10446728239E+04  0.00000000000E+00 0. -1.
<mgrwt>
<rscale>  1 0.82754712E+02</rscale>
<asrwt>0</asrwt>
<pdfrwt beam="1">  1       21 0.12153915E-02 0.82754712E+02</pdfrwt>
<pdfrwt beam="2">  1        2 0.19516126E+00 0.82754712E+02</pdfrwt>
<totfact> 0.61844393E+05</totfact>
</mgrwt>
</event>
<event>
 6    2  0.7993170E+000  0.8871926E+02  0.7546771E-02  0.1305983E+00
          2   -1    0    0  502    0 -0.00000000000E+00  0.00000000000E+00  0.31512954282E+04  0.31512954282E+04  0.00000000000E+00 0. -1.
         21   -1    0    0  501  502  0.00000000000E+00 -0.00000000000E+00 -0.15049073896E+01  0.15049073896E+01  0.00000000000E+00 0.  1.
         24    2    1    2    0    0 -0.28951043084E+02  0.23069736470E+02  0.27109122977E+04  0.27123636542E+04  0.80627110197E+02 0.  0.
        -13    1    3    3    0    0  0.63878958008E+01  0.46083638994E+02  0.14527486145E+04  0.14534933931E+04  0.00000000000E+00 0.  1.
         14    1    3    3    0    0 -0.35338938885E+02 -0.23013902523E+02  0.12581636833E+04  0.12588702611E+04  0.00000000000E+00 0. -1.
          1    1    1    2  501    0  0.28951043084E+02 -0.23069736470E+02  0.43887822304E+03  0.44043668137E+03  0.00000000000E+00 0. -1.
<mgrwt>
<rscale>  1 0.88719257E+02</rscale>
<asrwt>0</asrwt>
<pdfrwt beam="1">  1       21 0.23152674E-03 0.88719257E+02</pdfrwt>
<pdfrwt beam="2">  1        2 0.48480940E+00 0.88719257E+02</pdfrwt>
<totfact> 0.81552485E+05</totfact>
</mgrwt>
</event>
<event>
 6    2  0.7993170E+000  0.8278171E+02  0.7546771E-02  0.1321338E+00
         -1   -1    0    0    0  501 -0.00000000000E+00  0.00000000000E+00  0.67680306869E+02  0.67680306869E+02  0.00000000000E+00 0.  1.
         21   -1    0    0  501  502  0.00000000000E+00 -0.00000000000E+00 -0.54322785703E+02  0.54322785703E+02  0.00000000000E+00 0. -1.
         24    2    1    2    0    0 -0.86866811595E+01 -0.23127553159E+02 -0.15281816614E+02  0.84180429880E+02  0.79009295092E+02 0.  0.
        -11    1    3    3    0    0 -0.57407747090E+01 -0.37082667550E+02  0.22529718381E+02  0.43768355432E+02  0.00000000000E+00 0.  1.
         12    1    3    3    0    0 -0.29459064505E+01  0.13955114391E+02 -0.37811534995E+02  0.40412074448E+02  0.00000000000E+00 0. -1.
         -2    1    1    2    0  502  0.86866811595E+01  0.23127553159E+02  0.28639337780E+02  0.37822662693E+02  0.00000000000E+00 0.  1.
<mgrwt>
<rscale>  1 0.82781706E+02</rscale>
<asrwt>0</asrwt>
<pdfrwt beam="1">  1       21 0.83573516E-02 0.82781706E+02</pdfrwt>
<pdfrwt beam="2">  1       -1 0.10412355E-01 0.82781706E+02</pdfrwt>
<totfact> 0.52508781E+05</totfact>
</mgrwt>
</event>
<event>
 6    2  0.7993170E+000  0.7904439E+02  0.7546771E-02  0.1331785E+00
         -1   -1    0    0    0  501 -0.00000000000E+00  0.00000000000E+00  0.14963875923E+04  0.14963875923E+04  0.00000000000E+00 0.  1.
         21   -1    0    0  501  502  0.00000000000E+00 -0.00000000000E+00 -0.23214894008E+01  0.23214894008E+01  0.00000000000E+00 0. -1.
         24    2    1    2    0    0  0.29426864463E+02  0.49461654431E+01  0.12959549915E+04  0.12983633372E+04  0.73195698814E+02 0.  0.
        -11    1    3    3    0    0  0.41897766435E+02  0.41516494619E+01  0.12508765886E+04  0.12515849548E+04  0.00000000000E+00 0.  1.
         12    1    3    3    0    0 -0.12470901972E+02  0.79451598122E+00  0.45078402894E+02  0.46778382391E+02  0.00000000000E+00 0. -1.
         -2    1    1    2    0  502 -0.29426864463E+02 -0.49461654431E+01  0.19811111138E+03  0.20034574454E+03  0.00000000000E+00 0.  1.
<mgrwt>
<rscale>  1 0.79044388E+02</rscale>
<asrwt>0</asrwt>
<pdfrwt beam="1">  1       21 0.35715341E-03 0.79044388E+02</pdfrwt>
<pdfrwt beam="2">  1       -1 0.23021270E+00 0.79044388E+02</pdfrwt>
<totfact> 0.18104566E+05</totfact>
</mgrwt>
</event>
<event>
 6    2  0.7993170E+000  0.8367578E+02  0.7546771E-02  0.1318932E+00
          2   -1    0    0  502    0 -0.00000000000E+00  0.00000000000E+00  0.33464470584E+03  0.33464470584E+03  0.00000000000E+00 0. -1.
         21   -1    0    0  501  502  0.00000000000E+00 -0.00000000000E+00 -0.12963335624E+02  0.12963335624E+02  0.00000000000E+00 0.  1.
         24    2    1    2    0    0 -0.22804947735E+02 -0.51068720815E+01  0.13062338415E+03  0.15512609472E+03  0.80346070170E+02 0.  0.
        -11    1    3    3    0    0 -0.43141656330E+01 -0.20850613075E+02 -0.96634330174E+00  0.21314171579E+02  0.00000000000E+00 0.  1.
         12    1    3    3    0    0 -0.18490782102E+02  0.15743740993E+02  0.13158972745E+03  0.13381192314E+03  0.00000000000E+00 0. -1.
          1    1    1    2  501    0  0.22804947735E+02  0.51068720815E+01  0.19105798607E+03  0.19248194675E+03  0.00000000000E+00 0. -1.
<mgrwt>
<rscale>  1 0.83675784E+02</rscale>
<asrwt>0</asrwt>
<pdfrwt beam="1">  1       21 0.19943596E-02 0.83675784E+02</pdfrwt>
<pdfrwt beam="2">  1        2 0.51483794E-01 0.83675784E+02</pdfrwt>
<totfact> 0.13779597E+06</totfact>
</mgrwt>
</event>
<event>
 6    2  0.7993170E+000  0.9715551E+02  0.7546771E-02  0.1286394E+00
         21   -1    0    0  501  502  0.00000000000E+00  0.00000000000E+00  0.14430902873E+02  0.14430902873E+02  0.00000000000E+00 0. -1.
          4   -1    0    0  502    0 -0.00000000000E+00 -0.00000000000E+00 -0.12505269311E+04  0.12505269311E+04  0.00000000000E+00 0. -1.
         24    2    1    2    0    0 -0.31352932541E+02  0.45958887014E+02 -0.11863636798E+04  0.11903352358E+04  0.79649025117E+02 0.  0.
        -13    1    3    3    0    0 -0.36995859847E+02  0.22971195631E+01 -0.23077043909E+03  0.23372840213E+03  0.00000000000E+00 0.  1.
         14    1    3    3    0    0  0.56429273056E+01  0.43661767450E+02 -0.95559324074E+03  0.95660683372E+03  0.00000000000E+00 0. -1.
          3    1    1    2  501    0  0.31352932541E+02 -0.45958887014E+02 -0.49732348406E+02  0.74622598135E+02  0.00000000000E+00 0. -1.
<mgrwt>
<rscale>  1 0.97155509E+02</rscale>
<asrwt>0</asrwt>
<pdfrwt beam="1">  1       21 0.22201381E-02 0.97155509E+02</pdfrwt>
<pdfrwt beam="2">  1        4 0.19238883E+00 0.97155509E+02</pdfrwt>
<totfact> 0.67554904E+03</totfact>
</mgrwt>
</event>
<event>
 6    2  0.7993170E+000  0.1642877E+03  0.7546771E-02  0.1183939E+00
         21   -1    0    0  501  502  0.00000000000E+00  0.00000000000E+00  0.42470709333E+02  0.42470709333E+02  0.00000000000E+00 0.  1.
         -1   -1    0    0    0  501 -0.00000000000E+00 -0.00000000000E+00 -0.55595117176E+03  0.55595117176E+03  0.00000000000E+00 0.  1.
         24    2    1    2    0    0 -0.12139890254E+03  0.75633318790E+02 -0.27338952251E+03  0.31895497450E+03  0.80822968844E+02 0.  0.
        -13    1    3    3    0    0 -0.11982160399E+03  0.49589068811E+02 -0.17907347198E+03  0.22109636111E+03  0.00000000000E+00 0.  1.
         14    1    3    3    0    0 -0.15772985475E+01  0.26044249979E+02 -0.94316050531E+02  0.97858613395E+02  0.00000000000E+00 0. -1.
         -2    1    1    2    0  502  0.12139890254E+03 -0.75633318790E+02 -0.24009093992E+03  0.27946690659E+03  0.00000000000E+00 0.  1.
<mgrwt>
<rscale>  1 0.16428769E+03</rscale>
<asrwt>0</asrwt>
<pdfrwt beam="1">  1       21 0.65339559E-02 0.16428769E+03</pdfrwt>
<pdfrwt beam="2">  1       -1 0.85530941E-01 0.16428769E+03</pdfrwt>
<totfact> 0.22581481E+04</totfact>
</mgrwt>
</event>
<event>
 6    2  0.7993170E+000  0.9192089E+02  0.7546771E-02  0.1298266E+00
          2   -1    0    0  502    0 -0.00000000000E+00  0.00000000000E+00  0.46132967743E+03  0.46132967743E+03  0.00000000000E+00 0. -1.
         21   -1    0    0  501  502  0.00000000000E+00 -0.00000000000E+00 -0.10910618130E+02  0.10910618130E+02  0.00000000000E+00 0. -1.
         24    2    1    2    0    0  0.38685454423E+02  0.24749508081E+02  0.34909818535E+03  0.36099721922E+03  0.79626294281E+02 0.  0.
        -13    1    3    3    0    0  0.27009856634E+02 -0.15538012933E+02  0.49598169977E+02  0.58574232102E+02  0.00000000000E+00 0.  1.
         14    1    3    3    0    0  0.11675597788E+02  0.40287521014E+02  0.29950001537E+03  0.30242298712E+03  0.00000000000E+00 0. -1.
          1    1    1    2  501    0 -0.38685454423E+02 -0.24749508081E+02  0.10132087396E+03  0.11124307634E+03  0.00000000000E+00 0. -1.
<mgrwt>
<rscale>  1 0.91920886E+02</rscale>
<asrwt>0</asrwt>
<pdfrwt beam="1">  1       21 0.16785570E-02 0.91920886E+02</pdfrwt>
<pdfrwt beam="2">  1        2 0.70973782E-01 0.91920886E+02</pdfrwt>
<totfact> 0.13069383E+06</totfact>
</mgrwt>
</event>
<event>
 6    2  0.7993170E+000  0.9047442E+02  0.7546771E-02  0.1301707E+00
          2   -1    0    0  502    0 -0.00000000000E+00  0.00000000000E+00  0.21332766333E+04  0.21332766333E+04  0.00000000000E+00 0. -1.
         21   -1    0    0  501  502  0.00000000000E+00 -0.00000000000E+00 -0.23765885729E+01  0.23765885729E+01  0.00000000000E+00 0. -1.
         24    2    1    2    0    0 -0.21394374413E+02  0.36605561011E+02  0.17626359390E+04  0.17649563944E+04  0.79924553298E+02 0.  0.
        -11    1    3    3    0    0 -0.80242707488E+01  0.60960291983E+02  0.10720326548E+04  0.10737944678E+04  0.00000000000E+00 0.  1.
         12    1    3    3    0    0 -0.13370103664E+02 -0.24354730972E+02  0.69060328416E+03  0.69116192653E+03  0.00000000000E+00 0. -1.
          1    1    1    2  501    0  0.21394374413E+02 -0.36605561011E+02  0.36826410569E+03  0.37069682747E+03  0.00000000000E+00 0. -1.
<mgrwt>
<rscale>  1 0.90474419E+02</rscale>
<asrwt>0</asrwt>
<pdfrwt beam="1">  1       21 0.36563072E-03 0.90474419E+02</pdfrwt>
<pdfrwt beam="2">  1        2 0.32819487E+00 0.90474419E+02</pdfrwt>
<totfact> 0.14464432E+06</totfact>
</mgrwt>
</event>
<event>
 6    2  0.7993170E+000  0.8530352E+02  0.7546771E-02  0.1314641E+00
         21   -1    0    0  501  502  0.00000000000E+00  0.00000000000E+00  0.55487478552E+02  0.55487478552E+02  0.00000000000E+00 0.  1.
         -1   -1    0    0    0  501 -0.00000000000E+00 -0.00000000000E+00 -0.10321232124E+03  0.10321232124E+03  0.00000000000E+00 0.  1.
         24    2    1    2    0    0 -0.26736811109E+02  0.16501459439E+01 -0.79868384839E+02  0.11685738886E+03  0.80988334872E+02 0.  0.
        -11    1    3    3    0    0 -0.30136690472E+02 -0.24258897858E+02 -0.81970838762E+02  0.90641782006E+02  0.00000000000E+00 0.  1.
         12    1    3    3    0    0  0.33998793624E+01  0.25909043802E+02  0.21024539228E+01  0.26215606858E+02  0.00000000000E+00 0. -1.
         -2    1    1    2    0  502  0.26736811109E+02 -0.16501459439E+01  0.32143542153E+02  0.41842410926E+02  0.00000000000E+00 0.  1.
<mgrwt>
<rscale>  1 0.85303519E+02</rscale>
<asrwt>0</asrwt>
<pdfrwt beam="1">  1       21 0.85365352E-02 0.85303519E+02</pdfrwt>
<pdfrwt beam="2">  1       -1 0.15878819E-01 0.85303519E+02</pdfrwt>
<totfact> 0.26627256E+05</totfact>
</mgrwt>
</event>
<event>
 6    2  0.7993170E+000  0.9404089E+02  0.7546771E-02  0.1293351E+00
          2   -1    0    0  502    0 -0.00000000000E+00  0.00000000000E+00  0.30806905334E+04  0.30806905334E+04  0.00000000000E+00 0. -1.
         21   -1    0    0  501  502  0.00000000000E+00 -0.00000000000E+00 -0.16833828143E+01  0.16833828143E+01  0.00000000000E+00 0. -1.
         24    2    1    2    0    0 -0.40458011208E+02  0.27107338106E+02  0.18247066784E+04  0.18271283892E+04  0.80448928763E+02 0.  0.
        -13    1    3    3    0    0  0.23687602080E+02 -0.16480280557E+01  0.46053115398E+03  0.46114288704E+03  0.00000000000E+00 0.  1.
         14    1    3    3    0    0 -0.64145613288E+02  0.28755366162E+02  0.13641755244E+04  0.13659855022E+04  0.00000000000E+00 0. -1.
          1    1    1    2  501    0  0.40458011208E+02 -0.27107338106E+02  0.12543004723E+04  0.12552455270E+04  0.00000000000E+00 0. -1.
<mgrwt>
<rscale>  1 0.94040888E+02</rscale>
<asrwt>0</asrwt>
<pdfrwt beam="1">  1       21 0.25898444E-03 0.94040888E+02</pdfrwt>
<pdfrwt beam="2">  1        2 0.47394788E+00 0.94040888E+02</pdfrwt>
<totfact> 0.75797374E+05</totfact>
</mgrwt>
</event>
<event>
 6    2  0.7993170E+000  0.8396690E+02  0.7546771E-02  0.1318157E+00
         21   -1    0    0  501  502  0.00000000000E+00  0.00000000000E+00  0.15734621687E+03  0.15734621687E+03  0.00000000000E+00 0.  1.
         -1   -1    0    0    0  501 -0.00000000000E+00 -0.00000000000E+00 -0.22775782280E+02  0.22775782280E+02  0.00000000000E+00 0.  1.
         24    2    1    2    0    0  0.22443350039E+02 -0.28940717399E+01  0.62757785406E+02  0.10482833278E+03  0.80860126840E+02 0.  0.
        -13    1    3    3    0    0  0.23372687754E+02 -0.40087794251E+02  0.29997618610E+02  0.55255505635E+02  0.00000000000E+00 0.  1.
         14    1    3    3    0    0 -0.92933771493E+00  0.37193722511E+02  0.32760166796E+02  0.49572827147E+02  0.00000000000E+00 0. -1.
         -2    1    1    2    0  502 -0.22443350039E+02  0.28940717399E+01  0.71812649180E+02  0.75293666364E+02  0.00000000000E+00 0.  1.
<mgrwt>
<rscale>  1 0.83966897E+02</rscale>
<asrwt>0</asrwt>
<pdfrwt beam="1">  1       21 0.24207110E-01 0.83966897E+02</pdfrwt>
<pdfrwt beam="2">  1       -1 0.35039666E-02 0.83966897E+02</pdfrwt>
<totfact> 0.39478752E+05</totfact>
</mgrwt>
</event>
<event>
 6    2  0.7993170E+000  0.9412068E+02  0.7546771E-02  0.1293169E+00
         21   -1    0    0  501  502  0.00000000000E+00  0.00000000000E+00  0.60076905923E+02  0.60076905923E+02  0.00000000000E+00 0. -1.
          4   -1    0    0  502    0 -0.00000000000E+00 -0.00000000000E+00 -0.84686652873E+02  0.84686652873E+02  0.00000000000E+00 0. -1.
         24    2    1    2    0    0 -0.24832019009E+02 -0.41541887219E+02 -0.19257855606E+02  0.96070640391E+02  0.80723883583E+02 0.  0.
        -11    1    3    3    0    0  0.18371669304E+02  0.61546933199E+01 -0.24807489882E+02  0.31477135148E+02  0.00000000000E+00 0.  1.
         12    1    3    3    0    0 -0.43203688313E+02 -0.47696580539E+02  0.55496342762E+01  0.64593505243E+02  0.00000000000E+00 0. -1.
          3    1    1    2  501    0  0.24832019009E+02  0.41541887219E+02 -0.53518913437E+01  0.48692918404E+02  0.00000000000E+00 0. -1.
<mgrwt>
<rscale>  1 0.94120683E+02</rscale>
<asrwt>0</asrwt>
<pdfrwt beam="1">  1       21 0.92426010E-02 0.94120683E+02</pdfrwt>
<pdfrwt beam="2">  1        4 0.13028716E-01 0.94120683E+02</pdfrwt>
<totfact> 0.16984008E+05</totfact>
</mgrwt>
</event>
<event>
 6    2  0.7993170E+000  0.8476844E+02  0.7546771E-02  0.1316039E+00
         21   -1    0    0  501  502  0.00000000000E+00  0.00000000000E+00  0.31336766716E+02  0.31336766716E+02  0.00000000000E+00 0.  1.
          2   -1    0    0  502    0 -0.00000000000E+00 -0.00000000000E+00 -0.10713329413E+03  0.10713329413E+03  0.00000000000E+00 0. -1.
         24    2    1    2    0    0  0.14418410455E+02 -0.23953267568E+02 -0.69959720240E+02  0.10990928520E+03  0.80025239336E+02 0.  0.
        -11    1    3    3    0    0 -0.39640292652E+01 -0.93317479994E+01  0.17021604690E+02  0.19812371765E+02  0.00000000000E+00 0.  1.
         12    1    3    3    0    0  0.18382439721E+02 -0.14621519569E+02 -0.86981324931E+02  0.90096913439E+02  0.00000000000E+00 0. -1.
          1    1    1    2  501    0 -0.14418410455E+02  0.23953267568E+02 -0.58368071742E+01  0.28560775641E+02  0.00000000000E+00 0. -1.
<mgrwt>
<rscale>  1 0.84768441E+02</rscale>
<asrwt>0</asrwt>
<pdfrwt beam="1">  1       21 0.48210411E-02 0.84768441E+02</pdfrwt>
<pdfrwt beam="2">  1        2 0.16482045E-01 0.84768441E+02</pdfrwt>
<totfact> 0.11203116E+06</totfact>
</mgrwt>
</event>
<event>
 6    2  0.7993170E+000  0.8199591E+02  0.7546771E-02  0.1323481E+00
         21   -1    0    0  501  502  0.00000000000E+00  0.00000000000E+00  0.34421942001E+02  0.34421942001E+02  0.00000000000E+00 0. -1.
          4   -1    0    0  502    0 -0.00000000000E+00 -0.00000000000E+00 -0.16194782177E+03  0.16194782177E+03  0.00000000000E+00 0. -1.
         24    2    1    2    0    0  0.16344175153E+02 -0.20024561163E+02 -0.14400692527E+03  0.16571458522E+03  0.77815256319E+02 0.  0.
        -11    1    3    3    0    0  0.97437670148E+01  0.27888562136E+02 -0.31150176783E+02  0.42930716361E+02  0.00000000000E+00 0.  1.
         12    1    3    3    0    0  0.66004081387E+01 -0.47913123298E+02 -0.11285674849E+03  0.12278386885E+03  0.00000000000E+00 0. -1.
          3    1    1    2  501    0 -0.16344175153E+02  0.20024561163E+02  0.16481045504E+02  0.30655178553E+02  0.00000000000E+00 0. -1.
<mgrwt>
<rscale>  1 0.81995910E+02</rscale>
<asrwt>0</asrwt>
<pdfrwt beam="1">  1       21 0.52956834E-02 0.81995910E+02</pdfrwt>
<pdfrwt beam="2">  1        4 0.24915049E-01 0.81995910E+02</pdfrwt>
<totfact> 0.13565925E+05</totfact>
</mgrwt>
</event>
<event>
 6    2  0.7993170E+000  0.7848311E+02  0.7546771E-02  0.1333412E+00
          2   -1    0    0  502    0 -0.00000000000E+00  0.00000000000E+00  0.51014511368E+03  0.51014511368E+03  0.00000000000E+00 0. -1.
         21   -1    0    0  501  502  0.00000000000E+00 -0.00000000000E+00 -0.11849980049E+02  0.11849980049E+02  0.00000000000E+00 0.  1.
         24    2    1    2    0    0  0.13842429995E+02 -0.18501228657E+02  0.49175836126E+03  0.49798181151E+03  0.75004602465E+02 0.  0.
        -11    1    3    3    0    0  0.13300678276E+02 -0.47570951945E+02  0.30516039336E+03  0.30913228429E+03  0.00000000000E+00 0.  1.
         12    1    3    3    0    0  0.54175171846E+00  0.29069723288E+02  0.18659796790E+03  0.18884952722E+03  0.00000000000E+00 0. -1.
          1    1    1    2  501    0 -0.13842429995E+02  0.18501228657E+02  0.65367723665E+01  0.24013282219E+02  0.00000000000E+00 0. -1.
<mgrwt>
<rscale>  1 0.78483111E+02</rscale>
<asrwt>0</asrwt>
<pdfrwt beam="1">  1       21 0.18230742E-02 0.78483111E+02</pdfrwt>
<pdfrwt beam="2">  1        2 0.78483847E-01 0.78483111E+02</pdfrwt>
<totfact> 0.10123618E+06</totfact>
</mgrwt>
</event>
<event>
 6    2  0.7993170E+000  0.8708911E+02  0.7546771E-02  0.1310058E+00
          4   -1    0    0  502    0 -0.00000000000E+00  0.00000000000E+00  0.71928582316E+02  0.71928582316E+02  0.00000000000E+00 0. -1.
         21   -1    0    0  501  502  0.00000000000E+00 -0.00000000000E+00 -0.56309636217E+02  0.56309636217E+02  0.00000000000E+00 0.  1.
         24    2    1    2    0    0  0.37114305079E+02  0.58795852861E+01 -0.11322348622E+01  0.87096472967E+02  0.78565084375E+02 0.  0.
        -13    1    3    3    0    0  0.32403756074E+02 -0.32733152510E+02 -0.10153227973E+02  0.47165143053E+02  0.00000000000E+00 0.  1.
         14    1    3    3    0    0  0.47105490055E+01  0.38612737796E+02  0.90209931106E+01  0.39931329914E+02  0.00000000000E+00 0. -1.
          3    1    1    2  501    0 -0.37114305079E+02 -0.58795852861E+01  0.16751180960E+02  0.41141745566E+02  0.00000000000E+00 0. -1.
<mgrwt>
<rscale>  1 0.87089113E+02</rscale>
<asrwt>0</asrwt>
<pdfrwt beam="1">  1       21 0.86630210E-02 0.87089113E+02</pdfrwt>
<pdfrwt beam="2">  1        4 0.11065936E-01 0.87089113E+02</pdfrwt>
<totfact> 0.24688360E+05</totfact>
</mgrwt>
</event>
<event>
 6    2  0.8442322E+000  0.8467589E+02  0.7546771E-02  0.1316282E+00
          2   -1    0    0  502    0 -0.00000000000E+00  0.00000000000E+00  0.57467713253E+03  0.57467713253E+03  0.00000000000E+00 0. -1.
         21   -1    0    0  501  502  0.00000000000E+00 -0.00000000000E+00 -0.14499464808E+02  0.14499464808E+02  0.00000000000E+00 0.  1.
         24    2    1    2    0    0  0.23194862120E+02 -0.74397818079E+01  0.11234489742E+03  0.14068184582E+03  0.81096570736E+02 0.  0.
        -11    1    3    3    0    0  0.29632170516E+02 -0.75946335157E+01  0.25475341668E+01  0.30695829001E+02  0.00000000000E+00 0.  1.
         12    1    3    3    0    0 -0.64373083966E+01  0.15485170778E+00  0.10979736325E+03  0.10998601682E+03  0.00000000000E+00 0. -1.
          1    1    1    2  501    0 -0.23194862120E+02  0.74397818079E+01  0.44783277031E+03  0.44849475152E+03  0.00000000000E+00 0. -1.
<mgrwt>
<rscale>  1 0.84675887E+02</rscale>
<asrwt>0</asrwt>
<pdfrwt beam="1">  1       21 0.22306873E-02 0.84675887E+02</pdfrwt>
<pdfrwt beam="2">  1        2 0.88411849E-01 0.84675887E+02</pdfrwt>
<totfact> 0.64879930E+05</totfact>
</mgrwt>
</event>
<event>
 6    2  0.7993170E+000  0.8198632E+02  0.7546771E-02  0.1323507E+00
          4   -1    0    0  502    0 -0.00000000000E+00  0.00000000000E+00  0.27344418508E+03  0.27344418508E+03  0.00000000000E+00 0. -1.
         21   -1    0    0  501  502  0.00000000000E+00 -0.00000000000E+00 -0.43895736229E+02  0.43895736229E+02  0.00000000000E+00 0. -1.
         24    2    1    2    0    0 -0.81510904186E+01 -0.18310608253E+02  0.26457361763E+03  0.27698547796E+03  0.79498661651E+02 0.  0.
        -13    1    3    3    0    0  0.14462371373E+02  0.27145222932E+00  0.43271008157E+01  0.15098267236E+02  0.00000000000E+00 0.  1.
         14    1    3    3    0    0 -0.22613461792E+02 -0.18582060482E+02  0.26024651682E+03  0.26188721073E+03  0.00000000000E+00 0. -1.
          3    1    1    2  501    0  0.81510904186E+01  0.18310608253E+02 -0.35025168783E+02  0.40354443347E+02  0.00000000000E+00 0. -1.
<mgrwt>
<rscale>  1 0.81986315E+02</rscale>
<asrwt>0</asrwt>
<pdfrwt beam="1">  1       21 0.67531904E-02 0.81986315E+02</pdfrwt>
<pdfrwt beam="2">  1        4 0.42068335E-01 0.81986315E+02</pdfrwt>
<totfact> 0.33547416E+04</totfact>
</mgrwt>
</event>
<event>
 6    2  0.7993170E+000  0.8408195E+02  0.7546771E-02  0.1317851E+00
         21   -1    0    0  501  502  0.00000000000E+00  0.00000000000E+00  0.80959647565E+01  0.80959647565E+01  0.00000000000E+00 0. -1.
          2   -1    0    0  502    0 -0.00000000000E+00 -0.00000000000E+00 -0.13192617527E+04  0.13192617527E+04  0.00000000000E+00 0. -1.
         24    2    1    2    0    0  0.10257759469E+02 -0.18178520272E+02 -0.13017442771E+04  0.13044569512E+04  0.81449950502E+02 0.  0.
        -11    1    3    3    0    0  0.41065638641E+02 -0.16340438988E+02 -0.45280975082E+03  0.45496161054E+03  0.00000000000E+00 0.  1.
         12    1    3    3    0    0 -0.30807879172E+02 -0.18380812844E+01 -0.84893452624E+03  0.84949534066E+03  0.00000000000E+00 0. -1.
          1    1    1    2  501    0 -0.10257759469E+02  0.18178520272E+02 -0.94215109067E+01  0.22900766284E+02  0.00000000000E+00 0. -1.
<mgrwt>
<rscale>  1 0.84081952E+02</rscale>
<asrwt>0</asrwt>
<pdfrwt beam="1">  1       21 0.12455326E-02 0.84081952E+02</pdfrwt>
<pdfrwt beam="2">  1        2 0.20296343E+00 0.84081952E+02</pdfrwt>
<totfact> 0.56009049E+05</totfact>
</mgrwt>
</event>
<event>
 6    2  0.7993170E+000  0.9053390E+02  0.7546771E-02  0.1301564E+00
         21   -1    0    0  501  502  0.00000000000E+00  0.00000000000E+00  0.17537821544E+01  0.17537821544E+01  0.00000000000E+00 0.  1.
          2   -1    0    0  502    0 -0.00000000000E+00 -0.00000000000E+00 -0.23962729986E+04  0.23962729986E+04  0.00000000000E+00 0. -1.
         24    2    1    2    0    0 -0.34127531053E+02  0.19101864593E+02 -0.16860310468E+04  0.16884599720E+04  0.81650575936E+02 0.  0.
        -13    1    3    3    0    0 -0.20115563159E+01  0.14974755002E+02 -0.53096533134E+02  0.55204451605E+02  0.00000000000E+00 0.  1.
         14    1    3    3    0    0 -0.32115974737E+02  0.41271095909E+01 -0.16329345137E+04  0.16332555204E+04  0.00000000000E+00 0. -1.
          1    1    1    2  501    0  0.34127531053E+02 -0.19101864593E+02 -0.70848816970E+03  0.70956680884E+03  0.00000000000E+00 0. -1.
<mgrwt>
<rscale>  1 0.90533895E+02</rscale>
<asrwt>0</asrwt>
<pdfrwt beam="1">  1       21 0.26981145E-03 0.90533895E+02</pdfrwt>
<pdfrwt beam="2">  1        2 0.36865901E+00 0.90533895E+02</pdfrwt>
<totfact> 0.16811727E+06</totfact>
</mgrwt>
</event>
<event>
 6    2  0.7993170E+000  0.8511233E+02  0.7546771E-02  0.1315139E+00
          2   -1    0    0  502    0 -0.00000000000E+00  0.00000000000E+00  0.35462475004E+03  0.35462475004E+03  0.00000000000E+00 0. -1.
         21   -1    0    0  501  502  0.00000000000E+00 -0.00000000000E+00 -0.11198196526E+02  0.11198196526E+02  0.00000000000E+00 0. -1.
         24    2    1    2    0    0  0.11149495805E+02 -0.26368577747E+02  0.17072553283E+03  0.19076508272E+03  0.80152954254E+02 0.  0.
        -11    1    3    3    0    0  0.37328917996E+00  0.27046429976E+02  0.33112183306E+02  0.42755881497E+02  0.00000000000E+00 0.  1.
         12    1    3    3    0    0  0.10776206625E+02 -0.53415007723E+02  0.13761334952E+03  0.14800920122E+03  0.00000000000E+00 0. -1.
          1    1    1    2  501    0 -0.11149495805E+02  0.26368577747E+02  0.17270102069E+03  0.17505786385E+03  0.00000000000E+00 0. -1.
<mgrwt>
<rscale>  1 0.85112333E+02</rscale>
<asrwt>0</asrwt>
<pdfrwt beam="1">  1       21 0.17227997E-02 0.85112333E+02</pdfrwt>
<pdfrwt beam="2">  1        2 0.54557645E-01 0.85112333E+02</pdfrwt>
<totfact> 0.16407005E+06</totfact>
</mgrwt>
</event>
<event>
 6    2  0.7993170E+000  0.8685542E+02  0.7546771E-02  0.1310650E+00
         21   -1    0    0  501  502  0.00000000000E+00  0.00000000000E+00  0.49113974904E+02  0.49113974904E+02  0.00000000000E+00 0.  1.
         -1   -1    0    0    0  501 -0.00000000000E+00 -0.00000000000E+00 -0.11805697357E+03  0.11805697357E+03  0.00000000000E+00 0.  1.
         24    2    1    2    0    0  0.18206866607E+02 -0.19915865531E+02 -0.95653229701E+02  0.12920296020E+03  0.82557451996E+02 0.  0.
        -13    1    3    3    0    0  0.38370963277E+02  0.71895318043E+01 -0.85397440451E+02  0.93897513417E+02  0.00000000000E+00 0.  1.
         14    1    3    3    0    0 -0.20164096670E+02 -0.27105397335E+02 -0.10255789250E+02  0.35305446781E+02  0.00000000000E+00 0. -1.
         -2    1    1    2    0  502 -0.18206866607E+02  0.19915865531E+02  0.26710231037E+02  0.37967988274E+02  0.00000000000E+00 0.  1.
<mgrwt>
<rscale>  1 0.86855423E+02</rscale>
<asrwt>0</asrwt>
<pdfrwt beam="1">  1       21 0.75559963E-02 0.86855423E+02</pdfrwt>
<pdfrwt beam="2">  1       -1 0.18162611E-01 0.86855423E+02</pdfrwt>
<totfact> 0.26622158E+05</totfact>
</mgrwt>
</event>
<event>
 6    2  0.7993170E+000  0.9252982E+02  0.7546771E-02  0.1296838E+00
         21   -1    0    0  501  502  0.00000000000E+00  0.00000000000E+00  0.39508861883E+01  0.39508861883E+01  0.00000000000E+00 0.  1.
          2   -1    0    0  502    0 -0.00000000000E+00 -0.00000000000E+00 -0.12465258862E+04  0.12465258862E+04  0.00000000000E+00 0. -1.
         24    2    1    2    0    0  0.25690519350E+02  0.38310639297E+02 -0.91571766366E+03  0.92038068608E+03  0.80212591937E+02 0.  0.
        -13    1    3    3    0    0  0.11254891034E+02  0.26392368637E+01 -0.15476113226E+02  0.19317044908E+02  0.00000000000E+00 0.  1.
         14    1    3    3    0    0  0.14435628316E+02  0.35671402433E+02 -0.90024155044E+03  0.90106364118E+03  0.00000000000E+00 0. -1.
          1    1    1    2  501    0 -0.25690519350E+02 -0.38310639297E+02 -0.32685733632E+03  0.33009608627E+03  0.00000000000E+00 0. -1.
<mgrwt>
<rscale>  1 0.92529821E+02</rscale>
<asrwt>0</asrwt>
<pdfrwt beam="1">  1       21 0.60782754E-03 0.92529821E+02</pdfrwt>
<pdfrwt beam="2">  1        2 0.19177356E+00 0.92529821E+02</pdfrwt>
<totfact> 0.18814799E+06</totfact>
</mgrwt>
</event>
<event>
 6    2  0.7993170E+000  0.8638511E+02  0.7546771E-02  0.1311850E+00
         -3   -1    0    0    0  501 -0.00000000000E+00  0.00000000000E+00  0.60536108262E+02  0.60536108262E+02  0.00000000000E+00 0.  1.
         21   -1    0    0  501  502  0.00000000000E+00 -0.00000000000E+00 -0.72789914031E+02  0.72789914031E+02  0.00000000000E+00 0. -1.
         24    2    1    2    0    0  0.25422810635E+01  0.46302455110E+02 -0.84912263792E+01  0.86801431528E+02  0.72883516982E+02 0.  0.
        -11    1    3    3    0    0 -0.16355942351E+02 -0.85669203533E+01  0.15400239194E+02  0.24043218208E+02  0.00000000000E+00 0.  1.
         12    1    3    3    0    0  0.18898223415E+02  0.54869375463E+02 -0.23891465573E+02  0.62758213320E+02  0.00000000000E+00 0. -1.
         -4    1    1    2    0  502 -0.25422810635E+01 -0.46302455110E+02 -0.37625793898E+01  0.46524590765E+02  0.00000000000E+00 0.  1.
<mgrwt>
<rscale>  1 0.86385112E+02</rscale>
<asrwt>0</asrwt>
<pdfrwt beam="1">  1       21 0.11198448E-01 0.86385112E+02</pdfrwt>
<pdfrwt beam="2">  1       -3 0.93132475E-02 0.86385112E+02</pdfrwt>
<totfact> 0.24371844E+05</totfact>
</mgrwt>
</event>
<event>
 6    2  0.7993170E+000  0.8423900E+02  0.7546771E-02  0.1317435E+00
         21   -1    0    0  501  502  0.00000000000E+00  0.00000000000E+00  0.64571770980E+01  0.64571770980E+01  0.00000000000E+00 0.  1.
          2   -1    0    0  502    0 -0.00000000000E+00 -0.00000000000E+00 -0.77526391403E+03  0.77526391403E+03  0.00000000000E+00 0. -1.
         24    2    1    2    0    0 -0.32735762173E+02  0.24660418474E+01 -0.70451019716E+03  0.70952859488E+03  0.77578976326E+02 0.  0.
        -13    1    3    3    0    0 -0.71268920318E+01 -0.30191265469E+02 -0.13543881991E+03  0.13894595726E+03  0.00000000000E+00 0.  1.
         14    1    3    3    0    0 -0.25608870141E+02  0.32657307316E+02 -0.56907137725E+03  0.57058263762E+03  0.00000000000E+00 0. -1.
          1    1    1    2  501    0  0.32735762173E+02 -0.24660418474E+01 -0.64296539778E+02  0.72192496251E+02  0.00000000000E+00 0. -1.
<mgrwt>
<rscale>  1 0.84239000E+02</rscale>
<asrwt>0</asrwt>
<pdfrwt beam="1">  1       21 0.99341126E-03 0.84239000E+02</pdfrwt>
<pdfrwt beam="2">  1        2 0.11927144E+00 0.84239000E+02</pdfrwt>
<totfact> 0.16515518E+06</totfact>
</mgrwt>
</event>
<event>
 6    2  0.7993170E+000  0.8748711E+02  0.7546771E-02  0.1309054E+00
         21   -1    0    0  501  502  0.00000000000E+00  0.00000000000E+00  0.60441868741E+01  0.60441868741E+01  0.00000000000E+00 0. -1.
          2   -1    0    0  502    0 -0.00000000000E+00 -0.00000000000E+00 -0.17081643111E+04  0.17081643111E+04  0.00000000000E+00 0. -1.
         24    2    1    2    0    0  0.55449747936E+01  0.29312317866E+02 -0.16615456724E+04  0.16638473536E+04  0.82243758217E+02 0.  0.
        -11    1    3    3    0    0  0.88762971212E+00 -0.28927724959E+02 -0.51019536008E+03  0.51101556395E+03  0.00000000000E+00 0.  1.
         12    1    3    3    0    0  0.46573450815E+01  0.58240042825E+02 -0.11513503123E+04  0.11528317896E+04  0.00000000000E+00 0. -1.
          1    1    1    2  501    0 -0.55449747936E+01 -0.29312317866E+02 -0.40574451765E+02  0.50361144350E+02  0.00000000000E+00 0. -1.
<mgrwt>
<rscale>  1 0.87487110E+02</rscale>
<asrwt>0</asrwt>
<pdfrwt beam="1">  1       21 0.92987398E-03 0.87487110E+02</pdfrwt>
<pdfrwt beam="2">  1        2 0.26279477E+00 0.87487110E+02</pdfrwt>
<totfact> 0.56145182E+05</totfact>
</mgrwt>
</event>
<event>
 6    2  0.7993170E+000  0.8952325E+02  0.7546771E-02  0.1304010E+00
         21   -1    0    0  501  502  0.00000000000E+00  0.00000000000E+00  0.20987178257E+02  0.20987178257E+02  0.00000000000E+00 0. -1.
          4   -1    0    0  502    0 -0.00000000000E+00 -0.00000000000E+00 -0.21254903656E+03  0.21254903656E+03  0.00000000000E+00 0. -1.
         24    2    1    2    0    0  0.32843498229E+01 -0.37234840198E+02 -0.16486203544E+03  0.18760038110E+03  0.81346124558E+02 0.  0.
        -11    1    3    3    0    0 -0.39025673070E+02 -0.19805038299E+02 -0.80386094957E+02  0.91526864706E+02  0.00000000000E+00 0.  1.
         12    1    3    3    0    0  0.42310022893E+02 -0.17429801899E+02 -0.84475940484E+02  0.96073516393E+02  0.00000000000E+00 0. -1.
          3    1    1    2  501    0 -0.32843498229E+01  0.37234840198E+02 -0.26699822858E+02  0.45935833714E+02  0.00000000000E+00 0. -1.
<mgrwt>
<rscale>  1 0.89523250E+02</rscale>
<asrwt>0</asrwt>
<pdfrwt beam="1">  1       21 0.32287967E-02 0.89523250E+02</pdfrwt>
<pdfrwt beam="2">  1        4 0.32699851E-01 0.89523250E+02</pdfrwt>
<totfact> 0.18793593E+05</totfact>
</mgrwt>
</event>
<event>
 6    2  0.7993170E+000  0.8418382E+02  0.7546771E-02  0.1317581E+00
          2   -1    0    0  502    0 -0.00000000000E+00  0.00000000000E+00  0.10766508494E+04  0.10766508494E+04  0.00000000000E+00 0. -1.
         21   -1    0    0  501  502  0.00000000000E+00 -0.00000000000E+00 -0.31401765312E+01  0.31401765312E+01  0.00000000000E+00 0. -1.
         24    2    1    2    0    0 -0.35522371184E+01  0.23361137549E+02  0.96863383994E+03  0.97228515994E+03  0.80799475465E+02 0.  0.
        -13    1    3    3    0    0 -0.37040928807E+02  0.21578153316E+02  0.33018253467E+03  0.33295368042E+03  0.00000000000E+00 0.  1.
         14    1    3    3    0    0  0.33488691688E+02  0.17829842332E+01  0.63845130527E+03  0.63933147952E+03  0.00000000000E+00 0. -1.
          1    1    1    2  501    0  0.35522371184E+01 -0.23361137549E+02  0.10487683289E+03  0.10750586595E+03  0.00000000000E+00 0. -1.
<mgrwt>
<rscale>  1 0.84183825E+02</rscale>
<asrwt>0</asrwt>
<pdfrwt beam="1">  1       21 0.48310494E-03 0.84183825E+02</pdfrwt>
<pdfrwt beam="2">  1        2 0.16563830E+00 0.84183825E+02</pdfrwt>
<totfact> 0.32882318E+06</totfact>
</mgrwt>
</event>
<event>
 6    2  0.7993170E+000  0.9065911E+02  0.7546771E-02  0.1301263E+00
          2   -1    0    0  502    0 -0.00000000000E+00  0.00000000000E+00  0.27810372472E+03  0.27810372472E+03  0.00000000000E+00 0. -1.
         21   -1    0    0  501  502  0.00000000000E+00 -0.00000000000E+00 -0.18527815128E+02  0.18527815128E+02  0.00000000000E+00 0. -1.
         24    2    1    2    0    0  0.34252726438E+01  0.38157025425E+02  0.23297108231E+03  0.24998919947E+03  0.82166803348E+02 0.  0.
        -11    1    3    3    0    0 -0.25382958422E+02  0.25889625566E+02  0.38008225066E+02  0.52528015981E+02  0.00000000000E+00 0.  1.
         12    1    3    3    0    0  0.28808231066E+02  0.12267399858E+02  0.19496285725E+03  0.19746118348E+03  0.00000000000E+00 0. -1.
          1    1    1    2  501    0 -0.34252726438E+01 -0.38157025425E+02  0.26604827276E+02  0.46642340382E+02  0.00000000000E+00 0. -1.
<mgrwt>
<rscale>  1 0.90659112E+02</rscale>
<asrwt>0</asrwt>
<pdfrwt beam="1">  1       21 0.28504333E-02 0.90659112E+02</pdfrwt>
<pdfrwt beam="2">  1        2 0.42785185E-01 0.90659112E+02</pdfrwt>
<totfact> 0.94910462E+05</totfact>
</mgrwt>
</event>
<event>
 6    2  0.7993170E+000  0.8939955E+02  0.7546771E-02  0.1304312E+00
          2   -1    0    0  502    0 -0.00000000000E+00  0.00000000000E+00  0.10327322761E+04  0.10327322761E+04  0.00000000000E+00 0. -1.
         21   -1    0    0  501  502  0.00000000000E+00 -0.00000000000E+00 -0.26369292198E+02  0.26369292198E+02  0.00000000000E+00 0. -1.
         24    2    1    2    0    0  0.14186940969E+02  0.35806266439E+02  0.10155738276E+04  0.10195010929E+04  0.80677884525E+02 0.  0.
        -11    1    3    3    0    0  0.58035258453E+01  0.17541027519E+02  0.44030288861E+02  0.47749710950E+02  0.00000000000E+00 0.  1.
         12    1    3    3    0    0  0.83834151237E+01  0.18265238920E+02  0.97154353875E+03  0.97175138194E+03  0.00000000000E+00 0. -1.
          1    1    1    2  501    0 -0.14186940969E+02 -0.35806266439E+02 -0.92108437181E+01  0.39600475406E+02  0.00000000000E+00 0. -1.
<mgrwt>
<rscale>  1 0.89399547E+02</rscale>
<asrwt>0</asrwt>
<pdfrwt beam="1">  1       21 0.40568150E-02 0.89399547E+02</pdfrwt>
<pdfrwt beam="2">  1        2 0.15888186E+00 0.89399547E+02</pdfrwt>
<totfact> 0.12089160E+05</totfact>
</mgrwt>
</event>
<event>
 6    2  0.7993170E+000  0.9195799E+02  0.7546771E-02  0.1298178E+00
         21   -1    0    0  501  502  0.00000000000E+00  0.00000000000E+00  0.28279987289E+01  0.28279987289E+01  0.00000000000E+00 0. -1.
         -1   -1    0    0    0  501 -0.00000000000E+00 -0.00000000000E+00 -0.17243526634E+04  0.17243526634E+04  0.00000000000E+00 0.  1.
         24    2    1    2    0    0 -0.82136786885E+00  0.42836921898E+02 -0.94149552091E+03  0.94597573278E+03  0.81367036271E+02 0.  0.
        -13    1    3    3    0    0  0.10804756522E+02  0.95578989023E+01 -0.80084601139E+03  0.80097592358E+03  0.00000000000E+00 0.  1.
         14    1    3    3    0    0 -0.11626124391E+02  0.33279022996E+02 -0.14064950953E+03  0.14499980921E+03  0.00000000000E+00 0. -1.
         -2    1    1    2    0  502  0.82136786885E+00 -0.42836921898E+02 -0.78002914381E+03  0.78120492939E+03  0.00000000000E+00 0.  1.
<mgrwt>
<rscale>  1 0.91957986E+02</rscale>
<asrwt>0</asrwt>
<pdfrwt beam="1">  1       21 0.43507586E-03 0.91957986E+02</pdfrwt>
<pdfrwt beam="2">  1       -1 0.26528556E+00 0.91957986E+02</pdfrwt>
<totfact> 0.82524986E+04</totfact>
</mgrwt>
</event>
<event>
 6    2  0.7993170E+000  0.8826872E+02  0.7546771E-02  0.1307099E+00
         -1   -1    0    0    0  501 -0.00000000000E+00  0.00000000000E+00  0.17809117266E+04  0.17809117266E+04  0.00000000000E+00 0.  1.
         21   -1    0    0  501  502  0.00000000000E+00 -0.00000000000E+00 -0.61973958416E+01  0.61973958416E+01  0.00000000000E+00 0.  1.
         24    2    1    2    0    0 -0.99661837223E+01 -0.35331678999E+02  0.17132076072E+04  0.17154800124E+04  0.80272755672E+02 0.  0.
        -13    1    3    3    0    0 -0.85136694769E+01 -0.47550951983E+02  0.16658359599E+04  0.16665362345E+04  0.00000000000E+00 0.  1.
         14    1    3    3    0    0 -0.14525142453E+01  0.12219272984E+02  0.47371647342E+02  0.48943777968E+02  0.00000000000E+00 0. -1.
         -2    1    1    2    0  502  0.99661837223E+01  0.35331678999E+02  0.61506723559E+02  0.71629110017E+02  0.00000000000E+00 0.  1.
<mgrwt>
<rscale>  1 0.88268724E+02</rscale>
<asrwt>0</asrwt>
<pdfrwt beam="1">  1       21 0.95344693E-03 0.88268724E+02</pdfrwt>
<pdfrwt beam="2">  1       -1 0.27398601E+00 0.88268724E+02</pdfrwt>
<totfact> 0.21744891E+04</totfact>
</mgrwt>
</event>
<event>
 6    2  0.7993170E+000  0.9853977E+02  0.7546771E-02  0.1283397E+00
          2   -1    0    0  502    0 -0.00000000000E+00  0.00000000000E+00  0.28760909568E+03  0.28760909568E+03  0.00000000000E+00 0. -1.
         21   -1    0    0  501  502  0.00000000000E+00 -0.00000000000E+00 -0.21655434341E+02  0.21655434341E+02  0.00000000000E+00 0. -1.
         24    2    1    2    0    0 -0.57818493453E+02 -0.77753799955E-01  0.18737856590E+03  0.21170926438E+03  0.79794119054E+02 0.  0.
        -13    1    3    3    0    0 -0.24616258846E+02 -0.16094724757E+02  0.16703541388E+03  0.16960492285E+03  0.00000000000E+00 0.  1.
         14    1    3    3    0    0 -0.33202234607E+02  0.16016970957E+02  0.20343152013E+02  0.42104341526E+02  0.00000000000E+00 0. -1.
          1    1    1    2  501    0  0.57818493453E+02  0.77753799955E-01  0.78575095443E+02  0.97555265643E+02  0.00000000000E+00 0. -1.
<mgrwt>
<rscale>  1 0.98539767E+02</rscale>
<asrwt>0</asrwt>
<pdfrwt beam="1">  1       21 0.33316055E-02 0.98539767E+02</pdfrwt>
<pdfrwt beam="2">  1        2 0.44247550E-01 0.98539767E+02</pdfrwt>
<totfact> 0.71627603E+05</totfact>
</mgrwt>
</event>
<event>
 6    2  0.7993170E+000  0.8552642E+02  0.7546771E-02  0.1314062E+00
         -1   -1    0    0    0  501 -0.00000000000E+00  0.00000000000E+00  0.20045601181E+02  0.20045601181E+02  0.00000000000E+00 0.  1.
         21   -1    0    0  501  502  0.00000000000E+00 -0.00000000000E+00 -0.18211207789E+03  0.18211207789E+03  0.00000000000E+00 0.  1.
         24    2    1    2    0    0  0.34501590384E+02  0.22183818366E+01 -0.12512200894E+03  0.15155951057E+03  0.78227151081E+02 0.  0.
        -13    1    3    3    0    0  0.30033325916E+02  0.15549012037E+02 -0.95593695706E+01  0.35144757610E+02  0.00000000000E+00 0.  1.
         14    1    3    3    0    0  0.44682644680E+01 -0.13330630200E+02 -0.11556263937E+03  0.11641475296E+03  0.00000000000E+00 0. -1.
         -2    1    1    2    0  502 -0.34501590384E+02 -0.22183818366E+01 -0.36944467773E+02  0.50598168505E+02  0.00000000000E+00 0.  1.
<mgrwt>
<rscale>  1 0.85526418E+02</rscale>
<asrwt>0</asrwt>
<pdfrwt beam="1">  1       21 0.28017242E-01 0.85526418E+02</pdfrwt>
<pdfrwt beam="2">  1       -1 0.30839387E-02 0.85526418E+02</pdfrwt>
<totfact> 0.36142409E+05</totfact>
</mgrwt>
</event>
<event>
 6    2  0.7993170E+000  0.8450774E+02  0.7546771E-02  0.1316725E+00
          2   -1    0    0  502    0 -0.00000000000E+00  0.00000000000E+00  0.40765948478E+03  0.40765948478E+03  0.00000000000E+00 0. -1.
         21   -1    0    0  501  502  0.00000000000E+00 -0.00000000000E+00 -0.76590299207E+01  0.76590299207E+01  0.00000000000E+00 0.  1.
         24    2    1    2    0    0 -0.26246635266E+02 -0.43246604571E+01  0.32210848096E+03  0.33300965644E+03  0.80212026671E+02 0.  0.
        -11    1    3    3    0    0 -0.43245271495E+02 -0.19074420448E+02  0.11018669496E+03  0.11989618329E+03  0.00000000000E+00 0.  1.
         12    1    3    3    0    0  0.16998636229E+02  0.14749759991E+02  0.21192178600E+03  0.21311347315E+03  0.00000000000E+00 0. -1.
          1    1    1    2  501    0  0.26246635266E+02  0.43246604571E+01  0.77891973899E+02  0.82308858264E+02  0.00000000000E+00 0. -1.
<mgrwt>
<rscale>  1 0.84507738E+02</rscale>
<asrwt>0</asrwt>
<pdfrwt beam="1">  1       21 0.11783126E-02 0.84507738E+02</pdfrwt>
<pdfrwt beam="2">  1        2 0.62716827E-01 0.84507738E+02</pdfrwt>
<totfact> 0.25801582E+06</totfact>
</mgrwt>
</event>
<event>
 6    2  0.7993170E+000  0.8553885E+02  0.7546771E-02  0.1314029E+00
         21   -1    0    0  501  502  0.00000000000E+00  0.00000000000E+00  0.96641912981E+00  0.96641912981E+00  0.00000000000E+00 0.  1.
          2   -1    0    0  502    0 -0.00000000000E+00 -0.00000000000E+00 -0.47177927732E+04  0.47177927732E+04  0.00000000000E+00 0. -1.
         24    2    1    2    0    0  0.13092329919E+02 -0.25658401529E+02 -0.43364937703E+04  0.43373373301E+04  0.80542740132E+02 0.  0.
        -13    1    3    3    0    0  0.46049809717E+02 -0.56819445584E+01 -0.21105798740E+04  0.21110898309E+04  0.00000000000E+00 0.  1.
         14    1    3    3    0    0 -0.32957479798E+02 -0.19976456970E+02 -0.22259138963E+04  0.22262474993E+04  0.00000000000E+00 0. -1.
          1    1    1    2  501    0 -0.13092329919E+02  0.25658401529E+02 -0.38033258381E+03  0.38142186222E+03  0.00000000000E+00 0. -1.
<mgrwt>
<rscale>  1 0.85538855E+02</rscale>
<asrwt>0</asrwt>
<pdfrwt beam="1">  1       21 0.14867883E-03 0.85538855E+02</pdfrwt>
<pdfrwt beam="2">  1        2 0.72581935E+00 0.85538855E+02</pdfrwt>
<totfact> 0.10807537E+05</totfact>
</mgrwt>
</event>
<event>
 6    2  0.7993170E+000  0.2164595E+03  0.7546771E-02  0.1136551E+00
         21   -1    0    0  501  502  0.00000000000E+00  0.00000000000E+00  0.10269459339E+03  0.10269459339E+03  0.00000000000E+00 0. -1.
          2   -1    0    0  502    0 -0.00000000000E+00 -0.00000000000E+00 -0.53773897249E+03  0.53773897249E+03  0.00000000000E+00 0. -1.
         24    2    1    2    0    0  0.15592550835E+03 -0.12683878941E+03 -0.37090664774E+03  0.42944899005E+03  0.80335864124E+02 0.  0.
        -13    1    3    3    0    0  0.45271194154E+01 -0.22708106359E+02 -0.11635437153E+02  0.25914017488E+02  0.00000000000E+00 0.  1.
         14    1    3    3    0    0  0.15139838893E+03 -0.10413068305E+03 -0.35927121058E+03  0.40353497256E+03  0.00000000000E+00 0. -1.
          1    1    1    2  501    0 -0.15592550835E+03  0.12683878941E+03 -0.64137731365E+02  0.21098457583E+03  0.00000000000E+00 0. -1.
<mgrwt>
<rscale>  1 0.21645945E+03</rscale>
<asrwt>0</asrwt>
<pdfrwt beam="1">  1       21 0.15799168E-01 0.21645945E+03</pdfrwt>
<pdfrwt beam="2">  1        2 0.82729074E-01 0.21645945E+03</pdfrwt>
<totfact> 0.25555623E+04</totfact>
</mgrwt>
</event>
<event>
 6    2  0.7993170E+000  0.1273776E+03  0.7546771E-02  0.1231400E+00
         21   -1    0    0  501  502  0.00000000000E+00  0.00000000000E+00  0.13250013285E+02  0.13250013285E+02  0.00000000000E+00 0.  1.
          2   -1    0    0  502    0 -0.00000000000E+00 -0.00000000000E+00 -0.98494709878E+03  0.98494709878E+03  0.00000000000E+00 0. -1.
         24    2    1    2    0    0  0.59789979102E+01 -0.98520946122E+02 -0.47462981462E+03  0.49142497686E+03  0.80516592818E+02 0.  0.
        -13    1    3    3    0    0  0.38050096921E+02 -0.76164922956E+02 -0.27040837672E+03  0.28349531841E+03  0.00000000000E+00 0.  1.
         14    1    3    3    0    0 -0.32071099011E+02 -0.22356023165E+02 -0.20422143790E+03  0.20792965845E+03  0.00000000000E+00 0. -1.
          1    1    1    2  501    0 -0.59789979102E+01  0.98520946122E+02 -0.49706727088E+03  0.50677213521E+03  0.00000000000E+00 0. -1.
<mgrwt>
<rscale>  1 0.12737758E+03</rscale>
<asrwt>0</asrwt>
<pdfrwt beam="1">  1       21 0.20384645E-02 0.12737758E+03</pdfrwt>
<pdfrwt beam="2">  1        2 0.15153026E+00 0.12737758E+03</pdfrwt>
<totfact> 0.40086386E+05</totfact>
</mgrwt>
</event>
<event>
 6    2  0.7993170E+000  0.8759066E+02  0.7546771E-02  0.1308793E+00
         -3   -1    0    0    0  501 -0.00000000000E+00  0.00000000000E+00  0.99138131555E+02  0.99138131555E+02  0.00000000000E+00 0.  1.
         21   -1    0    0  501  502  0.00000000000E+00 -0.00000000000E+00 -0.37486017116E+02  0.37486017116E+02  0.00000000000E+00 0. -1.
         24    2    1    2    0    0  0.30600446460E+02  0.58453641949E+01  0.30987038563E+02  0.92910278051E+02  0.81863102815E+02 0.  0.
        -11    1    3    3    0    0 -0.35591095035E+01  0.13394694627E+02  0.50833518802E+02  0.52689009654E+02  0.00000000000E+00 0.  1.
         12    1    3    3    0    0  0.34159555963E+02 -0.75493304322E+01 -0.19846480239E+02  0.40221268397E+02  0.00000000000E+00 0. -1.
         -4    1    1    2    0  502 -0.30600446460E+02 -0.58453641949E+01  0.30665075876E+02  0.43713870620E+02  0.00000000000E+00 0.  1.
<mgrwt>
<rscale>  1 0.87590657E+02</rscale>
<asrwt>0</asrwt>
<pdfrwt beam="1">  1       21 0.57670796E-02 0.87590657E+02</pdfrwt>
<pdfrwt beam="2">  1       -3 0.15252020E-01 0.87590657E+02</pdfrwt>
<totfact> 0.33470048E+05</totfact>
</mgrwt>
</event>
<event>
 6    2  0.7993170E+000  0.9272370E+02  0.7546771E-02  0.1296387E+00
          2   -1    0    0  502    0 -0.00000000000E+00  0.00000000000E+00  0.26643972103E+04  0.26643972103E+04  0.00000000000E+00 0. -1.
         21   -1    0    0  501  502  0.00000000000E+00 -0.00000000000E+00 -0.19743514565E+01  0.19743514565E+01  0.00000000000E+00 0.  1.
         24    2    1    2    0    0 -0.44099127659E+02 -0.19164085700E+01  0.13356662029E+04  0.13388808350E+04  0.81543110866E+02 0.  0.
        -13    1    3    3    0    0 -0.32850320172E+02  0.31225550868E+02  0.10646252361E+04  0.10655895419E+04  0.00000000000E+00 0.  1.
         14    1    3    3    0    0 -0.11248807486E+02 -0.33141959438E+02  0.27104096683E+03  0.27329129303E+03  0.00000000000E+00 0. -1.
          1    1    1    2  501    0  0.44099127659E+02  0.19164085700E+01  0.13267566559E+04  0.13274907268E+04  0.00000000000E+00 0. -1.
<mgrwt>
<rscale>  1 0.92723700E+02</rscale>
<asrwt>0</asrwt>
<pdfrwt beam="1">  1       21 0.30374851E-03 0.92723700E+02</pdfrwt>
<pdfrwt beam="2">  1        2 0.40990439E+00 0.92723700E+02</pdfrwt>
<totfact> 0.10158782E+06</totfact>
</mgrwt>
</event>
<event>
 6    2  0.7993170E+000  0.8707733E+02  0.7546771E-02  0.1310088E+00
         21   -1    0    0  501  502  0.00000000000E+00  0.00000000000E+00  0.15458587609E+02  0.15458587609E+02  0.00000000000E+00 0.  1.
          2   -1    0    0  502    0 -0.00000000000E+00 -0.00000000000E+00 -0.22959475350E+03  0.22959475350E+03  0.00000000000E+00 0. -1.
         24    2    1    2    0    0 -0.25342455502E+02  0.19291260764E+02 -0.14995350569E+03  0.17340275379E+03  0.81043620111E+02 0.  0.
        -13    1    3    3    0    0 -0.69255411650E+01 -0.27261378223E+02 -0.21089219524E+02  0.35155384270E+02  0.00000000000E+00 0.  1.
         14    1    3    3    0    0 -0.18416914337E+02  0.46552638986E+02 -0.12886428617E+03  0.13824736952E+03  0.00000000000E+00 0. -1.
          1    1    1    2  501    0  0.25342455502E+02 -0.19291260764E+02 -0.64182660200E+02  0.71650587318E+02  0.00000000000E+00 0. -1.
<mgrwt>
<rscale>  1 0.87077329E+02</rscale>
<asrwt>0</asrwt>
<pdfrwt beam="1">  1       21 0.23782443E-02 0.87077329E+02</pdfrwt>
<pdfrwt beam="2">  1        2 0.35322270E-01 0.87077329E+02</pdfrwt>
<totfact> 0.15480788E+06</totfact>
</mgrwt>
</event>
<event>
 6    2  0.7993170E+000  0.8423045E+02  0.7546771E-02  0.1317457E+00
         21   -1    0    0  501  502  0.00000000000E+00  0.00000000000E+00  0.18396405011E+01  0.18396405011E+01  0.00000000000E+00 0.  1.
          2   -1    0    0  502    0 -0.00000000000E+00 -0.00000000000E+00 -0.17706416253E+04  0.17706416253E+04  0.00000000000E+00 0. -1.
         24    2    1    2    0    0  0.21739893306E+02 -0.96558970002E+01 -0.10845498744E+04  0.10878157928E+04  0.80801669157E+02 0.  0.
        -11    1    3    3    0    0  0.41181499766E+02 -0.15572301212E+02 -0.32209496523E+03  0.32509010922E+03  0.00000000000E+00 0.  1.
         12    1    3    3    0    0 -0.19441606459E+02  0.59164042117E+01 -0.76245490918E+03  0.76272568360E+03  0.00000000000E+00 0. -1.
          1    1    1    2  501    0 -0.21739893306E+02  0.96558970002E+01 -0.68425211036E+03  0.68466547294E+03  0.00000000000E+00 0. -1.
<mgrwt>
<rscale>  1 0.84230452E+02</rscale>
<asrwt>0</asrwt>
<pdfrwt beam="1">  1       21 0.28302310E-03 0.84230452E+02</pdfrwt>
<pdfrwt beam="2">  1        2 0.27240497E+00 0.84230452E+02</pdfrwt>
<totfact> 0.32246230E+06</totfact>
</mgrwt>
</event>
<event>
 6    2  0.7993170E+000  0.1099283E+03  0.7546771E-02  0.1260703E+00
         21   -1    0    0  501  502  0.00000000000E+00  0.00000000000E+00  0.26019093550E+02  0.26019093550E+02  0.00000000000E+00 0. -1.
          2   -1    0    0  502    0 -0.00000000000E+00 -0.00000000000E+00 -0.11000695636E+04  0.11000695636E+04  0.00000000000E+00 0. -1.
         24    2    1    2    0    0  0.68150927392E+02 -0.41835422978E+02 -0.10278967656E+04  0.10337581857E+04  0.75428603771E+02 0.  0.
        -13    1    3    3    0    0 -0.63934843877E+01 -0.10505207041E+02 -0.27809526694E+02  0.30407331230E+02  0.00000000000E+00 0.  1.
         14    1    3    3    0    0  0.74544411780E+02 -0.31330215937E+02 -0.10000872389E+04  0.10033508545E+04  0.00000000000E+00 0. -1.
          1    1    1    2  501    0 -0.68150927392E+02  0.41835422978E+02 -0.46153704427E+02  0.92330471419E+02  0.00000000000E+00 0. -1.
<mgrwt>
<rscale>  1 0.10992828E+03</rscale>
<asrwt>0</asrwt>
<pdfrwt beam="1">  1       21 0.40029370E-02 0.10992828E+03</pdfrwt>
<pdfrwt beam="2">  1        2 0.16924149E+00 0.10992828E+03</pdfrwt>
<totfact> 0.11356363E+05</totfact>
</mgrwt>
</event>
<event>
 6    2  0.7993170E+000  0.8422505E+02  0.7546771E-02  0.1317472E+00
          2   -1    0    0  502    0 -0.00000000000E+00  0.00000000000E+00  0.28272155139E+03  0.28272155139E+03  0.00000000000E+00 0. -1.
         21   -1    0    0  501  502  0.00000000000E+00 -0.00000000000E+00 -0.10860638043E+02  0.10860638043E+02  0.00000000000E+00 0.  1.
         24    2    1    2    0    0  0.20712439554E+02  0.10846731772E+02  0.23774639244E+03  0.25222451446E+03  0.80914781311E+02 0.  0.
        -13    1    3    3    0    0  0.17257104248E+01  0.96916025597E+01 -0.33351735626E+01  0.10393681703E+02  0.00000000000E+00 0.  1.
         14    1    3    3    0    0  0.18986729130E+02  0.11551292125E+01  0.24108156600E+03  0.24183083276E+03  0.00000000000E+00 0. -1.
          1    1    1    2  501    0 -0.20712439554E+02 -0.10846731772E+02  0.34114520910E+02  0.41357674975E+02  0.00000000000E+00 0. -1.
<mgrwt>
<rscale>  1 0.84225047E+02</rscale>
<asrwt>0</asrwt>
<pdfrwt beam="1">  1       21 0.16708676E-02 0.84225047E+02</pdfrwt>
<pdfrwt beam="2">  1        2 0.43495618E-01 0.84225047E+02</pdfrwt>
<totfact> 0.21786560E+06</totfact>
</mgrwt>
</event>
<event>
 6    2  0.7993170E+000  0.8424233E+02  0.7546771E-02  0.1317426E+00
         -1   -1    0    0    0  501 -0.00000000000E+00  0.00000000000E+00  0.19601109439E+03  0.19601109439E+03  0.00000000000E+00 0.  1.
         21   -1    0    0  501  502  0.00000000000E+00 -0.00000000000E+00 -0.16478477273E+02  0.16478477273E+02  0.00000000000E+00 0. -1.
         24    2    1    2    0    0  0.24176536679E+02  0.14906794073E+02  0.12109687086E+03  0.14751685527E+03  0.79309854496E+02 0.  0.
        -13    1    3    3    0    0 -0.10751406909E+02  0.36659814661E+02  0.83305313685E+02  0.91647749834E+02  0.00000000000E+00 0.  1.
         14    1    3    3    0    0  0.34927943588E+02 -0.21753020588E+02  0.37791557174E+02  0.55869105431E+02  0.00000000000E+00 0. -1.
         -2    1    1    2    0  502 -0.24176536679E+02 -0.14906794073E+02  0.58435746257E+02  0.64972716397E+02  0.00000000000E+00 0.  1.
<mgrwt>
<rscale>  1 0.84242332E+02</rscale>
<asrwt>0</asrwt>
<pdfrwt beam="1">  1       21 0.25351505E-02 0.84242332E+02</pdfrwt>
<pdfrwt beam="2">  1       -1 0.30155551E-01 0.84242332E+02</pdfrwt>
<totfact> 0.71215224E+05</totfact>
</mgrwt>
</event>
<event>
 6    2  0.7993170E+000  0.1006753E+03  0.7546771E-02  0.1278882E+00
         21   -1    0    0  501  502  0.00000000000E+00  0.00000000000E+00  0.43753227279E+02  0.43753227279E+02  0.00000000000E+00 0.  1.
          2   -1    0    0  502    0 -0.00000000000E+00 -0.00000000000E+00 -0.15850932594E+03  0.15850932594E+03  0.00000000000E+00 0. -1.
         24    2    1    2    0    0  0.61931423496E+02  0.12702981390E+02 -0.52531582458E+02  0.11355653669E+03  0.78349555941E+02 0.  0.
        -13    1    3    3    0    0  0.70201698830E+02  0.32740184784E+02 -0.32368563984E+02  0.83951903806E+02  0.00000000000E+00 0.  1.
         14    1    3    3    0    0 -0.82702753337E+01 -0.20037203394E+02 -0.20163018475E+02  0.29604632880E+02  0.00000000000E+00 0. -1.
          1    1    1    2  501    0 -0.61931423496E+02 -0.12702981390E+02 -0.62224516202E+02  0.88706016532E+02  0.00000000000E+00 0. -1.
<mgrwt>
<rscale>  1 0.10067532E+03</rscale>
<asrwt>0</asrwt>
<pdfrwt beam="1">  1       21 0.67312656E-02 0.10067532E+03</pdfrwt>
<pdfrwt beam="2">  1        2 0.24386051E-01 0.10067532E+03</pdfrwt>
<totfact> 0.42027077E+05</totfact>
</mgrwt>
</event>
<event>
 6    2  0.7993170E+000  0.1003314E+03  0.7546771E-02  0.1279601E+00
          4   -1    0    0  502    0 -0.00000000000E+00  0.00000000000E+00  0.76722285085E+01  0.76722285085E+01  0.00000000000E+00 0. -1.
         21   -1    0    0  501  502  0.00000000000E+00 -0.00000000000E+00 -0.12384102561E+04  0.12384102561E+04  0.00000000000E+00 0. -1.
         24    2    1    2    0    0 -0.39926510044E+02  0.56720226447E+02 -0.39765998913E+03  0.41012176277E+03  0.72491951615E+02 0.  0.
        -11    1    3    3    0    0 -0.16654631817E+02 -0.16487011030E+02 -0.86224586919E+02  0.89352547155E+02  0.00000000000E+00 0.  1.
         12    1    3    3    0    0 -0.23271878227E+02  0.73207237477E+02 -0.31143540221E+03  0.32076921561E+03  0.00000000000E+00 0. -1.
          3    1    1    2  501    0  0.39926510044E+02 -0.56720226447E+02 -0.83307803844E+03  0.83596072181E+03  0.00000000000E+00 0. -1.
<mgrwt>
<rscale>  1 0.10033142E+03</rscale>
<asrwt>0</asrwt>
<pdfrwt beam="1">  1       21 0.19052454E+00 0.10033142E+03</pdfrwt>
<pdfrwt beam="2">  1        4 0.11803436E-02 0.10033142E+03</pdfrwt>
<totfact> 0.14604404E+04</totfact>
</mgrwt>
</event>
<event>
 6    2  0.7993170E+000  0.7735051E+02  0.7546771E-02  0.1336743E+00
         21   -1    0    0  501  502  0.00000000000E+00  0.00000000000E+00  0.85436276901E+01  0.85436276901E+01  0.00000000000E+00 0. -1.
          4   -1    0    0  502    0 -0.00000000000E+00 -0.00000000000E+00 -0.35387585956E+03  0.35387585956E+03  0.00000000000E+00 0. -1.
         24    2    1    2    0    0  0.24601151121E+02 -0.12741196665E+02 -0.29493231795E+03  0.30490682732E+03  0.72218740276E+02 0.  0.
        -13    1    3    3    0    0 -0.13174230616E+02 -0.31708389691E+02 -0.11149810833E+03  0.11666537829E+03  0.00000000000E+00 0.  1.
         14    1    3    3    0    0  0.37775381737E+02  0.18967193026E+02 -0.18343420962E+03  0.18824144903E+03  0.00000000000E+00 0. -1.
          3    1    1    2  501    0 -0.24601151121E+02  0.12741196665E+02 -0.50399913920E+02  0.57512659929E+02  0.00000000000E+00 0. -1.
<mgrwt>
<rscale>  1 0.77350509E+02</rscale>
<asrwt>0</asrwt>
<pdfrwt beam="1">  1       21 0.13144042E-02 0.77350509E+02</pdfrwt>
<pdfrwt beam="2">  1        4 0.54442442E-01 0.77350509E+02</pdfrwt>
<totfact> 0.28221622E+05</totfact>
</mgrwt>
</event>
<event>
 6    2  0.7993170E+000  0.1373364E+03  0.7546771E-02  0.1216959E+00
          2   -1    0    0  502    0 -0.00000000000E+00  0.00000000000E+00  0.19099070832E+04  0.19099070832E+04  0.00000000000E+00 0. -1.
         21   -1    0    0  501  502  0.00000000000E+00 -0.00000000000E+00 -0.96146142523E+01  0.96146142523E+01  0.00000000000E+00 0. -1.
         24    2    1    2    0    0  0.29733830386E+02 -0.11285438889E+03  0.68455293061E+03  0.69819338825E+03  0.72395295693E+02 0.  0.
        -11    1    3    3    0    0  0.63916681613E+01 -0.28566168627E+02  0.52426379535E+02  0.60045022134E+02  0.00000000000E+00 0.  1.
         12    1    3    3    0    0  0.23342162225E+02 -0.84288220266E+02  0.63212655107E+03  0.63814836612E+03  0.00000000000E+00 0. -1.
          1    1    1    2  501    0 -0.29733830386E+02  0.11285438889E+03  0.12157395383E+04  0.12213283092E+04  0.00000000000E+00 0. -1.
<mgrwt>
<rscale>  1 0.13733642E+03</rscale>
<asrwt>0</asrwt>
<pdfrwt beam="1">  1       21 0.14791729E-02 0.13733642E+03</pdfrwt>
<pdfrwt beam="2">  1        2 0.29383156E+00 0.13733642E+03</pdfrwt>
<totfact> 0.21555377E+05</totfact>
</mgrwt>
</event>
<event>
 6    2  0.7993170E+000  0.8824096E+02  0.7546771E-02  0.1307168E+00
         21   -1    0    0  501  502  0.00000000000E+00  0.00000000000E+00  0.90914326369E+01  0.90914326369E+01  0.00000000000E+00 0. -1.
         -1   -1    0    0    0  501 -0.00000000000E+00 -0.00000000000E+00 -0.41833153286E+03  0.41833153286E+03  0.00000000000E+00 0.  1.
         24    2    1    2    0    0 -0.29684467133E+02  0.40022236340E+01 -0.35112233534E+03  0.36204055212E+03  0.83001696535E+02 0.  0.
        -11    1    3    3    0    0  0.17940294849E+02  0.27803154127E+02 -0.17281593239E+03  0.17595515351E+03  0.00000000000E+00 0.  1.
         12    1    3    3    0    0 -0.47624761982E+02 -0.23800930493E+02 -0.17830640295E+03  0.18608539862E+03  0.00000000000E+00 0. -1.
         -2    1    1    2    0  502  0.29684467133E+02 -0.40022236340E+01 -0.58117764886E+02  0.65382413372E+02  0.00000000000E+00 0.  1.
<mgrwt>
<rscale>  1 0.88240960E+02</rscale>
<asrwt>0</asrwt>
<pdfrwt beam="1">  1       21 0.13986819E-02 0.88240960E+02</pdfrwt>
<pdfrwt beam="2">  1       -1 0.64358698E-01 0.88240960E+02</pdfrwt>
<totfact> 0.48347344E+05</totfact>
</mgrwt>
</event>
<event>
 6    2  0.7993170E+000  0.1065896E+03  0.7546771E-02  0.1267019E+00
         21   -1    0    0  501  502  0.00000000000E+00  0.00000000000E+00  0.13475298513E+02  0.13475298513E+02  0.00000000000E+00 0. -1.
          2   -1    0    0  502    0 -0.00000000000E+00 -0.00000000000E+00 -0.75796802799E+03  0.75796802799E+03  0.00000000000E+00 0. -1.
         24    2    1    2    0    0 -0.22815034672E+02 -0.66727493614E+02 -0.61334554310E+03  0.62253842831E+03  0.79926561735E+02 0.  0.
        -13    1    3    3    0    0  0.24173911396E+02 -0.18416552633E+02 -0.92822614139E+02  0.97670799622E+02  0.00000000000E+00 0.  1.
         14    1    3    3    0    0 -0.46988946068E+02 -0.48310940981E+02 -0.52052292896E+03  0.52486762869E+03  0.00000000000E+00 0. -1.
          1    1    1    2  501    0  0.22815034672E+02  0.66727493614E+02 -0.13114718637E+03  0.14890489819E+03  0.00000000000E+00 0. -1.
<mgrwt>
<rscale>  1 0.10658958E+03</rscale>
<asrwt>0</asrwt>
<pdfrwt beam="1">  1       21 0.20731233E-02 0.10658958E+03</pdfrwt>
<pdfrwt beam="2">  1        2 0.11661044E+00 0.10658958E+03</pdfrwt>
<totfact> 0.53988420E+05</totfact>
</mgrwt>
</event>
<event>
 6    2  0.7993170E+000  0.8362568E+02  0.7546771E-02  0.1319066E+00
         21   -1    0    0  501  502  0.00000000000E+00  0.00000000000E+00  0.36633828739E+02  0.36633828739E+02  0.00000000000E+00 0.  1.
         -1   -1    0    0    0  501 -0.00000000000E+00 -0.00000000000E+00 -0.82008538717E+02  0.82008538717E+02  0.00000000000E+00 0.  1.
         24    2    1    2    0    0 -0.21924799962E+02 -0.71885653223E+01 -0.46229703639E+02  0.95553336751E+02  0.80379613963E+02 0.  0.
        -13    1    3    3    0    0 -0.36187372894E+02 -0.21036933755E+02 -0.58693048421E+02  0.72089891606E+02  0.00000000000E+00 0.  1.
         14    1    3    3    0    0  0.14262572932E+02  0.13848368433E+02  0.12463344782E+02  0.23463445145E+02  0.00000000000E+00 0. -1.
         -2    1    1    2    0  502  0.21924799962E+02  0.71885653223E+01  0.85499366029E+00  0.23089030706E+02  0.00000000000E+00 0.  1.
<mgrwt>
<rscale>  1 0.83625682E+02</rscale>
<asrwt>0</asrwt>
<pdfrwt beam="1">  1       21 0.56359736E-02 0.83625682E+02</pdfrwt>
<pdfrwt beam="2">  1       -1 0.12616698E-01 0.83625682E+02</pdfrwt>
<totfact> 0.76412724E+05</totfact>
</mgrwt>
</event>
<event>
 6    2  0.7993170E+000  0.9361967E+02  0.7546771E-02  0.1294316E+00
          2   -1    0    0  502    0 -0.00000000000E+00  0.00000000000E+00  0.98944027097E+03  0.98944027097E+03  0.00000000000E+00 0. -1.
         21   -1    0    0  501  502  0.00000000000E+00 -0.00000000000E+00 -0.71883370361E+01  0.71883370361E+01  0.00000000000E+00 0. -1.
         24    2    1    2    0    0 -0.41487253554E+02  0.20893588580E+02  0.87171783520E+03  0.87673064625E+03  0.81282886339E+02 0.  0.
        -13    1    3    3    0    0  0.14936673726E+02  0.30934583238E+02  0.24475929570E+03  0.24715817909E+03  0.00000000000E+00 0.  1.
         14    1    3    3    0    0 -0.56423927280E+02 -0.10040994659E+02  0.62695853950E+03  0.62957246715E+03  0.00000000000E+00 0. -1.
          1    1    1    2  501    0  0.41487253554E+02 -0.20893588580E+02  0.11053409874E+03  0.11989796176E+03  0.00000000000E+00 0. -1.
<mgrwt>
<rscale>  1 0.93619666E+02</rscale>
<asrwt>0</asrwt>
<pdfrwt beam="1">  1       21 0.11058988E-02 0.93619666E+02</pdfrwt>
<pdfrwt beam="2">  1        2 0.15222147E+00 0.93619666E+02</pdfrwt>
<totfact> 0.10345130E+06</totfact>
</mgrwt>
</event>
<event>
 6    2  0.7993170E+000  0.8768112E+02  0.7546771E-02  0.1308566E+00
         -1   -1    0    0    0  501 -0.00000000000E+00  0.00000000000E+00  0.42907693418E+02  0.42907693418E+02  0.00000000000E+00 0.  1.
         21   -1    0    0  501  502  0.00000000000E+00 -0.00000000000E+00 -0.92925796823E+02  0.92925796823E+02  0.00000000000E+00 0. -1.
         24    2    1    2    0    0  0.16658534959E+02 -0.24985160469E+02 -0.13759309283E+02  0.88754140396E+02  0.82378479076E+02 0.  0.
        -13    1    3    3    0    0  0.45220805467E+02 -0.15207520302E+02  0.11857518961E+02  0.49160865297E+02  0.00000000000E+00 0.  1.
         14    1    3    3    0    0 -0.28562270508E+02 -0.97776401668E+01 -0.25616828245E+02  0.39593275100E+02  0.00000000000E+00 0. -1.
         -2    1    1    2    0  502 -0.16658534959E+02  0.24985160469E+02 -0.36258794122E+02  0.47079349845E+02  0.00000000000E+00 0.  1.
<mgrwt>
<rscale>  1 0.87681120E+02</rscale>
<asrwt>0</asrwt>
<pdfrwt beam="1">  1       21 0.14296276E-01 0.87681120E+02</pdfrwt>
<pdfrwt beam="2">  1       -1 0.66011836E-02 0.87681120E+02</pdfrwt>
<totfact> 0.40969140E+05</totfact>
</mgrwt>
</event>
<event>
 6    2  0.7993170E+000  0.9242848E+02  0.7546771E-02  0.1297075E+00
          2   -1    0    0  502    0 -0.00000000000E+00  0.00000000000E+00  0.21412815636E+03  0.21412815636E+03  0.00000000000E+00 0. -1.
         21   -1    0    0  501  502  0.00000000000E+00 -0.00000000000E+00 -0.17755923457E+02  0.17755923457E+02  0.00000000000E+00 0. -1.
         24    2    1    2    0    0  0.23247133337E+02  0.10959257754E+02  0.17707064089E+03  0.19974242471E+03  0.88783387097E+02 0.  0.
        -13    1    3    3    0    0 -0.15849214101E+02  0.39086306734E+02  0.61866541208E+02  0.74875936607E+02  0.00000000000E+00 0.  1.
         14    1    3    3    0    0  0.39096347438E+02 -0.28127048980E+02  0.11520409968E+03  0.12486648810E+03  0.00000000000E+00 0. -1.
          1    1    1    2  501    0 -0.23247133337E+02 -0.10959257754E+02  0.19301592015E+02  0.32141655110E+02  0.00000000000E+00 0. -1.
<mgrwt>
<rscale>  1 0.92428482E+02</rscale>
<asrwt>0</asrwt>
<pdfrwt beam="1">  1       21 0.27316807E-02 0.92428482E+02</pdfrwt>
<pdfrwt beam="2">  1        2 0.32942791E-01 0.92428482E+02</pdfrwt>
<totfact> 0.13419046E+06</totfact>
</mgrwt>
</event>
<event>
 6    2  0.7993170E+000  0.8749335E+02  0.7546771E-02  0.1309038E+00
          2   -1    0    0  502    0 -0.00000000000E+00  0.00000000000E+00  0.48394038314E+04  0.48394038314E+04  0.00000000000E+00 0. -1.
         21   -1    0    0  501  502  0.00000000000E+00 -0.00000000000E+00 -0.90971838577E+00  0.90971838577E+00  0.00000000000E+00 0. -1.
         24    2    1    2    0    0 -0.22719259908E+02  0.27055299578E+02  0.41420077300E+04  0.41429317063E+04  0.80043319809E+02 0.  0.
        -13    1    3    3    0    0  0.25960959020E+02 -0.72124105610E+01  0.10163046784E+04  0.10166617872E+04  0.00000000000E+00 0.  1.
         14    1    3    3    0    0 -0.48680218928E+02  0.34267710139E+02  0.31257030517E+04  0.31262699191E+04  0.00000000000E+00 0. -1.
          1    1    1    2  501    0  0.22719259908E+02 -0.27055299578E+02  0.69648638297E+03  0.69738184352E+03  0.00000000000E+00 0. -1.
<mgrwt>
<rscale>  1 0.87493354E+02</rscale>
<asrwt>0</asrwt>
<pdfrwt beam="1">  1       21 0.13996055E-03 0.87493354E+02</pdfrwt>
<pdfrwt beam="2">  1        2 0.74450305E+00 0.87493354E+02</pdfrwt>
<totfact> 0.88622816E+04</totfact>
</mgrwt>
</event>
<event>
 6    2  0.7993170E+000  0.8571502E+02  0.7546771E-02  0.1313573E+00
          4   -1    0    0  502    0 -0.00000000000E+00  0.00000000000E+00  0.56543667453E+01  0.56543667453E+01  0.00000000000E+00 0. -1.
         21   -1    0    0  501  502  0.00000000000E+00 -0.00000000000E+00 -0.55793029274E+03  0.55793029274E+03  0.00000000000E+00 0.  1.
         24    2    1    2    0    0  0.21065624764E+02 -0.16251962752E+02 -0.42507065290E+03  0.43362671112E+03  0.81481149972E+02 0.  0.
        -13    1    3    3    0    0 -0.11706520249E+02 -0.10798604473E+02 -0.36191914115E+03  0.36226939866E+03  0.00000000000E+00 0.  1.
         14    1    3    3    0    0  0.32772145013E+02 -0.54533582791E+01 -0.63151511747E+02  0.71357312458E+02  0.00000000000E+00 0. -1.
          3    1    1    2  501    0 -0.21065624764E+02  0.16251962752E+02 -0.12720527310E+03  0.12995794837E+03  0.00000000000E+00 0. -1.
<mgrwt>
<rscale>  1 0.85715020E+02</rscale>
<asrwt>0</asrwt>
<pdfrwt beam="1">  1       21 0.85835427E-01 0.85715020E+02</pdfrwt>
<pdfrwt beam="2">  1        4 0.86990261E-03 0.85715020E+02</pdfrwt>
<totfact> 0.16222014E+05</totfact>
</mgrwt>
</event>
<event>
 6    2  0.7993170E+000  0.9001742E+02  0.7546771E-02  0.1302810E+00
          2   -1    0    0  502    0 -0.00000000000E+00  0.00000000000E+00  0.14467450993E+04  0.14467450993E+04  0.00000000000E+00 0. -1.
         21   -1    0    0  501  502  0.00000000000E+00 -0.00000000000E+00 -0.15808688569E+02  0.15808688569E+02  0.00000000000E+00 0. -1.
         24    2    1    2    0    0  0.26466511018E+02  0.30078189831E+02  0.14174127417E+04  0.14202682900E+04  0.80609934591E+02 0.  0.
        -11    1    3    3    0    0 -0.27838022136E+02  0.87081761100E+01  0.64219720369E+03  0.64285926627E+03  0.00000000000E+00 0.  1.
         12    1    3    3    0    0  0.54304533154E+02  0.21370013721E+02  0.77521553797E+03  0.77740902369E+03  0.00000000000E+00 0. -1.
          1    1    1    2  501    0 -0.26466511018E+02 -0.30078189831E+02  0.13523669092E+02  0.42285497924E+02  0.00000000000E+00 0. -1.
<mgrwt>
<rscale>  1 0.90017416E+02</rscale>
<asrwt>0</asrwt>
<pdfrwt beam="1">  1       21 0.24321071E-02 0.90017416E+02</pdfrwt>
<pdfrwt beam="2">  1        2 0.22257607E+00 0.90017416E+02</pdfrwt>
<totfact> 0.16633092E+05</totfact>
</mgrwt>
</event>
<event>
 6    2  0.7993170E+000  0.9769460E+02  0.7546771E-02  0.1285220E+00
         21   -1    0    0  501  502  0.00000000000E+00  0.00000000000E+00  0.14442671762E+03  0.14442671762E+03  0.00000000000E+00 0. -1.
          2   -1    0    0  502    0 -0.00000000000E+00 -0.00000000000E+00 -0.10592119363E+03  0.10592119363E+03  0.00000000000E+00 0. -1.
         24    2    1    2    0    0  0.48038875749E+02  0.32628126960E+02 -0.74790525159E+02  0.12303599898E+03  0.78561479990E+02 0.  0.
        -11    1    3    3    0    0  0.26145501713E+02  0.25955811266E+02  0.75213173392E+01  0.37601351210E+02  0.00000000000E+00 0.  1.
         12    1    3    3    0    0  0.21893374036E+02  0.66723156937E+01 -0.82311842499E+02  0.85434647766E+02  0.00000000000E+00 0. -1.
          1    1    1    2  501    0 -0.48038875749E+02 -0.32628126960E+02  0.11329604915E+03  0.12731191227E+03  0.00000000000E+00 0. -1.
<mgrwt>
<rscale>  1 0.97694598E+02</rscale>
<asrwt>0</asrwt>
<pdfrwt beam="1">  1       21 0.22219495E-01 0.97694598E+02</pdfrwt>
<pdfrwt beam="2">  1        2 0.16295568E-01 0.97694598E+02</pdfrwt>
<totfact> 0.79986568E+04</totfact>
</mgrwt>
</event>
<event>
 6    2  0.7993170E+000  0.2099795E+03  0.7546771E-02  0.1141582E+00
         21   -1    0    0  501  502  0.00000000000E+00  0.00000000000E+00  0.69817823340E+02  0.69817823340E+02  0.00000000000E+00 0. -1.
          2   -1    0    0  502    0 -0.00000000000E+00 -0.00000000000E+00 -0.71255482299E+03  0.71255482299E+03  0.00000000000E+00 0. -1.
         24    2    1    2    0    0  0.16122410499E+03 -0.10905666783E+03 -0.49599292528E+03  0.53860966269E+03  0.78770667035E+02 0.  0.
        -11    1    3    3    0    0  0.16672688050E+02 -0.33285168896E+02 -0.41750688650E+02  0.55937474005E+02  0.00000000000E+00 0.  1.
         12    1    3    3    0    0  0.14455141694E+03 -0.75771498935E+02 -0.45424223663E+03  0.48267218869E+03  0.00000000000E+00 0. -1.
          1    1    1    2  501    0 -0.16122410499E+03  0.10905666783E+03 -0.14674407437E+03  0.24376298364E+03  0.00000000000E+00 0. -1.
<mgrwt>
<rscale>  1 0.20997949E+03</rscale>
<asrwt>0</asrwt>
<pdfrwt beam="1">  1       21 0.10741203E-01 0.20997949E+03</pdfrwt>
<pdfrwt beam="2">  1        2 0.10962382E+00 0.20997949E+03</pdfrwt>
<totfact> 0.36936821E+04</totfact>
</mgrwt>
</event>
<event>
 6    2  0.7993170E+000  0.9284360E+02  0.7546771E-02  0.1296108E+00
          2   -1    0    0  502    0 -0.00000000000E+00  0.00000000000E+00  0.60362951227E+02  0.60362951227E+02  0.00000000000E+00 0. -1.
         21   -1    0    0  501  502  0.00000000000E+00 -0.00000000000E+00 -0.27562961897E+03  0.27562961897E+03  0.00000000000E+00 0. -1.
         24    2    1    2    0    0  0.39395496521E+02 -0.24279777943E+02  0.21039624746E+02  0.95197685215E+02  0.80488637073E+02 0.  0.
        -13    1    3    3    0    0  0.28178937759E+02  0.24176501529E+02 -0.74638446758E+01  0.37871687799E+02  0.00000000000E+00 0.  1.
         14    1    3    3    0    0  0.11216558762E+02 -0.48456279472E+02  0.28503469422E+02  0.57325997416E+02  0.00000000000E+00 0. -1.
          1    1    1    2  501    0 -0.39395496521E+02  0.24279777943E+02 -0.23630629249E+03  0.24079488498E+03  0.00000000000E+00 0. -1.
<mgrwt>
<rscale>  1 0.92843597E+02</rscale>
<asrwt>0</asrwt>
<pdfrwt beam="1">  1       21 0.42404557E-01 0.92843597E+02</pdfrwt>
<pdfrwt beam="2">  1        2 0.92866078E-02 0.92843597E+02</pdfrwt>
<totfact> 0.44979078E+04</totfact>
</mgrwt>
</event>
<event>
 6    2  0.7993170E+000  0.8486077E+02  0.7546771E-02  0.1315797E+00
          2   -1    0    0  502    0 -0.00000000000E+00  0.00000000000E+00  0.16228037839E+04  0.16228037839E+04  0.00000000000E+00 0. -1.
         21   -1    0    0  501  502  0.00000000000E+00 -0.00000000000E+00 -0.31449270534E+01  0.31449270534E+01  0.00000000000E+00 0.  1.
         24    2    1    2    0    0 -0.15604030051E+02  0.29315319074E+02  0.14786046182E+04  0.14810378007E+04  0.78092741604E+02 0.  0.
        -11    1    3    3    0    0  0.91852443629E+01 -0.12834417634E+00  0.20954404361E+02  0.22879515912E+02  0.00000000000E+00 0.  1.
         12    1    3    3    0    0 -0.24789274414E+02  0.29443663250E+02  0.14576502139E+04  0.14581582848E+04  0.00000000000E+00 0. -1.
          1    1    1    2  501    0  0.15604030051E+02 -0.29315319074E+02  0.14105423865E+03  0.14491091031E+03  0.00000000000E+00 0. -1.
<mgrwt>
<rscale>  1 0.84860768E+02</rscale>
<asrwt>0</asrwt>
<pdfrwt beam="1">  1       21 0.48383623E-03 0.84860768E+02</pdfrwt>
<pdfrwt beam="2">  1        2 0.24966145E+00 0.84860768E+02</pdfrwt>
<totfact> 0.16953014E+06</totfact>
</mgrwt>
</event>
<event>
 6    2  0.7993170E+000  0.8320269E+02  0.7546771E-02  0.1320201E+00
          2   -1    0    0  502    0 -0.00000000000E+00  0.00000000000E+00  0.89206401190E+02  0.89206401190E+02  0.00000000000E+00 0. -1.
         21   -1    0    0  501  502  0.00000000000E+00 -0.00000000000E+00 -0.30747616274E+02  0.30747616274E+02  0.00000000000E+00 0.  1.
         24    2    1    2    0    0  0.19431315747E+02  0.68909679705E+01  0.52918552339E+02  0.98605583137E+02  0.80607855528E+02 0.  0.
        -13    1    3    3    0    0  0.39458460970E+02 -0.12931159790E+02  0.34395963839E+01  0.41665523625E+02  0.00000000000E+00 0.  1.
         14    1    3    3    0    0 -0.20027145224E+02  0.19822127760E+02  0.49478955956E+02  0.56940059512E+02  0.00000000000E+00 0. -1.
          1    1    1    2  501    0 -0.19431315747E+02 -0.68909679705E+01  0.55402325759E+01  0.21348434327E+02  0.00000000000E+00 0. -1.
<mgrwt>
<rscale>  1 0.83202691E+02</rscale>
<asrwt>0</asrwt>
<pdfrwt beam="1">  1       21 0.47304026E-02 0.83202691E+02</pdfrwt>
<pdfrwt beam="2">  1        2 0.13724062E-01 0.83202691E+02</pdfrwt>
<totfact> 0.14246770E+06</totfact>
</mgrwt>
</event>
<event>
 6    2  0.7993170E+000  0.8530848E+02  0.7546771E-02  0.1314628E+00
         21   -1    0    0  501  502  0.00000000000E+00  0.00000000000E+00  0.99466453065E+01  0.99466453065E+01  0.00000000000E+00 0.  1.
          2   -1    0    0  502    0 -0.00000000000E+00 -0.00000000000E+00 -0.35181401130E+03  0.35181401130E+03  0.00000000000E+00 0. -1.
         24    2    1    2    0    0 -0.10230788078E+02 -0.26159040265E+02 -0.29532411138E+03  0.30739854698E+03  0.80551669849E+02 0.  0.
        -13    1    3    3    0    0 -0.37387184167E+02 -0.26946727301E+02 -0.98973123027E+02  0.10917695148E+03  0.00000000000E+00 0.  1.
         14    1    3    3    0    0  0.27156396090E+02  0.78768703577E+00 -0.19635098835E+03  0.19822159551E+03  0.00000000000E+00 0. -1.
          1    1    1    2  501    0  0.10230788078E+02  0.26159040265E+02 -0.46543254619E+02  0.54362109624E+02  0.00000000000E+00 0. -1.
<mgrwt>
<rscale>  1 0.85308475E+02</rscale>
<asrwt>0</asrwt>
<pdfrwt beam="1">  1       21 0.15302530E-02 0.85308475E+02</pdfrwt>
<pdfrwt beam="2">  1        2 0.54125238E-01 0.85308475E+02</pdfrwt>
<totfact> 0.19969680E+06</totfact>
</mgrwt>
</event>
<event>
 6    2  0.7993170E+000  0.9291972E+02  0.7546771E-02  0.1295931E+00
         21   -1    0    0  501  502  0.00000000000E+00  0.00000000000E+00  0.50799562123E+01  0.50799562123E+01  0.00000000000E+00 0. -1.
          2   -1    0    0  502    0 -0.00000000000E+00 -0.00000000000E+00 -0.11928057176E+04  0.11928057176E+04  0.00000000000E+00 0. -1.
         24    2    1    2    0    0 -0.30942687298E+02  0.31234342319E+02 -0.10288869166E+04  0.10330742281E+04  0.81859877175E+02 0.  0.
        -11    1    3    3    0    0  0.45599947345E+00 -0.23708983717E+02 -0.47354604751E+03  0.47413941300E+03  0.00000000000E+00 0.  1.
         12    1    3    3    0    0 -0.31398686771E+02  0.54943326036E+02 -0.55534086909E+03  0.55893481506E+03  0.00000000000E+00 0. -1.
          1    1    1    2  501    0  0.30942687298E+02 -0.31234342319E+02 -0.15883884474E+03  0.16481144570E+03  0.00000000000E+00 0. -1.
<mgrwt>
<rscale>  1 0.92919715E+02</rscale>
<asrwt>0</asrwt>
<pdfrwt beam="1">  1       21 0.78153196E-03 0.92919715E+02</pdfrwt>
<pdfrwt beam="2">  1        2 0.18350852E+00 0.92919715E+02</pdfrwt>
<totfact> 0.13640101E+06</totfact>
</mgrwt>
</event>
<event>
 6    2  0.7993170E+000  0.8306570E+02  0.7546771E-02  0.1320570E+00
          2   -1    0    0  502    0 -0.00000000000E+00  0.00000000000E+00  0.14202453672E+03  0.14202453672E+03  0.00000000000E+00 0. -1.
         21   -1    0    0  501  502  0.00000000000E+00 -0.00000000000E+00 -0.19048495271E+02  0.19048495271E+02  0.00000000000E+00 0.  1.
         24    2    1    2    0    0 -0.54869852385E+01  0.19254076900E+02  0.10700726516E+03  0.13546388713E+03  0.80616892992E+02 0.  0.
        -13    1    3    3    0    0 -0.19787280834E+02  0.32629365616E+02  0.14364312661E+02  0.40774323557E+02  0.00000000000E+00 0.  1.
         14    1    3    3    0    0  0.14300295595E+02 -0.13375288716E+02  0.92642952500E+02  0.94689563576E+02  0.00000000000E+00 0. -1.
          1    1    1    2  501    0  0.54869852385E+01 -0.19254076900E+02  0.15968776289E+02  0.25609144860E+02  0.00000000000E+00 0. -1.
<mgrwt>
<rscale>  1 0.83065696E+02</rscale>
<asrwt>0</asrwt>
<pdfrwt beam="1">  1       21 0.29305378E-02 0.83065696E+02</pdfrwt>
<pdfrwt beam="2">  1        2 0.21849928E-01 0.83065696E+02</pdfrwt>
<totfact> 0.18419901E+06</totfact>
</mgrwt>
</event>
<event>
 6    2  0.7993170E+000  0.1182911E+03  0.7546771E-02  0.1245943E+00
         21   -1    0    0  501  502  0.00000000000E+00  0.00000000000E+00  0.10448596391E+02  0.10448596391E+02  0.00000000000E+00 0. -1.
          2   -1    0    0  502    0 -0.00000000000E+00 -0.00000000000E+00 -0.10469973987E+04  0.10469973987E+04  0.00000000000E+00 0. -1.
         24    2    1    2    0    0 -0.87217742398E+02 -0.14338612809E+01 -0.69132936690E+03  0.70137655084E+03  0.79898573079E+02 0.  0.
        -11    1    3    3    0    0 -0.28244597720E+02  0.36795449646E+02 -0.22007053765E+03  0.22490598915E+03  0.00000000000E+00 0.  1.
         12    1    3    3    0    0 -0.58973144678E+02 -0.38229310927E+02 -0.47125882925E+03  0.47647056169E+03  0.00000000000E+00 0. -1.
          1    1    1    2  501    0  0.87217742398E+02  0.14338612809E+01 -0.34521943543E+03  0.35606944428E+03  0.00000000000E+00 0. -1.
<mgrwt>
<rscale>  1 0.11829105E+03</rscale>
<asrwt>0</asrwt>
<pdfrwt beam="1">  1       21 0.16074770E-02 0.11829105E+03</pdfrwt>
<pdfrwt beam="2">  1        2 0.16107646E+00 0.11829105E+03</pdfrwt>
<totfact> 0.53759010E+05</totfact>
</mgrwt>
</event>
<event>
 6    2  0.7993170E+000  0.9263238E+02  0.7546771E-02  0.1296599E+00
          2   -1    0    0  502    0 -0.00000000000E+00  0.00000000000E+00  0.21866456207E+02  0.21866456207E+02  0.00000000000E+00 0. -1.
         21   -1    0    0  501  502  0.00000000000E+00 -0.00000000000E+00 -0.24250004360E+03  0.24250004360E+03  0.00000000000E+00 0.  1.
         24    2    1    2    0    0  0.38231341158E+02  0.27200630496E+02 -0.17939575475E+03  0.20189996006E+03  0.79870190344E+02 0.  0.
        -13    1    3    3    0    0 -0.24695565932E+01  0.13190351270E+02 -0.14803642904E+03  0.14864342703E+03  0.00000000000E+00 0.  1.
         14    1    3    3    0    0  0.40700897752E+02  0.14010279226E+02 -0.31359325708E+02  0.53256533032E+02  0.00000000000E+00 0. -1.
          1    1    1    2  501    0 -0.38231341158E+02 -0.27200630496E+02 -0.41237832641E+02  0.62466539740E+02  0.00000000000E+00 0. -1.
<mgrwt>
<rscale>  1 0.92632376E+02</rscale>
<asrwt>0</asrwt>
<pdfrwt beam="1">  1       21 0.37307701E-01 0.92632376E+02</pdfrwt>
<pdfrwt beam="2">  1        2 0.33640701E-02 0.92632376E+02</pdfrwt>
<totfact> 0.21195339E+05</totfact>
</mgrwt>
</event>
<event>
 6    2  0.7993170E+000  0.7883747E+02  0.7546771E-02  0.1332383E+00
         21   -1    0    0  501  502  0.00000000000E+00  0.00000000000E+00  0.70979239380E+02  0.70979239380E+02  0.00000000000E+00 0. -1.
          2   -1    0    0  502    0 -0.00000000000E+00 -0.00000000000E+00 -0.94388606483E+02  0.94388606483E+02  0.00000000000E+00 0. -1.
         24    2    1    2    0    0 -0.38073760803E+02 -0.91558464255E+01 -0.69352488838E+02  0.10500054329E+03  0.68424451751E+02 0.  0.
        -11    1    3    3    0    0 -0.25601536087E+02 -0.23810987746E+02 -0.20744223898E+01  0.35024348898E+02  0.00000000000E+00 0.  1.
         12    1    3    3    0    0 -0.12472224716E+02  0.14655141320E+02 -0.67278066448E+02  0.69976194391E+02  0.00000000000E+00 0. -1.
          1    1    1    2  501    0  0.38073760803E+02  0.91558464255E+01  0.45943121734E+02  0.60367302575E+02  0.00000000000E+00 0. -1.
<mgrwt>
<rscale>  1 0.78837468E+02</rscale>
<asrwt>0</asrwt>
<pdfrwt beam="1">  1       21 0.10919883E-01 0.78837468E+02</pdfrwt>
<pdfrwt beam="2">  1        2 0.14521324E-01 0.78837468E+02</pdfrwt>
<totfact> 0.32174278E+05</totfact>
</mgrwt>
</event>
<event>
 6    2  0.7993170E+000  0.8255798E+02  0.7546771E-02  0.1321945E+00
         -1   -1    0    0    0  501 -0.00000000000E+00  0.00000000000E+00  0.21146834612E+02  0.21146834612E+02  0.00000000000E+00 0.  1.
         21   -1    0    0  501  502  0.00000000000E+00 -0.00000000000E+00 -0.19825087788E+03  0.19825087788E+03  0.00000000000E+00 0. -1.
         24    2    1    2    0    0  0.39625535585E+00  0.20833863624E+02 -0.64187665608E+02  0.10457473903E+03  0.79884996930E+02 0.  0.
        -13    1    3    3    0    0 -0.36181110943E+02 -0.60526325608E+01 -0.23138469942E+02  0.43371602936E+02  0.00000000000E+00 0.  1.
         14    1    3    3    0    0  0.36577366299E+02  0.26886496185E+02 -0.41049195667E+02  0.61203136091E+02  0.00000000000E+00 0. -1.
         -2    1    1    2    0  502 -0.39625535585E+00 -0.20833863624E+02 -0.11291637766E+03  0.11482297347E+03  0.00000000000E+00 0.  1.
<mgrwt>
<rscale>  1 0.82557977E+02</rscale>
<asrwt>0</asrwt>
<pdfrwt beam="1">  1       21 0.30500134E-01 0.82557977E+02</pdfrwt>
<pdfrwt beam="2">  1       -1 0.32533593E-02 0.82557977E+02</pdfrwt>
<totfact> 0.28379746E+05</totfact>
</mgrwt>
</event>
<event>
 6    2  0.7993170E+000  0.8596698E+02  0.7546771E-02  0.1312923E+00
         -3   -1    0    0    0  501 -0.00000000000E+00  0.00000000000E+00  0.34015346892E+03  0.34015346892E+03  0.00000000000E+00 0.  1.
         21   -1    0    0  501  502  0.00000000000E+00 -0.00000000000E+00 -0.11071790134E+02  0.11071790134E+02  0.00000000000E+00 0. -1.
         24    2    1    2    0    0 -0.13805213184E+02 -0.25603127208E+02  0.18182882283E+03  0.20112693254E+03  0.80896341999E+02 0.  0.
        -11    1    3    3    0    0 -0.10860511526E+02  0.11901359124E+01  0.17213625550E+03  0.17248262983E+03  0.00000000000E+00 0.  1.
         12    1    3    3    0    0 -0.29447016580E+01 -0.26793263120E+02  0.96925673226E+01  0.28644302711E+02  0.00000000000E+00 0. -1.
         -4    1    1    2    0  502  0.13805213184E+02  0.25603127208E+02  0.14725285596E+03  0.15009832652E+03  0.00000000000E+00 0.  1.
<mgrwt>
<rscale>  1 0.85966983E+02</rscale>
<asrwt>0</asrwt>
<pdfrwt beam="1">  1       21 0.17033526E-02 0.85966983E+02</pdfrwt>
<pdfrwt beam="2">  1       -3 0.52331295E-01 0.85966983E+02</pdfrwt>
<totfact> 0.25633656E+05</totfact>
</mgrwt>
</event>
<event>
 6    2  0.7993170E+000  0.8404462E+02  0.7546771E-02  0.1317950E+00
         21   -1    0    0  501  502  0.00000000000E+00  0.00000000000E+00  0.10537039155E+02  0.10537039155E+02  0.00000000000E+00 0.  1.
          2   -1    0    0  502    0 -0.00000000000E+00 -0.00000000000E+00 -0.28236559448E+03  0.28236559448E+03  0.00000000000E+00 0. -1.
         24    2    1    2    0    0  0.22180036791E+02  0.51546622632E+01 -0.23528535575E+03  0.24984534610E+03  0.80901012111E+02 0.  0.
        -11    1    3    3    0    0  0.44102111229E+02 -0.63517573097E+01 -0.71843538851E+02  0.84538956171E+02  0.00000000000E+00 0.  1.
         12    1    3    3    0    0 -0.21922074438E+02  0.11506419573E+02 -0.16344181690E+03  0.16530638993E+03  0.00000000000E+00 0. -1.
          1    1    1    2  501    0 -0.22180036791E+02 -0.51546622632E+01 -0.36543199578E+02  0.43057287542E+02  0.00000000000E+00 0. -1.
<mgrwt>
<rscale>  1 0.84044621E+02</rscale>
<asrwt>0</asrwt>
<pdfrwt beam="1">  1       21 0.16210829E-02 0.84044621E+02</pdfrwt>
<pdfrwt beam="2">  1        2 0.43440863E-01 0.84044621E+02</pdfrwt>
<totfact> 0.22880845E+06</totfact>
</mgrwt>
</event>
<event>
 6    2  0.7993170E+000  0.8402767E+02  0.7546771E-02  0.1317995E+00
         -3   -1    0    0    0  501 -0.00000000000E+00  0.00000000000E+00  0.10741313698E+03  0.10741313698E+03  0.00000000000E+00 0.  1.
         21   -1    0    0  501  502  0.00000000000E+00 -0.00000000000E+00 -0.46737512874E+02  0.46737512874E+02  0.00000000000E+00 0.  1.
         24    2    1    2    0    0 -0.16112686460E+02  0.13242934328E+02  0.86741752509E+02  0.12076746509E+03  0.81398126646E+02 0.  0.
        -11    1    3    3    0    0 -0.45812713005E+02  0.18986071183E+02  0.34539716060E+02  0.60433993392E+02  0.00000000000E+00 0.  1.
         12    1    3    3    0    0  0.29700026545E+02 -0.57431368549E+01  0.52202036449E+02  0.60333471698E+02  0.00000000000E+00 0. -1.
         -4    1    1    2    0  502  0.16112686460E+02 -0.13242934328E+02 -0.26066128407E+02  0.33383184759E+02  0.00000000000E+00 0.  1.
<mgrwt>
<rscale>  1 0.84027668E+02</rscale>
<asrwt>0</asrwt>
<pdfrwt beam="1">  1       21 0.71903866E-02 0.84027668E+02</pdfrwt>
<pdfrwt beam="2">  1       -3 0.16525098E-01 0.84027668E+02</pdfrwt>
<totfact> 0.20002860E+05</totfact>
</mgrwt>
</event>
<event>
 6    2  0.7993170E+000  0.8558998E+02  0.7546771E-02  0.1313897E+00
          2   -1    0    0  502    0 -0.00000000000E+00  0.00000000000E+00  0.98310720424E+03  0.98310720424E+03  0.00000000000E+00 0. -1.
         21   -1    0    0  501  502  0.00000000000E+00 -0.00000000000E+00 -0.47639445217E+01  0.47639445217E+01  0.00000000000E+00 0. -1.
         24    2    1    2    0    0 -0.20287801434E+02  0.58831680357E+01  0.94165177320E+03  0.94553355629E+03  0.82942374897E+02 0.  0.
        -11    1    3    3    0    0  0.12045611879E+02  0.27340704444E+02  0.71197664703E+03  0.71260322537E+03  0.00000000000E+00 0.  1.
         12    1    3    3    0    0 -0.32333413313E+02 -0.21457536408E+02  0.22967512617E+03  0.23293033093E+03  0.00000000000E+00 0. -1.
          1    1    1    2  501    0  0.20287801434E+02 -0.58831680357E+01  0.36691486526E+02  0.42337592476E+02  0.00000000000E+00 0. -1.
<mgrwt>
<rscale>  1 0.85589977E+02</rscale>
<asrwt>0</asrwt>
<pdfrwt beam="1">  1       21 0.73291533E-03 0.85589977E+02</pdfrwt>
<pdfrwt beam="2">  1        2 0.15124710E+00 0.85589977E+02</pdfrwt>
<totfact> 0.19648967E+06</totfact>
</mgrwt>
</event>
<event>
 6    2  0.7993170E+000  0.8650416E+02  0.7546771E-02  0.1311545E+00
          2   -1    0    0  502    0 -0.00000000000E+00  0.00000000000E+00  0.11408665754E+04  0.11408665754E+04  0.00000000000E+00 0. -1.
         21   -1    0    0  501  502  0.00000000000E+00 -0.00000000000E+00 -0.36182836620E+01  0.36182836620E+01  0.00000000000E+00 0.  1.
         24    2    1    2    0    0 -0.22681389315E+02 -0.25711107872E+02  0.96421091037E+03  0.96808349331E+03  0.79419543249E+02 0.  0.
        -11    1    3    3    0    0 -0.76895000307E+01 -0.48507198047E+02  0.36984438526E+03  0.37309106929E+03  0.00000000000E+00 0.  1.
         12    1    3    3    0    0 -0.14991889284E+02  0.22796090175E+02  0.59436652512E+03  0.59499242403E+03  0.00000000000E+00 0. -1.
          1    1    1    2  501    0  0.22681389315E+02  0.25711107872E+02  0.17303738138E+03  0.17640136577E+03  0.00000000000E+00 0. -1.
<mgrwt>
<rscale>  1 0.86504164E+02</rscale>
<asrwt>0</asrwt>
<pdfrwt beam="1">  1       21 0.55665994E-03 0.86504164E+02</pdfrwt>
<pdfrwt beam="2">  1        2 0.17551765E+00 0.86504164E+02</pdfrwt>
<totfact> 0.24436923E+06</totfact>
</mgrwt>
</event>
<event>
 6    2  0.7993170E+000  0.9174899E+02  0.7546771E-02  0.1298671E+00
         21   -1    0    0  501  502  0.00000000000E+00  0.00000000000E+00  0.43967971988E+02  0.43967971988E+02  0.00000000000E+00 0. -1.
          2   -1    0    0  502    0 -0.00000000000E+00 -0.00000000000E+00 -0.17296105989E+03  0.17296105989E+03  0.00000000000E+00 0. -1.
         24    2    1    2    0    0  0.30047122912E+02  0.29356403906E+02 -0.14532038922E+03  0.17186009785E+03  0.81567454694E+02 0.  0.
        -13    1    3    3    0    0 -0.14726199042E+02  0.31442742018E+02 -0.10829059556E+03  0.11372053487E+03  0.00000000000E+00 0.  1.
         14    1    3    3    0    0  0.44773321953E+02 -0.20863381123E+01 -0.37029793657E+02  0.58139562982E+02  0.00000000000E+00 0. -1.
          1    1    1    2  501    0 -0.30047122912E+02 -0.29356403906E+02  0.16327301322E+02  0.45068934023E+02  0.00000000000E+00 0. -1.
<mgrwt>
<rscale>  1 0.91748993E+02</rscale>
<asrwt>0</asrwt>
<pdfrwt beam="1">  1       21 0.67643033E-02 0.91748993E+02</pdfrwt>
<pdfrwt beam="2">  1        2 0.26609394E-01 0.91748993E+02</pdfrwt>
<totfact> 0.37622352E+05</totfact>
</mgrwt>
</event>
<event>
 6    2  0.7993170E+000  0.9670956E+02  0.7546771E-02  0.1287371E+00
          2   -1    0    0  502    0 -0.00000000000E+00  0.00000000000E+00  0.16172656610E+04  0.16172656610E+04  0.00000000000E+00 0. -1.
         21   -1    0    0  501  502  0.00000000000E+00 -0.00000000000E+00 -0.39330088532E+01  0.39330088532E+01  0.00000000000E+00 0.  1.
         24    2    1    2    0    0 -0.49251426243E+02 -0.15223701672E+02  0.13057089542E+04  0.13092855351E+04  0.81824662058E+02 0.  0.
        -11    1    3    3    0    0 -0.23869923385E+02 -0.18509549446E+02  0.13673971944E+03  0.14003616510E+03  0.00000000000E+00 0.  1.
         12    1    3    3    0    0 -0.25381502858E+02  0.32858477743E+01  0.11689692348E+04  0.11692493700E+04  0.00000000000E+00 0. -1.
          1    1    1    2  501    0  0.49251426243E+02  0.15223701672E+02  0.30762369793E+03  0.31191313472E+03  0.00000000000E+00 0. -1.
<mgrwt>
<rscale>  1 0.96709562E+02</rscale>
<asrwt>0</asrwt>
<pdfrwt beam="1">  1       21 0.60507958E-03 0.96709562E+02</pdfrwt>
<pdfrwt beam="2">  1        2 0.24880957E+00 0.96709562E+02</pdfrwt>
<totfact> 0.12210060E+06</totfact>
</mgrwt>
</event>
<event>
 6    2  0.7993170E+000  0.8401691E+02  0.7546771E-02  0.1318024E+00
         21   -1    0    0  501  502  0.00000000000E+00  0.00000000000E+00  0.23863445444E+01  0.23863445444E+01  0.00000000000E+00 0.  1.
          2   -1    0    0  502    0 -0.00000000000E+00 -0.00000000000E+00 -0.13617739874E+04  0.13617739874E+04  0.00000000000E+00 0. -1.
         24    2    1    2    0    0  0.19446620676E+02  0.22039878610E+02 -0.10650696063E+04  0.10683782603E+04  0.78707771957E+02 0.  0.
        -11    1    3    3    0    0  0.18270330959E+02  0.18609336544E+02 -0.10133929522E+03  0.10464112555E+03  0.00000000000E+00 0.  1.
         12    1    3    3    0    0  0.11762897177E+01  0.34305420663E+01 -0.96373031111E+03  0.96373713472E+03  0.00000000000E+00 0. -1.
          1    1    1    2  501    0 -0.19446620676E+02 -0.22039878610E+02 -0.29431803656E+03  0.29578207171E+03  0.00000000000E+00 0. -1.
<mgrwt>
<rscale>  1 0.84016907E+02</rscale>
<asrwt>0</asrwt>
<pdfrwt beam="1">  1       21 0.36712904E-03 0.84016907E+02</pdfrwt>
<pdfrwt beam="2">  1        2 0.20950420E+00 0.84016907E+02</pdfrwt>
<totfact> 0.35048433E+06</totfact>
</mgrwt>
</event>
<event>
 6    2  0.7993170E+000  0.1098034E+03  0.7546771E-02  0.1260934E+00
          2   -1    0    0  502    0 -0.00000000000E+00  0.00000000000E+00  0.24166937277E+02  0.24166937277E+02  0.00000000000E+00 0. -1.
         21   -1    0    0  501  502  0.00000000000E+00 -0.00000000000E+00 -0.36420230091E+03  0.36420230091E+03  0.00000000000E+00 0. -1.
         24    2    1    2    0    0 -0.38508776155E+02 -0.61797584650E+02 -0.15890964738E+03  0.19315552863E+03  0.82188289321E+02 0.  0.
        -13    1    3    3    0    0 -0.26598365082E+02 -0.65690467810E+01 -0.12344500162E+03  0.12644877945E+03  0.00000000000E+00 0.  1.
         14    1    3    3    0    0 -0.11910411072E+02 -0.55228537869E+02 -0.35464645759E+02  0.66706749178E+02  0.00000000000E+00 0. -1.
          1    1    1    2  501    0  0.38508776155E+02  0.61797584650E+02 -0.18112571626E+03  0.19521370956E+03  0.00000000000E+00 0. -1.
<mgrwt>
<rscale>  1 0.10980338E+03</rscale>
<asrwt>0</asrwt>
<pdfrwt beam="1">  1       21 0.56031125E-01 0.10980338E+03</pdfrwt>
<pdfrwt beam="2">  1        2 0.37179902E-02 0.10980338E+03</pdfrwt>
<totfact> 0.82340862E+04</totfact>
</mgrwt>
</event>
<event>
 6    2  0.7993170E+000  0.8398559E+02  0.7546771E-02  0.1318107E+00
         21   -1    0    0  501  502  0.00000000000E+00  0.00000000000E+00  0.53386581050E+02  0.53386581050E+02  0.00000000000E+00 0. -1.
         -1   -1    0    0    0  501 -0.00000000000E+00 -0.00000000000E+00 -0.62152410756E+02  0.62152410756E+02  0.00000000000E+00 0.  1.
         24    2    1    2    0    0 -0.19742996543E+02  0.16897352284E+02 -0.21363008945E+02  0.86660014133E+02  0.79864093757E+02 0.  0.
        -11    1    3    3    0    0 -0.20090138001E+02  0.29663641586E+02 -0.46359727110E+02  0.58589841908E+02  0.00000000000E+00 0.  1.
         12    1    3    3    0    0  0.34714145772E+00 -0.12766289302E+02  0.24996718165E+02  0.28070172225E+02  0.00000000000E+00 0. -1.
         -2    1    1    2    0  502  0.19742996543E+02 -0.16897352284E+02  0.12597179239E+02  0.28878977674E+02  0.00000000000E+00 0.  1.
<mgrwt>
<rscale>  1 0.83985593E+02</rscale>
<asrwt>0</asrwt>
<pdfrwt beam="1">  1       21 0.82133202E-02 0.83985593E+02</pdfrwt>
<pdfrwt beam="2">  1       -1 0.95619093E-02 0.83985593E+02</pdfrwt>
<totfact> 0.61599831E+05</totfact>
</mgrwt>
</event>
<event>
 6    2  0.7993170E+000  0.1441790E+03  0.7546771E-02  0.1207814E+00
         21   -1    0    0  501  502  0.00000000000E+00  0.00000000000E+00  0.69953146381E+02  0.69953146381E+02  0.00000000000E+00 0.  1.
         -1   -1    0    0    0  501 -0.00000000000E+00 -0.00000000000E+00 -0.23934851907E+03  0.23934851907E+03  0.00000000000E+00 0.  1.
         24    2    1    2    0    0 -0.58877280990E+02 -0.96392519926E+02 -0.11221475557E+03  0.18270121091E+03  0.89607639117E+02 0.  0.
        -13    1    3    3    0    0 -0.66597245337E+02 -0.77613583279E+02 -0.12279577234E+03  0.15980570421E+03  0.00000000000E+00 0.  1.
         14    1    3    3    0    0  0.77199643469E+01 -0.18778936647E+02  0.10581016770E+02  0.22895506699E+02  0.00000000000E+00 0. -1.
         -2    1    1    2    0  502  0.58877280990E+02  0.96392519926E+02 -0.57180617125E+02  0.12660045454E+03  0.00000000000E+00 0.  1.
<mgrwt>
<rscale>  1 0.14417899E+03</rscale>
<asrwt>0</asrwt>
<pdfrwt beam="1">  1       21 0.10762022E-01 0.14417899E+03</pdfrwt>
<pdfrwt beam="2">  1       -1 0.36822849E-01 0.14417899E+03</pdfrwt>
<totfact> 0.46517442E+04</totfact>
</mgrwt>
</event>
<event>
 6    2  0.7993170E+000  0.8910628E+02  0.7546771E-02  0.1305031E+00
          2   -1    0    0  502    0 -0.00000000000E+00  0.00000000000E+00  0.43601944639E+03  0.43601944639E+03  0.00000000000E+00 0. -1.
         21   -1    0    0  501  502  0.00000000000E+00 -0.00000000000E+00 -0.10538207180E+02  0.10538207180E+02  0.00000000000E+00 0.  1.
         24    2    1    2    0    0 -0.20909579607E+02 -0.30549576770E+02  0.21318704925E+03  0.23105983398E+03  0.81052092804E+02 0.  0.
        -11    1    3    3    0    0  0.11172643699E+02 -0.24138770013E+02  0.15711927441E+02  0.30892925547E+02  0.00000000000E+00 0.  1.
         12    1    3    3    0    0 -0.32082223306E+02 -0.64108067575E+01  0.19747512181E+03  0.20016690843E+03  0.00000000000E+00 0. -1.
          1    1    1    2  501    0  0.20909579607E+02  0.30549576770E+02  0.21229418996E+03  0.21549781960E+03  0.00000000000E+00 0. -1.
<mgrwt>
<rscale>  1 0.89106279E+02</rscale>
<asrwt>0</asrwt>
<pdfrwt beam="1">  1       21 0.16212630E-02 0.89106279E+02</pdfrwt>
<pdfrwt beam="2">  1        2 0.67079901E-01 0.89106279E+02</pdfrwt>
<totfact> 0.14617556E+06</totfact>
</mgrwt>
</event>
<event>
 6    2  0.7993170E+000  0.8320570E+02  0.7546771E-02  0.1320193E+00
         -1   -1    0    0    0  501 -0.00000000000E+00  0.00000000000E+00  0.63702330042E+02  0.63702330042E+02  0.00000000000E+00 0.  1.
         21   -1    0    0  501  502  0.00000000000E+00 -0.00000000000E+00 -0.47989264030E+02  0.47989264030E+02  0.00000000000E+00 0. -1.
         24    2    1    2    0    0 -0.58514166641E+01 -0.19135106828E+02 -0.43979118987E+01  0.83321842172E+02  0.80763830789E+02 0.  0.
        -11    1    3    3    0    0  0.18114932497E+01 -0.25901393071E+02  0.34457079163E+02  0.43144570634E+02  0.00000000000E+00 0.  1.
         12    1    3    3    0    0 -0.76629099137E+01  0.67662862433E+01 -0.38854991061E+02  0.40177271538E+02  0.00000000000E+00 0. -1.
         -2    1    1    2    0  502  0.58514166641E+01  0.19135106828E+02  0.20110977911E+02  0.28369751899E+02  0.00000000000E+00 0.  1.
<mgrwt>
<rscale>  1 0.83205695E+02</rscale>
<asrwt>0</asrwt>
<pdfrwt beam="1">  1       21 0.73829637E-02 0.83205695E+02</pdfrwt>
<pdfrwt beam="2">  1       -1 0.98003584E-02 0.83205695E+02</pdfrwt>
<totfact> 0.71084334E+05</totfact>
</mgrwt>
</event>
<event>
 6    2  0.7993170E+000  0.9535878E+02  0.7546771E-02  0.1290370E+00
         21   -1    0    0  501  502  0.00000000000E+00  0.00000000000E+00  0.16722551771E+03  0.16722551771E+03  0.00000000000E+00 0. -1.
          2   -1    0    0  502    0 -0.00000000000E+00 -0.00000000000E+00 -0.44775752648E+03  0.44775752648E+03  0.00000000000E+00 0. -1.
         24    2    1    2    0    0 -0.15327046627E+02  0.40302319776E+02 -0.43978059272E+03  0.45000029713E+03  0.85053526352E+02 0.  0.
        -11    1    3    3    0    0  0.12492316031E+01  0.37364080085E+02 -0.66092679910E+02  0.75933374730E+02  0.00000000000E+00 0.  1.
         12    1    3    3    0    0 -0.16576278230E+02  0.29382396910E+01 -0.37368791281E+03  0.37406692240E+03  0.00000000000E+00 0. -1.
          1    1    1    2  501    0  0.15327046627E+02 -0.40302319776E+02  0.15924858395E+03  0.16498274706E+03  0.00000000000E+00 0. -1.
<mgrwt>
<rscale>  1 0.95358784E+02</rscale>
<asrwt>0</asrwt>
<pdfrwt beam="1">  1       21 0.25727003E-01 0.95358784E+02</pdfrwt>
<pdfrwt beam="2">  1        2 0.68885773E-01 0.95358784E+02</pdfrwt>
<totfact> 0.12881436E+04</totfact>
</mgrwt>
</event>
<event>
 6    2  0.7993170E+000  0.1095498E+03  0.7546771E-02  0.1261406E+00
         21   -1    0    0  501  502  0.00000000000E+00  0.00000000000E+00  0.61952486598E+03  0.61952486598E+03  0.00000000000E+00 0. -1.
         -3   -1    0    0    0  501 -0.00000000000E+00 -0.00000000000E+00 -0.86035559106E+01  0.86035559106E+01  0.00000000000E+00 0.  1.
         24    2    1    2    0    0 -0.26536116084E+02  0.20674146136E+02  0.51372214329E+03  0.52527287368E+03  0.10425720858E+03 0.  0.
        -13    1    3    3    0    0 -0.16249542870E+02  0.48273685325E+02  0.11886300574E+03  0.12931670608E+03  0.00000000000E+00 0.  1.
         14    1    3    3    0    0 -0.10286573214E+02 -0.27599539188E+02  0.39485913755E+03  0.39595616760E+03  0.00000000000E+00 0. -1.
         -4    1    1    2    0  502  0.26536116084E+02 -0.20674146136E+02  0.97199166782E+02  0.10285554821E+03  0.00000000000E+00 0.  1.
<mgrwt>
<rscale>  1 0.10954977E+03</rscale>
<asrwt>0</asrwt>
<pdfrwt beam="1">  1       21 0.95311483E-01 0.10954977E+03</pdfrwt>
<pdfrwt beam="2">  1       -3 0.13236245E-02 0.10954977E+03</pdfrwt>
<totfact> 0.77400379E+04</totfact>
</mgrwt>
</event>
<event>
 6    2  0.7993170E+000  0.8249683E+02  0.7546771E-02  0.1322111E+00
         21   -1    0    0  501  502  0.00000000000E+00  0.00000000000E+00  0.32013857783E+02  0.32013857783E+02  0.00000000000E+00 0. -1.
         -1   -1    0    0    0  501 -0.00000000000E+00 -0.00000000000E+00 -0.10642908688E+03  0.10642908688E+03  0.00000000000E+00 0.  1.
         24    2    1    2    0    0 -0.31668540289E+02  0.66897690765E+01 -0.41758603340E+02  0.92463550798E+02  0.75881999307E+02 0.  0.
        -11    1    3    3    0    0  0.17429260439E+02 -0.19553344846E+02 -0.18809524217E+02  0.32247645114E+02  0.00000000000E+00 0.  1.
         12    1    3    3    0    0 -0.49097800729E+02  0.26243113922E+02 -0.22949079123E+02  0.60215905684E+02  0.00000000000E+00 0. -1.
         -2    1    1    2    0  502  0.31668540289E+02 -0.66897690765E+01 -0.32656625755E+02  0.45979393864E+02  0.00000000000E+00 0.  1.
<mgrwt>
<rscale>  1 0.82496832E+02</rscale>
<asrwt>0</asrwt>
<pdfrwt beam="1">  1       21 0.49252089E-02 0.82496832E+02</pdfrwt>
<pdfrwt beam="2">  1       -1 0.16373706E-01 0.82496832E+02</pdfrwt>
<totfact> 0.63884698E+05</totfact>
</mgrwt>
</event>
<event>
 6    2  0.7993170E+000  0.8363282E+02  0.7546771E-02  0.1319047E+00
          2   -1    0    0  502    0 -0.00000000000E+00  0.00000000000E+00  0.19759284749E+04  0.19759284749E+04  0.00000000000E+00 0. -1.
         21   -1    0    0  501  502  0.00000000000E+00 -0.00000000000E+00 -0.16860476131E+01  0.16860476131E+01  0.00000000000E+00 0. -1.
         24    2    1    2    0    0  0.61426403144E+01  0.20305094773E+02  0.18199461546E+04  0.18218667500E+04  0.80897588987E+02 0.  0.
        -13    1    3    3    0    0  0.10554236944E+02  0.20127335557E+02  0.13391246922E+03  0.13582728359E+03  0.00000000000E+00 0.  1.
         14    1    3    3    0    0 -0.44115966299E+01  0.17775921536E+00  0.16860336854E+04  0.16860394664E+04  0.00000000000E+00 0. -1.
          1    1    1    2  501    0 -0.61426403144E+01 -0.20305094773E+02  0.15429627269E+03  0.15574777260E+03  0.00000000000E+00 0. -1.
<mgrwt>
<rscale>  1 0.83632821E+02</rscale>
<asrwt>0</asrwt>
<pdfrwt beam="1">  1       21 0.25939352E-03 0.83632821E+02</pdfrwt>
<pdfrwt beam="2">  1        2 0.30398714E+00 0.83632821E+02</pdfrwt>
<totfact> 0.29021890E+06</totfact>
</mgrwt>
</event>
<event>
 6    2  0.7993170E+000  0.8499328E+02  0.7546771E-02  0.1315450E+00
         21   -1    0    0  501  502  0.00000000000E+00  0.00000000000E+00  0.32841152757E+02  0.32841152757E+02  0.00000000000E+00 0. -1.
          4   -1    0    0  502    0 -0.00000000000E+00 -0.00000000000E+00 -0.14067347933E+03  0.14067347933E+03  0.00000000000E+00 0. -1.
         24    2    1    2    0    0  0.20912354743E+02  0.12380475644E+02 -0.27108097395E+02  0.89211583895E+02  0.81444797247E+02 0.  0.
        -13    1    3    3    0    0  0.79041951074E+01 -0.34576302315E+02 -0.54297440389E+01  0.35881459034E+02  0.00000000000E+00 0.  1.
         14    1    3    3    0    0  0.13008159635E+02  0.46956777960E+02 -0.21678353356E+02  0.53330124861E+02  0.00000000000E+00 0. -1.
          3    1    1    2  501    0 -0.20912354743E+02 -0.12380475644E+02 -0.80724229178E+02  0.84303048192E+02  0.00000000000E+00 0. -1.
<mgrwt>
<rscale>  1 0.84993281E+02</rscale>
<asrwt>0</asrwt>
<pdfrwt beam="1">  1       21 0.50524851E-02 0.84993281E+02</pdfrwt>
<pdfrwt beam="2">  1        4 0.21642074E-01 0.84993281E+02</pdfrwt>
<totfact> 0.19057217E+05</totfact>
</mgrwt>
</event>
<event>
 6    2  0.7993170E+000  0.8432145E+02  0.7546771E-02  0.1317217E+00
          2   -1    0    0  502    0 -0.00000000000E+00  0.00000000000E+00  0.34517456323E+02  0.34517456323E+02  0.00000000000E+00 0. -1.
         21   -1    0    0  501  502  0.00000000000E+00 -0.00000000000E+00 -0.90599488993E+02  0.90599488993E+02  0.00000000000E+00 0.  1.
         24    2    1    2    0    0 -0.19601340235E+02  0.19317118565E+02 -0.41943416229E+02  0.94177260710E+02  0.79704094382E+02 0.  0.
        -13    1    3    3    0    0 -0.47784895624E+02  0.20617239146E+02 -0.40468050989E+02  0.65925184495E+02  0.00000000000E+00 0.  1.
         14    1    3    3    0    0  0.28183555389E+02 -0.13001205815E+01 -0.14753652395E+01  0.28252076215E+02  0.00000000000E+00 0. -1.
          1    1    1    2  501    0  0.19601340235E+02 -0.19317118565E+02 -0.14138616441E+02  0.30939684606E+02  0.00000000000E+00 0. -1.
<mgrwt>
<rscale>  1 0.84321446E+02</rscale>
<asrwt>0</asrwt>
<pdfrwt beam="1">  1       21 0.13938383E-01 0.84321446E+02</pdfrwt>
<pdfrwt beam="2">  1        2 0.53103779E-02 0.84321446E+02</pdfrwt>
<totfact> 0.72184982E+05</totfact>
</mgrwt>
</event>
<event>
 6    2  0.7993170E+000  0.1129130E+03  0.7546771E-02  0.1255269E+00
         21   -1    0    0  501  502  0.00000000000E+00  0.00000000000E+00  0.24230498302E+02  0.24230498302E+02  0.00000000000E+00 0.  1.
          2   -1    0    0  502    0 -0.00000000000E+00 -0.00000000000E+00 -0.44680136092E+03  0.44680136092E+03  0.00000000000E+00 0. -1.
         24    2    1    2    0    0 -0.74368550769E+02  0.25137557981E+02 -0.33454718064E+03  0.35308803042E+03  0.81158874951E+02 0.  0.
        -13    1    3    3    0    0 -0.24447245533E+02 -0.25737143250E+02 -0.62690746620E+02  0.72043029285E+02  0.00000000000E+00 0.  1.
         14    1    3    3    0    0 -0.49921305236E+02  0.50874701231E+02 -0.27185643402E+03  0.28104500113E+03  0.00000000000E+00 0. -1.
          1    1    1    2  501    0  0.74368550769E+02 -0.25137557981E+02 -0.88023681975E+02  0.11794382880E+03  0.00000000000E+00 0. -1.
<mgrwt>
<rscale>  1 0.11291298E+03</rscale>
<asrwt>0</asrwt>
<pdfrwt beam="1">  1       21 0.37277688E-02 0.11291298E+03</pdfrwt>
<pdfrwt beam="2">  1        2 0.68738675E-01 0.11291298E+03</pdfrwt>
<totfact> 0.37803605E+05</totfact>
</mgrwt>
</event>
<event>
 6    2  0.7993170E+000  0.9250722E+02  0.7546771E-02  0.1296891E+00
         21   -1    0    0  501  502  0.00000000000E+00  0.00000000000E+00  0.11592853694E+02  0.11592853694E+02  0.00000000000E+00 0.  1.
          2   -1    0    0  502    0 -0.00000000000E+00 -0.00000000000E+00 -0.37909584032E+03  0.37909584032E+03  0.00000000000E+00 0. -1.
         24    2    1    2    0    0 -0.87530710520E+01 -0.39057338771E+02 -0.26153960609E+03  0.27741764749E+03  0.83399602057E+02 0.  0.
        -11    1    3    3    0    0 -0.23134061654E+02  0.20632204404E+02 -0.81410675487E+02  0.87112402965E+02  0.00000000000E+00 0.  1.
         12    1    3    3    0    0  0.14380990602E+02 -0.59689543176E+02 -0.18012893060E+03  0.19030524453E+03  0.00000000000E+00 0. -1.
          1    1    1    2  501    0  0.87530710520E+01  0.39057338771E+02 -0.10596338054E+03  0.11327104652E+03  0.00000000000E+00 0. -1.
<mgrwt>
<rscale>  1 0.92507219E+02</rscale>
<asrwt>0</asrwt>
<pdfrwt beam="1">  1       21 0.17835160E-02 0.92507219E+02</pdfrwt>
<pdfrwt beam="2">  1        2 0.58322434E-01 0.92507219E+02</pdfrwt>
<totfact> 0.14615567E+06</totfact>
</mgrwt>
</event>
<event>
 6    2  0.7993170E+000  0.8643968E+02  0.7546771E-02  0.1311710E+00
          4   -1    0    0  502    0 -0.00000000000E+00  0.00000000000E+00  0.80975756545E+02  0.80975756545E+02  0.00000000000E+00 0. -1.
         21   -1    0    0  501  502  0.00000000000E+00 -0.00000000000E+00 -0.45519147457E+02  0.45519147457E+02  0.00000000000E+00 0.  1.
         24    2    1    2    0    0 -0.23822529293E+02  0.19798710856E+02  0.11221570781E+02  0.87165030684E+02  0.80698928555E+02 0.  0.
        -11    1    3    3    0    0 -0.47846618384E+01 -0.36326356921E+01 -0.33043187188E+02  0.33584836616E+02  0.00000000000E+00 0.  1.
         12    1    3    3    0    0 -0.19037867455E+02  0.23431346548E+02  0.44264757969E+02  0.53580194068E+02  0.00000000000E+00 0. -1.
          3    1    1    2  501    0  0.23822529293E+02 -0.19798710856E+02  0.24235038307E+02  0.39329873318E+02  0.00000000000E+00 0. -1.
<mgrwt>
<rscale>  1 0.86439684E+02</rscale>
<asrwt>0</asrwt>
<pdfrwt beam="1">  1       21 0.70029458E-02 0.86439684E+02</pdfrwt>
<pdfrwt beam="2">  1        4 0.12457809E-01 0.86439684E+02</pdfrwt>
<totfact> 0.28991091E+05</totfact>
</mgrwt>
</event>
<event>
 6    2  0.7993170E+000  0.8600309E+02  0.7546771E-02  0.1312830E+00
         -1   -1    0    0    0  501 -0.00000000000E+00  0.00000000000E+00  0.11953368721E+03  0.11953368721E+03  0.00000000000E+00 0.  1.
         21   -1    0    0  501  502  0.00000000000E+00 -0.00000000000E+00 -0.27546019225E+02  0.27546019225E+02  0.00000000000E+00 0. -1.
         24    2    1    2    0    0  0.19271137225E+02 -0.17091321784E+02  0.55283082664E+02  0.10223869180E+03  0.82055108683E+02 0.  0.
        -11    1    3    3    0    0 -0.30123825970E+02 -0.17798135847E+02  0.32815088761E+02  0.47969246201E+02  0.00000000000E+00 0.  1.
         12    1    3    3    0    0  0.49394963194E+02  0.70681406291E+00  0.22467993903E+02  0.54269445594E+02  0.00000000000E+00 0. -1.
         -2    1    1    2    0  502 -0.19271137225E+02  0.17091321784E+02  0.36704585317E+02  0.44841014635E+02  0.00000000000E+00 0.  1.
<mgrwt>
<rscale>  1 0.86003086E+02</rscale>
<asrwt>0</asrwt>
<pdfrwt beam="1">  1       21 0.42378492E-02 0.86003086E+02</pdfrwt>
<pdfrwt beam="2">  1       -1 0.18389798E-01 0.86003086E+02</pdfrwt>
<totfact> 0.68642916E+05</totfact>
</mgrwt>
</event>
<event>
 6    2  0.7993170E+000  0.8443828E+02  0.7546771E-02  0.1316908E+00
         21   -1    0    0  501  502  0.00000000000E+00  0.00000000000E+00  0.21011740100E+02  0.21011740100E+02  0.00000000000E+00 0.  1.
         -3   -1    0    0    0  501 -0.00000000000E+00 -0.00000000000E+00 -0.18182141106E+03  0.18182141106E+03  0.00000000000E+00 0.  1.
         24    2    1    2    0    0  0.17060235200E+02  0.10550580846E+02 -0.16205673318E+03  0.18273535164E+03  0.82021080145E+02 0.  0.
        -11    1    3    3    0    0 -0.16909559247E+02  0.15460771285E+02 -0.14016501486E+03  0.14202534997E+03  0.00000000000E+00 0.  1.
         12    1    3    3    0    0  0.33969794447E+02 -0.49101904389E+01 -0.21891718316E+02  0.40710001667E+02  0.00000000000E+00 0. -1.
         -4    1    1    2    0  502 -0.17060235200E+02 -0.10550580846E+02  0.12470622234E+01  0.20097799517E+02  0.00000000000E+00 0.  1.
<mgrwt>
<rscale>  1 0.84438285E+02</rscale>
<asrwt>0</asrwt>
<pdfrwt beam="1">  1       21 0.32325754E-02 0.84438285E+02</pdfrwt>
<pdfrwt beam="2">  1       -3 0.27972525E-01 0.84438285E+02</pdfrwt>
<totfact> 0.29919480E+05</totfact>
</mgrwt>
</event>
<event>
 6    2  0.7993170E+000  0.8583621E+02  0.7546771E-02  0.1313260E+00
          2   -1    0    0  502    0 -0.00000000000E+00  0.00000000000E+00  0.21385847118E+04  0.21385847118E+04  0.00000000000E+00 0. -1.
         21   -1    0    0  501  502  0.00000000000E+00 -0.00000000000E+00 -0.15655332464E+01  0.15655332464E+01  0.00000000000E+00 0. -1.
         24    2    1    2    0    0 -0.21480519227E+02  0.20383891561E+02  0.15219260127E+04  0.15243446601E+04  0.80566363793E+02 0.  0.
        -11    1    3    3    0    0 -0.12767439951E+02 -0.69717953055E+01  0.48396295325E+02  0.50535283257E+02  0.00000000000E+00 0.  1.
         12    1    3    3    0    0 -0.87130792762E+01  0.27355686866E+02  0.14735297173E+04  0.14738093768E+04  0.00000000000E+00 0. -1.
          1    1    1    2  501    0  0.21480519227E+02 -0.20383891561E+02  0.61509316587E+03  0.61580558494E+03  0.00000000000E+00 0. -1.
<mgrwt>
<rscale>  1 0.85836209E+02</rscale>
<asrwt>0</asrwt>
<pdfrwt beam="1">  1       21 0.24085298E-03 0.85836209E+02</pdfrwt>
<pdfrwt beam="2">  1        2 0.32901069E+00 0.85836209E+02</pdfrwt>
<totfact> 0.26931734E+06</totfact>
</mgrwt>
</event>
<event>
 6    2  0.7993170E+000  0.1127956E+03  0.7546771E-02  0.1255479E+00
         21   -1    0    0  501  502  0.00000000000E+00  0.00000000000E+00  0.37935920203E+02  0.37935920203E+02  0.00000000000E+00 0.  1.
         -1   -1    0    0    0  501 -0.00000000000E+00 -0.00000000000E+00 -0.30983915162E+03  0.30983915162E+03  0.00000000000E+00 0.  1.
         24    2    1    2    0    0 -0.28452716605E+02 -0.72664530404E+02 -0.23662674347E+03  0.26213558523E+03  0.81444203364E+02 0.  0.
        -13    1    3    3    0    0 -0.18072025312E+02 -0.59740867721E+01 -0.15524651462E+03  0.15640897708E+03  0.00000000000E+00 0.  1.
         14    1    3    3    0    0 -0.10380691293E+02 -0.66690443632E+02 -0.81380228851E+02  0.10572660815E+03  0.00000000000E+00 0. -1.
         -2    1    1    2    0  502  0.28452716605E+02  0.72664530404E+02 -0.35276487948E+02  0.85639486587E+02  0.00000000000E+00 0.  1.
<mgrwt>
<rscale>  1 0.11279561E+03</rscale>
<asrwt>0</asrwt>
<pdfrwt beam="1">  1       21 0.58362956E-02 0.11279561E+03</pdfrwt>
<pdfrwt beam="2">  1       -1 0.47667560E-01 0.11279561E+03</pdfrwt>
<totfact> 0.83879330E+04</totfact>
</mgrwt>
</event>
<event>
 6    2  0.7993170E+000  0.8816018E+02  0.7546771E-02  0.1307369E+00
         -1   -1    0    0    0  501 -0.00000000000E+00  0.00000000000E+00  0.69340283959E+02  0.69340283959E+02  0.00000000000E+00 0.  1.
         21   -1    0    0  501  502  0.00000000000E+00 -0.00000000000E+00 -0.17161025425E+03  0.17161025425E+03  0.00000000000E+00 0.  1.
         24    2    1    2    0    0 -0.34695308507E+02 -0.12011602979E+02  0.37966155620E+02  0.95987735914E+02  0.80150941571E+02 0.  0.
        -11    1    3    3    0    0 -0.28687908844E+02 -0.42925063042E+02  0.38642430445E+02  0.64488716701E+02  0.00000000000E+00 0.  1.
         12    1    3    3    0    0 -0.60073996633E+01  0.30913460062E+02 -0.67627482519E+00  0.31499019213E+02  0.00000000000E+00 0. -1.
         -2    1    1    2    0  502  0.34695308507E+02  0.12011602979E+02 -0.14023612592E+03  0.14496280230E+03  0.00000000000E+00 0.  1.
<mgrwt>
<rscale>  1 0.88160175E+02</rscale>
<asrwt>0</asrwt>
<pdfrwt beam="1">  1       21 0.26401577E-01 0.88160175E+02</pdfrwt>
<pdfrwt beam="2">  1       -1 0.10667736E-01 0.88160175E+02</pdfrwt>
<totfact> 0.65259210E+04</totfact>
</mgrwt>
</event>
<event>
 6    2  0.7993170E+000  0.9278756E+02  0.7546771E-02  0.1296238E+00
         21   -1    0    0  501  502  0.00000000000E+00  0.00000000000E+00  0.36827562314E+01  0.36827562314E+01  0.00000000000E+00 0. -1.
          2   -1    0    0  502    0 -0.00000000000E+00 -0.00000000000E+00 -0.11878713296E+04  0.11878713296E+04  0.00000000000E+00 0. -1.
         24    2    1    2    0    0  0.27440101185E+02 -0.24317347721E+02 -0.94892311282E+03  0.95344879508E+03  0.85236366987E+02 0.  0.
        -11    1    3    3    0    0  0.77437781902E+01 -0.32409568049E+02 -0.12852326082E+03  0.13277264316E+03  0.00000000000E+00 0.  1.
         12    1    3    3    0    0  0.19696322995E+02  0.80922203281E+01 -0.82039985200E+03  0.82067615192E+03  0.00000000000E+00 0. -1.
          1    1    1    2  501    0 -0.27440101185E+02  0.24317347721E+02 -0.23526546059E+03  0.23810529079E+03  0.00000000000E+00 0. -1.
<mgrwt>
<rscale>  1 0.92787557E+02</rscale>
<asrwt>0</asrwt>
<pdfrwt beam="1">  1       21 0.56657779E-03 0.92787557E+02</pdfrwt>
<pdfrwt beam="2">  1        2 0.18274947E+00 0.92787557E+02</pdfrwt>
<totfact> 0.22559351E+06</totfact>
</mgrwt>
</event>
<event>
 6    2  0.7993170E+000  0.9484615E+02  0.7546771E-02  0.1291523E+00
         21   -1    0    0  501  502  0.00000000000E+00  0.00000000000E+00  0.86323454115E+02  0.86323454115E+02  0.00000000000E+00 0. -1.
          2   -1    0    0  502    0 -0.00000000000E+00 -0.00000000000E+00 -0.69764515985E+02  0.69764515985E+02  0.00000000000E+00 0. -1.
         24    2    1    2    0    0 -0.30638145625E+02  0.23829969351E+02 -0.26141489798E+02  0.98382771444E+02  0.86540330607E+02 0.  0.
        -13    1    3    3    0    0  0.87195445222E+01 -0.51687428805E+01  0.25397779104E+02  0.27345813995E+02  0.00000000000E+00 0.  1.
         14    1    3    3    0    0 -0.39357690147E+02  0.28998712231E+02 -0.51539268902E+02  0.71036957450E+02  0.00000000000E+00 0. -1.
          1    1    1    2  501    0  0.30638145625E+02 -0.23829969351E+02  0.42700427928E+02  0.57705198655E+02  0.00000000000E+00 0. -1.
<mgrwt>
<rscale>  1 0.94846150E+02</rscale>
<asrwt>0</asrwt>
<pdfrwt beam="1">  1       21 0.13280531E-01 0.94846150E+02</pdfrwt>
<pdfrwt beam="2">  1        2 0.10733002E-01 0.94846150E+02</pdfrwt>
<totfact> 0.33120557E+05</totfact>
</mgrwt>
</event>
<event>
 6    2  0.7993170E+000  0.8762354E+02  0.7546771E-02  0.1308711E+00
          2   -1    0    0  502    0 -0.00000000000E+00  0.00000000000E+00  0.33475380879E+03  0.33475380879E+03  0.00000000000E+00 0. -1.
         21   -1    0    0  501  502  0.00000000000E+00 -0.00000000000E+00 -0.17039340770E+02  0.17039340770E+02  0.00000000000E+00 0. -1.
         24    2    1    2    0    0  0.30127894539E+02  0.27039755969E+02  0.28944400053E+03  0.30241645704E+03  0.77711296556E+02 0.  0.
        -11    1    3    3    0    0 -0.19578987402E+02 -0.13168587352E+02  0.84405452835E+02  0.87641479385E+02  0.00000000000E+00 0.  1.
         12    1    3    3    0    0  0.49706881941E+02  0.40208343321E+02  0.20503854770E+03  0.21477497766E+03  0.00000000000E+00 0. -1.
          1    1    1    2  501    0 -0.30127894539E+02 -0.27039755969E+02  0.28270467487E+02  0.49376692519E+02  0.00000000000E+00 0. -1.
<mgrwt>
<rscale>  1 0.87623536E+02</rscale>
<asrwt>0</asrwt>
<pdfrwt beam="1">  1       21 0.26214373E-02 0.87623536E+02</pdfrwt>
<pdfrwt beam="2">  1        2 0.51500581E-01 0.87623536E+02</pdfrwt>
<totfact> 0.89242918E+05</totfact>
</mgrwt>
</event>
<event>
 6    2  0.7993170E+000  0.9576791E+02  0.7546771E-02  0.1289456E+00
         21   -1    0    0  501  502  0.00000000000E+00  0.00000000000E+00  0.51598062992E+03  0.51598062992E+03  0.00000000000E+00 0. -1.
         -3   -1    0    0    0  501 -0.00000000000E+00 -0.00000000000E+00 -0.99891374819E+01  0.99891374819E+01  0.00000000000E+00 0.  1.
         24    2    1    2    0    0 -0.28152445971E+02  0.36314708238E+02  0.29997189159E+03  0.31488828034E+03  0.84024848111E+02 0.  0.
        -13    1    3    3    0    0 -0.35129890649E+02  0.14029880151E+02  0.44732004916E+02  0.58582412189E+02  0.00000000000E+00 0.  1.
         14    1    3    3    0    0  0.69774446777E+01  0.22284828087E+02  0.25523988668E+03  0.25630586815E+03  0.00000000000E+00 0. -1.
         -4    1    1    2    0  502  0.28152445971E+02 -0.36314708238E+02  0.20601960085E+03  0.21108148707E+03  0.00000000000E+00 0.  1.
<mgrwt>
<rscale>  1 0.95767914E+02</rscale>
<asrwt>0</asrwt>
<pdfrwt beam="1">  1       21 0.79381614E-01 0.95767914E+02</pdfrwt>
<pdfrwt beam="2">  1       -3 0.15367908E-02 0.95767914E+02</pdfrwt>
<totfact> 0.92220053E+04</totfact>
</mgrwt>
</event>
<event>
 6    2  0.7993170E+000  0.8855833E+02  0.7546771E-02  0.1306381E+00
          2   -1    0    0  502    0 -0.00000000000E+00  0.00000000000E+00  0.20349675297E+04  0.20349675297E+04  0.00000000000E+00 0. -1.
         21   -1    0    0  501  502  0.00000000000E+00 -0.00000000000E+00 -0.53164041741E+01  0.53164041741E+01  0.00000000000E+00 0. -1.
         24    2    1    2    0    0 -0.19139420699E+02 -0.25806792121E+02  0.19742875876E+04  0.19762727687E+04  0.82524357066E+02 0.  0.
        -13    1    3    3    0    0 -0.24088620479E+02  0.67371537925E+01  0.18510025944E+03  0.18678264620E+03  0.00000000000E+00 0.  1.
         14    1    3    3    0    0  0.49491997808E+01 -0.32543945913E+02  0.17891873282E+04  0.17894901225E+04  0.00000000000E+00 0. -1.
          1    1    1    2  501    0  0.19139420699E+02  0.25806792121E+02  0.55363537881E+02  0.64011165206E+02  0.00000000000E+00 0. -1.
<mgrwt>
<rscale>  1 0.88558328E+02</rscale>
<asrwt>0</asrwt>
<pdfrwt beam="1">  1       21 0.81790996E-03 0.88558328E+02</pdfrwt>
<pdfrwt beam="2">  1        2 0.31307131E+00 0.88558328E+02</pdfrwt>
<totfact> 0.47036286E+05</totfact>
</mgrwt>
</event>
<event>
 6    2  0.7993170E+000  0.9959690E+02  0.7546771E-02  0.1281146E+00
          2   -1    0    0  502    0 -0.00000000000E+00  0.00000000000E+00  0.17147025682E+04  0.17147025682E+04  0.00000000000E+00 0. -1.
         21   -1    0    0  501  502  0.00000000000E+00 -0.00000000000E+00 -0.50472170986E+01  0.50472170986E+01  0.00000000000E+00 0. -1.
         24    2    1    2    0    0  0.50594319136E+02  0.31547164600E+02  0.14464834173E+04  0.14499082106E+04  0.79778028080E+02 0.  0.
        -13    1    3    3    0    0 -0.11489687399E+02 -0.32480250128E+01  0.43155776819E+02  0.44777043849E+02  0.00000000000E+00 0.  1.
         14    1    3    3    0    0  0.62084006535E+02  0.34795189613E+02  0.14033276405E+04  0.14051311667E+04  0.00000000000E+00 0. -1.
          1    1    1    2  501    0 -0.50594319136E+02 -0.31547164600E+02  0.26317193377E+03  0.26984157472E+03  0.00000000000E+00 0. -1.
<mgrwt>
<rscale>  1 0.99596900E+02</rscale>
<asrwt>0</asrwt>
<pdfrwt beam="1">  1       21 0.77649631E-03 0.99596900E+02</pdfrwt>
<pdfrwt beam="2">  1        2 0.26379993E+00 0.99596900E+02</pdfrwt>
<totfact> 0.74194484E+05</totfact>
</mgrwt>
</event>
<event>
 6    2  0.7993170E+000  0.8770131E+02  0.7546771E-02  0.1308516E+00
         21   -1    0    0  501  502  0.00000000000E+00  0.00000000000E+00  0.23718270519E+02  0.23718270519E+02  0.00000000000E+00 0.  1.
          2   -1    0    0  502    0 -0.00000000000E+00 -0.00000000000E+00 -0.16594762794E+03  0.16594762794E+03  0.00000000000E+00 0. -1.
         24    2    1    2    0    0 -0.13283773835E+01  0.33518586614E+02 -0.78752673228E+02  0.11787070592E+03  0.81032459788E+02 0.  0.
        -11    1    3    3    0    0  0.17318092136E+02  0.78942224352E+01  0.11485531334E+02  0.22229541001E+02  0.00000000000E+00 0.  1.
         12    1    3    3    0    0 -0.18646469520E+02  0.25624364179E+02 -0.90238204562E+02  0.95641164923E+02  0.00000000000E+00 0. -1.
          1    1    1    2  501    0  0.13283773835E+01 -0.33518586614E+02 -0.63476684195E+02  0.71795192538E+02  0.00000000000E+00 0. -1.
<mgrwt>
<rscale>  1 0.87701310E+02</rscale>
<asrwt>0</asrwt>
<pdfrwt beam="1">  1       21 0.36489647E-02 0.87701310E+02</pdfrwt>
<pdfrwt beam="2">  1        2 0.25530404E-01 0.87701310E+02</pdfrwt>
<totfact> 0.10941079E+06</totfact>
</mgrwt>
</event>
<event>
 6    2  0.7993170E+000  0.9767859E+02  0.7546771E-02  0.1285255E+00
         -1   -1    0    0    0  501 -0.00000000000E+00  0.00000000000E+00  0.77277217051E+02  0.77277217051E+02  0.00000000000E+00 0.  1.
         21   -1    0    0  501  502  0.00000000000E+00 -0.00000000000E+00 -0.63900821303E+02  0.63900821303E+02  0.00000000000E+00 0. -1.
         24    2    1    2    0    0 -0.40495240743E+02  0.40743759709E+01  0.20639513938E+02  0.99835349178E+02  0.88795508600E+02 0.  0.
        -11    1    3    3    0    0  0.16502189856E+02  0.26870148607E+02  0.21973617841E+02  0.38433930806E+02  0.00000000000E+00 0.  1.
         12    1    3    3    0    0 -0.56997430599E+02 -0.22795772636E+02 -0.13341039021E+01  0.61401418373E+02  0.00000000000E+00 0. -1.
         -2    1    1    2    0  502  0.40495240743E+02 -0.40743759709E+01 -0.72631181901E+01  0.41342689175E+02  0.00000000000E+00 0.  1.
<mgrwt>
<rscale>  1 0.97678592E+02</rscale>
<asrwt>0</asrwt>
<pdfrwt beam="1">  1       21 0.98308956E-02 0.97678592E+02</pdfrwt>
<pdfrwt beam="2">  1       -1 0.11888803E-01 0.97678592E+02</pdfrwt>
<totfact> 0.33021569E+05</totfact>
</mgrwt>
</event>
<event>
 6    2  0.7993170E+000  0.8445492E+02  0.7546771E-02  0.1316864E+00
         21   -1    0    0  501  502  0.00000000000E+00  0.00000000000E+00  0.27423369173E+02  0.27423369173E+02  0.00000000000E+00 0.  1.
          2   -1    0    0  502    0 -0.00000000000E+00 -0.00000000000E+00 -0.11094122877E+03  0.11094122877E+03  0.00000000000E+00 0. -1.
         24    2    1    2    0    0  0.41530382640E+01  0.25149766473E+02 -0.68791350328E+02  0.10892604235E+03  0.80516298604E+02 0.  0.
        -13    1    3    3    0    0  0.10187408770E+02  0.43311530400E+02 -0.80175165848E+01  0.45210093290E+02  0.00000000000E+00 0.  1.
         14    1    3    3    0    0 -0.60343705064E+01 -0.18161763927E+02 -0.60773833744E+02  0.63715949057E+02  0.00000000000E+00 0. -1.
          1    1    1    2  501    0 -0.41530382640E+01 -0.25149766473E+02 -0.14726509272E+02  0.29438555600E+02  0.00000000000E+00 0. -1.
<mgrwt>
<rscale>  1 0.84454916E+02</rscale>
<asrwt>0</asrwt>
<pdfrwt beam="1">  1       21 0.42189799E-02 0.84454916E+02</pdfrwt>
<pdfrwt beam="2">  1        2 0.17067881E-01 0.84454916E+02</pdfrwt>
<totfact> 0.13416770E+06</totfact>
</mgrwt>
</event>
<event>
 6    2  0.7993170E+000  0.8355986E+02  0.7546771E-02  0.1319242E+00
         -1   -1    0    0    0  501 -0.00000000000E+00  0.00000000000E+00  0.56639775593E+01  0.56639775593E+01  0.00000000000E+00 0.  1.
         21   -1    0    0  501  502  0.00000000000E+00 -0.00000000000E+00 -0.57580976527E+03  0.57580976527E+03  0.00000000000E+00 0. -1.
         24    2    1    2    0    0  0.24338817399E+02  0.11904424069E+02 -0.48423862035E+03  0.49139525068E+03  0.79045288303E+02 0.  0.
        -11    1    3    3    0    0  0.17624882128E+02 -0.30675843460E+02 -0.13712783945E+03  0.14161810688E+03  0.00000000000E+00 0.  1.
         12    1    3    3    0    0  0.67139352716E+01  0.42580267529E+02 -0.34711078090E+03  0.34977714380E+03  0.00000000000E+00 0. -1.
         -2    1    1    2    0  502 -0.24338817399E+02 -0.11904424069E+02 -0.85907167361E+02  0.90078492155E+02  0.00000000000E+00 0.  1.
<mgrwt>
<rscale>  1 0.83559864E+02</rscale>
<asrwt>0</asrwt>
<pdfrwt beam="1">  1       21 0.88586155E-01 0.83559864E+02</pdfrwt>
<pdfrwt beam="2">  1       -1 0.87138080E-03 0.83559864E+02</pdfrwt>
<totfact> 0.20536196E+05</totfact>
</mgrwt>
</event>
<event>
 6    2  0.7993170E+000  0.9148024E+02  0.7546771E-02  0.1299306E+00
         21   -1    0    0  501  502  0.00000000000E+00  0.00000000000E+00  0.38484845207E+02  0.38484845207E+02  0.00000000000E+00 0. -1.
          2   -1    0    0  502    0 -0.00000000000E+00 -0.00000000000E+00 -0.12859007055E+03  0.12859007055E+03  0.00000000000E+00 0. -1.
         24    2    1    2    0    0  0.39139225592E+02 -0.20353440405E+02 -0.80656152289E+02  0.12195921452E+03  0.80140461615E+02 0.  0.
        -11    1    3    3    0    0 -0.18452951581E+02  0.13643077472E+02 -0.11187755349E+02  0.25530586650E+02  0.00000000000E+00 0.  1.
         12    1    3    3    0    0  0.57592177173E+02 -0.33996517877E+02 -0.69468396940E+02  0.96428627869E+02  0.00000000000E+00 0. -1.
          1    1    1    2  501    0 -0.39139225592E+02  0.20353440405E+02 -0.94490730497E+01  0.45115701233E+02  0.00000000000E+00 0. -1.
<mgrwt>
<rscale>  1 0.91480244E+02</rscale>
<asrwt>0</asrwt>
<pdfrwt beam="1">  1       21 0.59207454E-02 0.91480244E+02</pdfrwt>
<pdfrwt beam="2">  1        2 0.19783088E-01 0.91480244E+02</pdfrwt>
<totfact> 0.65233257E+05</totfact>
</mgrwt>
</event>
<event>
 6    2  0.7993170E+000  0.7819783E+02  0.7546771E-02  0.1334245E+00
         21   -1    0    0  501  502  0.00000000000E+00  0.00000000000E+00  0.11647830963E+01  0.11647830963E+01  0.00000000000E+00 0.  1.
          2   -1    0    0  502    0 -0.00000000000E+00 -0.00000000000E+00 -0.26287490080E+04  0.26287490080E+04  0.00000000000E+00 0. -1.
         24    2    1    2    0    0 -0.97096393568E+01  0.23499091383E+02 -0.23061930654E+04  0.23075184409E+04  0.73948739062E+02 0.  0.
        -11    1    3    3    0    0  0.15071289514E+02  0.11129769081E+02 -0.15240056028E+03  0.15354786323E+03  0.00000000000E+00 0.  1.
         12    1    3    3    0    0 -0.24780928871E+02  0.12369322302E+02 -0.21537925051E+04  0.21539705777E+04  0.00000000000E+00 0. -1.
          1    1    1    2  501    0  0.97096393568E+01 -0.23499091383E+02 -0.32139115953E+03  0.32239535018E+03  0.00000000000E+00 0. -1.
<mgrwt>
<rscale>  1 0.78197829E+02</rscale>
<asrwt>0</asrwt>
<pdfrwt beam="1">  1       21 0.17919919E-03 0.78197829E+02</pdfrwt>
<pdfrwt beam="2">  1        2 0.40441888E+00 0.78197829E+02</pdfrwt>
<totfact> 0.23275121E+06</totfact>
</mgrwt>
</event>
<event>
 6    2  0.7993170E+000  0.8530240E+02  0.7546771E-02  0.1314644E+00
          2   -1    0    0  502    0 -0.00000000000E+00  0.00000000000E+00  0.80879448967E+03  0.80879448967E+03  0.00000000000E+00 0. -1.
         21   -1    0    0  501  502  0.00000000000E+00 -0.00000000000E+00 -0.43338362568E+01  0.43338362568E+01  0.00000000000E+00 0. -1.
         24    2    1    2    0    0 -0.73945761852E+01  0.27106608537E+02  0.69077893410E+03  0.69602588663E+03  0.80542231647E+02 0.  0.
        -13    1    3    3    0    0  0.22459253947E+02  0.20860276330E+02  0.10320255004E+03  0.10765842071E+03  0.00000000000E+00 0.  1.
         14    1    3    3    0    0 -0.29853830132E+02  0.62463322067E+01  0.58757638406E+03  0.58836746591E+03  0.00000000000E+00 0. -1.
          1    1    1    2  501    0  0.73945761852E+01 -0.27106608537E+02  0.11368171931E+03  0.11710243930E+03  0.00000000000E+00 0. -1.
<mgrwt>
<rscale>  1 0.85302398E+02</rscale>
<asrwt>0</asrwt>
<pdfrwt beam="1">  1       21 0.66674468E-03 0.85302398E+02</pdfrwt>
<pdfrwt beam="2">  1        2 0.12442980E+00 0.85302398E+02</pdfrwt>
<totfact> 0.29158155E+06</totfact>
</mgrwt>
</event>
<event>
 6    2  0.7993170E+000  0.8461925E+02  0.7546771E-02  0.1316431E+00
         21   -1    0    0  501  502  0.00000000000E+00  0.00000000000E+00  0.27874869444E+01  0.27874869444E+01  0.00000000000E+00 0.  1.
          2   -1    0    0  502    0 -0.00000000000E+00 -0.00000000000E+00 -0.19247940735E+04  0.19247940735E+04  0.00000000000E+00 0. -1.
         24    2    1    2    0    0 -0.27363988521E+02  0.73736527833E+01 -0.67906834444E+03  0.68432027160E+03  0.79732421764E+02 0.  0.
        -13    1    3    3    0    0 -0.48608899165E+02 -0.14613068658E+02 -0.32565707693E+03  0.32958898436E+03  0.00000000000E+00 0.  1.
         14    1    3    3    0    0  0.21244910644E+02  0.21986721442E+02 -0.35341126751E+03  0.35473128725E+03  0.00000000000E+00 0. -1.
          1    1    1    2  501    0  0.27363988521E+02 -0.73736527833E+01 -0.12429382421E+04  0.12432612889E+04  0.00000000000E+00 0. -1.
<mgrwt>
<rscale>  1 0.84619251E+02</rscale>
<asrwt>0</asrwt>
<pdfrwt beam="1">  1       21 0.42884555E-03 0.84619251E+02</pdfrwt>
<pdfrwt beam="2">  1        2 0.29612120E+00 0.84619251E+02</pdfrwt>
<totfact> 0.14388769E+06</totfact>
</mgrwt>
</event>
<event>
 6    2  0.7993170E+000  0.8414088E+02  0.7546771E-02  0.1317695E+00
         21   -1    0    0  501  502  0.00000000000E+00  0.00000000000E+00  0.20916659012E+02  0.20916659012E+02  0.00000000000E+00 0. -1.
          2   -1    0    0  502    0 -0.00000000000E+00 -0.00000000000E+00 -0.13582192918E+03  0.13582192918E+03  0.00000000000E+00 0. -1.
         24    2    1    2    0    0  0.17231720288E+02  0.12831795331E+02 -0.82354424525E+02  0.11773673301E+03  0.81351704996E+02 0.  0.
        -13    1    3    3    0    0  0.14856952768E+02 -0.33506767178E+02 -0.45844594920E+02  0.58695480027E+02  0.00000000000E+00 0.  1.
         14    1    3    3    0    0  0.23747675204E+01  0.46338562509E+02 -0.36509829605E+02  0.59041252984E+02  0.00000000000E+00 0. -1.
          1    1    1    2  501    0 -0.17231720288E+02 -0.12831795331E+02 -0.32550845643E+02  0.39001855181E+02  0.00000000000E+00 0. -1.
<mgrwt>
<rscale>  1 0.84140876E+02</rscale>
<asrwt>0</asrwt>
<pdfrwt beam="1">  1       21 0.32179476E-02 0.84140876E+02</pdfrwt>
<pdfrwt beam="2">  1        2 0.20895681E-01 0.84140876E+02</pdfrwt>
<totfact> 0.16651191E+06</totfact>
</mgrwt>
</event>
<event>
 6    2  0.7993170E+000  0.9869789E+02  0.7546771E-02  0.1283058E+00
          4   -1    0    0  502    0 -0.00000000000E+00  0.00000000000E+00  0.34801041344E+03  0.34801041344E+03  0.00000000000E+00 0. -1.
         21   -1    0    0  501  502  0.00000000000E+00 -0.00000000000E+00 -0.17343467309E+02  0.17343467309E+02  0.00000000000E+00 0.  1.
         24    2    1    2    0    0  0.31115929244E+02 -0.44405111883E+02  0.24293117693E+03  0.26221523517E+03  0.82469738803E+02 0.  0.
        -13    1    3    3    0    0  0.28860538830E+02 -0.50654259492E+02  0.79169458180E+02  0.98318807025E+02  0.00000000000E+00 0.  1.
         14    1    3    3    0    0  0.22553904139E+01  0.62491476098E+01  0.16376171875E+03  0.16389642815E+03  0.00000000000E+00 0. -1.
          3    1    1    2  501    0 -0.31115929244E+02  0.44405111883E+02  0.87735769204E+02  0.10313864558E+03  0.00000000000E+00 0. -1.
<mgrwt>
<rscale>  1 0.98697887E+02</rscale>
<asrwt>0</asrwt>
<pdfrwt beam="1">  1       21 0.26682260E-02 0.98697887E+02</pdfrwt>
<pdfrwt beam="2">  1        4 0.53540058E-01 0.98697887E+02</pdfrwt>
<totfact> 0.98834202E+04</totfact>
</mgrwt>
</event>
<event>
 6    2  0.7993170E+000  0.8298656E+02  0.7546771E-02  0.1320783E+00
          2   -1    0    0  502    0 -0.00000000000E+00  0.00000000000E+00  0.39102537474E+03  0.39102537474E+03  0.00000000000E+00 0. -1.
         21   -1    0    0  501  502  0.00000000000E+00 -0.00000000000E+00 -0.87940025037E+01  0.87940025037E+01  0.00000000000E+00 0.  1.
         24    2    1    2    0    0  0.22688321315E+02  0.12329783598E+02  0.34267757185E+03  0.35258288063E+03  0.78866887689E+02 0.  0.
        -11    1    3    3    0    0  0.28684450781E+02 -0.23580454396E+02  0.90981930492E+02  0.98267732355E+02  0.00000000000E+00 0.  1.
         12    1    3    3    0    0 -0.59961294662E+01  0.35910237994E+02  0.25169564136E+03  0.25431514827E+03  0.00000000000E+00 0. -1.
          1    1    1    2  501    0 -0.22688321315E+02 -0.12329783598E+02  0.39553800381E+02  0.47236496613E+02  0.00000000000E+00 0. -1.
<mgrwt>
<rscale>  1 0.82986562E+02</rscale>
<asrwt>0</asrwt>
<pdfrwt beam="1">  1       21 0.13529238E-02 0.82986562E+02</pdfrwt>
<pdfrwt beam="2">  1        2 0.60157736E-01 0.82986562E+02</pdfrwt>
<totfact> 0.21644355E+06</totfact>
</mgrwt>
</event>
<event>
 6    2  0.7993170E+000  0.8041624E+02  0.7546771E-02  0.1327874E+00
         21   -1    0    0  501  502  0.00000000000E+00  0.00000000000E+00  0.83183266484E+01  0.83183266484E+01  0.00000000000E+00 0.  1.
          2   -1    0    0  502    0 -0.00000000000E+00 -0.00000000000E+00 -0.35407930913E+03  0.35407930913E+03  0.00000000000E+00 0. -1.
         24    2    1    2    0    0 -0.14540855617E+02 -0.20992596703E+02 -0.22426301221E+03  0.23824497822E+03  0.76253822223E+02 0.  0.
        -13    1    3    3    0    0  0.27675690367E+02  0.69991941057E+00 -0.45255024450E+02  0.53051399251E+02  0.00000000000E+00 0.  1.
         14    1    3    3    0    0 -0.42216545984E+02 -0.21692516114E+02 -0.17900798776E+03  0.18519357897E+03  0.00000000000E+00 0. -1.
          1    1    1    2  501    0  0.14540855617E+02  0.20992596703E+02 -0.12149797027E+03  0.12415265756E+03  0.00000000000E+00 0. -1.
<mgrwt>
<rscale>  1 0.80416236E+02</rscale>
<asrwt>0</asrwt>
<pdfrwt beam="1">  1       21 0.12797428E-02 0.80416236E+02</pdfrwt>
<pdfrwt beam="2">  1        2 0.54473728E-01 0.80416236E+02</pdfrwt>
<totfact> 0.26099572E+06</totfact>
</mgrwt>
</event>
<event>
 6    2  0.7993170E+000  0.8334134E+02  0.7546771E-02  0.1319828E+00
         -1   -1    0    0    0  501 -0.00000000000E+00  0.00000000000E+00  0.24496687610E+03  0.24496687610E+03  0.00000000000E+00 0.  1.
         21   -1    0    0  501  502  0.00000000000E+00 -0.00000000000E+00 -0.11935947294E+02  0.11935947294E+02  0.00000000000E+00 0. -1.
         24    2    1    2    0    0 -0.11424394556E+02 -0.19419421087E+02  0.15898422881E+03  0.17950421561E+03  0.80238068929E+02 0.  0.
        -11    1    3    3    0    0  0.70305578926E+01 -0.97717821522E+00  0.15244074422E+03  0.15260591116E+03  0.00000000000E+00 0.  1.
         12    1    3    3    0    0 -0.18454952449E+02 -0.18442242872E+02  0.65434845925E+01  0.26898304457E+02  0.00000000000E+00 0. -1.
         -2    1    1    2    0  502  0.11424394556E+02  0.19419421087E+02  0.74046699989E+02  0.77398607775E+02  0.00000000000E+00 0.  1.
<mgrwt>
<rscale>  1 0.83341337E+02</rscale>
<asrwt>0</asrwt>
<pdfrwt beam="1">  1       21 0.18362998E-02 0.83341337E+02</pdfrwt>
<pdfrwt beam="2">  1       -1 0.37687208E-01 0.83341337E+02</pdfrwt>
<totfact> 0.81867424E+05</totfact>
</mgrwt>
</event>
<event>
 6    2  0.7993170E+000  0.8416318E+02  0.7546771E-02  0.1317636E+00
         -3   -1    0    0    0  501 -0.00000000000E+00  0.00000000000E+00  0.98980643880E+02  0.98980643880E+02  0.00000000000E+00 0.  1.
         21   -1    0    0  501  502  0.00000000000E+00 -0.00000000000E+00 -0.32805665408E+02  0.32805665408E+02  0.00000000000E+00 0. -1.
         24    2    1    2    0    0 -0.12033576649E+02 -0.22711293797E+02  0.34411124739E+02  0.90926154652E+02  0.80142562107E+02 0.  0.
        -11    1    3    3    0    0  0.59253933965E+01 -0.22468769847E+02  0.57299623116E+02  0.61832052485E+02  0.00000000000E+00 0.  1.
         12    1    3    3    0    0 -0.17958970046E+02 -0.24252394956E+00 -0.22888498377E+02  0.29094102167E+02  0.00000000000E+00 0. -1.
         -4    1    1    2    0  502  0.12033576649E+02  0.22711293797E+02  0.31763853733E+02  0.40860154636E+02  0.00000000000E+00 0.  1.
<mgrwt>
<rscale>  1 0.84163175E+02</rscale>
<asrwt>0</asrwt>
<pdfrwt beam="1">  1       21 0.50470255E-02 0.84163175E+02</pdfrwt>
<pdfrwt beam="2">  1       -3 0.15227791E-01 0.84163175E+02</pdfrwt>
<totfact> 0.41632144E+05</totfact>
</mgrwt>
</event>
<event>
 6    2  0.7993170E+000  0.8440357E+02  0.7546771E-02  0.1317000E+00
          2   -1    0    0  502    0 -0.00000000000E+00  0.00000000000E+00  0.65354680944E+01  0.65354680944E+01  0.00000000000E+00 0. -1.
         21   -1    0    0  501  502  0.00000000000E+00 -0.00000000000E+00 -0.57487321539E+03  0.57487321539E+03  0.00000000000E+00 0.  1.
         24    2    1    2    0    0  0.18001344499E+01  0.23389725897E+02 -0.28860153260E+03  0.30069055159E+03  0.81078008333E+02 0.  0.
        -11    1    3    3    0    0 -0.58740275997E+01  0.13883432692E+02 -0.28806740736E+03  0.28846158338E+03  0.00000000000E+00 0.  1.
         12    1    3    3    0    0  0.76741620496E+01  0.95062932057E+01 -0.53412523873E+00  0.12228968209E+02  0.00000000000E+00 0. -1.
          1    1    1    2  501    0 -0.18001344499E+01 -0.23389725897E+02 -0.27973621470E+03  0.28071813189E+03  0.00000000000E+00 0. -1.
<mgrwt>
<rscale>  1 0.84403573E+02</rscale>
<asrwt>0</asrwt>
<pdfrwt beam="1">  1       21 0.88442048E-01 0.84403573E+02</pdfrwt>
<pdfrwt beam="2">  1        2 0.10054565E-02 0.84403573E+02</pdfrwt>
<totfact> 0.17634146E+05</totfact>
</mgrwt>
</event>
<event>
 6    2  0.7993170E+000  0.9625323E+02  0.7546771E-02  0.1288378E+00
         21   -1    0    0  501  502  0.00000000000E+00  0.00000000000E+00  0.27845433865E+02  0.27845433865E+02  0.00000000000E+00 0.  1.
         -1   -1    0    0    0  501 -0.00000000000E+00 -0.00000000000E+00 -0.40393503834E+03  0.40393503834E+03  0.00000000000E+00 0.  1.
         24    2    1    2    0    0 -0.31185316808E+02 -0.41181088829E+02 -0.36689653759E+03  0.37931220999E+03  0.81217469107E+02 0.  0.
        -11    1    3    3    0    0 -0.10238175074E+00 -0.41684871202E+02 -0.32209772733E+03  0.32478390496E+03  0.00000000000E+00 0.  1.
         12    1    3    3    0    0 -0.31082935057E+02  0.50378237324E+00 -0.44798810255E+02  0.54528305023E+02  0.00000000000E+00 0. -1.
         -2    1    1    2    0  502  0.31185316808E+02  0.41181088829E+02 -0.91930668852E+01  0.52468262219E+02  0.00000000000E+00 0.  1.
<mgrwt>
<rscale>  1 0.96253225E+02</rscale>
<asrwt>0</asrwt>
<pdfrwt beam="1">  1       21 0.42839131E-02 0.96253225E+02</pdfrwt>
<pdfrwt beam="2">  1       -1 0.62143850E-01 0.96253225E+02</pdfrwt>
<totfact> 0.85439137E+04</totfact>
</mgrwt>
</event>
<event>
 6    2  0.7993170E+000  0.1177612E+03  0.7546771E-02  0.1246837E+00
          2   -1    0    0  502    0 -0.00000000000E+00  0.00000000000E+00  0.86283566025E+02  0.86283566025E+02  0.00000000000E+00 0. -1.
         21   -1    0    0  501  502  0.00000000000E+00 -0.00000000000E+00 -0.13449931118E+03  0.13449931118E+03  0.00000000000E+00 0. -1.
         24    2    1    2    0    0 -0.76873830616E+02 -0.39357981627E+02  0.75119615554E+01  0.11800051565E+03  0.80056577347E+02 0.  0.
        -13    1    3    3    0    0 -0.41954237603E+01 -0.26141057197E+02 -0.25799021093E+02  0.36966822169E+02  0.00000000000E+00 0.  1.
         14    1    3    3    0    0 -0.72678406856E+02 -0.13216924430E+02  0.33310982649E+02  0.81033693484E+02  0.00000000000E+00 0. -1.
          1    1    1    2  501    0  0.76873830616E+02  0.39357981627E+02 -0.55727706715E+02  0.10278236156E+03  0.00000000000E+00 0. -1.
<mgrwt>
<rscale>  1 0.11776117E+03</rscale>
<asrwt>0</asrwt>
<pdfrwt beam="1">  1       21 0.20692202E-01 0.11776117E+03</pdfrwt>
<pdfrwt beam="2">  1        2 0.13274395E-01 0.11776117E+03</pdfrwt>
<totfact> 0.11678585E+05</totfact>
</mgrwt>
</event>
<event>
 6    2  0.7993170E+000  0.8414381E+02  0.7546771E-02  0.1317687E+00
          4   -1    0    0  502    0 -0.00000000000E+00  0.00000000000E+00  0.72785874422E+03  0.72785874422E+03  0.00000000000E+00 0. -1.
         21   -1    0    0  501  502  0.00000000000E+00 -0.00000000000E+00 -0.13863905921E+02  0.13863905921E+02  0.00000000000E+00 0. -1.
         24    2    1    2    0    0 -0.31733150242E+02  0.64995976854E+01  0.70224092596E+03  0.70726409460E+03  0.77659151625E+02 0.  0.
        -11    1    3    3    0    0 -0.18656462390E+02 -0.20815493249E+02  0.89235647153E+02  0.93511224304E+02  0.00000000000E+00 0.  1.
         12    1    3    3    0    0 -0.13076687852E+02  0.27315090934E+02  0.61300527880E+03  0.61375287030E+03  0.00000000000E+00 0. -1.
          3    1    1    2  501    0  0.31733150242E+02 -0.64995976854E+01  0.11753912341E+02  0.34458555537E+02  0.00000000000E+00 0. -1.
<mgrwt>
<rscale>  1 0.84143814E+02</rscale>
<asrwt>0</asrwt>
<pdfrwt beam="1">  1       21 0.21329092E-02 0.84143814E+02</pdfrwt>
<pdfrwt beam="2">  1        4 0.11197824E+00 0.84143814E+02</pdfrwt>
<totfact> 0.27636980E+04</totfact>
</mgrwt>
</event>
<event>
 6    2  0.7993170E+000  0.8518690E+02  0.7546771E-02  0.1314944E+00
          4   -1    0    0  502    0 -0.00000000000E+00  0.00000000000E+00  0.22601158772E+03  0.22601158772E+03  0.00000000000E+00 0. -1.
         21   -1    0    0  501  502  0.00000000000E+00 -0.00000000000E+00 -0.14349353649E+02  0.14349353649E+02  0.00000000000E+00 0.  1.
         24    2    1    2    0    0 -0.20633999149E+02 -0.19547159410E+02  0.16583622216E+03  0.18643620929E+03  0.80305380849E+02 0.  0.
        -11    1    3    3    0    0 -0.10275921671E+02 -0.33637613388E+02  0.21881702949E+02  0.41423333094E+02  0.00000000000E+00 0.  1.
         12    1    3    3    0    0 -0.10358077478E+02  0.14090453978E+02  0.14395451921E+03  0.14501287620E+03  0.00000000000E+00 0. -1.
          3    1    1    2  501    0  0.20633999149E+02  0.19547159410E+02  0.45826011909E+02  0.53924732075E+02  0.00000000000E+00 0. -1.
<mgrwt>
<rscale>  1 0.85186898E+02</rscale>
<asrwt>0</asrwt>
<pdfrwt beam="1">  1       21 0.22075930E-02 0.85186898E+02</pdfrwt>
<pdfrwt beam="2">  1        4 0.34771011E-01 0.85186898E+02</pdfrwt>
<totfact> 0.30613942E+05</totfact>
</mgrwt>
</event>
<event>
 6    2  0.7993170E+000  0.8724299E+02  0.7546771E-02  0.1309669E+00
          2   -1    0    0  502    0 -0.00000000000E+00  0.00000000000E+00  0.12640134815E+03  0.12640134815E+03  0.00000000000E+00 0. -1.
         21   -1    0    0  501  502  0.00000000000E+00 -0.00000000000E+00 -0.33720105974E+02  0.33720105974E+02  0.00000000000E+00 0.  1.
         24    2    1    2    0    0  0.25754317129E+02  0.67692611520E+01  0.99800183452E+02  0.13255721874E+03  0.83079671853E+02 0.  0.
        -11    1    3    3    0    0  0.73006646853E+01  0.37143270693E+02  0.15194021267E+02  0.40789466102E+02  0.00000000000E+00 0.  1.
         12    1    3    3    0    0  0.18453652444E+02 -0.30374009541E+02  0.84606162185E+02  0.91767752636E+02  0.00000000000E+00 0. -1.
          1    1    1    2  501    0 -0.25754317129E+02 -0.67692611520E+01 -0.71189412783E+01  0.27564235383E+02  0.00000000000E+00 0. -1.
<mgrwt>
<rscale>  1 0.87242992E+02</rscale>
<asrwt>0</asrwt>
<pdfrwt beam="1">  1       21 0.51877087E-02 0.87242992E+02</pdfrwt>
<pdfrwt beam="2">  1        2 0.19446361E-01 0.87242992E+02</pdfrwt>
<totfact> 0.82541356E+05</totfact>
</mgrwt>
</event>
<event>
 6    2  0.7993170E+000  0.8329714E+02  0.7546771E-02  0.1319947E+00
         -3   -1    0    0    0  501 -0.00000000000E+00  0.00000000000E+00  0.19061105166E+02  0.19061105166E+02  0.00000000000E+00 0.  1.
         21   -1    0    0  501  502  0.00000000000E+00 -0.00000000000E+00 -0.15507215288E+03  0.15507215288E+03  0.00000000000E+00 0. -1.
         24    2    1    2    0    0  0.16374834008E+02 -0.14028638945E+02 -0.86274016978E+02  0.11992338693E+03  0.80457907186E+02 0.  0.
        -11    1    3    3    0    0  0.32839536518E+01 -0.11729016262E+02  0.14123362561E+02  0.18650027992E+02  0.00000000000E+00 0.  1.
         12    1    3    3    0    0  0.13090880357E+02 -0.22996226830E+01 -0.10039737954E+03  0.10127335894E+03  0.00000000000E+00 0. -1.
         -4    1    1    2    0  502 -0.16374834008E+02  0.14028638945E+02 -0.49737030733E+02  0.54209871109E+02  0.00000000000E+00 0.  1.
<mgrwt>
<rscale>  1 0.83297135E+02</rscale>
<asrwt>0</asrwt>
<pdfrwt beam="1">  1       21 0.23857255E-01 0.83297135E+02</pdfrwt>
<pdfrwt beam="2">  1       -3 0.29324776E-02 0.83297135E+02</pdfrwt>
<totfact> 0.38243721E+05</totfact>
</mgrwt>
</event>
<event>
 6    2  0.7993170E+000  0.7667538E+02  0.7546771E-02  0.1338760E+00
         21   -1    0    0  501  502  0.00000000000E+00  0.00000000000E+00  0.22683946363E+02  0.22683946363E+02  0.00000000000E+00 0. -1.
          2   -1    0    0  502    0 -0.00000000000E+00 -0.00000000000E+00 -0.59972326066E+03  0.59972326066E+03  0.00000000000E+00 0. -1.
         24    2    1    2    0    0  0.26728404334E+02 -0.74319898092E+01 -0.58770465115E+03  0.59268530465E+03  0.71480565875E+02 0.  0.
        -13    1    3    3    0    0 -0.12528525840E+02  0.17562674782E+02 -0.33753521946E+03  0.33822394339E+03  0.00000000000E+00 0.  1.
         14    1    3    3    0    0  0.39256930174E+02 -0.24994664591E+02 -0.25016943168E+03  0.25446136126E+03  0.00000000000E+00 0. -1.
          1    1    1    2  501    0 -0.26728404334E+02  0.74319898092E+01  0.10665336847E+02  0.29721902376E+02  0.00000000000E+00 0. -1.
<mgrwt>
<rscale>  1 0.76675377E+02</rscale>
<asrwt>0</asrwt>
<pdfrwt beam="1">  1       21 0.34898379E-02 0.76675377E+02</pdfrwt>
<pdfrwt beam="2">  1        2 0.92265118E-01 0.76675377E+02</pdfrwt>
<totfact> 0.29802422E+05</totfact>
</mgrwt>
</event>
<event>
 6    2  0.7993170E+000  0.8278684E+02  0.7546771E-02  0.1321324E+00
         21   -1    0    0  501  502  0.00000000000E+00  0.00000000000E+00  0.12467826380E+02  0.12467826380E+02  0.00000000000E+00 0. -1.
          2   -1    0    0  502    0 -0.00000000000E+00 -0.00000000000E+00 -0.24768794359E+04  0.24768794359E+04  0.00000000000E+00 0. -1.
         24    2    1    2    0    0 -0.28986663329E+01  0.22065875509E+02 -0.24656670040E+04  0.24670564314E+04  0.79739298506E+02 0.  0.
        -13    1    3    3    0    0 -0.15211340337E+02 -0.54363421815E+01 -0.10841275113E+03  0.10960959492E+03  0.00000000000E+00 0.  1.
         14    1    3    3    0    0  0.12312674004E+02  0.27502217691E+02 -0.23572542529E+04  0.23574468365E+04  0.00000000000E+00 0. -1.
          1    1    1    2  501    0  0.28986663329E+01 -0.22065875509E+02  0.12553944745E+01  0.22290830935E+02  0.00000000000E+00 0. -1.
<mgrwt>
<rscale>  1 0.82786840E+02</rscale>
<asrwt>0</asrwt>
<pdfrwt beam="1">  1       21 0.19181267E-02 0.82786840E+02</pdfrwt>
<pdfrwt beam="2">  1        2 0.38105846E+00 0.82786840E+02</pdfrwt>
<totfact> 0.73236158E+04</totfact>
</mgrwt>
</event>
<event>
 6    2  0.7993170E+000  0.8117238E+02  0.7546771E-02  0.1325757E+00
         21   -1    0    0  501  502  0.00000000000E+00  0.00000000000E+00  0.51335361322E+01  0.51335361322E+01  0.00000000000E+00 0.  1.
          4   -1    0    0  502    0 -0.00000000000E+00 -0.00000000000E+00 -0.58253945686E+03  0.58253945686E+03  0.00000000000E+00 0. -1.
         24    2    1    2    0    0 -0.23936857402E+02  0.97633160912E+01 -0.48382721483E+03  0.49058916488E+03  0.76945821226E+02 0.  0.
        -11    1    3    3    0    0 -0.25533909339E+02  0.40786304496E+02 -0.23873941650E+03  0.24354057598E+03  0.00000000000E+00 0.  1.
         12    1    3    3    0    0  0.15970519372E+01 -0.31022988405E+02 -0.24508779833E+03  0.24704858890E+03  0.00000000000E+00 0. -1.
          3    1    1    2  501    0  0.23936857402E+02 -0.97633160912E+01 -0.93578705893E+02  0.97083828108E+02  0.00000000000E+00 0. -1.
<mgrwt>
<rscale>  1 0.81172378E+02</rscale>
<asrwt>0</asrwt>
<pdfrwt beam="1">  1       21 0.78977443E-03 0.81172378E+02</pdfrwt>
<pdfrwt beam="2">  1        4 0.89621495E-01 0.81172378E+02</pdfrwt>
<totfact> 0.21793701E+05</totfact>
</mgrwt>
</event>
<event>
 6    2  0.7993170E+000  0.8572639E+02  0.7546771E-02  0.1313544E+00
         21   -1    0    0  501  502  0.00000000000E+00  0.00000000000E+00  0.15179882143E+03  0.15179882143E+03  0.00000000000E+00 0. -1.
         -1   -1    0    0    0  501 -0.00000000000E+00 -0.00000000000E+00 -0.22010956679E+02  0.22010956679E+02  0.00000000000E+00 0.  1.
         24    2    1    2    0    0 -0.88848990206E+01 -0.27979396633E+02  0.10361047192E+03  0.13447729837E+03  0.80543316422E+02 0.  0.
        -13    1    3    3    0    0 -0.11996309884E+01  0.45305033575E+01 -0.12661774262E+02  0.13501300036E+02  0.00000000000E+00 0.  1.
         14    1    3    3    0    0 -0.76852680322E+01 -0.32509899991E+02  0.11627224618E+03  0.12097599834E+03  0.00000000000E+00 0. -1.
         -2    1    1    2    0  502  0.88848990206E+01  0.27979396633E+02  0.26177392833E+02  0.39332479735E+02  0.00000000000E+00 0.  1.
<mgrwt>
<rscale>  1 0.85726390E+02</rscale>
<asrwt>0</asrwt>
<pdfrwt beam="1">  1       21 0.23353664E-01 0.85726390E+02</pdfrwt>
<pdfrwt beam="2">  1       -1 0.33863011E-02 0.85726390E+02</pdfrwt>
<totfact> 0.44431743E+05</totfact>
</mgrwt>
</event>
<event>
 6    2  0.7993170E+000  0.8817559E+02  0.7546771E-02  0.1307331E+00
         21   -1    0    0  501  502  0.00000000000E+00  0.00000000000E+00  0.19121827620E+04  0.19121827620E+04  0.00000000000E+00 0. -1.
         -1   -1    0    0    0  501 -0.00000000000E+00 -0.00000000000E+00 -0.28357835418E+01  0.28357835418E+01  0.00000000000E+00 0.  1.
         24    2    1    2    0    0  0.19466597373E+01  0.38417810984E+02  0.77166430150E+03  0.77668573342E+03  0.79342401121E+02 0.  0.
        -13    1    3    3    0    0  0.18999057585E+02 -0.14254243452E+02  0.10165494833E+03  0.10439289328E+03  0.00000000000E+00 0.  1.
         14    1    3    3    0    0 -0.17052397847E+02  0.52672054436E+02  0.67000935316E+03  0.67229284015E+03  0.00000000000E+00 0. -1.
         -2    1    1    2    0  502 -0.19466597373E+01 -0.38417810984E+02  0.11376826770E+04  0.11383328121E+04  0.00000000000E+00 0.  1.
<mgrwt>
<rscale>  1 0.88175588E+02</rscale>
<asrwt>0</asrwt>
<pdfrwt beam="1">  1       21 0.29418093E+00 0.88175588E+02</pdfrwt>
<pdfrwt beam="2">  1       -1 0.43627592E-03 0.88175588E+02</pdfrwt>
<totfact> 0.20873245E+04</totfact>
</mgrwt>
</event>
<event>
 6    2  0.7993170E+000  0.8725783E+02  0.7546771E-02  0.1309631E+00
         -3   -1    0    0    0  501 -0.00000000000E+00  0.00000000000E+00  0.34893027461E+02  0.34893027461E+02  0.00000000000E+00 0.  1.
         21   -1    0    0  501  502  0.00000000000E+00 -0.00000000000E+00 -0.11674694362E+03  0.11674694362E+03  0.00000000000E+00 0.  1.
         24    2    1    2    0    0 -0.26933362609E+02 -0.21963069517E+02 -0.36702696751E+02  0.94662650522E+02  0.80038409598E+02 0.  0.
        -11    1    3    3    0    0 -0.24631581398E+02 -0.30598494256E+02  0.15108590478E+02  0.42086246675E+02  0.00000000000E+00 0.  1.
         12    1    3    3    0    0 -0.23017812105E+01  0.86354247392E+01 -0.51811287229E+02  0.52576403847E+02  0.00000000000E+00 0. -1.
         -4    1    1    2    0  502  0.26933362609E+02  0.21963069517E+02 -0.45151219406E+02  0.56977320557E+02  0.00000000000E+00 0.  1.
<mgrwt>
<rscale>  1 0.87257833E+02</rscale>
<asrwt>0</asrwt>
<pdfrwt beam="1">  1       21 0.17961068E-01 0.87257833E+02</pdfrwt>
<pdfrwt beam="2">  1       -3 0.53681580E-02 0.87257833E+02</pdfrwt>
<totfact> 0.25434781E+05</totfact>
</mgrwt>
</event>
<event>
 6    2  0.7993170E+000  0.8747502E+02  0.7546771E-02  0.1309084E+00
          4   -1    0    0  502    0 -0.00000000000E+00  0.00000000000E+00  0.60290262215E+02  0.60290262215E+02  0.00000000000E+00 0. -1.
         21   -1    0    0  501  502  0.00000000000E+00 -0.00000000000E+00 -0.65227923029E+02  0.65227923029E+02  0.00000000000E+00 0.  1.
         24    2    1    2    0    0  0.44405019382E+01  0.33205590893E+02  0.11454237605E+02  0.88221755686E+02  0.80805626618E+02 0.  0.
        -13    1    3    3    0    0  0.14866799027E+02  0.52815373398E+02 -0.11739195928E+02  0.56109661392E+02  0.00000000000E+00 0.  1.
         14    1    3    3    0    0 -0.10426297089E+02 -0.19609782505E+02  0.23193433534E+02  0.32112094294E+02  0.00000000000E+00 0. -1.
          3    1    1    2  501    0 -0.44405019382E+01 -0.33205590893E+02 -0.16391898420E+02  0.37296429558E+02  0.00000000000E+00 0. -1.
<mgrwt>
<rscale>  1 0.87475017E+02</rscale>
<asrwt>0</asrwt>
<pdfrwt beam="1">  1       21 0.10035065E-01 0.87475017E+02</pdfrwt>
<pdfrwt beam="2">  1        4 0.92754250E-02 0.87475017E+02</pdfrwt>
<totfact> 0.25755370E+05</totfact>
</mgrwt>
</event>
<event>
 6    2  0.7993170E+000  0.1034761E+03  0.7546771E-02  0.1273151E+00
         21   -1    0    0  501  502  0.00000000000E+00  0.00000000000E+00  0.10619906617E+02  0.10619906617E+02  0.00000000000E+00 0.  1.
          2   -1    0    0  502    0 -0.00000000000E+00 -0.00000000000E+00 -0.68740172889E+03  0.68740172889E+03  0.00000000000E+00 0. -1.
         24    2    1    2    0    0  0.62767258746E+02 -0.15272670609E+02 -0.47546134914E+03  0.48659099407E+03  0.80835126903E+02 0.  0.
        -13    1    3    3    0    0  0.27894844533E+02  0.97279261274E+01 -0.43978014834E+02  0.52979436454E+02  0.00000000000E+00 0.  1.
         14    1    3    3    0    0  0.34872414213E+02 -0.25000596736E+02 -0.43148333431E+03  0.43361155761E+03  0.00000000000E+00 0. -1.
          1    1    1    2  501    0 -0.62767258746E+02  0.15272670609E+02 -0.20132047313E+03  0.21143064144E+03  0.00000000000E+00 0. -1.
<mgrwt>
<rscale>  1 0.10347609E+03</rscale>
<asrwt>0</asrwt>
<pdfrwt beam="1">  1       21 0.16338315E-02 0.10347609E+03</pdfrwt>
<pdfrwt beam="2">  1        2 0.10575413E+00 0.10347609E+03</pdfrwt>
<totfact> 0.88559659E+05</totfact>
</mgrwt>
</event>
<event>
 6    2  0.7993170E+000  0.8287864E+02  0.7546771E-02  0.1321075E+00
          2   -1    0    0  502    0 -0.00000000000E+00  0.00000000000E+00  0.42234590132E+02  0.42234590132E+02  0.00000000000E+00 0. -1.
         21   -1    0    0  501  502  0.00000000000E+00 -0.00000000000E+00 -0.75313203899E+02  0.75313203899E+02  0.00000000000E+00 0. -1.
         24    2    1    2    0    0  0.20521406163E+02  0.46415629224E+01 -0.57770611739E+01  0.83079736481E+02  0.80163557560E+02 0.  0.
        -13    1    3    3    0    0  0.17236756260E+00 -0.22661203954E+02 -0.32620464485E+02  0.39719700130E+02  0.00000000000E+00 0.  1.
         14    1    3    3    0    0  0.20349038600E+02  0.27302766876E+02  0.26843403311E+02  0.43360036351E+02  0.00000000000E+00 0. -1.
          1    1    1    2  501    0 -0.20521406163E+02 -0.46415629224E+01 -0.27301552593E+02  0.34468057550E+02  0.00000000000E+00 0. -1.
<mgrwt>
<rscale>  1 0.82878635E+02</rscale>
<asrwt>0</asrwt>
<pdfrwt beam="1">  1       21 0.11586647E-01 0.82878635E+02</pdfrwt>
<pdfrwt beam="2">  1        2 0.64976293E-02 0.82878635E+02</pdfrwt>
<totfact> 0.77160322E+05</totfact>
</mgrwt>
</event>
<event>
 6    2  0.7993170E+000  0.1110259E+03  0.7546771E-02  0.1258682E+00
          2   -1    0    0  502    0 -0.00000000000E+00  0.00000000000E+00  0.31666887944E+03  0.31666887944E+03  0.00000000000E+00 0. -1.
         21   -1    0    0  501  502  0.00000000000E+00 -0.00000000000E+00 -0.33151268262E+02  0.33151268262E+02  0.00000000000E+00 0. -1.
         24    2    1    2    0    0 -0.71077443898E+02 -0.29725607291E+02  0.23183137197E+03  0.25704578657E+03  0.79944584578E+02 0.  0.
        -11    1    3    3    0    0 -0.15418207671E+02  0.26081080268E+02  0.87479218882E+02  0.92577306139E+02  0.00000000000E+00 0.  1.
         12    1    3    3    0    0 -0.55659236227E+02 -0.55806687560E+02  0.14435215309E+03  0.16446848043E+03  0.00000000000E+00 0. -1.
          1    1    1    2  501    0  0.71077443898E+02  0.29725607291E+02  0.51686239200E+02  0.92774361127E+02  0.00000000000E+00 0. -1.
<mgrwt>
<rscale>  1 0.11102590E+03</rscale>
<asrwt>0</asrwt>
<pdfrwt beam="1">  1       21 0.51001953E-02 0.11102590E+03</pdfrwt>
<pdfrwt beam="2">  1        2 0.48718287E-01 0.11102590E+03</pdfrwt>
<totfact> 0.32296449E+05</totfact>
</mgrwt>
</event>
<event>
 6    2  0.7993170E+000  0.9246066E+02  0.7546771E-02  0.1297000E+00
          2   -1    0    0  502    0 -0.00000000000E+00  0.00000000000E+00  0.58801515842E+03  0.58801515842E+03  0.00000000000E+00 0. -1.
         21   -1    0    0  501  502  0.00000000000E+00 -0.00000000000E+00 -0.69748773422E+01  0.69748773422E+01  0.00000000000E+00 0.  1.
         24    2    1    2    0    0  0.34860468478E+02 -0.33559212357E+01  0.39446347664E+03  0.40515479555E+03  0.85571370735E+02 0.  0.
        -11    1    3    3    0    0  0.41673556015E+02 -0.26920571912E+02  0.12363807313E+03  0.13322077762E+03  0.00000000000E+00 0.  1.
         12    1    3    3    0    0 -0.68130875371E+01  0.23564650676E+02  0.27082540351E+03  0.27193401793E+03  0.00000000000E+00 0. -1.
          1    1    1    2  501    0 -0.34860468478E+02  0.33559212357E+01  0.18657680444E+03  0.18983524021E+03  0.00000000000E+00 0. -1.
<mgrwt>
<rscale>  1 0.92460662E+02</rscale>
<asrwt>0</asrwt>
<pdfrwt beam="1">  1       21 0.10730585E-02 0.92460662E+02</pdfrwt>
<pdfrwt beam="2">  1        2 0.90463832E-01 0.92460662E+02</pdfrwt>
<totfact> 0.20343773E+06</totfact>
</mgrwt>
</event>
<event>
 6    2  0.7993170E+000  0.8585960E+02  0.7546771E-02  0.1313200E+00
         21   -1    0    0  501  502  0.00000000000E+00  0.00000000000E+00  0.10562979111E+02  0.10562979111E+02  0.00000000000E+00 0.  1.
          4   -1    0    0  502    0 -0.00000000000E+00 -0.00000000000E+00 -0.31927842995E+03  0.31927842995E+03  0.00000000000E+00 0. -1.
         24    2    1    2    0    0  0.21758708207E+02  0.20812252788E+02 -0.22033415294E+03  0.23647200793E+03  0.80406966951E+02 0.  0.
        -11    1    3    3    0    0  0.55903329052E+00 -0.18536912875E+02 -0.92813265393E+01  0.20738193737E+02  0.00000000000E+00 0.  1.
         12    1    3    3    0    0  0.21199674917E+02  0.39349165663E+02 -0.21105282640E+03  0.21573381420E+03  0.00000000000E+00 0. -1.
          3    1    1    2  501    0 -0.21758708207E+02 -0.20812252788E+02 -0.88381297895E+02  0.93369401126E+02  0.00000000000E+00 0. -1.
<mgrwt>
<rscale>  1 0.85859604E+02</rscale>
<asrwt>0</asrwt>
<pdfrwt beam="1">  1       21 0.16250739E-02 0.85859604E+02</pdfrwt>
<pdfrwt beam="2">  1        4 0.49119751E-01 0.85859604E+02</pdfrwt>
<totfact> 0.25407872E+05</totfact>
</mgrwt>
</event>
<event>
 6    2  0.7993170E+000  0.8359711E+02  0.7546771E-02  0.1319143E+00
         -1   -1    0    0    0  501 -0.00000000000E+00  0.00000000000E+00  0.39310224638E+03  0.39310224638E+03  0.00000000000E+00 0.  1.
         21   -1    0    0  501  502  0.00000000000E+00 -0.00000000000E+00 -0.27226767763E+02  0.27226767763E+02  0.00000000000E+00 0.  1.
         24    2    1    2    0    0 -0.63410727398E+01  0.21312047843E+02  0.38315514599E+03  0.39216876750E+03  0.80585753773E+02 0.  0.
        -13    1    3    3    0    0 -0.25744114229E+02  0.31476335811E+02  0.97026798543E+02  0.10520322604E+03  0.00000000000E+00 0.  1.
         14    1    3    3    0    0  0.19403041489E+02 -0.10164287968E+02  0.28612834745E+03  0.28696554146E+03  0.00000000000E+00 0. -1.
         -2    1    1    2    0  502  0.63410727398E+01 -0.21312047843E+02 -0.17279667375E+02  0.28160246649E+02  0.00000000000E+00 0.  1.
<mgrwt>
<rscale>  1 0.83597107E+02</rscale>
<asrwt>0</asrwt>
<pdfrwt beam="1">  1       21 0.41887338E-02 0.83597107E+02</pdfrwt>
<pdfrwt beam="2">  1       -1 0.60477265E-01 0.83597107E+02</pdfrwt>
<totfact> 0.92553121E+04</totfact>
</mgrwt>
</event>
<event>
 6    2  0.7993170E+000  0.1154529E+03  0.7546771E-02  0.1250793E+00
         21   -1    0    0  501  502  0.00000000000E+00  0.00000000000E+00  0.11197841937E+02  0.11197841937E+02  0.00000000000E+00 0. -1.
          2   -1    0    0  502    0 -0.00000000000E+00 -0.00000000000E+00 -0.12695593441E+04  0.12695593441E+04  0.00000000000E+00 0. -1.
         24    2    1    2    0    0  0.10692779179E+02 -0.81832911260E+02 -0.10548405820E+04  0.10611399603E+04  0.80736615284E+02 0.  0.
        -13    1    3    3    0    0 -0.88334379412E+01 -0.33652377502E+02 -0.12233393588E+03  0.12718531364E+03  0.00000000000E+00 0.  1.
         14    1    3    3    0    0  0.19526217120E+02 -0.48180533758E+02 -0.93250664607E+03  0.93395464663E+03  0.00000000000E+00 0. -1.
          1    1    1    2  501    0 -0.10692779179E+02  0.81832911260E+02 -0.20352092019E+03  0.21961722575E+03  0.00000000000E+00 0. -1.
<mgrwt>
<rscale>  1 0.11545286E+03</rscale>
<asrwt>0</asrwt>
<pdfrwt beam="1">  1       21 0.17227459E-02 0.11545286E+03</pdfrwt>
<pdfrwt beam="2">  1        2 0.19531671E+00 0.11545286E+03</pdfrwt>
<totfact> 0.36118652E+05</totfact>
</mgrwt>
</event>
<event>
 6    2  0.7993170E+000  0.9296140E+02  0.7546771E-02  0.1295835E+00
          2   -1    0    0  502    0 -0.00000000000E+00  0.00000000000E+00  0.47658744530E+03  0.47658744530E+03  0.00000000000E+00 0. -1.
         21   -1    0    0  501  502  0.00000000000E+00 -0.00000000000E+00 -0.14209669819E+02  0.14209669819E+02  0.00000000000E+00 0. -1.
         24    2    1    2    0    0 -0.44599940884E+02 -0.93226430388E+01  0.41412855043E+03  0.42443406728E+03  0.81029345242E+02 0.  0.
        -11    1    3    3    0    0 -0.36548826321E+02 -0.66550915059E+01  0.62529248065E+02  0.72732481134E+02  0.00000000000E+00 0.  1.
         12    1    3    3    0    0 -0.80511145632E+01 -0.26675515329E+01  0.35159930236E+03  0.35170158615E+03  0.00000000000E+00 0. -1.
          1    1    1    2  501    0  0.44599940884E+02  0.93226430388E+01  0.48249225057E+02  0.66363047841E+02  0.00000000000E+00 0. -1.
<mgrwt>
<rscale>  1 0.92961396E+02</rscale>
<asrwt>0</asrwt>
<pdfrwt beam="1">  1       21 0.21861034E-02 0.92961396E+02</pdfrwt>
<pdfrwt beam="2">  1        2 0.73321133E-01 0.92961396E+02</pdfrwt>
<totfact> 0.82833852E+05</totfact>
</mgrwt>
</event>
<event>
 6    2  0.7993170E+000  0.8514222E+02  0.7546771E-02  0.1315061E+00
         21   -1    0    0  501  502  0.00000000000E+00  0.00000000000E+00  0.41444634911E+03  0.41444634911E+03  0.00000000000E+00 0. -1.
          2   -1    0    0  502    0 -0.00000000000E+00 -0.00000000000E+00 -0.13465142866E+02  0.13465142866E+02  0.00000000000E+00 0. -1.
         24    2    1    2    0    0  0.32286860703E+01  0.22413880428E+02  0.12641933086E+03  0.15241733621E+03  0.82075518342E+02 0.  0.
        -11    1    3    3    0    0 -0.10275520481E+01  0.46254345226E+02  0.11805343105E+03  0.12679563438E+03  0.00000000000E+00 0.  1.
         12    1    3    3    0    0  0.42562381184E+01 -0.23840464798E+02  0.83658998117E+01  0.25621701824E+02  0.00000000000E+00 0. -1.
          1    1    1    2  501    0 -0.32286860703E+01 -0.22413880428E+02  0.27456187538E+03  0.27549415577E+03  0.00000000000E+00 0. -1.
<mgrwt>
<rscale>  1 0.85142217E+02</rscale>
<asrwt>0</asrwt>
<pdfrwt beam="1">  1       21 0.63760967E-01 0.85142217E+02</pdfrwt>
<pdfrwt beam="2">  1        2 0.20715608E-02 0.85142217E+02</pdfrwt>
<totfact> 0.13510884E+05</totfact>
</mgrwt>
</event>
<event>
 6    2  0.7993170E+000  0.8448398E+02  0.7546771E-02  0.1316788E+00
          2   -1    0    0  502    0 -0.00000000000E+00  0.00000000000E+00  0.65143315866E+01  0.65143315866E+01  0.00000000000E+00 0. -1.
         21   -1    0    0  501  502  0.00000000000E+00 -0.00000000000E+00 -0.11868880883E+04  0.11868880883E+04  0.00000000000E+00 0. -1.
         24    2    1    2    0    0  0.31449173027E+02 -0.11856372978E+02 -0.28159315701E+03  0.29399361936E+03  0.77510761087E+02 0.  0.
        -11    1    3    3    0    0 -0.25491772297E+02 -0.10302709447E+02 -0.88233046281E+02  0.92417783639E+02  0.00000000000E+00 0.  1.
         12    1    3    3    0    0  0.56940945324E+02 -0.15536635315E+01 -0.19336011073E+03  0.20157583572E+03  0.00000000000E+00 0. -1.
          1    1    1    2  501    0 -0.31449173027E+02  0.11856372978E+02 -0.89878059971E+03  0.89940880054E+03  0.00000000000E+00 0. -1.
<mgrwt>
<rscale>  1 0.84483976E+02</rscale>
<asrwt>0</asrwt>
<pdfrwt beam="1">  1       21 0.18259804E+00 0.84483976E+02</pdfrwt>
<pdfrwt beam="2">  1        2 0.10022055E-02 0.84483976E+02</pdfrwt>
<totfact> 0.29991912E+04</totfact>
</mgrwt>
</event>
<event>
 6    2  0.7993170E+000  0.8731660E+02  0.7546771E-02  0.1309483E+00
          2   -1    0    0  502    0 -0.00000000000E+00  0.00000000000E+00  0.77361277840E+03  0.77361277840E+03  0.00000000000E+00 0. -1.
         21   -1    0    0  501  502  0.00000000000E+00 -0.00000000000E+00 -0.49295384964E+01  0.49295384964E+01  0.00000000000E+00 0.  1.
         24    2    1    2    0    0  0.31937337360E+02  0.81731484939E+01  0.62841241821E+03  0.63444964778E+03  0.80854154724E+02 0.  0.
        -13    1    3    3    0    0  0.42291170082E+02 -0.15704375607E+01  0.15080445871E+03  0.15663011877E+03  0.00000000000E+00 0.  1.
         14    1    3    3    0    0 -0.10353832722E+02  0.97435860546E+01  0.47760795950E+03  0.47781952901E+03  0.00000000000E+00 0. -1.
          1    1    1    2  501    0 -0.31937337360E+02 -0.81731484939E+01  0.14027082170E+03  0.14409266912E+03  0.00000000000E+00 0. -1.
<mgrwt>
<rscale>  1 0.87316598E+02</rscale>
<asrwt>0</asrwt>
<pdfrwt beam="1">  1       21 0.75839115E-03 0.87316598E+02</pdfrwt>
<pdfrwt beam="2">  1        2 0.11901725E+00 0.87316598E+02</pdfrwt>
<totfact> 0.25286126E+06</totfact>
</mgrwt>
</event>
<event>
 6    2  0.7993170E+000  0.8750264E+02  0.7546771E-02  0.1309015E+00
         21   -1    0    0  501  502  0.00000000000E+00  0.00000000000E+00  0.31392844292E+01  0.31392844292E+01  0.00000000000E+00 0.  1.
          2   -1    0    0  502    0 -0.00000000000E+00 -0.00000000000E+00 -0.12259653441E+04  0.12259653441E+04  0.00000000000E+00 0. -1.
         24    2    1    2    0    0  0.21469844705E+02  0.23479879126E+02 -0.72470499002E+03  0.72996851584E+03  0.81513511823E+02 0.  0.
        -11    1    3    3    0    0  0.36286363455E+02  0.14629347124E+02 -0.15043988238E+03  0.15544412559E+03  0.00000000000E+00 0.  1.
         12    1    3    3    0    0 -0.14816518750E+02  0.88505320019E+01 -0.57426510763E+03  0.57452439025E+03  0.00000000000E+00 0. -1.
          1    1    1    2  501    0 -0.21469844705E+02 -0.23479879126E+02 -0.49812106966E+03  0.49913611269E+03  0.00000000000E+00 0. -1.
<mgrwt>
<rscale>  1 0.87502637E+02</rscale>
<asrwt>0</asrwt>
<pdfrwt beam="1">  1       21 0.48296663E-03 0.87502637E+02</pdfrwt>
<pdfrwt beam="2">  1        2 0.18861013E+00 0.87502637E+02</pdfrwt>
<totfact> 0.27333518E+06</totfact>
</mgrwt>
</event>
<event>
 6    2  0.7993170E+000  0.9329991E+02  0.7546771E-02  0.1295052E+00
         -1   -1    0    0    0  501 -0.00000000000E+00  0.00000000000E+00  0.25914631684E+03  0.25914631684E+03  0.00000000000E+00 0.  1.
         21   -1    0    0  501  502  0.00000000000E+00 -0.00000000000E+00 -0.13715927176E+02  0.13715927176E+02  0.00000000000E+00 0.  1.
         24    2    1    2    0    0  0.21266187959E+02 -0.14729826943E+02  0.19589798714E+03  0.21698132194E+03  0.89641810302E+02 0.  0.
        -13    1    3    3    0    0  0.51468027339E+02 -0.25233042469E+02  0.15367093908E+03  0.16401348051E+03  0.00000000000E+00 0.  1.
         14    1    3    3    0    0 -0.30201839380E+02  0.10503215526E+02  0.42227048053E+02  0.52967841429E+02  0.00000000000E+00 0. -1.
         -2    1    1    2    0  502 -0.21266187959E+02  0.14729826943E+02  0.49532402531E+02  0.55880922081E+02  0.00000000000E+00 0.  1.
<mgrwt>
<rscale>  1 0.93299907E+02</rscale>
<asrwt>0</asrwt>
<pdfrwt beam="1">  1       21 0.21101428E-02 0.93299907E+02</pdfrwt>
<pdfrwt beam="2">  1       -1 0.39868661E-01 0.93299907E+02</pdfrwt>
<totfact> 0.60287043E+05</totfact>
</mgrwt>
</event>
<event>
 6    2  0.7993170E+000  0.8596850E+02  0.7546771E-02  0.1312919E+00
         -1   -1    0    0    0  501 -0.00000000000E+00  0.00000000000E+00  0.30551473080E+03  0.30551473080E+03  0.00000000000E+00 0.  1.
         21   -1    0    0  501  502  0.00000000000E+00 -0.00000000000E+00 -0.15178462550E+02  0.15178462550E+02  0.00000000000E+00 0.  1.
         24    2    1    2    0    0 -0.17327826554E+02 -0.22017022516E+02  0.27628165880E+03  0.28934778060E+03  0.81274721137E+02 0.  0.
        -11    1    3    3    0    0 -0.35829985379E+02  0.65137359207E+01  0.22426288839E+03  0.22720048353E+03  0.00000000000E+00 0.  1.
         12    1    3    3    0    0  0.18502158825E+02 -0.28530758437E+02  0.52018770414E+02  0.62147297074E+02  0.00000000000E+00 0. -1.
         -2    1    1    2    0  502  0.17327826554E+02  0.22017022516E+02  0.14054609451E+02  0.31345412749E+02  0.00000000000E+00 0.  1.
<mgrwt>
<rscale>  1 0.85968501E+02</rscale>
<asrwt>0</asrwt>
<pdfrwt beam="1">  1       21 0.23351483E-02 0.85968501E+02</pdfrwt>
<pdfrwt beam="2">  1       -1 0.47002262E-01 0.85968501E+02</pdfrwt>
<totfact> 0.38032950E+05</totfact>
</mgrwt>
</event>
<event>
 6    2  0.7993170E+000  0.8239831E+02  0.7546771E-02  0.1322380E+00
         21   -1    0    0  501  502  0.00000000000E+00  0.00000000000E+00  0.15441963720E+01  0.15441963720E+01  0.00000000000E+00 0.  1.
          2   -1    0    0  502    0 -0.00000000000E+00 -0.00000000000E+00 -0.18297640081E+04  0.18297640081E+04  0.00000000000E+00 0. -1.
         24    2    1    2    0    0  0.23144412873E+02 -0.37601944952E+01 -0.14899622336E+04  0.14922389017E+04  0.78991640907E+02 0.  0.
        -13    1    3    3    0    0  0.51945635200E+02 -0.98964830112E+01 -0.98628278231E+03  0.98769935510E+03  0.00000000000E+00 0.  1.
         14    1    3    3    0    0 -0.28801222327E+02  0.61362885160E+01 -0.50367945127E+03  0.50453954659E+03  0.00000000000E+00 0. -1.
          1    1    1    2  501    0 -0.23144412873E+02  0.37601944952E+01 -0.33825757820E+03  0.33906930283E+03  0.00000000000E+00 0. -1.
<mgrwt>
<rscale>  1 0.82398315E+02</rscale>
<asrwt>0</asrwt>
<pdfrwt beam="1">  1       21 0.23756879E-03 0.82398315E+02</pdfrwt>
<pdfrwt beam="2">  1        2 0.28150201E+00 0.82398315E+02</pdfrwt>
<totfact> 0.39132638E+06</totfact>
</mgrwt>
</event>
<event>
 6    2  0.7993170E+000  0.8637641E+02  0.7546771E-02  0.1311872E+00
         21   -1    0    0  501  502  0.00000000000E+00  0.00000000000E+00  0.17437642682E+01  0.17437642682E+01  0.00000000000E+00 0.  1.
          2   -1    0    0  502    0 -0.00000000000E+00 -0.00000000000E+00 -0.20287777929E+04  0.20287777929E+04  0.00000000000E+00 0. -1.
         24    2    1    2    0    0 -0.30427618255E+02 -0.11647256746E+02 -0.14737021181E+04  0.14762312887E+04  0.79996163684E+02 0.  0.
        -11    1    3    3    0    0 -0.96092063142E+01 -0.25448676632E+02 -0.16030134327E+03  0.16259302766E+03  0.00000000000E+00 0.  1.
         12    1    3    3    0    0 -0.20818411941E+02  0.13801419885E+02 -0.13134007749E+04  0.13136382610E+04  0.00000000000E+00 0. -1.
          1    1    1    2  501    0  0.30427618255E+02  0.11647256746E+02 -0.55333191047E+03  0.55429026844E+03  0.00000000000E+00 0. -1.
<mgrwt>
<rscale>  1 0.86376413E+02</rscale>
<asrwt>0</asrwt>
<pdfrwt beam="1">  1       21 0.26826962E-03 0.86376413E+02</pdfrwt>
<pdfrwt beam="2">  1        2 0.31212176E+00 0.86376413E+02</pdfrwt>
<totfact> 0.26016769E+06</totfact>
</mgrwt>
</event>
<event>
 6    2  0.7993170E+000  0.8225613E+02  0.7546771E-02  0.1322768E+00
         21   -1    0    0  501  502  0.00000000000E+00  0.00000000000E+00  0.23256121323E+02  0.23256121323E+02  0.00000000000E+00 0. -1.
         -1   -1    0    0    0  501 -0.00000000000E+00 -0.00000000000E+00 -0.14935009833E+03  0.14935009833E+03  0.00000000000E+00 0.  1.
         24    2    1    2    0    0 -0.19318215191E+02  0.86712674798E+01 -0.56319239183E+02  0.99689154734E+02  0.79483876048E+02 0.  0.
        -13    1    3    3    0    0  0.19087947948E+02 -0.13995380846E+02 -0.49107242141E+02  0.54513683351E+02  0.00000000000E+00 0.  1.
         14    1    3    3    0    0 -0.38406163138E+02  0.22666648326E+02 -0.72119970418E+01  0.45175471383E+02  0.00000000000E+00 0. -1.
         -2    1    1    2    0  502  0.19318215191E+02 -0.86712674798E+01 -0.69774737826E+02  0.72917064920E+02  0.00000000000E+00 0.  1.
<mgrwt>
<rscale>  1 0.82256130E+02</rscale>
<asrwt>0</asrwt>
<pdfrwt beam="1">  1       21 0.35778647E-02 0.82256130E+02</pdfrwt>
<pdfrwt beam="2">  1       -1 0.22976939E-01 0.82256130E+02</pdfrwt>
<totfact> 0.63275647E+05</totfact>
</mgrwt>
</event>
<event>
 6    2  0.7993170E+000  0.8747800E+02  0.7546771E-02  0.1309077E+00
         21   -1    0    0  501  502  0.00000000000E+00  0.00000000000E+00  0.89198735149E+02  0.89198735149E+02  0.00000000000E+00 0.  1.
         -1   -1    0    0    0  501 -0.00000000000E+00 -0.00000000000E+00 -0.40359890844E+02  0.40359890844E+02  0.00000000000E+00 0.  1.
         24    2    1    2    0    0 -0.24852907904E+02  0.17965071528E+02  0.25802781031E+02  0.91204082097E+02  0.81926737125E+02 0.  0.
        -13    1    3    3    0    0 -0.11749669520E+02  0.34916707755E+02 -0.19066298255E+02  0.41481983359E+02  0.00000000000E+00 0.  1.
         14    1    3    3    0    0 -0.13103238384E+02 -0.16951636227E+02  0.44869079286E+02  0.49722098737E+02  0.00000000000E+00 0. -1.
         -2    1    1    2    0  502  0.24852907904E+02 -0.17965071528E+02  0.23036063274E+02  0.38354543896E+02  0.00000000000E+00 0.  1.
<mgrwt>
<rscale>  1 0.87478003E+02</rscale>
<asrwt>0</asrwt>
<pdfrwt beam="1">  1       21 0.13722882E-01 0.87478003E+02</pdfrwt>
<pdfrwt beam="2">  1       -1 0.62092140E-02 0.87478003E+02</pdfrwt>
<totfact> 0.48208912E+05</totfact>
</mgrwt>
</event>
<event>
 6    2  0.7993170E+000  0.8658064E+02  0.7546771E-02  0.1311350E+00
         21   -1    0    0  501  502  0.00000000000E+00  0.00000000000E+00  0.32098815035E+02  0.32098815035E+02  0.00000000000E+00 0. -1.
          2   -1    0    0  502    0 -0.00000000000E+00 -0.00000000000E+00 -0.62991337939E+03  0.62991337939E+03  0.00000000000E+00 0. -1.
         24    2    1    2    0    0 -0.25294506946E+02  0.17753336329E+02 -0.61869020584E+03  0.62471895858E+03  0.80877768139E+02 0.  0.
        -13    1    3    3    0    0  0.29509835541E+02  0.98093186180E+01 -0.20786665550E+03  0.21017992196E+03  0.00000000000E+00 0.  1.
         14    1    3    3    0    0 -0.54804342487E+02  0.79440177113E+01 -0.41082355034E+03  0.41453903662E+03  0.00000000000E+00 0. -1.
          1    1    1    2  501    0  0.25294506946E+02 -0.17753336329E+02  0.20875641482E+02  0.37293235845E+02  0.00000000000E+00 0. -1.
<mgrwt>
<rscale>  1 0.86580635E+02</rscale>
<asrwt>0</asrwt>
<pdfrwt beam="1">  1       21 0.49382797E-02 0.86580635E+02</pdfrwt>
<pdfrwt beam="2">  1        2 0.96909742E-01 0.86580635E+02</pdfrwt>
<totfact> 0.16043180E+05</totfact>
</mgrwt>
</event>
<event>
 6    2  0.7993170E+000  0.8847952E+02  0.7546771E-02  0.1306576E+00
         21   -1    0    0  501  502  0.00000000000E+00  0.00000000000E+00  0.93234377270E+01  0.93234377270E+01  0.00000000000E+00 0.  1.
          2   -1    0    0  502    0 -0.00000000000E+00 -0.00000000000E+00 -0.42990616703E+03  0.42990616703E+03  0.00000000000E+00 0. -1.
         24    2    1    2    0    0  0.35516813177E+02  0.40683172876E+01 -0.25758369302E+03  0.27235635629E+03  0.80935966538E+02 0.  0.
        -13    1    3    3    0    0  0.35740727178E+02 -0.21700809075E+02 -0.60193519886E+02  0.73291094479E+02  0.00000000000E+00 0.  1.
         14    1    3    3    0    0 -0.22391400058E+00  0.25769126363E+02 -0.19739017313E+03  0.19906526181E+03  0.00000000000E+00 0. -1.
          1    1    1    2  501    0 -0.35516813177E+02 -0.40683172876E+01 -0.16299903629E+03  0.16687324847E+03  0.00000000000E+00 0. -1.
<mgrwt>
<rscale>  1 0.88479523E+02</rscale>
<asrwt>0</asrwt>
<pdfrwt beam="1">  1       21 0.14343750E-02 0.88479523E+02</pdfrwt>
<pdfrwt beam="2">  1        2 0.66139410E-01 0.88479523E+02</pdfrwt>
<totfact> 0.17999952E+06</totfact>
</mgrwt>
</event>
<event>
 6    2  0.7993170E+000  0.1288829E+03  0.7546771E-02  0.1229123E+00
          2   -1    0    0  502    0 -0.00000000000E+00  0.00000000000E+00  0.30787428388E+03  0.30787428388E+03  0.00000000000E+00 0. -1.
         21   -1    0    0  501  502  0.00000000000E+00 -0.00000000000E+00 -0.43897309779E+02  0.43897309779E+02  0.00000000000E+00 0. -1.
         24    2    1    2    0    0  0.95145685308E+02  0.30444384964E+02  0.17929696360E+03  0.22081256882E+03  0.81432348508E+02 0.  0.
        -13    1    3    3    0    0  0.20484561082E+02  0.27040303941E+02  0.12202708772E+03  0.12665466994E+03  0.00000000000E+00 0.  1.
         14    1    3    3    0    0  0.74661124226E+02  0.34040810231E+01  0.57269875884E+02  0.94157898883E+02  0.00000000000E+00 0. -1.
          1    1    1    2  501    0 -0.95145685308E+02 -0.30444384964E+02  0.84680010501E+02  0.13095902484E+03  0.00000000000E+00 0. -1.
<mgrwt>
<rscale>  1 0.12888285E+03</rscale>
<asrwt>0</asrwt>
<pdfrwt beam="1">  1       21 0.67534325E-02 0.12888285E+03</pdfrwt>
<pdfrwt beam="2">  1        2 0.47365273E-01 0.12888285E+03</pdfrwt>
<totfact> 0.20873736E+05</totfact>
</mgrwt>
</event>
<event>
 6    2  0.7993170E+000  0.8644004E+02  0.7546771E-02  0.1311709E+00
          2   -1    0    0  502    0 -0.00000000000E+00  0.00000000000E+00  0.68631866753E+03  0.68631866753E+03  0.00000000000E+00 0. -1.
         21   -1    0    0  501  502  0.00000000000E+00 -0.00000000000E+00 -0.61164832315E+01  0.61164832315E+01  0.00000000000E+00 0. -1.
         24    2    1    2    0    0 -0.23263011117E+02  0.58233141184E+01  0.63854006254E+03  0.64436425455E+03  0.83046989077E+02 0.  0.
        -11    1    3    3    0    0 -0.37422336531E+02 -0.28667400078E+02  0.42354082424E+03  0.42615616961E+03  0.00000000000E+00 0.  1.
         12    1    3    3    0    0  0.14159325414E+02  0.34490714196E+02  0.21499923830E+03  0.21820808493E+03  0.00000000000E+00 0. -1.
          1    1    1    2  501    0  0.23263011117E+02 -0.58233141184E+01  0.41662121762E+02  0.48070896218E+02  0.00000000000E+00 0. -1.
<mgrwt>
<rscale>  1 0.86440043E+02</rscale>
<asrwt>0</asrwt>
<pdfrwt beam="1">  1       21 0.94099796E-03 0.86440043E+02</pdfrwt>
<pdfrwt beam="2">  1        2 0.10558743E+00 0.86440043E+02</pdfrwt>
<totfact> 0.20805730E+06</totfact>
</mgrwt>
</event>
<event>
 6    2  0.7993170E+000  0.9618460E+02  0.7546771E-02  0.1288530E+00
         -1   -1    0    0    0  501 -0.00000000000E+00  0.00000000000E+00  0.14307040011E+03  0.14307040011E+03  0.00000000000E+00 0.  1.
         21   -1    0    0  501  502  0.00000000000E+00 -0.00000000000E+00 -0.41478123535E+02  0.41478123535E+02  0.00000000000E+00 0.  1.
         24    2    1    2    0    0 -0.48293309838E+02 -0.29096111046E+02  0.76212305692E+02  0.12271834998E+03  0.77927212387E+02 0.  0.
        -13    1    3    3    0    0 -0.39841179141E+02  0.64706030788E+01  0.76121838808E+02  0.86161027170E+02  0.00000000000E+00 0.  1.
         14    1    3    3    0    0 -0.84521306968E+01 -0.35566714125E+02  0.90466884317E-01  0.36557322812E+02  0.00000000000E+00 0. -1.
         -2    1    1    2    0  502  0.48293309838E+02  0.29096111046E+02  0.25379970885E+02  0.61830173663E+02  0.00000000000E+00 0.  1.
<mgrwt>
<rscale>  1 0.96184603E+02</rscale>
<asrwt>0</asrwt>
<pdfrwt beam="1">  1       21 0.63812498E-02 0.96184603E+02</pdfrwt>
<pdfrwt beam="2">  1       -1 0.22010831E-01 0.96184603E+02</pdfrwt>
<totfact> 0.26361591E+05</totfact>
</mgrwt>
</event>
<event>
 6    2  0.7993170E+000  0.8949437E+02  0.7546771E-02  0.1304081E+00
         21   -1    0    0  501  502  0.00000000000E+00  0.00000000000E+00  0.19419106181E+02  0.19419106181E+02  0.00000000000E+00 0. -1.
          4   -1    0    0  502    0 -0.00000000000E+00 -0.00000000000E+00 -0.33466461428E+03  0.33466461428E+03  0.00000000000E+00 0. -1.
         24    2    1    2    0    0  0.38182100683E+02 -0.16804018194E+02 -0.29389947469E+03  0.30722327891E+03  0.79176979245E+02 0.  0.
        -13    1    3    3    0    0  0.35163578782E+02 -0.36623007905E+02 -0.98660319920E+02  0.11095756264E+03  0.00000000000E+00 0.  1.
         14    1    3    3    0    0  0.30185219002E+01  0.19818989711E+02 -0.19523915477E+03  0.19626571627E+03  0.00000000000E+00 0. -1.
          3    1    1    2  501    0 -0.38182100683E+02  0.16804018194E+02 -0.21346033411E+02  0.46860441551E+02  0.00000000000E+00 0. -1.
<mgrwt>
<rscale>  1 0.89494368E+02</rscale>
<asrwt>0</asrwt>
<pdfrwt beam="1">  1       21 0.29875547E-02 0.89494368E+02</pdfrwt>
<pdfrwt beam="2">  1        4 0.51486865E-01 0.89494368E+02</pdfrwt>
<totfact> 0.87650025E+04</totfact>
</mgrwt>
</event>
<event>
 6    2  0.7993170E+000  0.8455918E+02  0.7546771E-02  0.1316589E+00
          2   -1    0    0  502    0 -0.00000000000E+00  0.00000000000E+00  0.13583407730E+04  0.13583407730E+04  0.00000000000E+00 0. -1.
         21   -1    0    0  501  502  0.00000000000E+00 -0.00000000000E+00 -0.24446120169E+01  0.24446120169E+01  0.00000000000E+00 0.  1.
         24    2    1    2    0    0  0.25008593743E+02  0.17716508899E+01  0.83107738130E+03  0.83536810322E+03  0.80756954209E+02 0.  0.
        -13    1    3    3    0    0  0.40699880040E+02  0.31019225514E+02  0.53142340017E+03  0.53388154382E+03  0.00000000000E+00 0.  1.
         14    1    3    3    0    0 -0.15691286297E+02 -0.29247574624E+02  0.29965398113E+03  0.30148655939E+03  0.00000000000E+00 0. -1.
          1    1    1    2  501    0 -0.25008593743E+02 -0.17716508899E+01  0.52481877971E+03  0.52541728183E+03  0.00000000000E+00 0. -1.
<mgrwt>
<rscale>  1 0.84559175E+02</rscale>
<asrwt>0</asrwt>
<pdfrwt beam="1">  1       21 0.37609524E-03 0.84559175E+02</pdfrwt>
<pdfrwt beam="2">  1        2 0.20897490E+00 0.84559175E+02</pdfrwt>
<totfact> 0.33948856E+06</totfact>
</mgrwt>
</event>
<event>
 6    2  0.7993170E+000  0.9750518E+02  0.7546771E-02  0.1285631E+00
         21   -1    0    0  501  502  0.00000000000E+00  0.00000000000E+00  0.33617263420E+02  0.33617263420E+02  0.00000000000E+00 0.  1.
          2   -1    0    0  502    0 -0.00000000000E+00 -0.00000000000E+00 -0.17907656278E+03  0.17907656278E+03  0.00000000000E+00 0. -1.
         24    2    1    2    0    0 -0.18188873635E+02 -0.51020855156E+02 -0.11416956362E+03  0.15013976679E+03  0.81075875152E+02 0.  0.
        -11    1    3    3    0    0 -0.37561978729E+02 -0.56300373991E+02 -0.53617004658E+02  0.86344759807E+02  0.00000000000E+00 0.  1.
         12    1    3    3    0    0  0.19373105094E+02  0.52795188351E+01 -0.60552558959E+02  0.63795006988E+02  0.00000000000E+00 0. -1.
          1    1    1    2  501    0  0.18188873635E+02  0.51020855156E+02 -0.31289735738E+02  0.62554059401E+02  0.00000000000E+00 0. -1.
<mgrwt>
<rscale>  1 0.97505181E+02</rscale>
<asrwt>0</asrwt>
<pdfrwt beam="1">  1       21 0.51718866E-02 0.97505181E+02</pdfrwt>
<pdfrwt beam="2">  1        2 0.27550241E-01 0.97505181E+02</pdfrwt>
<totfact> 0.57186576E+05</totfact>
</mgrwt>
</event>
<event>
 6    2  0.7993170E+000  0.8862603E+02  0.7546771E-02  0.1306213E+00
          2   -1    0    0  502    0 -0.00000000000E+00  0.00000000000E+00  0.96772919643E+03  0.96772919643E+03  0.00000000000E+00 0. -1.
         21   -1    0    0  501  502  0.00000000000E+00 -0.00000000000E+00 -0.41153350289E+01  0.41153350289E+01  0.00000000000E+00 0.  1.
         24    2    1    2    0    0 -0.27433109189E+02 -0.25092792886E+02  0.64181514939E+03  0.64790528594E+03  0.80450915653E+02 0.  0.
        -13    1    3    3    0    0 -0.18356874009E+02 -0.54409384389E+02  0.38392841365E+03  0.38819889585E+03  0.00000000000E+00 0.  1.
         14    1    3    3    0    0 -0.90762351801E+01  0.29316591503E+02  0.25788673574E+03  0.25970639008E+03  0.00000000000E+00 0. -1.
          1    1    1    2  501    0  0.27433109189E+02  0.25092792886E+02  0.32179871202E+03  0.32393924553E+03  0.00000000000E+00 0. -1.
<mgrwt>
<rscale>  1 0.88626032E+02</rscale>
<asrwt>0</asrwt>
<pdfrwt beam="1">  1       21 0.63312924E-03 0.88626032E+02</pdfrwt>
<pdfrwt beam="2">  1        2 0.14888123E+00 0.88626032E+02</pdfrwt>
<totfact> 0.25241693E+06</totfact>
</mgrwt>
</event>
<event>
 6    2  0.7993170E+000  0.8398578E+02  0.7546771E-02  0.1318106E+00
          2   -1    0    0  502    0 -0.00000000000E+00  0.00000000000E+00  0.20898886539E+04  0.20898886539E+04  0.00000000000E+00 0. -1.
         21   -1    0    0  501  502  0.00000000000E+00 -0.00000000000E+00 -0.14013863863E+01  0.14013863863E+01  0.00000000000E+00 0.  1.
         24    2    1    2    0    0 -0.17907722894E+02 -0.15129356178E+02  0.15183690030E+04  0.15206899882E+04  0.80647547098E+02 0.  0.
        -11    1    3    3    0    0 -0.32048556346E+02 -0.33827649095E+02  0.53044115310E+03  0.53248402484E+03  0.00000000000E+00 0.  1.
         12    1    3    3    0    0  0.14140833453E+02  0.18698292917E+02  0.98792784991E+03  0.98820596333E+03  0.00000000000E+00 0. -1.
          1    1    1    2  501    0  0.17907722894E+02  0.15129356178E+02  0.57011826446E+03  0.57060005208E+03  0.00000000000E+00 0. -1.
<mgrwt>
<rscale>  1 0.83985777E+02</rscale>
<asrwt>0</asrwt>
<pdfrwt beam="1">  1       21 0.21559958E-03 0.83985777E+02</pdfrwt>
<pdfrwt beam="2">  1        2 0.32151884E+00 0.83985777E+02</pdfrwt>
<totfact> 0.33598440E+06</totfact>
</mgrwt>
</event>
<event>
 6    2  0.7993170E+000  0.8354106E+02  0.7546771E-02  0.1319293E+00
          2   -1    0    0  502    0 -0.00000000000E+00  0.00000000000E+00  0.13469263176E+04  0.13469263176E+04  0.00000000000E+00 0. -1.
         21   -1    0    0  501  502  0.00000000000E+00 -0.00000000000E+00 -0.41427959328E+01  0.41427959328E+01  0.00000000000E+00 0. -1.
         24    2    1    2    0    0  0.22927798719E+02  0.99421436281E+01  0.12896392651E+04  0.12923422697E+04  0.79715606665E+02 0.  0.
        -11    1    3    3    0    0  0.33006581032E+02 -0.13409512643E+02  0.26461674145E+03  0.26700424955E+03  0.00000000000E+00 0.  1.
         12    1    3    3    0    0 -0.10078782312E+02  0.23351656271E+02  0.10250225236E+04  0.10253380202E+04  0.00000000000E+00 0. -1.
          1    1    1    2  501    0 -0.22927798719E+02 -0.99421436281E+01  0.53144256617E+02  0.58726843823E+02  0.00000000000E+00 0. -1.
<mgrwt>
<rscale>  1 0.83541056E+02</rscale>
<asrwt>0</asrwt>
<pdfrwt beam="1">  1       21 0.63735429E-03 0.83541056E+02</pdfrwt>
<pdfrwt beam="2">  1        2 0.20721908E+00 0.83541056E+02</pdfrwt>
<totfact> 0.15346937E+06</totfact>
</mgrwt>
</event>
<event>
 6    2  0.7993170E+000  0.8500612E+02  0.7546771E-02  0.1315417E+00
          2   -1    0    0  502    0 -0.00000000000E+00  0.00000000000E+00  0.32230948116E+04  0.32230948116E+04  0.00000000000E+00 0. -1.
         21   -1    0    0  501  502  0.00000000000E+00 -0.00000000000E+00 -0.10372758955E+01  0.10372758955E+01  0.00000000000E+00 0.  1.
         24    2    1    2    0    0 -0.24485167581E+02 -0.11604802397E+02  0.20505177919E+04  0.20522790395E+04  0.80571992960E+02 0.  0.
        -13    1    3    3    0    0 -0.31658495185E+02 -0.40108056005E+02  0.95402966862E+03  0.95539705101E+03  0.00000000000E+00 0.  1.
         14    1    3    3    0    0  0.71733276035E+01  0.28503253608E+02  0.10964881233E+04  0.10968819885E+04  0.00000000000E+00 0. -1.
          1    1    1    2  501    0  0.24485167581E+02  0.11604802397E+02  0.11715397438E+04  0.11718530480E+04  0.00000000000E+00 0. -1.
<mgrwt>
<rscale>  1 0.85006123E+02</rscale>
<asrwt>0</asrwt>
<pdfrwt beam="1">  1       21 0.15958349E-03 0.85006123E+02</pdfrwt>
<pdfrwt beam="2">  1        2 0.49585272E+00 0.85006123E+02</pdfrwt>
<totfact> 0.12895114E+06</totfact>
</mgrwt>
</event>
<event>
 6    2  0.7993170E+000  0.1046406E+03  0.7546771E-02  0.1270829E+00
          2   -1    0    0  502    0 -0.00000000000E+00  0.00000000000E+00  0.17511079476E+04  0.17511079476E+04  0.00000000000E+00 0. -1.
         21   -1    0    0  501  502  0.00000000000E+00 -0.00000000000E+00 -0.43098955408E+01  0.43098955408E+01  0.00000000000E+00 0.  1.
         24    2    1    2    0    0  0.51428483127E+02  0.36911870781E+02  0.85575378373E+03  0.86212770931E+03  0.83320307890E+02 0.  0.
        -13    1    3    3    0    0  0.42067950535E+02  0.21544042863E+02  0.17899871300E+03  0.18513345862E+03  0.00000000000E+00 0.  1.
         14    1    3    3    0    0  0.93605325922E+01  0.15367827918E+02  0.67675507072E+03  0.67699425068E+03  0.00000000000E+00 0. -1.
          1    1    1    2  501    0 -0.51428483127E+02 -0.36911870781E+02  0.89104426837E+03  0.89329013388E+03  0.00000000000E+00 0. -1.
<mgrwt>
<rscale>  1 0.10464057E+03</rscale>
<asrwt>0</asrwt>
<pdfrwt beam="1">  1       21 0.66306225E-03 0.10464057E+03</pdfrwt>
<pdfrwt beam="2">  1        2 0.26940066E+00 0.10464057E+03</pdfrwt>
<totfact> 0.91084196E+05</totfact>
</mgrwt>
</event>
<event>
 6    2  0.7993170E+000  0.1007506E+03  0.7546771E-02  0.1278725E+00
         21   -1    0    0  501  502  0.00000000000E+00  0.00000000000E+00  0.15217307428E+03  0.15217307428E+03  0.00000000000E+00 0.  1.
         -3   -1    0    0    0  501 -0.00000000000E+00 -0.00000000000E+00 -0.67729938056E+02  0.67729938056E+02  0.00000000000E+00 0.  1.
         24    2    1    2    0    0  0.60160352370E+02 -0.40301517391E+01 -0.16725487995E+02  0.10212949814E+03  0.80716679323E+02 0.  0.
        -13    1    3    3    0    0  0.74624224385E+02  0.15074566935E+02 -0.17644611260E+02  0.78149534483E+02  0.00000000000E+00 0.  1.
         14    1    3    3    0    0 -0.14463872016E+02 -0.19104718674E+02  0.91912326518E+00  0.23979963655E+02  0.00000000000E+00 0. -1.
         -4    1    1    2    0  502 -0.60160352370E+02  0.40301517391E+01  0.10116862422E+03  0.11777351420E+03  0.00000000000E+00 0.  1.
<mgrwt>
<rscale>  1 0.10075064E+03</rscale>
<asrwt>0</asrwt>
<pdfrwt beam="1">  1       21 0.23411242E-01 0.10075064E+03</pdfrwt>
<pdfrwt beam="2">  1       -3 0.10419991E-01 0.10075064E+03</pdfrwt>
<totfact> 0.54879524E+04</totfact>
</mgrwt>
</event>
<event>
 6    2  0.7993170E+000  0.1422214E+03  0.7546771E-02  0.1210371E+00
          2   -1    0    0  502    0 -0.00000000000E+00  0.00000000000E+00  0.52974683469E+03  0.52974683469E+03  0.00000000000E+00 0. -1.
         21   -1    0    0  501  502  0.00000000000E+00 -0.00000000000E+00 -0.40196817937E+02  0.40196817937E+02  0.00000000000E+00 0. -1.
         24    2    1    2    0    0 -0.77594613592E+02  0.83796799214E+02  0.12997045808E+03  0.19266353570E+03  0.84759013658E+02 0.  0.
        -11    1    3    3    0    0 -0.48912082136E+02  0.98985527263E+01  0.13359580071E+02  0.51660928221E+02  0.00000000000E+00 0.  1.
         12    1    3    3    0    0 -0.28682531457E+02  0.73898246488E+02  0.11661087801E+03  0.14100260748E+03  0.00000000000E+00 0. -1.
          1    1    1    2  501    0  0.77594613592E+02 -0.83796799214E+02  0.35957955867E+03  0.37728011693E+03  0.00000000000E+00 0. -1.
<mgrwt>
<rscale>  1 0.14222137E+03</rscale>
<asrwt>0</asrwt>
<pdfrwt beam="1">  1       21 0.61841262E-02 0.14222137E+03</pdfrwt>
<pdfrwt beam="2">  1        2 0.81499508E-01 0.14222137E+03</pdfrwt>
<totfact> 0.13588161E+05</totfact>
</mgrwt>
</event>
<event>
 6    2  0.7993170E+000  0.8488215E+02  0.7546771E-02  0.1315741E+00
         21   -1    0    0  501  502  0.00000000000E+00  0.00000000000E+00  0.50380315779E+02  0.50380315779E+02  0.00000000000E+00 0.  1.
          2   -1    0    0  502    0 -0.00000000000E+00 -0.00000000000E+00 -0.85061365509E+02  0.85061365509E+02  0.00000000000E+00 0. -1.
         24    2    1    2    0    0  0.84262168343E+01 -0.25802026713E+02  0.75744664046E+01  0.85219431672E+02  0.80425327357E+02 0.  0.
        -11    1    3    3    0    0  0.11633023884E+02  0.28216986407E+02 -0.38342911143E+00  0.30523312148E+02  0.00000000000E+00 0.  1.
         12    1    3    3    0    0 -0.32068070498E+01 -0.54019013120E+02  0.79578955160E+01  0.54696119524E+02  0.00000000000E+00 0. -1.
          1    1    1    2  501    0 -0.84262168343E+01  0.25802026713E+02 -0.42255516135E+02  0.50222249616E+02  0.00000000000E+00 0. -1.
<mgrwt>
<rscale>  1 0.84882148E+02</rscale>
<asrwt>0</asrwt>
<pdfrwt beam="1">  1       21 0.77508178E-02 0.84882148E+02</pdfrwt>
<pdfrwt beam="2">  1        2 0.13086364E-01 0.84882148E+02</pdfrwt>
<totfact> 0.65916178E+05</totfact>
</mgrwt>
</event>
<event>
 6    2  0.7993170E+000  0.8495439E+02  0.7546771E-02  0.1315552E+00
          2   -1    0    0  502    0 -0.00000000000E+00  0.00000000000E+00  0.21388787769E+04  0.21388787769E+04  0.00000000000E+00 0. -1.
         21   -1    0    0  501  502  0.00000000000E+00 -0.00000000000E+00 -0.23727225005E+01  0.23727225005E+01  0.00000000000E+00 0. -1.
         24    2    1    2    0    0  0.48909031142E+01 -0.26304321121E+02  0.20169468147E+04  0.20187351738E+04  0.80631323567E+02 0.  0.
        -13    1    3    3    0    0  0.18503509468E+02 -0.10500233046E+02  0.13445573918E+03  0.13612854423E+03  0.00000000000E+00 0.  1.
         14    1    3    3    0    0 -0.13612606354E+02 -0.15804088076E+02  0.18824910755E+04  0.18826066296E+04  0.00000000000E+00 0. -1.
          1    1    1    2  501    0 -0.48909031142E+01  0.26304321121E+02  0.11955923974E+03  0.12251632564E+03  0.00000000000E+00 0. -1.
<mgrwt>
<rscale>  1 0.84954391E+02</rscale>
<asrwt>0</asrwt>
<pdfrwt beam="1">  1       21 0.36503594E-03 0.84954391E+02</pdfrwt>
<pdfrwt beam="2">  1        2 0.32905673E+00 0.84954391E+02</pdfrwt>
<totfact> 0.14357653E+06</totfact>
</mgrwt>
</event>
<event>
 6    2  0.7993170E+000  0.8506559E+02  0.7546771E-02  0.1315261E+00
         21   -1    0    0  501  502  0.00000000000E+00  0.00000000000E+00  0.28009978536E+02  0.28009978536E+02  0.00000000000E+00 0. -1.
          2   -1    0    0  502    0 -0.00000000000E+00 -0.00000000000E+00 -0.48900196496E+03  0.48900196496E+03  0.00000000000E+00 0. -1.
         24    2    1    2    0    0  0.28914133389E+02 -0.17413058635E+02 -0.47345174353E+03  0.48103295980E+03  0.78082733280E+02 0.  0.
        -11    1    3    3    0    0  0.15627716783E+02 -0.71699611059E+01 -0.16686810453E+02  0.23960040009E+02  0.00000000000E+00 0.  1.
         12    1    3    3    0    0  0.13286416606E+02 -0.10243097529E+02 -0.45676493308E+03  0.45707291979E+03  0.00000000000E+00 0. -1.
          1    1    1    2  501    0 -0.28914133389E+02  0.17413058635E+02  0.12459757110E+02  0.35978983697E+02  0.00000000000E+00 0. -1.
<mgrwt>
<rscale>  1 0.85065592E+02</rscale>
<asrwt>0</asrwt>
<pdfrwt beam="1">  1       21 0.43092273E-02 0.85065592E+02</pdfrwt>
<pdfrwt beam="2">  1        2 0.75231074E-01 0.85065592E+02</pdfrwt>
<totfact> 0.26528033E+05</totfact>
</mgrwt>
</event>
<event>
 6    2  0.7993170E+000  0.8345885E+02  0.7546771E-02  0.1319513E+00
          4   -1    0    0  502    0 -0.00000000000E+00  0.00000000000E+00  0.10014510997E+04  0.10014510997E+04  0.00000000000E+00 0. -1.
         21   -1    0    0  501  502  0.00000000000E+00 -0.00000000000E+00 -0.64079364043E+01  0.64079364043E+01  0.00000000000E+00 0. -1.
         24    2    1    2    0    0  0.21607944671E+02 -0.10620241374E+02  0.96823832202E+03  0.97182860014E+03  0.79910493827E+02 0.  0.
        -11    1    3    3    0    0  0.46651823008E+02 -0.11298017116E+02  0.37473128160E+03  0.37779302692E+03  0.00000000000E+00 0.  1.
         12    1    3    3    0    0 -0.25043878337E+02  0.67777574205E+00  0.59350704042E+03  0.59403557322E+03  0.00000000000E+00 0. -1.
          3    1    1    2  501    0 -0.21607944671E+02  0.10620241374E+02  0.26804841266E+02  0.36030435954E+02  0.00000000000E+00 0. -1.
<mgrwt>
<rscale>  1 0.83458851E+02</rscale>
<asrwt>0</asrwt>
<pdfrwt beam="1">  1       21 0.98583717E-03 0.83458851E+02</pdfrwt>
<pdfrwt beam="2">  1        4 0.15406928E+00 0.83458851E+02</pdfrwt>
<totfact> 0.43090428E+04</totfact>
</mgrwt>
</event>
<event>
 6    2  0.7993170E+000  0.8826955E+02  0.7546771E-02  0.1307097E+00
         21   -1    0    0  501  502  0.00000000000E+00  0.00000000000E+00  0.11328865057E+03  0.11328865057E+03  0.00000000000E+00 0.  1.
         -1   -1    0    0    0  501 -0.00000000000E+00 -0.00000000000E+00 -0.36310843111E+02  0.36310843111E+02  0.00000000000E+00 0.  1.
         24    2    1    2    0    0  0.15924466195E+02  0.33962079852E+02  0.39939998671E+02  0.96885067084E+02  0.79903074025E+02 0.  0.
        -13    1    3    3    0    0  0.31646146351E+02  0.51247313400E+02  0.13737349564E+02  0.61777669773E+02  0.00000000000E+00 0.  1.
         14    1    3    3    0    0 -0.15721680156E+02 -0.17285233548E+02  0.26202649107E+02  0.35107397311E+02  0.00000000000E+00 0. -1.
         -2    1    1    2    0  502 -0.15924466195E+02 -0.33962079852E+02  0.37037808784E+02  0.52714426592E+02  0.00000000000E+00 0.  1.
<mgrwt>
<rscale>  1 0.88269546E+02</rscale>
<asrwt>0</asrwt>
<pdfrwt beam="1">  1       21 0.17429023E-01 0.88269546E+02</pdfrwt>
<pdfrwt beam="2">  1       -1 0.55862836E-02 0.88269546E+02</pdfrwt>
<totfact> 0.36760976E+05</totfact>
</mgrwt>
</event>
<event>
 6    2  0.7993170E+000  0.8392317E+02  0.7546771E-02  0.1318273E+00
         -1   -1    0    0    0  501 -0.00000000000E+00  0.00000000000E+00  0.34683197256E+03  0.34683197256E+03  0.00000000000E+00 0.  1.
         21   -1    0    0  501  502  0.00000000000E+00 -0.00000000000E+00 -0.19928690896E+02  0.19928690896E+02  0.00000000000E+00 0. -1.
         24    2    1    2    0    0  0.28447649705E+02  0.35192177644E+01  0.72956966623E+02  0.11120169846E+03  0.78876137670E+02 0.  0.
        -13    1    3    3    0    0 -0.13413622154E+02  0.25096906172E+02  0.52787558674E+02  0.59969211346E+02  0.00000000000E+00 0.  1.
         14    1    3    3    0    0  0.41861271859E+02 -0.21577688408E+02  0.20169407949E+02  0.51232487112E+02  0.00000000000E+00 0. -1.
         -2    1    1    2    0  502 -0.28447649705E+02 -0.35192177644E+01  0.25394631504E+03  0.25555896499E+03  0.00000000000E+00 0.  1.
<mgrwt>
<rscale>  1 0.83923172E+02</rscale>
<asrwt>0</asrwt>
<pdfrwt beam="1">  1       21 0.30659527E-02 0.83923172E+02</pdfrwt>
<pdfrwt beam="2">  1       -1 0.53358761E-01 0.83923172E+02</pdfrwt>
<totfact> 0.19445220E+05</totfact>
</mgrwt>
</event>
<event>
 6    2  0.7993170E+000  0.8635859E+02  0.7546771E-02  0.1311917E+00
         21   -1    0    0  501  502  0.00000000000E+00  0.00000000000E+00  0.21781459786E+02  0.21781459786E+02  0.00000000000E+00 0. -1.
         -3   -1    0    0    0  501 -0.00000000000E+00 -0.00000000000E+00 -0.17527920900E+03  0.17527920900E+03  0.00000000000E+00 0.  1.
         24    2    1    2    0    0  0.31743125760E+02  0.21475424620E+01 -0.13499962319E+03  0.16025824172E+03  0.80284293646E+02 0.  0.
        -11    1    3    3    0    0  0.53249550602E+01 -0.11148673535E+02 -0.12960772726E+03  0.13019528038E+03  0.00000000000E+00 0.  1.
         12    1    3    3    0    0  0.26418170700E+02  0.13296215997E+02 -0.53918959339E+01  0.30062961343E+02  0.00000000000E+00 0. -1.
         -4    1    1    2    0  502 -0.31743125760E+02 -0.21475424620E+01 -0.18498126026E+02  0.36802427069E+02  0.00000000000E+00 0.  1.
<mgrwt>
<rscale>  1 0.86358588E+02</rscale>
<asrwt>0</asrwt>
<pdfrwt beam="1">  1       21 0.33509938E-02 0.86358588E+02</pdfrwt>
<pdfrwt beam="2">  1       -3 0.26966032E-01 0.86358588E+02</pdfrwt>
<totfact> 0.30265273E+05</totfact>
</mgrwt>
</event>
<event>
 6    2  0.7993170E+000  0.9255767E+02  0.7546771E-02  0.1296774E+00
          2   -1    0    0  502    0 -0.00000000000E+00  0.00000000000E+00  0.55224154165E+03  0.55224154165E+03  0.00000000000E+00 0. -1.
         21   -1    0    0  501  502  0.00000000000E+00 -0.00000000000E+00 -0.68042040634E+02  0.68042040634E+02  0.00000000000E+00 0. -1.
         24    2    1    2    0    0 -0.37799189371E+02  0.22129804074E+02  0.54082878466E+03  0.54869180405E+03  0.81537810666E+02 0.  0.
        -11    1    3    3    0    0  0.10591655912E+02  0.27260388579E+02  0.77839778623E+02  0.83152529105E+02  0.00000000000E+00 0.  1.
         12    1    3    3    0    0 -0.48390845283E+02 -0.51305845052E+01  0.46298900603E+03  0.46553927494E+03  0.00000000000E+00 0. -1.
          1    1    1    2  501    0  0.37799189371E+02 -0.22129804074E+02 -0.56629283642E+02  0.71591778238E+02  0.00000000000E+00 0. -1.
<mgrwt>
<rscale>  1 0.92557666E+02</rscale>
<asrwt>0</asrwt>
<pdfrwt beam="1">  1       21 0.10468007E-01 0.92557666E+02</pdfrwt>
<pdfrwt beam="2">  1        2 0.84960234E-01 0.92557666E+02</pdfrwt>
<totfact> 0.51976356E+04</totfact>
</mgrwt>
</event>
<event>
 6    2  0.7993170E+000  0.8275413E+02  0.7546771E-02  0.1321412E+00
         -1   -1    0    0    0  501 -0.00000000000E+00  0.00000000000E+00  0.94335774877E+03  0.94335774877E+03  0.00000000000E+00 0.  1.
         21   -1    0    0  501  502  0.00000000000E+00 -0.00000000000E+00 -0.34363421573E+01  0.34363421573E+01  0.00000000000E+00 0.  1.
         24    2    1    2    0    0  0.29701278971E+01  0.20896833225E+02  0.86520673125E+03  0.86915529899E+03  0.80017164830E+02 0.  0.
        -13    1    3    3    0    0  0.17104936592E+02  0.45350267032E+02  0.68865460558E+03  0.69035816165E+03  0.00000000000E+00 0.  1.
         14    1    3    3    0    0 -0.14134808695E+02 -0.24453433807E+02  0.17655212567E+03  0.17879713734E+03  0.00000000000E+00 0. -1.
         -2    1    1    2    0  502 -0.29701278971E+01 -0.20896833225E+02  0.74714675361E+02  0.77638791934E+02  0.00000000000E+00 0.  1.
<mgrwt>
<rscale>  1 0.82754130E+02</rscale>
<asrwt>0</asrwt>
<pdfrwt beam="1">  1       21 0.52866878E-03 0.82754130E+02</pdfrwt>
<pdfrwt beam="2">  1       -1 0.14513175E+00 0.82754130E+02</pdfrwt>
<totfact> 0.37348634E+05</totfact>
</mgrwt>
</event>
<event>
 6    2  0.7993170E+000  0.9476513E+02  0.7546771E-02  0.1291706E+00
          4   -1    0    0  502    0 -0.00000000000E+00  0.00000000000E+00  0.91923997470E+01  0.91923997470E+01  0.00000000000E+00 0. -1.
         21   -1    0    0  501  502  0.00000000000E+00 -0.00000000000E+00 -0.62616792795E+03  0.62616792795E+03  0.00000000000E+00 0. -1.
         24    2    1    2    0    0  0.34327411913E+02 -0.42876047573E+02 -0.33821719783E+03  0.35124251161E+03  0.77225011440E+02 0.  0.
        -11    1    3    3    0    0 -0.90454958688E+01 -0.20241096623E+02 -0.24468805048E+03  0.24569038450E+03  0.00000000000E+00 0.  1.
         12    1    3    3    0    0  0.43372907782E+02 -0.22634950950E+02 -0.93529147346E+02  0.10555212711E+03  0.00000000000E+00 0. -1.
          3    1    1    2  501    0 -0.34327411913E+02  0.42876047573E+02 -0.27875833037E+03  0.28411781608E+03  0.00000000000E+00 0. -1.
<mgrwt>
<rscale>  1 0.94765126E+02</rscale>
<asrwt>0</asrwt>
<pdfrwt beam="1">  1       21 0.96333561E-01 0.94765126E+02</pdfrwt>
<pdfrwt beam="2">  1        4 0.14142148E-02 0.94765126E+02</pdfrwt>
<totfact> 0.61162636E+04</totfact>
</mgrwt>
</event>
<event>
 6    2  0.7993170E+000  0.1095171E+03  0.7546771E-02  0.1261467E+00
         21   -1    0    0  501  502  0.00000000000E+00  0.00000000000E+00  0.26573333672E+02  0.26573333672E+02  0.00000000000E+00 0. -1.
          2   -1    0    0  502    0 -0.00000000000E+00 -0.00000000000E+00 -0.46567500602E+03  0.46567500602E+03  0.00000000000E+00 0. -1.
         24    2    1    2    0    0 -0.66783212718E+02  0.27911298214E+02 -0.38924394143E+03  0.40435731967E+03  0.82188551245E+02 0.  0.
        -13    1    3    3    0    0 -0.50024380897E+01  0.13842576963E+02 -0.59736184664E+01  0.15884754999E+02  0.00000000000E+00 0.  1.
         14    1    3    3    0    0 -0.61780774628E+02  0.14068721251E+02 -0.38327032297E+03  0.38847256467E+03  0.00000000000E+00 0. -1.
          1    1    1    2  501    0  0.66783212718E+02 -0.27911298214E+02 -0.49857730909E+02  0.87891020020E+02  0.00000000000E+00 0. -1.
<mgrwt>
<rscale>  1 0.10951710E+03</rscale>
<asrwt>0</asrwt>
<pdfrwt beam="1">  1       21 0.40882052E-02 0.10951710E+03</pdfrwt>
<pdfrwt beam="2">  1        2 0.71642308E-01 0.10951710E+03</pdfrwt>
<totfact> 0.30984548E+05</totfact>
</mgrwt>
</event>
<event>
 6    2  0.7993170E+000  0.8304911E+02  0.7546771E-02  0.1320615E+00
         21   -1    0    0  501  502  0.00000000000E+00  0.00000000000E+00  0.33105010250E+01  0.33105010250E+01  0.00000000000E+00 0. -1.
          2   -1    0    0  502    0 -0.00000000000E+00 -0.00000000000E+00 -0.27607319840E+04  0.27607319840E+04  0.00000000000E+00 0. -1.
         24    2    1    2    0    0 -0.13401288541E+02  0.17880745061E+02 -0.27134349119E+04  0.27147055414E+04  0.79986495108E+02 0.  0.
        -11    1    3    3    0    0  0.26696244602E+02 -0.15223654975E+02 -0.89559018962E+03  0.89611731201E+03  0.00000000000E+00 0.  1.
         12    1    3    3    0    0 -0.40097533144E+02  0.33104400036E+02 -0.18178447223E+04  0.18185882293E+04  0.00000000000E+00 0. -1.
          1    1    1    2  501    0  0.13401288541E+02 -0.17880745061E+02 -0.43986571047E+02  0.49336943673E+02  0.00000000000E+00 0. -1.
<mgrwt>
<rscale>  1 0.83049112E+02</rscale>
<asrwt>0</asrwt>
<pdfrwt beam="1">  1       21 0.50930792E-03 0.83049112E+02</pdfrwt>
<pdfrwt beam="2">  1        2 0.42472794E+00 0.83049112E+02</pdfrwt>
<totfact> 0.40945501E+05</totfact>
</mgrwt>
</event>
<event>
 6    2  0.7993170E+000  0.9480211E+02  0.7546771E-02  0.1291622E+00
         21   -1    0    0  501  502  0.00000000000E+00  0.00000000000E+00  0.48369978287E+01  0.48369978287E+01  0.00000000000E+00 0.  1.
          2   -1    0    0  502    0 -0.00000000000E+00 -0.00000000000E+00 -0.10429014311E+04  0.10429014311E+04  0.00000000000E+00 0. -1.
         24    2    1    2    0    0  0.38730402189E+02 -0.24701320215E+02 -0.76259427528E+03  0.76846435706E+03  0.82929127023E+02 0.  0.
        -11    1    3    3    0    0  0.64295340081E+02 -0.25133461889E+02 -0.53355696762E+03  0.53800429307E+03  0.00000000000E+00 0.  1.
         12    1    3    3    0    0 -0.25564937892E+02  0.43214167391E+00 -0.22903730765E+03  0.23046006399E+03  0.00000000000E+00 0. -1.
          1    1    1    2  501    0 -0.38730402189E+02  0.24701320215E+02 -0.27547015801E+03  0.27927407188E+03  0.00000000000E+00 0. -1.
<mgrwt>
<rscale>  1 0.94802106E+02</rscale>
<asrwt>0</asrwt>
<pdfrwt beam="1">  1       21 0.74415441E-03 0.94802106E+02</pdfrwt>
<pdfrwt beam="2">  1        2 0.16044618E+00 0.94802106E+02</pdfrwt>
<totfact> 0.17881641E+06</totfact>
</mgrwt>
</event>
<event>
 6    2  0.7993170E+000  0.1038987E+03  0.7546771E-02  0.1272305E+00
          2   -1    0    0  502    0 -0.00000000000E+00  0.00000000000E+00  0.66475717560E+02  0.66475717560E+02  0.00000000000E+00 0. -1.
         21   -1    0    0  501  502  0.00000000000E+00 -0.00000000000E+00 -0.55352234717E+03  0.55352234717E+03  0.00000000000E+00 0. -1.
         24    2    1    2    0    0 -0.48528006444E+01 -0.66396020608E+02  0.22345206221E+02  0.10627438060E+03  0.79768129625E+02 0.  0.
        -11    1    3    3    0    0 -0.62152037202E+01 -0.12948079320E+02 -0.28864770150E+02  0.32240602835E+02  0.00000000000E+00 0.  1.
         12    1    3    3    0    0  0.13624030758E+01 -0.53447941288E+02  0.51209976371E+02  0.74033777763E+02  0.00000000000E+00 0. -1.
          1    1    1    2  501    0  0.48528006444E+01  0.66396020608E+02 -0.50939183584E+03  0.51372368414E+03  0.00000000000E+00 0. -1.
<mgrwt>
<rscale>  1 0.10389868E+03</rscale>
<asrwt>0</asrwt>
<pdfrwt beam="1">  1       21 0.85157279E-01 0.10389868E+03</pdfrwt>
<pdfrwt beam="2">  1        2 0.10227034E-01 0.10389868E+03</pdfrwt>
<totfact> 0.91728432E+03</totfact>
</mgrwt>
</event>
<event>
 6    2  0.7993170E+000  0.1069045E+03  0.7546771E-02  0.1266412E+00
         21   -1    0    0  501  502  0.00000000000E+00  0.00000000000E+00  0.48954533189E+01  0.48954533189E+01  0.00000000000E+00 0.  1.
         -3   -1    0    0    0  501 -0.00000000000E+00 -0.00000000000E+00 -0.12776984430E+04  0.12776984430E+04  0.00000000000E+00 0.  1.
         24    2    1    2    0    0  0.33911040905E+02 -0.12970490693E+02 -0.11372243104E+04  0.11422380251E+04  0.10055039225E+03 0.  0.
        -13    1    3    3    0    0  0.65670157710E+02  0.11110292428E+02 -0.65989369729E+03  0.66324633428E+03  0.00000000000E+00 0.  1.
         14    1    3    3    0    0 -0.31759116805E+02 -0.24080783121E+02 -0.47733061313E+03  0.47899169079E+03  0.00000000000E+00 0. -1.
         -4    1    1    2    0  502 -0.33911040905E+02  0.12970490693E+02 -0.13557867928E+03  0.14035587127E+03  0.00000000000E+00 0.  1.
<mgrwt>
<rscale>  1 0.10690451E+03</rscale>
<asrwt>0</asrwt>
<pdfrwt beam="1">  1       21 0.75314740E-03 0.10690451E+03</pdfrwt>
<pdfrwt beam="2">  1       -3 0.19656880E+00 0.10690451E+03</pdfrwt>
<totfact> 0.46446218E+04</totfact>
</mgrwt>
</event>
<event>
 6    2  0.7993170E+000  0.7801093E+02  0.7546771E-02  0.1334793E+00
         21   -1    0    0  501  502  0.00000000000E+00  0.00000000000E+00  0.17599232004E+01  0.17599232004E+01  0.00000000000E+00 0. -1.
          2   -1    0    0  502    0 -0.00000000000E+00 -0.00000000000E+00 -0.14209460886E+04  0.14209460886E+04  0.00000000000E+00 0. -1.
         24    2    1    2    0    0  0.13495170381E+02 -0.16745498656E+02 -0.11669683859E+04  0.11695729645E+04  0.74987827070E+02 0.  0.
        -11    1    3    3    0    0 -0.82230713100E+01  0.25658149051E+02 -0.27022784184E+03  0.27156775585E+03  0.00000000000E+00 0.  1.
         12    1    3    3    0    0  0.21718241691E+02 -0.42403647706E+02 -0.89674054406E+03  0.89800520863E+03  0.00000000000E+00 0. -1.
          1    1    1    2  501    0 -0.13495170381E+02  0.16745498656E+02 -0.25221777945E+03  0.25313304727E+03  0.00000000000E+00 0. -1.
<mgrwt>
<rscale>  1 0.78010932E+02</rscale>
<asrwt>0</asrwt>
<pdfrwt beam="1">  1       21 0.27075830E-03 0.78010932E+02</pdfrwt>
<pdfrwt beam="2">  1        2 0.21860637E+00 0.78010932E+02</pdfrwt>
<totfact> 0.51349333E+06</totfact>
</mgrwt>
</event>
<event>
 6    2  0.7993170E+000  0.9400592E+02  0.7546771E-02  0.1293431E+00
         21   -1    0    0  501  502  0.00000000000E+00  0.00000000000E+00  0.93006701202E+01  0.93006701202E+01  0.00000000000E+00 0.  1.
         -3   -1    0    0    0  501 -0.00000000000E+00 -0.00000000000E+00 -0.74688827142E+03  0.74688827142E+03  0.00000000000E+00 0.  1.
         24    2    1    2    0    0  0.19692308987E+02 -0.44737046104E+02 -0.64182723387E+03  0.64867504338E+03  0.80298962873E+02 0.  0.
        -13    1    3    3    0    0  0.12648558117E+02 -0.23330445220E+02 -0.60443179709E+03  0.60501412630E+03  0.00000000000E+00 0.  1.
         14    1    3    3    0    0  0.70437508698E+01 -0.21406600884E+02 -0.37395436784E+02  0.43660917077E+02  0.00000000000E+00 0. -1.
         -4    1    1    2    0  502 -0.19692308987E+02  0.44737046104E+02 -0.95760367428E+02  0.10751389816E+03  0.00000000000E+00 0.  1.
<mgrwt>
<rscale>  1 0.94005924E+02</rscale>
<asrwt>0</asrwt>
<pdfrwt beam="1">  1       21 0.14308727E-02 0.94005924E+02</pdfrwt>
<pdfrwt beam="2">  1       -3 0.11490586E+00 0.94005924E+02</pdfrwt>
<totfact> 0.63492576E+04</totfact>
</mgrwt>
</event>
<event>
 6    2  0.7993170E+000  0.8648829E+02  0.7546771E-02  0.1311586E+00
         21   -1    0    0  501  502  0.00000000000E+00  0.00000000000E+00  0.15682506627E+02  0.15682506627E+02  0.00000000000E+00 0.  1.
          2   -1    0    0  502    0 -0.00000000000E+00 -0.00000000000E+00 -0.19801816804E+03  0.19801816804E+03  0.00000000000E+00 0. -1.
         24    2    1    2    0    0 -0.24754145132E+02 -0.89442391518E+00 -0.13631739916E+03  0.16143932991E+03  0.82865289667E+02 0.  0.
        -13    1    3    3    0    0 -0.44973248687E+01  0.38310835327E+02 -0.40402613731E+02  0.55859799773E+02  0.00000000000E+00 0.  1.
         14    1    3    3    0    0 -0.20256820264E+02 -0.39205259242E+02 -0.95914785427E+02  0.10557953013E+03  0.00000000000E+00 0. -1.
          1    1    1    2  501    0  0.24754145132E+02  0.89442391518E+00 -0.46018262255E+02  0.52261344762E+02  0.00000000000E+00 0. -1.
<mgrwt>
<rscale>  1 0.86488288E+02</rscale>
<asrwt>0</asrwt>
<pdfrwt beam="1">  1       21 0.24126932E-02 0.86488288E+02</pdfrwt>
<pdfrwt beam="2">  1        2 0.30464335E-01 0.86488288E+02</pdfrwt>
<totfact> 0.17680985E+06</totfact>
</mgrwt>
</event>
<event>
 6    2  0.7993170E+000  0.8606498E+02  0.7546771E-02  0.1312671E+00
          2   -1    0    0  502    0 -0.00000000000E+00  0.00000000000E+00  0.12229794185E+04  0.12229794185E+04  0.00000000000E+00 0. -1.
         21   -1    0    0  501  502  0.00000000000E+00 -0.00000000000E+00 -0.28958046617E+01  0.28958046617E+01  0.00000000000E+00 0. -1.
         24    2    1    2    0    0  0.24050750929E+02 -0.18494785680E+02  0.10023224919E+04  0.10060107150E+04  0.80539960427E+02 0.  0.
        -13    1    3    3    0    0 -0.21943928909E+02  0.50954164585E+01  0.11511253032E+03  0.11729618033E+03  0.00000000000E+00 0.  1.
         14    1    3    3    0    0  0.45994679838E+02 -0.23590202139E+02  0.88720996158E+03  0.88871453467E+03  0.00000000000E+00 0. -1.
          1    1    1    2  501    0 -0.24050750929E+02  0.18494785680E+02  0.21776112193E+03  0.21986450814E+03  0.00000000000E+00 0. -1.
<mgrwt>
<rscale>  1 0.86064981E+02</rscale>
<asrwt>0</asrwt>
<pdfrwt beam="1">  1       21 0.44550939E-03 0.86064981E+02</pdfrwt>
<pdfrwt beam="2">  1        2 0.18815027E+00 0.86064981E+02</pdfrwt>
<totfact> 0.30986037E+06</totfact>
</mgrwt>
</event>
<event>
 6    2  0.7993170E+000  0.8136924E+02  0.7546771E-02  0.1325210E+00
         21   -1    0    0  501  502  0.00000000000E+00  0.00000000000E+00  0.14987384410E+02  0.14987384410E+02  0.00000000000E+00 0.  1.
          2   -1    0    0  502    0 -0.00000000000E+00 -0.00000000000E+00 -0.19589333470E+03  0.19589333470E+03  0.00000000000E+00 0. -1.
         24    2    1    2    0    0 -0.20929607484E+02  0.32017837795E+01 -0.16635722913E+03  0.18519093172E+03  0.78566237141E+02 0.  0.
        -11    1    3    3    0    0 -0.22885125219E+02  0.19201797061E+02 -0.15840581948E+02  0.33813636349E+02  0.00000000000E+00 0.  1.
         12    1    3    3    0    0  0.19555177354E+01 -0.16000013282E+02 -0.15051664719E+03  0.15137729537E+03  0.00000000000E+00 0. -1.
          1    1    1    2  501    0  0.20929607484E+02 -0.32017837795E+01 -0.14548721160E+02  0.25689787391E+02  0.00000000000E+00 0. -1.
<mgrwt>
<rscale>  1 0.81369242E+02</rscale>
<asrwt>0</asrwt>
<pdfrwt beam="1">  1       21 0.23057516E-02 0.81369242E+02</pdfrwt>
<pdfrwt beam="2">  1        2 0.30137434E-01 0.81369242E+02</pdfrwt>
<totfact> 0.19089177E+06</totfact>
</mgrwt>
</event>
<event>
 6    2  0.7993170E+000  0.8597332E+02  0.7546771E-02  0.1312907E+00
         21   -1    0    0  501  502  0.00000000000E+00  0.00000000000E+00  0.79833481798E+01  0.79833481798E+01  0.00000000000E+00 0.  1.
          2   -1    0    0  502    0 -0.00000000000E+00 -0.00000000000E+00 -0.56002514366E+03  0.56002514366E+03  0.00000000000E+00 0. -1.
         24    2    1    2    0    0  0.17771749062E+02  0.26439977553E+02 -0.49725614325E+03  0.50463361378E+03  0.79853019277E+02 0.  0.
        -11    1    3    3    0    0  0.18173079080E+02  0.48653456966E+02 -0.44256538830E+03  0.44560244905E+03  0.00000000000E+00 0.  1.
         12    1    3    3    0    0 -0.40133001822E+00 -0.22213479413E+02 -0.54690754949E+02  0.59031164737E+02  0.00000000000E+00 0. -1.
          1    1    1    2  501    0 -0.17771749062E+02 -0.26439977553E+02 -0.54785652232E+02  0.63374878053E+02  0.00000000000E+00 0. -1.
<mgrwt>
<rscale>  1 0.85973322E+02</rscale>
<asrwt>0</asrwt>
<pdfrwt beam="1">  1       21 0.12282074E-02 0.85973322E+02</pdfrwt>
<pdfrwt beam="2">  1        2 0.86157713E-01 0.85973322E+02</pdfrwt>
<totfact> 0.17233858E+06</totfact>
</mgrwt>
</event>
<event>
 6    2  0.7993170E+000  0.8461562E+02  0.7546771E-02  0.1316441E+00
         -1   -1    0    0    0  501 -0.00000000000E+00  0.00000000000E+00  0.19063080557E+03  0.19063080557E+03  0.00000000000E+00 0.  1.
         21   -1    0    0  501  502  0.00000000000E+00 -0.00000000000E+00 -0.46845646946E+02  0.46845646946E+02  0.00000000000E+00 0. -1.
         24    2    1    2    0    0 -0.23862993922E+02  0.92840639397E+01  0.17661710563E+03  0.19584025352E+03  0.80648413362E+02 0.  0.
        -11    1    3    3    0    0 -0.18459920569E+02  0.29524502812E+02  0.17049563290E+03  0.17401501594E+03  0.00000000000E+00 0.  1.
         12    1    3    3    0    0 -0.54030733532E+01 -0.20240438872E+02  0.61214727286E+01  0.21825237587E+02  0.00000000000E+00 0. -1.
         -2    1    1    2    0  502  0.23862993922E+02 -0.92840639397E+01 -0.32831947006E+02  0.41636198990E+02  0.00000000000E+00 0.  1.
<mgrwt>
<rscale>  1 0.84615619E+02</rscale>
<asrwt>0</asrwt>
<pdfrwt beam="1">  1       21 0.72070227E-02 0.84615619E+02</pdfrwt>
<pdfrwt beam="2">  1       -1 0.29327816E-01 0.84615619E+02</pdfrwt>
<totfact> 0.13306957E+05</totfact>
</mgrwt>
</event>
<event>
 6    2  0.7993170E+000  0.9580224E+02  0.7546771E-02  0.1289379E+00
          2   -1    0    0  502    0 -0.00000000000E+00  0.00000000000E+00  0.21915690646E+04  0.21915690646E+04  0.00000000000E+00 0. -1.
         21   -1    0    0  501  502  0.00000000000E+00 -0.00000000000E+00 -0.20461116578E+01  0.20461116578E+01  0.00000000000E+00 0. -1.
         24    2    1    2    0    0 -0.61002297522E+01 -0.22505419847E+02  0.20433055797E+04  0.20455502345E+04  0.92921274781E+02 0.  0.
        -13    1    3    3    0    0 -0.34326654631E+02 -0.15541978284E+02  0.35497456904E+03  0.35696892998E+03  0.00000000000E+00 0.  1.
         14    1    3    3    0    0  0.28226424879E+02 -0.69634415625E+01  0.16883310106E+04  0.16885813045E+04  0.00000000000E+00 0. -1.
          1    1    1    2  501    0  0.61002297522E+01  0.22505419847E+02  0.14621737332E+03  0.14806494178E+03  0.00000000000E+00 0. -1.
<mgrwt>
<rscale>  1 0.95802244E+02</rscale>
<asrwt>0</asrwt>
<pdfrwt beam="1">  1       21 0.31478816E-03 0.95802244E+02</pdfrwt>
<pdfrwt beam="2">  1        2 0.33716259E+00 0.95802244E+02</pdfrwt>
<totfact> 0.17011505E+06</totfact>
</mgrwt>
</event>
<event>
 6    2  0.7993170E+000  0.9442712E+02  0.7546771E-02  0.1292472E+00
         21   -1    0    0  501  502  0.00000000000E+00  0.00000000000E+00  0.56705221906E+02  0.56705221906E+02  0.00000000000E+00 0. -1.
         -1   -1    0    0    0  501 -0.00000000000E+00 -0.00000000000E+00 -0.10338065722E+03  0.10338065722E+03  0.00000000000E+00 0.  1.
         24    2    1    2    0    0  0.38309427989E+02 -0.36952017171E+02 -0.89594055477E+01  0.94851204701E+02  0.77996257856E+02 0.  0.
        -13    1    3    3    0    0  0.22633811821E+01 -0.37678362233E+02 -0.34123742999E+02  0.50884297294E+02  0.00000000000E+00 0.  1.
         14    1    3    3    0    0  0.36046046807E+02  0.72634506139E+00  0.25164337451E+02  0.43966907407E+02  0.00000000000E+00 0. -1.
         -2    1    1    2    0  502 -0.38309427989E+02  0.36952017171E+02 -0.37716029764E+02  0.65234674423E+02  0.00000000000E+00 0.  1.
<mgrwt>
<rscale>  1 0.94427115E+02</rscale>
<asrwt>0</asrwt>
<pdfrwt beam="1">  1       21 0.87238803E-02 0.94427115E+02</pdfrwt>
<pdfrwt beam="2">  1       -1 0.15904716E-01 0.94427115E+02</pdfrwt>
<totfact> 0.25826077E+05</totfact>
</mgrwt>
</event>
<event>
 6    2  0.7993170E+000  0.8192061E+02  0.7546771E-02  0.1323688E+00
         21   -1    0    0  501  502  0.00000000000E+00  0.00000000000E+00  0.10702460568E+02  0.10702460568E+02  0.00000000000E+00 0. -1.
          2   -1    0    0  502    0 -0.00000000000E+00 -0.00000000000E+00 -0.55314637446E+03  0.55314637446E+03  0.00000000000E+00 0. -1.
         24    2    1    2    0    0  0.13179543558E+02  0.15917076164E+02 -0.53596822271E+03  0.54219269829E+03  0.79271259880E+02 0.  0.
        -13    1    3    3    0    0 -0.14243615652E+02  0.56717032809E+01 -0.19081274180E+02  0.24477414677E+02  0.00000000000E+00 0.  1.
         14    1    3    3    0    0  0.27423159210E+02  0.10245372883E+02 -0.51688694853E+03  0.51771528361E+03  0.00000000000E+00 0. -1.
          1    1    1    2  501    0 -0.13179543558E+02 -0.15917076164E+02 -0.64756911804E+01  0.21656136735E+02  0.00000000000E+00 0. -1.
<mgrwt>
<rscale>  1 0.81920610E+02</rscale>
<asrwt>0</asrwt>
<pdfrwt beam="1">  1       21 0.16465325E-02 0.81920610E+02</pdfrwt>
<pdfrwt beam="2">  1        2 0.85099436E-01 0.81920610E+02</pdfrwt>
<totfact> 0.10944986E+06</totfact>
</mgrwt>
</event>
<event>
 6    2  0.7993170E+000  0.9275083E+02  0.7546771E-02  0.1296324E+00
         21   -1    0    0  501  502  0.00000000000E+00  0.00000000000E+00  0.30287825320E+02  0.30287825320E+02  0.00000000000E+00 0.  1.
         -1   -1    0    0    0  501 -0.00000000000E+00 -0.00000000000E+00 -0.54370658616E+03  0.54370658616E+03  0.00000000000E+00 0.  1.
         24    2    1    2    0    0 -0.41107534138E+02  0.90631528153E+01 -0.52271937751E+03  0.53088441761E+03  0.82648334114E+02 0.  0.
        -13    1    3    3    0    0 -0.65431968894E+02 -0.21850928119E+01 -0.39435041039E+03  0.39974787474E+03  0.00000000000E+00 0.  1.
         14    1    3    3    0    0  0.24324434755E+02  0.11248245627E+02 -0.12836896711E+03  0.13113654286E+03  0.00000000000E+00 0. -1.
         -2    1    1    2    0  502  0.41107534138E+02 -0.90631528153E+01  0.93006166647E+01  0.43109993879E+02  0.00000000000E+00 0.  1.
<mgrwt>
<rscale>  1 0.92750834E+02</rscale>
<asrwt>0</asrwt>
<pdfrwt beam="1">  1       21 0.46596653E-02 0.92750834E+02</pdfrwt>
<pdfrwt beam="2">  1       -1 0.83647169E-01 0.92750834E+02</pdfrwt>
<totfact> 0.41295986E+04</totfact>
</mgrwt>
</event>
<event>
 6    2  0.7993170E+000  0.8796808E+02  0.7546771E-02  0.1307848E+00
          2   -1    0    0  502    0 -0.00000000000E+00  0.00000000000E+00  0.10194159453E+04  0.10194159453E+04  0.00000000000E+00 0. -1.
         21   -1    0    0  501  502  0.00000000000E+00 -0.00000000000E+00 -0.34729739714E+01  0.34729739714E+01  0.00000000000E+00 0.  1.
         24    2    1    2    0    0 -0.20682278596E+02  0.21895225481E+02  0.69767238729E+03  0.70319637602E+03  0.82651229349E+02 0.  0.
        -13    1    3    3    0    0 -0.27650244650E+02  0.46029625720E+02  0.30267820226E+03  0.30740422345E+03  0.00000000000E+00 0.  1.
         14    1    3    3    0    0  0.69679660541E+01 -0.24134400239E+02  0.39499418503E+03  0.39579215257E+03  0.00000000000E+00 0. -1.
          1    1    1    2  501    0  0.20682278596E+02 -0.21895225481E+02  0.31827058403E+03  0.31969254324E+03  0.00000000000E+00 0. -1.
<mgrwt>
<rscale>  1 0.87968081E+02</rscale>
<asrwt>0</asrwt>
<pdfrwt beam="1">  1       21 0.53430450E-03 0.87968081E+02</pdfrwt>
<pdfrwt beam="2">  1        2 0.15683298E+00 0.87968081E+02</pdfrwt>
<totfact> 0.30532130E+06</totfact>
</mgrwt>
</event>
<event>
 6    2  0.7993170E+000  0.9645371E+02  0.7546771E-02  0.1287935E+00
         21   -1    0    0  501  502  0.00000000000E+00  0.00000000000E+00  0.10205408533E+02  0.10205408533E+02  0.00000000000E+00 0. -1.
          2   -1    0    0  502    0 -0.00000000000E+00 -0.00000000000E+00 -0.59681136198E+03  0.59681136198E+03  0.00000000000E+00 0. -1.
         24    2    1    2    0    0 -0.53429834416E+02 -0.96672238308E+01 -0.44556060980E+03  0.45588109840E+03  0.79718984221E+02 0.  0.
        -13    1    3    3    0    0  0.10569856288E+02 -0.17768180136E+02 -0.38123318860E+02  0.43368393193E+02  0.00000000000E+00 0.  1.
         14    1    3    3    0    0 -0.63999690704E+02  0.81009563050E+01 -0.40743729094E+03  0.41251270520E+03  0.00000000000E+00 0. -1.
          1    1    1    2  501    0  0.53429834416E+02  0.96672238308E+01 -0.14104534364E+03  0.15113567212E+03  0.00000000000E+00 0. -1.
<mgrwt>
<rscale>  1 0.96453714E+02</rscale>
<asrwt>0</asrwt>
<pdfrwt beam="1">  1       21 0.15700625E-02 0.96453714E+02</pdfrwt>
<pdfrwt beam="2">  1        2 0.91817155E-01 0.96453714E+02</pdfrwt>
<totfact> 0.11021887E+06</totfact>
</mgrwt>
</event>
<event>
 6    2  0.7993170E+000  0.8554091E+02  0.7546771E-02  0.1314024E+00
         21   -1    0    0  501  502  0.00000000000E+00  0.00000000000E+00  0.24090082971E+01  0.24090082971E+01  0.00000000000E+00 0. -1.
          4   -1    0    0  502    0 -0.00000000000E+00 -0.00000000000E+00 -0.13925309101E+04  0.13925309101E+04  0.00000000000E+00 0. -1.
         24    2    1    2    0    0 -0.94401334429E+01 -0.18428335541E+02 -0.82158961767E+03  0.82603071846E+03  0.82997158435E+02 0.  0.
        -11    1    3    3    0    0 -0.39600768248E+02  0.62760525827E+01 -0.25828512752E+03  0.26137868463E+03  0.00000000000E+00 0.  1.
         12    1    3    3    0    0  0.30160634806E+02 -0.24704388124E+02 -0.56330449015E+03  0.56465203383E+03  0.00000000000E+00 0. -1.
          3    1    1    2  501    0  0.94401334429E+01  0.18428335541E+02 -0.56853228410E+03  0.56890919991E+03  0.00000000000E+00 0. -1.
<mgrwt>
<rscale>  1 0.85540914E+02</rscale>
<asrwt>0</asrwt>
<pdfrwt beam="1">  1       21 0.37061615E-03 0.85540914E+02</pdfrwt>
<pdfrwt beam="2">  1        4 0.21423582E+00 0.85540914E+02</pdfrwt>
<totfact> 0.80073362E+04</totfact>
</mgrwt>
</event>
<event>
 6    2  0.7993170E+000  0.8444391E+02  0.7546771E-02  0.1316893E+00
          4   -1    0    0  502    0 -0.00000000000E+00  0.00000000000E+00  0.27294312138E+03  0.27294312138E+03  0.00000000000E+00 0. -1.
         21   -1    0    0  501  502  0.00000000000E+00 -0.00000000000E+00 -0.29831083678E+02  0.29831083678E+02  0.00000000000E+00 0. -1.
         24    2    1    2    0    0  0.16355322913E+02  0.13904120069E+02  0.26132026719E+03  0.27462530165E+03  0.81669780967E+02 0.  0.
        -11    1    3    3    0    0  0.13245848943E+02 -0.17563345685E+02  0.15817632948E+02  0.27094669917E+02  0.00000000000E+00 0.  1.
         12    1    3    3    0    0  0.31094739697E+01  0.31467465754E+02  0.24550263424E+03  0.24753063173E+03  0.00000000000E+00 0. -1.
          3    1    1    2  501    0 -0.16355322913E+02 -0.13904120069E+02 -0.18208229479E+02  0.28148903411E+02  0.00000000000E+00 0. -1.
<mgrwt>
<rscale>  1 0.84443912E+02</rscale>
<asrwt>0</asrwt>
<pdfrwt beam="1">  1       21 0.45893977E-02 0.84443912E+02</pdfrwt>
<pdfrwt beam="2">  1        4 0.41991248E-01 0.84443912E+02</pdfrwt>
<totfact> 0.64475602E+04</totfact>
</mgrwt>
</event>
<event>
 6    2  0.7993170E+000  0.8321692E+02  0.7546771E-02  0.1320162E+00
         -1   -1    0    0    0  501 -0.00000000000E+00  0.00000000000E+00  0.89822601449E+01  0.89822601449E+01  0.00000000000E+00 0.  1.
         21   -1    0    0  501  502  0.00000000000E+00 -0.00000000000E+00 -0.11975126399E+04  0.11975126399E+04  0.00000000000E+00 0. -1.
         24    2    1    2    0    0 -0.22393719707E+02  0.31119966842E+01 -0.18666397900E+03  0.20437342628E+03  0.80086784866E+02 0.  0.
        -13    1    3    3    0    0 -0.17740829774E+02  0.12861095042E+02 -0.51123325715E+01  0.22500683347E+02  0.00000000000E+00 0.  1.
         14    1    3    3    0    0 -0.46528899328E+01 -0.97490983580E+01 -0.18155164643E+03  0.18187274294E+03  0.00000000000E+00 0. -1.
         -2    1    1    2    0  502  0.22393719707E+02 -0.31119966842E+01 -0.10018664008E+04  0.10021214738E+04  0.00000000000E+00 0.  1.
<mgrwt>
<rscale>  1 0.83216923E+02</rscale>
<asrwt>0</asrwt>
<pdfrwt beam="1">  1       21 0.18423270E+00 0.83216923E+02</pdfrwt>
<pdfrwt beam="2">  1       -1 0.13818863E-02 0.83216923E+02</pdfrwt>
<totfact> 0.17801958E+04</totfact>
</mgrwt>
</event>
<event>
 6    2  0.7993170E+000  0.8641910E+02  0.7546771E-02  0.1311763E+00
         21   -1    0    0  501  502  0.00000000000E+00  0.00000000000E+00  0.21666743507E+02  0.21666743507E+02  0.00000000000E+00 0. -1.
          2   -1    0    0  502    0 -0.00000000000E+00 -0.00000000000E+00 -0.22994689102E+03  0.22994689102E+03  0.00000000000E+00 0. -1.
         24    2    1    2    0    0 -0.32063020522E+02  0.99136899616E+01 -0.19875130775E+03  0.21672642597E+03  0.79636316137E+02 0.  0.
        -11    1    3    3    0    0 -0.18575140260E+02  0.13791498794E+00 -0.13512262360E+01  0.18624732711E+02  0.00000000000E+00 0.  1.
         12    1    3    3    0    0 -0.13487880261E+02  0.97757749736E+01 -0.19740008151E+03  0.19810169326E+03  0.00000000000E+00 0. -1.
          1    1    1    2  501    0  0.32063020522E+02 -0.99136899616E+01 -0.95288397630E+01  0.34887208556E+02  0.00000000000E+00 0. -1.
<mgrwt>
<rscale>  1 0.86419103E+02</rscale>
<asrwt>0</asrwt>
<pdfrwt beam="1">  1       21 0.33333451E-02 0.86419103E+02</pdfrwt>
<pdfrwt beam="2">  1        2 0.35376445E-01 0.86419103E+02</pdfrwt>
<totfact> 0.89378834E+05</totfact>
</mgrwt>
</event>
<event>
 6    2  0.7993170E+000  0.9821012E+02  0.7546771E-02  0.1284105E+00
         21   -1    0    0  501  502  0.00000000000E+00  0.00000000000E+00  0.20318860518E+03  0.20318860518E+03  0.00000000000E+00 0.  1.
          2   -1    0    0  502    0 -0.00000000000E+00 -0.00000000000E+00 -0.20703018055E+02  0.20703018055E+02  0.00000000000E+00 0. -1.
         24    2    1    2    0    0  0.83133765899E+01  0.27866982859E+02  0.15719366241E+03  0.18535122339E+03  0.93805903592E+02 0.  0.
        -11    1    3    3    0    0 -0.27619143707E+02 -0.59106307297E+01  0.12080611337E+03  0.12406397415E+03  0.00000000000E+00 0.  1.
         12    1    3    3    0    0  0.35932520297E+02  0.33777613589E+02  0.36387549032E+02  0.61287249238E+02  0.00000000000E+00 0. -1.
          1    1    1    2  501    0 -0.83133765899E+01 -0.27866982859E+02  0.25291924723E+02  0.38540399844E+02  0.00000000000E+00 0. -1.
<mgrwt>
<rscale>  1 0.98210124E+02</rscale>
<asrwt>0</asrwt>
<pdfrwt beam="1">  1       21 0.31259784E-01 0.98210124E+02</pdfrwt>
<pdfrwt beam="2">  1        2 0.31850798E-02 0.98210124E+02</pdfrwt>
<totfact> 0.32272777E+05</totfact>
</mgrwt>
</event>
<event>
 6    2  0.7993170E+000  0.1079140E+03  0.7546771E-02  0.1264482E+00
          2   -1    0    0  502    0 -0.00000000000E+00  0.00000000000E+00  0.22729691205E+04  0.22729691205E+04  0.00000000000E+00 0. -1.
         21   -1    0    0  501  502  0.00000000000E+00 -0.00000000000E+00 -0.36053662411E+01  0.36053662411E+01  0.00000000000E+00 0. -1.
         24    2    1    2    0    0 -0.71233423714E+02 -0.10633563933E+02  0.14818354039E+04  0.14857596057E+04  0.80362731227E+02 0.  0.
        -11    1    3    3    0    0 -0.33770732871E+02 -0.14653611406E+02  0.19932966598E+03  0.20270053396E+03  0.00000000000E+00 0.  1.
         12    1    3    3    0    0 -0.37462690843E+02  0.40200474728E+01  0.12825057379E+04  0.12830590718E+04  0.00000000000E+00 0. -1.
          1    1    1    2  501    0  0.71233423714E+02  0.10633563933E+02  0.78752835041E+03  0.79081488102E+03  0.00000000000E+00 0. -1.
<mgrwt>
<rscale>  1 0.10791405E+03</rscale>
<asrwt>0</asrwt>
<pdfrwt beam="1">  1       21 0.55467354E-03 0.10791405E+03</pdfrwt>
<pdfrwt beam="2">  1        2 0.34968641E+00 0.10791405E+03</pdfrwt>
<totfact> 0.65271151E+05</totfact>
</mgrwt>
</event>
<event>
 6    2  0.7993170E+000  0.8603495E+02  0.7546771E-02  0.1312748E+00
          4   -1    0    0  502    0 -0.00000000000E+00  0.00000000000E+00  0.12188514098E+03  0.12188514098E+03  0.00000000000E+00 0. -1.
         21   -1    0    0  501  502  0.00000000000E+00 -0.00000000000E+00 -0.54462566249E+02  0.54462566249E+02  0.00000000000E+00 0. -1.
         24    2    1    2    0    0  0.19705947208E+02 -0.12054525897E+02  0.10282768821E+03  0.13407291556E+03  0.82875673587E+02 0.  0.
        -11    1    3    3    0    0 -0.19391605140E+01  0.12010543808E+02 -0.10588514270E+02  0.16128550478E+02  0.00000000000E+00 0.  1.
         12    1    3    3    0    0  0.21645107722E+02 -0.24065069705E+02  0.11341620248E+03  0.11794436508E+03  0.00000000000E+00 0. -1.
          3    1    1    2  501    0 -0.19705947208E+02  0.12054525897E+02 -0.35405113484E+02  0.42274791671E+02  0.00000000000E+00 0. -1.
<mgrwt>
<rscale>  1 0.86034953E+02</rscale>
<asrwt>0</asrwt>
<pdfrwt beam="1">  1       21 0.83788564E-02 0.86034953E+02</pdfrwt>
<pdfrwt beam="2">  1        4 0.18751560E-01 0.86034953E+02</pdfrwt>
<totfact> 0.10512140E+05</totfact>
</mgrwt>
</event>
<event>
 6    2  0.7993170E+000  0.1178664E+03  0.7546771E-02  0.1246659E+00
          2   -1    0    0  502    0 -0.00000000000E+00  0.00000000000E+00  0.17678426305E+03  0.17678426305E+03  0.00000000000E+00 0. -1.
         21   -1    0    0  501  502  0.00000000000E+00 -0.00000000000E+00 -0.76152457053E+02  0.76152457053E+02  0.00000000000E+00 0.  1.
         24    2    1    2    0    0 -0.46579548903E+02 -0.30587594564E+02  0.14125884033E+03  0.18397433008E+03  0.10386163315E+03 0.  0.
        -13    1    3    3    0    0 -0.48631061005E+02 -0.61516218593E+02  0.65690700787E+02  0.10229610655E+03  0.00000000000E+00 0.  1.
         14    1    3    3    0    0  0.20515121014E+01  0.30928624029E+02  0.75568139545E+02  0.81678223539E+02  0.00000000000E+00 0. -1.
          1    1    1    2  501    0  0.46579548903E+02  0.30587594564E+02 -0.40627034339E+02  0.68962390014E+02  0.00000000000E+00 0. -1.
<mgrwt>
<rscale>  1 0.11786643E+03</rscale>
<asrwt>0</asrwt>
<pdfrwt beam="1">  1       21 0.11715763E-01 0.11786643E+03</pdfrwt>
<pdfrwt beam="2">  1        2 0.27197579E-01 0.11786643E+03</pdfrwt>
<totfact> 0.14456724E+05</totfact>
</mgrwt>
</event>
<event>
 6    2  0.7993170E+000  0.8369850E+02  0.7546771E-02  0.1318872E+00
          2   -1    0    0  502    0 -0.00000000000E+00  0.00000000000E+00  0.43341519447E+03  0.43341519447E+03  0.00000000000E+00 0. -1.
         21   -1    0    0  501  502  0.00000000000E+00 -0.00000000000E+00 -0.74421107752E+01  0.74421107752E+01  0.00000000000E+00 0.  1.
         24    2    1    2    0    0  0.17326187438E+02 -0.13193968888E+02  0.25222445032E+03  0.26574915242E+03  0.80815599278E+02 0.  0.
        -11    1    3    3    0    0  0.21996032463E+02 -0.28118017061E+02  0.42766862279E+02  0.55708642388E+02  0.00000000000E+00 0.  1.
         12    1    3    3    0    0 -0.46698450255E+01  0.14924048173E+02  0.20945758804E+03  0.21004051003E+03  0.00000000000E+00 0. -1.
          1    1    1    2  501    0 -0.17326187438E+02  0.13193968888E+02  0.17374863337E+03  0.17510815282E+03  0.00000000000E+00 0. -1.
<mgrwt>
<rscale>  1 0.83698499E+02</rscale>
<asrwt>0</asrwt>
<pdfrwt beam="1">  1       21 0.11449405E-02 0.83698499E+02</pdfrwt>
<pdfrwt beam="2">  1        2 0.66679241E-01 0.83698499E+02</pdfrwt>
<totfact> 0.25271610E+06</totfact>
</mgrwt>
</event>
<event>
 6    2  0.7993170E+000  0.9603678E+02  0.7546771E-02  0.1288858E+00
         -3   -1    0    0    0  501 -0.00000000000E+00  0.00000000000E+00  0.73494604815E+03  0.73494604815E+03  0.00000000000E+00 0.  1.
         21   -1    0    0  501  502  0.00000000000E+00 -0.00000000000E+00 -0.73998193905E+01  0.73998193905E+01  0.00000000000E+00 0. -1.
         24    2    1    2    0    0 -0.40333736602E+02 -0.31899474913E+02  0.46646515479E+03  0.47624867855E+03  0.81109040011E+02 0.  0.
        -11    1    3    3    0    0  0.16395195629E+02 -0.97481214688E+01  0.26732071787E+03  0.26800036290E+03  0.00000000000E+00 0.  1.
         12    1    3    3    0    0 -0.56728932231E+02 -0.22151353444E+02  0.19914443692E+03  0.20824831564E+03  0.00000000000E+00 0. -1.
         -4    1    1    2    0  502  0.40333736602E+02  0.31899474913E+02  0.26108107397E+03  0.26609718900E+03  0.00000000000E+00 0.  1.
<mgrwt>
<rscale>  1 0.96036780E+02</rscale>
<asrwt>0</asrwt>
<pdfrwt beam="1">  1       21 0.11384343E-02 0.96036780E+02</pdfrwt>
<pdfrwt beam="2">  1       -3 0.11306856E+00 0.96036780E+02</pdfrwt>
<totfact> 0.94763189E+04</totfact>
</mgrwt>
</event>
<event>
 6    2  0.7993170E+000  0.7445931E+02  0.7546771E-02  0.1345554E+00
         21   -1    0    0  501  502  0.00000000000E+00  0.00000000000E+00  0.48601913963E+02  0.48601913963E+02  0.00000000000E+00 0. -1.
          2   -1    0    0  502    0 -0.00000000000E+00 -0.00000000000E+00 -0.12046688994E+03  0.12046688994E+03  0.00000000000E+00 0. -1.
         24    2    1    2    0    0  0.31051367717E+02 -0.20923830720E+02 -0.98239772514E+02  0.12326897834E+03  0.64359878712E+02 0.  0.
        -11    1    3    3    0    0  0.50456515597E+02 -0.97805521969E+01 -0.75776815844E+02  0.91562246516E+02  0.00000000000E+00 0.  1.
         12    1    3    3    0    0 -0.19405147880E+02 -0.11143278524E+02 -0.22462956670E+02  0.31706731822E+02  0.00000000000E+00 0. -1.
          1    1    1    2  501    0 -0.31051367717E+02  0.20923830720E+02  0.26374796539E+02  0.45799825563E+02  0.00000000000E+00 0. -1.
<mgrwt>
<rscale>  1 0.74459305E+02</rscale>
<asrwt>0</asrwt>
<pdfrwt beam="1">  1       21 0.74772177E-02 0.74459305E+02</pdfrwt>
<pdfrwt beam="2">  1        2 0.18533367E-01 0.74459305E+02</pdfrwt>
<totfact> 0.46405076E+05</totfact>
</mgrwt>
</event>
<event>
 6    2  0.7993170E+000  0.8347670E+02  0.7546771E-02  0.1319465E+00
          2   -1    0    0  502    0 -0.00000000000E+00  0.00000000000E+00  0.31999978131E+03  0.31999978131E+03  0.00000000000E+00 0. -1.
         21   -1    0    0  501  502  0.00000000000E+00 -0.00000000000E+00 -0.15809200041E+02  0.15809200041E+02  0.00000000000E+00 0. -1.
         24    2    1    2    0    0  0.20577872161E+02  0.38694589595E+01  0.30359464629E+03  0.31486198457E+03  0.80808035111E+02 0.  0.
        -13    1    3    3    0    0  0.25077985761E+01  0.21952916595E+02  0.19058004790E+02  0.29179224584E+02  0.00000000000E+00 0.  1.
         14    1    3    3    0    0  0.18070073585E+02 -0.18083457636E+02  0.28453664150E+03  0.28568275999E+03  0.00000000000E+00 0. -1.
          1    1    1    2  501    0 -0.20577872161E+02 -0.38694589595E+01  0.59593497549E+00  0.20946996773E+02  0.00000000000E+00 0. -1.
<mgrwt>
<rscale>  1 0.83476704E+02</rscale>
<asrwt>0</asrwt>
<pdfrwt beam="1">  1       21 0.24321849E-02 0.83476704E+02</pdfrwt>
<pdfrwt beam="2">  1        2 0.49230731E-01 0.83476704E+02</pdfrwt>
<totfact> 0.10501468E+06</totfact>
</mgrwt>
</event>
<event>
 6    2  0.7993170E+000  0.9303306E+02  0.7546771E-02  0.1295669E+00
          2   -1    0    0  502    0 -0.00000000000E+00  0.00000000000E+00  0.75809557835E+03  0.75809557835E+03  0.00000000000E+00 0. -1.
         21   -1    0    0  501  502  0.00000000000E+00 -0.00000000000E+00 -0.19786749646E+02  0.19786749646E+02  0.00000000000E+00 0. -1.
         24    2    1    2    0    0 -0.29584612838E+02 -0.30126341345E+02  0.72865357809E+03  0.73456870861E+03  0.82899367012E+02 0.  0.
        -13    1    3    3    0    0 -0.31112808430E+02  0.54516468377E+01  0.99175178218E+02  0.10408382812E+03  0.00000000000E+00 0.  1.
         14    1    3    3    0    0  0.15281955918E+01 -0.35577988183E+02  0.62947839987E+03  0.63048488049E+03  0.00000000000E+00 0. -1.
          1    1    1    2  501    0  0.29584612838E+02  0.30126341345E+02  0.96552506141E+01  0.43313619383E+02  0.00000000000E+00 0. -1.
<mgrwt>
<rscale>  1 0.93033063E+02</rscale>
<asrwt>0</asrwt>
<pdfrwt beam="1">  1       21 0.30441159E-02 0.93033063E+02</pdfrwt>
<pdfrwt beam="2">  1        2 0.11663007E+00 0.93033063E+02</pdfrwt>
<totfact> 0.28759771E+05</totfact>
</mgrwt>
</event>
<event>
 6    2  0.7993170E+000  0.8698208E+02  0.7546771E-02  0.1310329E+00
          2   -1    0    0  502    0 -0.00000000000E+00  0.00000000000E+00  0.99624010938E+03  0.99624010938E+03  0.00000000000E+00 0. -1.
         21   -1    0    0  501  502  0.00000000000E+00 -0.00000000000E+00 -0.36641160304E+01  0.36641160304E+01  0.00000000000E+00 0. -1.
         24    2    1    2    0    0  0.32367257350E+02 -0.68373168706E+01  0.76676251589E+03  0.77168039919E+03  0.80445599483E+02 0.  0.
        -13    1    3    3    0    0 -0.15600478541E+02  0.11158673429E+01  0.35373151179E+02  0.38676606818E+02  0.00000000000E+00 0.  1.
         14    1    3    3    0    0  0.47967735891E+02 -0.79531842136E+01  0.73138936471E+03  0.73300379237E+03  0.00000000000E+00 0. -1.
          1    1    1    2  501    0 -0.32367257350E+02  0.68373168706E+01  0.22581347746E+03  0.22822382621E+03  0.00000000000E+00 0. -1.
<mgrwt>
<rscale>  1 0.86982083E+02</rscale>
<asrwt>0</asrwt>
<pdfrwt beam="1">  1       21 0.56371095E-03 0.86982083E+02</pdfrwt>
<pdfrwt beam="2">  1        2 0.15326749E+00 0.86982083E+02</pdfrwt>
<totfact> 0.28975506E+06</totfact>
</mgrwt>
</event>
<event>
 6    2  0.7993170E+000  0.8607968E+02  0.7546771E-02  0.1312633E+00
          2   -1    0    0  502    0 -0.00000000000E+00  0.00000000000E+00  0.14707528918E+04  0.14707528918E+04  0.00000000000E+00 0. -1.
         21   -1    0    0  501  502  0.00000000000E+00 -0.00000000000E+00 -0.24379916884E+01  0.24379916884E+01  0.00000000000E+00 0.  1.
         24    2    1    2    0    0 -0.31524787787E+02 -0.87836759852E+01  0.11417695127E+04  0.11450097518E+04  0.79616243283E+02 0.  0.
        -13    1    3    3    0    0 -0.29858362562E+02  0.31410676088E+02  0.45366189189E+03  0.45572718214E+03  0.00000000000E+00 0.  1.
         14    1    3    3    0    0 -0.16664252257E+01 -0.40194352073E+02  0.68810762085E+03  0.68928256962E+03  0.00000000000E+00 0. -1.
          1    1    1    2  501    0  0.31524787787E+02  0.87836759852E+01  0.32654538740E+03  0.32818113176E+03  0.00000000000E+00 0. -1.
<mgrwt>
<rscale>  1 0.86079681E+02</rscale>
<asrwt>0</asrwt>
<pdfrwt beam="1">  1       21 0.37507682E-03 0.86079681E+02</pdfrwt>
<pdfrwt beam="2">  1        2 0.22626897E+00 0.86079681E+02</pdfrwt>
<totfact> 0.29879468E+06</totfact>
</mgrwt>
</event>
<event>
 6    2  0.7993170E+000  0.1142253E+03  0.7546771E-02  0.1252940E+00
         21   -1    0    0  501  502  0.00000000000E+00  0.00000000000E+00  0.20600496116E+03  0.20600496116E+03  0.00000000000E+00 0. -1.
         -1   -1    0    0    0  501 -0.00000000000E+00 -0.00000000000E+00 -0.45757108098E+02  0.45757108098E+02  0.00000000000E+00 0.  1.
         24    2    1    2    0    0  0.79542485150E+02  0.68298169331E+01  0.98600967705E+02  0.15089586175E+03  0.81693065293E+02 0.  0.
        -11    1    3    3    0    0  0.32562597825E+02  0.90649088655E+00 -0.86097106198E+01  0.33693792007E+02  0.00000000000E+00 0.  1.
         12    1    3    3    0    0  0.46979887325E+02  0.59233260466E+01  0.10721067832E+03  0.11720206974E+03  0.00000000000E+00 0. -1.
         -2    1    1    2    0  502 -0.79542485150E+02 -0.68298169331E+01  0.61646885358E+02  0.10086620751E+03  0.00000000000E+00 0.  1.
<mgrwt>
<rscale>  1 0.11422526E+03</rscale>
<asrwt>0</asrwt>
<pdfrwt beam="1">  1       21 0.31693070E-01 0.11422526E+03</pdfrwt>
<pdfrwt beam="2">  1       -1 0.70395552E-02 0.11422526E+03</pdfrwt>
<totfact> 0.87157794E+04</totfact>
</mgrwt>
</event>
<event>
 6    2  0.7993170E+000  0.1021775E+03  0.7546771E-02  0.1275782E+00
         21   -1    0    0  501  502  0.00000000000E+00  0.00000000000E+00  0.61494654321E+01  0.61494654321E+01  0.00000000000E+00 0. -1.
          2   -1    0    0  502    0 -0.00000000000E+00 -0.00000000000E+00 -0.11174881373E+04  0.11174881373E+04  0.00000000000E+00 0. -1.
         24    2    1    2    0    0  0.29150265422E+02  0.56519951682E+02 -0.67594031074E+03  0.68361944880E+03  0.79975022287E+02 0.  0.
        -11    1    3    3    0    0 -0.15888467401E+02 -0.86977470114E+01 -0.62235306802E+02  0.64817648925E+02  0.00000000000E+00 0.  1.
         12    1    3    3    0    0  0.45038732823E+02  0.65217698693E+02 -0.61370500393E+03  0.61880179988E+03  0.00000000000E+00 0. -1.
          1    1    1    2  501    0 -0.29150265422E+02 -0.56519951682E+02 -0.43539836117E+03  0.44001815397E+03  0.00000000000E+00 0. -1.
<mgrwt>
<rscale>  1 0.10217753E+03</rscale>
<asrwt>0</asrwt>
<pdfrwt beam="1">  1       21 0.94607151E-03 0.10217753E+03</pdfrwt>
<pdfrwt beam="2">  1        2 0.17192127E+00 0.10217753E+03</pdfrwt>
<totfact> 0.11225508E+06</totfact>
</mgrwt>
</event>
<event>
 6    2  0.7993170E+000  0.9045525E+02  0.7546771E-02  0.1301753E+00
         21   -1    0    0  501  502  0.00000000000E+00  0.00000000000E+00  0.11206657007E+03  0.11206657007E+03  0.00000000000E+00 0. -1.
          4   -1    0    0  502    0 -0.00000000000E+00 -0.00000000000E+00 -0.54845416418E+02  0.54845416418E+02  0.00000000000E+00 0. -1.
         24    2    1    2    0    0 -0.71872799768E+00  0.34018997074E+02 -0.10559865940E+02  0.91069548837E+02  0.83811354987E+02 0.  0.
        -13    1    3    3    0    0 -0.29582781094E+02  0.79485518420E+01  0.24097213884E+02  0.38974300899E+02  0.00000000000E+00 0.  1.
         14    1    3    3    0    0  0.28864053096E+02  0.26070445232E+02 -0.34657079824E+02  0.52095247938E+02  0.00000000000E+00 0. -1.
          3    1    1    2  501    0  0.71872799768E+00 -0.34018997074E+02  0.67781019591E+02  0.75842437650E+02  0.00000000000E+00 0. -1.
<mgrwt>
<rscale>  1 0.90455248E+02</rscale>
<asrwt>0</asrwt>
<pdfrwt beam="1">  1       21 0.17241011E-01 0.90455248E+02</pdfrwt>
<pdfrwt beam="2">  1        4 0.84377564E-02 0.90455248E+02</pdfrwt>
<totfact> 0.11644503E+05</totfact>
</mgrwt>
</event>
<event>
 6    2  0.7993170E+000  0.8837217E+02  0.7546771E-02  0.1306842E+00
         -1   -1    0    0    0  501 -0.00000000000E+00  0.00000000000E+00  0.86621243232E+02  0.86621243232E+02  0.00000000000E+00 0.  1.
         21   -1    0    0  501  502  0.00000000000E+00 -0.00000000000E+00 -0.55013356676E+02  0.55013356676E+02  0.00000000000E+00 0. -1.
         24    2    1    2    0    0 -0.47861306475E+01  0.33456449567E+02 -0.89690971604E+01  0.88826147255E+02  0.81654140544E+02 0.  0.
        -11    1    3    3    0    0  0.25757771087E+02  0.15391651583E+02  0.25483060752E+02  0.39366890849E+02  0.00000000000E+00 0.  1.
         12    1    3    3    0    0 -0.30543901734E+02  0.18064797984E+02 -0.34452157913E+02  0.49459256406E+02  0.00000000000E+00 0. -1.
         -2    1    1    2    0  502  0.47861306475E+01 -0.33456449567E+02  0.40576983716E+02  0.52808452654E+02  0.00000000000E+00 0.  1.
<mgrwt>
<rscale>  1 0.88372166E+02</rscale>
<asrwt>0</asrwt>
<pdfrwt beam="1">  1       21 0.84635933E-02 0.88372166E+02</pdfrwt>
<pdfrwt beam="2">  1       -1 0.13326345E-01 0.88372166E+02</pdfrwt>
<totfact> 0.35545957E+05</totfact>
</mgrwt>
</event>
<event>
 6    2  0.7993170E+000  0.1136999E+03  0.7546771E-02  0.1253868E+00
          2   -1    0    0  502    0 -0.00000000000E+00  0.00000000000E+00  0.72575601956E+03  0.72575601956E+03  0.00000000000E+00 0. -1.
         21   -1    0    0  501  502  0.00000000000E+00 -0.00000000000E+00 -0.13089863546E+02  0.13089863546E+02  0.00000000000E+00 0.  1.
         24    2    1    2    0    0  0.57700677814E+02 -0.56978109953E+02  0.42992466282E+03  0.44470539761E+03  0.79698191499E+02 0.  0.
        -11    1    3    3    0    0  0.67574505253E+02 -0.58699572774E+02  0.42337215542E+03  0.43273078882E+03  0.00000000000E+00 0.  1.
         12    1    3    3    0    0 -0.98738274394E+01  0.17214628207E+01  0.65525074005E+01  0.11974608794E+02  0.00000000000E+00 0. -1.
          1    1    1    2  501    0 -0.57700677814E+02  0.56978109953E+02  0.28274149319E+03  0.29414048549E+03  0.00000000000E+00 0. -1.
<mgrwt>
<rscale>  1 0.11369993E+03</rscale>
<asrwt>0</asrwt>
<pdfrwt beam="1">  1       21 0.20138257E-02 0.11369993E+03</pdfrwt>
<pdfrwt beam="2">  1        2 0.11165474E+00 0.11369993E+03</pdfrwt>
<totfact> 0.59844598E+05</totfact>
</mgrwt>
</event>
<event>
 6    2  0.7993170E+000  0.1497951E+03  0.7546771E-02  0.1200725E+00
          2   -1    0    0  502    0 -0.00000000000E+00  0.00000000000E+00  0.11043202125E+04  0.11043202125E+04  0.00000000000E+00 0. -1.
         21   -1    0    0  501  502  0.00000000000E+00 -0.00000000000E+00 -0.19264198212E+02  0.19264198212E+02  0.00000000000E+00 0.  1.
         24    2    1    2    0    0 -0.41623430868E+02 -0.11980062188E+03  0.40523968334E+03  0.43203908116E+03  0.79711151640E+02 0.  0.
        -11    1    3    3    0    0 -0.39518906545E+02 -0.13095435177E+03  0.35289940673E+03  0.37848220235E+03  0.00000000000E+00 0.  1.
         12    1    3    3    0    0 -0.21045243229E+01  0.11153729884E+02  0.52340276602E+02  0.53556878808E+02  0.00000000000E+00 0. -1.
          1    1    1    2  501    0  0.41623430868E+02  0.11980062188E+03  0.67981633093E+03  0.69154532954E+03  0.00000000000E+00 0. -1.
<mgrwt>
<rscale>  1 0.14979508E+03</rscale>
<asrwt>0</asrwt>
<pdfrwt beam="1">  1       21 0.29637237E-02 0.14979508E+03</pdfrwt>
<pdfrwt beam="2">  1        2 0.16989537E+00 0.14979508E+03</pdfrwt>
<totfact> 0.18640374E+05</totfact>
</mgrwt>
</event>
<event>
 6    2  0.7993170E+000  0.8369998E+02  0.7546771E-02  0.1318868E+00
          2   -1    0    0  502    0 -0.00000000000E+00  0.00000000000E+00  0.26434851505E+03  0.26434851505E+03  0.00000000000E+00 0. -1.
         21   -1    0    0  501  502  0.00000000000E+00 -0.00000000000E+00 -0.13355928469E+02  0.13355928469E+02  0.00000000000E+00 0.  1.
         24    2    1    2    0    0 -0.13606644641E+02  0.17265080905E+02  0.23772274983E+03  0.25202736494E+03  0.80761767529E+02 0.  0.
        -11    1    3    3    0    0 -0.44817158642E+02  0.12252747868E+02  0.93828169489E+02  0.10470163766E+03  0.00000000000E+00 0.  1.
         12    1    3    3    0    0  0.31210514001E+02  0.50123330366E+01  0.14389458034E+03  0.14732572728E+03  0.00000000000E+00 0. -1.
          1    1    1    2  501    0  0.13606644641E+02 -0.17265080905E+02  0.13269836751E+02  0.25677078580E+02  0.00000000000E+00 0. -1.
<mgrwt>
<rscale>  1 0.83699981E+02</rscale>
<asrwt>0</asrwt>
<pdfrwt beam="1">  1       21 0.20547584E-02 0.83699981E+02</pdfrwt>
<pdfrwt beam="2">  1        2 0.40668998E-01 0.83699981E+02</pdfrwt>
<totfact> 0.16798757E+06</totfact>
</mgrwt>
</event>
<event>
 6    2  0.7993170E+000  0.8291951E+02  0.7546771E-02  0.1320965E+00
         21   -1    0    0  501  502  0.00000000000E+00  0.00000000000E+00  0.52242603369E+01  0.52242603369E+01  0.00000000000E+00 0. -1.
          2   -1    0    0  502    0 -0.00000000000E+00 -0.00000000000E+00 -0.73219843202E+03  0.73219843202E+03  0.00000000000E+00 0. -1.
         24    2    1    2    0    0  0.10302790315E+02 -0.17960715546E+02 -0.69066284161E+03  0.69562260285E+03  0.80292652354E+02 0.  0.
        -13    1    3    3    0    0  0.35458571258E+02 -0.56982974835E+01 -0.15012992518E+03  0.15436571933E+03  0.00000000000E+00 0.  1.
         14    1    3    3    0    0 -0.25155780943E+02 -0.12262418063E+02 -0.54053291643E+03  0.54125688352E+03  0.00000000000E+00 0. -1.
          1    1    1    2  501    0 -0.10302790315E+02  0.17960715546E+02 -0.36311330071E+02  0.41800089506E+02  0.00000000000E+00 0. -1.
<mgrwt>
<rscale>  1 0.82919508E+02</rscale>
<asrwt>0</asrwt>
<pdfrwt beam="1">  1       21 0.80373295E-03 0.82919508E+02</pdfrwt>
<pdfrwt beam="2">  1        2 0.11264583E+00 0.82919508E+02</pdfrwt>
<totfact> 0.24533450E+06</totfact>
</mgrwt>
</event>
<event>
 6    2  0.7993170E+000  0.9790688E+02  0.7546771E-02  0.1284760E+00
         21   -1    0    0  501  502  0.00000000000E+00  0.00000000000E+00  0.18232903301E+01  0.18232903301E+01  0.00000000000E+00 0.  1.
          2   -1    0    0  502    0 -0.00000000000E+00 -0.00000000000E+00 -0.20660817247E+04  0.20660817247E+04  0.00000000000E+00 0. -1.
         24    2    1    2    0    0 -0.18860785932E+02  0.12733281917E+02 -0.18034471552E+04  0.18061028205E+04  0.95225474186E+02 0.  0.
        -11    1    3    3    0    0 -0.53643123782E+02 -0.99613283931E+01 -0.11910453628E+04  0.11922943718E+04  0.00000000000E+00 0.  1.
         12    1    3    3    0    0  0.34782337850E+02  0.22694610310E+02 -0.61240179234E+03  0.61380844864E+03  0.00000000000E+00 0. -1.
          1    1    1    2  501    0  0.18860785932E+02 -0.12733281917E+02 -0.26081127924E+03  0.26180219459E+03  0.00000000000E+00 0. -1.
<mgrwt>
<rscale>  1 0.97906877E+02</rscale>
<asrwt>0</asrwt>
<pdfrwt beam="1">  1       21 0.28050508E-03 0.97906877E+02</pdfrwt>
<pdfrwt beam="2">  1        2 0.31786000E+00 0.97906877E+02</pdfrwt>
<totfact> 0.23486907E+06</totfact>
</mgrwt>
</event>
<event>
 6    2  0.7993170E+000  0.9975961E+02  0.7546771E-02  0.1280802E+00
          2   -1    0    0  502    0 -0.00000000000E+00  0.00000000000E+00  0.93023857735E+02  0.93023857735E+02  0.00000000000E+00 0. -1.
         21   -1    0    0  501  502  0.00000000000E+00 -0.00000000000E+00 -0.11025529102E+03  0.11025529102E+03  0.00000000000E+00 0.  1.
         24    2    1    2    0    0 -0.27218903499E+02  0.47963420538E+02 -0.73942191964E+02  0.12417498598E+03  0.83130144797E+02 0.  0.
        -11    1    3    3    0    0 -0.32991213177E+02  0.68982929998E+02 -0.65887375409E+02  0.10093666834E+03  0.00000000000E+00 0.  1.
         12    1    3    3    0    0  0.57723096772E+01 -0.21019509460E+02 -0.80548165551E+01  0.23238317639E+02  0.00000000000E+00 0. -1.
          1    1    1    2  501    0  0.27218903499E+02 -0.47963420538E+02  0.56710758681E+02  0.79104162770E+02  0.00000000000E+00 0. -1.
<mgrwt>
<rscale>  1 0.99759608E+02</rscale>
<asrwt>0</asrwt>
<pdfrwt beam="1">  1       21 0.16962353E-01 0.99759608E+02</pdfrwt>
<pdfrwt beam="2">  1        2 0.14311363E-01 0.99759608E+02</pdfrwt>
<totfact> 0.15250799E+05</totfact>
</mgrwt>
</event>
<event>
 6    2  0.7993170E+000  0.7502403E+02  0.7546771E-02  0.1343797E+00
          2   -1    0    0  502    0 -0.00000000000E+00  0.00000000000E+00  0.50129070503E+03  0.50129070503E+03  0.00000000000E+00 0. -1.
         21   -1    0    0  501  502  0.00000000000E+00 -0.00000000000E+00 -0.58002973309E+01  0.58002973309E+01  0.00000000000E+00 0.  1.
         24    2    1    2    0    0 -0.71620001217E+01 -0.26531601143E+02  0.42227741539E+03  0.42889022009E+03  0.69809635690E+02 0.  0.
        -11    1    3    3    0    0 -0.19330118088E+02  0.83950362008E+01  0.43761053369E+02  0.48571183741E+02  0.00000000000E+00 0.  1.
         12    1    3    3    0    0  0.12168117967E+02 -0.34926637344E+02  0.37851636202E+03  0.38031903634E+03  0.00000000000E+00 0. -1.
          1    1    1    2  501    0  0.71620001217E+01  0.26531601143E+02  0.73212992312E+02  0.78200782274E+02  0.00000000000E+00 0. -1.
<mgrwt>
<rscale>  1 0.75024032E+02</rscale>
<asrwt>0</asrwt>
<pdfrwt beam="1">  1       21 0.89235383E-03 0.75024032E+02</pdfrwt>
<pdfrwt beam="2">  1        2 0.77121613E-01 0.75024032E+02</pdfrwt>
<totfact> 0.31478789E+06</totfact>
</mgrwt>
</event>
<event>
 6    2  0.7993170E+000  0.8768101E+02  0.7546771E-02  0.1308567E+00
         21   -1    0    0  501  502  0.00000000000E+00  0.00000000000E+00  0.32567060028E+01  0.32567060028E+01  0.00000000000E+00 0.  1.
          2   -1    0    0  502    0 -0.00000000000E+00 -0.00000000000E+00 -0.11226124224E+04  0.11226124224E+04  0.00000000000E+00 0. -1.
         24    2    1    2    0    0 -0.11746086612E+02  0.28782851801E+02 -0.91056061633E+03  0.91477242800E+03  0.81984973691E+02 0.  0.
        -11    1    3    3    0    0  0.18333869092E+02  0.25765858802E+02 -0.13623944859E+03  0.13986135130E+03  0.00000000000E+00 0.  1.
         12    1    3    3    0    0 -0.30079955704E+02  0.30169929990E+01 -0.77432116774E+03  0.77491107670E+03  0.00000000000E+00 0. -1.
          1    1    1    2  501    0  0.11746086612E+02 -0.28782851801E+02 -0.20879510008E+03  0.21109670041E+03  0.00000000000E+00 0. -1.
<mgrwt>
<rscale>  1 0.87681007E+02</rscale>
<asrwt>0</asrwt>
<pdfrwt beam="1">  1       21 0.50103173E-03 0.87681007E+02</pdfrwt>
<pdfrwt beam="2">  1        2 0.17270959E+00 0.87681007E+02</pdfrwt>
<totfact> 0.29434383E+06</totfact>
</mgrwt>
</event>
<event>
 6    2  0.7993170E+000  0.8737800E+02  0.7546771E-02  0.1309328E+00
         21   -1    0    0  501  502  0.00000000000E+00  0.00000000000E+00  0.32386250486E+01  0.32386250486E+01  0.00000000000E+00 0. -1.
          2   -1    0    0  502    0 -0.00000000000E+00 -0.00000000000E+00 -0.34078214863E+04  0.34078214863E+04  0.00000000000E+00 0. -1.
         24    2    1    2    0    0  0.32800753751E+02  0.10602815460E+02 -0.32955399520E+04  0.32966981195E+04  0.80290759991E+02 0.  0.
        -11    1    3    3    0    0  0.17561511260E+02 -0.18454416166E+02 -0.33178895559E+03  0.33276550784E+03  0.00000000000E+00 0.  1.
         12    1    3    3    0    0  0.15239242492E+02  0.29057231626E+02 -0.29637509964E+04  0.29639326116E+04  0.00000000000E+00 0. -1.
          1    1    1    2  501    0 -0.32800753751E+02 -0.10602815460E+02 -0.10904290923E+03  0.11436199192E+03  0.00000000000E+00 0. -1.
<mgrwt>
<rscale>  1 0.87378002E+02</rscale>
<asrwt>0</asrwt>
<pdfrwt beam="1">  1       21 0.49825305E-03 0.87378002E+02</pdfrwt>
<pdfrwt beam="2">  1        2 0.52427703E+00 0.87378002E+02</pdfrwt>
<totfact> 0.17856518E+05</totfact>
</mgrwt>
</event>
<event>
 6    2  0.7993170E+000  0.8561435E+02  0.7546771E-02  0.1313834E+00
          2   -1    0    0  502    0 -0.00000000000E+00  0.00000000000E+00  0.18881912238E+03  0.18881912238E+03  0.00000000000E+00 0. -1.
         21   -1    0    0  501  502  0.00000000000E+00 -0.00000000000E+00 -0.18564054982E+02  0.18564054982E+02  0.00000000000E+00 0.  1.
         24    2    1    2    0    0 -0.18992501541E+02  0.22598347394E+02  0.10300635941E+03  0.13394075675E+03  0.80364269543E+02 0.  0.
        -13    1    3    3    0    0 -0.67080005045E+01  0.29967147420E+02  0.78318216968E+00  0.30718733202E+02  0.00000000000E+00 0.  1.
         14    1    3    3    0    0 -0.12284501036E+02 -0.73688000254E+01  0.10222317724E+03  0.10322202354E+03  0.00000000000E+00 0. -1.
          1    1    1    2  501    0  0.18992501541E+02 -0.22598347394E+02  0.67248707991E+02  0.73442420618E+02  0.00000000000E+00 0. -1.
<mgrwt>
<rscale>  1 0.85614346E+02</rscale>
<asrwt>0</asrwt>
<pdfrwt beam="1">  1       21 0.28560086E-02 0.85614346E+02</pdfrwt>
<pdfrwt beam="2">  1        2 0.29049094E-01 0.85614346E+02</pdfrwt>
<totfact> 0.14149916E+06</totfact>
</mgrwt>
</event>
<event>
 6    2  0.7993170E+000  0.7807776E+02  0.7546771E-02  0.1334597E+00
         21   -1    0    0  501  502  0.00000000000E+00  0.00000000000E+00  0.24790087088E+01  0.24790087088E+01  0.00000000000E+00 0.  1.
          2   -1    0    0  502    0 -0.00000000000E+00 -0.00000000000E+00 -0.13488131290E+04  0.13488131290E+04  0.00000000000E+00 0. -1.
         24    2    1    2    0    0  0.28023296771E+02  0.17915239409E+01 -0.11820187725E+04  0.11845946625E+04  0.72853422498E+02 0.  0.
        -11    1    3    3    0    0  0.23935233398E+02  0.31044890462E+02 -0.37665534450E+03  0.37868975317E+03  0.00000000000E+00 0.  1.
         12    1    3    3    0    0  0.40880633727E+01 -0.29253366521E+02 -0.80536342804E+03  0.80590490936E+03  0.00000000000E+00 0. -1.
          1    1    1    2  501    0 -0.28023296771E+02 -0.17915239409E+01 -0.16431534776E+03  0.16669747517E+03  0.00000000000E+00 0. -1.
<mgrwt>
<rscale>  1 0.78077755E+02</rscale>
<asrwt>0</asrwt>
<pdfrwt beam="1">  1       21 0.38138620E-03 0.78077755E+02</pdfrwt>
<pdfrwt beam="2">  1        2 0.20750958E+00 0.78077755E+02</pdfrwt>
<totfact> 0.33350584E+06</totfact>
</mgrwt>
</event>
<event>
 6    2  0.7993170E+000  0.8702305E+02  0.7546771E-02  0.1310225E+00
         -1   -1    0    0    0  501 -0.00000000000E+00  0.00000000000E+00  0.57453070823E+01  0.57453070823E+01  0.00000000000E+00 0.  1.
         21   -1    0    0  501  502  0.00000000000E+00 -0.00000000000E+00 -0.71723255117E+03  0.71723255117E+03  0.00000000000E+00 0. -1.
         24    2    1    2    0    0  0.58587059640E+01 -0.30766563377E+02 -0.37173812490E+03  0.38178821913E+03  0.81191778539E+02 0.  0.
        -13    1    3    3    0    0 -0.87536906033E+01 -0.56404557772E+02 -0.22641231242E+03  0.23349654484E+03  0.00000000000E+00 0.  1.
         14    1    3    3    0    0  0.14612396567E+02  0.25637994394E+02 -0.14532581247E+03  0.14829167428E+03  0.00000000000E+00 0. -1.
         -2    1    1    2    0  502 -0.58587059640E+01  0.30766563377E+02 -0.33974911919E+03  0.34118963912E+03  0.00000000000E+00 0.  1.
<mgrwt>
<rscale>  1 0.87023047E+02</rscale>
<asrwt>0</asrwt>
<pdfrwt beam="1">  1       21 0.11034345E+00 0.87023047E+02</pdfrwt>
<pdfrwt beam="2">  1       -1 0.88389355E-03 0.87023047E+02</pdfrwt>
<totfact> 0.12173026E+05</totfact>
</mgrwt>
</event>
<event>
 6    2  0.7993170E+000  0.8415815E+02  0.7546771E-02  0.1317649E+00
         21   -1    0    0  501  502  0.00000000000E+00  0.00000000000E+00  0.26817928430E+02  0.26817928430E+02  0.00000000000E+00 0.  1.
         -3   -1    0    0    0  501 -0.00000000000E+00 -0.00000000000E+00 -0.46970154068E+03  0.46970154068E+03  0.00000000000E+00 0.  1.
         24    2    1    2    0    0 -0.65420916691E+01  0.32704658453E+02 -0.45371353080E+03  0.46145266452E+03  0.77267068794E+02 0.  0.
        -13    1    3    3    0    0  0.15218334311E+02 -0.13010555889E+02 -0.27436844353E+03  0.27509800993E+03  0.00000000000E+00 0.  1.
         14    1    3    3    0    0 -0.21760425980E+02  0.45715214341E+02 -0.17934508727E+03  0.18635465459E+03  0.00000000000E+00 0. -1.
         -4    1    1    2    0  502  0.65420916691E+01 -0.32704658453E+02  0.10829918549E+02  0.35066804583E+02  0.00000000000E+00 0.  1.
<mgrwt>
<rscale>  1 0.84158146E+02</rscale>
<asrwt>0</asrwt>
<pdfrwt beam="1">  1       21 0.41258352E-02 0.84158146E+02</pdfrwt>
<pdfrwt beam="2">  1       -3 0.72261774E-01 0.84158146E+02</pdfrwt>
<totfact> 0.31617010E+04</totfact>
</mgrwt>
</event>
<event>
 6    2  0.7993170E+000  0.9419535E+02  0.7546771E-02  0.1292999E+00
          4   -1    0    0  502    0 -0.00000000000E+00  0.00000000000E+00  0.14982926987E+02  0.14982926987E+02  0.00000000000E+00 0. -1.
         21   -1    0    0  501  502  0.00000000000E+00 -0.00000000000E+00 -0.33764184943E+03  0.33764184943E+03  0.00000000000E+00 0.  1.
         24    2    1    2    0    0 -0.42526393899E+02  0.18310744065E+02 -0.18897861064E+03  0.21115321288E+03  0.82030399874E+02 0.  0.
        -13    1    3    3    0    0 -0.40528555410E+02  0.41642764134E+02 -0.17377493161E+03  0.18323321333E+03  0.00000000000E+00 0.  1.
         14    1    3    3    0    0 -0.19978384891E+01 -0.23332020069E+02 -0.15203679026E+02  0.27919999553E+02  0.00000000000E+00 0. -1.
          3    1    1    2  501    0  0.42526393899E+02 -0.18310744065E+02 -0.13368031180E+03  0.14147156353E+03  0.00000000000E+00 0. -1.
<mgrwt>
<rscale>  1 0.94195350E+02</rscale>
<asrwt>0</asrwt>
<pdfrwt beam="1">  1       21 0.51944903E-01 0.94195350E+02</pdfrwt>
<pdfrwt beam="2">  1        4 0.23050656E-02 0.94195350E+02</pdfrwt>
<totfact> 0.11078314E+05</totfact>
</mgrwt>
</event>
<event>
 6    2  0.7993170E+000  0.9252409E+02  0.7546771E-02  0.1296852E+00
         -1   -1    0    0    0  501 -0.00000000000E+00  0.00000000000E+00  0.68520450378E+02  0.68520450378E+02  0.00000000000E+00 0.  1.
         21   -1    0    0  501  502  0.00000000000E+00 -0.00000000000E+00 -0.95563469636E+02  0.95563469636E+02  0.00000000000E+00 0. -1.
         24    2    1    2    0    0  0.31663740275E+02  0.35501862238E+02 -0.56232349659E+02  0.10827180950E+03  0.79358256748E+02 0.  0.
        -13    1    3    3    0    0 -0.30775616981E+00  0.95534526237E+01  0.19698339622E+02  0.21894925319E+02  0.00000000000E+00 0.  1.
         14    1    3    3    0    0  0.31971496445E+02  0.25948409614E+02 -0.75930689281E+02  0.86376884183E+02  0.00000000000E+00 0. -1.
         -2    1    1    2    0  502 -0.31663740275E+02 -0.35501862238E+02  0.29189330400E+02  0.55812110512E+02  0.00000000000E+00 0.  1.
<mgrwt>
<rscale>  1 0.92524092E+02</rscale>
<asrwt>0</asrwt>
<pdfrwt beam="1">  1       21 0.14702072E-01 0.92524092E+02</pdfrwt>
<pdfrwt beam="2">  1       -1 0.10541608E-01 0.92524092E+02</pdfrwt>
<totfact> 0.19452702E+05</totfact>
</mgrwt>
</event>
<event>
 6    2  0.7993170E+000  0.8575223E+02  0.7546771E-02  0.1313477E+00
         21   -1    0    0  501  502  0.00000000000E+00  0.00000000000E+00  0.89641976969E+01  0.89641976969E+01  0.00000000000E+00 0. -1.
          2   -1    0    0  502    0 -0.00000000000E+00 -0.00000000000E+00 -0.62878575857E+03  0.62878575857E+03  0.00000000000E+00 0. -1.
         24    2    1    2    0    0  0.16530545613E+02  0.12049837318E+02 -0.60821507739E+03  0.61423043296E+03  0.83276568681E+02 0.  0.
        -13    1    3    3    0    0  0.12477876577E+02  0.36982034937E+02 -0.14012217295E+03  0.14545649406E+03  0.00000000000E+00 0.  1.
         14    1    3    3    0    0  0.40526690369E+01 -0.24932197619E+02 -0.46809290444E+03  0.46877393890E+03  0.00000000000E+00 0. -1.
          1    1    1    2  501    0 -0.16530545613E+02 -0.12049837318E+02 -0.11606483479E+02  0.23519523303E+02  0.00000000000E+00 0. -1.
<mgrwt>
<rscale>  1 0.85752227E+02</rscale>
<asrwt>0</asrwt>
<pdfrwt beam="1">  1       21 0.13791068E-02 0.85752227E+02</pdfrwt>
<pdfrwt beam="2">  1        2 0.96736308E-01 0.85752227E+02</pdfrwt>
<totfact> 0.12619714E+06</totfact>
</mgrwt>
</event>
<event>
 6    2  0.7993170E+000  0.1492675E+03  0.7546771E-02  0.1201376E+00
          2   -1    0    0  502    0 -0.00000000000E+00  0.00000000000E+00  0.11215444051E+04  0.11215444051E+04  0.00000000000E+00 0. -1.
         21   -1    0    0  501  502  0.00000000000E+00 -0.00000000000E+00 -0.24408017411E+03  0.24408017411E+03  0.00000000000E+00 0. -1.
         24    2    1    2    0    0  0.68752357035E+02  0.10486303538E+03  0.11000598944E+04  0.11101407789E+04  0.80979224798E+02 0.  0.
        -13    1    3    3    0    0  0.34986912821E+01  0.12493954822E+02  0.18010137324E+02  0.22196954616E+02  0.00000000000E+00 0.  1.
         14    1    3    3    0    0  0.65253665753E+02  0.92369080562E+02  0.10820497571E+04  0.10879438243E+04  0.00000000000E+00 0. -1.
          1    1    1    2  501    0 -0.68752357035E+02 -0.10486303538E+03 -0.22259566350E+03  0.25548380026E+03  0.00000000000E+00 0. -1.
<mgrwt>
<rscale>  1 0.14926747E+03</rscale>
<asrwt>0</asrwt>
<pdfrwt beam="1">  1       21 0.37550797E-01 0.14926747E+03</pdfrwt>
<pdfrwt beam="2">  1        2 0.17254529E+00 0.14926747E+03</pdfrwt>
<totfact> 0.19849503E+03</totfact>
</mgrwt>
</event>
<event>
 6    2  0.7993170E+000  0.9887742E+02  0.7546771E-02  0.1282674E+00
          2   -1    0    0  502    0 -0.00000000000E+00  0.00000000000E+00  0.27883266498E+03  0.27883266498E+03  0.00000000000E+00 0. -1.
         21   -1    0    0  501  502  0.00000000000E+00 -0.00000000000E+00 -0.21801571333E+02  0.21801571333E+02  0.00000000000E+00 0.  1.
         24    2    1    2    0    0  0.55131694744E+01  0.53432058276E+02  0.19456791743E+03  0.21825081400E+03  0.83014236299E+02 0.  0.
        -11    1    3    3    0    0 -0.10197716317E+02  0.63127316120E+02  0.18812719060E+03  0.19869799018E+03  0.00000000000E+00 0.  1.
         12    1    3    3    0    0  0.15710885792E+02 -0.96952578445E+01  0.64407268255E+01  0.19552823813E+02  0.00000000000E+00 0. -1.
          1    1    1    2  501    0 -0.55131694744E+01 -0.53432058276E+02  0.62463176220E+02  0.82383422318E+02  0.00000000000E+00 0. -1.
<mgrwt>
<rscale>  1 0.98877416E+02</rscale>
<asrwt>0</asrwt>
<pdfrwt beam="1">  1       21 0.33540881E-02 0.98877416E+02</pdfrwt>
<pdfrwt beam="2">  1        2 0.42897330E-01 0.98877416E+02</pdfrwt>
<totfact> 0.73205583E+05</totfact>
</mgrwt>
</event>
<event>
 6    2  0.7993170E+000  0.8258402E+02  0.7546771E-02  0.1321874E+00
          2   -1    0    0  502    0 -0.00000000000E+00  0.00000000000E+00  0.26476366099E+04  0.26476366099E+04  0.00000000000E+00 0. -1.
         21   -1    0    0  501  502  0.00000000000E+00 -0.00000000000E+00 -0.11325791898E+01  0.11325791898E+01  0.00000000000E+00 0. -1.
         24    2    1    2    0    0  0.12273346367E+02  0.20550086644E+02  0.22724304828E+04  0.22739306101E+04  0.79039098309E+02 0.  0.
        -11    1    3    3    0    0 -0.12501967320E+02 -0.65650435624E+01  0.83040154788E+02  0.84232216468E+02  0.00000000000E+00 0.  1.
         12    1    3    3    0    0  0.24775313687E+02  0.27115130206E+02  0.21893903280E+04  0.21896983936E+04  0.00000000000E+00 0. -1.
          1    1    1    2  501    0 -0.12273346367E+02 -0.20550086644E+02  0.37407354789E+03  0.37483857902E+03  0.00000000000E+00 0. -1.
<mgrwt>
<rscale>  1 0.82584019E+02</rscale>
<asrwt>0</asrwt>
<pdfrwt beam="1">  1       21 0.17424507E-03 0.82584019E+02</pdfrwt>
<pdfrwt beam="2">  1        2 0.40732376E+00 0.82584019E+02</pdfrwt>
<totfact> 0.23785255E+06</totfact>
</mgrwt>
</event>
<event>
 6    2  0.7993170E+000  0.8347573E+02  0.7546771E-02  0.1319467E+00
         -1   -1    0    0    0  501 -0.00000000000E+00  0.00000000000E+00  0.87936827885E+02  0.87936827885E+02  0.00000000000E+00 0.  1.
         21   -1    0    0  501  502  0.00000000000E+00 -0.00000000000E+00 -0.46221054691E+02  0.46221054691E+02  0.00000000000E+00 0.  1.
         24    2    1    2    0    0 -0.72954915359E+01 -0.24215554647E+02  0.60126603824E+02  0.10287568367E+03  0.79552375957E+02 0.  0.
        -13    1    3    3    0    0  0.65950645575E+01 -0.25044557074E+02  0.76863713454E+02  0.81109525714E+02  0.00000000000E+00 0.  1.
         14    1    3    3    0    0 -0.13890556093E+02  0.82900242671E+00 -0.16737109630E+02  0.21766157961E+02  0.00000000000E+00 0. -1.
         -2    1    1    2    0  502  0.72954915359E+01  0.24215554647E+02 -0.18410830631E+02  0.31282198901E+02  0.00000000000E+00 0.  1.
<mgrwt>
<rscale>  1 0.83475732E+02</rscale>
<asrwt>0</asrwt>
<pdfrwt beam="1">  1       21 0.71109315E-02 0.83475732E+02</pdfrwt>
<pdfrwt beam="2">  1       -1 0.13528743E-01 0.83475732E+02</pdfrwt>
<totfact> 0.46438603E+05</totfact>
</mgrwt>
</event>
<event>
 6    2  0.7993170E+000  0.1022028E+03  0.7546771E-02  0.1275731E+00
         21   -1    0    0  501  502  0.00000000000E+00  0.00000000000E+00  0.20355182951E+02  0.20355182951E+02  0.00000000000E+00 0. -1.
          2   -1    0    0  502    0 -0.00000000000E+00 -0.00000000000E+00 -0.41130625748E+03  0.41130625748E+03  0.00000000000E+00 0. -1.
         24    2    1    2    0    0 -0.32331280397E+02 -0.39014049069E+02 -0.35529804649E+03  0.36970543890E+03  0.88758109471E+02 0.  0.
        -13    1    3    3    0    0 -0.14670272299E+02 -0.37069777817E+02 -0.50266645385E+02  0.64157002384E+02  0.00000000000E+00 0.  1.
         14    1    3    3    0    0 -0.17661008099E+02 -0.19442712518E+01 -0.30503140111E+03  0.30554843652E+03  0.00000000000E+00 0. -1.
          1    1    1    2  501    0  0.32331280397E+02  0.39014049069E+02 -0.35653028033E+02  0.61956001524E+02  0.00000000000E+00 0. -1.
<mgrwt>
<rscale>  1 0.10220279E+03</rscale>
<asrwt>0</asrwt>
<pdfrwt beam="1">  1       21 0.31315668E-02 0.10220279E+03</pdfrwt>
<pdfrwt beam="2">  1        2 0.63277882E-01 0.10220279E+03</pdfrwt>
<totfact> 0.54581950E+05</totfact>
</mgrwt>
</event>
<event>
 6    2  0.7993170E+000  0.9330883E+02  0.7546771E-02  0.1295031E+00
         21   -1    0    0  501  502  0.00000000000E+00  0.00000000000E+00  0.26033247966E+03  0.26033247966E+03  0.00000000000E+00 0. -1.
          2   -1    0    0  502    0 -0.00000000000E+00 -0.00000000000E+00 -0.87964806678E+02  0.87964806678E+02  0.00000000000E+00 0. -1.
         24    2    1    2    0    0  0.27095923423E+02 -0.23724368614E+02 -0.61447745035E+02  0.11172449747E+03  0.86078471360E+02 0.  0.
        -11    1    3    3    0    0  0.24370482365E+02 -0.19065382754E+02  0.15486479901E+02  0.34601160240E+02  0.00000000000E+00 0.  1.
         12    1    3    3    0    0  0.27254410579E+01 -0.46589858598E+01 -0.76934224936E+02  0.77123337225E+02  0.00000000000E+00 0. -1.
          1    1    1    2  501    0 -0.27095923423E+02  0.23724368614E+02  0.23381541801E+03  0.23657278887E+03  0.00000000000E+00 0. -1.
<mgrwt>
<rscale>  1 0.93308831E+02</rscale>
<asrwt>0</asrwt>
<pdfrwt beam="1">  1       21 0.40051150E-01 0.93308831E+02</pdfrwt>
<pdfrwt beam="2">  1        2 0.13533047E-01 0.93308831E+02</pdfrwt>
<totfact> 0.32103113E+04</totfact>
</mgrwt>
</event>
<event>
 6    2  0.7993170E+000  0.8481110E+02  0.7546771E-02  0.1315927E+00
         -1   -1    0    0    0  501 -0.00000000000E+00  0.00000000000E+00  0.73274775474E+01  0.73274775474E+01  0.00000000000E+00 0.  1.
         21   -1    0    0  501  502  0.00000000000E+00 -0.00000000000E+00 -0.48795138160E+03  0.48795138160E+03  0.00000000000E+00 0.  1.
         24    2    1    2    0    0  0.10560754750E+02  0.25068390527E+02 -0.27272361261E+03  0.28560653163E+03  0.80330369665E+02 0.  0.
        -13    1    3    3    0    0  0.25090271356E+02  0.36538213106E+02 -0.75746916723E+02  0.87761940081E+02  0.00000000000E+00 0.  1.
         14    1    3    3    0    0 -0.14529516606E+02 -0.11469822579E+02 -0.19697669589E+03  0.19784459155E+03  0.00000000000E+00 0. -1.
         -2    1    1    2    0  502 -0.10560754750E+02 -0.25068390527E+02 -0.20790029144E+03  0.20967232751E+03  0.00000000000E+00 0.  1.
<mgrwt>
<rscale>  1 0.84811096E+02</rscale>
<asrwt>0</asrwt>
<pdfrwt beam="1">  1       21 0.75069445E-01 0.84811096E+02</pdfrwt>
<pdfrwt beam="2">  1       -1 0.11273042E-02 0.84811096E+02</pdfrwt>
<totfact> 0.20642089E+05</totfact>
</mgrwt>
</event>
<event>
 6    2  0.7993170E+000  0.8053196E+02  0.7546771E-02  0.1327549E+00
         -1   -1    0    0    0  501 -0.00000000000E+00  0.00000000000E+00  0.17171434047E+03  0.17171434047E+03  0.00000000000E+00 0.  1.
         21   -1    0    0  501  502  0.00000000000E+00 -0.00000000000E+00 -0.17559986539E+02  0.17559986539E+02  0.00000000000E+00 0.  1.
         24    2    1    2    0    0 -0.58142384467E+01  0.28442379022E+02  0.10737725403E+03  0.13422097681E+03  0.75117385733E+02 0.  0.
        -11    1    3    3    0    0 -0.16005111932E+01  0.52793990843E+02  0.54720888311E+02  0.76053551677E+02  0.00000000000E+00 0.  1.
         12    1    3    3    0    0 -0.42137272534E+01 -0.24351611821E+02  0.52656365720E+02  0.58167425132E+02  0.00000000000E+00 0. -1.
         -2    1    1    2    0  502  0.58142384467E+01 -0.28442379022E+02  0.46777099900E+02  0.55053350200E+02  0.00000000000E+00 0.  1.
<mgrwt>
<rscale>  1 0.80531956E+02</rscale>
<asrwt>0</asrwt>
<pdfrwt beam="1">  1       21 0.27015365E-02 0.80531956E+02</pdfrwt>
<pdfrwt beam="2">  1       -1 0.26417590E-01 0.80531956E+02</pdfrwt>
<totfact> 0.79470506E+05</totfact>
</mgrwt>
</event>
<event>
 6    2  0.7993170E+000  0.8617922E+02  0.7546771E-02  0.1312377E+00
         21   -1    0    0  501  502  0.00000000000E+00  0.00000000000E+00  0.14554782876E+03  0.14554782876E+03  0.00000000000E+00 0. -1.
          2   -1    0    0  502    0 -0.00000000000E+00 -0.00000000000E+00 -0.30724369955E+02  0.30724369955E+02  0.00000000000E+00 0. -1.
         24    2    1    2    0    0 -0.32728364251E+02 -0.85447814833E+01  0.41771435171E+02  0.95769048006E+02  0.79263476094E+02 0.  0.
        -13    1    3    3    0    0  0.23290991472E+02 -0.14148191757E+02  0.25110902509E+02  0.37056700319E+02  0.00000000000E+00 0.  1.
         14    1    3    3    0    0 -0.56019355723E+02  0.56034102738E+01  0.16660532662E+02  0.58712347686E+02  0.00000000000E+00 0. -1.
          1    1    1    2  501    0  0.32728364251E+02  0.85447814833E+01  0.73052023636E+02  0.80503150711E+02  0.00000000000E+00 0. -1.
<mgrwt>
<rscale>  1 0.86179219E+02</rscale>
<asrwt>0</asrwt>
<pdfrwt beam="1">  1       21 0.22391973E-01 0.86179219E+02</pdfrwt>
<pdfrwt beam="2">  1        2 0.47268262E-02 0.86179219E+02</pdfrwt>
<totfact> 0.35664932E+05</totfact>
</mgrwt>
</event>
<event>
 6    2  0.7993170E+000  0.8277951E+02  0.7546771E-02  0.1321344E+00
         21   -1    0    0  501  502  0.00000000000E+00  0.00000000000E+00  0.36490067192E+03  0.36490067192E+03  0.00000000000E+00 0. -1.
         -3   -1    0    0    0  501 -0.00000000000E+00 -0.00000000000E+00 -0.75558487357E+01  0.75558487357E+01  0.00000000000E+00 0.  1.
         24    2    1    2    0    0  0.22103110037E+02  0.83729682069E+00  0.28897780883E+03  0.30060043399E+03  0.79769658262E+02 0.  0.
        -11    1    3    3    0    0 -0.12296362642E+02 -0.11400326588E+02  0.10597993136E+02  0.19836467404E+02  0.00000000000E+00 0.  1.
         12    1    3    3    0    0  0.34399472679E+02  0.12237623409E+02  0.27837981569E+03  0.28076396658E+03  0.00000000000E+00 0. -1.
         -4    1    1    2    0  502 -0.22103110037E+02 -0.83729682069E+00  0.68367014358E+02  0.71856086670E+02  0.00000000000E+00 0.  1.
<mgrwt>
<rscale>  1 0.82779508E+02</rscale>
<asrwt>0</asrwt>
<pdfrwt beam="1">  1       21 0.56138551E-01 0.82779508E+02</pdfrwt>
<pdfrwt beam="2">  1       -3 0.11624386E-02 0.82779508E+02</pdfrwt>
<totfact> 0.28798243E+05</totfact>
</mgrwt>
</event>
<event>
 6    2  0.7993170E+000  0.8453620E+02  0.7546771E-02  0.1316650E+00
          2   -1    0    0  502    0 -0.00000000000E+00  0.00000000000E+00  0.29607903220E+03  0.29607903220E+03  0.00000000000E+00 0. -1.
         21   -1    0    0  501  502  0.00000000000E+00 -0.00000000000E+00 -0.97491382055E+01  0.97491382055E+01  0.00000000000E+00 0.  1.
         24    2    1    2    0    0 -0.91417130428E+01 -0.18377952150E+02  0.20079002307E+03  0.21786005368E+03  0.82006399641E+02 0.  0.
        -11    1    3    3    0    0 -0.31540340146E+02 -0.11451902698E+02  0.28624623837E+02  0.44105648411E+02  0.00000000000E+00 0.  1.
         12    1    3    3    0    0  0.22398627103E+02 -0.69260494520E+01  0.17216539923E+03  0.17375440526E+03  0.00000000000E+00 0. -1.
          1    1    1    2  501    0  0.91417130428E+01  0.18377952150E+02  0.85539870928E+02  0.87968116730E+02  0.00000000000E+00 0. -1.
<mgrwt>
<rscale>  1 0.84536203E+02</rscale>
<asrwt>0</asrwt>
<pdfrwt beam="1">  1       21 0.14998676E-02 0.84536203E+02</pdfrwt>
<pdfrwt beam="2">  1        2 0.45550613E-01 0.84536203E+02</pdfrwt>
<totfact> 0.24646929E+06</totfact>
</mgrwt>
</event>
<event>
 6    2  0.7993170E+000  0.9227658E+02  0.7546771E-02  0.1297430E+00
         21   -1    0    0  501  502  0.00000000000E+00  0.00000000000E+00  0.19400935247E+02  0.19400935247E+02  0.00000000000E+00 0.  1.
          2   -1    0    0  502    0 -0.00000000000E+00 -0.00000000000E+00 -0.24113102161E+03  0.24113102161E+03  0.00000000000E+00 0. -1.
         24    2    1    2    0    0  0.14483050772E+02  0.40675964923E+02 -0.13328967037E+03  0.16211447841E+03  0.81551670747E+02 0.  0.
        -13    1    3    3    0    0  0.44105495610E+02  0.39533459244E+02 -0.10788038479E+03  0.12307057554E+03  0.00000000000E+00 0.  1.
         14    1    3    3    0    0 -0.29622444837E+02  0.11425056795E+01 -0.25409285578E+02  0.39043902865E+02  0.00000000000E+00 0. -1.
          1    1    1    2  501    0 -0.14483050772E+02 -0.40675964923E+02 -0.88440415993E+02  0.98417478443E+02  0.00000000000E+00 0. -1.
<mgrwt>
<rscale>  1 0.92276584E+02</rscale>
<asrwt>0</asrwt>
<pdfrwt beam="1">  1       21 0.29847592E-02 0.92276584E+02</pdfrwt>
<pdfrwt beam="2">  1        2 0.37097081E-01 0.92276584E+02</pdfrwt>
<totfact> 0.10247721E+06</totfact>
</mgrwt>
</event>
<event>
 6    2  0.7993170E+000  0.8868379E+02  0.7546771E-02  0.1306071E+00
         21   -1    0    0  501  502  0.00000000000E+00  0.00000000000E+00  0.13517519619E+02  0.13517519619E+02  0.00000000000E+00 0.  1.
          2   -1    0    0  502    0 -0.00000000000E+00 -0.00000000000E+00 -0.42000955699E+03  0.42000955699E+03  0.00000000000E+00 0. -1.
         24    2    1    2    0    0  0.16487699984E+02  0.35235044755E+02 -0.36897097202E+03  0.37947910741E+03  0.79696060978E+02 0.  0.
        -13    1    3    3    0    0  0.94977517652E+01 -0.10988852548E+02 -0.10376916110E+02  0.17850561808E+02  0.00000000000E+00 0.  1.
         14    1    3    3    0    0  0.69899482190E+01  0.46223897302E+02 -0.35859405591E+03  0.36162854560E+03  0.00000000000E+00 0. -1.
          1    1    1    2  501    0 -0.16487699984E+02 -0.35235044755E+02 -0.37521065349E+02  0.54047969199E+02  0.00000000000E+00 0. -1.
<mgrwt>
<rscale>  1 0.88683791E+02</rscale>
<asrwt>0</asrwt>
<pdfrwt beam="1">  1       21 0.20796185E-02 0.88683791E+02</pdfrwt>
<pdfrwt beam="2">  1        2 0.64616851E-01 0.88683791E+02</pdfrwt>
<totfact> 0.10220651E+06</totfact>
</mgrwt>
</event>
<event>
 6    2  0.7993170E+000  0.8519191E+02  0.7546771E-02  0.1314931E+00
         21   -1    0    0  501  502  0.00000000000E+00  0.00000000000E+00  0.13616744362E+02  0.13616744362E+02  0.00000000000E+00 0. -1.
          2   -1    0    0  502    0 -0.00000000000E+00 -0.00000000000E+00 -0.26948272950E+03  0.26948272950E+03  0.00000000000E+00 0. -1.
         24    2    1    2    0    0  0.11602290199E+02 -0.21485267769E+02 -0.23815799655E+03  0.25293653752E+03  0.81617588930E+02 0.  0.
        -11    1    3    3    0    0 -0.33714089060E+02  0.18659710206E+01 -0.10782020885E+03  0.11298371160E+03  0.00000000000E+00 0.  1.
         12    1    3    3    0    0  0.45316379259E+02 -0.23351238789E+02 -0.13033778770E+03  0.13995282592E+03  0.00000000000E+00 0. -1.
          1    1    1    2  501    0 -0.11602290199E+02  0.21485267769E+02 -0.17707988590E+02  0.30162936343E+02  0.00000000000E+00 0. -1.
<mgrwt>
<rscale>  1 0.85191905E+02</rscale>
<asrwt>0</asrwt>
<pdfrwt beam="1">  1       21 0.20948838E-02 0.85191905E+02</pdfrwt>
<pdfrwt beam="2">  1        2 0.41458880E-01 0.85191905E+02</pdfrwt>
<totfact> 0.15997203E+06</totfact>
</mgrwt>
</event>
<event>
 6    2  0.7993170E+000  0.8279672E+02  0.7546771E-02  0.1321297E+00
         21   -1    0    0  501  502  0.00000000000E+00  0.00000000000E+00  0.98088450589E+01  0.98088450589E+01  0.00000000000E+00 0.  1.
          2   -1    0    0  502    0 -0.00000000000E+00 -0.00000000000E+00 -0.31509066946E+03  0.31509066946E+03  0.00000000000E+00 0. -1.
         24    2    1    2    0    0 -0.16511972408E+02 -0.11696647009E+02 -0.28271261713E+03  0.29458737337E+03  0.80285988075E+02 0.  0.
        -13    1    3    3    0    0 -0.27338524012E+02 -0.41327535683E+02 -0.20043414255E+03  0.20646841308E+03  0.00000000000E+00 0.  1.
         14    1    3    3    0    0  0.10826551604E+02  0.29630888674E+02 -0.82278474578E+02  0.88118960287E+02  0.00000000000E+00 0. -1.
          1    1    1    2  501    0  0.16511972408E+02  0.11696647009E+02 -0.22569207269E+02  0.30312141146E+02  0.00000000000E+00 0. -1.
<mgrwt>
<rscale>  1 0.82796719E+02</rscale>
<asrwt>0</asrwt>
<pdfrwt beam="1">  1       21 0.15090530E-02 0.82796719E+02</pdfrwt>
<pdfrwt beam="2">  1        2 0.48475491E-01 0.82796719E+02</pdfrwt>
<totfact> 0.22817270E+06</totfact>
</mgrwt>
</event>
<event>
 6    2  0.7993170E+000  0.8305539E+02  0.7546771E-02  0.1320598E+00
         21   -1    0    0  501  502  0.00000000000E+00  0.00000000000E+00  0.64887713191E+01  0.64887713191E+01  0.00000000000E+00 0.  1.
          2   -1    0    0  502    0 -0.00000000000E+00 -0.00000000000E+00 -0.43417942672E+03  0.43417942672E+03  0.00000000000E+00 0. -1.
         24    2    1    2    0    0  0.19291704333E+01  0.20634262053E+02 -0.37412520470E+03  0.38323343524E+03  0.80428245192E+02 0.  0.
        -11    1    3    3    0    0  0.31176486080E+02  0.68569717757E+01 -0.64929825075E+02  0.72352425878E+02  0.00000000000E+00 0.  1.
         12    1    3    3    0    0 -0.29247315646E+02  0.13777290277E+02 -0.30919537963E+03  0.31088100936E+03  0.00000000000E+00 0. -1.
          1    1    1    2  501    0 -0.19291704333E+01 -0.20634262053E+02 -0.53565450699E+02  0.57434762798E+02  0.00000000000E+00 0. -1.
<mgrwt>
<rscale>  1 0.83055386E+02</rscale>
<asrwt>0</asrwt>
<pdfrwt beam="1">  1       21 0.99827228E-03 0.83055386E+02</pdfrwt>
<pdfrwt beam="2">  1        2 0.66796850E-01 0.83055386E+02</pdfrwt>
<totfact> 0.31221718E+06</totfact>
</mgrwt>
</event>
<event>
 6    2  0.7993170E+000  0.1191762E+03  0.7546771E-02  0.1244462E+00
         21   -1    0    0  501  502  0.00000000000E+00  0.00000000000E+00  0.19322240499E+03  0.19322240499E+03  0.00000000000E+00 0. -1.
          2   -1    0    0  502    0 -0.00000000000E+00 -0.00000000000E+00 -0.17111625383E+03  0.17111625383E+03  0.00000000000E+00 0. -1.
         24    2    1    2    0    0 -0.72846985930E+02 -0.53644746611E+02 -0.13683303094E+03  0.18145589364E+03  0.77579125950E+02 0.  0.
        -13    1    3    3    0    0  0.21079007052E+01 -0.40651008530E+02 -0.31229307147E+02  0.51305139750E+02  0.00000000000E+00 0.  1.
         14    1    3    3    0    0 -0.74954886635E+02 -0.12993738081E+02 -0.10560372379E+03  0.13015075389E+03  0.00000000000E+00 0. -1.
          1    1    1    2  501    0  0.72846985930E+02  0.53644746611E+02  0.15893918209E+03  0.18288276518E+03  0.00000000000E+00 0. -1.
<mgrwt>
<rscale>  1 0.11917618E+03</rscale>
<asrwt>0</asrwt>
<pdfrwt beam="1">  1       21 0.29726524E-01 0.11917618E+03</pdfrwt>
<pdfrwt beam="2">  1        2 0.26325578E-01 0.11917618E+03</pdfrwt>
<totfact> 0.27108430E+04</totfact>
</mgrwt>
</event>
<event>
 6    2  0.7993170E+000  0.7247396E+02  0.7546771E-02  0.1351877E+00
         21   -1    0    0  501  502  0.00000000000E+00  0.00000000000E+00  0.64724565932E+01  0.64724565932E+01  0.00000000000E+00 0. -1.
          2   -1    0    0  502    0 -0.00000000000E+00 -0.00000000000E+00 -0.49896067512E+03  0.49896067512E+03  0.00000000000E+00 0. -1.
         24    2    1    2    0    0 -0.23409852147E+02 -0.79211125324E+01 -0.45362222449E+03  0.45937522584E+03  0.68130098781E+02 0.  0.
        -11    1    3    3    0    0  0.37831658668E+01  0.24762460048E+02 -0.95215472851E+02  0.98455462224E+02  0.00000000000E+00 0.  1.
         12    1    3    3    0    0 -0.27193018014E+02 -0.32683572581E+02 -0.35840675164E+03  0.36091976361E+03  0.00000000000E+00 0. -1.
          1    1    1    2  501    0  0.23409852147E+02  0.79211125324E+01 -0.38865994038E+02  0.46057905878E+02  0.00000000000E+00 0. -1.
<mgrwt>
<rscale>  1 0.72473965E+02</rscale>
<asrwt>0</asrwt>
<pdfrwt beam="1">  1       21 0.99576223E-03 0.72473965E+02</pdfrwt>
<pdfrwt beam="2">  1        2 0.76763206E-01 0.72473965E+02</pdfrwt>
<totfact> 0.26561375E+06</totfact>
</mgrwt>
</event>
<event>
 6    2  0.7993170E+000  0.8843016E+02  0.7546771E-02  0.1306698E+00
         21   -1    0    0  501  502  0.00000000000E+00  0.00000000000E+00  0.66840339310E+01  0.66840339310E+01  0.00000000000E+00 0. -1.
          2   -1    0    0  502    0 -0.00000000000E+00 -0.00000000000E+00 -0.19445970202E+04  0.19445970202E+04  0.00000000000E+00 0. -1.
         24    2    1    2    0    0 -0.35973589974E+02 -0.66140880701E+01 -0.18843331781E+04  0.18864070133E+04  0.80511168359E+02 0.  0.
        -13    1    3    3    0    0  0.12746268037E+02 -0.27442321278E+02 -0.40663706903E+03  0.40776127116E+03  0.00000000000E+00 0.  1.
         14    1    3    3    0    0 -0.48719858011E+02  0.20828233208E+02 -0.14776961091E+04  0.14786457421E+04  0.00000000000E+00 0. -1.
          1    1    1    2  501    0  0.35973589974E+02  0.66140880701E+01 -0.53579808185E+02  0.64874040893E+02  0.00000000000E+00 0. -1.
<mgrwt>
<rscale>  1 0.88430162E+02</rscale>
<asrwt>0</asrwt>
<pdfrwt beam="1">  1       21 0.10283109E-02 0.88430162E+02</pdfrwt>
<pdfrwt beam="2">  1        2 0.29916936E+00 0.88430162E+02</pdfrwt>
<totfact> 0.36548777E+05</totfact>
</mgrwt>
</event>
<event>
 6    2  0.7993170E+000  0.8604396E+02  0.7546771E-02  0.1312725E+00
         21   -1    0    0  501  502  0.00000000000E+00  0.00000000000E+00  0.15738917533E+02  0.15738917533E+02  0.00000000000E+00 0. -1.
          2   -1    0    0  502    0 -0.00000000000E+00 -0.00000000000E+00 -0.90574356154E+03  0.90574356154E+03  0.00000000000E+00 0. -1.
         24    2    1    2    0    0 -0.35711835297E+01  0.30448559881E+02 -0.88645414624E+03  0.89062029857E+03  0.80397106294E+02 0.  0.
        -11    1    3    3    0    0 -0.29301830292E+02 -0.80236893449E+01 -0.17153886058E+03  0.17420837391E+03  0.00000000000E+00 0.  1.
         12    1    3    3    0    0  0.25730646762E+02  0.38472249226E+02 -0.71491528565E+03  0.71641192467E+03  0.00000000000E+00 0. -1.
          1    1    1    2  501    0  0.35711835297E+01 -0.30448559881E+02 -0.35504977674E+01  0.30862180497E+02  0.00000000000E+00 0. -1.
<mgrwt>
<rscale>  1 0.86043959E+02</rscale>
<asrwt>0</asrwt>
<pdfrwt beam="1">  1       21 0.24213714E-02 0.86043959E+02</pdfrwt>
<pdfrwt beam="2">  1        2 0.13934519E+00 0.86043959E+02</pdfrwt>
<totfact> 0.33269523E+05</totfact>
</mgrwt>
</event>
<event>
 6    2  0.7993170E+000  0.1063740E+03  0.7546771E-02  0.1267436E+00
         21   -1    0    0  501  502  0.00000000000E+00  0.00000000000E+00  0.15498625159E+02  0.15498625159E+02  0.00000000000E+00 0. -1.
          2   -1    0    0  502    0 -0.00000000000E+00 -0.00000000000E+00 -0.55691652768E+03  0.55691652768E+03  0.00000000000E+00 0. -1.
         24    2    1    2    0    0 -0.63360492411E+02 -0.40728420481E+01 -0.21495444611E+03  0.23983504458E+03  0.85348079438E+02 0.  0.
        -11    1    3    3    0    0 -0.86567406689E+01 -0.45788300113E+01  0.64800934262E+01  0.11742932091E+02  0.00000000000E+00 0.  1.
         12    1    3    3    0    0 -0.54703751742E+02  0.50598796314E+00 -0.22143453954E+03  0.22809211249E+03  0.00000000000E+00 0. -1.
          1    1    1    2  501    0  0.63360492411E+02  0.40728420481E+01 -0.32646345641E+03  0.33258010826E+03  0.00000000000E+00 0. -1.
<mgrwt>
<rscale>  1 0.10637403E+03</rscale>
<asrwt>0</asrwt>
<pdfrwt beam="1">  1       21 0.23844038E-02 0.10637403E+03</pdfrwt>
<pdfrwt beam="2">  1        2 0.85679469E-01 0.10637403E+03</pdfrwt>
<totfact> 0.61444128E+05</totfact>
</mgrwt>
</event>
<event>
 6    2  0.7993170E+000  0.9462565E+02  0.7546771E-02  0.1292021E+00
         -1   -1    0    0    0  501 -0.00000000000E+00  0.00000000000E+00  0.16837750067E+03  0.16837750067E+03  0.00000000000E+00 0.  1.
         21   -1    0    0  501  502  0.00000000000E+00 -0.00000000000E+00 -0.33549902995E+02  0.33549902995E+02  0.00000000000E+00 0.  1.
         24    2    1    2    0    0 -0.13817678834E+02 -0.52470780689E+02  0.71937604781E+02  0.11886560570E+03  0.77523558764E+02 0.  0.
        -11    1    3    3    0    0 -0.10087751201E+01 -0.71344261454E+02  0.59379528335E+02  0.92827526386E+02  0.00000000000E+00 0.  1.
         12    1    3    3    0    0 -0.12808903714E+02  0.18873480765E+02  0.12558076446E+02  0.26038079318E+02  0.00000000000E+00 0. -1.
         -2    1    1    2    0  502  0.13817678834E+02  0.52470780689E+02  0.62889992897E+02  0.83061797964E+02  0.00000000000E+00 0.  1.
<mgrwt>
<rscale>  1 0.94625648E+02</rscale>
<asrwt>0</asrwt>
<pdfrwt beam="1">  1       21 0.51615237E-02 0.94625648E+02</pdfrwt>
<pdfrwt beam="2">  1       -1 0.25904230E-01 0.94625648E+02</pdfrwt>
<totfact> 0.28870580E+05</totfact>
</mgrwt>
</event>
<event>
 6    2  0.7993170E+000  0.1004369E+03  0.7546771E-02  0.1279380E+00
         21   -1    0    0  501  502  0.00000000000E+00  0.00000000000E+00  0.15857185377E+03  0.15857185377E+03  0.00000000000E+00 0. -1.
         -1   -1    0    0    0  501 -0.00000000000E+00 -0.00000000000E+00 -0.49619518263E+02  0.49619518263E+02  0.00000000000E+00 0.  1.
         24    2    1    2    0    0  0.30130849876E+02  0.17989190208E+02  0.73568764215E+01  0.10070594797E+03  0.94106775781E+02 0.  0.
        -13    1    3    3    0    0  0.28674150276E+02  0.38216832090E+02 -0.31254477099E+02  0.57092692070E+02  0.00000000000E+00 0.  1.
         14    1    3    3    0    0  0.14566995998E+01 -0.20227641882E+02  0.38611353520E+02  0.43613255903E+02  0.00000000000E+00 0. -1.
         -2    1    1    2    0  502 -0.30130849876E+02 -0.17989190208E+02  0.10159545908E+03  0.10748542406E+03  0.00000000000E+00 0.  1.
<mgrwt>
<rscale>  1 0.10043687E+03</rscale>
<asrwt>0</asrwt>
<pdfrwt beam="1">  1       21 0.24395670E-01 0.10043687E+03</pdfrwt>
<pdfrwt beam="2">  1       -1 0.76337721E-02 0.10043687E+03</pdfrwt>
<totfact> 0.12611163E+05</totfact>
</mgrwt>
</event>
<event>
 6    2  0.7993170E+000  0.8892918E+02  0.7546771E-02  0.1305466E+00
         -1   -1    0    0    0  501 -0.00000000000E+00  0.00000000000E+00  0.43318261356E+03  0.43318261356E+03  0.00000000000E+00 0.  1.
         21   -1    0    0  501  502  0.00000000000E+00 -0.00000000000E+00 -0.90108814603E+01  0.90108814603E+01  0.00000000000E+00 0.  1.
         24    2    1    2    0    0  0.13913424324E+02 -0.33213773667E+02  0.29886820883E+03  0.31181822481E+03  0.81312120493E+02 0.  0.
        -11    1    3    3    0    0  0.44890591580E+02 -0.35050639330E+02  0.21420306744E+03  0.22164536230E+03  0.00000000000E+00 0.  1.
         12    1    3    3    0    0 -0.30977167257E+02  0.18368656634E+01  0.84665141394E+02  0.90172862514E+02  0.00000000000E+00 0. -1.
         -2    1    1    2    0  502 -0.13913424324E+02  0.33213773667E+02  0.12530352326E+03  0.13037527020E+03  0.00000000000E+00 0.  1.
<mgrwt>
<rscale>  1 0.88929180E+02</rscale>
<asrwt>0</asrwt>
<pdfrwt beam="1">  1       21 0.13862898E-02 0.88929180E+02</pdfrwt>
<pdfrwt beam="2">  1       -1 0.66643463E-01 0.88929180E+02</pdfrwt>
<totfact> 0.45894453E+05</totfact>
</mgrwt>
</event>
<event>
 6    2  0.7993170E+000  0.9088358E+02  0.7546771E-02  0.1300726E+00
          2   -1    0    0  502    0 -0.00000000000E+00  0.00000000000E+00  0.49207029943E+03  0.49207029943E+03  0.00000000000E+00 0. -1.
         21   -1    0    0  501  502  0.00000000000E+00 -0.00000000000E+00 -0.19596661779E+02  0.19596661779E+02  0.00000000000E+00 0. -1.
         24    2    1    2    0    0 -0.46874640137E+01  0.42317911368E+02  0.45764476950E+03  0.46658178325E+03  0.80293508225E+02 0.  0.
        -11    1    3    3    0    0 -0.14762367825E+02 -0.10013922164E+02  0.25251684082E+02  0.30916883574E+02  0.00000000000E+00 0.  1.
         12    1    3    3    0    0  0.10074903812E+02  0.52331833533E+02  0.43239308542E+03  0.43566489967E+03  0.00000000000E+00 0. -1.
          1    1    1    2  501    0  0.46874640137E+01 -0.42317911368E+02  0.14828868150E+02  0.45085177964E+02  0.00000000000E+00 0. -1.
<mgrwt>
<rscale>  1 0.90883582E+02</rscale>
<asrwt>0</asrwt>
<pdfrwt beam="1">  1       21 0.30148714E-02 0.90883582E+02</pdfrwt>
<pdfrwt beam="2">  1        2 0.75703114E-01 0.90883582E+02</pdfrwt>
<totfact> 0.47520411E+05</totfact>
</mgrwt>
</event>
<event>
 6    2  0.7993170E+000  0.8361334E+02  0.7546771E-02  0.1319099E+00
         -1   -1    0    0    0  501 -0.00000000000E+00  0.00000000000E+00  0.11934370651E+03  0.11934370651E+03  0.00000000000E+00 0.  1.
         21   -1    0    0  501  502  0.00000000000E+00 -0.00000000000E+00 -0.23804973626E+02  0.23804973626E+02  0.00000000000E+00 0. -1.
         24    2    1    2    0    0  0.14452094263E+02  0.17575098987E+02  0.71088297613E+02  0.10974851669E+03  0.80457713900E+02 0.  0.
        -13    1    3    3    0    0 -0.32459877588E+02  0.42417855352E+01  0.16884357333E+02  0.36833652006E+02  0.00000000000E+00 0.  1.
         14    1    3    3    0    0  0.46911971851E+02  0.13333313451E+02  0.54203940280E+02  0.72914864688E+02  0.00000000000E+00 0. -1.
         -2    1    1    2    0  502 -0.14452094263E+02 -0.17575098987E+02  0.24450435267E+02  0.33400163439E+02  0.00000000000E+00 0.  1.
<mgrwt>
<rscale>  1 0.83613341E+02</rscale>
<asrwt>0</asrwt>
<pdfrwt beam="1">  1       21 0.36623037E-02 0.83613341E+02</pdfrwt>
<pdfrwt beam="2">  1       -1 0.18360570E-01 0.83613341E+02</pdfrwt>
<totfact> 0.87153411E+05</totfact>
</mgrwt>
</event>
<event>
 6    2  0.7993170E+000  0.8519393E+02  0.7546771E-02  0.1314926E+00
         21   -1    0    0  501  502  0.00000000000E+00  0.00000000000E+00  0.94727281973E+02  0.94727281973E+02  0.00000000000E+00 0. -1.
          2   -1    0    0  502    0 -0.00000000000E+00 -0.00000000000E+00 -0.50407018287E+02  0.50407018287E+02  0.00000000000E+00 0. -1.
         24    2    1    2    0    0 -0.24239650046E+02  0.13342542160E+02 -0.83870550338E+01  0.85605773382E+02  0.80575565022E+02 0.  0.
        -11    1    3    3    0    0 -0.28532290702E+02 -0.13175285946E+02  0.26823489932E+02  0.41318027356E+02  0.00000000000E+00 0.  1.
         12    1    3    3    0    0  0.42926406559E+01  0.26517828106E+02 -0.35210544966E+02  0.44287746026E+02  0.00000000000E+00 0. -1.
          1    1    1    2  501    0  0.24239650046E+02 -0.13342542160E+02  0.52707318719E+02  0.59528526878E+02  0.00000000000E+00 0. -1.
<mgrwt>
<rscale>  1 0.85193930E+02</rscale>
<asrwt>0</asrwt>
<pdfrwt beam="1">  1       21 0.14573428E-01 0.85193930E+02</pdfrwt>
<pdfrwt beam="2">  1        2 0.77549259E-02 0.85193930E+02</pdfrwt>
<totfact> 0.41406761E+05</totfact>
</mgrwt>
</event>
<event>
 6    2  0.7993170E+000  0.8391726E+02  0.7546771E-02  0.1318289E+00
         21   -1    0    0  501  502  0.00000000000E+00  0.00000000000E+00  0.60968858282E+02  0.60968858282E+02  0.00000000000E+00 0.  1.
          2   -1    0    0  502    0 -0.00000000000E+00 -0.00000000000E+00 -0.50031961541E+02  0.50031961541E+02  0.00000000000E+00 0. -1.
         24    2    1    2    0    0  0.19098833854E+02 -0.11955634568E+02 -0.39243693454E+01  0.84008971384E+02  0.80835660112E+02 0.  0.
        -11    1    3    3    0    0  0.36415165531E+02 -0.33988045384E+02 -0.17596287907E+02  0.52828788154E+02  0.00000000000E+00 0.  1.
         12    1    3    3    0    0 -0.17316331678E+02  0.22032410815E+02  0.13671918562E+02  0.31180183230E+02  0.00000000000E+00 0. -1.
          1    1    1    2  501    0 -0.19098833854E+02  0.11955634568E+02  0.14861266086E+02  0.26991848440E+02  0.00000000000E+00 0. -1.
<mgrwt>
<rscale>  1 0.83917260E+02</rscale>
<asrwt>0</asrwt>
<pdfrwt beam="1">  1       21 0.93798244E-02 0.83917260E+02</pdfrwt>
<pdfrwt beam="2">  1        2 0.76972248E-02 0.83917260E+02</pdfrwt>
<totfact> 0.90174785E+05</totfact>
</mgrwt>
</event>
<event>
 6    2  0.7993170E+000  0.8619443E+02  0.7546771E-02  0.1312338E+00
          4   -1    0    0  502    0 -0.00000000000E+00  0.00000000000E+00  0.52238964558E+02  0.52238964558E+02  0.00000000000E+00 0. -1.
         21   -1    0    0  501  502  0.00000000000E+00 -0.00000000000E+00 -0.19958499729E+03  0.19958499729E+03  0.00000000000E+00 0. -1.
         24    2    1    2    0    0  0.97952076097E+01  0.30350359137E+02  0.14028250718E+02  0.87328521938E+02  0.80077390903E+02 0.  0.
        -13    1    3    3    0    0  0.21393370191E+02 -0.10324314533E+02 -0.21539177709E+02  0.32065619206E+02  0.00000000000E+00 0.  1.
         14    1    3    3    0    0 -0.11598162582E+02  0.40674673670E+02  0.35567428427E+02  0.55262902732E+02  0.00000000000E+00 0. -1.
          3    1    1    2  501    0 -0.97952076097E+01 -0.30350359137E+02 -0.16137428345E+03  0.16449543991E+03  0.00000000000E+00 0. -1.
<mgrwt>
<rscale>  1 0.86194425E+02</rscale>
<asrwt>0</asrwt>
<pdfrwt beam="1">  1       21 0.30705385E-01 0.86194425E+02</pdfrwt>
<pdfrwt beam="2">  1        4 0.80367636E-02 0.86194425E+02</pdfrwt>
<totfact> 0.42902542E+04</totfact>
</mgrwt>
</event>
<event>
 6    2  0.7993170E+000  0.1037113E+03  0.7546771E-02  0.1272680E+00
          2   -1    0    0  502    0 -0.00000000000E+00  0.00000000000E+00  0.17469450489E+04  0.17469450489E+04  0.00000000000E+00 0. -1.
         21   -1    0    0  501  502  0.00000000000E+00 -0.00000000000E+00 -0.50851815560E+01  0.50851815560E+01  0.00000000000E+00 0.  1.
         24    2    1    2    0    0 -0.26612994198E+02  0.59319241706E+02  0.14132570341E+04  0.14170573272E+04  0.80802229273E+02 0.  0.
        -11    1    3    3    0    0 -0.30135906626E+02  0.77276223002E+02  0.12567411062E+04  0.12594752858E+04  0.00000000000E+00 0.  1.
         12    1    3    3    0    0  0.35229124288E+01 -0.17956981296E+02  0.15651592788E+03  0.15758204140E+03  0.00000000000E+00 0. -1.
          1    1    1    2  501    0  0.26612994198E+02 -0.59319241706E+02  0.32860283326E+03  0.33497290327E+03  0.00000000000E+00 0. -1.
<mgrwt>
<rscale>  1 0.10371125E+03</rscale>
<asrwt>0</asrwt>
<pdfrwt beam="1">  1       21 0.78233702E-03 0.10371125E+03</pdfrwt>
<pdfrwt beam="2">  1        2 0.26876030E+00 0.10371125E+03</pdfrwt>
<totfact> 0.70762343E+05</totfact>
</mgrwt>
</event>
<event>
 6    2  0.7993170E+000  0.8731191E+02  0.7546771E-02  0.1309495E+00
         21   -1    0    0  501  502  0.00000000000E+00  0.00000000000E+00  0.67642821771E+02  0.67642821771E+02  0.00000000000E+00 0. -1.
          2   -1    0    0  502    0 -0.00000000000E+00 -0.00000000000E+00 -0.13480084187E+03  0.13480084187E+03  0.00000000000E+00 0. -1.
         24    2    1    2    0    0  0.28337940198E+02  0.11011601209E+02 -0.11583315414E+03  0.14505409238E+03  0.81847882705E+02 0.  0.
        -11    1    3    3    0    0 -0.14600898059E+02 -0.26405441098E+02 -0.35706242783E+02  0.46747933830E+02  0.00000000000E+00 0.  1.
         12    1    3    3    0    0  0.42938838257E+02  0.37417042307E+02 -0.80126911356E+02  0.98306158552E+02  0.00000000000E+00 0. -1.
          1    1    1    2  501    0 -0.28337940198E+02 -0.11011601209E+02  0.48675134038E+02  0.57389571261E+02  0.00000000000E+00 0. -1.
<mgrwt>
<rscale>  1 0.87311913E+02</rscale>
<asrwt>0</asrwt>
<pdfrwt beam="1">  1       21 0.10406588E-01 0.87311913E+02</pdfrwt>
<pdfrwt beam="2">  1        2 0.20738591E-01 0.87311913E+02</pdfrwt>
<totfact> 0.23547435E+05</totfact>
</mgrwt>
</event>
<event>
 6    2  0.7993170E+000  0.1081134E+03  0.7546771E-02  0.1264104E+00
         21   -1    0    0  501  502  0.00000000000E+00  0.00000000000E+00  0.53455138175E+01  0.53455138175E+01  0.00000000000E+00 0. -1.
          2   -1    0    0  502    0 -0.00000000000E+00 -0.00000000000E+00 -0.18106559441E+04  0.18106559441E+04  0.00000000000E+00 0. -1.
         24    2    1    2    0    0  0.32737260987E+02 -0.62672643223E+02 -0.68670183110E+03  0.69516035114E+03  0.81785820914E+02 0.  0.
        -11    1    3    3    0    0  0.10217919038E+02  0.87268374136E+01 -0.18983803255E+02  0.23258296299E+02  0.00000000000E+00 0.  1.
         12    1    3    3    0    0  0.22519341949E+02 -0.71399480636E+02 -0.66771802784E+03  0.67190205484E+03  0.00000000000E+00 0. -1.
          1    1    1    2  501    0 -0.32737260987E+02  0.62672643223E+02 -0.11186085992E+04  0.11208411067E+04  0.00000000000E+00 0. -1.
<mgrwt>
<rscale>  1 0.10811341E+03</rscale>
<asrwt>0</asrwt>
<pdfrwt beam="1">  1       21 0.82238639E-03 0.10811341E+03</pdfrwt>
<pdfrwt beam="2">  1        2 0.27856257E+00 0.10811341E+03</pdfrwt>
<totfact> 0.60887746E+05</totfact>
</mgrwt>
</event>
<event>
 6    2  0.7993170E+000  0.8260275E+02  0.7546771E-02  0.1321823E+00
         21   -1    0    0  501  502  0.00000000000E+00  0.00000000000E+00  0.10126808328E+03  0.10126808328E+03  0.00000000000E+00 0. -1.
          2   -1    0    0  502    0 -0.00000000000E+00 -0.00000000000E+00 -0.83677885111E+02  0.83677885111E+02  0.00000000000E+00 0. -1.
         24    2    1    2    0    0  0.14550467684E+02  0.18432619288E+02 -0.61152750720E+02  0.10277584266E+03  0.79194301243E+02 0.  0.
        -11    1    3    3    0    0 -0.41041474802E+01  0.20840867022E+02  0.13911240587E+02  0.25391108275E+02  0.00000000000E+00 0.  1.
         12    1    3    3    0    0  0.18654615164E+02 -0.24082477346E+01 -0.75063991308E+02  0.77384734380E+02  0.00000000000E+00 0. -1.
          1    1    1    2  501    0 -0.14550467684E+02 -0.18432619288E+02  0.78742948893E+02  0.82170125739E+02  0.00000000000E+00 0. -1.
<mgrwt>
<rscale>  1 0.82602754E+02</rscale>
<asrwt>0</asrwt>
<pdfrwt beam="1">  1       21 0.15579705E-01 0.82602754E+02</pdfrwt>
<pdfrwt beam="2">  1        2 0.12873521E-01 0.82602754E+02</pdfrwt>
<totfact> 0.19873954E+05</totfact>
</mgrwt>
</event>
<event>
 6    2  0.7993170E+000  0.8794617E+02  0.7546771E-02  0.1307903E+00
          2   -1    0    0  502    0 -0.00000000000E+00  0.00000000000E+00  0.17218077203E+02  0.17218077203E+02  0.00000000000E+00 0. -1.
         21   -1    0    0  501  502  0.00000000000E+00 -0.00000000000E+00 -0.24830508693E+03  0.24830508693E+03  0.00000000000E+00 0.  1.
         24    2    1    2    0    0 -0.23748326669E+01  0.35212440208E+02 -0.11873438467E+03  0.14775785459E+03  0.80554166329E+02 0.  0.
        -11    1    3    3    0    0 -0.88741147417E+00  0.40555126804E+02 -0.12946910588E+03  0.13567518265E+03  0.00000000000E+00 0.  1.
         12    1    3    3    0    0 -0.14874211927E+01 -0.53426865953E+01  0.10734721206E+02  0.12082671941E+02  0.00000000000E+00 0. -1.
          1    1    1    2  501    0  0.23748326669E+01 -0.35212440208E+02 -0.11235262506E+03  0.11776530955E+03  0.00000000000E+00 0. -1.
<mgrwt>
<rscale>  1 0.87946174E+02</rscale>
<asrwt>0</asrwt>
<pdfrwt beam="1">  1       21 0.38200778E-01 0.87946174E+02</pdfrwt>
<pdfrwt beam="2">  1        2 0.26489352E-02 0.87946174E+02</pdfrwt>
<totfact> 0.27675987E+05</totfact>
</mgrwt>
</event>
<event>
 6    2  0.7993170E+000  0.8300333E+02  0.7546771E-02  0.1320738E+00
         -1   -1    0    0    0  501 -0.00000000000E+00  0.00000000000E+00  0.23045419645E+03  0.23045419645E+03  0.00000000000E+00 0.  1.
         21   -1    0    0  501  502  0.00000000000E+00 -0.00000000000E+00 -0.26245251053E+02  0.26245251053E+02  0.00000000000E+00 0.  1.
         24    2    1    2    0    0 -0.18164161209E+02 -0.10917635260E+02  0.21673246405E+03  0.23208298896E+03  0.80252235358E+02 0.  0.
        -11    1    3    3    0    0 -0.42926495663E+02 -0.15063858785E+02  0.19015726242E+03  0.19552337027E+03  0.00000000000E+00 0.  1.
         12    1    3    3    0    0  0.24762334454E+02  0.41462235244E+01  0.26575201633E+02  0.36559618693E+02  0.00000000000E+00 0. -1.
         -2    1    1    2    0  502  0.18164161209E+02  0.10917635260E+02 -0.12523518647E+02  0.24616458547E+02  0.00000000000E+00 0.  1.
<mgrwt>
<rscale>  1 0.83003330E+02</rscale>
<asrwt>0</asrwt>
<pdfrwt beam="1">  1       21 0.40377311E-02 0.83003330E+02</pdfrwt>
<pdfrwt beam="2">  1       -1 0.35454490E-01 0.83003330E+02</pdfrwt>
<totfact> 0.25414655E+05</totfact>
</mgrwt>
</event>
<event>
 6    2  0.7993170E+000  0.8388412E+02  0.7546771E-02  0.1318377E+00
         21   -1    0    0  501  502  0.00000000000E+00  0.00000000000E+00  0.32805326428E+01  0.32805326428E+01  0.00000000000E+00 0. -1.
          2   -1    0    0  502    0 -0.00000000000E+00 -0.00000000000E+00 -0.95033562819E+03  0.95033562819E+03  0.00000000000E+00 0. -1.
         24    2    1    2    0    0  0.91467381050E+01  0.24290547990E+02 -0.64161628540E+03  0.64707650551E+03  0.79767491854E+02 0.  0.
        -11    1    3    3    0    0 -0.97833684512E+01 -0.17325426036E+02 -0.51783115072E+02  0.55474099291E+02  0.00000000000E+00 0.  1.
         12    1    3    3    0    0  0.18930106556E+02  0.41615974026E+02 -0.58983317033E+03  0.59160240622E+03  0.00000000000E+00 0. -1.
          1    1    1    2  501    0 -0.91467381050E+01 -0.24290547990E+02 -0.30543881015E+03  0.30653965532E+03  0.00000000000E+00 0. -1.
<mgrwt>
<rscale>  1 0.83884124E+02</rscale>
<asrwt>0</asrwt>
<pdfrwt beam="1">  1       21 0.50469724E-03 0.83884124E+02</pdfrwt>
<pdfrwt beam="2">  1        2 0.14620551E+00 0.83884124E+02</pdfrwt>
<totfact> 0.36400749E+06</totfact>
</mgrwt>
</event>
<event>
 6    2  0.7993170E+000  0.9822530E+02  0.7546771E-02  0.1284073E+00
          2   -1    0    0  502    0 -0.00000000000E+00  0.00000000000E+00  0.33324344297E+03  0.33324344297E+03  0.00000000000E+00 0. -1.
         21   -1    0    0  501  502  0.00000000000E+00 -0.00000000000E+00 -0.43670700552E+02  0.43670700552E+02  0.00000000000E+00 0. -1.
         24    2    1    2    0    0  0.33767096502E+02  0.45501519075E+02  0.30313462454E+03  0.31865155097E+03  0.80234688850E+02 0.  0.
        -11    1    3    3    0    0  0.15685987168E+02 -0.16553826776E+02  0.28436492920E+02  0.36451522656E+02  0.00000000000E+00 0.  1.
         12    1    3    3    0    0  0.18081109334E+02  0.62055345852E+02  0.27469813162E+03  0.28220002831E+03  0.00000000000E+00 0. -1.
          1    1    1    2  501    0 -0.33767096502E+02 -0.45501519075E+02 -0.13561882124E+02  0.58262592554E+02  0.00000000000E+00 0. -1.
<mgrwt>
<rscale>  1 0.98225304E+02</rscale>
<asrwt>0</asrwt>
<pdfrwt beam="1">  1       21 0.67185695E-02 0.98225304E+02</pdfrwt>
<pdfrwt beam="2">  1        2 0.51268220E-01 0.98225304E+02</pdfrwt>
<totfact> 0.19099749E+05</totfact>
</mgrwt>
</event>
<event>
 6    2  0.7993170E+000  0.8519992E+02  0.7546771E-02  0.1314911E+00
         21   -1    0    0  501  502  0.00000000000E+00  0.00000000000E+00  0.70239242367E+01  0.70239242367E+01  0.00000000000E+00 0. -1.
          2   -1    0    0  502    0 -0.00000000000E+00 -0.00000000000E+00 -0.15654494174E+04  0.15654494174E+04  0.00000000000E+00 0. -1.
         24    2    1    2    0    0 -0.16521164677E+02 -0.32750460908E+02 -0.15064498088E+04  0.15088572011E+04  0.76899189224E+02 0.  0.
        -13    1    3    3    0    0  0.72988612826E+01 -0.49354266661E+01 -0.18858994868E+02  0.20815703203E+02  0.00000000000E+00 0.  1.
         14    1    3    3    0    0 -0.23820025960E+02 -0.27815034242E+02 -0.14875908139E+04  0.14880414979E+04  0.00000000000E+00 0. -1.
          1    1    1    2  501    0  0.16521164677E+02  0.32750460908E+02 -0.51975684369E+02  0.63616140543E+02  0.00000000000E+00 0. -1.
<mgrwt>
<rscale>  1 0.85199923E+02</rscale>
<asrwt>0</asrwt>
<pdfrwt beam="1">  1       21 0.10806032E-02 0.85199923E+02</pdfrwt>
<pdfrwt beam="2">  1        2 0.24083848E+00 0.85199923E+02</pdfrwt>
<totfact> 0.52331506E+05</totfact>
</mgrwt>
</event>
<event>
 6    2  0.7993170E+000  0.9029757E+02  0.7546771E-02  0.1302133E+00
         21   -1    0    0  501  502  0.00000000000E+00  0.00000000000E+00  0.32519299584E+01  0.32519299584E+01  0.00000000000E+00 0. -1.
          2   -1    0    0  502    0 -0.00000000000E+00 -0.00000000000E+00 -0.30074881539E+04  0.30074881539E+04  0.00000000000E+00 0. -1.
         24    2    1    2    0    0 -0.26149982947E+02  0.17739728457E+02 -0.29089456638E+04  0.29103468051E+04  0.84588008978E+02 0.  0.
        -11    1    3    3    0    0 -0.57969103866E+01 -0.32630716102E+02 -0.77261998031E+03  0.77333046091E+03  0.00000000000E+00 0.  1.
         12    1    3    3    0    0 -0.20353072561E+02  0.50370444559E+02 -0.21363256835E+04  0.21370163442E+04  0.00000000000E+00 0. -1.
          1    1    1    2  501    0  0.26149982947E+02 -0.17739728457E+02 -0.95290560136E+02  0.10039327878E+03  0.00000000000E+00 0. -1.
<mgrwt>
<rscale>  1 0.90297568E+02</rscale>
<asrwt>0</asrwt>
<pdfrwt beam="1">  1       21 0.50029463E-03 0.90297568E+02</pdfrwt>
<pdfrwt beam="2">  1        2 0.46269260E+00 0.90297568E+02</pdfrwt>
<totfact> 0.30681487E+05</totfact>
</mgrwt>
</event>
<event>
 6    2  0.7993170E+000  0.1006829E+03  0.7546771E-02  0.1278866E+00
          4   -1    0    0  502    0 -0.00000000000E+00  0.00000000000E+00  0.15139166270E+04  0.15139166270E+04  0.00000000000E+00 0. -1.
         21   -1    0    0  501  502  0.00000000000E+00 -0.00000000000E+00 -0.83374038559E+01  0.83374038559E+01  0.00000000000E+00 0. -1.
         24    2    1    2    0    0  0.19250112084E+02 -0.58612686094E+02  0.13653107078E+04  0.13690180358E+04  0.79567830858E+02 0.  0.
        -13    1    3    3    0    0  0.86225117001E+01  0.19365666008E+02  0.22578856909E+03  0.22678151305E+03  0.00000000000E+00 0.  1.
         14    1    3    3    0    0  0.10627600384E+02 -0.77978352102E+02  0.11395221387E+04  0.11422365228E+04  0.00000000000E+00 0. -1.
          3    1    1    2  501    0 -0.19250112084E+02  0.58612686094E+02  0.14026851536E+03  0.15323599508E+03  0.00000000000E+00 0. -1.
<mgrwt>
<rscale>  1 0.10068294E+03</rscale>
<asrwt>0</asrwt>
<pdfrwt beam="1">  1       21 0.12826787E-02 0.10068294E+03</pdfrwt>
<pdfrwt beam="2">  1        4 0.23291003E+00 0.10068294E+03</pdfrwt>
<totfact> 0.92983926E+03</totfact>
</mgrwt>
</event>
<event>
 6    2  0.7993170E+000  0.8583397E+02  0.7546771E-02  0.1313266E+00
          4   -1    0    0  502    0 -0.00000000000E+00  0.00000000000E+00  0.50319187207E+02  0.50319187207E+02  0.00000000000E+00 0. -1.
         21   -1    0    0  501  502  0.00000000000E+00 -0.00000000000E+00 -0.72247584199E+02  0.72247584199E+02  0.00000000000E+00 0.  1.
         24    2    1    2    0    0 -0.23176002024E+02 -0.76456988235E+01  0.53058697691E+01  0.85997808250E+02  0.82291475801E+02 0.  0.
        -13    1    3    3    0    0 -0.17971794182E+02  0.31560377730E+02 -0.17530686198E+02  0.40328250485E+02  0.00000000000E+00 0.  1.
         14    1    3    3    0    0 -0.52042078423E+01 -0.39206076554E+02  0.22836555967E+02  0.45669557765E+02  0.00000000000E+00 0. -1.
          3    1    1    2  501    0  0.23176002024E+02  0.76456988235E+01 -0.27234266761E+02  0.36568963156E+02  0.00000000000E+00 0. -1.
<mgrwt>
<rscale>  1 0.85833972E+02</rscale>
<asrwt>0</asrwt>
<pdfrwt beam="1">  1       21 0.11115013E-01 0.85833972E+02</pdfrwt>
<pdfrwt beam="2">  1        4 0.77414134E-02 0.85833972E+02</pdfrwt>
<totfact> 0.28939394E+05</totfact>
</mgrwt>
</event>
<event>
 6    2  0.7993170E+000  0.9029671E+02  0.7546771E-02  0.1302135E+00
         21   -1    0    0  501  502  0.00000000000E+00  0.00000000000E+00  0.21281449974E+02  0.21281449974E+02  0.00000000000E+00 0. -1.
          2   -1    0    0  502    0 -0.00000000000E+00 -0.00000000000E+00 -0.26806390228E+03  0.26806390228E+03  0.00000000000E+00 0. -1.
         24    2    1    2    0    0  0.38632683894E+02  0.44182212593E+00 -0.23024767577E+03  0.24732061779E+03  0.81613824281E+02 0.  0.
        -11    1    3    3    0    0  0.70193500560E+01  0.17557798823E+02 -0.54670068058E+01  0.19683387365E+02  0.00000000000E+00 0.  1.
         12    1    3    3    0    0  0.31613333838E+02 -0.17115976698E+02 -0.22478066897E+03  0.22763723042E+03  0.00000000000E+00 0. -1.
          1    1    1    2  501    0 -0.38632683894E+02 -0.44182212593E+00 -0.16534776533E+02  0.42024734462E+02  0.00000000000E+00 0. -1.
<mgrwt>
<rscale>  1 0.90296710E+02</rscale>
<asrwt>0</asrwt>
<pdfrwt beam="1">  1       21 0.32740691E-02 0.90296710E+02</pdfrwt>
<pdfrwt beam="2">  1        2 0.41240602E-01 0.90296710E+02</pdfrwt>
<totfact> 0.78692079E+05</totfact>
</mgrwt>
</event>
<event>
 6    2  0.7993170E+000  0.7550989E+02  0.7546771E-02  0.1342299E+00
          2   -1    0    0  502    0 -0.00000000000E+00  0.00000000000E+00  0.12414013993E+04  0.12414013993E+04  0.00000000000E+00 0. -1.
         21   -1    0    0  501  502  0.00000000000E+00 -0.00000000000E+00 -0.80858649029E+01  0.80858649029E+01  0.00000000000E+00 0. -1.
         24    2    1    2    0    0  0.27424368923E+02 -0.27057079249E+02  0.11863132011E+04  0.11887139075E+04  0.64942753653E+02 0.  0.
        -13    1    3    3    0    0 -0.84156931368E+01 -0.53188609219E+00  0.22207057905E+02  0.23754162048E+02  0.00000000000E+00 0.  1.
         14    1    3    3    0    0  0.35840062060E+02 -0.26525193157E+02  0.11641061432E+04  0.11649597454E+04  0.00000000000E+00 0. -1.
          1    1    1    2  501    0 -0.27424368923E+02  0.27057079249E+02  0.47002333290E+02  0.60773356687E+02  0.00000000000E+00 0. -1.
<mgrwt>
<rscale>  1 0.75509885E+02</rscale>
<asrwt>0</asrwt>
<pdfrwt beam="1">  1       21 0.12439802E-02 0.75509885E+02</pdfrwt>
<pdfrwt beam="2">  1        2 0.19098468E+00 0.75509885E+02</pdfrwt>
<totfact> 0.61290155E+05</totfact>
</mgrwt>
</event>
<event>
 6    2  0.7993170E+000  0.1006197E+03  0.7546771E-02  0.1278998E+00
          2   -1    0    0  502    0 -0.00000000000E+00  0.00000000000E+00  0.15765925237E+04  0.15765925237E+04  0.00000000000E+00 0. -1.
         21   -1    0    0  501  502  0.00000000000E+00 -0.00000000000E+00 -0.50174563838E+01  0.50174563838E+01  0.00000000000E+00 0. -1.
         24    2    1    2    0    0  0.54578580482E+02  0.17229484431E+02  0.13094087026E+04  0.13132690041E+04  0.82756572041E+02 0.  0.
        -11    1    3    3    0    0  0.65128044517E+02  0.26170887827E+02  0.66161843317E+03  0.66533114211E+03  0.00000000000E+00 0.  1.
         12    1    3    3    0    0 -0.10549464036E+02 -0.89414033959E+01  0.64779026940E+03  0.64793786200E+03  0.00000000000E+00 0. -1.
          1    1    1    2  501    0 -0.54578580482E+02 -0.17229484431E+02  0.26216636477E+03  0.26834097599E+03  0.00000000000E+00 0. -1.
<mgrwt>
<rscale>  1 0.10061971E+03</rscale>
<asrwt>0</asrwt>
<pdfrwt beam="1">  1       21 0.77191762E-03 0.10061971E+03</pdfrwt>
<pdfrwt beam="2">  1        2 0.24255230E+00 0.10061971E+03</pdfrwt>
<totfact> 0.88017494E+05</totfact>
</mgrwt>
</event>
<event>
 6    2  0.7993170E+000  0.9794447E+02  0.7546771E-02  0.1284679E+00
          4   -1    0    0  502    0 -0.00000000000E+00  0.00000000000E+00  0.24559652305E+02  0.24559652305E+02  0.00000000000E+00 0. -1.
         21   -1    0    0  501  502  0.00000000000E+00 -0.00000000000E+00 -0.24592346593E+03  0.24592346593E+03  0.00000000000E+00 0.  1.
         24    2    1    2    0    0  0.17705058991E+02  0.52814577951E+02 -0.12075055510E+03  0.15547930722E+03  0.80562209858E+02 0.  0.
        -13    1    3    3    0    0  0.34002468768E+02 -0.86962404073E+00 -0.77514571526E+02  0.84648880247E+02  0.00000000000E+00 0.  1.
         14    1    3    3    0    0 -0.16297409777E+02  0.53684201992E+02 -0.43235983578E+02  0.70830426971E+02  0.00000000000E+00 0. -1.
          3    1    1    2  501    0 -0.17705058991E+02 -0.52814577951E+02 -0.10061325852E+03  0.11500381102E+03  0.00000000000E+00 0. -1.
<mgrwt>
<rscale>  1 0.97944466E+02</rscale>
<asrwt>0</asrwt>
<pdfrwt beam="1">  1       21 0.37834378E-01 0.97944466E+02</pdfrwt>
<pdfrwt beam="2">  1        4 0.37784082E-02 0.97944466E+02</pdfrwt>
<totfact> 0.97780823E+04</totfact>
</mgrwt>
</event>
<event>
 6    2  0.7993170E+000  0.1076801E+03  0.7546771E-02  0.1264927E+00
          2   -1    0    0  502    0 -0.00000000000E+00  0.00000000000E+00  0.77592739445E+03  0.77592739445E+03  0.00000000000E+00 0. -1.
         21   -1    0    0  501  502  0.00000000000E+00 -0.00000000000E+00 -0.94717889257E+01  0.94717889257E+01  0.00000000000E+00 0.  1.
         24    2    1    2    0    0  0.32050712807E+02  0.55135904783E+02  0.48347959678E+03  0.49532567939E+03  0.86762849055E+02 0.  0.
        -11    1    3    3    0    0 -0.28906927291E+01  0.13583141411E+01 -0.31514182982E+01  0.44869320310E+01  0.00000000000E+00 0.  1.
         12    1    3    3    0    0  0.34941405536E+02  0.53777590642E+02  0.48663101508E+03  0.49083874736E+03  0.00000000000E+00 0. -1.
          1    1    1    2  501    0 -0.32050712807E+02 -0.55135904783E+02  0.28297600874E+03  0.29007350398E+03  0.00000000000E+00 0. -1.
<mgrwt>
<rscale>  1 0.10768012E+03</rscale>
<asrwt>0</asrwt>
<pdfrwt beam="1">  1       21 0.14571989E-02 0.10768012E+03</pdfrwt>
<pdfrwt beam="2">  1        2 0.11937340E+00 0.10768012E+03</pdfrwt>
<totfact> 0.92260738E+05</totfact>
</mgrwt>
</event>
<event>
 6    2  0.7993170E+000  0.1095435E+03  0.7546771E-02  0.1261418E+00
         21   -1    0    0  501  502  0.00000000000E+00  0.00000000000E+00  0.14215968305E+03  0.14215968305E+03  0.00000000000E+00 0.  1.
          2   -1    0    0  502    0 -0.00000000000E+00 -0.00000000000E+00 -0.59801575498E+02  0.59801575498E+02  0.00000000000E+00 0. -1.
         24    2    1    2    0    0 -0.11183431252E+01 -0.73981794480E+02  0.58705452685E+02  0.12428240243E+03  0.80778888158E+02 0.  0.
        -13    1    3    3    0    0 -0.19357533122E+01 -0.60539566384E+02  0.79232193506E+02  0.99732275250E+02  0.00000000000E+00 0.  1.
         14    1    3    3    0    0  0.81741018705E+00 -0.13442228097E+02 -0.20526740821E+02  0.24550127176E+02  0.00000000000E+00 0. -1.
          1    1    1    2  501    0  0.11183431252E+01  0.73981794480E+02  0.23652654864E+02  0.77678856119E+02  0.00000000000E+00 0. -1.
<mgrwt>
<rscale>  1 0.10954353E+03</rscale>
<asrwt>0</asrwt>
<pdfrwt beam="1">  1       21 0.21870720E-01 0.10954353E+03</pdfrwt>
<pdfrwt beam="2">  1        2 0.92002424E-02 0.10954353E+03</pdfrwt>
<totfact> 0.16345545E+05</totfact>
</mgrwt>
</event>
<event>
 6    2  0.7993170E+000  0.8398647E+02  0.7546771E-02  0.1318105E+00
          2   -1    0    0  502    0 -0.00000000000E+00  0.00000000000E+00  0.19840207240E+04  0.19840207240E+04  0.00000000000E+00 0. -1.
         21   -1    0    0  501  502  0.00000000000E+00 -0.00000000000E+00 -0.23217154149E+01  0.23217154149E+01  0.00000000000E+00 0. -1.
         24    2    1    2    0    0 -0.14614565013E+02  0.22991383976E+02  0.18473989213E+04  0.18493070327E+04  0.79445185771E+02 0.  0.
        -13    1    3    3    0    0  0.21097777504E+02  0.32181505391E+01  0.16031369176E+03  0.16172802007E+03  0.00000000000E+00 0.  1.
         14    1    3    3    0    0 -0.35712342517E+02  0.19773233437E+02  0.16870852295E+04  0.16875790126E+04  0.00000000000E+00 0. -1.
          1    1    1    2  501    0  0.14614565013E+02 -0.22991383976E+02  0.13430008731E+03  0.13703540674E+03  0.00000000000E+00 0. -1.
<mgrwt>
<rscale>  1 0.83986468E+02</rscale>
<asrwt>0</asrwt>
<pdfrwt beam="1">  1       21 0.35718857E-03 0.83986468E+02</pdfrwt>
<pdfrwt beam="2">  1        2 0.30523260E+00 0.83986468E+02</pdfrwt>
<totfact> 0.17738320E+06</totfact>
</mgrwt>
</event>
<event>
 6    2  0.7993170E+000  0.8593575E+02  0.7546771E-02  0.1313003E+00
         21   -1    0    0  501  502  0.00000000000E+00  0.00000000000E+00  0.23636976033E+01  0.23636976033E+01  0.00000000000E+00 0.  1.
          2   -1    0    0  502    0 -0.00000000000E+00 -0.00000000000E+00 -0.24480856685E+04  0.24480856685E+04  0.00000000000E+00 0. -1.
         24    2    1    2    0    0 -0.33355849722E+02  0.14460848564E+01 -0.22674523704E+04  0.22690802553E+04  0.79184906046E+02 0.  0.
        -13    1    3    3    0    0 -0.17954304556E+02 -0.76803359305E+01 -0.12198481742E+03  0.12353801153E+03  0.00000000000E+00 0.  1.
         14    1    3    3    0    0 -0.15401545165E+02  0.91264207869E+01 -0.21454675530E+04  0.21455422438E+04  0.00000000000E+00 0. -1.
          1    1    1    2  501    0  0.33355849722E+02 -0.14460848564E+01 -0.17826960055E+03  0.18136911080E+03  0.00000000000E+00 0. -1.
<mgrwt>
<rscale>  1 0.85935751E+02</rscale>
<asrwt>0</asrwt>
<pdfrwt beam="1">  1       21 0.36364447E-03 0.85935751E+02</pdfrwt>
<pdfrwt beam="2">  1        2 0.37662993E+00 0.85935751E+02</pdfrwt>
<totfact> 0.10036187E+06</totfact>
</mgrwt>
</event>
<event>
 6    2  0.7993170E+000  0.9622299E+02  0.7546771E-02  0.1288445E+00
         21   -1    0    0  501  502  0.00000000000E+00  0.00000000000E+00  0.38924556351E+01  0.38924556351E+01  0.00000000000E+00 0. -1.
          2   -1    0    0  502    0 -0.00000000000E+00 -0.00000000000E+00 -0.19303551622E+04  0.19303551622E+04  0.00000000000E+00 0. -1.
         24    2    1    2    0    0  0.15617512629E+02  0.49376843477E+02 -0.16607478885E+04  0.16635331116E+04  0.81097994427E+02 0.  0.
        -11    1    3    3    0    0 -0.13386871266E+01 -0.60601816377E+01 -0.10011907363E+02  0.11779481047E+02  0.00000000000E+00 0.  1.
         12    1    3    3    0    0  0.16956199756E+02  0.55437025115E+02 -0.16507359812E+04  0.16517536306E+04  0.00000000000E+00 0. -1.
          1    1    1    2  501    0 -0.15617512629E+02 -0.49376843477E+02 -0.26571481802E+03  0.27071450624E+03  0.00000000000E+00 0. -1.
<mgrwt>
<rscale>  1 0.96222991E+02</rscale>
<asrwt>0</asrwt>
<pdfrwt beam="1">  1       21 0.59884060E-03 0.96222991E+02</pdfrwt>
<pdfrwt beam="2">  1        2 0.29697709E+00 0.96222991E+02</pdfrwt>
<totfact> 0.86272162E+05</totfact>
</mgrwt>
</event>
<event>
 6    2  0.7993170E+000  0.8901418E+02  0.7546771E-02  0.1305257E+00
         21   -1    0    0  501  502  0.00000000000E+00  0.00000000000E+00  0.67283319420E+02  0.67283319420E+02  0.00000000000E+00 0. -1.
          4   -1    0    0  502    0 -0.00000000000E+00 -0.00000000000E+00 -0.21470391956E+03  0.21470391956E+03  0.00000000000E+00 0. -1.
         24    2    1    2    0    0 -0.31938589071E+02  0.25839380944E+02 -0.19784415760E+03  0.21694661915E+03  0.78966941093E+02 0.  0.
        -11    1    3    3    0    0  0.21859702196E+02 -0.58558114380E+01 -0.28084251015E+02  0.36067468206E+02  0.00000000000E+00 0.  1.
         12    1    3    3    0    0 -0.53798291267E+02  0.31695192382E+02 -0.16975990659E+03  0.18087915095E+03  0.00000000000E+00 0. -1.
          3    1    1    2  501    0  0.31938589071E+02 -0.25839380944E+02  0.50423557465E+02  0.65040619822E+02  0.00000000000E+00 0. -1.
<mgrwt>
<rscale>  1 0.89014184E+02</rscale>
<asrwt>0</asrwt>
<pdfrwt beam="1">  1       21 0.10351280E-01 0.89014184E+02</pdfrwt>
<pdfrwt beam="2">  1        4 0.33031373E-01 0.89014184E+02</pdfrwt>
<totfact> 0.26062031E+04</totfact>
</mgrwt>
</event>
<event>
 6    2  0.7993170E+000  0.9258630E+02  0.7546771E-02  0.1296707E+00
         21   -1    0    0  501  502  0.00000000000E+00  0.00000000000E+00  0.24053699288E+02  0.24053699288E+02  0.00000000000E+00 0. -1.
          2   -1    0    0  502    0 -0.00000000000E+00 -0.00000000000E+00 -0.21662669941E+03  0.21662669941E+03  0.00000000000E+00 0. -1.
         24    2    1    2    0    0 -0.27489947153E+01 -0.45416987989E+02 -0.93127042358E+02  0.13131971890E+03  0.80634749235E+02 0.  0.
        -11    1    3    3    0    0  0.60661818281E+01  0.10139529260E+02  0.89140467299E+01  0.14800974450E+02  0.00000000000E+00 0.  1.
         12    1    3    3    0    0 -0.88151765434E+01 -0.55556517249E+02 -0.10204108909E+03  0.11651874445E+03  0.00000000000E+00 0. -1.
          1    1    1    2  501    0  0.27489947153E+01  0.45416987989E+02 -0.99445957765E+02  0.10936067980E+03  0.00000000000E+00 0. -1.
<mgrwt>
<rscale>  1 0.92586298E+02</rscale>
<asrwt>0</asrwt>
<pdfrwt beam="1">  1       21 0.37005691E-02 0.92586298E+02</pdfrwt>
<pdfrwt beam="2">  1        2 0.33327185E-01 0.92586298E+02</pdfrwt>
<totfact> 0.80808565E+05</totfact>
</mgrwt>
</event>
<event>
 6    2  0.7993170E+000  0.8765260E+02  0.7546771E-02  0.1308638E+00
          2   -1    0    0  502    0 -0.00000000000E+00  0.00000000000E+00  0.24058887641E+04  0.24058887641E+04  0.00000000000E+00 0. -1.
         21   -1    0    0  501  502  0.00000000000E+00 -0.00000000000E+00 -0.16638880890E+01  0.16638880890E+01  0.00000000000E+00 0.  1.
         24    2    1    2    0    0  0.39393184008E+01  0.36153960046E+02  0.14610732921E+04  0.14637001546E+04  0.79751805617E+02 0.  0.
        -11    1    3    3    0    0  0.37809210930E+02  0.22162797207E+01  0.50050656303E+03  0.50193751400E+03  0.00000000000E+00 0.  1.
         12    1    3    3    0    0 -0.33869892529E+02  0.33937680326E+02  0.96056672908E+03  0.96176264056E+03  0.00000000000E+00 0. -1.
          1    1    1    2  501    0 -0.39393184008E+01 -0.36153960046E+02  0.94315158394E+03  0.94385249766E+03  0.00000000000E+00 0. -1.
<mgrwt>
<rscale>  1 0.87652596E+02</rscale>
<asrwt>0</asrwt>
<pdfrwt beam="1">  1       21 0.25598471E-03 0.87652596E+02</pdfrwt>
<pdfrwt beam="2">  1        2 0.37013395E+00 0.87652596E+02</pdfrwt>
<totfact> 0.17963506E+06</totfact>
</mgrwt>
</event>
<event>
 6    2  0.7993170E+000  0.8431110E+02  0.7546771E-02  0.1317244E+00
          2   -1    0    0  502    0 -0.00000000000E+00  0.00000000000E+00  0.85548405182E+03  0.85548405182E+03  0.00000000000E+00 0. -1.
         21   -1    0    0  501  502  0.00000000000E+00 -0.00000000000E+00 -0.12085771247E+02  0.12085771247E+02  0.00000000000E+00 0. -1.
         24    2    1    2    0    0 -0.22847345281E+02 -0.17287440052E+02  0.83274584975E+03  0.83700299379E+03  0.79293786407E+02 0.  0.
        -11    1    3    3    0    0 -0.27500126370E+01  0.12609471206E+02  0.22363058346E+02  0.25819909221E+02  0.00000000000E+00 0.  1.
         12    1    3    3    0    0 -0.20097332644E+02 -0.29896911258E+02  0.81038279141E+03  0.81118308457E+03  0.00000000000E+00 0. -1.
          1    1    1    2  501    0  0.22847345281E+02  0.17287440052E+02  0.10652430827E+02  0.30566829284E+02  0.00000000000E+00 0. -1.
<mgrwt>
<rscale>  1 0.84311099E+02</rscale>
<asrwt>0</asrwt>
<pdfrwt beam="1">  1       21 0.18593501E-02 0.84311099E+02</pdfrwt>
<pdfrwt beam="2">  1        2 0.13161288E+00 0.84311099E+02</pdfrwt>
<totfact> 0.54514832E+05</totfact>
</mgrwt>
</event>
<event>
 6    2  0.7993170E+000  0.8470891E+02  0.7546771E-02  0.1316196E+00
         21   -1    0    0  501  502  0.00000000000E+00  0.00000000000E+00  0.19331342710E+01  0.19331342710E+01  0.00000000000E+00 0. -1.
          2   -1    0    0  502    0 -0.00000000000E+00 -0.00000000000E+00 -0.38119798333E+04  0.38119798333E+04  0.00000000000E+00 0. -1.
         24    2    1    2    0    0  0.19224163021E+02  0.10286287133E+02 -0.37296624884E+04  0.37306243281E+04  0.81854895122E+02 0.  0.
        -11    1    3    3    0    0 -0.89215887457E+01  0.18304141243E+02 -0.24671444029E+03  0.24755333038E+03  0.00000000000E+00 0.  1.
         12    1    3    3    0    0  0.28145751767E+02 -0.80178541099E+01 -0.34829480482E+04  0.34830709978E+04  0.00000000000E+00 0. -1.
          1    1    1    2  501    0 -0.19224163021E+02 -0.10286287133E+02 -0.80384210573E+02  0.83288639419E+02  0.00000000000E+00 0. -1.
<mgrwt>
<rscale>  1 0.84708913E+02</rscale>
<asrwt>0</asrwt>
<pdfrwt beam="1">  1       21 0.29740842E-03 0.84708913E+02</pdfrwt>
<pdfrwt beam="2">  1        2 0.58645223E+00 0.84708913E+02</pdfrwt>
<totfact> 0.21264561E+05</totfact>
</mgrwt>
</event>
<event>
 6    2  0.7993170E+000  0.1742109E+03  0.7546771E-02  0.1173526E+00
          2   -1    0    0  502    0 -0.00000000000E+00  0.00000000000E+00  0.29965008482E+03  0.29965008482E+03  0.00000000000E+00 0. -1.
         21   -1    0    0  501  502  0.00000000000E+00 -0.00000000000E+00 -0.93073649933E+02  0.93073649933E+02  0.00000000000E+00 0. -1.
         24    2    1    2    0    0  0.91211929019E+02 -0.12453824530E+03  0.74141334060E+02  0.18933138861E+03  0.80746806513E+02 0.  0.
        -13    1    3    3    0    0  0.19901250680E+02 -0.53680006946E+02  0.67606212195E+02  0.88590083258E+02  0.00000000000E+00 0.  1.
         14    1    3    3    0    0  0.71310678339E+02 -0.70858238350E+02  0.65351218648E+01  0.10074130536E+03  0.00000000000E+00 0. -1.
          1    1    1    2  501    0 -0.91211929019E+02  0.12453824530E+03  0.13243510083E+03  0.20339234614E+03  0.00000000000E+00 0. -1.
<mgrwt>
<rscale>  1 0.17421090E+03</rscale>
<asrwt>0</asrwt>
<pdfrwt beam="1">  1       21 0.14319023E-01 0.17421090E+03</pdfrwt>
<pdfrwt beam="2">  1        2 0.46100013E-01 0.17421090E+03</pdfrwt>
<totfact> 0.57932381E+04</totfact>
</mgrwt>
</event>
<event>
 6    2  0.7993170E+000  0.7977361E+02  0.7546771E-02  0.1329695E+00
         21   -1    0    0  501  502  0.00000000000E+00  0.00000000000E+00  0.11418870433E+03  0.11418870433E+03  0.00000000000E+00 0. -1.
         -1   -1    0    0    0  501 -0.00000000000E+00 -0.00000000000E+00 -0.28172775941E+02  0.28172775941E+02  0.00000000000E+00 0.  1.
         24    2    1    2    0    0  0.75459046600E+01 -0.26466701010E+02  0.41237819202E+02  0.89801933070E+02  0.74875914092E+02 0.  0.
        -11    1    3    3    0    0 -0.11747397623E+02 -0.37614989382E+02 -0.37635370817E+01  0.39586020114E+02  0.00000000000E+00 0.  1.
         12    1    3    3    0    0  0.19293302283E+02  0.11148288372E+02  0.45001356284E+02  0.50215912956E+02  0.00000000000E+00 0. -1.
         -2    1    1    2    0  502 -0.75459046600E+01  0.26466701010E+02  0.44778109184E+02  0.52559547197E+02  0.00000000000E+00 0.  1.
<mgrwt>
<rscale>  1 0.79773614E+02</rscale>
<asrwt>0</asrwt>
<pdfrwt beam="1">  1       21 0.17567493E-01 0.79773614E+02</pdfrwt>
<pdfrwt beam="2">  1       -1 0.43342733E-02 0.79773614E+02</pdfrwt>
<totfact> 0.51909335E+05</totfact>
</mgrwt>
</event>
<event>
 6    2  0.7993170E+000  0.9221800E+02  0.7546771E-02  0.1297568E+00
          2   -1    0    0  502    0 -0.00000000000E+00  0.00000000000E+00  0.14878604739E+04  0.14878604739E+04  0.00000000000E+00 0. -1.
         21   -1    0    0  501  502  0.00000000000E+00 -0.00000000000E+00 -0.33119521931E+01  0.33119521931E+01  0.00000000000E+00 0. -1.
         24    2    1    2    0    0 -0.79422693680E+01  0.45099619990E+02  0.85443718380E+03  0.85939924407E+03  0.80044389438E+02 0.  0.
        -11    1    3    3    0    0  0.12447479916E+02 -0.20225321762E+02  0.20976806191E+03  0.21110813152E+03  0.00000000000E+00 0.  1.
         12    1    3    3    0    0 -0.20389749284E+02  0.65324941753E+02  0.64466912190E+03  0.64829111256E+03  0.00000000000E+00 0. -1.
          1    1    1    2  501    0  0.79422693680E+01 -0.45099619990E+02  0.63011133789E+03  0.63177318201E+03  0.00000000000E+00 0. -1.
<mgrwt>
<rscale>  1 0.92218001E+02</rscale>
<asrwt>0</asrwt>
<pdfrwt beam="1">  1       21 0.50953229E-03 0.92218001E+02</pdfrwt>
<pdfrwt beam="2">  1        2 0.22890108E+00 0.92218001E+02</pdfrwt>
<totfact> 0.18450842E+06</totfact>
</mgrwt>
</event>
<event>
 6    2  0.7993170E+000  0.8336278E+02  0.7546771E-02  0.1319770E+00
         21   -1    0    0  501  502  0.00000000000E+00  0.00000000000E+00  0.77464890326E+01  0.77464890326E+01  0.00000000000E+00 0. -1.
         -3   -1    0    0    0  501 -0.00000000000E+00 -0.00000000000E+00 -0.45629339278E+03  0.45629339278E+03  0.00000000000E+00 0.  1.
         24    2    1    2    0    0  0.11077049071E+02  0.20831997561E+02 -0.41331148014E+03  0.42163459659E+03  0.79954238675E+02 0.  0.
        -13    1    3    3    0    0  0.16529897651E+02  0.24547729382E+02 -0.41394883866E+03  0.41500538498E+03  0.00000000000E+00 0.  1.
         14    1    3    3    0    0 -0.54528485799E+01 -0.37157318205E+01  0.63735852045E+00  0.66292116033E+01  0.00000000000E+00 0. -1.
         -4    1    1    2    0  502 -0.11077049071E+02 -0.20831997561E+02 -0.35235423602E+02  0.42405285224E+02  0.00000000000E+00 0.  1.
<mgrwt>
<rscale>  1 0.83362782E+02</rscale>
<asrwt>0</asrwt>
<pdfrwt beam="1">  1       21 0.11917672E-02 0.83362782E+02</pdfrwt>
<pdfrwt beam="2">  1       -3 0.70199003E-01 0.83362782E+02</pdfrwt>
<totfact> 0.24601026E+05</totfact>
</mgrwt>
</event>
<event>
 6    2  0.7993170E+000  0.9433213E+02  0.7546771E-02  0.1292687E+00
         21   -1    0    0  501  502  0.00000000000E+00  0.00000000000E+00  0.32441284089E+01  0.32441284089E+01  0.00000000000E+00 0.  1.
         -1   -1    0    0    0  501 -0.00000000000E+00 -0.00000000000E+00 -0.14367755122E+04  0.14367755122E+04  0.00000000000E+00 0.  1.
         24    2    1    2    0    0  0.30179234867E+02  0.28818310401E+02 -0.93605672628E+03  0.94079793024E+03  0.84600647219E+02 0.  0.
        -13    1    3    3    0    0  0.44444697176E+02  0.39103355362E+02 -0.88130793406E+03  0.88329387983E+03  0.00000000000E+00 0.  1.
         14    1    3    3    0    0 -0.14265462309E+02 -0.10285044961E+02 -0.54748792222E+02  0.57504050418E+02  0.00000000000E+00 0. -1.
         -2    1    1    2    0  502 -0.30179234867E+02 -0.28818310401E+02 -0.49747465749E+03  0.49922171034E+03  0.00000000000E+00 0.  1.
<mgrwt>
<rscale>  1 0.94332130E+02</rscale>
<asrwt>0</asrwt>
<pdfrwt beam="1">  1       21 0.49909754E-03 0.94332130E+02</pdfrwt>
<pdfrwt beam="2">  1       -1 0.22104200E+00 0.94332130E+02</pdfrwt>
<totfact> 0.12558895E+05</totfact>
</mgrwt>
</event>
<event>
 6    2  0.7993170E+000  0.8579916E+02  0.7546771E-02  0.1313356E+00
          2   -1    0    0  502    0 -0.00000000000E+00  0.00000000000E+00  0.40357119970E+03  0.40357119970E+03  0.00000000000E+00 0. -1.
         21   -1    0    0  501  502  0.00000000000E+00 -0.00000000000E+00 -0.10989344453E+02  0.10989344453E+02  0.00000000000E+00 0.  1.
         24    2    1    2    0    0 -0.21525411786E+02  0.11769994895E+02  0.37418552614E+03  0.38389621542E+03  0.82216908871E+02 0.  0.
        -13    1    3    3    0    0 -0.12409871559E+02 -0.13690026235E+02  0.15290405869E+02  0.23983707847E+02  0.00000000000E+00 0.  1.
         14    1    3    3    0    0 -0.91155402269E+01  0.25460021130E+02  0.35889512027E+03  0.35991250757E+03  0.00000000000E+00 0. -1.
          1    1    1    2  501    0  0.21525411786E+02 -0.11769994895E+02  0.18396329108E+02  0.30664328739E+02  0.00000000000E+00 0. -1.
<mgrwt>
<rscale>  1 0.85799162E+02</rscale>
<asrwt>0</asrwt>
<pdfrwt beam="1">  1       21 0.16906687E-02 0.85799162E+02</pdfrwt>
<pdfrwt beam="2">  1        2 0.62087866E-01 0.85799162E+02</pdfrwt>
<totfact> 0.14777551E+06</totfact>
</mgrwt>
</event>
<event>
 6    2  0.7993170E+000  0.1019497E+03  0.7546771E-02  0.1276249E+00
          2   -1    0    0  502    0 -0.00000000000E+00  0.00000000000E+00  0.65018288828E+03  0.65018288828E+03  0.00000000000E+00 0. -1.
         21   -1    0    0  501  502  0.00000000000E+00 -0.00000000000E+00 -0.10727141488E+02  0.10727141488E+02  0.00000000000E+00 0.  1.
         24    2    1    2    0    0 -0.58255469237E+02 -0.21037102235E+02  0.45680599965E+03  0.46804430058E+03  0.80978309543E+02 0.  0.
        -13    1    3    3    0    0 -0.44909755373E+02 -0.23274016314E+02  0.11109176282E+03  0.12206533385E+03  0.00000000000E+00 0.  1.
         14    1    3    3    0    0 -0.13345713863E+02  0.22369140787E+01  0.34571423684E+03  0.34597896672E+03  0.00000000000E+00 0. -1.
          1    1    1    2  501    0  0.58255469237E+02  0.21037102235E+02  0.18264974714E+03  0.19286572920E+03  0.00000000000E+00 0. -1.
<mgrwt>
<rscale>  1 0.10194972E+03</rscale>
<asrwt>0</asrwt>
<pdfrwt beam="1">  1       21 0.16503300E-02 0.10194972E+03</pdfrwt>
<pdfrwt beam="2">  1        2 0.10002811E+00 0.10194972E+03</pdfrwt>
<totfact> 0.92838248E+05</totfact>
</mgrwt>
</event>
<event>
 6    2  0.7993170E+000  0.8441472E+02  0.7546771E-02  0.1316970E+00
         21   -1    0    0  501  502  0.00000000000E+00  0.00000000000E+00  0.29893667842E+03  0.29893667842E+03  0.00000000000E+00 0. -1.
          4   -1    0    0  502    0 -0.00000000000E+00 -0.00000000000E+00 -0.30708699369E+02  0.30708699369E+02  0.00000000000E+00 0. -1.
         24    2    1    2    0    0 -0.49862390803E+01 -0.24067572151E+02  0.29148097359E+02  0.89305409330E+02  0.80757253213E+02 0.  0.
        -11    1    3    3    0    0 -0.21032523075E+02 -0.48896962796E+02  0.26945718155E+02  0.59660302752E+02  0.00000000000E+00 0.  1.
         12    1    3    3    0    0  0.16046283995E+02  0.24829390645E+02  0.22023792038E+01  0.29645106577E+02  0.00000000000E+00 0. -1.
          3    1    1    2  501    0  0.49862390803E+01  0.24067572151E+02  0.23907988169E+03  0.24033996846E+03  0.00000000000E+00 0. -1.
<mgrwt>
<rscale>  1 0.84414718E+02</rscale>
<asrwt>0</asrwt>
<pdfrwt beam="1">  1       21 0.45990256E-01 0.84414718E+02</pdfrwt>
<pdfrwt beam="2">  1        4 0.47244155E-02 0.84414718E+02</pdfrwt>
<totfact> 0.45625935E+04</totfact>
</mgrwt>
</event>
<event>
 6    2  0.7993170E+000  0.9507759E+02  0.7546771E-02  0.1291001E+00
         21   -1    0    0  501  502  0.00000000000E+00  0.00000000000E+00  0.99064652579E+02  0.99064652579E+02  0.00000000000E+00 0. -1.
          4   -1    0    0  502    0 -0.00000000000E+00 -0.00000000000E+00 -0.12900145852E+03  0.12900145852E+03  0.00000000000E+00 0. -1.
         24    2    1    2    0    0  0.44683022668E+02 -0.22654592453E+02 -0.10255262622E+03  0.13984558952E+03  0.80808073159E+02 0.  0.
        -11    1    3    3    0    0 -0.14611199051E+02 -0.18853728165E+02 -0.31783869009E+01  0.24063506534E+02  0.00000000000E+00 0.  1.
         12    1    3    3    0    0  0.59294221719E+02 -0.38008642885E+01 -0.99374239323E+02  0.11578208298E+03  0.00000000000E+00 0. -1.
          3    1    1    2  501    0 -0.44683022668E+02  0.22654592453E+02  0.72615820280E+02  0.88220521586E+02  0.00000000000E+00 0. -1.
<mgrwt>
<rscale>  1 0.95077588E+02</rscale>
<asrwt>0</asrwt>
<pdfrwt beam="1">  1       21 0.15240716E-01 0.95077588E+02</pdfrwt>
<pdfrwt beam="2">  1        4 0.19846378E-01 0.95077588E+02</pdfrwt>
<totfact> 0.33904176E+04</totfact>
</mgrwt>
</event>
<event>
 6    2  0.7993170E+000  0.8681123E+02  0.7546771E-02  0.1310763E+00
         21   -1    0    0  501  502  0.00000000000E+00  0.00000000000E+00  0.60228696116E+01  0.60228696116E+01  0.00000000000E+00 0.  1.
          2   -1    0    0  502    0 -0.00000000000E+00 -0.00000000000E+00 -0.11726916947E+04  0.11726916947E+04  0.00000000000E+00 0. -1.
         24    2    1    2    0    0 -0.33594877694E+02  0.99283300929E+00 -0.11056418694E+04  0.11090446939E+04  0.80041165210E+02 0.  0.
        -13    1    3    3    0    0  0.12940377506E+02 -0.27317049124E+02 -0.51899540934E+03  0.51987489789E+03  0.00000000000E+00 0.  1.
         14    1    3    3    0    0 -0.46535255200E+02  0.28309882133E+02 -0.58664646007E+03  0.58916979600E+03  0.00000000000E+00 0. -1.
          1    1    1    2  501    0  0.33594877694E+02 -0.99283300929E+00 -0.61026955649E+02  0.69669870392E+02  0.00000000000E+00 0. -1.
<mgrwt>
<rscale>  1 0.86811230E+02</rscale>
<asrwt>0</asrwt>
<pdfrwt beam="1">  1       21 0.92659664E-03 0.86811230E+02</pdfrwt>
<pdfrwt beam="2">  1        2 0.18041385E+00 0.86811230E+02</pdfrwt>
<totfact> 0.10678714E+06</totfact>
</mgrwt>
</event>
<event>
 6    2  0.7993170E+000  0.9176496E+02  0.7546771E-02  0.1298633E+00
         21   -1    0    0  501  502  0.00000000000E+00  0.00000000000E+00  0.25308343223E+01  0.25308343223E+01  0.00000000000E+00 0.  1.
          2   -1    0    0  502    0 -0.00000000000E+00 -0.00000000000E+00 -0.17703356403E+04  0.17703356403E+04  0.00000000000E+00 0. -1.
         24    2    1    2    0    0 -0.13135197627E+02 -0.29202919764E+02 -0.15507200379E+04  0.15534327934E+04  0.85996881410E+02 0.  0.
        -11    1    3    3    0    0 -0.33892429328E+02 -0.33626519855E+02 -0.45325978043E+03  0.45576733994E+03  0.00000000000E+00 0.  1.
         12    1    3    3    0    0  0.20757231702E+02  0.44236000913E+01 -0.10974602575E+04  0.10976654535E+04  0.00000000000E+00 0. -1.
          1    1    1    2  501    0  0.13135197627E+02  0.29202919764E+02 -0.21708476804E+03  0.21943368122E+03  0.00000000000E+00 0. -1.
<mgrwt>
<rscale>  1 0.91764958E+02</rscale>
<asrwt>0</asrwt>
<pdfrwt beam="1">  1       21 0.38936096E-03 0.91764958E+02</pdfrwt>
<pdfrwt beam="2">  1        2 0.27235805E+00 0.91764958E+02</pdfrwt>
<totfact> 0.20024133E+06</totfact>
</mgrwt>
</event>
<event>
 6    2  0.7993170E+000  0.8806621E+02  0.7546771E-02  0.1307603E+00
         21   -1    0    0  501  502  0.00000000000E+00  0.00000000000E+00  0.25209666868E+01  0.25209666868E+01  0.00000000000E+00 0. -1.
          2   -1    0    0  502    0 -0.00000000000E+00 -0.00000000000E+00 -0.12467694590E+04  0.12467694590E+04  0.00000000000E+00 0. -1.
         24    2    1    2    0    0 -0.64641232272E+01  0.21071555799E+02 -0.10772440401E+04  0.10808378139E+04  0.85263489903E+02 0.  0.
        -11    1    3    3    0    0 -0.31820170297E+02 -0.20752995321E+02 -0.55969647961E+03  0.56098427727E+03  0.00000000000E+00 0.  1.
         12    1    3    3    0    0  0.25356047070E+02  0.41824551120E+02 -0.51754756048E+03  0.51985353664E+03  0.00000000000E+00 0. -1.
          1    1    1    2  501    0  0.64641232272E+01 -0.21071555799E+02 -0.16700445225E+03  0.16845261180E+03  0.00000000000E+00 0. -1.
<mgrwt>
<rscale>  1 0.88066214E+02</rscale>
<asrwt>0</asrwt>
<pdfrwt beam="1">  1       21 0.38784080E-03 0.88066214E+02</pdfrwt>
<pdfrwt beam="2">  1        2 0.19181080E+00 0.88066214E+02</pdfrwt>
<totfact> 0.37251733E+06</totfact>
</mgrwt>
</event>
<event>
 6    2  0.7993170E+000  0.8657611E+02  0.7546771E-02  0.1311362E+00
         21   -1    0    0  501  502  0.00000000000E+00  0.00000000000E+00  0.35951571940E+02  0.35951571940E+02  0.00000000000E+00 0.  1.
         -3   -1    0    0    0  501 -0.00000000000E+00 -0.00000000000E+00 -0.12273948524E+03  0.12273948524E+03  0.00000000000E+00 0.  1.
         24    2    1    2    0    0 -0.31349277015E+02  0.15484276903E+02 -0.88341491434E+02  0.12369171996E+03  0.79201530781E+02 0.  0.
        -11    1    3    3    0    0 -0.30106267070E+02  0.44893183023E+02 -0.71976091088E+02  0.90013015098E+02  0.00000000000E+00 0.  1.
         12    1    3    3    0    0 -0.12430099454E+01 -0.29408906119E+02 -0.16365400346E+02  0.33678704865E+02  0.00000000000E+00 0. -1.
         -4    1    1    2    0  502  0.31349277015E+02 -0.15484276903E+02  0.15535781337E+01  0.34999337217E+02  0.00000000000E+00 0.  1.
<mgrwt>
<rscale>  1 0.86576108E+02</rscale>
<asrwt>0</asrwt>
<pdfrwt beam="1">  1       21 0.55310110E-02 0.86576108E+02</pdfrwt>
<pdfrwt beam="2">  1       -3 0.18882998E-01 0.86576108E+02</pdfrwt>
<totfact> 0.24849545E+05</totfact>
</mgrwt>
</event>
<event>
 6    2  0.7993170E+000  0.8683225E+02  0.7546771E-02  0.1310709E+00
          2   -1    0    0  502    0 -0.00000000000E+00  0.00000000000E+00  0.55171290238E+02  0.55171290238E+02  0.00000000000E+00 0. -1.
         21   -1    0    0  501  502  0.00000000000E+00 -0.00000000000E+00 -0.33541258637E+03  0.33541258637E+03  0.00000000000E+00 0. -1.
         24    2    1    2    0    0 -0.31271840646E+02 -0.90240117877E+01  0.19570654277E+02  0.89010392338E+02  0.80501420045E+02 0.  0.
        -13    1    3    3    0    0  0.20846284154E+02 -0.22616404888E+02 -0.23748307814E+01  0.30849783699E+02  0.00000000000E+00 0.  1.
         14    1    3    3    0    0 -0.52118124799E+02  0.13592393100E+02  0.21945485059E+02  0.58160608639E+02  0.00000000000E+00 0. -1.
          1    1    1    2  501    0  0.31271840646E+02  0.90240117877E+01 -0.29981195041E+03  0.30157348427E+03  0.00000000000E+00 0. -1.
<mgrwt>
<rscale>  1 0.86832249E+02</rscale>
<asrwt>0</asrwt>
<pdfrwt beam="1">  1       21 0.51601935E-01 0.86832249E+02</pdfrwt>
<pdfrwt beam="2">  1        2 0.84878910E-02 0.86832249E+02</pdfrwt>
<totfact> 0.33720206E+04</totfact>
</mgrwt>
</event>
<event>
 6    2  0.7993170E+000  0.8313503E+02  0.7546771E-02  0.1320383E+00
         21   -1    0    0  501  502  0.00000000000E+00  0.00000000000E+00  0.80011935635E+02  0.80011935635E+02  0.00000000000E+00 0.  1.
         -3   -1    0    0    0  501 -0.00000000000E+00 -0.00000000000E+00 -0.51636675472E+02  0.51636675472E+02  0.00000000000E+00 0.  1.
         24    2    1    2    0    0  0.23996964711E+02 -0.54441029285E+01  0.51571759979E+02  0.97831896663E+02  0.79409955329E+02 0.  0.
        -13    1    3    3    0    0 -0.18197729115E+01 -0.39599452948E+02  0.31044917593E+02  0.50350920107E+02  0.00000000000E+00 0.  1.
         14    1    3    3    0    0  0.25816737623E+02  0.34155350020E+02  0.20526842386E+02  0.47480976556E+02  0.00000000000E+00 0. -1.
         -4    1    1    2    0  502 -0.23996964711E+02  0.54441029285E+01 -0.23196499816E+02  0.33816714444E+02  0.00000000000E+00 0.  1.
<mgrwt>
<rscale>  1 0.83135032E+02</rscale>
<asrwt>0</asrwt>
<pdfrwt beam="1">  1       21 0.12309529E-01 0.83135032E+02</pdfrwt>
<pdfrwt beam="2">  1       -3 0.79441039E-02 0.83135032E+02</pdfrwt>
<totfact> 0.26544627E+05</totfact>
</mgrwt>
</event>
<event>
 6    2  0.7993170E+000  0.8331020E+02  0.7546771E-02  0.1319912E+00
         -3   -1    0    0    0  501 -0.00000000000E+00  0.00000000000E+00  0.19021850200E+03  0.19021850200E+03  0.00000000000E+00 0.  1.
         21   -1    0    0  501  502  0.00000000000E+00 -0.00000000000E+00 -0.17172574875E+02  0.17172574875E+02  0.00000000000E+00 0.  1.
         24    2    1    2    0    0  0.23639657432E+02  0.10521799779E+02  0.15458541861E+03  0.17560535604E+03  0.79189947278E+02 0.  0.
        -13    1    3    3    0    0  0.49350340714E+02 -0.10051890277E+02  0.95229568922E+02  0.10772728263E+03  0.00000000000E+00 0.  1.
         14    1    3    3    0    0 -0.25710683282E+02  0.20573690056E+02  0.59355849686E+02  0.67878073406E+02  0.00000000000E+00 0. -1.
         -4    1    1    2    0  502 -0.23639657432E+02 -0.10521799779E+02  0.18460508513E+02  0.31785720830E+02  0.00000000000E+00 0.  1.
<mgrwt>
<rscale>  1 0.83310200E+02</rscale>
<asrwt>0</asrwt>
<pdfrwt beam="1">  1       21 0.26419347E-02 0.83310200E+02</pdfrwt>
<pdfrwt beam="2">  1       -3 0.29264384E-01 0.83310200E+02</pdfrwt>
<totfact> 0.38134042E+05</totfact>
</mgrwt>
</event>
<event>
 6    2  0.7993170E+000  0.8712059E+02  0.7546771E-02  0.1309978E+00
          2   -1    0    0  502    0 -0.00000000000E+00  0.00000000000E+00  0.13737274525E+04  0.13737274525E+04  0.00000000000E+00 0. -1.
         21   -1    0    0  501  502  0.00000000000E+00 -0.00000000000E+00 -0.10621379795E+02  0.10621379795E+02  0.00000000000E+00 0. -1.
         24    2    1    2    0    0 -0.18659114045E+02  0.24224635914E+02  0.13469516183E+04  0.13497661499E+04  0.81578195194E+02 0.  0.
        -13    1    3    3    0    0 -0.31603653298E+02 -0.13492315163E+02  0.28469971318E+03  0.28676603731E+03  0.00000000000E+00 0.  1.
         14    1    3    3    0    0  0.12944539253E+02  0.37716951077E+02  0.10622519051E+04  0.10630001126E+04  0.00000000000E+00 0. -1.
          1    1    1    2  501    0  0.18659114045E+02 -0.24224635914E+02  0.16154454393E+02  0.34582682354E+02  0.00000000000E+00 0. -1.
<mgrwt>
<rscale>  1 0.87120591E+02</rscale>
<asrwt>0</asrwt>
<pdfrwt beam="1">  1       21 0.16340595E-02 0.87120591E+02</pdfrwt>
<pdfrwt beam="2">  1        2 0.21134254E+00 0.87120591E+02</pdfrwt>
<totfact> 0.34231608E+05</totfact>
</mgrwt>
</event>
<event>
 6    2  0.7993170E+000  0.1040597E+03  0.7546771E-02  0.1271983E+00
         -3   -1    0    0    0  501 -0.00000000000E+00  0.00000000000E+00  0.41798078423E+03  0.41798078423E+03  0.00000000000E+00 0.  1.
         21   -1    0    0  501  502  0.00000000000E+00 -0.00000000000E+00 -0.13983819365E+02  0.13983819365E+02  0.00000000000E+00 0. -1.
         24    2    1    2    0    0 -0.32120974959E+02  0.51576337803E+01  0.20061679974E+03  0.22599895164E+03  0.98843652232E+02 0.  0.
        -13    1    3    3    0    0  0.31526723944E+02  0.13488507789E+02  0.10799259637E+03  0.11330611209E+03  0.00000000000E+00 0.  1.
         14    1    3    3    0    0 -0.63647698903E+02 -0.83308740088E+01  0.92624203368E+02  0.11269283955E+03  0.00000000000E+00 0. -1.
         -4    1    1    2    0  502  0.32120974959E+02 -0.51576337803E+01  0.20338016512E+03  0.20596565195E+03  0.00000000000E+00 0.  1.
<mgrwt>
<rscale>  1 0.10405972E+03</rscale>
<asrwt>0</asrwt>
<pdfrwt beam="1">  1       21 0.21513571E-02 0.10405972E+03</pdfrwt>
<pdfrwt beam="2">  1       -3 0.64304727E-01 0.10405972E+03</pdfrwt>
<totfact> 0.11953863E+05</totfact>
</mgrwt>
</event>
<event>
 6    2  0.7993170E+000  0.1006789E+03  0.7546771E-02  0.1278875E+00
          2   -1    0    0  502    0 -0.00000000000E+00  0.00000000000E+00  0.43358955829E+03  0.43358955829E+03  0.00000000000E+00 0. -1.
         21   -1    0    0  501  502  0.00000000000E+00 -0.00000000000E+00 -0.19502366188E+02  0.19502366188E+02  0.00000000000E+00 0. -1.
         24    2    1    2    0    0  0.26638556211E+02 -0.52254080073E+02  0.35818783779E+03  0.37206822811E+03  0.81829931340E+02 0.  0.
        -11    1    3    3    0    0 -0.25798740616E+02  0.10980471250E+01  0.97099014388E+02  0.10047387382E+03  0.00000000000E+00 0.  1.
         12    1    3    3    0    0  0.52437296827E+02 -0.53352127198E+02  0.26108882340E+03  0.27159435429E+03  0.00000000000E+00 0. -1.
          1    1    1    2  501    0 -0.26638556211E+02  0.52254080073E+02  0.55899354305E+02  0.81023696367E+02  0.00000000000E+00 0. -1.
<mgrwt>
<rscale>  1 0.10067889E+03</rscale>
<asrwt>0</asrwt>
<pdfrwt beam="1">  1       21 0.30003644E-02 0.10067889E+03</pdfrwt>
<pdfrwt beam="2">  1        2 0.66706078E-01 0.10067889E+03</pdfrwt>
<totfact> 0.55274974E+05</totfact>
</mgrwt>
</event>
<event>
 6    2  0.7993170E+000  0.8672970E+02  0.7546771E-02  0.1310970E+00
         21   -1    0    0  501  502  0.00000000000E+00  0.00000000000E+00  0.75094986209E+02  0.75094986209E+02  0.00000000000E+00 0.  1.
          2   -1    0    0  502    0 -0.00000000000E+00 -0.00000000000E+00 -0.85558784305E+02  0.85558784305E+02  0.00000000000E+00 0. -1.
         24    2    1    2    0    0  0.26156521686E+02 -0.13670187759E+02  0.45087439824E+02  0.97749258000E+02  0.81553678946E+02 0.  0.
        -11    1    3    3    0    0 -0.93476039824E+01 -0.40065061468E+02  0.30328663780E+02  0.51111786286E+02  0.00000000000E+00 0.  1.
         12    1    3    3    0    0  0.35504125669E+02  0.26394873709E+02  0.14758776044E+02  0.46637471715E+02  0.00000000000E+00 0. -1.
          1    1    1    2  501    0 -0.26156521686E+02  0.13670187759E+02 -0.55551237920E+02  0.62904512514E+02  0.00000000000E+00 0. -1.
<mgrwt>
<rscale>  1 0.86729696E+02</rscale>
<asrwt>0</asrwt>
<pdfrwt beam="1">  1       21 0.11553075E-01 0.86729696E+02</pdfrwt>
<pdfrwt beam="2">  1        2 0.13162890E-01 0.86729696E+02</pdfrwt>
<totfact> 0.32961793E+05</totfact>
</mgrwt>
</event>
<event>
 6    2  0.7993170E+000  0.8520914E+02  0.7546771E-02  0.1314887E+00
         21   -1    0    0  501  502  0.00000000000E+00  0.00000000000E+00  0.75083474929E+02  0.75083474929E+02  0.00000000000E+00 0.  1.
          2   -1    0    0  502    0 -0.00000000000E+00 -0.00000000000E+00 -0.12931768110E+03  0.12931768110E+03  0.00000000000E+00 0. -1.
         24    2    1    2    0    0 -0.24703361155E+02 -0.81839328227E+01  0.48757332064E+02  0.98172677000E+02  0.81137933611E+02 0.  0.
        -13    1    3    3    0    0 -0.45707679497E+02  0.18487239386E+01  0.57350335939E+02  0.73359871711E+02  0.00000000000E+00 0.  1.
         14    1    3    3    0    0  0.21004318342E+02 -0.10032656761E+02 -0.85930038751E+01  0.24812805289E+02  0.00000000000E+00 0. -1.
          1    1    1    2  501    0  0.24703361155E+02  0.81839328227E+01 -0.10299153823E+03  0.10622847902E+03  0.00000000000E+00 0. -1.
<mgrwt>
<rscale>  1 0.85209137E+02</rscale>
<asrwt>0</asrwt>
<pdfrwt beam="1">  1       21 0.11551304E-01 0.85209137E+02</pdfrwt>
<pdfrwt beam="2">  1        2 0.19895028E-01 0.85209137E+02</pdfrwt>
<totfact> 0.20527520E+05</totfact>
</mgrwt>
</event>
<event>
 6    2  0.7993170E+000  0.8232953E+02  0.7546771E-02  0.1322568E+00
          2   -1    0    0  502    0 -0.00000000000E+00  0.00000000000E+00  0.50776459789E+03  0.50776459789E+03  0.00000000000E+00 0. -1.
         21   -1    0    0  501  502  0.00000000000E+00 -0.00000000000E+00 -0.52849408939E+01  0.52849408939E+01  0.00000000000E+00 0.  1.
         24    2    1    2    0    0 -0.22914630658E+01  0.20461688578E+02  0.37629946821E+03  0.38520052023E+03  0.79713358415E+02 0.  0.
        -11    1    3    3    0    0  0.28398215818E+02  0.12899869100E+02  0.62875633601E+02  0.70186968770E+02  0.00000000000E+00 0.  1.
         12    1    3    3    0    0 -0.30689678884E+02  0.75618194790E+01  0.31342383461E+03  0.31501355146E+03  0.00000000000E+00 0. -1.
          1    1    1    2  501    0  0.22914630658E+01 -0.20461688578E+02  0.12618018879E+03  0.12784901856E+03  0.00000000000E+00 0. -1.
<mgrwt>
<rscale>  1 0.82329527E+02</rscale>
<asrwt>0</asrwt>
<pdfrwt beam="1">  1       21 0.81306823E-03 0.82329527E+02</pdfrwt>
<pdfrwt beam="2">  1        2 0.78117592E-01 0.82329527E+02</pdfrwt>
<totfact> 0.36303475E+06</totfact>
</mgrwt>
</event>
<event>
 6    2  0.7993170E+000  0.8613022E+02  0.7546771E-02  0.1312503E+00
         21   -1    0    0  501  502  0.00000000000E+00  0.00000000000E+00  0.62020103342E+02  0.62020103342E+02  0.00000000000E+00 0. -1.
         -3   -1    0    0    0  501 -0.00000000000E+00 -0.00000000000E+00 -0.75075738189E+02  0.75075738189E+02  0.00000000000E+00 0.  1.
         24    2    1    2    0    0  0.19442892639E+02 -0.56577103440E+01 -0.46588759664E+02  0.97923067561E+02  0.83716061022E+02 0.  0.
        -13    1    3    3    0    0 -0.20760861092E+02  0.26241207661E+02 -0.10097940326E+02  0.34951147787E+02  0.00000000000E+00 0.  1.
         14    1    3    3    0    0  0.40203753731E+02 -0.31898918005E+02 -0.36490819338E+02  0.62971919774E+02  0.00000000000E+00 0. -1.
         -4    1    1    2    0  502 -0.19442892639E+02  0.56577103440E+01  0.33533124817E+02  0.39172773970E+02  0.00000000000E+00 0.  1.
<mgrwt>
<rscale>  1 0.86130219E+02</rscale>
<asrwt>0</asrwt>
<pdfrwt beam="1">  1       21 0.95415544E-02 0.86130219E+02</pdfrwt>
<pdfrwt beam="2">  1       -3 0.11550114E-01 0.86130219E+02</pdfrwt>
<totfact> 0.22594781E+05</totfact>
</mgrwt>
</event>
<event>
 6    2  0.7993170E+000  0.1334615E+03  0.7546771E-02  0.1222408E+00
         -1   -1    0    0    0  501 -0.00000000000E+00  0.00000000000E+00  0.19272121694E+04  0.19272121694E+04  0.00000000000E+00 0.  1.
         21   -1    0    0  501  502  0.00000000000E+00 -0.00000000000E+00 -0.83081647324E+01  0.83081647324E+01  0.00000000000E+00 0.  1.
         24    2    1    2    0    0  0.76373454928E+02 -0.59796860581E+02  0.68963347841E+03  0.70242885501E+03  0.91670020492E+02 0.  0.
        -11    1    3    3    0    0  0.38588888741E+02 -0.64843400066E+02  0.60398484566E+03  0.60868009879E+03  0.00000000000E+00 0.  1.
         12    1    3    3    0    0  0.37784566187E+02  0.50465394847E+01  0.85648632744E+02  0.93748756225E+02  0.00000000000E+00 0. -1.
         -2    1    1    2    0  502 -0.76373454928E+02  0.59796860581E+02  0.12292705263E+04  0.12330914791E+04  0.00000000000E+00 0.  1.
<mgrwt>
<rscale>  1 0.13346146E+03</rscale>
<asrwt>0</asrwt>
<pdfrwt beam="1">  1       21 0.12781807E-02 0.13346146E+03</pdfrwt>
<pdfrwt beam="2">  1       -1 0.29649383E+00 0.13346146E+03</pdfrwt>
<totfact> 0.10004541E+04</totfact>
</mgrwt>
</event>
<event>
 6    2  0.7993170E+000  0.8542355E+02  0.7546771E-02  0.1314329E+00
          2   -1    0    0  502    0 -0.00000000000E+00  0.00000000000E+00  0.27970618374E+04  0.27970618374E+04  0.00000000000E+00 0. -1.
         21   -1    0    0  501  502  0.00000000000E+00 -0.00000000000E+00 -0.77757043795E+01  0.77757043795E+01  0.00000000000E+00 0. -1.
         24    2    1    2    0    0 -0.19548244686E+02 -0.17777638751E+02  0.27718812996E+04  0.27731972741E+04  0.81234253882E+02 0.  0.
        -13    1    3    3    0    0 -0.21306979725E+02 -0.36601687733E+02  0.72942576801E+03  0.73065424242E+03  0.00000000000E+00 0.  1.
         14    1    3    3    0    0  0.17587350390E+01  0.18824048981E+02  0.20424555316E+04  0.20425430317E+04  0.00000000000E+00 0. -1.
          1    1    1    2  501    0  0.19548244686E+02  0.17777638751E+02  0.17404833454E+02  0.31640267657E+02  0.00000000000E+00 0. -1.
<mgrwt>
<rscale>  1 0.85423547E+02</rscale>
<asrwt>0</asrwt>
<pdfrwt beam="1">  1       21 0.11962644E-02 0.85423547E+02</pdfrwt>
<pdfrwt beam="2">  1        2 0.43031640E+00 0.85423547E+02</pdfrwt>
<totfact> 0.10418741E+05</totfact>
</mgrwt>
</event>
<event>
 6    2  0.7993170E+000  0.8548396E+02  0.7546771E-02  0.1314172E+00
          2   -1    0    0  502    0 -0.00000000000E+00  0.00000000000E+00  0.49795967591E+02  0.49795967591E+02  0.00000000000E+00 0. -1.
         21   -1    0    0  501  502  0.00000000000E+00 -0.00000000000E+00 -0.57366741261E+03  0.57366741261E+03  0.00000000000E+00 0. -1.
         24    2    1    2    0    0  0.28963166365E+02 -0.68220919794E+01  0.12389864327E+02  0.86377169386E+02  0.80138010384E+02 0.  0.
        -13    1    3    3    0    0 -0.18081652534E+02  0.14315264601E+02 -0.15458273485E+02  0.27763846601E+02  0.00000000000E+00 0.  1.
         14    1    3    3    0    0  0.47044818898E+02 -0.21137356580E+02  0.27848137812E+02  0.58613322786E+02  0.00000000000E+00 0. -1.
          1    1    1    2  501    0 -0.28963166365E+02  0.68220919794E+01 -0.53626130934E+03  0.53708621081E+03  0.00000000000E+00 0. -1.
<mgrwt>
<rscale>  1 0.85483956E+02</rscale>
<asrwt>0</asrwt>
<pdfrwt beam="1">  1       21 0.88256532E-01 0.85483956E+02</pdfrwt>
<pdfrwt beam="2">  1        2 0.76609175E-02 0.85483956E+02</pdfrwt>
<totfact> 0.12120025E+04</totfact>
</mgrwt>
</event>
<event>
 6    2  0.7993170E+000  0.9161077E+02  0.7546771E-02  0.1298997E+00
         21   -1    0    0  501  502  0.00000000000E+00  0.00000000000E+00  0.54518913701E+01  0.54518913701E+01  0.00000000000E+00 0. -1.
         -1   -1    0    0    0  501 -0.00000000000E+00 -0.00000000000E+00 -0.87089470285E+03  0.87089470285E+03  0.00000000000E+00 0.  1.
         24    2    1    2    0    0 -0.37479095393E+02  0.12017175867E+02 -0.46247206476E+03  0.47145831602E+03  0.82725074548E+02 0.  0.
        -11    1    3    3    0    0 -0.39058909471E+02  0.28637605501E+02 -0.44370239592E+03  0.44633790675E+03  0.00000000000E+00 0.  1.
         12    1    3    3    0    0  0.15798140782E+01 -0.16620429634E+02 -0.18769668839E+02  0.25120409274E+02  0.00000000000E+00 0. -1.
         -2    1    1    2    0  502  0.37479095393E+02 -0.12017175867E+02 -0.40297074672E+03  0.40488827819E+03  0.00000000000E+00 0.  1.
<mgrwt>
<rscale>  1 0.91610769E+02</rscale>
<asrwt>0</asrwt>
<pdfrwt beam="1">  1       21 0.83875305E-03 0.91610769E+02</pdfrwt>
<pdfrwt beam="2">  1       -1 0.13398371E+00 0.91610769E+02</pdfrwt>
<totfact> 0.22535606E+05</totfact>
</mgrwt>
</event>
<event>
 6    2  0.7993170E+000  0.2123953E+03  0.7546771E-02  0.1139683E+00
         21   -1    0    0  501  502  0.00000000000E+00  0.00000000000E+00  0.12556117717E+03  0.12556117717E+03  0.00000000000E+00 0.  1.
         -3   -1    0    0    0  501 -0.00000000000E+00 -0.00000000000E+00 -0.34296169725E+03  0.34296169725E+03  0.00000000000E+00 0.  1.
         24    2    1    2    0    0 -0.19645400088E+03 -0.36836345045E+01 -0.72664746395E+02  0.22448150947E+03  0.80647623016E+02 0.  0.
        -13    1    3    3    0    0 -0.13568163780E+03  0.35111071273E+02 -0.51894453377E+02  0.14945008683E+03  0.00000000000E+00 0.  1.
         14    1    3    3    0    0 -0.60772363083E+02 -0.38794705778E+02 -0.20770293018E+02  0.75031422639E+02  0.00000000000E+00 0. -1.
         -4    1    1    2    0  502  0.19645400088E+03  0.36836345045E+01 -0.14473577368E+03  0.24404136496E+03  0.00000000000E+00 0.  1.
<mgrwt>
<rscale>  1 0.21239535E+03</rscale>
<asrwt>0</asrwt>
<pdfrwt beam="1">  1       21 0.19317105E-01 0.21239535E+03</pdfrwt>
<pdfrwt beam="2">  1       -3 0.52763337E-01 0.21239535E+03</pdfrwt>
<totfact> 0.43627336E+03</totfact>
</mgrwt>
</event>
<event>
 6    2  0.7993170E+000  0.8589098E+02  0.7546771E-02  0.1313119E+00
         -3   -1    0    0    0  501 -0.00000000000E+00  0.00000000000E+00  0.81456425872E+03  0.81456425872E+03  0.00000000000E+00 0.  1.
         21   -1    0    0  501  502  0.00000000000E+00 -0.00000000000E+00 -0.14981914518E+02  0.14981914518E+02  0.00000000000E+00 0.  1.
         24    2    1    2    0    0 -0.22389808728E+02 -0.12180298322E+02  0.79945668905E+03  0.80405737194E+03  0.82021926980E+02 0.  0.
        -13    1    3    3    0    0  0.17621569979E+01  0.19071286829E+02  0.62043282189E+03  0.62072836704E+03  0.00000000000E+00 0.  1.
         14    1    3    3    0    0 -0.24151965726E+02 -0.31251585151E+02  0.17902386717E+03  0.18332900490E+03  0.00000000000E+00 0. -1.
         -4    1    1    2    0  502  0.22389808728E+02  0.12180298322E+02  0.12565514887E+00  0.25488801292E+02  0.00000000000E+00 0.  1.
<mgrwt>
<rscale>  1 0.85890976E+02</rscale>
<asrwt>0</asrwt>
<pdfrwt beam="1">  1       21 0.23049106E-02 0.85890976E+02</pdfrwt>
<pdfrwt beam="2">  1       -3 0.12531754E+00 0.85890976E+02</pdfrwt>
<totfact> 0.23993192E+04</totfact>
</mgrwt>
</event>
<event>
 6    2  0.7993170E+000  0.8611874E+02  0.7546771E-02  0.1312533E+00
         21   -1    0    0  501  502  0.00000000000E+00  0.00000000000E+00  0.38628899707E+02  0.38628899707E+02  0.00000000000E+00 0. -1.
          4   -1    0    0  502    0 -0.00000000000E+00 -0.00000000000E+00 -0.94563445846E+02  0.94563445846E+02  0.00000000000E+00 0. -1.
         24    2    1    2    0    0  0.26007569227E+01 -0.29540188375E+02 -0.23547872266E+02  0.89280122764E+02  0.80852033782E+02 0.  0.
        -13    1    3    3    0    0  0.37607412988E+01 -0.82472051837E+01  0.30160564586E+02  0.31493161553E+02  0.00000000000E+00 0.  1.
         14    1    3    3    0    0 -0.11599843761E+01 -0.21292983191E+02 -0.53708436852E+02  0.57786961211E+02  0.00000000000E+00 0. -1.
          3    1    1    2  501    0 -0.26007569227E+01  0.29540188375E+02 -0.32386673873E+02  0.43912222790E+02  0.00000000000E+00 0. -1.
<mgrwt>
<rscale>  1 0.86118744E+02</rscale>
<asrwt>0</asrwt>
<pdfrwt beam="1">  1       21 0.59429077E-02 0.86118744E+02</pdfrwt>
<pdfrwt beam="2">  1        4 0.14548222E-01 0.86118744E+02</pdfrwt>
<totfact> 0.29293844E+05</totfact>
</mgrwt>
</event>
<event>
 6    2  0.7993170E+000  0.8143806E+02  0.7546771E-02  0.1325019E+00
          2   -1    0    0  502    0 -0.00000000000E+00  0.00000000000E+00  0.17639172254E+04  0.17639172254E+04  0.00000000000E+00 0. -1.
         21   -1    0    0  501  502  0.00000000000E+00 -0.00000000000E+00 -0.17269389293E+01  0.17269389293E+01  0.00000000000E+00 0.  1.
         24    2    1    2    0    0  0.27426796240E+02  0.84682033902E+01  0.13524194443E+04  0.13548691861E+04  0.76211669617E+02 0.  0.
        -13    1    3    3    0    0  0.48463341185E+02 -0.34434369808E+01  0.56700771136E+03  0.56908549221E+03  0.00000000000E+00 0.  1.
         14    1    3    3    0    0 -0.21036544944E+02  0.11911640371E+02  0.78541173290E+03  0.78578369388E+03  0.00000000000E+00 0. -1.
          1    1    1    2  501    0 -0.27426796240E+02 -0.84682033902E+01  0.40977084226E+03  0.41077497829E+03  0.00000000000E+00 0. -1.
<mgrwt>
<rscale>  1 0.81438064E+02</rscale>
<asrwt>0</asrwt>
<pdfrwt beam="1">  1       21 0.26568432E-03 0.81438064E+02</pdfrwt>
<pdfrwt beam="2">  1        2 0.27137044E+00 0.81438064E+02</pdfrwt>
<totfact> 0.35639367E+06</totfact>
</mgrwt>
</event>
<event>
 6    2  0.7993170E+000  0.9100148E+02  0.7546771E-02  0.1300444E+00
         21   -1    0    0  501  502  0.00000000000E+00  0.00000000000E+00  0.11760888005E+03  0.11760888005E+03  0.00000000000E+00 0. -1.
          2   -1    0    0  502    0 -0.00000000000E+00 -0.00000000000E+00 -0.49686692301E+02  0.49686692301E+02  0.00000000000E+00 0. -1.
         24    2    1    2    0    0 -0.34331696503E+02  0.17609465722E+02  0.21330060390E+01  0.91026475740E+02  0.82416690683E+02 0.  0.
        -13    1    3    3    0    0 -0.43032683462E+02 -0.19423633478E+02  0.17003537001E+02  0.50181766150E+02  0.00000000000E+00 0.  1.
         14    1    3    3    0    0  0.87009869592E+01  0.37033099199E+02 -0.14870530962E+02  0.40844709589E+02  0.00000000000E+00 0. -1.
          1    1    1    2  501    0  0.34331696503E+02 -0.17609465722E+02  0.65789181711E+02  0.76269096612E+02  0.00000000000E+00 0. -1.
<mgrwt>
<rscale>  1 0.91001481E+02</rscale>
<asrwt>0</asrwt>
<pdfrwt beam="1">  1       21 0.18093674E-01 0.91001481E+02</pdfrwt>
<pdfrwt beam="2">  1        2 0.76441065E-02 0.91001481E+02</pdfrwt>
<totfact> 0.28749757E+05</totfact>
</mgrwt>
</event>
<event>
 6    2  0.7993170E+000  0.8725219E+02  0.7546771E-02  0.1309646E+00
         21   -1    0    0  501  502  0.00000000000E+00  0.00000000000E+00  0.14784622924E+02  0.14784622924E+02  0.00000000000E+00 0. -1.
          2   -1    0    0  502    0 -0.00000000000E+00 -0.00000000000E+00 -0.13528472826E+04  0.13528472826E+04  0.00000000000E+00 0. -1.
         24    2    1    2    0    0 -0.11955165376E+02  0.25977649202E+02 -0.13361238160E+04  0.13389696769E+04  0.82432880616E+02 0.  0.
        -13    1    3    3    0    0 -0.14135778922E+02 -0.27562567737E+02 -0.34092775366E+03  0.34233207358E+03  0.00000000000E+00 0.  1.
         14    1    3    3    0    0  0.21806135457E+01  0.53540216939E+02 -0.99519606230E+03  0.99663760331E+03  0.00000000000E+00 0. -1.
          1    1    1    2  501    0  0.11955165376E+02 -0.25977649202E+02 -0.19388437468E+01  0.28662228670E+02  0.00000000000E+00 0. -1.
<mgrwt>
<rscale>  1 0.87252186E+02</rscale>
<asrwt>0</asrwt>
<pdfrwt beam="1">  1       21 0.22745566E-02 0.87252186E+02</pdfrwt>
<pdfrwt beam="2">  1        2 0.20813042E+00 0.87252186E+02</pdfrwt>
<totfact> 0.20704237E+05</totfact>
</mgrwt>
</event>
<event>
 6    2  0.7993170E+000  0.8558575E+02  0.7546771E-02  0.1313908E+00
         21   -1    0    0  501  502  0.00000000000E+00  0.00000000000E+00  0.86007028810E+01  0.86007028810E+01  0.00000000000E+00 0.  1.
          2   -1    0    0  502    0 -0.00000000000E+00 -0.00000000000E+00 -0.40602093864E+03  0.40602093864E+03  0.00000000000E+00 0. -1.
         24    2    1    2    0    0 -0.21320021175E+02  0.23465578946E+02 -0.31130500193E+03  0.32285557919E+03  0.79496818110E+02 0.  0.
        -13    1    3    3    0    0 -0.46889069350E+02  0.30636751082E+02 -0.24723563072E+03  0.25350079376E+03  0.00000000000E+00 0.  1.
         14    1    3    3    0    0  0.25569048175E+02 -0.71711721354E+01 -0.64069371212E+02  0.69354785429E+02  0.00000000000E+00 0. -1.
          1    1    1    2  501    0  0.21320021175E+02 -0.23465578946E+02 -0.86115233829E+02  0.91766062330E+02  0.00000000000E+00 0. -1.
<mgrwt>
<rscale>  1 0.85585751E+02</rscale>
<asrwt>0</asrwt>
<pdfrwt beam="1">  1       21 0.13231849E-02 0.85585751E+02</pdfrwt>
<pdfrwt beam="2">  1        2 0.62464766E-01 0.85585751E+02</pdfrwt>
<totfact> 0.21628610E+06</totfact>
</mgrwt>
</event>
<event>
 6    2  0.7993170E+000  0.1149375E+03  0.7546771E-02  0.1251690E+00
          4   -1    0    0  502    0 -0.00000000000E+00  0.00000000000E+00  0.22052361809E+03  0.22052361809E+03  0.00000000000E+00 0. -1.
         21   -1    0    0  501  502  0.00000000000E+00 -0.00000000000E+00 -0.51344338708E+02  0.51344338708E+02  0.00000000000E+00 0. -1.
         24    2    1    2    0    0  0.54809805150E+02 -0.61363853129E+02  0.14710034382E+03  0.18667924506E+03  0.80255792149E+02 0.  0.
        -11    1    3    3    0    0 -0.71259776536E+01  0.11438688297E+02  0.44314089742E+02  0.46318049367E+02  0.00000000000E+00 0.  1.
         12    1    3    3    0    0  0.61935782804E+02 -0.72802541426E+02  0.10278625408E+03  0.14036119570E+03  0.00000000000E+00 0. -1.
          3    1    1    2  501    0 -0.54809805150E+02  0.61363853129E+02  0.22078935558E+02  0.85188711733E+02  0.00000000000E+00 0. -1.
<mgrwt>
<rscale>  1 0.11493750E+03</rscale>
<asrwt>0</asrwt>
<pdfrwt beam="1">  1       21 0.78991292E-02 0.11493750E+03</pdfrwt>
<pdfrwt beam="2">  1        4 0.33926710E-01 0.11493750E+03</pdfrwt>
<totfact> 0.40853592E+04</totfact>
</mgrwt>
</event>
<event>
 6    2  0.7993170E+000  0.1019880E+03  0.7546771E-02  0.1276170E+00
          2   -1    0    0  502    0 -0.00000000000E+00  0.00000000000E+00  0.49921339397E+03  0.49921339397E+03  0.00000000000E+00 0. -1.
         21   -1    0    0  501  502  0.00000000000E+00 -0.00000000000E+00 -0.48332568844E+02  0.48332568844E+02  0.00000000000E+00 0. -1.
         24    2    1    2    0    0 -0.27277624004E+02 -0.57251673322E+02  0.47029225571E+03  0.48122382091E+03  0.79873256846E+02 0.  0.
        -11    1    3    3    0    0 -0.35559055715E+02 -0.57850263269E+02  0.20807394690E+03  0.21887408888E+03  0.00000000000E+00 0.  1.
         12    1    3    3    0    0  0.82814317119E+01  0.59858994771E+00  0.26221830880E+03  0.26234973202E+03  0.00000000000E+00 0. -1.
          1    1    1    2  501    0  0.27277624004E+02  0.57251673322E+02 -0.19411430586E+02  0.66322141905E+02  0.00000000000E+00 0. -1.
<mgrwt>
<rscale>  1 0.10198804E+03</rscale>
<asrwt>0</asrwt>
<pdfrwt beam="1">  1       21 0.74357802E-02 0.10198804E+03</pdfrwt>
<pdfrwt beam="2">  1        2 0.76802057E-01 0.10198804E+03</pdfrwt>
<totfact> 0.10483366E+05</totfact>
</mgrwt>
</event>
<event>
 6    2  0.7993170E+000  0.8675320E+02  0.7546771E-02  0.1310910E+00
         21   -1    0    0  501  502  0.00000000000E+00  0.00000000000E+00  0.45116533095E+01  0.45116533095E+01  0.00000000000E+00 0. -1.
          2   -1    0    0  502    0 -0.00000000000E+00 -0.00000000000E+00 -0.11599102019E+04  0.11599102019E+04  0.00000000000E+00 0. -1.
         24    2    1    2    0    0 -0.30598242989E+02 -0.95449686071E+01 -0.10646583539E+04  0.10681870287E+04  0.80614879952E+02 0.  0.
        -13    1    3    3    0    0 -0.17998359975E+02  0.31212648176E+02 -0.27123457618E+03  0.27361718821E+03  0.00000000000E+00 0.  1.
         14    1    3    3    0    0 -0.12599883014E+02 -0.40757616783E+02 -0.79342377767E+03  0.79456984045E+03  0.00000000000E+00 0. -1.
          1    1    1    2  501    0  0.30598242989E+02  0.95449686071E+01 -0.90740194718E+02  0.96234826530E+02  0.00000000000E+00 0. -1.
<mgrwt>
<rscale>  1 0.86753200E+02</rscale>
<asrwt>0</asrwt>
<pdfrwt beam="1">  1       21 0.69410035E-03 0.86753200E+02</pdfrwt>
<pdfrwt beam="2">  1        2 0.17844776E+00 0.86753200E+02</pdfrwt>
<totfact> 0.16986774E+06</totfact>
</mgrwt>
</event>
<event>
 6    2  0.7993170E+000  0.9444343E+02  0.7546771E-02  0.1292435E+00
         -1   -1    0    0    0  501 -0.00000000000E+00  0.00000000000E+00  0.33900068720E+03  0.33900068720E+03  0.00000000000E+00 0.  1.
         21   -1    0    0  501  502  0.00000000000E+00 -0.00000000000E+00 -0.14386107002E+02  0.14386107002E+02  0.00000000000E+00 0.  1.
         24    2    1    2    0    0 -0.32765410907E+02  0.28257354773E+02  0.24838297095E+03  0.26573231058E+03  0.83949451323E+02 0.  0.
        -13    1    3    3    0    0 -0.58418180858E+02  0.21983891812E+02  0.21045450861E+03  0.21951554740E+03  0.00000000000E+00 0.  1.
         14    1    3    3    0    0  0.25652769951E+02  0.62734629610E+01  0.37928462334E+02  0.46216763179E+02  0.00000000000E+00 0. -1.
         -2    1    1    2    0  502  0.32765410907E+02 -0.28257354773E+02  0.76231609248E+02  0.87654483622E+02  0.00000000000E+00 0.  1.
<mgrwt>
<rscale>  1 0.94443426E+02</rscale>
<asrwt>0</asrwt>
<pdfrwt beam="1">  1       21 0.22132475E-02 0.94443426E+02</pdfrwt>
<pdfrwt beam="2">  1       -1 0.52153946E-01 0.94443426E+02</pdfrwt>
<totfact> 0.34684150E+05</totfact>
</mgrwt>
</event>
<event>
 6    2  0.7993170E+000  0.8646817E+02  0.7546771E-02  0.1311637E+00
         21   -1    0    0  501  502  0.00000000000E+00  0.00000000000E+00  0.80468933036E+01  0.80468933036E+01  0.00000000000E+00 0. -1.
          2   -1    0    0  502    0 -0.00000000000E+00 -0.00000000000E+00 -0.18012024255E+04  0.18012024255E+04  0.00000000000E+00 0. -1.
         24    2    1    2    0    0  0.11592352472E+02  0.29416661222E+02 -0.17643786161E+04  0.17664961494E+04  0.80479949362E+02 0.  0.
        -13    1    3    3    0    0 -0.90497304163E+01 -0.15104867093E+02 -0.11087891267E+03  0.11226837447E+03  0.00000000000E+00 0.  1.
         14    1    3    3    0    0  0.20642082888E+02  0.44521528315E+02 -0.16534997035E+04  0.16542277750E+04  0.00000000000E+00 0. -1.
          1    1    1    2  501    0 -0.11592352472E+02 -0.29416661222E+02 -0.28776916025E+02  0.42753169346E+02  0.00000000000E+00 0. -1.
<mgrwt>
<rscale>  1 0.86468172E+02</rscale>
<asrwt>0</asrwt>
<pdfrwt beam="1">  1       21 0.12379828E-02 0.86468172E+02</pdfrwt>
<pdfrwt beam="2">  1        2 0.27710824E+00 0.86468172E+02</pdfrwt>
<totfact> 0.32213155E+05</totfact>
</mgrwt>
</event>
<event>
 6    2  0.7993170E+000  0.8614068E+02  0.7546771E-02  0.1312476E+00
          4   -1    0    0  502    0 -0.00000000000E+00  0.00000000000E+00  0.10650245016E+03  0.10650245016E+03  0.00000000000E+00 0. -1.
         21   -1    0    0  501  502  0.00000000000E+00 -0.00000000000E+00 -0.30351268195E+02  0.30351268195E+02  0.00000000000E+00 0.  1.
         24    2    1    2    0    0 -0.10034487934E+02  0.25405741472E+02  0.53820403468E+02  0.10157190553E+03  0.81695003007E+02 0.  0.
        -11    1    3    3    0    0 -0.27153304319E+02  0.24801043565E+02 -0.78187309085E+01  0.37596891499E+02  0.00000000000E+00 0.  1.
         12    1    3    3    0    0  0.17118816385E+02  0.60469790675E+00  0.61639134377E+02  0.63975014034E+02  0.00000000000E+00 0. -1.
          3    1    1    2  501    0  0.10034487934E+02 -0.25405741472E+02  0.22330778500E+02  0.35281812826E+02  0.00000000000E+00 0. -1.
<mgrwt>
<rscale>  1 0.86140677E+02</rscale>
<asrwt>0</asrwt>
<pdfrwt beam="1">  1       21 0.46694259E-02 0.86140677E+02</pdfrwt>
<pdfrwt beam="2">  1        4 0.16384992E-01 0.86140677E+02</pdfrwt>
<totfact> 0.35632597E+05</totfact>
</mgrwt>
</event>
<event>
 6    2  0.7993170E+000  0.8511035E+02  0.7546771E-02  0.1315144E+00
         21   -1    0    0  501  502  0.00000000000E+00  0.00000000000E+00  0.55114057608E+01  0.55114057608E+01  0.00000000000E+00 0. -1.
          2   -1    0    0  502    0 -0.00000000000E+00 -0.00000000000E+00 -0.11791288462E+04  0.11791288462E+04  0.00000000000E+00 0. -1.
         24    2    1    2    0    0  0.26792272472E+02 -0.12762011382E+02 -0.11210364557E+04  0.11242626506E+04  0.79768900995E+02 0.  0.
        -13    1    3    3    0    0  0.16758341372E+02  0.30244766337E+02 -0.71416332056E+03  0.71499988554E+03  0.00000000000E+00 0.  1.
         14    1    3    3    0    0  0.10033931100E+02 -0.43006777720E+02 -0.40687313518E+03  0.40926276502E+03  0.00000000000E+00 0. -1.
          1    1    1    2  501    0 -0.26792272472E+02  0.12762011382E+02 -0.52580984748E+02  0.60377601441E+02  0.00000000000E+00 0. -1.
<mgrwt>
<rscale>  1 0.85110354E+02</rscale>
<asrwt>0</asrwt>
<pdfrwt beam="1">  1       21 0.84790979E-03 0.85110354E+02</pdfrwt>
<pdfrwt beam="2">  1        2 0.18140418E+00 0.85110354E+02</pdfrwt>
<totfact> 0.12141561E+06</totfact>
</mgrwt>
</event>
<event>
 6    2  0.7993170E+000  0.8430577E+02  0.7546771E-02  0.1317258E+00
          2   -1    0    0  502    0 -0.00000000000E+00  0.00000000000E+00  0.14121974692E+04  0.14121974692E+04  0.00000000000E+00 0. -1.
         21   -1    0    0  501  502  0.00000000000E+00 -0.00000000000E+00 -0.36988158081E+01  0.36988158081E+01  0.00000000000E+00 0.  1.
         24    2    1    2    0    0  0.17859764036E+02  0.10925952476E+02  0.49287039471E+03  0.50002868775E+03  0.81664649532E+02 0.  0.
        -13    1    3    3    0    0 -0.18700782481E+01 -0.14273437124E+02  0.13968533701E+02  0.20058617444E+02  0.00000000000E+00 0.  1.
         14    1    3    3    0    0  0.19729842284E+02  0.25199389601E+02  0.47890186101E+03  0.47997007030E+03  0.00000000000E+00 0. -1.
          1    1    1    2  501    0 -0.17859764036E+02 -0.10925952476E+02  0.91562825870E+03  0.91586759728E+03  0.00000000000E+00 0. -1.
<mgrwt>
<rscale>  1 0.84305768E+02</rscale>
<asrwt>0</asrwt>
<pdfrwt beam="1">  1       21 0.56904971E-03 0.84305768E+02</pdfrwt>
<pdfrwt beam="2">  1        2 0.21726072E+00 0.84305768E+02</pdfrwt>
<totfact> 0.16911915E+06</totfact>
</mgrwt>
</event>
<event>
 6    2  0.7993170E+000  0.8626857E+02  0.7546771E-02  0.1312148E+00
         21   -1    0    0  501  502  0.00000000000E+00  0.00000000000E+00  0.87716337497E+02  0.87716337497E+02  0.00000000000E+00 0.  1.
          2   -1    0    0  502    0 -0.00000000000E+00 -0.00000000000E+00 -0.68104696621E+02  0.68104696621E+02  0.00000000000E+00 0. -1.
         24    2    1    2    0    0  0.35327913168E+02 -0.22336416050E+00 -0.33070293220E+02  0.92389988719E+02  0.78702950271E+02 0.  0.
        -11    1    3    3    0    0  0.40821869643E+02  0.26556365647E+02 -0.41285516117E+02  0.63844807452E+02  0.00000000000E+00 0.  1.
         12    1    3    3    0    0 -0.54939564755E+01 -0.26779729807E+02  0.82152228963E+01  0.28545181267E+02  0.00000000000E+00 0. -1.
          1    1    1    2  501    0 -0.35327913168E+02  0.22336416050E+00  0.52681934097E+02  0.63431045400E+02  0.00000000000E+00 0. -1.
<mgrwt>
<rscale>  1 0.86268567E+02</rscale>
<asrwt>0</asrwt>
<pdfrwt beam="1">  1       21 0.13494821E-01 0.86268567E+02</pdfrwt>
<pdfrwt beam="2">  1        2 0.10477646E-01 0.86268567E+02</pdfrwt>
<totfact> 0.32883705E+05</totfact>
</mgrwt>
</event>
<event>
 6    2  0.7993170E+000  0.1002959E+03  0.7546771E-02  0.1279675E+00
         21   -1    0    0  501  502  0.00000000000E+00  0.00000000000E+00  0.10150916939E+02  0.10150916939E+02  0.00000000000E+00 0. -1.
          2   -1    0    0  502    0 -0.00000000000E+00 -0.00000000000E+00 -0.62434115263E+03  0.62434115263E+03  0.00000000000E+00 0. -1.
         24    2    1    2    0    0  0.45001167073E+02  0.35369764395E+02 -0.34494643570E+03  0.35923155822E+03  0.82359842470E+02 0.  0.
        -11    1    3    3    0    0  0.33898196497E+02  0.46754030860E+02 -0.33611824205E+03  0.34104325204E+03  0.00000000000E+00 0.  1.
         12    1    3    3    0    0  0.11102970576E+02 -0.11384266465E+02 -0.88281936498E+01  0.18188306179E+02  0.00000000000E+00 0. -1.
          1    1    1    2  501    0 -0.45001167073E+02 -0.35369764395E+02 -0.26924380000E+03  0.27526051135E+03  0.00000000000E+00 0. -1.
<mgrwt>
<rscale>  1 0.10029591E+03</rscale>
<asrwt>0</asrwt>
<pdfrwt beam="1">  1       21 0.15616798E-02 0.10029591E+03</pdfrwt>
<pdfrwt beam="2">  1        2 0.96052467E-01 0.10029591E+03</pdfrwt>
<totfact> 0.10601895E+06</totfact>
</mgrwt>
</event>
<event>
 6    2  0.7993170E+000  0.8604232E+02  0.7546771E-02  0.1312729E+00
         21   -1    0    0  501  502  0.00000000000E+00  0.00000000000E+00  0.11694712136E+03  0.11694712136E+03  0.00000000000E+00 0.  1.
          2   -1    0    0  502    0 -0.00000000000E+00 -0.00000000000E+00 -0.30582771066E+02  0.30582771066E+02  0.00000000000E+00 0. -1.
         24    2    1    2    0    0 -0.23735106318E+02  0.55686989002E+00  0.88819587652E+02  0.12366163806E+03  0.82701972173E+02 0.  0.
        -11    1    3    3    0    0 -0.34393738353E+02  0.11319872023E+02  0.98998064111E+02  0.10541197958E+03  0.00000000000E+00 0.  1.
         12    1    3    3    0    0  0.10658632035E+02 -0.10763002133E+02 -0.10178476459E+02  0.18249658484E+02  0.00000000000E+00 0. -1.
          1    1    1    2  501    0  0.23735106318E+02 -0.55686989002E+00 -0.24552373562E+01  0.23868254366E+02  0.00000000000E+00 0. -1.
<mgrwt>
<rscale>  1 0.86042324E+02</rscale>
<asrwt>0</asrwt>
<pdfrwt beam="1">  1       21 0.17991865E-01 0.86042324E+02</pdfrwt>
<pdfrwt beam="2">  1        2 0.47050418E-02 0.86042324E+02</pdfrwt>
<totfact> 0.53523677E+05</totfact>
</mgrwt>
</event>
<event>
 6    2  0.7993170E+000  0.8345314E+02  0.7546771E-02  0.1319528E+00
          2   -1    0    0  502    0 -0.00000000000E+00  0.00000000000E+00  0.68160421652E+03  0.68160421652E+03  0.00000000000E+00 0. -1.
         21   -1    0    0  501  502  0.00000000000E+00 -0.00000000000E+00 -0.52111395007E+01  0.52111395007E+01  0.00000000000E+00 0.  1.
         24    2    1    2    0    0  0.20323393672E+00 -0.27558568462E+02  0.37544697871E+03  0.38461001178E+03  0.78771259604E+02 0.  0.
        -11    1    3    3    0    0  0.95017354349E+01 -0.14567794617E+02  0.12759880101E+02  0.21571234468E+02  0.00000000000E+00 0.  1.
         12    1    3    3    0    0 -0.92985014982E+01 -0.12990773845E+02  0.36268709861E+03  0.36303877731E+03  0.00000000000E+00 0. -1.
          1    1    1    2  501    0 -0.20323393672E+00  0.27558568462E+02  0.30094609831E+03  0.30220534424E+03  0.00000000000E+00 0. -1.
<mgrwt>
<rscale>  1 0.83453145E+02</rscale>
<asrwt>0</asrwt>
<pdfrwt beam="1">  1       21 0.80171431E-03 0.83453145E+02</pdfrwt>
<pdfrwt beam="2">  1        2 0.10486212E+00 0.83453145E+02</pdfrwt>
<totfact> 0.26792336E+06</totfact>
</mgrwt>
</event>
<event>
 6    2  0.7993170E+000  0.8964157E+02  0.7546771E-02  0.1303722E+00
         -3   -1    0    0    0  501 -0.00000000000E+00  0.00000000000E+00  0.56679196591E+03  0.56679196591E+03  0.00000000000E+00 0.  1.
         21   -1    0    0  501  502  0.00000000000E+00 -0.00000000000E+00 -0.38952288537E+02  0.38952288537E+02  0.00000000000E+00 0.  1.
         24    2    1    2    0    0  0.26793957718E+02 -0.32841704258E+02  0.55045284750E+03  0.55770417563E+03  0.78988078156E+02 0.  0.
        -13    1    3    3    0    0 -0.73136024357E+00 -0.31408179092E+02  0.49281158521E+03  0.49381197547E+03  0.00000000000E+00 0.  1.
         14    1    3    3    0    0  0.27525317962E+02 -0.14335251656E+01  0.57641262287E+02  0.63892200160E+02  0.00000000000E+00 0. -1.
         -4    1    1    2    0  502 -0.26793957718E+02  0.32841704258E+02 -0.22613170130E+02  0.48040078810E+02  0.00000000000E+00 0.  1.
<mgrwt>
<rscale>  1 0.89641565E+02</rscale>
<asrwt>0</asrwt>
<pdfrwt beam="1">  1       21 0.59926602E-02 0.89641565E+02</pdfrwt>
<pdfrwt beam="2">  1       -3 0.87198758E-01 0.89641565E+02</pdfrwt>
<totfact> 0.11433969E+04</totfact>
</mgrwt>
</event>
<event>
 6    2  0.7993170E+000  0.8359939E+02  0.7546771E-02  0.1319136E+00
         21   -1    0    0  501  502  0.00000000000E+00  0.00000000000E+00  0.20041068806E+01  0.20041068806E+01  0.00000000000E+00 0.  1.
          2   -1    0    0  502    0 -0.00000000000E+00 -0.00000000000E+00 -0.13960240687E+04  0.13960240687E+04  0.00000000000E+00 0. -1.
         24    2    1    2    0    0 -0.10012554076E+01  0.21882614614E+02 -0.10608830876E+04  0.10641718767E+04  0.80678412713E+02 0.  0.
        -13    1    3    3    0    0 -0.16699950796E+02 -0.89915385171E+01 -0.65614686856E+02  0.68300975489E+02  0.00000000000E+00 0.  1.
         14    1    3    3    0    0  0.15698695388E+02  0.30874153131E+02 -0.99526840072E+03  0.99587090120E+03  0.00000000000E+00 0. -1.
          1    1    1    2  501    0  0.10012554076E+01 -0.21882614614E+02 -0.33313687421E+03  0.33385629887E+03  0.00000000000E+00 0. -1.
<mgrwt>
<rscale>  1 0.83599388E+02</rscale>
<asrwt>0</asrwt>
<pdfrwt beam="1">  1       21 0.30832261E-03 0.83599388E+02</pdfrwt>
<pdfrwt beam="2">  1        2 0.21477400E+00 0.83599388E+02</pdfrwt>
<totfact> 0.43803340E+06</totfact>
</mgrwt>
</event>
<event>
 6    2  0.7993170E+000  0.8345487E+02  0.7546771E-02  0.1319523E+00
         21   -1    0    0  501  502  0.00000000000E+00  0.00000000000E+00  0.35697152458E+01  0.35697152458E+01  0.00000000000E+00 0. -1.
          2   -1    0    0  502    0 -0.00000000000E+00 -0.00000000000E+00 -0.26078396366E+04  0.26078396366E+04  0.00000000000E+00 0. -1.
         24    2    1    2    0    0  0.22019146011E+02  0.15128389556E+01 -0.25650373827E+04  0.25663946480E+04  0.80483434381E+02 0.  0.
        -11    1    3    3    0    0 -0.23189017534E+02 -0.12925954849E+02 -0.42340130957E+03  0.42423281320E+03  0.00000000000E+00 0.  1.
         12    1    3    3    0    0  0.45208163545E+02  0.14438793805E+02 -0.21416360731E+04  0.21421618348E+04  0.00000000000E+00 0. -1.
          1    1    1    2  501    0 -0.22019146011E+02 -0.15128389556E+01 -0.39232538701E+02  0.45014703883E+02  0.00000000000E+00 0. -1.
<mgrwt>
<rscale>  1 0.83454866E+02</rscale>
<asrwt>0</asrwt>
<pdfrwt beam="1">  1       21 0.54918837E-03 0.83454866E+02</pdfrwt>
<pdfrwt beam="2">  1        2 0.40120507E+00 0.83454866E+02</pdfrwt>
<totfact> 0.44072030E+05</totfact>
</mgrwt>
</event>
<event>
 6    2  0.7993170E+000  0.8583089E+02  0.7546771E-02  0.1313274E+00
          2   -1    0    0  502    0 -0.00000000000E+00  0.00000000000E+00  0.16222664388E+04  0.16222664388E+04  0.00000000000E+00 0. -1.
         21   -1    0    0  501  502  0.00000000000E+00 -0.00000000000E+00 -0.24759534548E+01  0.24759534548E+01  0.00000000000E+00 0.  1.
         24    2    1    2    0    0 -0.31245664635E+02 -0.22645800548E+02  0.96218580068E+03  0.96600644733E+03  0.76666925163E+02 0.  0.
        -13    1    3    3    0    0 -0.46701601844E+02 -0.34952934882E+02  0.49875005365E+03  0.50214974190E+03  0.00000000000E+00 0.  1.
         14    1    3    3    0    0  0.15455937209E+02  0.12307134334E+02  0.46343574703E+03  0.46385670543E+03  0.00000000000E+00 0. -1.
          1    1    1    2  501    0  0.31245664635E+02  0.22645800548E+02  0.65760468467E+03  0.65873594493E+03  0.00000000000E+00 0. -1.
<mgrwt>
<rscale>  1 0.85830888E+02</rscale>
<asrwt>0</asrwt>
<pdfrwt beam="1">  1       21 0.38091721E-03 0.85830888E+02</pdfrwt>
<pdfrwt beam="2">  1        2 0.24957860E+00 0.85830888E+02</pdfrwt>
<totfact> 0.24447107E+06</totfact>
</mgrwt>
</event>
<event>
 6    2  0.7993170E+000  0.8459616E+02  0.7546771E-02  0.1316492E+00
         21   -1    0    0  501  502  0.00000000000E+00  0.00000000000E+00  0.52602936364E+01  0.52602936364E+01  0.00000000000E+00 0. -1.
          2   -1    0    0  502    0 -0.00000000000E+00 -0.00000000000E+00 -0.98602186053E+03  0.98602186053E+03  0.00000000000E+00 0. -1.
         24    2    1    2    0    0 -0.11181724591E+02  0.25619133615E+02 -0.92544987697E+03  0.92930833700E+03  0.79844470439E+02 0.  0.
        -11    1    3    3    0    0  0.22864565950E+02 -0.16267124702E+02 -0.43318615686E+03  0.43409406148E+03  0.00000000000E+00 0.  1.
         12    1    3    3    0    0 -0.34046290541E+02  0.41886258317E+02 -0.49226372012E+03  0.49521427552E+03  0.00000000000E+00 0. -1.
          1    1    1    2  501    0  0.11181724591E+02 -0.25619133615E+02 -0.55311689916E+02  0.61973817160E+02  0.00000000000E+00 0. -1.
<mgrwt>
<rscale>  1 0.84596161E+02</rscale>
<asrwt>0</asrwt>
<pdfrwt beam="1">  1       21 0.80927604E-03 0.84596161E+02</pdfrwt>
<pdfrwt beam="2">  1        2 0.15169565E+00 0.84596161E+02</pdfrwt>
<totfact> 0.16767872E+06</totfact>
</mgrwt>
</event>
<event>
 6    2  0.7993170E+000  0.8442836E+02  0.7546771E-02  0.1316934E+00
         21   -1    0    0  501  502  0.00000000000E+00  0.00000000000E+00  0.38507853370E+01  0.38507853370E+01  0.00000000000E+00 0.  1.
         -3   -1    0    0    0  501 -0.00000000000E+00 -0.00000000000E+00 -0.11932535282E+04  0.11932535282E+04  0.00000000000E+00 0.  1.
         24    2    1    2    0    0  0.24491532193E+02 -0.10065286289E+02 -0.11138617148E+04  0.11170568772E+04  0.80168585815E+02 0.  0.
        -11    1    3    3    0    0  0.34452608308E+02 -0.39840823743E+02 -0.74648827399E+03  0.74834418329E+03  0.00000000000E+00 0.  1.
         12    1    3    3    0    0 -0.99610761141E+01  0.29775537455E+02 -0.36737344079E+03  0.36871269393E+03  0.00000000000E+00 0. -1.
         -4    1    1    2    0  502 -0.24491532193E+02  0.10065286289E+02 -0.75541028077E+02  0.80047436312E+02  0.00000000000E+00 0.  1.
<mgrwt>
<rscale>  1 0.84428356E+02</rscale>
<asrwt>0</asrwt>
<pdfrwt beam="1">  1       21 0.59242814E-03 0.84428356E+02</pdfrwt>
<pdfrwt beam="2">  1       -3 0.18357758E+00 0.84428356E+02</pdfrwt>
<totfact> 0.78566943E+04</totfact>
</mgrwt>
</event>
<event>
 6    2  0.7993170E+000  0.8526425E+02  0.7546771E-02  0.1314743E+00
         -3   -1    0    0    0  501 -0.00000000000E+00  0.00000000000E+00  0.40161137105E+02  0.40161137105E+02  0.00000000000E+00 0.  1.
         21   -1    0    0  501  502  0.00000000000E+00 -0.00000000000E+00 -0.84366229122E+02  0.84366229122E+02  0.00000000000E+00 0. -1.
         24    2    1    2    0    0  0.17698118526E+02  0.15049187525E+02 -0.52181733195E+02  0.99964625154E+02  0.82038354191E+02 0.  0.
        -13    1    3    3    0    0  0.69382707010E+01  0.34147685669E+02  0.81397986411E+01  0.35783520772E+02  0.00000000000E+00 0.  1.
         14    1    3    3    0    0  0.10759847825E+02 -0.19098498144E+02 -0.60321531837E+02  0.64181104382E+02  0.00000000000E+00 0. -1.
         -4    1    1    2    0  502 -0.17698118526E+02 -0.15049187525E+02  0.79766411786E+01  0.24562741073E+02  0.00000000000E+00 0.  1.
<mgrwt>
<rscale>  1 0.85264254E+02</rscale>
<asrwt>0</asrwt>
<pdfrwt beam="1">  1       21 0.12979420E-01 0.85264254E+02</pdfrwt>
<pdfrwt beam="2">  1       -3 0.61786365E-02 0.85264254E+02</pdfrwt>
<totfact> 0.36259058E+05</totfact>
</mgrwt>
</event>
<event>
 6    2  0.7993170E+000  0.1113019E+03  0.7546771E-02  0.1258178E+00
          2   -1    0    0  502    0 -0.00000000000E+00  0.00000000000E+00  0.20779913966E+04  0.20779913966E+04  0.00000000000E+00 0. -1.
         21   -1    0    0  501  502  0.00000000000E+00 -0.00000000000E+00 -0.58132968644E+01  0.58132968644E+01  0.00000000000E+00 0. -1.
         24    2    1    2    0    0  0.28876147251E+02 -0.71459180737E+02  0.64391461470E+03  0.65346318562E+03  0.80298552526E+02 0.  0.
        -13    1    3    3    0    0  0.33872237366E+02 -0.20047731807E+02  0.10595882563E+03  0.11303323734E+03  0.00000000000E+00 0.  1.
         14    1    3    3    0    0 -0.49960901153E+01 -0.51411448930E+02  0.53795578908E+03  0.54042994828E+03  0.00000000000E+00 0. -1.
          1    1    1    2  501    0 -0.28876147251E+02  0.71459180737E+02  0.14282634850E+04  0.14303415079E+04  0.00000000000E+00 0. -1.
<mgrwt>
<rscale>  1 0.11130186E+03</rscale>
<asrwt>0</asrwt>
<pdfrwt beam="1">  1       21 0.89435502E-03 0.11130186E+03</pdfrwt>
<pdfrwt beam="2">  1        2 0.31969039E+00 0.11130186E+03</pdfrwt>
<totfact> 0.39129194E+05</totfact>
</mgrwt>
</event>
<event>
 6    2  0.7993170E+000  0.9224751E+02  0.7546771E-02  0.1297499E+00
         21   -1    0    0  501  502  0.00000000000E+00  0.00000000000E+00  0.44117644359E+01  0.44117644359E+01  0.00000000000E+00 0. -1.
          2   -1    0    0  502    0 -0.00000000000E+00 -0.00000000000E+00 -0.17337052606E+04  0.17337052606E+04  0.00000000000E+00 0. -1.
         24    2    1    2    0    0 -0.12508334773E+02 -0.41889595774E+02 -0.15763853395E+04  0.15790821199E+04  0.81230574064E+02 0.  0.
        -13    1    3    3    0    0  0.20931799039E+02  0.90746218637E+01 -0.19121018946E+03  0.19256641848E+03  0.00000000000E+00 0.  1.
         14    1    3    3    0    0 -0.33440133812E+02 -0.50964217637E+02 -0.13851751500E+04  0.13865157014E+04  0.00000000000E+00 0. -1.
          1    1    1    2  501    0  0.12508334773E+02  0.41889595774E+02 -0.15290815663E+03  0.15903490509E+03  0.00000000000E+00 0. -1.
<mgrwt>
<rscale>  1 0.92247509E+02</rscale>
<asrwt>0</asrwt>
<pdfrwt beam="1">  1       21 0.67873310E-03 0.92247509E+02</pdfrwt>
<pdfrwt beam="2">  1        2 0.26672384E+00 0.92247509E+02</pdfrwt>
<totfact> 0.89082913E+05</totfact>
</mgrwt>
</event>
<event>
 6    2  0.7993170E+000  0.8463795E+02  0.7546771E-02  0.1316382E+00
         21   -1    0    0  501  502  0.00000000000E+00  0.00000000000E+00  0.22795128649E+03  0.22795128649E+03  0.00000000000E+00 0. -1.
         -3   -1    0    0    0  501 -0.00000000000E+00 -0.00000000000E+00 -0.22974695315E+02  0.22974695315E+02  0.00000000000E+00 0.  1.
         24    2    1    2    0    0 -0.16862827589E+02 -0.14547432436E+02  0.58789805493E+02  0.10305252559E+03  0.81655367588E+02 0.  0.
        -11    1    3    3    0    0 -0.26883902406E+02 -0.15238125452E+02 -0.10804875317E+02  0.32736676778E+02  0.00000000000E+00 0.  1.
         12    1    3    3    0    0  0.10021074817E+02  0.69069301538E+00  0.69594680810E+02  0.70315848813E+02  0.00000000000E+00 0. -1.
         -4    1    1    2    0  502  0.16862827589E+02  0.14547432436E+02  0.14618678569E+03  0.14787345622E+03  0.00000000000E+00 0.  1.
<mgrwt>
<rscale>  1 0.84637945E+02</rscale>
<asrwt>0</asrwt>
<pdfrwt beam="1">  1       21 0.35069427E-01 0.84637945E+02</pdfrwt>
<pdfrwt beam="2">  1       -3 0.35345687E-02 0.84637945E+02</pdfrwt>
<totfact> 0.13858207E+05</totfact>
</mgrwt>
</event>
<event>
 6    2  0.7993170E+000  0.9331856E+02  0.7546771E-02  0.1295009E+00
          2   -1    0    0  502    0 -0.00000000000E+00  0.00000000000E+00  0.43345973732E+03  0.43345973732E+03  0.00000000000E+00 0. -1.
         21   -1    0    0  501  502  0.00000000000E+00 -0.00000000000E+00 -0.12542399420E+02  0.12542399420E+02  0.00000000000E+00 0. -1.
         24    2    1    2    0    0 -0.23764303530E+02 -0.40018119732E+02  0.34081542454E+03  0.35336030734E+03  0.80883627369E+02 0.  0.
        -11    1    3    3    0    0  0.20781386944E+02 -0.12191539969E+02  0.31713009090E+02  0.39827310174E+02  0.00000000000E+00 0.  1.
         12    1    3    3    0    0 -0.44545690473E+02 -0.27826579763E+02  0.30910241544E+03  0.31353299717E+03  0.00000000000E+00 0. -1.
          1    1    1    2  501    0  0.23764303530E+02  0.40018119732E+02  0.80101913368E+02  0.92641829398E+02  0.00000000000E+00 0. -1.
<mgrwt>
<rscale>  1 0.93318558E+02</rscale>
<asrwt>0</asrwt>
<pdfrwt beam="1">  1       21 0.19296002E-02 0.93318558E+02</pdfrwt>
<pdfrwt beam="2">  1        2 0.66686102E-01 0.93318558E+02</pdfrwt>
<totfact> 0.11199792E+06</totfact>
</mgrwt>
</event>
<event>
 6    2  0.7993170E+000  0.8501458E+02  0.7546771E-02  0.1315394E+00
         21   -1    0    0  501  502  0.00000000000E+00  0.00000000000E+00  0.86380397674E+00  0.86380397674E+00  0.00000000000E+00 0.  1.
          2   -1    0    0  502    0 -0.00000000000E+00 -0.00000000000E+00 -0.37987738213E+04  0.37987738213E+04  0.00000000000E+00 0. -1.
         24    2    1    2    0    0  0.24430329903E+02 -0.40113251933E+01 -0.23933523034E+04  0.23948617344E+04  0.81329866112E+02 0.  0.
        -11    1    3    3    0    0  0.25181034951E+02  0.27686382765E+02 -0.56677432202E+03  0.56800858481E+03  0.00000000000E+00 0.  1.
         12    1    3    3    0    0 -0.75070504806E+00 -0.31697707958E+02 -0.18265779814E+04  0.18268531496E+04  0.00000000000E+00 0. -1.
          1    1    1    2  501    0 -0.24430329903E+02  0.40113251933E+01 -0.14045577140E+04  0.14047758909E+04  0.00000000000E+00 0. -1.
<mgrwt>
<rscale>  1 0.85014580E+02</rscale>
<asrwt>0</asrwt>
<pdfrwt beam="1">  1       21 0.13289350E-03 0.85014580E+02</pdfrwt>
<pdfrwt beam="2">  1        2 0.58442418E+00 0.85014580E+02</pdfrwt>
<totfact> 0.72479173E+05</totfact>
</mgrwt>
</event>
<event>
 6    2  0.7993170E+000  0.8357900E+02  0.7546771E-02  0.1319191E+00
         21   -1    0    0  501  502  0.00000000000E+00  0.00000000000E+00  0.72088272563E+01  0.72088272563E+01  0.00000000000E+00 0. -1.
          2   -1    0    0  502    0 -0.00000000000E+00 -0.00000000000E+00 -0.75320978134E+03  0.75320978134E+03  0.00000000000E+00 0. -1.
         24    2    1    2    0    0 -0.43757521141E+01  0.20870256238E+02 -0.72720811316E+03  0.73199527888E+03  0.80812954789E+02 0.  0.
        -11    1    3    3    0    0  0.28547937164E+02  0.25611289078E+02 -0.19423896636E+03  0.19798913833E+03  0.00000000000E+00 0.  1.
         12    1    3    3    0    0 -0.32923689278E+02 -0.47410328403E+01 -0.53296914679E+03  0.53400614055E+03  0.00000000000E+00 0. -1.
          1    1    1    2  501    0  0.43757521141E+01 -0.20870256238E+02 -0.18792840929E+02  0.28423329717E+02  0.00000000000E+00 0. -1.
<mgrwt>
<rscale>  1 0.83578995E+02</rscale>
<asrwt>0</asrwt>
<pdfrwt beam="1">  1       21 0.11090510E-02 0.83578995E+02</pdfrwt>
<pdfrwt beam="2">  1        2 0.11587836E+00 0.83578995E+02</pdfrwt>
<totfact> 0.14382175E+06</totfact>
</mgrwt>
</event>
<event>
 6    2  0.7993170E+000  0.6636475E+02  0.7546771E-02  0.1372910E+00
         21   -1    0    0  501  502  0.00000000000E+00  0.00000000000E+00  0.52165090264E+01  0.52165090264E+01  0.00000000000E+00 0.  1.
          2   -1    0    0  502    0 -0.00000000000E+00 -0.00000000000E+00 -0.46791706791E+03  0.46791706791E+03  0.00000000000E+00 0. -1.
         24    2    1    2    0    0 -0.22679087310E+02 -0.14611328776E+02 -0.24729349422E+03  0.25604365217E+03  0.60633716703E+02 0.  0.
        -13    1    3    3    0    0 -0.61419126615E+01  0.12169631632E+01  0.13029838018E+01  0.63954559861E+01  0.00000000000E+00 0.  1.
         14    1    3    3    0    0 -0.16537174648E+02 -0.15828291939E+02 -0.24859647802E+03  0.24964819618E+03  0.00000000000E+00 0. -1.
          1    1    1    2  501    0  0.22679087310E+02  0.14611328776E+02 -0.21540706466E+03  0.21708992477E+03  0.00000000000E+00 0. -1.
<mgrwt>
<rscale>  1 0.66364746E+02</rscale>
<asrwt>0</asrwt>
<pdfrwt beam="1">  1       21 0.80253997E-03 0.66364746E+02</pdfrwt>
<pdfrwt beam="2">  1        2 0.71987230E-01 0.66364746E+02</pdfrwt>
<totfact> 0.39224228E+06</totfact>
</mgrwt>
</event>
<event>
 6    2  0.7993170E+000  0.8641935E+02  0.7546771E-02  0.1311762E+00
         21   -1    0    0  501  502  0.00000000000E+00  0.00000000000E+00  0.10253234853E+01  0.10253234853E+01  0.00000000000E+00 0.  1.
          2   -1    0    0  502    0 -0.00000000000E+00 -0.00000000000E+00 -0.33129549324E+04  0.33129549324E+04  0.00000000000E+00 0. -1.
         24    2    1    2    0    0  0.24810586865E+02  0.76102269591E+01 -0.28606662517E+04  0.28619712977E+04  0.82430722967E+02 0.  0.
        -13    1    3    3    0    0 -0.23670422578E+02  0.91999827977E+01 -0.38846531863E+03  0.38929453164E+03  0.00000000000E+00 0.  1.
         14    1    3    3    0    0  0.48481009443E+02 -0.15897558386E+01 -0.24722009331E+04  0.24726767660E+04  0.00000000000E+00 0. -1.
          1    1    1    2  501    0 -0.24810586865E+02 -0.76102269591E+01 -0.45126335717E+03  0.45200895821E+03  0.00000000000E+00 0. -1.
<mgrwt>
<rscale>  1 0.86419355E+02</rscale>
<asrwt>0</asrwt>
<pdfrwt beam="1">  1       21 0.15774562E-03 0.86419355E+02</pdfrwt>
<pdfrwt beam="2">  1        2 0.50967392E+00 0.86419355E+02</pdfrwt>
<totfact> 0.11589060E+06</totfact>
</mgrwt>
</event>
<event>
 6    2  0.7993170E+000  0.1071644E+03  0.7546771E-02  0.1265913E+00
          2   -1    0    0  502    0 -0.00000000000E+00  0.00000000000E+00  0.62897761531E+03  0.62897761531E+03  0.00000000000E+00 0. -1.
         21   -1    0    0  501  502  0.00000000000E+00 -0.00000000000E+00 -0.12587871932E+02  0.12587871932E+02  0.00000000000E+00 0.  1.
         24    2    1    2    0    0 -0.68894840973E+02 -0.91188739138E+01  0.33512100944E+03  0.35183845422E+03  0.81575449274E+02 0.  0.
        -13    1    3    3    0    0 -0.55843039616E+02  0.87188617714E+01  0.93834223246E+02  0.10954143087E+03  0.00000000000E+00 0.  1.
         14    1    3    3    0    0 -0.13051801358E+02 -0.17837735685E+02  0.24128678619E+03  0.24229702335E+03  0.00000000000E+00 0. -1.
          1    1    1    2  501    0  0.68894840973E+02  0.91188739138E+01  0.28126873394E+03  0.28972703302E+03  0.00000000000E+00 0. -1.
<mgrwt>
<rscale>  1 0.10716439E+03</rscale>
<asrwt>0</asrwt>
<pdfrwt beam="1">  1       21 0.19365962E-02 0.10716439E+03</pdfrwt>
<pdfrwt beam="2">  1        2 0.96765763E-01 0.10716439E+03</pdfrwt>
<totfact> 0.74969600E+05</totfact>
</mgrwt>
</event>
<event>
 6    2  0.7993170E+000  0.8127866E+02  0.7546771E-02  0.1325461E+00
         21   -1    0    0  501  502  0.00000000000E+00  0.00000000000E+00  0.13327261305E+03  0.13327261305E+03  0.00000000000E+00 0.  1.
         -1   -1    0    0    0  501 -0.00000000000E+00 -0.00000000000E+00 -0.44297800395E+02  0.44297800395E+02  0.00000000000E+00 0.  1.
         24    2    1    2    0    0 -0.21300906442E+02 -0.11966955506E+02 -0.40609376855E+01  0.81380042406E+02  0.77519568160E+02 0.  0.
        -11    1    3    3    0    0 -0.69574837412E+01  0.23584827326E+02 -0.27148032175E+02  0.36628763438E+02  0.00000000000E+00 0.  1.
         12    1    3    3    0    0 -0.14343422701E+02 -0.35551782832E+02  0.23087094489E+02  0.44751278968E+02  0.00000000000E+00 0. -1.
         -2    1    1    2    0  502  0.21300906442E+02  0.11966955506E+02  0.93035750339E+02  0.96190371038E+02  0.00000000000E+00 0.  1.
<mgrwt>
<rscale>  1 0.81278657E+02</rscale>
<asrwt>0</asrwt>
<pdfrwt beam="1">  1       21 0.20503479E-01 0.81278657E+02</pdfrwt>
<pdfrwt beam="2">  1       -1 0.68150463E-02 0.81278657E+02</pdfrwt>
<totfact> 0.20259431E+05</totfact>
</mgrwt>
</event>
<event>
 6    2  0.7993170E+000  0.9084287E+02  0.7546771E-02  0.1300823E+00
         21   -1    0    0  501  502  0.00000000000E+00  0.00000000000E+00  0.91879872627E+01  0.91879872627E+01  0.00000000000E+00 0.  1.
          2   -1    0    0  502    0 -0.00000000000E+00 -0.00000000000E+00 -0.54586741654E+03  0.54586741654E+03  0.00000000000E+00 0. -1.
         24    2    1    2    0    0 -0.29166014799E+01  0.39418044127E+02 -0.45894368375E+03  0.46784797923E+03  0.81793264111E+02 0.  0.
        -13    1    3    3    0    0  0.28091100129E+02  0.34628996139E+02 -0.13047112552E+03  0.13788035347E+03  0.00000000000E+00 0.  1.
         14    1    3    3    0    0 -0.31007701609E+02  0.47890479881E+01 -0.32847255823E+03  0.32996762576E+03  0.00000000000E+00 0. -1.
          1    1    1    2  501    0  0.29166014799E+01 -0.39418044127E+02 -0.77735745529E+02  0.87207424569E+02  0.00000000000E+00 0. -1.
<mgrwt>
<rscale>  1 0.90842869E+02</rscale>
<asrwt>0</asrwt>
<pdfrwt beam="1">  1       21 0.14135359E-02 0.90842869E+02</pdfrwt>
<pdfrwt beam="2">  1        2 0.83979637E-01 0.90842869E+02</pdfrwt>
<totfact> 0.14288555E+06</totfact>
</mgrwt>
</event>
<event>
 6    2  0.7993170E+000  0.1520551E+03  0.7546771E-02  0.1197970E+00
          2   -1    0    0  502    0 -0.00000000000E+00  0.00000000000E+00  0.14169758503E+04  0.14169758503E+04  0.00000000000E+00 0. -1.
         21   -1    0    0  501  502  0.00000000000E+00 -0.00000000000E+00 -0.15596543931E+02  0.15596543931E+02  0.00000000000E+00 0.  1.
         24    2    1    2    0    0 -0.69625640615E+02  0.10906526522E+03  0.98146826911E+03  0.99317708119E+03  0.79861063254E+02 0.  0.
        -13    1    3    3    0    0 -0.73444130157E+02  0.82160225140E+02  0.55448573501E+03  0.56533067596E+03  0.00000000000E+00 0.  1.
         14    1    3    3    0    0  0.38184895415E+01  0.26905040082E+02  0.42698253410E+03  0.42784640523E+03  0.00000000000E+00 0. -1.
          1    1    1    2  501    0  0.69625640615E+02 -0.10906526522E+03  0.41991103726E+03  0.43939531304E+03  0.00000000000E+00 0. -1.
<mgrwt>
<rscale>  1 0.15205509E+03</rscale>
<asrwt>0</asrwt>
<pdfrwt beam="1">  1       21 0.23994694E-02 0.15205509E+03</pdfrwt>
<pdfrwt beam="2">  1        2 0.21799618E+00 0.15205509E+03</pdfrwt>
<totfact> 0.17753189E+05</totfact>
</mgrwt>
</event>
<event>
 6    2  0.7993170E+000  0.8662466E+02  0.7546771E-02  0.1311238E+00
         21   -1    0    0  501  502  0.00000000000E+00  0.00000000000E+00  0.58690037486E+02  0.58690037486E+02  0.00000000000E+00 0. -1.
          4   -1    0    0  502    0 -0.00000000000E+00 -0.00000000000E+00 -0.70625576696E+02  0.70625576696E+02  0.00000000000E+00 0. -1.
         24    2    1    2    0    0  0.17722495573E+01  0.32268411470E+02 -0.30750206827E+02  0.91920655098E+02  0.80370643686E+02 0.  0.
        -11    1    3    3    0    0  0.68640688278E+00 -0.27000439842E+02 -0.13426736646E+02  0.30162429661E+02  0.00000000000E+00 0.  1.
         12    1    3    3    0    0  0.10858426745E+01  0.59268851312E+02 -0.17323470181E+02  0.61758225438E+02  0.00000000000E+00 0. -1.
          3    1    1    2  501    0 -0.17722495573E+01 -0.32268411470E+02  0.18814667618E+02  0.37394959084E+02  0.00000000000E+00 0. -1.
<mgrwt>
<rscale>  1 0.86624659E+02</rscale>
<asrwt>0</asrwt>
<pdfrwt beam="1">  1       21 0.90292366E-02 0.86624659E+02</pdfrwt>
<pdfrwt beam="2">  1        4 0.10865473E-01 0.86624659E+02</pdfrwt>
<totfact> 0.23687471E+05</totfact>
</mgrwt>
</event>
<event>
 6    2  0.7993170E+000  0.9710003E+02  0.7546771E-02  0.1286515E+00
          2   -1    0    0  502    0 -0.00000000000E+00  0.00000000000E+00  0.83204319170E+03  0.83204319170E+03  0.00000000000E+00 0. -1.
         21   -1    0    0  501  502  0.00000000000E+00 -0.00000000000E+00 -0.19090864136E+02  0.19090864136E+02  0.00000000000E+00 0. -1.
         24    2    1    2    0    0  0.19136968352E+02 -0.55361717314E+02  0.77561689476E+03  0.78167127555E+03  0.77442057623E+02 0.  0.
        -13    1    3    3    0    0 -0.29070606519E+02 -0.32661216576E+02  0.33288820265E+03  0.33574754012E+03  0.00000000000E+00 0.  1.
         14    1    3    3    0    0  0.48207574871E+02 -0.22700500738E+02  0.44272869211E+03  0.44592373544E+03  0.00000000000E+00 0. -1.
          1    1    1    2  501    0 -0.19136968352E+02  0.55361717314E+02  0.37335432803E+02  0.69462780280E+02  0.00000000000E+00 0. -1.
<mgrwt>
<rscale>  1 0.97100029E+02</rscale>
<asrwt>0</asrwt>
<pdfrwt beam="1">  1       21 0.29370567E-02 0.97100029E+02</pdfrwt>
<pdfrwt beam="2">  1        2 0.12800662E+00 0.97100029E+02</pdfrwt>
<totfact> 0.27268936E+05</totfact>
</mgrwt>
</event>
<event>
 6    2  0.7993170E+000  0.7868312E+02  0.7546771E-02  0.1332831E+00
         21   -1    0    0  501  502  0.00000000000E+00  0.00000000000E+00  0.57048991517E+01  0.57048991517E+01  0.00000000000E+00 0. -1.
          2   -1    0    0  502    0 -0.00000000000E+00 -0.00000000000E+00 -0.63951041662E+03  0.63951041662E+03  0.00000000000E+00 0. -1.
         24    2    1    2    0    0 -0.10304274568E+02  0.21516487210E+02 -0.28700465182E+03  0.29759486512E+03  0.74979305703E+02 0.  0.
        -13    1    3    3    0    0  0.22258437280E+02 -0.16563849693E+01 -0.20662863674E+03  0.20783064058E+03  0.00000000000E+00 0.  1.
         14    1    3    3    0    0 -0.32562711848E+02  0.23172872180E+02 -0.80376015080E+02  0.89764224544E+02  0.00000000000E+00 0. -1.
          1    1    1    2  501    0  0.10304274568E+02 -0.21516487210E+02 -0.34680086565E+03  0.34762045065E+03  0.00000000000E+00 0. -1.
<mgrwt>
<rscale>  1 0.78683121E+02</rscale>
<asrwt>0</asrwt>
<pdfrwt beam="1">  1       21 0.87767626E-03 0.78683121E+02</pdfrwt>
<pdfrwt beam="2">  1        2 0.98386278E-01 0.78683121E+02</pdfrwt>
<totfact> 0.24867671E+06</totfact>
</mgrwt>
</event>
<event>
 6    2  0.7993170E+000  0.8770678E+02  0.7546771E-02  0.1308502E+00
          2   -1    0    0  502    0 -0.00000000000E+00  0.00000000000E+00  0.60272866194E+03  0.60272866194E+03  0.00000000000E+00 0. -1.
         21   -1    0    0  501  502  0.00000000000E+00 -0.00000000000E+00 -0.20333155466E+02  0.20333155466E+02  0.00000000000E+00 0. -1.
         24    2    1    2    0    0 -0.27463045399E+02  0.23696646841E+01  0.58835792799E+03  0.59485925292E+03  0.83262507626E+02 0.  0.
        -11    1    3    3    0    0  0.28300218075E+02  0.12658344641E+02  0.20840567851E+03  0.21069898639E+03  0.00000000000E+00 0.  1.
         12    1    3    3    0    0 -0.55763263473E+02 -0.10288679957E+02  0.37995224948E+03  0.38416026653E+03  0.00000000000E+00 0. -1.
          1    1    1    2  501    0  0.27463045399E+02 -0.23696646841E+01 -0.59624215199E+01  0.28202564487E+02  0.00000000000E+00 0. -1.
<mgrwt>
<rscale>  1 0.87706781E+02</rscale>
<asrwt>0</asrwt>
<pdfrwt beam="1">  1       21 0.31281782E-02 0.87706781E+02</pdfrwt>
<pdfrwt beam="2">  1        2 0.92727473E-01 0.87706781E+02</pdfrwt>
<totfact> 0.35734099E+05</totfact>
</mgrwt>
</event>
<event>
 6    2  0.7993170E+000  0.8164242E+02  0.7546771E-02  0.1324454E+00
         21   -1    0    0  501  502  0.00000000000E+00  0.00000000000E+00  0.22086462275E+01  0.22086462275E+01  0.00000000000E+00 0.  1.
          2   -1    0    0  502    0 -0.00000000000E+00 -0.00000000000E+00 -0.11925200343E+04  0.11925200343E+04  0.00000000000E+00 0. -1.
         24    2    1    2    0    0  0.11816140635E+02  0.16973967729E+02 -0.90973218695E+03  0.91338827308E+03  0.78979419267E+02 0.  0.
        -13    1    3    3    0    0 -0.22250556669E+02  0.12820085567E+02 -0.11151043525E+03  0.11442910048E+03  0.00000000000E+00 0.  1.
         14    1    3    3    0    0  0.34066697304E+02  0.41538821614E+01 -0.79822175170E+03  0.79895917260E+03  0.00000000000E+00 0. -1.
          1    1    1    2  501    0 -0.11816140635E+02 -0.16973967729E+02 -0.28057920108E+03  0.28134040741E+03  0.00000000000E+00 0. -1.
<mgrwt>
<rscale>  1 0.81642424E+02</rscale>
<asrwt>0</asrwt>
<pdfrwt beam="1">  1       21 0.33979081E-03 0.81642424E+02</pdfrwt>
<pdfrwt beam="2">  1        2 0.18346511E+00 0.81642424E+02</pdfrwt>
<totfact> 0.48300227E+06</totfact>
</mgrwt>
</event>
<event>
 6    2  0.7993170E+000  0.9590210E+02  0.7546771E-02  0.1289157E+00
         -1   -1    0    0    0  501 -0.00000000000E+00  0.00000000000E+00  0.30773662678E+03  0.30773662678E+03  0.00000000000E+00 0.  1.
         21   -1    0    0  501  502  0.00000000000E+00 -0.00000000000E+00 -0.12479506425E+02  0.12479506425E+02  0.00000000000E+00 0. -1.
         24    2    1    2    0    0 -0.20390372719E+02  0.10742157056E+02  0.19451791559E+03  0.21687423166E+03  0.93091630322E+02 0.  0.
        -11    1    3    3    0    0  0.24156436471E+02  0.11469461622E+02  0.15509612424E+03  0.15738452823E+03  0.00000000000E+00 0.  1.
         12    1    3    3    0    0 -0.44546809190E+02 -0.72730456643E+00  0.39421791351E+02  0.59489703431E+02  0.00000000000E+00 0. -1.
         -2    1    1    2    0  502  0.20390372719E+02 -0.10742157056E+02  0.10073920477E+03  0.10334190155E+03  0.00000000000E+00 0.  1.
<mgrwt>
<rscale>  1 0.95902100E+02</rscale>
<asrwt>0</asrwt>
<pdfrwt beam="1">  1       21 0.19199243E-02 0.95902100E+02</pdfrwt>
<pdfrwt beam="2">  1       -1 0.47344091E-01 0.95902100E+02</pdfrwt>
<totfact> 0.51964298E+05</totfact>
</mgrwt>
</event>
<event>
 6    2  0.7993170E+000  0.7884060E+02  0.7546771E-02  0.1332374E+00
         21   -1    0    0  501  502  0.00000000000E+00  0.00000000000E+00  0.98135920113E+01  0.98135920113E+01  0.00000000000E+00 0. -1.
          2   -1    0    0  502    0 -0.00000000000E+00 -0.00000000000E+00 -0.88902313208E+03  0.88902313208E+03  0.00000000000E+00 0. -1.
         24    2    1    2    0    0 -0.21672118666E+02  0.43521427697E+01 -0.87204231588E+03  0.87559901816E+03  0.75678385637E+02 0.  0.
        -11    1    3    3    0    0  0.72118506280E+01 -0.31417702215E+02 -0.41502916085E+03  0.41627909767E+03  0.00000000000E+00 0.  1.
         12    1    3    3    0    0 -0.28883969294E+02  0.35769844985E+02 -0.45701315502E+03  0.45931992049E+03  0.00000000000E+00 0. -1.
          1    1    1    2  501    0  0.21672118666E+02 -0.43521427697E+01 -0.71672241894E+01  0.23237705927E+02  0.00000000000E+00 0. -1.
<mgrwt>
<rscale>  1 0.78840598E+02</rscale>
<asrwt>0</asrwt>
<pdfrwt beam="1">  1       21 0.15097837E-02 0.78840598E+02</pdfrwt>
<pdfrwt beam="2">  1        2 0.13677276E+00 0.78840598E+02</pdfrwt>
<totfact> 0.71898746E+05</totfact>
</mgrwt>
</event>
<event>
 6    2  0.7993170E+000  0.9214672E+02  0.7546771E-02  0.1297735E+00
          2   -1    0    0  502    0 -0.00000000000E+00  0.00000000000E+00  0.18603741613E+03  0.18603741613E+03  0.00000000000E+00 0. -1.
         21   -1    0    0  501  502  0.00000000000E+00 -0.00000000000E+00 -0.10626567361E+03  0.10626567361E+03  0.00000000000E+00 0. -1.
         24    2    1    2    0    0  0.38434288428E+02  0.15588934357E+02  0.16979367089E+03  0.19318620426E+03  0.82284928397E+02 0.  0.
        -13    1    3    3    0    0  0.17453582867E+02  0.44472419004E+02  0.54417809935E+02  0.72413546005E+02  0.00000000000E+00 0.  1.
         14    1    3    3    0    0  0.20980705561E+02 -0.28883484647E+02  0.11537586095E+03  0.12077265825E+03  0.00000000000E+00 0. -1.
          1    1    1    2  501    0 -0.38434288428E+02 -0.15588934357E+02 -0.90021928369E+02  0.99116885487E+02  0.00000000000E+00 0. -1.
<mgrwt>
<rscale>  1 0.92146725E+02</rscale>
<asrwt>0</asrwt>
<pdfrwt beam="1">  1       21 0.16348565E-01 0.92146725E+02</pdfrwt>
<pdfrwt beam="2">  1        2 0.28621141E-01 0.92146725E+02</pdfrwt>
<totfact> 0.74814595E+04</totfact>
</mgrwt>
</event>
<event>
 6    2  0.7993170E+000  0.1992316E+03  0.7546771E-02  0.1150389E+00
          2   -1    0    0  502    0 -0.00000000000E+00  0.00000000000E+00  0.55825166891E+03  0.55825166891E+03  0.00000000000E+00 0. -1.
         21   -1    0    0  501  502  0.00000000000E+00 -0.00000000000E+00 -0.81992565174E+02  0.81992565174E+02  0.00000000000E+00 0. -1.
         24    2    1    2    0    0  0.14088548447E+03 -0.11552969710E+03  0.39153892495E+03  0.43931305347E+03  0.80606442397E+02 0.  0.
        -13    1    3    3    0    0  0.51500412921E+02 -0.22609143674E+02  0.20483019280E+03  0.21241203777E+03  0.00000000000E+00 0.  1.
         14    1    3    3    0    0  0.89385071552E+02 -0.92920553428E+02  0.18670873215E+03  0.22690101570E+03  0.00000000000E+00 0. -1.
          1    1    1    2  501    0 -0.14088548447E+03  0.11552969710E+03  0.84720178789E+02  0.20093118061E+03  0.00000000000E+00 0. -1.
<mgrwt>
<rscale>  1 0.19923160E+03</rscale>
<asrwt>0</asrwt>
<pdfrwt beam="1">  1       21 0.12614241E-01 0.19923160E+03</pdfrwt>
<pdfrwt beam="2">  1        2 0.85884870E-01 0.19923160E+03</pdfrwt>
<totfact> 0.36936127E+04</totfact>
</mgrwt>
</event>
<event>
 6    2  0.7993170E+000  0.8366756E+02  0.7546771E-02  0.1318954E+00
         21   -1    0    0  501  502  0.00000000000E+00  0.00000000000E+00  0.16473062557E+01  0.16473062557E+01  0.00000000000E+00 0. -1.
          2   -1    0    0  502    0 -0.00000000000E+00 -0.00000000000E+00 -0.19910027104E+04  0.19910027104E+04  0.00000000000E+00 0. -1.
         24    2    1    2    0    0 -0.21949505747E+02  0.71186742116E+01 -0.17916609251E+04  0.17936134286E+04  0.80422661829E+02 0.  0.
        -11    1    3    3    0    0 -0.11590777120E+02  0.20711985645E+01 -0.35245602028E+02  0.37160307319E+02  0.00000000000E+00 0.  1.
         12    1    3    3    0    0 -0.10358728627E+02  0.50474756471E+01 -0.17564153230E+04  0.17564531213E+04  0.00000000000E+00 0. -1.
          1    1    1    2  501    0  0.21949505747E+02 -0.71186742116E+01 -0.19769447902E+03  0.19903658800E+03  0.00000000000E+00 0. -1.
<mgrwt>
<rscale>  1 0.83667562E+02</rscale>
<asrwt>0</asrwt>
<pdfrwt beam="1">  1       21 0.25343227E-03 0.83667562E+02</pdfrwt>
<pdfrwt beam="2">  1        2 0.30630746E+00 0.83667562E+02</pdfrwt>
<totfact> 0.29538151E+06</totfact>
</mgrwt>
</event>
<event>
 6    2  0.7993170E+000  0.8265862E+02  0.7546771E-02  0.1321672E+00
         21   -1    0    0  501  502  0.00000000000E+00  0.00000000000E+00  0.43331231903E+02  0.43331231903E+02  0.00000000000E+00 0.  1.
         -1   -1    0    0    0  501 -0.00000000000E+00 -0.00000000000E+00 -0.65065591512E+02  0.65065591512E+02  0.00000000000E+00 0.  1.
         24    2    1    2    0    0 -0.22579147993E+01  0.21323905321E+02 -0.82569238099E+01  0.83069991930E+02  0.79828814666E+02 0.  0.
        -11    1    3    3    0    0 -0.83967768957E+01  0.47544814571E+02  0.11546997590E+02  0.49642203901E+02  0.00000000000E+00 0.  1.
         12    1    3    3    0    0  0.61388620964E+01 -0.26220909249E+02 -0.19803921400E+02  0.33427788029E+02  0.00000000000E+00 0. -1.
         -2    1    1    2    0  502  0.22579147993E+01 -0.21323905321E+02 -0.13477435798E+02  0.25326831486E+02  0.00000000000E+00 0.  1.
<mgrwt>
<rscale>  1 0.82658616E+02</rscale>
<asrwt>0</asrwt>
<pdfrwt beam="1">  1       21 0.66663434E-02 0.82658616E+02</pdfrwt>
<pdfrwt beam="2">  1       -1 0.10010091E-01 0.82658616E+02</pdfrwt>
<totfact> 0.81764378E+05</totfact>
</mgrwt>
</event>
<event>
 6    2  0.7993170E+000  0.7416581E+02  0.7546771E-02  0.1346474E+00
         21   -1    0    0  501  502  0.00000000000E+00  0.00000000000E+00  0.11953086161E+02  0.11953086161E+02  0.00000000000E+00 0. -1.
         -1   -1    0    0    0  501 -0.00000000000E+00 -0.00000000000E+00 -0.23657481090E+03  0.23657481090E+03  0.00000000000E+00 0.  1.
         24    2    1    2    0    0 -0.24126235567E+02 -0.11299133498E+02 -0.12444613869E+03  0.14487031799E+03  0.69215763645E+02 0.  0.
        -13    1    3    3    0    0 -0.14466710172E+02 -0.83203561123E+01 -0.13149316338E+03  0.13254797639E+03  0.00000000000E+00 0.  1.
         14    1    3    3    0    0 -0.96595253943E+01 -0.29787773862E+01  0.70470246847E+01  0.12322341598E+02  0.00000000000E+00 0. -1.
         -2    1    1    2    0  502  0.24126235567E+02  0.11299133498E+02 -0.10017558605E+03  0.10365757908E+03  0.00000000000E+00 0.  1.
<mgrwt>
<rscale>  1 0.74165812E+02</rscale>
<asrwt>0</asrwt>
<pdfrwt beam="1">  1       21 0.18389363E-02 0.74165812E+02</pdfrwt>
<pdfrwt beam="2">  1       -1 0.36396125E-01 0.74165812E+02</pdfrwt>
<totfact> 0.85429486E+05</totfact>
</mgrwt>
</event>
<event>
 6    2  0.7993170E+000  0.8370414E+02  0.7546771E-02  0.1318857E+00
         -1   -1    0    0    0  501 -0.00000000000E+00  0.00000000000E+00  0.52030498142E+03  0.52030498142E+03  0.00000000000E+00 0.  1.
         21   -1    0    0  501  502  0.00000000000E+00 -0.00000000000E+00 -0.10552542290E+02  0.10552542290E+02  0.00000000000E+00 0.  1.
         24    2    1    2    0    0 -0.18660128086E+02  0.98479944998E+01  0.50111656212E+03  0.50805923984E+03  0.81001228217E+02 0.  0.
        -13    1    3    3    0    0  0.20021080258E+00 -0.79225936531E+01  0.45570790094E+03  0.45577680782E+03  0.00000000000E+00 0.  1.
         14    1    3    3    0    0 -0.18860338888E+02  0.17770588153E+02  0.45408661186E+02  0.52282432011E+02  0.00000000000E+00 0. -1.
         -2    1    1    2    0  502  0.18660128086E+02 -0.98479944998E+01  0.86358770025E+01  0.22798283871E+02  0.00000000000E+00 0.  1.
<mgrwt>
<rscale>  1 0.83704136E+02</rscale>
<asrwt>0</asrwt>
<pdfrwt beam="1">  1       21 0.16234684E-02 0.83704136E+02</pdfrwt>
<pdfrwt beam="2">  1       -1 0.80046900E-01 0.83704136E+02</pdfrwt>
<totfact> 0.24757786E+05</totfact>
</mgrwt>
</event>
<event>
 6    2  0.7993170E+000  0.7910274E+02  0.7546771E-02  0.1331617E+00
         -1   -1    0    0    0  501 -0.00000000000E+00  0.00000000000E+00  0.20436046179E+04  0.20436046179E+04  0.00000000000E+00 0.  1.
         21   -1    0    0  501  502  0.00000000000E+00 -0.00000000000E+00 -0.13991614929E+01  0.13991614929E+01  0.00000000000E+00 0. -1.
         24    2    1    2    0    0  0.18781267469E+02 -0.69476920047E+01  0.18638202374E+04  0.18654980893E+04  0.76526055940E+02 0.  0.
        -13    1    3    3    0    0  0.35593555945E+02  0.89262142645E+01  0.16541126964E+04  0.16545196859E+04  0.00000000000E+00 0.  1.
         14    1    3    3    0    0 -0.16812288476E+02 -0.15873906269E+02  0.20970754099E+03  0.21097840338E+03  0.00000000000E+00 0. -1.
         -2    1    1    2    0  502 -0.18781267469E+02  0.69476920047E+01  0.17838521901E+03  0.17950569014E+03  0.00000000000E+00 0.  1.
<mgrwt>
<rscale>  1 0.79102741E+02</rscale>
<asrwt>0</asrwt>
<pdfrwt beam="1">  1       21 0.21525725E-03 0.79102741E+02</pdfrwt>
<pdfrwt beam="2">  1       -1 0.31439832E+00 0.79102741E+02</pdfrwt>
<totfact> 0.11947090E+05</totfact>
</mgrwt>
</event>
<event>
 6    2  0.7993170E+000  0.9393696E+02  0.7546771E-02  0.1293588E+00
         21   -1    0    0  501  502  0.00000000000E+00  0.00000000000E+00  0.25541694648E+01  0.25541694648E+01  0.00000000000E+00 0.  1.
          2   -1    0    0  502    0 -0.00000000000E+00 -0.00000000000E+00 -0.18476603677E+04  0.18476603677E+04  0.00000000000E+00 0. -1.
         24    2    1    2    0    0 -0.26834117296E+02 -0.20194162843E+02 -0.98934060425E+03  0.99379021131E+03  0.87728437906E+02 0.  0.
        -11    1    3    3    0    0 -0.33696486333E+02 -0.41797351191E+02 -0.35425774659E+03  0.35830297623E+03  0.00000000000E+00 0.  1.
         12    1    3    3    0    0  0.68623690376E+01  0.21603188348E+02 -0.63508285765E+03  0.63548723507E+03  0.00000000000E+00 0. -1.
          1    1    1    2  501    0  0.26834117296E+02  0.20194162843E+02 -0.85576559399E+03  0.85642432586E+03  0.00000000000E+00 0. -1.
<mgrwt>
<rscale>  1 0.93936962E+02</rscale>
<asrwt>0</asrwt>
<pdfrwt beam="1">  1       21 0.39294908E-03 0.93936962E+02</pdfrwt>
<pdfrwt beam="2">  1        2 0.28425549E+00 0.93936962E+02</pdfrwt>
<totfact> 0.18086445E+06</totfact>
</mgrwt>
</event>
<event>
 6    2  0.7993170E+000  0.1335989E+03  0.7546771E-02  0.1222211E+00
         21   -1    0    0  501  502  0.00000000000E+00  0.00000000000E+00  0.75803969825E+01  0.75803969825E+01  0.00000000000E+00 0.  1.
          2   -1    0    0  502    0 -0.00000000000E+00 -0.00000000000E+00 -0.26267416817E+04  0.26267416817E+04  0.00000000000E+00 0. -1.
         24    2    1    2    0    0  0.29020713669E+02 -0.11131037203E+03 -0.76363235584E+03  0.77523095487E+03  0.67944519703E+02 0.  0.
        -11    1    3    3    0    0  0.13975963928E+02 -0.11263699401E+03 -0.72353905416E+03  0.73238731753E+03  0.00000000000E+00 0.  1.
         12    1    3    3    0    0  0.15044749740E+02  0.13266219798E+01 -0.40093301682E+02  0.42843637339E+02  0.00000000000E+00 0. -1.
          1    1    1    2  501    0 -0.29020713669E+02  0.11131037203E+03 -0.18555289289E+04  0.18590911238E+04  0.00000000000E+00 0. -1.
<mgrwt>
<rscale>  1 0.13359887E+03</rscale>
<asrwt>0</asrwt>
<pdfrwt beam="1">  1       21 0.11662137E-02 0.13359887E+03</pdfrwt>
<pdfrwt beam="2">  1        2 0.40411453E+00 0.13359887E+03</pdfrwt>
<totfact> 0.13281988E+05</totfact>
</mgrwt>
</event>
<event>
 6    2  0.7993170E+000  0.9876230E+02  0.7546771E-02  0.1282920E+00
         21   -1    0    0  501  502  0.00000000000E+00  0.00000000000E+00  0.19988804316E+02  0.19988804316E+02  0.00000000000E+00 0.  1.
          2   -1    0    0  502    0 -0.00000000000E+00 -0.00000000000E+00 -0.44170845895E+03  0.44170845895E+03  0.00000000000E+00 0. -1.
         24    2    1    2    0    0  0.18361691940E+02  0.55529601140E+02 -0.12520125724E+03  0.15946581499E+03  0.79582052010E+02 0.  0.
        -11    1    3    3    0    0  0.17230693971E+02 -0.40486944900E+01  0.31300150921E+01  0.17974585844E+02  0.00000000000E+00 0.  1.
         12    1    3    3    0    0  0.11309979692E+01  0.59578295630E+02 -0.12833127233E+03  0.14149122915E+03  0.00000000000E+00 0. -1.
          1    1    1    2  501    0 -0.18361691940E+02 -0.55529601140E+02 -0.29651839739E+03  0.30223144827E+03  0.00000000000E+00 0. -1.
<mgrwt>
<rscale>  1 0.98762297E+02</rscale>
<asrwt>0</asrwt>
<pdfrwt beam="1">  1       21 0.30752009E-02 0.98762297E+02</pdfrwt>
<pdfrwt beam="2">  1        2 0.67955141E-01 0.98762297E+02</pdfrwt>
<totfact> 0.51981285E+05</totfact>
</mgrwt>
</event>
<event>
 6    2  0.7993170E+000  0.8861198E+02  0.7546771E-02  0.1306248E+00
         21   -1    0    0  501  502  0.00000000000E+00  0.00000000000E+00  0.18237121407E+01  0.18237121407E+01  0.00000000000E+00 0.  1.
          2   -1    0    0  502    0 -0.00000000000E+00 -0.00000000000E+00 -0.25477557096E+04  0.25477557096E+04  0.00000000000E+00 0. -1.
         24    2    1    2    0    0 -0.60776809570E+01  0.39649808251E+02 -0.13082397546E+04  0.13112373310E+04  0.79012893677E+02 0.  0.
        -11    1    3    3    0    0  0.78834822861E+01  0.16270923851E+02 -0.59167341858E+02  0.61868138799E+02  0.00000000000E+00 0.  1.
         12    1    3    3    0    0 -0.13961163243E+02  0.23378884400E+02 -0.12490724127E+04  0.12493691922E+04  0.00000000000E+00 0. -1.
          1    1    1    2  501    0  0.60776809570E+01 -0.39649808251E+02 -0.12376922429E+04  0.12383420907E+04  0.00000000000E+00 0. -1.
<mgrwt>
<rscale>  1 0.88611979E+02</rscale>
<asrwt>0</asrwt>
<pdfrwt beam="1">  1       21 0.28056988E-03 0.88611979E+02</pdfrwt>
<pdfrwt beam="2">  1        2 0.39196413E+00 0.88611979E+02</pdfrwt>
<totfact> 0.13193964E+06</totfact>
</mgrwt>
</event>
<event>
 6    2  0.7993170E+000  0.8200998E+02  0.7546771E-02  0.1323442E+00
         21   -1    0    0  501  502  0.00000000000E+00  0.00000000000E+00  0.71820034130E+00  0.71820034130E+00  0.00000000000E+00 0.  1.
          2   -1    0    0  502    0 -0.00000000000E+00 -0.00000000000E+00 -0.37925360423E+04  0.37925360423E+04  0.00000000000E+00 0. -1.
         24    2    1    2    0    0  0.11054126236E+02 -0.17892878483E+02 -0.27436014944E+04  0.27448269156E+04  0.79267191800E+02 0.  0.
        -13    1    3    3    0    0  0.23755497380E+02  0.26198159671E+02 -0.10124656162E+04  0.10130830623E+04  0.00000000000E+00 0.  1.
         14    1    3    3    0    0 -0.12701371143E+02 -0.44091038155E+02 -0.17311358782E+04  0.17317438532E+04  0.00000000000E+00 0. -1.
          1    1    1    2  501    0 -0.11054126236E+02  0.17892878483E+02 -0.10482163476E+04  0.10484273271E+04  0.00000000000E+00 0. -1.
<mgrwt>
<rscale>  1 0.82009978E+02</rscale>
<asrwt>0</asrwt>
<pdfrwt beam="1">  1       21 0.11049150E-03 0.82009978E+02</pdfrwt>
<pdfrwt beam="2">  1        2 0.58347161E+00 0.82009978E+02</pdfrwt>
<totfact> 0.96179922E+05</totfact>
</mgrwt>
</event>
<event>
 6    2  0.7993170E+000  0.8944536E+02  0.7546771E-02  0.1304200E+00
         -1   -1    0    0    0  501 -0.00000000000E+00  0.00000000000E+00  0.11384507633E+02  0.11384507633E+02  0.00000000000E+00 0.  1.
         21   -1    0    0  501  502  0.00000000000E+00 -0.00000000000E+00 -0.66632820946E+03  0.66632820946E+03  0.00000000000E+00 0.  1.
         24    2    1    2    0    0  0.77204626174E+01  0.24737301141E+02 -0.17015716575E+03  0.19223406136E+03  0.85609191565E+02 0.  0.
        -11    1    3    3    0    0  0.39603800354E+02  0.37078333807E+02 -0.11795052097E+03  0.12982907701E+03  0.00000000000E+00 0.  1.
         12    1    3    3    0    0 -0.31883337736E+02 -0.12341032666E+02 -0.52206644777E+02  0.62404984347E+02  0.00000000000E+00 0. -1.
         -2    1    1    2    0  502 -0.77204626174E+01 -0.24737301141E+02 -0.48478653608E+03  0.48547865573E+03  0.00000000000E+00 0.  1.
<mgrwt>
<rscale>  1 0.89445365E+02</rscale>
<asrwt>0</asrwt>
<pdfrwt beam="1">  1       21 0.10251200E+00 0.89445365E+02</pdfrwt>
<pdfrwt beam="2">  1       -1 0.17514632E-02 0.89445365E+02</pdfrwt>
<totfact> 0.55075398E+04</totfact>
</mgrwt>
</event>
<event>
 6    2  0.7993170E+000  0.9570873E+02  0.7546771E-02  0.1289588E+00
         21   -1    0    0  501  502  0.00000000000E+00  0.00000000000E+00  0.11334040245E+02  0.11334040245E+02  0.00000000000E+00 0.  1.
          2   -1    0    0  502    0 -0.00000000000E+00 -0.00000000000E+00 -0.52934794640E+03  0.52934794640E+03  0.00000000000E+00 0. -1.
         24    2    1    2    0    0  0.51328587629E+02  0.10720399422E+02 -0.25229524539E+03  0.26983893699E+03  0.80066286253E+02 0.  0.
        -13    1    3    3    0    0  0.68017295124E+02  0.10684570766E+02 -0.23833598735E+03  0.24808175135E+03  0.00000000000E+00 0.  1.
         14    1    3    3    0    0 -0.16688707496E+02  0.35828655373E-01 -0.13959258044E+02  0.21757185634E+02  0.00000000000E+00 0. -1.
          1    1    1    2  501    0 -0.51328587629E+02 -0.10720399422E+02 -0.26571866076E+03  0.27084304966E+03  0.00000000000E+00 0. -1.
<mgrwt>
<rscale>  1 0.95708730E+02</rscale>
<asrwt>0</asrwt>
<pdfrwt beam="1">  1       21 0.17436985E-02 0.95708730E+02</pdfrwt>
<pdfrwt beam="2">  1        2 0.81438143E-01 0.95708730E+02</pdfrwt>
<totfact> 0.10643177E+06</totfact>
</mgrwt>
</event>
<event>
 6    2  0.7993170E+000  0.1095910E+03  0.7546771E-02  0.1261329E+00
          2   -1    0    0  502    0 -0.00000000000E+00  0.00000000000E+00  0.57975598249E+02  0.57975598249E+02  0.00000000000E+00 0. -1.
         21   -1    0    0  501  502  0.00000000000E+00 -0.00000000000E+00 -0.14761472201E+03  0.14761472201E+03  0.00000000000E+00 0.  1.
         24    2    1    2    0    0 -0.33083878818E+01 -0.75318781056E+02 -0.51079714505E+02  0.12091038018E+03  0.79538158078E+02 0.  0.
        -11    1    3    3    0    0  0.20766087882E+02 -0.45915243017E+02 -0.63375741211E+02  0.80968663823E+02  0.00000000000E+00 0.  1.
         12    1    3    3    0    0 -0.24074475764E+02 -0.29403538040E+02  0.12296026706E+02  0.39941716354E+02  0.00000000000E+00 0. -1.
          1    1    1    2  501    0  0.33083878818E+01  0.75318781056E+02 -0.38559409255E+02  0.84679940082E+02  0.00000000000E+00 0. -1.
<mgrwt>
<rscale>  1 0.10959098E+03</rscale>
<asrwt>0</asrwt>
<pdfrwt beam="1">  1       21 0.22709957E-01 0.10959098E+03</pdfrwt>
<pdfrwt beam="2">  1        2 0.89193229E-02 0.10959098E+03</pdfrwt>
<totfact> 0.15833723E+05</totfact>
</mgrwt>
</event>
<event>
 6    2  0.7993170E+000  0.9024092E+02  0.7546771E-02  0.1302269E+00
         21   -1    0    0  501  502  0.00000000000E+00  0.00000000000E+00  0.32629258347E+02  0.32629258347E+02  0.00000000000E+00 0. -1.
          4   -1    0    0  502    0 -0.00000000000E+00 -0.00000000000E+00 -0.15919982967E+03  0.15919982967E+03  0.00000000000E+00 0. -1.
         24    2    1    2    0    0 -0.39983213970E+02  0.13301242620E+01 -0.12173155273E+03  0.15153215599E+03  0.80888792423E+02 0.  0.
        -13    1    3    3    0    0 -0.41923279712E+01 -0.17686285159E+02  0.46910045020E+01  0.18771942355E+02  0.00000000000E+00 0.  1.
         14    1    3    3    0    0 -0.35790885998E+02  0.19016409421E+02 -0.12642255723E+03  0.13276021364E+03  0.00000000000E+00 0. -1.
          3    1    1    2  501    0  0.39983213970E+02 -0.13301242620E+01 -0.48390185947E+01  0.40296932028E+02  0.00000000000E+00 0. -1.
<mgrwt>
<rscale>  1 0.90240918E+02</rscale>
<asrwt>0</asrwt>
<pdfrwt beam="1">  1       21 0.50198859E-02 0.90240918E+02</pdfrwt>
<pdfrwt beam="2">  1        4 0.24492281E-01 0.90240918E+02</pdfrwt>
<totfact> 0.15572091E+05</totfact>
</mgrwt>
</event>
<event>
 6    2  0.7993170E+000  0.8635090E+02  0.7546771E-02  0.1311937E+00
         21   -1    0    0  501  502  0.00000000000E+00  0.00000000000E+00  0.21505663198E+03  0.21505663198E+03  0.00000000000E+00 0.  1.
          4   -1    0    0  502    0 -0.00000000000E+00 -0.00000000000E+00 -0.15757993049E+02  0.15757993049E+02  0.00000000000E+00 0. -1.
         24    2    1    2    0    0  0.29541548235E+02 -0.51911810870E+01  0.14404310253E+03  0.16794312325E+03  0.80974229398E+02 0.  0.
        -11    1    3    3    0    0  0.18685998736E+02  0.57539222154E+01  0.15010909312E+03  0.15137705905E+03  0.00000000000E+00 0.  1.
         12    1    3    3    0    0  0.10855549499E+02 -0.10945103302E+02 -0.60659905878E+01  0.16566064199E+02  0.00000000000E+00 0. -1.
          3    1    1    2  501    0 -0.29541548235E+02  0.51911810870E+01  0.55255536393E+02  0.62871501774E+02  0.00000000000E+00 0. -1.
<mgrwt>
<rscale>  1 0.86350896E+02</rscale>
<asrwt>0</asrwt>
<pdfrwt beam="1">  1       21 0.33085634E-01 0.86350896E+02</pdfrwt>
<pdfrwt beam="2">  1        4 0.24243068E-02 0.86350896E+02</pdfrwt>
<totfact> 0.24801578E+05</totfact>
</mgrwt>
</event>
<event>
 6    2  0.7993170E+000  0.8757932E+02  0.7546771E-02  0.1308822E+00
          2   -1    0    0  502    0 -0.00000000000E+00  0.00000000000E+00  0.20050988462E+03  0.20050988462E+03  0.00000000000E+00 0. -1.
         21   -1    0    0  501  502  0.00000000000E+00 -0.00000000000E+00 -0.18012888729E+02  0.18012888729E+02  0.00000000000E+00 0. -1.
         24    2    1    2    0    0 -0.22219518703E+02 -0.21745693482E+02  0.14891097339E+03  0.17275593925E+03  0.81875236502E+02 0.  0.
        -13    1    3    3    0    0  0.10631543668E+02 -0.44550945886E+02  0.96614382763E+02  0.10692125821E+03  0.00000000000E+00 0.  1.
         14    1    3    3    0    0 -0.32851062371E+02  0.22805252405E+02  0.52296590627E+02  0.65834681038E+02  0.00000000000E+00 0. -1.
          1    1    1    2  501    0  0.22219518703E+02  0.21745693482E+02  0.33586022504E+02  0.45766834106E+02  0.00000000000E+00 0. -1.
<mgrwt>
<rscale>  1 0.87579316E+02</rscale>
<asrwt>0</asrwt>
<pdfrwt beam="1">  1       21 0.27712138E-02 0.87579316E+02</pdfrwt>
<pdfrwt beam="2">  1        2 0.30847673E-01 0.87579316E+02</pdfrwt>
<totfact> 0.13972295E+06</totfact>
</mgrwt>
</event>
<event>
 6    2  0.7993170E+000  0.8418273E+02  0.7546771E-02  0.1317584E+00
         21   -1    0    0  501  502  0.00000000000E+00  0.00000000000E+00  0.17877742629E+02  0.17877742629E+02  0.00000000000E+00 0. -1.
         -1   -1    0    0    0  501 -0.00000000000E+00 -0.00000000000E+00 -0.18385939298E+03  0.18385939298E+03  0.00000000000E+00 0.  1.
         24    2    1    2    0    0  0.13749877044E+02  0.20742184236E+02 -0.97172028196E+02  0.12856568334E+03  0.80420361503E+02 0.  0.
        -13    1    3    3    0    0  0.74782908777E+01  0.80686544219E+01 -0.10935128094E+03  0.10990327867E+03  0.00000000000E+00 0.  1.
         14    1    3    3    0    0  0.62715861665E+01  0.12673529814E+02  0.12179252742E+02  0.18662404677E+02  0.00000000000E+00 0. -1.
         -2    1    1    2    0  502 -0.13749877044E+02 -0.20742184236E+02 -0.68809622160E+02  0.73171452270E+02  0.00000000000E+00 0.  1.
<mgrwt>
<rscale>  1 0.84182729E+02</rscale>
<asrwt>0</asrwt>
<pdfrwt beam="1">  1       21 0.27504220E-02 0.84182729E+02</pdfrwt>
<pdfrwt beam="2">  1       -1 0.28286060E-01 0.84182729E+02</pdfrwt>
<totfact> 0.69398047E+05</totfact>
</mgrwt>
</event>
<event>
 6    2  0.7993170E+000  0.8415794E+02  0.7546771E-02  0.1317649E+00
         21   -1    0    0  501  502  0.00000000000E+00  0.00000000000E+00  0.21605405784E+03  0.21605405784E+03  0.00000000000E+00 0. -1.
          2   -1    0    0  502    0 -0.00000000000E+00 -0.00000000000E+00 -0.24064166972E+02  0.24064166972E+02  0.00000000000E+00 0. -1.
         24    2    1    2    0    0  0.13064839287E+02 -0.19508377545E+02  0.53659309673E+02  0.99809221131E+02  0.80816411008E+02 0.  0.
        -11    1    3    3    0    0  0.14700398323E+02 -0.37157152109E+02  0.66734878585E+02  0.77783672345E+02  0.00000000000E+00 0.  1.
         12    1    3    3    0    0 -0.16355590363E+01  0.17648774564E+02 -0.13075568912E+02  0.22025548786E+02  0.00000000000E+00 0. -1.
          1    1    1    2  501    0 -0.13064839287E+02  0.19508377545E+02  0.13833058120E+03  0.14030900368E+03  0.00000000000E+00 0. -1.
<mgrwt>
<rscale>  1 0.84157941E+02</rscale>
<asrwt>0</asrwt>
<pdfrwt beam="1">  1       21 0.33239085E-01 0.84157941E+02</pdfrwt>
<pdfrwt beam="2">  1        2 0.37021797E-02 0.84157941E+02</pdfrwt>
<totfact> 0.23218570E+05</totfact>
</mgrwt>
</event>
<event>
 6    2  0.7993170E+000  0.8866112E+02  0.7546771E-02  0.1306127E+00
          4   -1    0    0  502    0 -0.00000000000E+00  0.00000000000E+00  0.60355010519E+03  0.60355010519E+03  0.00000000000E+00 0. -1.
         21   -1    0    0  501  502  0.00000000000E+00 -0.00000000000E+00 -0.68920531251E+01  0.68920531251E+01  0.00000000000E+00 0.  1.
         24    2    1    2    0    0 -0.31549151619E+02  0.78536870642E+01  0.51453057455E+03  0.52211349971E+03  0.82484938396E+02 0.  0.
        -11    1    3    3    0    0  0.33744889043E+01  0.39344669830E+01 -0.10899837479E+01  0.52967226071E+01  0.00000000000E+00 0.  1.
         12    1    3    3    0    0 -0.34923640523E+02  0.39192200812E+01  0.51562055830E+03  0.51681677710E+03  0.00000000000E+00 0. -1.
          3    1    1    2  501    0  0.31549151619E+02 -0.78536870642E+01  0.82127477513E+02  0.88328658606E+02  0.00000000000E+00 0. -1.
<mgrwt>
<rscale>  1 0.88661121E+02</rscale>
<asrwt>0</asrwt>
<pdfrwt beam="1">  1       21 0.10603163E-02 0.88661121E+02</pdfrwt>
<pdfrwt beam="2">  1        4 0.92853821E-01 0.88661121E+02</pdfrwt>
<totfact> 0.12947199E+05</totfact>
</mgrwt>
</event>
<event>
 6    2  0.7993170E+000  0.9420817E+02  0.7546771E-02  0.1292970E+00
         -3   -1    0    0    0  501 -0.00000000000E+00  0.00000000000E+00  0.14624372086E+03  0.14624372086E+03  0.00000000000E+00 0.  1.
         21   -1    0    0  501  502  0.00000000000E+00 -0.00000000000E+00 -0.71592974803E+02  0.71592974803E+02  0.00000000000E+00 0.  1.
         24    2    1    2    0    0  0.23955925682E+02  0.40140307561E+02  0.12009870885E+03  0.15263970196E+03  0.81792714101E+02 0.  0.
        -11    1    3    3    0    0  0.15788556472E+02  0.63452434759E+02  0.10498177650E+03  0.12367968058E+03  0.00000000000E+00 0.  1.
         12    1    3    3    0    0  0.81673692096E+01 -0.23312127198E+02  0.15116932351E+02  0.28960021375E+02  0.00000000000E+00 0. -1.
         -4    1    1    2    0  502 -0.23955925682E+02 -0.40140307561E+02 -0.45447962793E+02  0.65196993706E+02  0.00000000000E+00 0.  1.
<mgrwt>
<rscale>  1 0.94208167E+02</rscale>
<asrwt>0</asrwt>
<pdfrwt beam="1">  1       21 0.11014304E-01 0.94208167E+02</pdfrwt>
<pdfrwt beam="2">  1       -3 0.22499034E-01 0.94208167E+02</pdfrwt>
<totfact> 0.57116313E+04</totfact>
</mgrwt>
</event>
<event>
 6    2  0.7993170E+000  0.8804251E+02  0.7546771E-02  0.1307662E+00
          2   -1    0    0  502    0 -0.00000000000E+00  0.00000000000E+00  0.12385895179E+04  0.12385895179E+04  0.00000000000E+00 0. -1.
         21   -1    0    0  501  502  0.00000000000E+00 -0.00000000000E+00 -0.76723767746E+01  0.76723767746E+01  0.00000000000E+00 0. -1.
         24    2    1    2    0    0  0.24734782093E+02  0.54696539716E+01  0.12105767142E+04  0.12137740581E+04  0.84319372308E+02 0.  0.
        -13    1    3    3    0    0  0.48270254615E+02  0.78498497829E+00  0.40917273563E+03  0.41201087518E+03  0.00000000000E+00 0.  1.
         14    1    3    3    0    0 -0.23535472521E+02  0.46846689933E+01  0.80140397857E+03  0.80176318291E+03  0.00000000000E+00 0. -1.
          1    1    1    2  501    0 -0.24734782093E+02 -0.54696539716E+01  0.20340426955E+02  0.32487836624E+02  0.00000000000E+00 0. -1.
<mgrwt>
<rscale>  1 0.88042507E+02</rscale>
<asrwt>0</asrwt>
<pdfrwt beam="1">  1       21 0.11803666E-02 0.88042507E+02</pdfrwt>
<pdfrwt beam="2">  1        2 0.19055208E+00 0.88042507E+02</pdfrwt>
<totfact> 0.67434412E+05</totfact>
</mgrwt>
</event>
<event>
 6    2  0.7993170E+000  0.8638886E+02  0.7546771E-02  0.1311840E+00
         21   -1    0    0  501  502  0.00000000000E+00  0.00000000000E+00  0.22650608362E+03  0.22650608362E+03  0.00000000000E+00 0.  1.
         -1   -1    0    0    0  501 -0.00000000000E+00 -0.00000000000E+00 -0.30389629358E+02  0.30389629358E+02  0.00000000000E+00 0.  1.
         24    2    1    2    0    0 -0.31408719741E+02 -0.83376359080E+01  0.36125861046E+02  0.93638205444E+02  0.80043811967E+02 0.  0.
        -11    1    3    3    0    0 -0.16705684418E+02 -0.17275500372E+02 -0.22267669901E+02  0.32762355345E+02  0.00000000000E+00 0.  1.
         12    1    3    3    0    0 -0.14703035323E+02  0.89378644638E+01  0.58393530946E+02  0.60875850099E+02  0.00000000000E+00 0. -1.
         -2    1    1    2    0  502  0.31408719741E+02  0.83376359080E+01  0.15999059322E+03  0.16325750754E+03  0.00000000000E+00 0.  1.
<mgrwt>
<rscale>  1 0.86388863E+02</rscale>
<asrwt>0</asrwt>
<pdfrwt beam="1">  1       21 0.34847089E-01 0.86388863E+02</pdfrwt>
<pdfrwt beam="2">  1       -1 0.46753277E-02 0.86388863E+02</pdfrwt>
<totfact> 0.13038356E+05</totfact>
</mgrwt>
</event>
<event>
 6    2  0.7993170E+000  0.1069188E+03  0.7546771E-02  0.1266385E+00
          2   -1    0    0  502    0 -0.00000000000E+00  0.00000000000E+00  0.10787982356E+04  0.10787982356E+04  0.00000000000E+00 0. -1.
         21   -1    0    0  501  502  0.00000000000E+00 -0.00000000000E+00 -0.72248450729E+01  0.72248450729E+01  0.00000000000E+00 0. -1.
         24    2    1    2    0    0  0.88281678197E+01 -0.68143664003E+02  0.70564892832E+03  0.71370304692E+03  0.81915405492E+02 0.  0.
        -11    1    3    3    0    0  0.54128900718E+00 -0.17971561778E+02  0.23148503975E+02  0.29310804540E+02  0.00000000000E+00 0.  1.
         12    1    3    3    0    0  0.82868788125E+01 -0.50172102225E+02  0.68250042434E+03  0.68439224238E+03  0.00000000000E+00 0. -1.
          1    1    1    2  501    0 -0.88281678197E+01  0.68143664003E+02  0.36592446226E+03  0.37232003380E+03  0.00000000000E+00 0. -1.
<mgrwt>
<rscale>  1 0.10691880E+03</rscale>
<asrwt>0</asrwt>
<pdfrwt beam="1">  1       21 0.11115155E-02 0.10691880E+03</pdfrwt>
<pdfrwt beam="2">  1        2 0.16596883E+00 0.10691880E+03</pdfrwt>
<totfact> 0.91965932E+05</totfact>
</mgrwt>
</event>
<event>
 6    2  0.7993170E+000  0.8715602E+02  0.7546771E-02  0.1309889E+00
          2   -1    0    0  502    0 -0.00000000000E+00  0.00000000000E+00  0.73993237446E+03  0.73993237446E+03  0.00000000000E+00 0. -1.
         21   -1    0    0  501  502  0.00000000000E+00 -0.00000000000E+00 -0.10095284119E+02  0.10095284119E+02  0.00000000000E+00 0. -1.
         24    2    1    2    0    0 -0.30395754155E+02 -0.14140123942E+02  0.69920647493E+03  0.70461753222E+03  0.80450774689E+02 0.  0.
        -13    1    3    3    0    0 -0.34778142260E+02 -0.40823879158E+02  0.32131527421E+03  0.32576005545E+03  0.00000000000E+00 0.  1.
         14    1    3    3    0    0  0.43823881048E+01  0.26683755216E+02  0.37789120072E+03  0.37885747677E+03  0.00000000000E+00 0. -1.
          1    1    1    2  501    0  0.30395754155E+02  0.14140123942E+02  0.30630615411E+02  0.45410126362E+02  0.00000000000E+00 0. -1.
<mgrwt>
<rscale>  1 0.87156022E+02</rscale>
<asrwt>0</asrwt>
<pdfrwt beam="1">  1       21 0.15531212E-02 0.87156022E+02</pdfrwt>
<pdfrwt beam="2">  1        2 0.11383571E+00 0.87156022E+02</pdfrwt>
<totfact> 0.86783966E+05</totfact>
</mgrwt>
</event>
<event>
 6    2  0.7993170E+000  0.8904059E+02  0.7546771E-02  0.1305192E+00
          2   -1    0    0  502    0 -0.00000000000E+00  0.00000000000E+00  0.42174837316E+02  0.42174837316E+02  0.00000000000E+00 0. -1.
         21   -1    0    0  501  502  0.00000000000E+00 -0.00000000000E+00 -0.12148619862E+03  0.12148619862E+03  0.00000000000E+00 0. -1.
         24    2    1    2    0    0  0.29376550384E+02  0.19045279319E+02 -0.14800304461E+02  0.90262256438E+02  0.81868929077E+02 0.  0.
        -13    1    3    3    0    0 -0.18706446525E+02 -0.16789013947E+02  0.75817349814E+01  0.26254234634E+02  0.00000000000E+00 0.  1.
         14    1    3    3    0    0  0.48082996909E+02  0.35834293266E+02 -0.22382039443E+02  0.64008021804E+02  0.00000000000E+00 0. -1.
          1    1    1    2  501    0 -0.29376550384E+02 -0.19045279319E+02 -0.64511056846E+02  0.73398779501E+02  0.00000000000E+00 0. -1.
<mgrwt>
<rscale>  1 0.89040586E+02</rscale>
<asrwt>0</asrwt>
<pdfrwt beam="1">  1       21 0.18690184E-01 0.89040586E+02</pdfrwt>
<pdfrwt beam="2">  1        2 0.64884366E-02 0.89040586E+02</pdfrwt>
<totfact> 0.33230693E+05</totfact>
</mgrwt>
</event>
<event>
 6    2  0.7993170E+000  0.8700855E+02  0.7546771E-02  0.1310262E+00
         21   -1    0    0  501  502  0.00000000000E+00  0.00000000000E+00  0.24895884997E+01  0.24895884997E+01  0.00000000000E+00 0.  1.
          2   -1    0    0  502    0 -0.00000000000E+00 -0.00000000000E+00 -0.14910652431E+04  0.14910652431E+04  0.00000000000E+00 0. -1.
         24    2    1    2    0    0 -0.32786563222E+02 -0.88897165761E+01 -0.11463767435E+04  0.11496739212E+04  0.80103066286E+02 0.  0.
        -11    1    3    3    0    0 -0.35718319175E+02 -0.38398388251E+02 -0.53107742777E+03  0.53366044338E+03  0.00000000000E+00 0.  1.
         12    1    3    3    0    0  0.29317559529E+01  0.29508671674E+02 -0.61529931573E+03  0.61601347780E+03  0.00000000000E+00 0. -1.
          1    1    1    2  501    0  0.32786563222E+02  0.88897165761E+01 -0.34219891106E+03  0.34388091037E+03  0.00000000000E+00 0. -1.
<mgrwt>
<rscale>  1 0.87008546E+02</rscale>
<asrwt>0</asrwt>
<pdfrwt beam="1">  1       21 0.38301350E-03 0.87008546E+02</pdfrwt>
<pdfrwt beam="2">  1        2 0.22939472E+00 0.87008546E+02</pdfrwt>
<totfact> 0.28287116E+06</totfact>
</mgrwt>
</event>
<event>
 6    2  0.7993170E+000  0.8317841E+02  0.7546771E-02  0.1320266E+00
         21   -1    0    0  501  502  0.00000000000E+00  0.00000000000E+00  0.82641402955E+03  0.82641402955E+03  0.00000000000E+00 0. -1.
          2   -1    0    0  502    0 -0.00000000000E+00 -0.00000000000E+00 -0.38257949900E+01  0.38257949900E+01  0.00000000000E+00 0. -1.
         24    2    1    2    0    0 -0.20825022896E+02 -0.12881545079E+02  0.71906904102E+03  0.72386389111E+03  0.79492334946E+02 0.  0.
        -13    1    3    3    0    0 -0.91053244854E+01  0.30783670078E+02  0.17503085838E+03  0.17795039382E+03  0.00000000000E+00 0.  1.
         14    1    3    3    0    0 -0.11719698411E+02 -0.43665215157E+02  0.54403818265E+03  0.54591349729E+03  0.00000000000E+00 0. -1.
          1    1    1    2  501    0  0.20825022896E+02  0.12881545079E+02  0.10351919354E+03  0.10637593343E+03  0.00000000000E+00 0. -1.
<mgrwt>
<rscale>  1 0.83178405E+02</rscale>
<asrwt>0</asrwt>
<pdfrwt beam="1">  1       21 0.12714048E+00 0.83178405E+02</pdfrwt>
<pdfrwt beam="2">  1        2 0.58858450E-03 0.83178405E+02</pdfrwt>
<totfact> 0.15708836E+05</totfact>
</mgrwt>
</event>
<event>
 6    2  0.7993170E+000  0.8700955E+02  0.7546771E-02  0.1310259E+00
          2   -1    0    0  502    0 -0.00000000000E+00  0.00000000000E+00  0.24370613968E+04  0.24370613968E+04  0.00000000000E+00 0. -1.
         21   -1    0    0  501  502  0.00000000000E+00 -0.00000000000E+00 -0.18360653357E+01  0.18360653357E+01  0.00000000000E+00 0.  1.
         24    2    1    2    0    0  0.95038645656E+01  0.33732958446E+02  0.11889688459E+04  0.11921483038E+04  0.79639348783E+02 0.  0.
        -11    1    3    3    0    0 -0.38803839284E+01  0.46835323999E+02  0.11097783995E+04  0.11107730196E+04  0.00000000000E+00 0.  1.
         12    1    3    3    0    0  0.13384248494E+02 -0.13102365553E+02  0.79190446315E+02  0.81375284198E+02  0.00000000000E+00 0. -1.
          1    1    1    2  501    0 -0.95038645656E+01 -0.33732958446E+02  0.12462564856E+04  0.12467491583E+04  0.00000000000E+00 0. -1.
<mgrwt>
<rscale>  1 0.87009550E+02</rscale>
<asrwt>0</asrwt>
<pdfrwt beam="1">  1       21 0.28247354E-03 0.87009550E+02</pdfrwt>
<pdfrwt beam="2">  1        2 0.37492993E+00 0.87009550E+02</pdfrwt>
<totfact> 0.14913781E+06</totfact>
</mgrwt>
</event>
<event>
 6    2  0.7993170E+000  0.8307741E+02  0.7546771E-02  0.1320538E+00
         21   -1    0    0  501  502  0.00000000000E+00  0.00000000000E+00  0.12060582423E+02  0.12060582423E+02  0.00000000000E+00 0. -1.
         -1   -1    0    0    0  501 -0.00000000000E+00 -0.00000000000E+00 -0.25631959458E+03  0.25631959458E+03  0.00000000000E+00 0.  1.
         24    2    1    2    0    0  0.13840479319E+01  0.24622067408E+02 -0.15602184941E+03  0.17676162712E+03  0.79332802411E+02 0.  0.
        -11    1    3    3    0    0 -0.34644506415E+01 -0.14861064766E+02 -0.12600989335E+03  0.12693048053E+03  0.00000000000E+00 0.  1.
         12    1    3    3    0    0  0.48484985734E+01  0.39483132174E+02 -0.30011956054E+02  0.49831146594E+02  0.00000000000E+00 0. -1.
         -2    1    1    2    0  502 -0.13840479319E+01 -0.24622067408E+02 -0.88237162746E+02  0.91618549877E+02  0.00000000000E+00 0.  1.
<mgrwt>
<rscale>  1 0.83077406E+02</rscale>
<asrwt>0</asrwt>
<pdfrwt beam="1">  1       21 0.18554742E-02 0.83077406E+02</pdfrwt>
<pdfrwt beam="2">  1       -1 0.39433784E-01 0.83077406E+02</pdfrwt>
<totfact> 0.74463459E+05</totfact>
</mgrwt>
</event>
<event>
 6    2  0.7993170E+000  0.1133812E+03  0.7546771E-02  0.1254434E+00
          4   -1    0    0  502    0 -0.00000000000E+00  0.00000000000E+00  0.14440255858E+03  0.14440255858E+03  0.00000000000E+00 0. -1.
         21   -1    0    0  501  502  0.00000000000E+00 -0.00000000000E+00 -0.61683115838E+02  0.61683115838E+02  0.00000000000E+00 0.  1.
         24    2    1    2    0    0 -0.65554695288E+02 -0.35431467620E+02  0.40235617563E+02  0.12030874061E+03  0.85454556189E+02 0.  0.
        -11    1    3    3    0    0 -0.43447626913E+02 -0.63932467475E+02  0.28277223898E+02  0.82308311082E+02  0.00000000000E+00 0.  1.
         12    1    3    3    0    0 -0.22107068375E+02  0.28500999856E+02  0.11958393665E+02  0.38000429523E+02  0.00000000000E+00 0. -1.
          3    1    1    2  501    0  0.65554695288E+02  0.35431467620E+02  0.42483825176E+02  0.85776933809E+02  0.00000000000E+00 0. -1.
<mgrwt>
<rscale>  1 0.11338116E+03</rscale>
<asrwt>0</asrwt>
<pdfrwt beam="1">  1       21 0.94897101E-02 0.11338116E+03</pdfrwt>
<pdfrwt beam="2">  1        4 0.22215778E-01 0.11338116E+03</pdfrwt>
<totfact> 0.65348682E+04</totfact>
</mgrwt>
</event>
<event>
 6    2  0.7993170E+000  0.8733753E+02  0.7546771E-02  0.1309430E+00
          2   -1    0    0  502    0 -0.00000000000E+00  0.00000000000E+00  0.15720070665E+04  0.15720070665E+04  0.00000000000E+00 0. -1.
         21   -1    0    0  501  502  0.00000000000E+00 -0.00000000000E+00 -0.47395091098E+01  0.47395091098E+01  0.00000000000E+00 0. -1.
         24    2    1    2    0    0  0.31058823243E+02 -0.80581759460E+01  0.14964769298E+04  0.14990233638E+04  0.81229668671E+02 0.  0.
        -13    1    3    3    0    0 -0.13414483972E+02 -0.33412075625E+02  0.57648804697E+03  0.57761127368E+03  0.00000000000E+00 0.  1.
         14    1    3    3    0    0  0.44473307216E+02  0.25353899679E+02  0.91998888281E+03  0.92141209010E+03  0.00000000000E+00 0. -1.
          1    1    1    2  501    0 -0.31058823243E+02  0.80581759460E+01  0.70790627612E+02  0.77723211839E+02  0.00000000000E+00 0. -1.
<mgrwt>
<rscale>  1 0.87337528E+02</rscale>
<asrwt>0</asrwt>
<pdfrwt beam="1">  1       21 0.72915650E-03 0.87337528E+02</pdfrwt>
<pdfrwt beam="2">  1        2 0.24184683E+00 0.87337528E+02</pdfrwt>
<totfact> 0.95896061E+05</totfact>
</mgrwt>
</event>
<event>
 6    2  0.7993170E+000  0.9543922E+02  0.7546771E-02  0.1290190E+00
         -1   -1    0    0    0  501 -0.00000000000E+00  0.00000000000E+00  0.26440906023E+02  0.26440906023E+02  0.00000000000E+00 0.  1.
         21   -1    0    0  501  502  0.00000000000E+00 -0.00000000000E+00 -0.50836719567E+03  0.50836719567E+03  0.00000000000E+00 0.  1.
         24    2    1    2    0    0 -0.47431193909E+02  0.22232786835E+02 -0.67049551576E+02  0.11663741554E+03  0.79778627282E+02 0.  0.
        -11    1    3    3    0    0 -0.79640056633E+01  0.47703003385E+02 -0.36731156485E+02  0.60730385927E+02  0.00000000000E+00 0.  1.
         12    1    3    3    0    0 -0.39467188246E+02 -0.25470216550E+02 -0.30318395091E+02  0.55907029612E+02  0.00000000000E+00 0. -1.
         -2    1    1    2    0  502  0.47431193909E+02 -0.22232786835E+02 -0.41487673807E+03  0.41817068616E+03  0.00000000000E+00 0.  1.
<mgrwt>
<rscale>  1 0.95439218E+02</rscale>
<asrwt>0</asrwt>
<pdfrwt beam="1">  1       21 0.78210342E-01 0.95439218E+02</pdfrwt>
<pdfrwt beam="2">  1       -1 0.40678315E-02 0.95439218E+02</pdfrwt>
<totfact> 0.30307539E+04</totfact>
</mgrwt>
</event>
<event>
 6    2  0.7993170E+000  0.8407760E+02  0.7546771E-02  0.1317862E+00
          2   -1    0    0  502    0 -0.00000000000E+00  0.00000000000E+00  0.75573809580E+03  0.75573809580E+03  0.00000000000E+00 0. -1.
         21   -1    0    0  501  502  0.00000000000E+00 -0.00000000000E+00 -0.78751010098E+01  0.78751010098E+01  0.00000000000E+00 0. -1.
         24    2    1    2    0    0  0.17431984810E+02  0.12958216837E+02  0.73176021128E+03  0.73657453718E+03  0.81223472716E+02 0.  0.
        -11    1    3    3    0    0 -0.16002008923E+02 -0.21347554316E+02  0.44846066617E+03  0.44925354920E+03  0.00000000000E+00 0.  1.
         12    1    3    3    0    0  0.33433993733E+02  0.34305771153E+02  0.28329954512E+03  0.28732098798E+03  0.00000000000E+00 0. -1.
          1    1    1    2  501    0 -0.17431984810E+02 -0.12958216837E+02  0.16102783501E+02  0.27038659628E+02  0.00000000000E+00 0. -1.
<mgrwt>
<rscale>  1 0.84077595E+02</rscale>
<asrwt>0</asrwt>
<pdfrwt beam="1">  1       21 0.12115546E-02 0.84077595E+02</pdfrwt>
<pdfrwt beam="2">  1        2 0.11626734E+00 0.84077595E+02</pdfrwt>
<totfact> 0.12478825E+06</totfact>
</mgrwt>
</event>
<event>
 6    2  0.7993170E+000  0.8144855E+02  0.7546771E-02  0.1324990E+00
         -1   -1    0    0    0  501 -0.00000000000E+00  0.00000000000E+00  0.25735779495E+03  0.25735779495E+03  0.00000000000E+00 0.  1.
         21   -1    0    0  501  502  0.00000000000E+00 -0.00000000000E+00 -0.16593276113E+02  0.16593276113E+02  0.00000000000E+00 0. -1.
         24    2    1    2    0    0  0.21173359285E+02  0.14280264688E+02  0.23365062897E+03  0.24743985585E+03  0.77340990069E+02 0.  0.
        -13    1    3    3    0    0  0.38565072917E+02 -0.16204322767E+02  0.16645399330E+03  0.17162976668E+03  0.00000000000E+00 0.  1.
         14    1    3    3    0    0 -0.17391713631E+02  0.30484587455E+02  0.67196635667E+02  0.75810089172E+02  0.00000000000E+00 0. -1.
         -2    1    1    2    0  502 -0.21173359285E+02 -0.14280264688E+02  0.71138898733E+01  0.26511215214E+02  0.00000000000E+00 0.  1.
<mgrwt>
<rscale>  1 0.81448547E+02</rscale>
<asrwt>0</asrwt>
<pdfrwt beam="1">  1       21 0.25528119E-02 0.81448547E+02</pdfrwt>
<pdfrwt beam="2">  1       -1 0.39593504E-01 0.81448547E+02</pdfrwt>
<totfact> 0.44267496E+05</totfact>
</mgrwt>
</event>
<event>
 6    2  0.7993170E+000  0.8753044E+02  0.7546771E-02  0.1308945E+00
         21   -1    0    0  501  502  0.00000000000E+00  0.00000000000E+00  0.71667569385E+02  0.71667569385E+02  0.00000000000E+00 0.  1.
         -1   -1    0    0    0  501 -0.00000000000E+00 -0.00000000000E+00 -0.30499221873E+03  0.30499221873E+03  0.00000000000E+00 0.  1.
         24    2    1    2    0    0 -0.27693423453E+02  0.85551031941E+01 -0.29542980416E+03  0.30812391613E+03  0.82592148621E+02 0.  0.
        -13    1    3    3    0    0 -0.39334174745E+02  0.26984937162E+02 -0.27188505882E+03  0.27603776797E+03  0.00000000000E+00 0.  1.
         14    1    3    3    0    0  0.11640751292E+02 -0.18429833968E+02 -0.23544745337E+02  0.32086148160E+02  0.00000000000E+00 0. -1.
         -2    1    1    2    0  502  0.27693423453E+02 -0.85551031941E+01  0.62105154817E+02  0.68535871980E+02  0.00000000000E+00 0.  1.
<mgrwt>
<rscale>  1 0.87530443E+02</rscale>
<asrwt>0</asrwt>
<pdfrwt beam="1">  1       21 0.11025780E-01 0.87530443E+02</pdfrwt>
<pdfrwt beam="2">  1       -1 0.46921880E-01 0.87530443E+02</pdfrwt>
<totfact> 0.28709256E+04</totfact>
</mgrwt>
</event>
<event>
 6    2  0.7993170E+000  0.8441107E+02  0.7546771E-02  0.1316980E+00
         -1   -1    0    0    0  501 -0.00000000000E+00  0.00000000000E+00  0.15746769285E+03  0.15746769285E+03  0.00000000000E+00 0.  1.
         21   -1    0    0  501  502  0.00000000000E+00 -0.00000000000E+00 -0.19622352844E+02  0.19622352844E+02  0.00000000000E+00 0.  1.
         24    2    1    2    0    0 -0.14010975076E+02 -0.15280159116E+02  0.12984031679E+03  0.15486683526E+03  0.81825656817E+02 0.  0.
        -11    1    3    3    0    0 -0.19035435331E+02 -0.55099406681E+01  0.13909642849E+03  0.14050097389E+03  0.00000000000E+00 0.  1.
         12    1    3    3    0    0  0.50244602556E+01 -0.97702184479E+01 -0.92561116946E+01  0.14365861376E+02  0.00000000000E+00 0. -1.
         -2    1    1    2    0  502  0.14010975076E+02  0.15280159116E+02  0.80050232084E+01  0.22223210428E+02  0.00000000000E+00 0.  1.
<mgrwt>
<rscale>  1 0.84411070E+02</rscale>
<asrwt>0</asrwt>
<pdfrwt beam="1">  1       21 0.30188236E-02 0.84411070E+02</pdfrwt>
<pdfrwt beam="2">  1       -1 0.24225798E-01 0.84411070E+02</pdfrwt>
<totfact> 0.76863244E+05</totfact>
</mgrwt>
</event>
<event>
 6    2  0.7993170E+000  0.8251958E+02  0.7546771E-02  0.1322050E+00
          2   -1    0    0  502    0 -0.00000000000E+00  0.00000000000E+00  0.80620201287E+03  0.80620201287E+03  0.00000000000E+00 0. -1.
         21   -1    0    0  501  502  0.00000000000E+00 -0.00000000000E+00 -0.43556561752E+01  0.43556561752E+01  0.00000000000E+00 0.  1.
         24    2    1    2    0    0  0.50299031047E+01  0.24152070448E+02  0.42701131549E+03  0.43491165144E+03  0.78745530441E+02 0.  0.
        -11    1    3    3    0    0 -0.35961037852E+02  0.22185691586E+01  0.18649608909E+03  0.18994449068E+03  0.00000000000E+00 0.  1.
         12    1    3    3    0    0  0.40990940957E+02  0.21933501290E+02  0.24051522640E+03  0.24496716076E+03  0.00000000000E+00 0. -1.
          1    1    1    2  501    0 -0.50299031047E+01 -0.24152070448E+02  0.37483504120E+03  0.37564601761E+03  0.00000000000E+00 0. -1.
<mgrwt>
<rscale>  1 0.82519579E+02</rscale>
<asrwt>0</asrwt>
<pdfrwt beam="1">  1       21 0.67010159E-03 0.82519579E+02</pdfrwt>
<pdfrwt beam="2">  1        2 0.12403096E+00 0.82519579E+02</pdfrwt>
<totfact> 0.28937094E+06</totfact>
</mgrwt>
</event>
<event>
 6    2  0.7993170E+000  0.8551595E+02  0.7546771E-02  0.1314089E+00
          2   -1    0    0  502    0 -0.00000000000E+00  0.00000000000E+00  0.66920644738E+02  0.66920644738E+02  0.00000000000E+00 0. -1.
         21   -1    0    0  501  502  0.00000000000E+00 -0.00000000000E+00 -0.45791852959E+02  0.45791852959E+02  0.00000000000E+00 0. -1.
         24    2    1    2    0    0  0.21303057745E+02  0.75761803898E+01  0.26395740616E+02  0.89496995793E+02  0.82472773415E+02 0.  0.
        -11    1    3    3    0    0  0.28588724133E+01 -0.24235485582E+02 -0.19106793410E+02  0.30993571387E+02  0.00000000000E+00 0.  1.
         12    1    3    3    0    0  0.18444185332E+02  0.31811665972E+02  0.45502534026E+02  0.58503424406E+02  0.00000000000E+00 0. -1.
          1    1    1    2  501    0 -0.21303057745E+02 -0.75761803898E+01 -0.52669488369E+01  0.23215501904E+02  0.00000000000E+00 0. -1.
<mgrwt>
<rscale>  1 0.85515947E+02</rscale>
<asrwt>0</asrwt>
<pdfrwt beam="1">  1       21 0.70449005E-02 0.85515947E+02</pdfrwt>
<pdfrwt beam="2">  1        2 0.10295484E-01 0.85515947E+02</pdfrwt>
<totfact> 0.10319445E+06</totfact>
</mgrwt>
</event>
<event>
 6    2  0.7993170E+000  0.8331381E+02  0.7546771E-02  0.1319902E+00
          2   -1    0    0  502    0 -0.00000000000E+00  0.00000000000E+00  0.18532947260E+04  0.18532947260E+04  0.00000000000E+00 0. -1.
         21   -1    0    0  501  502  0.00000000000E+00 -0.00000000000E+00 -0.15149425638E+01  0.15149425638E+01  0.00000000000E+00 0.  1.
         24    2    1    2    0    0 -0.21916543844E+02 -0.52188747066E+01  0.14940771611E+04  0.14963982603E+04  0.80209840802E+02 0.  0.
        -11    1    3    3    0    0 -0.35670970870E+02  0.22485034385E+02  0.47970804158E+03  0.48155768095E+03  0.00000000000E+00 0.  1.
         12    1    3    3    0    0  0.13754427026E+02 -0.27703909092E+02  0.10143691195E+04  0.10148405793E+04  0.00000000000E+00 0. -1.
          1    1    1    2  501    0  0.21916543844E+02  0.52188747066E+01  0.35770262233E+03  0.35841140826E+03  0.00000000000E+00 0. -1.
<mgrwt>
<rscale>  1 0.83313805E+02</rscale>
<asrwt>0</asrwt>
<pdfrwt beam="1">  1       21 0.23306957E-03 0.83313805E+02</pdfrwt>
<pdfrwt beam="2">  1        2 0.28512045E+00 0.83313805E+02</pdfrwt>
<totfact> 0.39236468E+06</totfact>
</mgrwt>
</event>
<event>
 6    2  0.7993170E+000  0.9548104E+02  0.7546771E-02  0.1290096E+00
          2   -1    0    0  502    0 -0.00000000000E+00  0.00000000000E+00  0.16967052611E+03  0.16967052611E+03  0.00000000000E+00 0. -1.
         21   -1    0    0  501  502  0.00000000000E+00 -0.00000000000E+00 -0.30811465957E+02  0.30811465957E+02  0.00000000000E+00 0.  1.
         24    2    1    2    0    0  0.12939461398E+02 -0.36456688652E+02  0.60336705405E+02  0.11294754168E+03  0.87293237679E+02 0.  0.
        -13    1    3    3    0    0 -0.21633865510E+02 -0.29359064702E+02 -0.68013082328E+01  0.37097663144E+02  0.00000000000E+00 0.  1.
         14    1    3    3    0    0  0.34573326907E+02 -0.70976239498E+01  0.67138013637E+02  0.75849878539E+02  0.00000000000E+00 0. -1.
          1    1    1    2  501    0 -0.12939461398E+02  0.36456688652E+02  0.78522354748E+02  0.87534450383E+02  0.00000000000E+00 0. -1.
<mgrwt>
<rscale>  1 0.95481041E+02</rscale>
<asrwt>0</asrwt>
<pdfrwt beam="1">  1       21 0.47402256E-02 0.95481041E+02</pdfrwt>
<pdfrwt beam="2">  1        2 0.26103157E-01 0.95481041E+02</pdfrwt>
<totfact> 0.69971894E+05</totfact>
</mgrwt>
</event>
<event>
 6    2  0.7993170E+000  0.8462889E+02  0.7546771E-02  0.1316406E+00
         21   -1    0    0  501  502  0.00000000000E+00  0.00000000000E+00  0.51305842758E+01  0.51305842758E+01  0.00000000000E+00 0. -1.
         -1   -1    0    0    0  501 -0.00000000000E+00 -0.00000000000E+00 -0.59958653066E+03  0.59958653066E+03  0.00000000000E+00 0.  1.
         24    2    1    2    0    0  0.18336348830E+02  0.18839659290E+02 -0.45029029291E+03  0.45817398104E+03  0.80441870700E+02 0.  0.
        -11    1    3    3    0    0  0.21233867334E+01  0.18138410906E+02 -0.43648866099E+03  0.43687053219E+03  0.00000000000E+00 0.  1.
         12    1    3    3    0    0  0.16212962097E+02  0.70124838405E+00 -0.13801631918E+02  0.21303448849E+02  0.00000000000E+00 0. -1.
         -2    1    1    2    0  502 -0.18336348830E+02 -0.18839659290E+02 -0.14416565347E+03  0.14654313389E+03  0.00000000000E+00 0.  1.
<mgrwt>
<rscale>  1 0.84628890E+02</rscale>
<asrwt>0</asrwt>
<pdfrwt beam="1">  1       21 0.78932113E-03 0.84628890E+02</pdfrwt>
<pdfrwt beam="2">  1       -1 0.92244027E-01 0.84628890E+02</pdfrwt>
<totfact> 0.57218039E+05</totfact>
</mgrwt>
</event>
<event>
 6    2  0.7993170E+000  0.1053818E+03  0.7546771E-02  0.1269369E+00
          2   -1    0    0  502    0 -0.00000000000E+00  0.00000000000E+00  0.62691902632E+03  0.62691902632E+03  0.00000000000E+00 0. -1.
         21   -1    0    0  501  502  0.00000000000E+00 -0.00000000000E+00 -0.18504019386E+02  0.18504019386E+02  0.00000000000E+00 0. -1.
         24    2    1    2    0    0 -0.42442249973E+02  0.53764586392E+02  0.53392975688E+03  0.54423002318E+03  0.80083440951E+02 0.  0.
        -13    1    3    3    0    0 -0.26558144681E+02  0.42564079824E+02  0.12296567690E+03  0.13280660238E+03  0.00000000000E+00 0.  1.
         14    1    3    3    0    0 -0.15884105292E+02  0.11200506568E+02  0.41096407998E+03  0.41142342080E+03  0.00000000000E+00 0. -1.
          1    1    1    2  501    0  0.42442249973E+02 -0.53764586392E+02  0.74485250052E+02  0.10119302253E+03  0.00000000000E+00 0. -1.
<mgrwt>
<rscale>  1 0.10538184E+03</rscale>
<asrwt>0</asrwt>
<pdfrwt beam="1">  1       21 0.28467727E-02 0.10538184E+03</pdfrwt>
<pdfrwt beam="2">  1        2 0.96449065E-01 0.10538184E+03</pdfrwt>
<totfact> 0.40325545E+05</totfact>
</mgrwt>
</event>
<event>
 6    2  0.7993170E+000  0.8632134E+02  0.7546771E-02  0.1312013E+00
         21   -1    0    0  501  502  0.00000000000E+00  0.00000000000E+00  0.16147541371E+02  0.16147541371E+02  0.00000000000E+00 0.  1.
          4   -1    0    0  502    0 -0.00000000000E+00 -0.00000000000E+00 -0.21931741866E+03  0.21931741866E+03  0.00000000000E+00 0. -1.
         24    2    1    2    0    0 -0.86171840058E+01 -0.30935190722E+02 -0.15800968975E+03  0.18005120340E+03  0.80125725624E+02 0.  0.
        -11    1    3    3    0    0  0.33113982097E+02 -0.18685243978E+02 -0.44712958827E+02  0.58693465053E+02  0.00000000000E+00 0.  1.
         12    1    3    3    0    0 -0.41731166103E+02 -0.12249946743E+02 -0.11329673092E+03  0.12135773835E+03  0.00000000000E+00 0. -1.
          3    1    1    2  501    0  0.86171840058E+01  0.30935190722E+02 -0.45160187538E+02  0.55413756628E+02  0.00000000000E+00 0. -1.
<mgrwt>
<rscale>  1 0.86321340E+02</rscale>
<asrwt>0</asrwt>
<pdfrwt beam="1">  1       21 0.24842372E-02 0.86321340E+02</pdfrwt>
<pdfrwt beam="2">  1        4 0.33741140E-01 0.86321340E+02</pdfrwt>
<totfact> 0.26887670E+05</totfact>
</mgrwt>
</event>
<event>
 6    2  0.7993170E+000  0.8988693E+02  0.7546771E-02  0.1303126E+00
         21   -1    0    0  501  502  0.00000000000E+00  0.00000000000E+00  0.11366554467E+02  0.11366554467E+02  0.00000000000E+00 0.  1.
          2   -1    0    0  502    0 -0.00000000000E+00 -0.00000000000E+00 -0.62857129230E+03  0.62857129230E+03  0.00000000000E+00 0. -1.
         24    2    1    2    0    0  0.24599171318E+02  0.29967493728E+02 -0.57746279593E+03  0.58441675297E+03  0.81095564382E+02 0.  0.
        -11    1    3    3    0    0 -0.26821701568E+02  0.18434401335E+02 -0.13700464326E+03  0.14081726848E+03  0.00000000000E+00 0.  1.
         12    1    3    3    0    0  0.51420872886E+02  0.11533092392E+02 -0.44045815267E+03  0.44359948449E+03  0.00000000000E+00 0. -1.
          1    1    1    2  501    0 -0.24599171318E+02 -0.29967493728E+02 -0.39741941906E+02  0.55521093796E+02  0.00000000000E+00 0. -1.
<mgrwt>
<rscale>  1 0.89886932E+02</rscale>
<asrwt>0</asrwt>
<pdfrwt beam="1">  1       21 0.17487008E-02 0.89886932E+02</pdfrwt>
<pdfrwt beam="2">  1        2 0.96703269E-01 0.89886932E+02</pdfrwt>
<totfact> 0.87052167E+05</totfact>
</mgrwt>
</event>
<event>
 6    2  0.7993170E+000  0.9426688E+02  0.7546771E-02  0.1292836E+00
          2   -1    0    0  502    0 -0.00000000000E+00  0.00000000000E+00  0.51094808706E+03  0.51094808706E+03  0.00000000000E+00 0. -1.
         21   -1    0    0  501  502  0.00000000000E+00 -0.00000000000E+00 -0.10447534784E+02  0.10447534784E+02  0.00000000000E+00 0.  1.
         24    2    1    2    0    0 -0.24972740963E+02 -0.41429511275E+02  0.27324334209E+03  0.28904700064E+03  0.80908605134E+02 0.  0.
        -11    1    3    3    0    0 -0.31458611891E+02 -0.15985270532E+01  0.33703684328E+02  0.46131744906E+02  0.00000000000E+00 0.  1.
         12    1    3    3    0    0  0.64858709274E+01 -0.39830984221E+02  0.23953965776E+03  0.24291525573E+03  0.00000000000E+00 0. -1.
          1    1    1    2  501    0  0.24972740963E+02  0.41429511275E+02  0.22725721018E+03  0.23234862120E+03  0.00000000000E+00 0. -1.
<mgrwt>
<rscale>  1 0.94266880E+02</rscale>
<asrwt>0</asrwt>
<pdfrwt beam="1">  1       21 0.16073134E-02 0.94266880E+02</pdfrwt>
<pdfrwt beam="2">  1        2 0.78607379E-01 0.94266880E+02</pdfrwt>
<totfact> 0.12574341E+06</totfact>
</mgrwt>
</event>
<event>
 6    2  0.7993170E+000  0.9003690E+02  0.7546771E-02  0.1302762E+00
         21   -1    0    0  501  502  0.00000000000E+00  0.00000000000E+00  0.51872793012E+03  0.51872793012E+03  0.00000000000E+00 0. -1.
          4   -1    0    0  502    0 -0.00000000000E+00 -0.00000000000E+00 -0.48555165566E+02  0.48555165566E+02  0.00000000000E+00 0. -1.
         24    2    1    2    0    0 -0.24697597798E+02  0.32924404633E+02 -0.51477792980E+01  0.90183937055E+02  0.80079055400E+02 0.  0.
        -13    1    3    3    0    0 -0.27030444873E+02  0.22339166495E+02  0.34432977085E+02  0.49145836250E+02  0.00000000000E+00 0.  1.
         14    1    3    3    0    0  0.23328470756E+01  0.10585238138E+02 -0.39580756383E+02  0.41038100806E+02  0.00000000000E+00 0. -1.
          3    1    1    2  501    0  0.24697597798E+02 -0.32924404633E+02  0.47532054385E+03  0.47709915863E+03  0.00000000000E+00 0. -1.
<mgrwt>
<rscale>  1 0.90036897E+02</rscale>
<asrwt>0</asrwt>
<pdfrwt beam="1">  1       21 0.79804293E-01 0.90036897E+02</pdfrwt>
<pdfrwt beam="2">  1        4 0.74700258E-02 0.90036897E+02</pdfrwt>
<totfact> 0.68903503E+03</totfact>
</mgrwt>
</event>
<event>
 6    2  0.7993170E+000  0.8759868E+02  0.7546771E-02  0.1308773E+00
         21   -1    0    0  501  502  0.00000000000E+00  0.00000000000E+00  0.29295696318E+02  0.29295696318E+02  0.00000000000E+00 0. -1.
          2   -1    0    0  502    0 -0.00000000000E+00 -0.00000000000E+00 -0.16837998904E+03  0.16837998904E+03  0.00000000000E+00 0. -1.
         24    2    1    2    0    0 -0.28908412456E+02  0.16311584432E+02 -0.13921564205E+03  0.16448259346E+03  0.81066420059E+02 0.  0.
        -13    1    3    3    0    0 -0.88441701533E+01  0.44583604045E+02 -0.44449350356E+02  0.63574065800E+02  0.00000000000E+00 0.  1.
         14    1    3    3    0    0 -0.20064242303E+02 -0.28272019613E+02 -0.94766291695E+02  0.10090852766E+03  0.00000000000E+00 0. -1.
          1    1    1    2  501    0  0.28908412456E+02 -0.16311584432E+02  0.13134932773E+00  0.33193091903E+02  0.00000000000E+00 0. -1.
<mgrwt>
<rscale>  1 0.87598679E+02</rscale>
<asrwt>0</asrwt>
<pdfrwt beam="1">  1       21 0.45070302E-02 0.87598679E+02</pdfrwt>
<pdfrwt beam="2">  1        2 0.25904614E-01 0.87598679E+02</pdfrwt>
<totfact> 0.76061400E+05</totfact>
</mgrwt>
</event>
<event>
 6    2  0.7993170E+000  0.8359750E+02  0.7546771E-02  0.1319141E+00
          2   -1    0    0  502    0 -0.00000000000E+00  0.00000000000E+00  0.11217722636E+02  0.11217722636E+02  0.00000000000E+00 0. -1.
         21   -1    0    0  501  502  0.00000000000E+00 -0.00000000000E+00 -0.90827965041E+03  0.90827965041E+03  0.00000000000E+00 0. -1.
         24    2    1    2    0    0  0.21292002030E+02  0.84057339163E+01 -0.14716797762E+03  0.16925411770E+03  0.80402344546E+02 0.  0.
        -13    1    3    3    0    0 -0.13460701538E+02  0.27250825640E+01 -0.12881400195E+03  0.12954406068E+03  0.00000000000E+00 0.  1.
         14    1    3    3    0    0  0.34752703569E+02  0.56806513523E+01 -0.18353975671E+02  0.39710057014E+02  0.00000000000E+00 0. -1.
          1    1    1    2  501    0 -0.21292002030E+02 -0.84057339163E+01 -0.74989395015E+03  0.75024325535E+03  0.00000000000E+00 0. -1.
<mgrwt>
<rscale>  1 0.83597504E+02</rscale>
<asrwt>0</asrwt>
<pdfrwt beam="1">  1       21 0.13973530E+00 0.83597504E+02</pdfrwt>
<pdfrwt beam="2">  1        2 0.17258039E-02 0.83597504E+02</pdfrwt>
<totfact> 0.28711489E+04</totfact>
</mgrwt>
</event>
<event>
 6    2  0.7993170E+000  0.9030149E+02  0.7546771E-02  0.1302123E+00
          2   -1    0    0  502    0 -0.00000000000E+00  0.00000000000E+00  0.30290927365E+03  0.30290927365E+03  0.00000000000E+00 0. -1.
         21   -1    0    0  501  502  0.00000000000E+00 -0.00000000000E+00 -0.16117171911E+02  0.16117171911E+02  0.00000000000E+00 0. -1.
         24    2    1    2    0    0 -0.39659963077E+02 -0.36024661962E+01  0.24585790814E+03  0.26191691361E+03  0.81046086927E+02 0.  0.
        -13    1    3    3    0    0 -0.48005790280E+02  0.29307269416E+02  0.14711645891E+03  0.15750150610E+03  0.00000000000E+00 0.  1.
         14    1    3    3    0    0  0.83458272030E+01 -0.32909735613E+02  0.98741449227E+02  0.10441540751E+03  0.00000000000E+00 0. -1.
          1    1    1    2  501    0  0.39659963077E+02  0.36024661962E+01  0.40934193595E+02  0.57109531948E+02  0.00000000000E+00 0. -1.
<mgrwt>
<rscale>  1 0.90301487E+02</rscale>
<asrwt>0</asrwt>
<pdfrwt beam="1">  1       21 0.24795651E-02 0.90301487E+02</pdfrwt>
<pdfrwt beam="2">  1        2 0.46601423E-01 0.90301487E+02</pdfrwt>
<totfact> 0.10871092E+06</totfact>
</mgrwt>
</event>
<event>
 6    2  0.7993170E+000  0.9013784E+02  0.7546771E-02  0.1302518E+00
          4   -1    0    0  502    0 -0.00000000000E+00  0.00000000000E+00  0.35721254617E+02  0.35721254617E+02  0.00000000000E+00 0. -1.
         21   -1    0    0  501  502  0.00000000000E+00 -0.00000000000E+00 -0.14450606371E+03  0.14450606371E+03  0.00000000000E+00 0.  1.
         24    2    1    2    0    0 -0.32247439868E+02 -0.23306294898E+02 -0.35575047040E+02  0.96904152163E+02  0.80881085395E+02 0.  0.
        -11    1    3    3    0    0 -0.14435586297E+02  0.78008504175E+01 -0.54114782683E+02  0.56547759671E+02  0.00000000000E+00 0.  1.
         12    1    3    3    0    0 -0.17811853570E+02 -0.31107145315E+02  0.18539735643E+02  0.40356392492E+02  0.00000000000E+00 0. -1.
          3    1    1    2  501    0  0.32247439868E+02  0.23306294898E+02 -0.73209762050E+02  0.83323166162E+02  0.00000000000E+00 0. -1.
<mgrwt>
<rscale>  1 0.90137843E+02</rscale>
<asrwt>0</asrwt>
<pdfrwt beam="1">  1       21 0.22231702E-01 0.90137843E+02</pdfrwt>
<pdfrwt beam="2">  1        4 0.54955776E-02 0.90137843E+02</pdfrwt>
<totfact> 0.14674774E+05</totfact>
</mgrwt>
</event>
<event>
 6    2  0.7993170E+000  0.5980967E+02  0.7546771E-02  0.1398632E+00
         21   -1    0    0  501  502  0.00000000000E+00  0.00000000000E+00  0.52646204744E+01  0.52646204744E+01  0.00000000000E+00 0.  1.
          2   -1    0    0  502    0 -0.00000000000E+00 -0.00000000000E+00 -0.49425280805E+03  0.49425280805E+03  0.00000000000E+00 0. -1.
         24    2    1    2    0    0  0.85876531203E+01 -0.22845333544E+02 -0.18231991033E+03  0.19187950934E+03  0.54603473803E+02 0.  0.
        -13    1    3    3    0    0 -0.49543211065E+00 -0.12101334269E+02 -0.36400889299E+01  0.12646659301E+02  0.00000000000E+00 0.  1.
         14    1    3    3    0    0  0.90830852309E+01 -0.10743999275E+02 -0.17867982140E+03  0.17923285004E+03  0.00000000000E+00 0. -1.
          1    1    1    2  501    0 -0.85876531203E+01  0.22845333544E+02 -0.30666827724E+03  0.30763791918E+03  0.00000000000E+00 0. -1.
<mgrwt>
<rscale>  1 0.59809668E+02</rscale>
<asrwt>0</asrwt>
<pdfrwt beam="1">  1       21 0.80994172E-03 0.59809668E+02</pdfrwt>
<pdfrwt beam="2">  1        2 0.76038883E-01 0.59809668E+02</pdfrwt>
<totfact> 0.35937226E+06</totfact>
</mgrwt>
</event>
<event>
 6    2  0.7993170E+000  0.8297573E+02  0.7546771E-02  0.1320813E+00
         -1   -1    0    0    0  501 -0.00000000000E+00  0.00000000000E+00  0.17990871575E+02  0.17990871575E+02  0.00000000000E+00 0.  1.
         21   -1    0    0  501  502  0.00000000000E+00 -0.00000000000E+00 -0.24391528732E+03  0.24391528732E+03  0.00000000000E+00 0. -1.
         24    2    1    2    0    0 -0.47589092031E+01 -0.19610302476E+02 -0.82291327295E+02  0.11686245763E+03  0.80484534381E+02 0.  0.
        -11    1    3    3    0    0 -0.18737009419E+02  0.12929940810E+02  0.44264199307E+01  0.23191638250E+02  0.00000000000E+00 0.  1.
         12    1    3    3    0    0  0.13978100216E+02 -0.32540243287E+02 -0.86717747225E+02  0.93670819376E+02  0.00000000000E+00 0. -1.
         -2    1    1    2    0  502  0.47589092031E+01  0.19610302476E+02 -0.14363308845E+03  0.14504370127E+03  0.00000000000E+00 0.  1.
<mgrwt>
<rscale>  1 0.82975728E+02</rscale>
<asrwt>0</asrwt>
<pdfrwt beam="1">  1       21 0.37525428E-01 0.82975728E+02</pdfrwt>
<pdfrwt beam="2">  1       -1 0.27678265E-02 0.82975728E+02</pdfrwt>
<totfact> 0.23995277E+05</totfact>
</mgrwt>
</event>
<event>
 6    2  0.7993170E+000  0.8786523E+02  0.7546771E-02  0.1308105E+00
         21   -1    0    0  501  502  0.00000000000E+00  0.00000000000E+00  0.36987385850E+01  0.36987385850E+01  0.00000000000E+00 0.  1.
          2   -1    0    0  502    0 -0.00000000000E+00 -0.00000000000E+00 -0.15263379853E+04  0.15263379853E+04  0.00000000000E+00 0. -1.
         24    2    1    2    0    0  0.13676810382E+02  0.30906815562E+02 -0.14020561288E+04  0.14048066368E+04  0.81104944673E+02 0.  0.
        -13    1    3    3    0    0 -0.48568630599E+01  0.47285032899E+02 -0.46480764394E+03  0.46723185820E+03  0.00000000000E+00 0.  1.
         14    1    3    3    0    0  0.18533673442E+02 -0.16378217337E+02 -0.93724848483E+03  0.93757477855E+03  0.00000000000E+00 0. -1.
          1    1    1    2  501    0 -0.13676810382E+02 -0.30906815562E+02 -0.12058311799E+03  0.12523008718E+03  0.00000000000E+00 0. -1.
<mgrwt>
<rscale>  1 0.87865229E+02</rscale>
<asrwt>0</asrwt>
<pdfrwt beam="1">  1       21 0.56903745E-03 0.87865229E+02</pdfrwt>
<pdfrwt beam="2">  1        2 0.23482092E+00 0.87865229E+02</pdfrwt>
<totfact> 0.14830964E+06</totfact>
</mgrwt>
</event>
<event>
 6    2  0.7993170E+000  0.1104754E+03  0.7546771E-02  0.1259692E+00
         -1   -1    0    0    0  501 -0.00000000000E+00  0.00000000000E+00  0.27670355976E+03  0.27670355976E+03  0.00000000000E+00 0.  1.
         21   -1    0    0  501  502  0.00000000000E+00 -0.00000000000E+00 -0.58763520803E+02  0.58763520803E+02  0.00000000000E+00 0.  1.
         24    2    1    2    0    0  0.61522437179E+02 -0.41625223840E+02  0.23462680772E+03  0.25933484175E+03  0.81775006595E+02 0.  0.
        -11    1    3    3    0    0  0.69282001006E+02 -0.29160640742E+01  0.17006558159E+03  0.18365947058E+03  0.00000000000E+00 0.  1.
         12    1    3    3    0    0 -0.77595638271E+01 -0.38709159766E+02  0.64561226135E+02  0.75675371163E+02  0.00000000000E+00 0. -1.
         -2    1    1    2    0  502 -0.61522437179E+02  0.41625223840E+02 -0.16686768764E+02  0.76132238821E+02  0.00000000000E+00 0.  1.
<mgrwt>
<rscale>  1 0.11047543E+03</rscale>
<asrwt>0</asrwt>
<pdfrwt beam="1">  1       21 0.90405418E-02 0.11047543E+03</pdfrwt>
<pdfrwt beam="2">  1       -1 0.42569778E-01 0.11047543E+03</pdfrwt>
<totfact> 0.48538108E+04</totfact>
</mgrwt>
</event>
<event>
 6    2  0.7993170E+000  0.8952873E+02  0.7546771E-02  0.1303997E+00
          2   -1    0    0  502    0 -0.00000000000E+00  0.00000000000E+00  0.15194608508E+02  0.15194608508E+02  0.00000000000E+00 0. -1.
         21   -1    0    0  501  502  0.00000000000E+00 -0.00000000000E+00 -0.55404317316E+03  0.55404317316E+03  0.00000000000E+00 0. -1.
         24    2    1    2    0    0  0.29357106347E+02  0.18680893193E+02 -0.12405399211E+03  0.15298623167E+03  0.82489870042E+02 0.  0.
        -11    1    3    3    0    0 -0.15812521894E+02 -0.18289014583E+02 -0.67554048571E+02  0.71750075829E+02  0.00000000000E+00 0.  1.
         12    1    3    3    0    0  0.45169628241E+02  0.36969907777E+02 -0.56499943540E+02  0.81236155845E+02  0.00000000000E+00 0. -1.
          1    1    1    2  501    0 -0.29357106347E+02 -0.18680893193E+02 -0.41479457254E+03  0.41625154999E+03  0.00000000000E+00 0. -1.
<mgrwt>
<rscale>  1 0.89528734E+02</rscale>
<asrwt>0</asrwt>
<pdfrwt beam="1">  1       21 0.85237402E-01 0.89528734E+02</pdfrwt>
<pdfrwt beam="2">  1        2 0.23376323E-02 0.89528734E+02</pdfrwt>
<totfact> 0.61244998E+04</totfact>
</mgrwt>
</event>
<event>
 6    2  0.7993170E+000  0.8395644E+02  0.7546771E-02  0.1318184E+00
          4   -1    0    0  502    0 -0.00000000000E+00  0.00000000000E+00  0.12259100780E+02  0.12259100780E+02  0.00000000000E+00 0. -1.
         21   -1    0    0  501  502  0.00000000000E+00 -0.00000000000E+00 -0.28468744147E+03  0.28468744147E+03  0.00000000000E+00 0. -1.
         24    2    1    2    0    0 -0.21199573650E+02 -0.32330656614E+01 -0.14357067814E+03  0.16631663819E+03  0.81171484407E+02 0.  0.
        -11    1    3    3    0    0  0.17673337432E+02 -0.18244197109E+02 -0.10974239862E+03  0.11264364891E+03  0.00000000000E+00 0.  1.
         12    1    3    3    0    0 -0.38872911082E+02  0.15011131447E+02 -0.33828279517E+02  0.53672989281E+02  0.00000000000E+00 0. -1.
          3    1    1    2  501    0  0.21199573650E+02  0.32330656614E+01 -0.12885766256E+03  0.13062990407E+03  0.00000000000E+00 0. -1.
<mgrwt>
<rscale>  1 0.83956444E+02</rscale>
<asrwt>0</asrwt>
<pdfrwt beam="1">  1       21 0.43798062E-01 0.83956444E+02</pdfrwt>
<pdfrwt beam="2">  1        4 0.18860158E-02 0.83956444E+02</pdfrwt>
<totfact> 0.20890808E+05</totfact>
</mgrwt>
</event>
<event>
 6    2  0.7993170E+000  0.8410684E+02  0.7546771E-02  0.1317785E+00
          2   -1    0    0  502    0 -0.00000000000E+00  0.00000000000E+00  0.22342262561E+04  0.22342262561E+04  0.00000000000E+00 0. -1.
         21   -1    0    0  501  502  0.00000000000E+00 -0.00000000000E+00 -0.29459567821E+01  0.29459567821E+01  0.00000000000E+00 0. -1.
         24    2    1    2    0    0 -0.13217900705E+02 -0.23533431716E+02  0.21476042871E+04  0.21492505982E+04  0.79658173319E+02 0.  0.
        -11    1    3    3    0    0 -0.59191953727E+00  0.67219277892E+01  0.15632226310E+02  0.17026484704E+02  0.00000000000E+00 0.  1.
         12    1    3    3    0    0 -0.12625981167E+02 -0.30255359505E+02  0.21319720608E+04  0.21322241135E+04  0.00000000000E+00 0. -1.
          1    1    1    2  501    0  0.13217900705E+02  0.23533431716E+02  0.83676012148E+02  0.87921614614E+02  0.00000000000E+00 0. -1.
<mgrwt>
<rscale>  1 0.84106836E+02</rscale>
<asrwt>0</asrwt>
<pdfrwt beam="1">  1       21 0.45322591E-03 0.84106836E+02</pdfrwt>
<pdfrwt beam="2">  1        2 0.34372576E+00 0.84106836E+02</pdfrwt>
<totfact> 0.92376401E+05</totfact>
</mgrwt>
</event>
<event>
 6    2  0.7993170E+000  0.9063624E+02  0.7546771E-02  0.1301318E+00
         21   -1    0    0  501  502  0.00000000000E+00  0.00000000000E+00  0.31732941969E+01  0.31732941969E+01  0.00000000000E+00 0. -1.
          2   -1    0    0  502    0 -0.00000000000E+00 -0.00000000000E+00 -0.14989661923E+04  0.14989661923E+04  0.00000000000E+00 0. -1.
         24    2    1    2    0    0 -0.20920453770E+02  0.38686622324E+02 -0.11489115942E+04  0.11524811403E+04  0.79250281469E+02 0.  0.
        -13    1    3    3    0    0 -0.10042474327E+02  0.21400224993E+02 -0.81120041361E+02  0.84494272177E+02  0.00000000000E+00 0.  1.
         14    1    3    3    0    0 -0.10877979443E+02  0.17286397331E+02 -0.10677915529E+04  0.10679868681E+04  0.00000000000E+00 0. -1.
          1    1    1    2  501    0  0.20920453770E+02 -0.38686622324E+02 -0.34688130390E+03  0.34965834629E+03  0.00000000000E+00 0. -1.
<mgrwt>
<rscale>  1 0.90636236E+02</rscale>
<asrwt>0</asrwt>
<pdfrwt beam="1">  1       21 0.48819904E-03 0.90636236E+02</pdfrwt>
<pdfrwt beam="2">  1        2 0.23061022E+00 0.90636236E+02</pdfrwt>
<totfact> 0.19419070E+06</totfact>
</mgrwt>
</event>
<event>
 6    2  0.7993170E+000  0.8210633E+02  0.7546771E-02  0.1323178E+00
         -1   -1    0    0    0  501 -0.00000000000E+00  0.00000000000E+00  0.32880500096E+02  0.32880500096E+02  0.00000000000E+00 0.  1.
         21   -1    0    0  501  502  0.00000000000E+00 -0.00000000000E+00 -0.17554314244E+03  0.17554314244E+03  0.00000000000E+00 0.  1.
         24    2    1    2    0    0  0.27756458729E+02  0.12818247168E+02 -0.23502492190E+02  0.85403848004E+02  0.76201848095E+02 0.  0.
        -13    1    3    3    0    0  0.30814867350E+02  0.15235509350E+02  0.21295014040E+02  0.40437042646E+02  0.00000000000E+00 0.  1.
         14    1    3    3    0    0 -0.30584086206E+01 -0.24172621818E+01 -0.44797506230E+02  0.44966805358E+02  0.00000000000E+00 0. -1.
         -2    1    1    2    0  502 -0.27756458729E+02 -0.12818247168E+02 -0.11916015015E+03  0.12301979453E+03  0.00000000000E+00 0.  1.
<mgrwt>
<rscale>  1 0.82106334E+02</rscale>
<asrwt>0</asrwt>
<pdfrwt beam="1">  1       21 0.27006637E-01 0.82106334E+02</pdfrwt>
<pdfrwt beam="2">  1       -1 0.50585386E-02 0.82106334E+02</pdfrwt>
<totfact> 0.18842018E+05</totfact>
</mgrwt>
</event>
<event>
 6    2  0.7993170E+000  0.8535294E+02  0.7546771E-02  0.1314512E+00
         -3   -1    0    0    0  501 -0.00000000000E+00  0.00000000000E+00  0.33496982929E+03  0.33496982929E+03  0.00000000000E+00 0.  1.
         21   -1    0    0  501  502  0.00000000000E+00 -0.00000000000E+00 -0.92084921195E+01  0.92084921195E+01  0.00000000000E+00 0. -1.
         24    2    1    2    0    0  0.22953673785E+02  0.11513996494E+02  0.25448798477E+03  0.26841992902E+03  0.81398284045E+02 0.  0.
        -13    1    3    3    0    0  0.22164363305E+01  0.23429340873E+02  0.23848447498E+03  0.23964284135E+03  0.00000000000E+00 0.  1.
         14    1    3    3    0    0  0.20737237455E+02 -0.11915344379E+02  0.16003509787E+02  0.28777087664E+02  0.00000000000E+00 0. -1.
         -4    1    1    2    0  502 -0.22953673785E+02 -0.11513996494E+02  0.71273352398E+02  0.75758392391E+02  0.00000000000E+00 0.  1.
<mgrwt>
<rscale>  1 0.85352937E+02</rscale>
<asrwt>0</asrwt>
<pdfrwt beam="1">  1       21 0.14166914E-02 0.85352937E+02</pdfrwt>
<pdfrwt beam="2">  1       -3 0.51533811E-01 0.85352937E+02</pdfrwt>
<totfact> 0.35338240E+05</totfact>
</mgrwt>
</event>
<event>
 6    2  0.7993170E+000  0.1012077E+03  0.7546771E-02  0.1277777E+00
         21   -1    0    0  501  502  0.00000000000E+00  0.00000000000E+00  0.34968519983E+02  0.34968519983E+02  0.00000000000E+00 0.  1.
         -1   -1    0    0    0  501 -0.00000000000E+00 -0.00000000000E+00 -0.32404520159E+03  0.32404520159E+03  0.00000000000E+00 0.  1.
         24    2    1    2    0    0  0.37909329564E+02 -0.52670525966E+02 -0.53130462259E+02  0.11430589579E+03  0.77663957018E+02 0.  0.
        -11    1    3    3    0    0  0.36179089907E+02  0.40855131828E+01  0.19493157419E+00  0.36409558673E+02  0.00000000000E+00 0.  1.
         12    1    3    3    0    0  0.17302396570E+01 -0.56756039149E+02 -0.53325393833E+02  0.77896337120E+02  0.00000000000E+00 0. -1.
         -2    1    1    2    0  502 -0.37909329564E+02  0.52670525966E+02 -0.23594621934E+03  0.24470782578E+03  0.00000000000E+00 0.  1.
<mgrwt>
<rscale>  1 0.10120767E+03</rscale>
<asrwt>0</asrwt>
<pdfrwt beam="1">  1       21 0.53797723E-02 0.10120767E+03</pdfrwt>
<pdfrwt beam="2">  1       -1 0.49853108E-01 0.10120767E+03</pdfrwt>
<totfact> 0.88198652E+04</totfact>
</mgrwt>
</event>
<event>
 6    2  0.7993170E+000  0.1291154E+03  0.7546771E-02  0.1228774E+00
         21   -1    0    0  501  502  0.00000000000E+00  0.00000000000E+00  0.14592474857E+02  0.14592474857E+02  0.00000000000E+00 0. -1.
          2   -1    0    0  502    0 -0.00000000000E+00 -0.00000000000E+00 -0.20631936587E+04  0.20631936587E+04  0.00000000000E+00 0. -1.
         24    2    1    2    0    0  0.10722879158E+03 -0.43281833442E+00 -0.18274927913E+04  0.18320482197E+04  0.71920621657E+02 0.  0.
        -13    1    3    3    0    0  0.66643155600E+02  0.22452998235E+01 -0.56828712435E+03  0.57218581533E+03  0.00000000000E+00 0.  1.
         14    1    3    3    0    0  0.40585635980E+02 -0.26781181579E+01 -0.12592056670E+04  0.12598624043E+04  0.00000000000E+00 0. -1.
          1    1    1    2  501    0 -0.10722879158E+03  0.43281833442E+00 -0.22110839255E+03  0.24573791391E+03  0.00000000000E+00 0. -1.
<mgrwt>
<rscale>  1 0.12911536E+03</rscale>
<asrwt>0</asrwt>
<pdfrwt beam="1">  1       21 0.22449957E-02 0.12911536E+03</pdfrwt>
<pdfrwt beam="2">  1        2 0.31741447E+00 0.12911536E+03</pdfrwt>
<totfact> 0.91998558E+04</totfact>
</mgrwt>
</event>
<event>
 6    2  0.7993170E+000  0.8619912E+02  0.7546771E-02  0.1312326E+00
         -3   -1    0    0    0  501 -0.00000000000E+00  0.00000000000E+00  0.73289900120E+01  0.73289900120E+01  0.00000000000E+00 0.  1.
         21   -1    0    0  501  502  0.00000000000E+00 -0.00000000000E+00 -0.44906430550E+03  0.44906430550E+03  0.00000000000E+00 0.  1.
         24    2    1    2    0    0 -0.26336626331E+02  0.94768486033E+01 -0.35159465714E+03  0.36200703151E+03  0.81528273519E+02 0.  0.
        -11    1    3    3    0    0 -0.46065562299E+00 -0.54589975645E+01  0.29388242842E+01  0.62168759185E+01  0.00000000000E+00 0.  1.
         12    1    3    3    0    0 -0.25875970708E+02  0.14935846168E+02 -0.35453348143E+03  0.35579015559E+03  0.00000000000E+00 0. -1.
         -4    1    1    2    0  502  0.26336626331E+02 -0.94768486033E+01 -0.90140658344E+02  0.94386264004E+02  0.00000000000E+00 0.  1.
<mgrwt>
<rscale>  1 0.86199118E+02</rscale>
<asrwt>0</asrwt>
<pdfrwt beam="1">  1       21 0.69086810E-01 0.86199118E+02</pdfrwt>
<pdfrwt beam="2">  1       -3 0.11275370E-02 0.86199118E+02</pdfrwt>
<totfact> 0.19555218E+05</totfact>
</mgrwt>
</event>
<event>
 6    2  0.7993170E+000  0.8504344E+02  0.7546771E-02  0.1315319E+00
          2   -1    0    0  502    0 -0.00000000000E+00  0.00000000000E+00  0.45338675605E+03  0.45338675605E+03  0.00000000000E+00 0. -1.
         21   -1    0    0  501  502  0.00000000000E+00 -0.00000000000E+00 -0.48178849187E+02  0.48178849187E+02  0.00000000000E+00 0. -1.
         24    2    1    2    0    0  0.21162121131E+02 -0.15454351121E+02  0.44547655475E+03  0.45352149694E+03  0.80905593232E+02 0.  0.
        -11    1    3    3    0    0  0.26469378524E+02 -0.49994066405E+01  0.42136535816E+02  0.50011095937E+02  0.00000000000E+00 0.  1.
         12    1    3    3    0    0 -0.53072573923E+01 -0.10454944481E+02  0.40334001893E+03  0.40351040100E+03  0.00000000000E+00 0. -1.
          1    1    1    2  501    0 -0.21162121131E+02  0.15454351121E+02 -0.40268647887E+02  0.48044108297E+02  0.00000000000E+00 0. -1.
<mgrwt>
<rscale>  1 0.85043444E+02</rscale>
<asrwt>0</asrwt>
<pdfrwt beam="1">  1       21 0.74121310E-02 0.85043444E+02</pdfrwt>
<pdfrwt beam="2">  1        2 0.69751806E-01 0.85043444E+02</pdfrwt>
<totfact> 0.11609544E+05</totfact>
</mgrwt>
</event>
<event>
 6    2  0.7993170E+000  0.1002406E+03  0.7546771E-02  0.1279791E+00
          4   -1    0    0  502    0 -0.00000000000E+00  0.00000000000E+00  0.23388199065E+02  0.23388199065E+02  0.00000000000E+00 0. -1.
         21   -1    0    0  501  502  0.00000000000E+00 -0.00000000000E+00 -0.60289785660E+03  0.60289785660E+03  0.00000000000E+00 0. -1.
         24    2    1    2    0    0 -0.32364066328E+02 -0.50930061585E+02 -0.95238599879E+02  0.13826990712E+03  0.80042940628E+02 0.  0.
        -11    1    3    3    0    0 -0.17735674250E+02 -0.14224001877E+02 -0.96094235694E+02  0.98747043015E+02  0.00000000000E+00 0.  1.
         12    1    3    3    0    0 -0.14628392079E+02 -0.36706059708E+02  0.85563581500E+00  0.39522864101E+02  0.00000000000E+00 0. -1.
          3    1    1    2  501    0  0.32364066328E+02  0.50930061585E+02 -0.48427105766E+03  0.48801614855E+03  0.00000000000E+00 0. -1.
<mgrwt>
<rscale>  1 0.10024059E+03</rscale>
<asrwt>0</asrwt>
<pdfrwt beam="1">  1       21 0.92753517E-01 0.10024059E+03</pdfrwt>
<pdfrwt beam="2">  1        4 0.35981845E-02 0.10024059E+03</pdfrwt>
<totfact> 0.15957574E+04</totfact>
</mgrwt>
</event>
<event>
 6    2  0.7993170E+000  0.8662988E+02  0.7546771E-02  0.1311224E+00
         21   -1    0    0  501  502  0.00000000000E+00  0.00000000000E+00  0.90659672670E+01  0.90659672670E+01  0.00000000000E+00 0. -1.
          2   -1    0    0  502    0 -0.00000000000E+00 -0.00000000000E+00 -0.12063415358E+04  0.12063415358E+04  0.00000000000E+00 0. -1.
         24    2    1    2    0    0 -0.45317935457E+01  0.29510302817E+02 -0.11749194073E+04  0.11781088024E+04  0.81322454403E+02 0.  0.
        -11    1    3    3    0    0  0.14796198236E+02  0.19273275237E+02 -0.97997853060E+02  0.10096517135E+03  0.00000000000E+00 0.  1.
         12    1    3    3    0    0 -0.19327991781E+02  0.10237027580E+02 -0.10769215542E+04  0.10771436311E+04  0.00000000000E+00 0. -1.
          1    1    1    2  501    0  0.45317935457E+01 -0.29510302817E+02 -0.22356161268E+02  0.37298700671E+02  0.00000000000E+00 0. -1.
<mgrwt>
<rscale>  1 0.86629884E+02</rscale>
<asrwt>0</asrwt>
<pdfrwt beam="1">  1       21 0.13947648E-02 0.86629884E+02</pdfrwt>
<pdfrwt beam="2">  1        2 0.18559092E+00 0.86629884E+02</pdfrwt>
<totfact> 0.53918272E+05</totfact>
</mgrwt>
</event>
<event>
 6    2  0.7993170E+000  0.9914966E+02  0.7546771E-02  0.1282094E+00
         21   -1    0    0  501  502  0.00000000000E+00  0.00000000000E+00  0.66427537685E+01  0.66427537685E+01  0.00000000000E+00 0. -1.
          2   -1    0    0  502    0 -0.00000000000E+00 -0.00000000000E+00 -0.10814118138E+04  0.10814118138E+04  0.00000000000E+00 0. -1.
         24    2    1    2    0    0  0.49422332054E+02 -0.28535900823E+02 -0.86490107567E+03  0.87056563590E+03  0.81078919327E+02 0.  0.
        -13    1    3    3    0    0 -0.64784458626E+01 -0.18466934008E+02 -0.50092834043E+02  0.53780014270E+02  0.00000000000E+00 0.  1.
         14    1    3    3    0    0  0.55900777917E+02 -0.10068966815E+02 -0.81480824163E+03  0.81678562163E+03  0.00000000000E+00 0. -1.
          1    1    1    2  501    0 -0.49422332054E+02  0.28535900823E+02 -0.20986798433E+03  0.21748893165E+03  0.00000000000E+00 0. -1.
<mgrwt>
<rscale>  1 0.99149663E+02</rscale>
<asrwt>0</asrwt>
<pdfrwt beam="1">  1       21 0.10219622E-02 0.99149663E+02</pdfrwt>
<pdfrwt beam="2">  1        2 0.16637104E+00 0.99149663E+02</pdfrwt>
<totfact> 0.10402587E+06</totfact>
</mgrwt>
</event>
<event>
 6    2  0.7993170E+000  0.8581595E+02  0.7546771E-02  0.1313312E+00
          2   -1    0    0  502    0 -0.00000000000E+00  0.00000000000E+00  0.55058448141E+03  0.55058448141E+03  0.00000000000E+00 0. -1.
         21   -1    0    0  501  502  0.00000000000E+00 -0.00000000000E+00 -0.73936903092E+01  0.73936903092E+01  0.00000000000E+00 0. -1.
         24    2    1    2    0    0  0.28093084620E+02 -0.43540257486E+01  0.49195689303E+03  0.49938558469E+03  0.80970356611E+02 0.  0.
        -13    1    3    3    0    0 -0.17284209108E+02  0.13030657020E+02  0.31895554155E+03  0.31968919186E+03  0.00000000000E+00 0.  1.
         14    1    3    3    0    0  0.45377293728E+02 -0.17384682769E+02  0.17300135148E+03  0.17969639283E+03  0.00000000000E+00 0. -1.
          1    1    1    2  501    0 -0.28093084620E+02  0.43540257486E+01  0.51233898076E+02  0.58592587037E+02  0.00000000000E+00 0. -1.
<mgrwt>
<rscale>  1 0.85815952E+02</rscale>
<asrwt>0</asrwt>
<pdfrwt beam="1">  1       21 0.11374912E-02 0.85815952E+02</pdfrwt>
<pdfrwt beam="2">  1        2 0.84705273E-01 0.85815952E+02</pdfrwt>
<totfact> 0.19800923E+06</totfact>
</mgrwt>
</event>
<event>
 6    2  0.7993170E+000  0.9011999E+02  0.7546771E-02  0.1302561E+00
          2   -1    0    0  502    0 -0.00000000000E+00  0.00000000000E+00  0.10287163275E+03  0.10287163275E+03  0.00000000000E+00 0. -1.
         21   -1    0    0  501  502  0.00000000000E+00 -0.00000000000E+00 -0.33199328680E+02  0.33199328680E+02  0.00000000000E+00 0. -1.
         24    2    1    2    0    0 -0.11451882780E+02 -0.21234226041E+02  0.65918740296E+02  0.11165524486E+03  0.86830728478E+02 0.  0.
        -11    1    3    3    0    0 -0.23870555848E+02  0.15720865744E+02 -0.65881664616E+01  0.29331774470E+02  0.00000000000E+00 0.  1.
         12    1    3    3    0    0  0.12418673068E+02 -0.36955091785E+02  0.72506906758E+02  0.82323470391E+02  0.00000000000E+00 0. -1.
          1    1    1    2  501    0  0.11451882780E+02  0.21234226041E+02  0.37535637783E+01  0.24415716574E+02  0.00000000000E+00 0. -1.
<mgrwt>
<rscale>  1 0.90119994E+02</rscale>
<asrwt>0</asrwt>
<pdfrwt beam="1">  1       21 0.51075891E-02 0.90119994E+02</pdfrwt>
<pdfrwt beam="2">  1        2 0.15826405E-01 0.90119994E+02</pdfrwt>
<totfact> 0.10738565E+06</totfact>
</mgrwt>
</event>
<event>
 6    2  0.7993170E+000  0.8646145E+02  0.7546771E-02  0.1311654E+00
         21   -1    0    0  501  502  0.00000000000E+00  0.00000000000E+00  0.39207851628E+01  0.39207851628E+01  0.00000000000E+00 0. -1.
          2   -1    0    0  502    0 -0.00000000000E+00 -0.00000000000E+00 -0.17620088253E+04  0.17620088253E+04  0.00000000000E+00 0. -1.
         24    2    1    2    0    0  0.22092751881E+02 -0.21846421164E+02 -0.16748759306E+04  0.16771061284E+04  0.80685977603E+02 0.  0.
        -13    1    3    3    0    0  0.62897579337E+01 -0.29083458827E+02 -0.20704340147E+03  0.20917069280E+03  0.00000000000E+00 0.  1.
         14    1    3    3    0    0  0.15802993948E+02  0.72370376626E+01 -0.14678325292E+04  0.14679354356E+04  0.00000000000E+00 0. -1.
          1    1    1    2  501    0 -0.22092751881E+02  0.21846421164E+02 -0.83212109461E+02  0.88823482054E+02  0.00000000000E+00 0. -1.
<mgrwt>
<rscale>  1 0.86461453E+02</rscale>
<asrwt>0</asrwt>
<pdfrwt beam="1">  1       21 0.60319659E-03 0.86461453E+02</pdfrwt>
<pdfrwt beam="2">  1        2 0.27107879E+00 0.86461453E+02</pdfrwt>
<totfact> 0.10305859E+06</totfact>
</mgrwt>
</event>
<event>
 6    2  0.7993170E+000  0.8789897E+02  0.7546771E-02  0.1308021E+00
         -3   -1    0    0    0  501 -0.00000000000E+00  0.00000000000E+00  0.14926301217E+03  0.14926301217E+03  0.00000000000E+00 0.  1.
         21   -1    0    0  501  502  0.00000000000E+00 -0.00000000000E+00 -0.12900961269E+03  0.12900961269E+03  0.00000000000E+00 0.  1.
         24    2    1    2    0    0  0.24978345873E+02 -0.24672058927E+02  0.13342722709E+03  0.15977813761E+03  0.80582877069E+02 0.  0.
        -13    1    3    3    0    0  0.67419964979E+01 -0.39023717807E+02  0.13051367776E+03  0.13638960793E+03  0.00000000000E+00 0.  1.
         14    1    3    3    0    0  0.18236349375E+02  0.14351658880E+02  0.29135493261E+01  0.23388529684E+02  0.00000000000E+00 0. -1.
         -4    1    1    2    0  502 -0.24978345873E+02  0.24672058927E+02 -0.11317382760E+03  0.11849448725E+03  0.00000000000E+00 0.  1.
<mgrwt>
<rscale>  1 0.87898967E+02</rscale>
<asrwt>0</asrwt>
<pdfrwt beam="1">  1       21 0.19847633E-01 0.87898967E+02</pdfrwt>
<pdfrwt beam="2">  1       -3 0.22963540E-01 0.87898967E+02</pdfrwt>
<totfact> 0.19120273E+04</totfact>
</mgrwt>
</event>
<event>
 6    2  0.7993170E+000  0.8423347E+02  0.7546771E-02  0.1317449E+00
         21   -1    0    0  501  502  0.00000000000E+00  0.00000000000E+00  0.55934950564E+01  0.55934950564E+01  0.00000000000E+00 0. -1.
          2   -1    0    0  502    0 -0.00000000000E+00 -0.00000000000E+00 -0.66654806785E+03  0.66654806785E+03  0.00000000000E+00 0. -1.
         24    2    1    2    0    0 -0.11918684920E+02  0.25745881588E+02 -0.58552625095E+03  0.59155411224E+03  0.79311863465E+02 0.  0.
        -11    1    3    3    0    0 -0.49091004290E+01  0.12257870260E+02 -0.12049143302E+02  0.17875584036E+02  0.00000000000E+00 0.  1.
         12    1    3    3    0    0 -0.70095844906E+01  0.13488011328E+02 -0.57347710765E+03  0.57367852820E+03  0.00000000000E+00 0. -1.
          1    1    1    2  501    0  0.11918684920E+02 -0.25745881588E+02 -0.75428321845E+02  0.80587450669E+02  0.00000000000E+00 0. -1.
<mgrwt>
<rscale>  1 0.84233468E+02</rscale>
<asrwt>0</asrwt>
<pdfrwt beam="1">  1       21 0.86053821E-03 0.84233468E+02</pdfrwt>
<pdfrwt beam="2">  1        2 0.10254580E+00 0.84233468E+02</pdfrwt>
<totfact> 0.24656074E+06</totfact>
</mgrwt>
</event>
<event>
 6    2  0.7993170E+000  0.9022891E+02  0.7546771E-02  0.1302298E+00
          2   -1    0    0  502    0 -0.00000000000E+00  0.00000000000E+00  0.52368679195E+03  0.52368679195E+03  0.00000000000E+00 0. -1.
         21   -1    0    0  501  502  0.00000000000E+00 -0.00000000000E+00 -0.15802992445E+02  0.15802992445E+02  0.00000000000E+00 0.  1.
         24    2    1    2    0    0  0.41146781725E+02 -0.16806987698E+02  0.12570592574E+03  0.15473601940E+03  0.78522120783E+02 0.  0.
        -13    1    3    3    0    0 -0.14478177830E+01 -0.39752886200E+02  0.73390834091E+02  0.83478156821E+02  0.00000000000E+00 0.  1.
         14    1    3    3    0    0  0.42594599508E+02  0.22945898502E+02  0.52315091647E+02  0.71257862579E+02  0.00000000000E+00 0. -1.
          1    1    1    2  501    0 -0.41146781725E+02  0.16806987698E+02  0.38217787376E+03  0.38475376499E+03  0.00000000000E+00 0. -1.
<mgrwt>
<rscale>  1 0.90228909E+02</rscale>
<asrwt>0</asrwt>
<pdfrwt beam="1">  1       21 0.24312300E-02 0.90228909E+02</pdfrwt>
<pdfrwt beam="2">  1        2 0.80567186E-01 0.90228909E+02</pdfrwt>
<totfact> 0.62890282E+05</totfact>
</mgrwt>
</event>
<event>
 6    2  0.7993170E+000  0.1062168E+03  0.7546771E-02  0.1267741E+00
         -3   -1    0    0    0  501 -0.00000000000E+00  0.00000000000E+00  0.82516346741E+01  0.82516346741E+01  0.00000000000E+00 0.  1.
         21   -1    0    0  501  502  0.00000000000E+00 -0.00000000000E+00 -0.12336084445E+04  0.12336084445E+04  0.00000000000E+00 0.  1.
         24    2    1    2    0    0  0.99641685164E+01  0.67624747075E+02 -0.40624782190E+03  0.41990392148E+03  0.81299565829E+02 0.  0.
        -11    1    3    3    0    0  0.38068913026E+01  0.75467761947E+02 -0.20622859858E+03  0.21963631391E+03  0.00000000000E+00 0.  1.
         12    1    3    3    0    0  0.61572772139E+01 -0.78430148717E+01 -0.20001922332E+03  0.20026760757E+03  0.00000000000E+00 0. -1.
         -4    1    1    2    0  502 -0.99641685164E+01 -0.67624747075E+02 -0.81910898792E+03  0.82195615769E+03  0.00000000000E+00 0.  1.
<mgrwt>
<rscale>  1 0.10621681E+03</rscale>
<asrwt>0</asrwt>
<pdfrwt beam="1">  1       21 0.18978592E+00 0.10621681E+03</pdfrwt>
<pdfrwt beam="2">  1       -3 0.12694822E-02 0.10621681E+03</pdfrwt>
<totfact> 0.14572695E+04</totfact>
</mgrwt>
</event>
<event>
 6    2  0.7993170E+000  0.6929914E+02  0.7546771E-02  0.1362493E+00
         21   -1    0    0  501  502  0.00000000000E+00  0.00000000000E+00  0.36803624462E+01  0.36803624462E+01  0.00000000000E+00 0. -1.
          2   -1    0    0  502    0 -0.00000000000E+00 -0.00000000000E+00 -0.17881756141E+04  0.17881756141E+04  0.00000000000E+00 0. -1.
         24    2    1    2    0    0 -0.16723185615E+02 -0.26546438060E+02 -0.17047898813E+04  0.17061977932E+04  0.61789900733E+02 0.  0.
        -11    1    3    3    0    0  0.15678419503E+02  0.88718689490E+01 -0.26713847284E+03  0.26774518963E+03  0.00000000000E+00 0.  1.
         12    1    3    3    0    0 -0.32401605118E+02 -0.35418307009E+02 -0.14376514085E+04  0.14384526036E+04  0.00000000000E+00 0. -1.
          1    1    1    2  501    0  0.16723185615E+02  0.26546438060E+02 -0.79705370363E+02  0.85658183354E+02  0.00000000000E+00 0. -1.
<mgrwt>
<rscale>  1 0.69299135E+02</rscale>
<asrwt>0</asrwt>
<pdfrwt beam="1">  1       21 0.56620929E-03 0.69299135E+02</pdfrwt>
<pdfrwt beam="2">  1        2 0.27510410E+00 0.69299135E+02</pdfrwt>
<totfact> 0.10870467E+06</totfact>
</mgrwt>
</event>
<event>
 6    2  0.7993170E+000  0.8268030E+02  0.7546771E-02  0.1321613E+00
          2   -1    0    0  502    0 -0.00000000000E+00  0.00000000000E+00  0.31983747409E+02  0.31983747409E+02  0.00000000000E+00 0. -1.
         21   -1    0    0  501  502  0.00000000000E+00 -0.00000000000E+00 -0.12019438797E+03  0.12019438797E+03  0.00000000000E+00 0. -1.
         24    2    1    2    0    0 -0.27465875864E+02 -0.41229562408E+01 -0.30489881422E+02  0.88123009582E+02  0.77875919535E+02 0.  0.
        -13    1    3    3    0    0  0.96947781328E+01  0.27868186171E+02 -0.25202685511E+02  0.38804637357E+02  0.00000000000E+00 0.  1.
         14    1    3    3    0    0 -0.37160653997E+02 -0.31991142411E+02 -0.52871959105E+01  0.49318372224E+02  0.00000000000E+00 0. -1.
          1    1    1    2  501    0  0.27465875864E+02  0.41229562408E+01 -0.57720759135E+02  0.64055125792E+02  0.00000000000E+00 0. -1.
<mgrwt>
<rscale>  1 0.82680300E+02</rscale>
<asrwt>0</asrwt>
<pdfrwt beam="1">  1       21 0.18491444E-01 0.82680300E+02</pdfrwt>
<pdfrwt beam="2">  1        2 0.49205766E-02 0.82680300E+02</pdfrwt>
<totfact> 0.47879715E+05</totfact>
</mgrwt>
</event>
<event>
 6    2  0.7993170E+000  0.8909888E+02  0.7546771E-02  0.1305049E+00
         21   -1    0    0  501  502  0.00000000000E+00  0.00000000000E+00  0.36943382459E+01  0.36943382459E+01  0.00000000000E+00 0. -1.
          2   -1    0    0  502    0 -0.00000000000E+00 -0.00000000000E+00 -0.15332345591E+04  0.15332345591E+04  0.00000000000E+00 0. -1.
         24    2    1    2    0    0 -0.34637763424E+02 -0.17094697801E+02 -0.13654422329E+04  0.13683461194E+04  0.80290771052E+02 0.  0.
        -11    1    3    3    0    0  0.57634655448E+01 -0.40990776955E+02 -0.72993084724E+03  0.73110361994E+03  0.00000000000E+00 0.  1.
         12    1    3    3    0    0 -0.40401228969E+02  0.23896079154E+02 -0.63551138563E+03  0.63724249950E+03  0.00000000000E+00 0. -1.
          1    1    1    2  501    0  0.34637763424E+02  0.17094697801E+02 -0.16409798796E+03  0.16858277789E+03  0.00000000000E+00 0. -1.
<mgrwt>
<rscale>  1 0.89098885E+02</rscale>
<asrwt>0</asrwt>
<pdfrwt beam="1">  1       21 0.56835773E-03 0.89098885E+02</pdfrwt>
<pdfrwt beam="2">  1        2 0.23588307E+00 0.89098885E+02</pdfrwt>
<totfact> 0.14753429E+06</totfact>
</mgrwt>
</event>
<event>
 6    2  0.7993170E+000  0.8516379E+02  0.7546771E-02  0.1315005E+00
          4   -1    0    0  502    0 -0.00000000000E+00  0.00000000000E+00  0.85606812376E+03  0.85606812376E+03  0.00000000000E+00 0. -1.
         21   -1    0    0  501  502  0.00000000000E+00 -0.00000000000E+00 -0.48498436689E+01  0.48498436689E+01  0.00000000000E+00 0. -1.
         24    2    1    2    0    0 -0.25760850436E+02 -0.44660274516E+01  0.78680721093E+03  0.79140284212E+03  0.81051246297E+02 0.  0.
        -11    1    3    3    0    0  0.14958614551E+02 -0.85881999952E+01  0.41091936811E+02  0.44565284688E+02  0.00000000000E+00 0.  1.
         12    1    3    3    0    0 -0.40719464986E+02  0.41221725436E+01  0.74571527412E+03  0.74683755743E+03  0.00000000000E+00 0. -1.
          3    1    1    2  501    0  0.25760850436E+02  0.44660274516E+01  0.64411069160E+02  0.69515125308E+02  0.00000000000E+00 0. -1.
<mgrwt>
<rscale>  1 0.85163791E+02</rscale>
<asrwt>0</asrwt>
<pdfrwt beam="1">  1       21 0.74613048E-03 0.85163791E+02</pdfrwt>
<pdfrwt beam="2">  1        4 0.13170267E+00 0.85163791E+02</pdfrwt>
<totfact> 0.98210516E+04</totfact>
</mgrwt>
</event>
<event>
 6    2  0.7993170E+000  0.8380568E+02  0.7546771E-02  0.1318586E+00
         -3   -1    0    0    0  501 -0.00000000000E+00  0.00000000000E+00  0.83881561580E+01  0.83881561580E+01  0.00000000000E+00 0.  1.
         21   -1    0    0  501  502  0.00000000000E+00 -0.00000000000E+00 -0.33057609756E+03  0.33057609756E+03  0.00000000000E+00 0. -1.
         24    2    1    2    0    0  0.15314246959E+02 -0.15058962773E+02 -0.25985046788E+03  0.27303050573E+03  0.81006745877E+02 0.  0.
        -13    1    3    3    0    0  0.50290810514E+01 -0.19245767913E+02 -0.88286549227E+01  0.21763188795E+02  0.00000000000E+00 0.  1.
         14    1    3    3    0    0  0.10285165908E+02  0.41868051406E+01 -0.25102181296E+03  0.25126731693E+03  0.00000000000E+00 0. -1.
         -4    1    1    2    0  502 -0.15314246959E+02  0.15058962773E+02 -0.62337473522E+02  0.65933747996E+02  0.00000000000E+00 0.  1.
<mgrwt>
<rscale>  1 0.83805676E+02</rscale>
<asrwt>0</asrwt>
<pdfrwt beam="1">  1       21 0.50857871E-01 0.83805676E+02</pdfrwt>
<pdfrwt beam="2">  1       -3 0.12904853E-02 0.83805676E+02</pdfrwt>
<totfact> 0.30271828E+05</totfact>
</mgrwt>
</event>
<event>
 6    2  0.7993170E+000  0.9926354E+02  0.7546771E-02  0.1281852E+00
         21   -1    0    0  501  502  0.00000000000E+00  0.00000000000E+00  0.54082688975E+01  0.54082688975E+01  0.00000000000E+00 0. -1.
         -1   -1    0    0    0  501 -0.00000000000E+00 -0.00000000000E+00 -0.12098134095E+04  0.12098134095E+04  0.00000000000E+00 0.  1.
         24    2    1    2    0    0 -0.59051205496E+02  0.98743055230E+01 -0.64035225931E+03  0.64800020519E+03  0.79175142153E+02 0.  0.
        -11    1    3    3    0    0  0.14307565611E+02 -0.47810462589E+01 -0.35961695800E+02  0.38997543537E+02  0.00000000000E+00 0.  1.
         12    1    3    3    0    0 -0.73358771107E+02  0.14655351782E+02 -0.60439056351E+03  0.60900266165E+03  0.00000000000E+00 0. -1.
         -2    1    1    2    0  502  0.59051205496E+02 -0.98743055230E+01 -0.56405288129E+03  0.56722147321E+03  0.00000000000E+00 0.  1.
<mgrwt>
<rscale>  1 0.99263538E+02</rscale>
<asrwt>0</asrwt>
<pdfrwt beam="1">  1       21 0.83204038E-03 0.99263538E+02</pdfrwt>
<pdfrwt beam="2">  1       -1 0.18612536E+00 0.99263538E+02</pdfrwt>
<totfact> 0.96335630E+04</totfact>
</mgrwt>
</event>
<event>
 6    2  0.7993170E+000  0.7917952E+02  0.7546771E-02  0.1331396E+00
         21   -1    0    0  501  502  0.00000000000E+00  0.00000000000E+00  0.28581067427E+02  0.28581067427E+02  0.00000000000E+00 0. -1.
          2   -1    0    0  502    0 -0.00000000000E+00 -0.00000000000E+00 -0.34048474645E+03  0.34048474645E+03  0.00000000000E+00 0. -1.
         24    2    1    2    0    0 -0.11794421467E+02  0.17013380669E+02 -0.33134027942E+03  0.34066960049E+03  0.76425338944E+02 0.  0.
        -11    1    3    3    0    0 -0.12486087116E+02 -0.37013263971E+01 -0.54444912422E+01  0.14115405536E+02  0.00000000000E+00 0.  1.
         12    1    3    3    0    0  0.69166564912E+00  0.20714707067E+02 -0.32589578817E+03  0.32655419495E+03  0.00000000000E+00 0. -1.
          1    1    1    2  501    0  0.11794421467E+02 -0.17013380669E+02  0.19436600398E+02  0.28396213385E+02  0.00000000000E+00 0. -1.
<mgrwt>
<rscale>  1 0.79179517E+02</rscale>
<asrwt>0</asrwt>
<pdfrwt beam="1">  1       21 0.43970870E-02 0.79179517E+02</pdfrwt>
<pdfrwt beam="2">  1        2 0.52382272E-01 0.79179517E+02</pdfrwt>
<totfact> 0.37371192E+05</totfact>
</mgrwt>
</event>
<event>
 6    2  0.7993170E+000  0.8392222E+02  0.7546771E-02  0.1318275E+00
          2   -1    0    0  502    0 -0.00000000000E+00  0.00000000000E+00  0.80625060033E+03  0.80625060033E+03  0.00000000000E+00 0. -1.
         21   -1    0    0  501  502  0.00000000000E+00 -0.00000000000E+00 -0.38061167539E+01  0.38061167539E+01  0.00000000000E+00 0.  1.
         24    2    1    2    0    0  0.25215333194E+02  0.22129420718E+01  0.55307106763E+03  0.55940195307E+03  0.80013930735E+02 0.  0.
        -11    1    3    3    0    0  0.16934881391E+02  0.81490224882E+01  0.25218482478E+02  0.31451051393E+02  0.00000000000E+00 0.  1.
         12    1    3    3    0    0  0.82804518032E+01 -0.59360804164E+01  0.52785258515E+03  0.52795090168E+03  0.00000000000E+00 0. -1.
          1    1    1    2  501    0 -0.25215333194E+02 -0.22129420718E+01  0.24937341595E+03  0.25065476401E+03  0.00000000000E+00 0. -1.
<mgrwt>
<rscale>  1 0.83922221E+02</rscale>
<asrwt>0</asrwt>
<pdfrwt beam="1">  1       21 0.58555706E-03 0.83922221E+02</pdfrwt>
<pdfrwt beam="2">  1        2 0.12403842E+00 0.83922221E+02</pdfrwt>
<totfact> 0.35678158E+06</totfact>
</mgrwt>
</event>
<event>
 6    2  0.7993170E+000  0.9129638E+02  0.7546771E-02  0.1299742E+00
         21   -1    0    0  501  502  0.00000000000E+00  0.00000000000E+00  0.18038333844E+01  0.18038333844E+01  0.00000000000E+00 0.  1.
          2   -1    0    0  502    0 -0.00000000000E+00 -0.00000000000E+00 -0.25504190565E+04  0.25504190565E+04  0.00000000000E+00 0. -1.
         24    2    1    2    0    0  0.20431475184E+02 -0.37979896330E+02 -0.15623293659E+04  0.15649945931E+04  0.80468076734E+02 0.  0.
        -13    1    3    3    0    0 -0.96826317839E+01 -0.50083045295E+01 -0.28474810194E+02  0.30490183471E+02  0.00000000000E+00 0.  1.
         14    1    3    3    0    0  0.30114106968E+02 -0.32971591801E+02 -0.15338545557E+04  0.15345044096E+04  0.00000000000E+00 0. -1.
          1    1    1    2  501    0 -0.20431475184E+02  0.37979896330E+02 -0.98628585729E+03  0.98722829679E+03  0.00000000000E+00 0. -1.
<mgrwt>
<rscale>  1 0.91296380E+02</rscale>
<asrwt>0</asrwt>
<pdfrwt beam="1">  1       21 0.27751199E-03 0.91296380E+02</pdfrwt>
<pdfrwt beam="2">  1        2 0.39237334E+00 0.91296380E+02</pdfrwt>
<totfact> 0.13386276E+06</totfact>
</mgrwt>
</event>
<event>
 6    2  0.7993170E+000  0.9114646E+02  0.7546771E-02  0.1300099E+00
          2   -1    0    0  502    0 -0.00000000000E+00  0.00000000000E+00  0.24269613524E+04  0.24269613524E+04  0.00000000000E+00 0. -1.
         21   -1    0    0  501  502  0.00000000000E+00 -0.00000000000E+00 -0.23397017414E+01  0.23397017414E+01  0.00000000000E+00 0. -1.
         24    2    1    2    0    0 -0.32692333009E+01 -0.44507472284E+02  0.20508846789E+04  0.20529090683E+04  0.79473727904E+02 0.  0.
        -11    1    3    3    0    0  0.30552914518E+01 -0.30191744653E+02  0.23430230180E+03  0.23625927470E+03  0.00000000000E+00 0.  1.
         12    1    3    3    0    0 -0.63245247527E+01 -0.14315727631E+02  0.18165823771E+04  0.18166497936E+04  0.00000000000E+00 0. -1.
          1    1    1    2  501    0  0.32692333009E+01  0.44507472284E+02  0.37373697175E+03  0.37639198587E+03  0.00000000000E+00 0. -1.
<mgrwt>
<rscale>  1 0.91146456E+02</rscale>
<asrwt>0</asrwt>
<pdfrwt beam="1">  1       21 0.35995605E-03 0.91146456E+02</pdfrwt>
<pdfrwt beam="2">  1        2 0.37337666E+00 0.91146456E+02</pdfrwt>
<totfact> 0.10476954E+06</totfact>
</mgrwt>
</event>
<event>
 6    2  0.7993170E+000  0.8261995E+02  0.7546771E-02  0.1321777E+00
          2   -1    0    0  502    0 -0.00000000000E+00  0.00000000000E+00  0.38748001150E+03  0.38748001150E+03  0.00000000000E+00 0. -1.
         21   -1    0    0  501  502  0.00000000000E+00 -0.00000000000E+00 -0.96890311027E+01  0.96890311027E+01  0.00000000000E+00 0. -1.
         24    2    1    2    0    0 -0.14992909471E+02  0.15440276586E+02  0.35966100695E+03  0.36902858396E+03  0.79767577267E+02 0.  0.
        -11    1    3    3    0    0  0.13200492572E+02 -0.21895599089E+02  0.53287976669E+02  0.59103965359E+02  0.00000000000E+00 0.  1.
         12    1    3    3    0    0 -0.28193402043E+02  0.37335875675E+02  0.30637303028E+03  0.30992461860E+03  0.00000000000E+00 0. -1.
          1    1    1    2  501    0  0.14992909471E+02 -0.15440276586E+02  0.18129973447E+02  0.28140458643E+02  0.00000000000E+00 0. -1.
<mgrwt>
<rscale>  1 0.82619948E+02</rscale>
<asrwt>0</asrwt>
<pdfrwt beam="1">  1       21 0.14906205E-02 0.82619948E+02</pdfrwt>
<pdfrwt beam="2">  1        2 0.59612298E-01 0.82619948E+02</pdfrwt>
<totfact> 0.18743978E+06</totfact>
</mgrwt>
</event>
<event>
 6    2  0.7993170E+000  0.9298208E+02  0.7546771E-02  0.1295787E+00
         21   -1    0    0  501  502  0.00000000000E+00  0.00000000000E+00  0.20368510268E+02  0.20368510268E+02  0.00000000000E+00 0. -1.
          2   -1    0    0  502    0 -0.00000000000E+00 -0.00000000000E+00 -0.27530154564E+03  0.27530154564E+03  0.00000000000E+00 0. -1.
         24    2    1    2    0    0 -0.35756640480E+02  0.27158848132E+02 -0.21979678144E+03  0.23865517443E+03  0.81421906006E+02 0.  0.
        -13    1    3    3    0    0 -0.38057763150E+00 -0.25806605117E+02 -0.37265435814E+02  0.45330325538E+02  0.00000000000E+00 0.  1.
         14    1    3    3    0    0 -0.35376062848E+02  0.52965453249E+02 -0.18253134563E+03  0.19332484889E+03  0.00000000000E+00 0. -1.
          1    1    1    2  501    0  0.35756640480E+02 -0.27158848132E+02 -0.35136253932E+02  0.57014881484E+02  0.00000000000E+00 0. -1.
<mgrwt>
<rscale>  1 0.92982080E+02</rscale>
<asrwt>0</asrwt>
<pdfrwt beam="1">  1       21 0.31336172E-02 0.92982080E+02</pdfrwt>
<pdfrwt beam="2">  1        2 0.42354081E-01 0.92982080E+02</pdfrwt>
<totfact> 0.82432779E+05</totfact>
</mgrwt>
</event>
<event>
 6    2  0.7993170E+000  0.8884519E+02  0.7546771E-02  0.1305673E+00
         21   -1    0    0  501  502  0.00000000000E+00  0.00000000000E+00  0.53606107536E+01  0.53606107536E+01  0.00000000000E+00 0.  1.
         -1   -1    0    0    0  501 -0.00000000000E+00 -0.00000000000E+00 -0.18252947029E+04  0.18252947029E+04  0.00000000000E+00 0.  1.
         24    2    1    2    0    0 -0.18873710130E+02  0.30138327891E+02 -0.17494908126E+04  0.17517452929E+04  0.81418254080E+02 0.  0.
        -13    1    3    3    0    0  0.27830375146E+01  0.13501969731E+02 -0.15806565339E+04  0.15807166497E+04  0.00000000000E+00 0.  1.
         14    1    3    3    0    0 -0.21656747644E+02  0.16636358160E+02 -0.16883427870E+03  0.17102864320E+03  0.00000000000E+00 0. -1.
         -2    1    1    2    0  502  0.18873710130E+02 -0.30138327891E+02 -0.70443279587E+02  0.78910020790E+02  0.00000000000E+00 0.  1.
<mgrwt>
<rscale>  1 0.88845190E+02</rscale>
<asrwt>0</asrwt>
<pdfrwt beam="1">  1       21 0.82470958E-03 0.88845190E+02</pdfrwt>
<pdfrwt beam="2">  1       -1 0.28081449E+00 0.88845190E+02</pdfrwt>
<totfact> 0.24779185E+04</totfact>
</mgrwt>
</event>
<event>
 6    2  0.7993170E+000  0.8396800E+02  0.7546771E-02  0.1318154E+00
          2   -1    0    0  502    0 -0.00000000000E+00  0.00000000000E+00  0.59940034482E+02  0.59940034482E+02  0.00000000000E+00 0. -1.
         21   -1    0    0  501  502  0.00000000000E+00 -0.00000000000E+00 -0.49198429180E+02  0.49198429180E+02  0.00000000000E+00 0.  1.
         24    2    1    2    0    0 -0.21663411288E+02  0.31259186240E+01  0.18380103736E+02  0.85956112310E+02  0.81065098990E+02 0.  0.
        -13    1    3    3    0    0 -0.27031199952E+02 -0.10210846715E+02 -0.26267899582E+02  0.39050604476E+02  0.00000000000E+00 0.  1.
         14    1    3    3    0    0  0.53677886650E+01  0.13336765339E+02  0.44648003318E+02  0.46905507834E+02  0.00000000000E+00 0. -1.
          1    1    1    2  501    0  0.21663411288E+02 -0.31259186240E+01 -0.76384984343E+01  0.23182351352E+02  0.00000000000E+00 0. -1.
<mgrwt>
<rscale>  1 0.83968000E+02</rscale>
<asrwt>0</asrwt>
<pdfrwt beam="1">  1       21 0.75689892E-02 0.83968000E+02</pdfrwt>
<pdfrwt beam="2">  1        2 0.92215437E-02 0.83968000E+02</pdfrwt>
<totfact> 0.10420123E+06</totfact>
</mgrwt>
</event>
<event>
 6    2  0.7993170E+000  0.8636070E+02  0.7546771E-02  0.1311912E+00
         -1   -1    0    0    0  501 -0.00000000000E+00  0.00000000000E+00  0.27161791977E+02  0.27161791977E+02  0.00000000000E+00 0.  1.
         21   -1    0    0  501  502  0.00000000000E+00 -0.00000000000E+00 -0.33423200620E+03  0.33423200620E+03  0.00000000000E+00 0.  1.
         24    2    1    2    0    0  0.13372086091E+02  0.29322131996E+02 -0.45060514751E+02  0.97409551056E+02  0.80122222486E+02 0.  0.
        -13    1    3    3    0    0  0.22005544285E+02 -0.23125918168E+02 -0.25185011594E+02  0.40661245423E+02  0.00000000000E+00 0.  1.
         14    1    3    3    0    0 -0.86334581933E+01  0.52448050164E+02 -0.19875503157E+02  0.56748305633E+02  0.00000000000E+00 0. -1.
         -2    1    1    2    0  502 -0.13372086091E+02 -0.29322131996E+02 -0.26200969947E+03  0.26398424712E+03  0.00000000000E+00 0.  1.
<mgrwt>
<rscale>  1 0.86360701E+02</rscale>
<asrwt>0</asrwt>
<pdfrwt beam="1">  1       21 0.51420305E-01 0.86360701E+02</pdfrwt>
<pdfrwt beam="2">  1       -1 0.41787375E-02 0.86360701E+02</pdfrwt>
<totfact> 0.70716464E+04</totfact>
</mgrwt>
</event>
<event>
 6    2  0.7993170E+000  0.8810248E+02  0.7546771E-02  0.1307513E+00
          2   -1    0    0  502    0 -0.00000000000E+00  0.00000000000E+00  0.57554670786E+03  0.57554670786E+03  0.00000000000E+00 0. -1.
         21   -1    0    0  501  502  0.00000000000E+00 -0.00000000000E+00 -0.69536771295E+01  0.69536771295E+01  0.00000000000E+00 0. -1.
         24    2    1    2    0    0  0.32109003701E+02  0.11630382217E+02  0.33354874203E+03  0.34498812939E+03  0.81214482705E+02 0.  0.
        -11    1    3    3    0    0 -0.18232218121E+02  0.15995759670E+02  0.37514269683E+02  0.44672122570E+02  0.00000000000E+00 0.  1.
         12    1    3    3    0    0  0.50341221822E+02 -0.43653774534E+01  0.29603447235E+03  0.30031600682E+03  0.00000000000E+00 0. -1.
          1    1    1    2  501    0 -0.32109003701E+02 -0.11630382217E+02  0.23504428870E+03  0.23751225559E+03  0.00000000000E+00 0. -1.
<mgrwt>
<rscale>  1 0.88102475E+02</rscale>
<asrwt>0</asrwt>
<pdfrwt beam="1">  1       21 0.10697969E-02 0.88102475E+02</pdfrwt>
<pdfrwt beam="2">  1        2 0.88545610E-01 0.88102475E+02</pdfrwt>
<totfact> 0.20821680E+06</totfact>
</mgrwt>
</event>
<event>
 6    2  0.7993170E+000  0.8517454E+02  0.7546771E-02  0.1314977E+00
         21   -1    0    0  501  502  0.00000000000E+00  0.00000000000E+00  0.22993382122E+01  0.22993382122E+01  0.00000000000E+00 0. -1.
          2   -1    0    0  502    0 -0.00000000000E+00 -0.00000000000E+00 -0.19575051311E+04  0.19575051311E+04  0.00000000000E+00 0. -1.
         24    2    1    2    0    0 -0.28362774762E+02 -0.13954927781E+02 -0.17596683982E+04  0.17617285755E+04  0.79091813679E+02 0.  0.
        -13    1    3    3    0    0 -0.13130745700E+02  0.72339149414E+01 -0.59488181516E+02  0.61348103052E+02  0.00000000000E+00 0.  1.
         14    1    3    3    0    0 -0.15232029062E+02 -0.21188842723E+02 -0.17001802167E+04  0.17003804724E+04  0.00000000000E+00 0. -1.
          1    1    1    2  501    0  0.28362774762E+02  0.13954927781E+02 -0.19553739473E+03  0.19807589389E+03  0.00000000000E+00 0. -1.
<mgrwt>
<rscale>  1 0.85174538E+02</rscale>
<asrwt>0</asrwt>
<pdfrwt beam="1">  1       21 0.35374481E-03 0.85174538E+02</pdfrwt>
<pdfrwt beam="2">  1        2 0.30115424E+00 0.85174538E+02</pdfrwt>
<totfact> 0.18576239E+06</totfact>
</mgrwt>
</event>
<event>
 6    2  0.7993170E+000  0.9467800E+02  0.7546771E-02  0.1291903E+00
          4   -1    0    0  502    0 -0.00000000000E+00  0.00000000000E+00  0.50264740285E+02  0.50264740285E+02  0.00000000000E+00 0. -1.
         21   -1    0    0  501  502  0.00000000000E+00 -0.00000000000E+00 -0.11939163125E+03  0.11939163125E+03  0.00000000000E+00 0. -1.
         24    2    1    2    0    0 -0.46487257673E+02 -0.22766822380E+02 -0.16995023294E+02  0.96191244066E+02  0.79275035736E+02 0.  0.
        -11    1    3    3    0    0  0.50685591609E+01  0.21788419952E+02 -0.16923310075E+02  0.28050382526E+02  0.00000000000E+00 0.  1.
         12    1    3    3    0    0 -0.51555816834E+02 -0.44555242332E+02 -0.71713219282E-01  0.68140861540E+02  0.00000000000E+00 0. -1.
          3    1    1    2  501    0  0.46487257673E+02  0.22766822380E+02 -0.52131867673E+02  0.73465127471E+02  0.00000000000E+00 0. -1.
<mgrwt>
<rscale>  1 0.94678005E+02</rscale>
<asrwt>0</asrwt>
<pdfrwt beam="1">  1       21 0.18367943E-01 0.94678005E+02</pdfrwt>
<pdfrwt beam="2">  1        4 0.77330371E-02 0.94678005E+02</pdfrwt>
<totfact> 0.12070129E+05</totfact>
</mgrwt>
</event>
<event>
 6    2  0.7993170E+000  0.8247148E+02  0.7546771E-02  0.1322181E+00
         21   -1    0    0  501  502  0.00000000000E+00  0.00000000000E+00  0.65900548349E+01  0.65900548349E+01  0.00000000000E+00 0.  1.
         -1   -1    0    0    0  501 -0.00000000000E+00 -0.00000000000E+00 -0.40279390363E+03  0.40279390363E+03  0.00000000000E+00 0.  1.
         24    2    1    2    0    0 -0.64678302000E+01  0.19179431222E+02 -0.30430701828E+03  0.31528448520E+03  0.79949120231E+02 0.  0.
        -11    1    3    3    0    0  0.30647485497E+01  0.36362893745E+02 -0.28634737119E+03  0.28866324621E+03  0.00000000000E+00 0.  1.
         12    1    3    3    0    0 -0.95325787497E+01 -0.17183462522E+02 -0.17959647088E+02  0.26621238990E+02  0.00000000000E+00 0. -1.
         -2    1    1    2    0  502  0.64678302000E+01 -0.19179431222E+02 -0.91896830520E+02  0.94099473267E+02  0.00000000000E+00 0.  1.
<mgrwt>
<rscale>  1 0.82471481E+02</rscale>
<asrwt>0</asrwt>
<pdfrwt beam="1">  1       21 0.10138545E-02 0.82471481E+02</pdfrwt>
<pdfrwt beam="2">  1       -1 0.61968297E-01 0.82471481E+02</pdfrwt>
<totfact> 0.85421863E+05</totfact>
</mgrwt>
</event>
<event>
 6    2  0.7993170E+000  0.9058090E+02  0.7546771E-02  0.1301451E+00
         21   -1    0    0  501  502  0.00000000000E+00  0.00000000000E+00  0.14282095160E+03  0.14282095160E+03  0.00000000000E+00 0. -1.
         -1   -1    0    0    0  501 -0.00000000000E+00 -0.00000000000E+00 -0.56044560042E+02  0.56044560042E+02  0.00000000000E+00 0.  1.
         24    2    1    2    0    0 -0.30154406994E+02 -0.30498199952E+02 -0.11816254653E+02  0.91348357903E+02  0.79783896596E+02 0.  0.
        -11    1    3    3    0    0 -0.56449031585E+02 -0.21169718547E+02 -0.17703595326E+02  0.62833648928E+02  0.00000000000E+00 0.  1.
         12    1    3    3    0    0  0.26294624591E+02 -0.93284814049E+01  0.58873406726E+01  0.28514708974E+02  0.00000000000E+00 0. -1.
         -2    1    1    2    0  502  0.30154406994E+02  0.30498199952E+02  0.98592646216E+02  0.10751715374E+03  0.00000000000E+00 0.  1.
<mgrwt>
<rscale>  1 0.90580895E+02</rscale>
<asrwt>0</asrwt>
<pdfrwt beam="1">  1       21 0.21972454E-01 0.90580895E+02</pdfrwt>
<pdfrwt beam="2">  1       -1 0.86222401E-02 0.90580895E+02</pdfrwt>
<totfact> 0.12682538E+05</totfact>
</mgrwt>
</event>
<event>
 6    2  0.7993170E+000  0.8199230E+02  0.7546771E-02  0.1323491E+00
         21   -1    0    0  501  502  0.00000000000E+00  0.00000000000E+00  0.77350374570E+02  0.77350374570E+02  0.00000000000E+00 0. -1.
          2   -1    0    0  502    0 -0.00000000000E+00 -0.00000000000E+00 -0.19447420654E+03  0.19447420654E+03  0.00000000000E+00 0. -1.
         24    2    1    2    0    0 -0.19673928983E+02 -0.37981692896E+01 -0.18430429359E+03  0.20171963125E+03  0.79506272853E+02 0.  0.
        -13    1    3    3    0    0 -0.21113167578E+02  0.36098916986E+02 -0.86418240201E+02  0.96005259711E+02  0.00000000000E+00 0.  1.
         14    1    3    3    0    0  0.14392385949E+01 -0.39897086276E+02 -0.97886053389E+02  0.10571437154E+03  0.00000000000E+00 0. -1.
          1    1    1    2  501    0  0.19673928983E+02  0.37981692896E+01  0.67180461621E+02  0.70104949862E+02  0.00000000000E+00 0. -1.
<mgrwt>
<rscale>  1 0.81992298E+02</rscale>
<asrwt>0</asrwt>
<pdfrwt beam="1">  1       21 0.11900058E-01 0.81992298E+02</pdfrwt>
<pdfrwt beam="2">  1        2 0.29919108E-01 0.81992298E+02</pdfrwt>
<totfact> 0.12464944E+05</totfact>
</mgrwt>
</event>
<event>
 6    2  0.7993170E+000  0.1232552E+03  0.7546771E-02  0.1237822E+00
          2   -1    0    0  502    0 -0.00000000000E+00  0.00000000000E+00  0.20707201775E+04  0.20707201775E+04  0.00000000000E+00 0. -1.
         21   -1    0    0  501  502  0.00000000000E+00 -0.00000000000E+00 -0.76237249310E+01  0.76237249310E+01  0.00000000000E+00 0. -1.
         24    2    1    2    0    0 -0.90304964707E+02 -0.17074918306E+02  0.16743842197E+04  0.16789146353E+04  0.82129762239E+02 0.  0.
        -11    1    3    3    0    0 -0.12114899447E+02  0.20214111321E+02  0.13111551702E+03  0.13321659014E+03  0.00000000000E+00 0.  1.
         12    1    3    3    0    0 -0.78190065260E+02 -0.37289029627E+02  0.15432687027E+04  0.15456980452E+04  0.00000000000E+00 0. -1.
          1    1    1    2  501    0  0.90304964707E+02  0.17074918306E+02  0.38871223287E+03  0.39942926717E+03  0.00000000000E+00 0. -1.
<mgrwt>
<rscale>  1 0.12325517E+03</rscale>
<asrwt>0</asrwt>
<pdfrwt beam="1">  1       21 0.11728824E-02 0.12325517E+03</pdfrwt>
<pdfrwt beam="2">  1        2 0.31857189E+00 0.12325517E+03</pdfrwt>
<totfact> 0.25788814E+05</totfact>
</mgrwt>
</event>
<event>
 6    2  0.7993170E+000  0.1104042E+03  0.7546771E-02  0.1259823E+00
         21   -1    0    0  501  502  0.00000000000E+00  0.00000000000E+00  0.38979826857E+01  0.38979826857E+01  0.00000000000E+00 0.  1.
          2   -1    0    0  502    0 -0.00000000000E+00 -0.00000000000E+00 -0.22614013250E+04  0.22614013250E+04  0.00000000000E+00 0. -1.
         24    2    1    2    0    0  0.68723675856E+02 -0.35529125076E+02 -0.13178849181E+04  0.13225013201E+04  0.78764343757E+02 0.  0.
        -11    1    3    3    0    0  0.31685198530E+02 -0.58607551568E+02 -0.76341820057E+03  0.76631987177E+03  0.00000000000E+00 0.  1.
         12    1    3    3    0    0  0.37038477326E+02  0.23078426492E+02 -0.55446671753E+03  0.55618144828E+03  0.00000000000E+00 0. -1.
          1    1    1    2  501    0 -0.68723675856E+02  0.35529125076E+02 -0.93961842419E+03  0.94279798760E+03  0.00000000000E+00 0. -1.
<mgrwt>
<rscale>  1 0.11040419E+03</rscale>
<asrwt>0</asrwt>
<pdfrwt beam="1">  1       21 0.59969116E-03 0.11040419E+03</pdfrwt>
<pdfrwt beam="2">  1        2 0.34790701E+00 0.11040419E+03</pdfrwt>
<totfact> 0.58689563E+05</totfact>
</mgrwt>
</event>
<event>
 6    2  0.7993170E+000  0.8997586E+02  0.7546771E-02  0.1302910E+00
         21   -1    0    0  501  502  0.00000000000E+00  0.00000000000E+00  0.22574620835E+02  0.22574620835E+02  0.00000000000E+00 0.  1.
         -1   -1    0    0    0  501 -0.00000000000E+00 -0.00000000000E+00 -0.24879262562E+03  0.24879262562E+03  0.00000000000E+00 0.  1.
         24    2    1    2    0    0  0.31789839349E+02  0.39692288636E+01 -0.22138167504E+03  0.23896757440E+03  0.84079170485E+02 0.  0.
        -11    1    3    3    0    0  0.43923766340E+02  0.28717235266E+02 -0.19040129457E+03  0.19750096158E+03  0.00000000000E+00 0.  1.
         12    1    3    3    0    0 -0.12133926991E+02 -0.24748006403E+02 -0.30980380471E+02  0.41466612826E+02  0.00000000000E+00 0. -1.
         -2    1    1    2    0  502 -0.31789839349E+02 -0.39692288636E+01 -0.48363297457E+01  0.32399672051E+02  0.00000000000E+00 0.  1.
<mgrwt>
<rscale>  1 0.89975861E+02</rscale>
<asrwt>0</asrwt>
<pdfrwt beam="1">  1       21 0.34730185E-02 0.89975861E+02</pdfrwt>
<pdfrwt beam="2">  1       -1 0.38275790E-01 0.89975861E+02</pdfrwt>
<totfact> 0.28760496E+05</totfact>
</mgrwt>
</event>
<event>
 6    2  0.7993170E+000  0.8540578E+02  0.7546771E-02  0.1314375E+00
         -3   -1    0    0    0  501 -0.00000000000E+00  0.00000000000E+00  0.10929769063E+02  0.10929769063E+02  0.00000000000E+00 0.  1.
         21   -1    0    0  501  502  0.00000000000E+00 -0.00000000000E+00 -0.29834899599E+03  0.29834899599E+03  0.00000000000E+00 0.  1.
         24    2    1    2    0    0  0.23465997650E+02  0.15717168475E+02 -0.20205285823E+03  0.21936158463E+03  0.80600650509E+02 0.  0.
        -11    1    3    3    0    0 -0.12433834922E+01  0.24658063971E+02 -0.11910618112E+02  0.27412204309E+02  0.00000000000E+00 0.  1.
         12    1    3    3    0    0  0.24709381142E+02 -0.89408954958E+01 -0.19014224012E+03  0.19194938032E+03  0.00000000000E+00 0. -1.
         -4    1    1    2    0  502 -0.23465997650E+02 -0.15717168475E+02 -0.85366368692E+02  0.89917180418E+02  0.00000000000E+00 0.  1.
<mgrwt>
<rscale>  1 0.85405780E+02</rscale>
<asrwt>0</asrwt>
<pdfrwt beam="1">  1       21 0.45899847E-01 0.85405780E+02</pdfrwt>
<pdfrwt beam="2">  1       -3 0.16815029E-02 0.85405780E+02</pdfrwt>
<totfact> 0.25175253E+05</totfact>
</mgrwt>
</event>
<event>
 6    2  0.7993170E+000  0.8769455E+02  0.7546771E-02  0.1308533E+00
         -3   -1    0    0    0  501 -0.00000000000E+00  0.00000000000E+00  0.90727470984E+01  0.90727470984E+01  0.00000000000E+00 0.  1.
         21   -1    0    0  501  502  0.00000000000E+00 -0.00000000000E+00 -0.41848826798E+03  0.41848826798E+03  0.00000000000E+00 0. -1.
         24    2    1    2    0    0  0.32385038583E+02  0.14246633740E+02 -0.28156298345E+03  0.29490345358E+03  0.80240737677E+02 0.  0.
        -13    1    3    3    0    0  0.57103724336E+02 -0.48029435060E+00 -0.15707547104E+03  0.16713398702E+03  0.00000000000E+00 0.  1.
         14    1    3    3    0    0 -0.24718685754E+02  0.14726928090E+02 -0.12448751242E+03  0.12776946656E+03  0.00000000000E+00 0. -1.
         -4    1    1    2    0  502 -0.32385038583E+02 -0.14246633740E+02 -0.12785253742E+03  0.13265756150E+03  0.00000000000E+00 0.  1.
<mgrwt>
<rscale>  1 0.87694545E+02</rscale>
<asrwt>0</asrwt>
<pdfrwt beam="1">  1       21 0.64382798E-01 0.87694545E+02</pdfrwt>
<pdfrwt beam="2">  1       -3 0.13958075E-02 0.87694545E+02</pdfrwt>
<totfact> 0.16588815E+05</totfact>
</mgrwt>
</event>
<event>
 6    2  0.7993170E+000  0.8475798E+02  0.7546771E-02  0.1316067E+00
          2   -1    0    0  502    0 -0.00000000000E+00  0.00000000000E+00  0.11841005882E+04  0.11841005882E+04  0.00000000000E+00 0. -1.
         21   -1    0    0  501  502  0.00000000000E+00 -0.00000000000E+00 -0.26984457198E+01  0.26984457198E+01  0.00000000000E+00 0.  1.
         24    2    1    2    0    0 -0.22347581407E+02 -0.11409330582E+02  0.77449565773E+03  0.77911965677E+03  0.80958807478E+02 0.  0.
        -11    1    3    3    0    0 -0.35521569351E+02  0.25589745161E+02  0.32979693914E+03  0.33269000287E+03  0.00000000000E+00 0.  1.
         12    1    3    3    0    0  0.13173987944E+02 -0.36999075743E+02  0.44469871859E+03  0.44642965390E+03  0.00000000000E+00 0. -1.
          1    1    1    2  501    0  0.22347581407E+02  0.11409330582E+02  0.40690648472E+03  0.40767937711E+03  0.00000000000E+00 0. -1.
<mgrwt>
<rscale>  1 0.84757983E+02</rscale>
<asrwt>0</asrwt>
<pdfrwt beam="1">  1       21 0.41514644E-03 0.84757983E+02</pdfrwt>
<pdfrwt beam="2">  1        2 0.18216891E+00 0.84757983E+02</pdfrwt>
<totfact> 0.36160401E+06</totfact>
</mgrwt>
</event>
<event>
 6    2  0.7993170E+000  0.8310139E+02  0.7546771E-02  0.1320474E+00
         21   -1    0    0  501  502  0.00000000000E+00  0.00000000000E+00  0.20533261499E+02  0.20533261499E+02  0.00000000000E+00 0.  1.
          2   -1    0    0  502    0 -0.00000000000E+00 -0.00000000000E+00 -0.18552322433E+03  0.18552322433E+03  0.00000000000E+00 0. -1.
         24    2    1    2    0    0  0.79875826896E+00 -0.22788666341E+02 -0.16325425403E+03  0.18318786074E+03  0.79911698366E+02 0.  0.
        -13    1    3    3    0    0 -0.29105047187E+02  0.12618951714E+02 -0.37232678081E+02  0.48914354040E+02  0.00000000000E+00 0.  1.
         14    1    3    3    0    0  0.29903805456E+02 -0.35407618055E+02 -0.12602157595E+03  0.13427350670E+03  0.00000000000E+00 0. -1.
          1    1    1    2  501    0 -0.79875826896E+00  0.22788666341E+02 -0.17357088015E+01  0.22868625088E+02  0.00000000000E+00 0. -1.
<mgrwt>
<rscale>  1 0.83101389E+02</rscale>
<asrwt>0</asrwt>
<pdfrwt beam="1">  1       21 0.31589634E-02 0.83101389E+02</pdfrwt>
<pdfrwt beam="2">  1        2 0.28542033E-01 0.83101389E+02</pdfrwt>
<totfact> 0.12199900E+06</totfact>
</mgrwt>
</event>
<event>
 6    2  0.7993170E+000  0.8277207E+02  0.7546771E-02  0.1321364E+00
          2   -1    0    0  502    0 -0.00000000000E+00  0.00000000000E+00  0.15112328262E+03  0.15112328262E+03  0.00000000000E+00 0. -1.
         21   -1    0    0  501  502  0.00000000000E+00 -0.00000000000E+00 -0.23245114488E+02  0.23245114488E+02  0.00000000000E+00 0.  1.
         24    2    1    2    0    0 -0.21241066797E+02  0.93225624053E+01  0.12644464496E+03  0.15112731113E+03  0.79455162460E+02 0.  0.
        -11    1    3    3    0    0 -0.17970301331E+02 -0.85472871931E+01 -0.32529701255E+01  0.20163572673E+02  0.00000000000E+00 0.  1.
         12    1    3    3    0    0 -0.32707654662E+01  0.17869849598E+02  0.12969761509E+03  0.13096373846E+03  0.00000000000E+00 0. -1.
          1    1    1    2  501    0  0.21241066797E+02 -0.93225624053E+01  0.14335231637E+01  0.23241085972E+02  0.00000000000E+00 0. -1.
<mgrwt>
<rscale>  1 0.82772072E+02</rscale>
<asrwt>0</asrwt>
<pdfrwt beam="1">  1       21 0.35761715E-02 0.82772072E+02</pdfrwt>
<pdfrwt beam="2">  1        2 0.23249735E-01 0.82772072E+02</pdfrwt>
<totfact> 0.12438331E+06</totfact>
</mgrwt>
</event>
<event>
 6    2  0.7993170E+000  0.9007179E+02  0.7546771E-02  0.1302678E+00
         21   -1    0    0  501  502  0.00000000000E+00  0.00000000000E+00  0.43087189811E+02  0.43087189811E+02  0.00000000000E+00 0.  1.
          2   -1    0    0  502    0 -0.00000000000E+00 -0.00000000000E+00 -0.10904391718E+03  0.10904391718E+03  0.00000000000E+00 0. -1.
         24    2    1    2    0    0  0.38526947995E+02 -0.16395157703E+01 -0.68979686982E+02  0.11345098265E+03  0.81399720610E+02 0.  0.
        -11    1    3    3    0    0  0.55568794878E+02  0.20406637924E+02 -0.32453943598E+02  0.67509853285E+02  0.00000000000E+00 0.  1.
         12    1    3    3    0    0 -0.17041846883E+02 -0.22046153695E+02 -0.36525743384E+02  0.45941129369E+02  0.00000000000E+00 0. -1.
          1    1    1    2  501    0 -0.38526947995E+02  0.16395157703E+01  0.30229596143E+01  0.38680124335E+02  0.00000000000E+00 0. -1.
<mgrwt>
<rscale>  1 0.90071795E+02</rscale>
<asrwt>0</asrwt>
<pdfrwt beam="1">  1       21 0.66287985E-02 0.90071795E+02</pdfrwt>
<pdfrwt beam="2">  1        2 0.16775987E-01 0.90071795E+02</pdfrwt>
<totfact> 0.64869666E+05</totfact>
</mgrwt>
</event>
<event>
 6    2  0.7993170E+000  0.8398565E+02  0.7546771E-02  0.1318107E+00
         -1   -1    0    0    0  501 -0.00000000000E+00  0.00000000000E+00  0.62767721862E+03  0.62767721862E+03  0.00000000000E+00 0.  1.
         21   -1    0    0  501  502  0.00000000000E+00 -0.00000000000E+00 -0.15676756920E+02  0.15676756920E+02  0.00000000000E+00 0.  1.
         24    2    1    2    0    0  0.11150304131E+02 -0.22524803202E+02  0.61248438937E+03  0.61821575310E+03  0.80136721406E+02 0.  0.
        -11    1    3    3    0    0  0.14252943381E+02 -0.51488126993E+02  0.44773180042E+03  0.45090790492E+03  0.00000000000E+00 0.  1.
         12    1    3    3    0    0 -0.31026392495E+01  0.28963323792E+02  0.16475258896E+03  0.16730784818E+03  0.00000000000E+00 0. -1.
         -2    1    1    2    0  502 -0.11150304131E+02  0.22524803202E+02 -0.48392766933E+00  0.25138222441E+02  0.00000000000E+00 0.  1.
<mgrwt>
<rscale>  1 0.83985654E+02</rscale>
<asrwt>0</asrwt>
<pdfrwt beam="1">  1       21 0.24118092E-02 0.83985654E+02</pdfrwt>
<pdfrwt beam="2">  1       -1 0.96565707E-01 0.83985654E+02</pdfrwt>
<totfact> 0.89094353E+04</totfact>
</mgrwt>
</event>
<event>
 6    2  0.7993170E+000  0.9690462E+02  0.7546771E-02  0.1286943E+00
         21   -1    0    0  501  502  0.00000000000E+00  0.00000000000E+00  0.86144394376E+01  0.86144394376E+01  0.00000000000E+00 0. -1.
          2   -1    0    0  502    0 -0.00000000000E+00 -0.00000000000E+00 -0.98313302548E+03  0.98313302548E+03  0.00000000000E+00 0. -1.
         24    2    1    2    0    0  0.52431125775E+02  0.11770045503E+02 -0.85776388119E+03  0.86322035483E+03  0.80640859401E+02 0.  0.
        -11    1    3    3    0    0  0.34007825965E+01  0.31781950821E+02 -0.14448484409E+03  0.14797813315E+03  0.00000000000E+00 0.  1.
         12    1    3    3    0    0  0.49030343179E+02 -0.20011905318E+02 -0.71327903710E+03  0.71524222168E+03  0.00000000000E+00 0. -1.
          1    1    1    2  501    0 -0.52431125775E+02 -0.11770045503E+02 -0.11675470485E+03  0.12852711008E+03  0.00000000000E+00 0. -1.
<mgrwt>
<rscale>  1 0.96904619E+02</rscale>
<asrwt>0</asrwt>
<pdfrwt beam="1">  1       21 0.13252994E-02 0.96904619E+02</pdfrwt>
<pdfrwt beam="2">  1        2 0.15125112E+00 0.96904619E+02</pdfrwt>
<totfact> 0.78672848E+05</totfact>
</mgrwt>
</event>
<event>
 6    2  0.7993170E+000  0.8026121E+02  0.7546771E-02  0.1328312E+00
         21   -1    0    0  501  502  0.00000000000E+00  0.00000000000E+00  0.21360764578E+01  0.21360764578E+01  0.00000000000E+00 0.  1.
          2   -1    0    0  502    0 -0.00000000000E+00 -0.00000000000E+00 -0.15105008790E+04  0.15105008790E+04  0.00000000000E+00 0. -1.
         24    2    1    2    0    0 -0.22934941793E+02 -0.22352369106E+02 -0.96665802218E+03  0.96998432638E+03  0.73594983589E+02 0.  0.
        -11    1    3    3    0    0 -0.13562385145E+02 -0.46144906350E+02 -0.42307264507E+03  0.42579778497E+03  0.00000000000E+00 0.  1.
         12    1    3    3    0    0 -0.93725566478E+01  0.23792537244E+02 -0.54358537711E+03  0.54418654141E+03  0.00000000000E+00 0. -1.
          1    1    1    2  501    0  0.22934941793E+02  0.22352369106E+02 -0.54170678040E+03  0.54265262912E+03  0.00000000000E+00 0. -1.
<mgrwt>
<rscale>  1 0.80261208E+02</rscale>
<asrwt>0</asrwt>
<pdfrwt beam="1">  1       21 0.32862649E-03 0.80261208E+02</pdfrwt>
<pdfrwt beam="2">  1        2 0.23238522E+00 0.80261208E+02</pdfrwt>
<totfact> 0.34618066E+06</totfact>
</mgrwt>
</event>
<event>
 6    2  0.7993170E+000  0.9115289E+02  0.7546771E-02  0.1300084E+00
          2   -1    0    0  502    0 -0.00000000000E+00  0.00000000000E+00  0.20738251116E+03  0.20738251116E+03  0.00000000000E+00 0. -1.
         21   -1    0    0  501  502  0.00000000000E+00 -0.00000000000E+00 -0.50598140960E+02  0.50598140960E+02  0.00000000000E+00 0. -1.
         24    2    1    2    0    0 -0.16973758857E+02 -0.16085224164E+02  0.19381748026E+03  0.21418231691E+03  0.88102249114E+02 0.  0.
        -11    1    3    3    0    0  0.34282206718E+02 -0.18861435240E+02  0.70967818524E+02  0.81039834050E+02  0.00000000000E+00 0.  1.
         12    1    3    3    0    0 -0.51255965576E+02  0.27762110753E+01  0.12284966173E+03  0.13314248286E+03  0.00000000000E+00 0. -1.
          1    1    1    2  501    0  0.16973758857E+02  0.16085224164E+02 -0.37033110059E+02  0.43798335206E+02  0.00000000000E+00 0. -1.
<mgrwt>
<rscale>  1 0.91152889E+02</rscale>
<asrwt>0</asrwt>
<pdfrwt beam="1">  1       21 0.77843295E-02 0.91152889E+02</pdfrwt>
<pdfrwt beam="2">  1        2 0.31905001E-01 0.91152889E+02</pdfrwt>
<totfact> 0.24382310E+05</totfact>
</mgrwt>
</event>
<event>
 6    2  0.7993170E+000  0.8792144E+02  0.7546771E-02  0.1307965E+00
         21   -1    0    0  501  502  0.00000000000E+00  0.00000000000E+00  0.31777413801E+02  0.31777413801E+02  0.00000000000E+00 0.  1.
          4   -1    0    0  502    0 -0.00000000000E+00 -0.00000000000E+00 -0.17665096987E+03  0.17665096987E+03  0.00000000000E+00 0. -1.
         24    2    1    2    0    0 -0.10954248207E+02  0.35514095181E+02 -0.14690770720E+03  0.17120763299E+03  0.79680189827E+02 0.  0.
        -13    1    3    3    0    0 -0.45058858176E+02  0.27759655150E+02 -0.90355077862E+02  0.10471360585E+03  0.00000000000E+00 0.  1.
         14    1    3    3    0    0  0.34104609969E+02  0.77544400311E+01 -0.56552629335E+02  0.66494027145E+02  0.00000000000E+00 0. -1.
          3    1    1    2  501    0  0.10954248207E+02 -0.35514095181E+02  0.20341511264E+01  0.37220750679E+02  0.00000000000E+00 0. -1.
<mgrwt>
<rscale>  1 0.87921437E+02</rscale>
<asrwt>0</asrwt>
<pdfrwt beam="1">  1       21 0.48888328E-02 0.87921437E+02</pdfrwt>
<pdfrwt beam="2">  1        4 0.27177073E-01 0.87921437E+02</pdfrwt>
<totfact> 0.13379137E+05</totfact>
</mgrwt>
</event>
<event>
 6    2  0.7993170E+000  0.9107962E+02  0.7546771E-02  0.1300258E+00
          2   -1    0    0  502    0 -0.00000000000E+00  0.00000000000E+00  0.13311435931E+04  0.13311435931E+04  0.00000000000E+00 0. -1.
         21   -1    0    0  501  502  0.00000000000E+00 -0.00000000000E+00 -0.48562840148E+01  0.48562840148E+01  0.00000000000E+00 0. -1.
         24    2    1    2    0    0 -0.17925430322E+02  0.38198561790E+02  0.11863059240E+04  0.11897971434E+04  0.80715834554E+02 0.  0.
        -13    1    3    3    0    0  0.24735461587E+02 -0.97800304444E+01  0.39138243489E+03  0.39228523092E+03  0.00000000000E+00 0.  1.
         14    1    3    3    0    0 -0.42660891909E+02  0.47978592235E+02  0.79492348913E+03  0.79751191250E+03  0.00000000000E+00 0. -1.
          1    1    1    2  501    0  0.17925430322E+02 -0.38198561790E+02  0.13998138504E+03  0.14620273367E+03  0.00000000000E+00 0. -1.
<mgrwt>
<rscale>  1 0.91079620E+02</rscale>
<asrwt>0</asrwt>
<pdfrwt beam="1">  1       21 0.74712168E-03 0.91079620E+02</pdfrwt>
<pdfrwt beam="2">  1        2 0.20479103E+00 0.91079620E+02</pdfrwt>
<totfact> 0.12318950E+06</totfact>
</mgrwt>
</event>
<event>
 6    2  0.7993170E+000  0.9186954E+02  0.7546771E-02  0.1298386E+00
         -3   -1    0    0    0  501 -0.00000000000E+00  0.00000000000E+00  0.77646463567E+03  0.77646463567E+03  0.00000000000E+00 0.  1.
         21   -1    0    0  501  502  0.00000000000E+00 -0.00000000000E+00 -0.86284664001E+01  0.86284664001E+01  0.00000000000E+00 0.  1.
         24    2    1    2    0    0 -0.93065317358E+01  0.43042844298E+02  0.68632706765E+03  0.69244844963E+03  0.80627003119E+02 0.  0.
        -13    1    3    3    0    0 -0.20725768578E+02  0.63976123913E+02  0.46438299175E+03  0.46922709315E+03  0.00000000000E+00 0.  1.
         14    1    3    3    0    0  0.11419236842E+02 -0.20933279615E+02  0.22194407590E+03  0.22322135648E+03  0.00000000000E+00 0. -1.
         -4    1    1    2    0  502  0.93065317358E+01 -0.43042844298E+02  0.81509101617E+02  0.92644652434E+02  0.00000000000E+00 0.  1.
<mgrwt>
<rscale>  1 0.91869536E+02</rscale>
<asrwt>0</asrwt>
<pdfrwt beam="1">  1       21 0.13274570E-02 0.91869536E+02</pdfrwt>
<pdfrwt beam="2">  1       -3 0.11945604E+00 0.91869536E+02</pdfrwt>
<totfact> 0.65139698E+04</totfact>
</mgrwt>
</event>
<event>
 6    2  0.7993170E+000  0.8472476E+02  0.7546771E-02  0.1316154E+00
          2   -1    0    0  502    0 -0.00000000000E+00  0.00000000000E+00  0.24161914117E+02  0.24161914117E+02  0.00000000000E+00 0. -1.
         21   -1    0    0  501  502  0.00000000000E+00 -0.00000000000E+00 -0.13950432587E+03  0.13950432587E+03  0.00000000000E+00 0.  1.
         24    2    1    2    0    0 -0.25067632589E+02  0.53387476878E+01 -0.63653498023E+02  0.10597194015E+03  0.80755159953E+02 0.  0.
        -13    1    3    3    0    0 -0.34870986446E+02 -0.30948539629E+02 -0.40986745071E+02  0.62078265701E+02  0.00000000000E+00 0.  1.
         14    1    3    3    0    0  0.98033538563E+01  0.36287287317E+02 -0.22666752952E+02  0.43893674454E+02  0.00000000000E+00 0. -1.
          1    1    1    2  501    0  0.25067632589E+02 -0.53387476878E+01 -0.51688913730E+02  0.57694299832E+02  0.00000000000E+00 0. -1.
<mgrwt>
<rscale>  1 0.84724756E+02</rscale>
<asrwt>0</asrwt>
<pdfrwt beam="1">  1       21 0.21462204E-01 0.84724756E+02</pdfrwt>
<pdfrwt beam="2">  1        2 0.37172176E-02 0.84724756E+02</pdfrwt>
<totfact> 0.52641089E+05</totfact>
</mgrwt>
</event>
<event>
 6    2  0.7993170E+000  0.8873828E+02  0.7546771E-02  0.1305936E+00
          2   -1    0    0  502    0 -0.00000000000E+00  0.00000000000E+00  0.52826920368E+03  0.52826920368E+03  0.00000000000E+00 0. -1.
         21   -1    0    0  501  502  0.00000000000E+00 -0.00000000000E+00 -0.71638617299E+01  0.71638617299E+01  0.00000000000E+00 0. -1.
         24    2    1    2    0    0 -0.26178367454E+02  0.10012873028E+02  0.45595098330E+03  0.46450595493E+03  0.84195715160E+02 0.  0.
        -11    1    3    3    0    0  0.13998585126E+02 -0.21524010541E+02  0.59843226137E+02  0.65118777090E+02  0.00000000000E+00 0.  1.
         12    1    3    3    0    0 -0.40176952580E+02  0.31536883569E+02  0.39610775716E+03  0.39938717784E+03  0.00000000000E+00 0. -1.
          1    1    1    2  501    0  0.26178367454E+02 -0.10012873028E+02  0.65154358652E+02  0.70927110474E+02  0.00000000000E+00 0. -1.
<mgrwt>
<rscale>  1 0.88738284E+02</rscale>
<asrwt>0</asrwt>
<pdfrwt beam="1">  1       21 0.11021330E-02 0.88738284E+02</pdfrwt>
<pdfrwt beam="2">  1        2 0.81272155E-01 0.88738284E+02</pdfrwt>
<totfact> 0.21851524E+06</totfact>
</mgrwt>
</event>
<event>
 6    2  0.7993170E+000  0.8666046E+02  0.7546771E-02  0.1311146E+00
         21   -1    0    0  501  502  0.00000000000E+00  0.00000000000E+00  0.14457511146E+01  0.14457511146E+01  0.00000000000E+00 0. -1.
          2   -1    0    0  502    0 -0.00000000000E+00 -0.00000000000E+00 -0.26588637851E+04  0.26588637851E+04  0.00000000000E+00 0. -1.
         24    2    1    2    0    0 -0.28296519372E+02  0.20092322580E+02 -0.21213080826E+04  0.21230774873E+04  0.79408067773E+02 0.  0.
        -13    1    3    3    0    0  0.13639854170E+02  0.34037662034E+02 -0.59441456746E+03  0.59554452904E+03  0.00000000000E+00 0.  1.
         14    1    3    3    0    0 -0.41936373542E+02 -0.13945339454E+02 -0.15268935152E+04  0.15275329582E+04  0.00000000000E+00 0. -1.
          1    1    1    2  501    0  0.28296519372E+02 -0.20092322580E+02 -0.53610995134E+03  0.53723204889E+03  0.00000000000E+00 0. -1.
<mgrwt>
<rscale>  1 0.86660462E+02</rscale>
<asrwt>0</asrwt>
<pdfrwt beam="1">  1       21 0.22242496E-03 0.86660462E+02</pdfrwt>
<pdfrwt beam="2">  1        2 0.40905282E+00 0.86660462E+02</pdfrwt>
<totfact> 0.16320725E+06</totfact>
</mgrwt>
</event>
<event>
 6    2  0.7993170E+000  0.9211240E+02  0.7546771E-02  0.1297815E+00
         -1   -1    0    0    0  501 -0.00000000000E+00  0.00000000000E+00  0.14415427951E+03  0.14415427951E+03  0.00000000000E+00 0.  1.
         21   -1    0    0  501  502  0.00000000000E+00 -0.00000000000E+00 -0.45120902551E+02  0.45120902551E+02  0.00000000000E+00 0.  1.
         24    2    1    2    0    0 -0.37234663219E+02  0.23786995063E+02  0.11027374582E+03  0.14368365684E+03  0.80823591534E+02 0.  0.
        -11    1    3    3    0    0 -0.52230257912E+02  0.15043703555E+02  0.11366945795E+03  0.12599626395E+03  0.00000000000E+00 0.  1.
         12    1    3    3    0    0  0.14995594694E+02  0.87432915083E+01 -0.33957121324E+01  0.17687392897E+02  0.00000000000E+00 0. -1.
         -2    1    1    2    0  502  0.37234663219E+02 -0.23786995063E+02 -0.11240368861E+02  0.45591525213E+02  0.00000000000E+00 0.  1.
<mgrwt>
<rscale>  1 0.92112400E+02</rscale>
<asrwt>0</asrwt>
<pdfrwt beam="1">  1       21 0.69416774E-02 0.92112400E+02</pdfrwt>
<pdfrwt beam="2">  1       -1 0.22177581E-01 0.92112400E+02</pdfrwt>
<totfact> 0.22504935E+05</totfact>
</mgrwt>
</event>
<event>
 6    2  0.7993170E+000  0.8435420E+02  0.7546771E-02  0.1317130E+00
          2   -1    0    0  502    0 -0.00000000000E+00  0.00000000000E+00  0.87815438969E+03  0.87815438969E+03  0.00000000000E+00 0. -1.
         21   -1    0    0  501  502  0.00000000000E+00 -0.00000000000E+00 -0.87753551390E+01  0.87753551390E+01  0.00000000000E+00 0.  1.
         24    2    1    2    0    0 -0.25409151315E+02 -0.12314882847E+02  0.84621163991E+03  0.85040565025E+03  0.79488044086E+02 0.  0.
        -11    1    3    3    0    0 -0.53122104767E+02 -0.17605535958E+02  0.58801930011E+03  0.59067640059E+03  0.00000000000E+00 0.  1.
         12    1    3    3    0    0  0.27712953452E+02  0.52906531108E+01  0.25819233980E+03  0.25972924966E+03  0.00000000000E+00 0. -1.
          1    1    1    2  501    0  0.25409151315E+02  0.12314882847E+02  0.23167394639E+02  0.36524094574E+02  0.00000000000E+00 0. -1.
<mgrwt>
<rscale>  1 0.84354196E+02</rscale>
<asrwt>0</asrwt>
<pdfrwt beam="1">  1       21 0.13500553E-02 0.84354196E+02</pdfrwt>
<pdfrwt beam="2">  1        2 0.13510061E+00 0.84354196E+02</pdfrwt>
<totfact> 0.87583117E+05</totfact>
</mgrwt>
</event>
<event>
 6    2  0.7993170E+000  0.8578759E+02  0.7546771E-02  0.1313386E+00
          4   -1    0    0  502    0 -0.00000000000E+00  0.00000000000E+00  0.66195220951E+02  0.66195220951E+02  0.00000000000E+00 0. -1.
         21   -1    0    0  501  502  0.00000000000E+00 -0.00000000000E+00 -0.49528983133E+02  0.49528983133E+02  0.00000000000E+00 0.  1.
         24    2    1    2    0    0  0.12624891018E+01  0.28420913695E+02  0.16003562709E+02  0.87267546651E+02  0.80933111055E+02 0.  0.
        -11    1    3    3    0    0  0.63451530296E+01  0.38506912684E+02 -0.23922495358E+02  0.45774764616E+02  0.00000000000E+00 0.  1.
         12    1    3    3    0    0 -0.50826639278E+01 -0.10085998990E+02  0.39926058068E+02  0.41492782035E+02  0.00000000000E+00 0. -1.
          3    1    1    2  501    0 -0.12624891018E+01 -0.28420913695E+02  0.66267510861E+00  0.28456657433E+02  0.00000000000E+00 0. -1.
<mgrwt>
<rscale>  1 0.85787590E+02</rscale>
<asrwt>0</asrwt>
<pdfrwt beam="1">  1       21 0.76198435E-02 0.85787590E+02</pdfrwt>
<pdfrwt beam="2">  1        4 0.10183880E-01 0.85787590E+02</pdfrwt>
<totfact> 0.35222118E+05</totfact>
</mgrwt>
</event>
<event>
 6    2  0.7993170E+000  0.8883091E+02  0.7546771E-02  0.1305708E+00
         -1   -1    0    0    0  501 -0.00000000000E+00  0.00000000000E+00  0.23570035399E+03  0.23570035399E+03  0.00000000000E+00 0.  1.
         21   -1    0    0  501  502  0.00000000000E+00 -0.00000000000E+00 -0.26278861926E+02  0.26278861926E+02  0.00000000000E+00 0. -1.
         24    2    1    2    0    0 -0.22055221457E+02 -0.22476981929E+02  0.21251855026E+03  0.23033685065E+03  0.83061922994E+02 0.  0.
        -11    1    3    3    0    0 -0.23290083253E+02  0.19722037425E+02  0.16033927542E+03  0.16321786048E+03  0.00000000000E+00 0.  1.
         12    1    3    3    0    0  0.12348617958E+01 -0.42199019354E+02  0.52179274843E+02  0.67118990169E+02  0.00000000000E+00 0. -1.
         -2    1    1    2    0  502  0.22055221457E+02  0.22476981929E+02 -0.30970581995E+01  0.31642365266E+02  0.00000000000E+00 0.  1.
<mgrwt>
<rscale>  1 0.88830910E+02</rscale>
<asrwt>0</asrwt>
<pdfrwt beam="1">  1       21 0.40429020E-02 0.88830910E+02</pdfrwt>
<pdfrwt beam="2">  1       -1 0.36261591E-01 0.88830910E+02</pdfrwt>
<totfact> 0.24559830E+05</totfact>
</mgrwt>
</event>
<event>
 6    2  0.7993170E+000  0.8407300E+02  0.7546771E-02  0.1317875E+00
         21   -1    0    0  501  502  0.00000000000E+00  0.00000000000E+00  0.39571326359E+02  0.39571326359E+02  0.00000000000E+00 0. -1.
          2   -1    0    0  502    0 -0.00000000000E+00 -0.00000000000E+00 -0.18153220891E+03  0.18153220891E+03  0.00000000000E+00 0. -1.
         24    2    1    2    0    0  0.22889879857E+02  0.89437766645E+01 -0.16640761962E+03  0.18643971128E+03  0.80401071720E+02 0.  0.
        -11    1    3    3    0    0 -0.20180117304E+02  0.26037599110E+02 -0.10133004168E+03  0.10655032167E+03  0.00000000000E+00 0.  1.
         12    1    3    3    0    0  0.43069997161E+02 -0.17093822446E+02 -0.65077577940E+02  0.79889389607E+02  0.00000000000E+00 0. -1.
          1    1    1    2  501    0 -0.22889879857E+02 -0.89437766645E+01  0.24446737063E+02  0.34663823995E+02  0.00000000000E+00 0. -1.
<mgrwt>
<rscale>  1 0.84073004E+02</rscale>
<asrwt>0</asrwt>
<pdfrwt beam="1">  1       21 0.60878964E-02 0.84073004E+02</pdfrwt>
<pdfrwt beam="2">  1        2 0.27928032E-01 0.84073004E+02</pdfrwt>
<totfact> 0.42332703E+05</totfact>
</mgrwt>
</event>
<event>
 6    2  0.7993170E+000  0.8815567E+02  0.7546771E-02  0.1307380E+00
          2   -1    0    0  502    0 -0.00000000000E+00  0.00000000000E+00  0.79809522352E+02  0.79809522352E+02  0.00000000000E+00 0. -1.
         21   -1    0    0  501  502  0.00000000000E+00 -0.00000000000E+00 -0.52382953419E+02  0.52382953419E+02  0.00000000000E+00 0.  1.
         24    2    1    2    0    0  0.30977346983E+02 -0.16959537800E+02  0.11325049853E+01  0.88162943098E+02  0.80772520202E+02 0.  0.
        -13    1    3    3    0    0  0.43795327129E+02  0.19295316557E+02  0.95434648366E+01  0.48799770906E+02  0.00000000000E+00 0.  1.
         14    1    3    3    0    0 -0.12817980145E+02 -0.36254854357E+02 -0.84109598513E+01  0.39363172193E+02  0.00000000000E+00 0. -1.
          1    1    1    2  501    0 -0.30977346983E+02  0.16959537800E+02  0.26294063948E+02  0.44029532673E+02  0.00000000000E+00 0. -1.
<mgrwt>
<rscale>  1 0.88155669E+02</rscale>
<asrwt>0</asrwt>
<pdfrwt beam="1">  1       21 0.80589159E-02 0.88155669E+02</pdfrwt>
<pdfrwt beam="2">  1        2 0.12278388E-01 0.88155669E+02</pdfrwt>
<totfact> 0.66750963E+05</totfact>
</mgrwt>
</event>
<event>
 6    2  0.7993170E+000  0.9342984E+02  0.7546771E-02  0.1294752E+00
          2   -1    0    0  502    0 -0.00000000000E+00  0.00000000000E+00  0.22066122458E+03  0.22066122458E+03  0.00000000000E+00 0. -1.
         21   -1    0    0  501  502  0.00000000000E+00 -0.00000000000E+00 -0.31843711727E+02  0.31843711727E+02  0.00000000000E+00 0. -1.
         24    2    1    2    0    0  0.61772526093E+01  0.46160629309E+02  0.18313065572E+03  0.20558689615E+03  0.80994892783E+02 0.  0.
        -11    1    3    3    0    0  0.30097536819E+02  0.58912219104E+02  0.13535923265E+03  0.15066065560E+03  0.00000000000E+00 0.  1.
         12    1    3    3    0    0 -0.23920284209E+02 -0.12751589795E+02  0.47771423061E+02  0.54926240544E+02  0.00000000000E+00 0. -1.
          1    1    1    2  501    0 -0.61772526093E+01 -0.46160629309E+02  0.56868571339E+01  0.46918040156E+02  0.00000000000E+00 0. -1.
<mgrwt>
<rscale>  1 0.93429839E+02</rscale>
<asrwt>0</asrwt>
<pdfrwt beam="1">  1       21 0.48990327E-02 0.93429839E+02</pdfrwt>
<pdfrwt beam="2">  1        2 0.33947880E-01 0.93429839E+02</pdfrwt>
<totfact> 0.49883218E+05</totfact>
</mgrwt>
</event>
<event>
 6    2  0.7993170E+000  0.9019546E+02  0.7546771E-02  0.1302379E+00
          2   -1    0    0  502    0 -0.00000000000E+00  0.00000000000E+00  0.15741319005E+04  0.15741319005E+04  0.00000000000E+00 0. -1.
         21   -1    0    0  501  502  0.00000000000E+00 -0.00000000000E+00 -0.33329875984E+01  0.33329875984E+01  0.00000000000E+00 0.  1.
         24    2    1    2    0    0  0.32288545491E+01  0.41014577073E+02  0.71334728850E+03  0.71902682439E+03  0.80265803104E+02 0.  0.
        -11    1    3    3    0    0 -0.37939657213E+02  0.27280598577E+02  0.35599109561E+03  0.35904499551E+03  0.00000000000E+00 0.  1.
         12    1    3    3    0    0  0.41168511762E+02  0.13733978496E+02  0.35735619289E+03  0.35998182888E+03  0.00000000000E+00 0. -1.
          1    1    1    2  501    0 -0.32288545491E+01 -0.41014577073E+02  0.85745162438E+03  0.85843806369E+03  0.00000000000E+00 0. -1.
<mgrwt>
<rscale>  1 0.90195455E+02</rscale>
<asrwt>0</asrwt>
<pdfrwt beam="1">  1       21 0.51276858E-03 0.90195455E+02</pdfrwt>
<pdfrwt beam="2">  1        2 0.24217354E+00 0.90195455E+02</pdfrwt>
<totfact> 0.16487135E+06</totfact>
</mgrwt>
</event>
<event>
 6    2  0.7993170E+000  0.8362996E+02  0.7546771E-02  0.1319055E+00
          4   -1    0    0  502    0 -0.00000000000E+00  0.00000000000E+00  0.28226925848E+01  0.28226925848E+01  0.00000000000E+00 0. -1.
         21   -1    0    0  501  502  0.00000000000E+00 -0.00000000000E+00 -0.15100693070E+04  0.15100693070E+04  0.00000000000E+00 0. -1.
         24    2    1    2    0    0 -0.12056025341E+02 -0.18283396444E+02 -0.64900969462E+03  0.65437569756E+03  0.80711458428E+02 0.  0.
        -11    1    3    3    0    0 -0.30874902669E+02  0.22623292519E+02 -0.26964925337E+03  0.27235233214E+03  0.00000000000E+00 0.  1.
         12    1    3    3    0    0  0.18818877328E+02 -0.40906688963E+02 -0.37936044125E+03  0.38202336543E+03  0.00000000000E+00 0. -1.
          3    1    1    2  501    0  0.12056025341E+02  0.18283396444E+02 -0.85823691977E+03  0.85851630199E+03  0.00000000000E+00 0. -1.
<mgrwt>
<rscale>  1 0.83629958E+02</rscale>
<asrwt>0</asrwt>
<pdfrwt beam="1">  1       21 0.23231867E+00 0.83629958E+02</pdfrwt>
<pdfrwt beam="2">  1        4 0.43425980E-03 0.83629958E+02</pdfrwt>
<totfact> 0.35665722E+04</totfact>
</mgrwt>
</event>
<event>
 6    2  0.7993170E+000  0.8026494E+02  0.7546771E-02  0.1328301E+00
         21   -1    0    0  501  502  0.00000000000E+00  0.00000000000E+00  0.16229016215E+01  0.16229016215E+01  0.00000000000E+00 0.  1.
          2   -1    0    0  502    0 -0.00000000000E+00 -0.00000000000E+00 -0.20112527773E+04  0.20112527773E+04  0.00000000000E+00 0. -1.
         24    2    1    2    0    0  0.19927214168E+02 -0.51506283996E+01 -0.18715387387E+04  0.18732591149E+04  0.77581172071E+02 0.  0.
        -11    1    3    3    0    0 -0.79032873238E+01 -0.10559401299E+02 -0.57281964165E+02  0.58780832972E+02  0.00000000000E+00 0.  1.
         12    1    3    3    0    0  0.27830501492E+02  0.54087728991E+01 -0.18142567746E+04  0.18144782819E+04  0.00000000000E+00 0. -1.
          1    1    1    2  501    0 -0.19927214168E+02  0.51506283996E+01 -0.13809113696E+03  0.13961656401E+03  0.00000000000E+00 0. -1.
<mgrwt>
<rscale>  1 0.80264943E+02</rscale>
<asrwt>0</asrwt>
<pdfrwt beam="1">  1       21 0.24967778E-03 0.80264943E+02</pdfrwt>
<pdfrwt beam="2">  1        2 0.30942275E+00 0.80264943E+02</pdfrwt>
<totfact> 0.29417795E+06</totfact>
</mgrwt>
</event>
<event>
 6    2  0.7993170E+000  0.9187625E+02  0.7546771E-02  0.1298371E+00
         21   -1    0    0  501  502  0.00000000000E+00  0.00000000000E+00  0.43833303545E+02  0.43833303545E+02  0.00000000000E+00 0. -1.
         -1   -1    0    0    0  501 -0.00000000000E+00 -0.00000000000E+00 -0.16458477299E+03  0.16458477299E+03  0.00000000000E+00 0.  1.
         24    2    1    2    0    0 -0.30318751184E+01 -0.45273641680E+02 -0.14670505559E+02  0.93040150584E+02  0.79889617534E+02 0.  0.
        -11    1    3    3    0    0 -0.19809458648E+01 -0.38851390208E+02 -0.46457311053E+02  0.60594029556E+02  0.00000000000E+00 0.  1.
         12    1    3    3    0    0 -0.10509292536E+01 -0.64222514718E+01  0.31786805494E+02  0.32446121028E+02  0.00000000000E+00 0. -1.
         -2    1    1    2    0  502  0.30318751184E+01  0.45273641680E+02 -0.10608096389E+03  0.11537792595E+03  0.00000000000E+00 0.  1.
<mgrwt>
<rscale>  1 0.91876253E+02</rscale>
<asrwt>0</asrwt>
<pdfrwt beam="1">  1       21 0.67435851E-02 0.91876253E+02</pdfrwt>
<pdfrwt beam="2">  1       -1 0.25320735E-01 0.91876253E+02</pdfrwt>
<totfact> 0.19073876E+05</totfact>
</mgrwt>
</event>
<event>
 6    2  0.7993170E+000  0.1044159E+03  0.7546771E-02  0.1271275E+00
         21   -1    0    0  501  502  0.00000000000E+00  0.00000000000E+00  0.27485803602E+02  0.27485803602E+02  0.00000000000E+00 0.  1.
          2   -1    0    0  502    0 -0.00000000000E+00 -0.00000000000E+00 -0.27261093611E+03  0.27261093611E+03  0.00000000000E+00 0. -1.
         24    2    1    2    0    0  0.48919088056E+02  0.47243125186E+02 -0.16141431580E+03  0.19224271389E+03  0.79231872644E+02 0.  0.
        -11    1    3    3    0    0  0.13525290844E+02  0.57371788390E+02 -0.58943610810E+02  0.83359491666E+02  0.00000000000E+00 0.  1.
         12    1    3    3    0    0  0.35393797212E+02 -0.10128663204E+02 -0.10247070499E+03  0.10888322222E+03  0.00000000000E+00 0. -1.
          1    1    1    2  501    0 -0.48919088056E+02 -0.47243125186E+02 -0.83710816708E+02  0.10785402583E+03  0.00000000000E+00 0. -1.
<mgrwt>
<rscale>  1 0.10441590E+03</rscale>
<asrwt>0</asrwt>
<pdfrwt beam="1">  1       21 0.42285852E-02 0.10441590E+03</pdfrwt>
<pdfrwt beam="2">  1        2 0.41940144E-01 0.10441590E+03</pdfrwt>
<totfact> 0.51425881E+05</totfact>
</mgrwt>
</event>
<event>
 6    2  0.7993170E+000  0.8806028E+02  0.7546771E-02  0.1307618E+00
         21   -1    0    0  501  502  0.00000000000E+00  0.00000000000E+00  0.65556727384E+03  0.65556727384E+03  0.00000000000E+00 0. -1.
         -1   -1    0    0    0  501 -0.00000000000E+00 -0.00000000000E+00 -0.95828391560E+01  0.95828391560E+01  0.00000000000E+00 0.  1.
         24    2    1    2    0    0 -0.21978142413E+02  0.26760522599E+02  0.20897974906E+03  0.22677554761E+03  0.80965728343E+02 0.  0.
        -13    1    3    3    0    0  0.25721772967E+02  0.82047060426E+01  0.28837711715E+02  0.39503676066E+02  0.00000000000E+00 0.  1.
         14    1    3    3    0    0 -0.47699915379E+02  0.18555816556E+02  0.18014203734E+03  0.18727187155E+03  0.00000000000E+00 0. -1.
         -2    1    1    2    0  502  0.21978142413E+02 -0.26760522599E+02  0.43700468563E+03  0.43837456538E+03  0.00000000000E+00 0.  1.
<mgrwt>
<rscale>  1 0.88060283E+02</rscale>
<asrwt>0</asrwt>
<pdfrwt beam="1">  1       21 0.10085647E+00 0.88060283E+02</pdfrwt>
<pdfrwt beam="2">  1       -1 0.14742835E-02 0.88060283E+02</pdfrwt>
<totfact> 0.73005742E+04</totfact>
</mgrwt>
</event>
<event>
 6    2  0.7993170E+000  0.1196046E+03  0.7546771E-02  0.1243751E+00
          2   -1    0    0  502    0 -0.00000000000E+00  0.00000000000E+00  0.10552649881E+03  0.10552649881E+03  0.00000000000E+00 0. -1.
         21   -1    0    0  501  502  0.00000000000E+00 -0.00000000000E+00 -0.16204577571E+03  0.16204577571E+03  0.00000000000E+00 0. -1.
         24    2    1    2    0    0 -0.46647203483E+02  0.75725220583E+02  0.49277265781E+02  0.12935802391E+03  0.79968611362E+02 0.  0.
        -13    1    3    3    0    0  0.60255222277E+01  0.11818432170E+02 -0.18207630412E+02  0.22527762035E+02  0.00000000000E+00 0.  1.
         14    1    3    3    0    0 -0.52672725710E+02  0.63906788413E+02  0.67484896193E+02  0.10683026188E+03  0.00000000000E+00 0. -1.
          1    1    1    2  501    0  0.46647203483E+02 -0.75725220583E+02 -0.10579654269E+03  0.13821425060E+03  0.00000000000E+00 0. -1.
<mgrwt>
<rscale>  1 0.11960455E+03</rscale>
<asrwt>0</asrwt>
<pdfrwt beam="1">  1       21 0.24930119E-01 0.11960455E+03</pdfrwt>
<pdfrwt beam="2">  1        2 0.16234846E-01 0.11960455E+03</pdfrwt>
<totfact> 0.65208652E+04</totfact>
</mgrwt>
</event>
<event>
 6    2  0.7993170E+000  0.8653931E+02  0.7546771E-02  0.1311455E+00
         21   -1    0    0  501  502  0.00000000000E+00  0.00000000000E+00  0.17021425983E+01  0.17021425983E+01  0.00000000000E+00 0. -1.
          2   -1    0    0  502    0 -0.00000000000E+00 -0.00000000000E+00 -0.19715119821E+04  0.19715119821E+04  0.00000000000E+00 0. -1.
         24    2    1    2    0    0  0.27350427593E+02  0.10305308654E+02 -0.14376241342E+04  0.14402264418E+04  0.81454324181E+02 0.  0.
        -11    1    3    3    0    0  0.54662343940E+01 -0.10507548855E+02 -0.29646781638E+02  0.31925224555E+02  0.00000000000E+00 0.  1.
         12    1    3    3    0    0  0.21884193199E+02  0.20812857509E+02 -0.14079773526E+04  0.14083012172E+04  0.00000000000E+00 0. -1.
          1    1    1    2  501    0 -0.27350427593E+02 -0.10305308654E+02 -0.53218570524E+03  0.53298768291E+03  0.00000000000E+00 0. -1.
<mgrwt>
<rscale>  1 0.86539310E+02</rscale>
<asrwt>0</asrwt>
<pdfrwt beam="1">  1       21 0.26186952E-03 0.86539310E+02</pdfrwt>
<pdfrwt beam="2">  1        2 0.30330788E+00 0.86539310E+02</pdfrwt>
<totfact> 0.28829950E+06</totfact>
</mgrwt>
</event>
<event>
 6    2  0.7993170E+000  0.8442253E+02  0.7546771E-02  0.1316950E+00
         21   -1    0    0  501  502  0.00000000000E+00  0.00000000000E+00  0.13484807673E+01  0.13484807673E+01  0.00000000000E+00 0.  1.
          2   -1    0    0  502    0 -0.00000000000E+00 -0.00000000000E+00 -0.28947467726E+04  0.28947467726E+04  0.00000000000E+00 0. -1.
         24    2    1    2    0    0 -0.22236830173E+02  0.38177776709E+01 -0.27099550242E+04  0.27112697019E+04  0.81351773843E+02 0.  0.
        -11    1    3    3    0    0  0.13036016009E+02 -0.58486311248E+01 -0.95870243730E+02  0.96929086616E+02  0.00000000000E+00 0.  1.
         12    1    3    3    0    0 -0.35272846181E+02  0.96664087958E+01 -0.26140847805E+04  0.26143406153E+04  0.00000000000E+00 0. -1.
          1    1    1    2  501    0  0.22236830173E+02 -0.38177776709E+01 -0.18344326760E+03  0.18482555145E+03  0.00000000000E+00 0. -1.
<mgrwt>
<rscale>  1 0.84422528E+02</rscale>
<asrwt>0</asrwt>
<pdfrwt beam="1">  1       21 0.20745710E-03 0.84422528E+02</pdfrwt>
<pdfrwt beam="2">  1        2 0.44534884E+00 0.84422528E+02</pdfrwt>
<totfact> 0.13456485E+06</totfact>
</mgrwt>
</event>
<event>
 6    2  0.7993170E+000  0.9989689E+02  0.7546771E-02  0.1280513E+00
          2   -1    0    0  502    0 -0.00000000000E+00  0.00000000000E+00  0.21331382900E+04  0.21331382900E+04  0.00000000000E+00 0. -1.
         21   -1    0    0  501  502  0.00000000000E+00 -0.00000000000E+00 -0.30504171889E+01  0.30504171889E+01  0.00000000000E+00 0. -1.
         24    2    1    2    0    0  0.60139117753E+02 -0.45215188232E+01  0.14466709798E+04  0.14501159652E+04  0.79638126423E+02 0.  0.
        -13    1    3    3    0    0  0.54067475578E+02  0.10885163969E+02  0.45834988735E+03  0.46165614687E+03  0.00000000000E+00 0.  1.
         14    1    3    3    0    0  0.60716421749E+01 -0.15406682792E+02  0.98832109244E+03  0.98845981834E+03  0.00000000000E+00 0. -1.
          1    1    1    2  501    0 -0.60139117753E+02  0.45215188232E+01  0.68341689299E+03  0.68607274195E+03  0.00000000000E+00 0. -1.
<mgrwt>
<rscale>  1 0.99896891E+02</rscale>
<asrwt>0</asrwt>
<pdfrwt beam="1">  1       21 0.46929666E-03 0.99896891E+02</pdfrwt>
<pdfrwt beam="2">  1        2 0.32817393E+00 0.99896891E+02</pdfrwt>
<totfact> 0.99284033E+05</totfact>
</mgrwt>
</event>
<event>
 6    2  0.7993170E+000  0.8408390E+02  0.7546771E-02  0.1317846E+00
         21   -1    0    0  501  502  0.00000000000E+00  0.00000000000E+00  0.14626642090E+02  0.14626642090E+02  0.00000000000E+00 0. -1.
          2   -1    0    0  502    0 -0.00000000000E+00 -0.00000000000E+00 -0.27947743319E+03  0.27947743319E+03  0.00000000000E+00 0. -1.
         24    2    1    2    0    0 -0.17037356785E+02 -0.16803912660E+02 -0.25450170725E+03  0.26803212592E+03  0.80606814390E+02 0.  0.
        -13    1    3    3    0    0 -0.15292102471E+02 -0.24838521587E+02 -0.25094748494E+02  0.38477876171E+02  0.00000000000E+00 0.  1.
         14    1    3    3    0    0 -0.17452543141E+01  0.80346089276E+01 -0.22940695875E+03  0.22955424975E+03  0.00000000000E+00 0. -1.
          1    1    1    2  501    0  0.17037356785E+02  0.16803912660E+02 -0.10349083852E+02  0.26071949361E+02  0.00000000000E+00 0. -1.
<mgrwt>
<rscale>  1 0.84083896E+02</rscale>
<asrwt>0</asrwt>
<pdfrwt beam="1">  1       21 0.22502527E-02 0.84083896E+02</pdfrwt>
<pdfrwt beam="2">  1        2 0.42996526E-01 0.84083896E+02</pdfrwt>
<totfact> 0.13711763E+06</totfact>
</mgrwt>
</event>
<event>
 6    2  0.7993170E+000  0.8564890E+02  0.7546771E-02  0.1313744E+00
          2   -1    0    0  502    0 -0.00000000000E+00  0.00000000000E+00  0.95372335928E+03  0.95372335928E+03  0.00000000000E+00 0. -1.
         21   -1    0    0  501  502  0.00000000000E+00 -0.00000000000E+00 -0.34277643437E+01  0.34277643437E+01  0.00000000000E+00 0.  1.
         24    2    1    2    0    0 -0.20986986734E+02 -0.19127060472E+02  0.74280921820E+03  0.74773074595E+03  0.80804923979E+02 0.  0.
        -11    1    3    3    0    0 -0.23717516112E+02  0.22814278425E+02  0.15680323404E+03  0.16021943102E+03  0.00000000000E+00 0.  1.
         12    1    3    3    0    0  0.27305293778E+01 -0.41941338897E+02  0.58600598416E+03  0.58751131493E+03  0.00000000000E+00 0. -1.
          1    1    1    2  501    0  0.20986986734E+02  0.19127060472E+02  0.20748637674E+03  0.20942037768E+03  0.00000000000E+00 0. -1.
<mgrwt>
<rscale>  1 0.85648898E+02</rscale>
<asrwt>0</asrwt>
<pdfrwt beam="1">  1       21 0.52734912E-03 0.85648898E+02</pdfrwt>
<pdfrwt beam="2">  1        2 0.14672646E+00 0.85648898E+02</pdfrwt>
<totfact> 0.33955225E+06</totfact>
</mgrwt>
</event>
<event>
 6    2  0.7993170E+000  0.9130560E+02  0.7546771E-02  0.1299720E+00
          2   -1    0    0  502    0 -0.00000000000E+00  0.00000000000E+00  0.12388779789E+04  0.12388779789E+04  0.00000000000E+00 0. -1.
         21   -1    0    0  501  502  0.00000000000E+00 -0.00000000000E+00 -0.69476297176E+01  0.69476297176E+01  0.00000000000E+00 0. -1.
         24    2    1    2    0    0  0.28892596005E+02  0.47002392218E+01  0.11960016545E+04  0.11994818339E+04  0.86486056392E+02 0.  0.
        -11    1    3    3    0    0  0.39431131470E+02 -0.13371516233E+02  0.26549443504E+03  0.26873947721E+03  0.00000000000E+00 0.  1.
         12    1    3    3    0    0 -0.10538535465E+02  0.18071755455E+02  0.93050721946E+03  0.93074235669E+03  0.00000000000E+00 0. -1.
          1    1    1    2  501    0 -0.28892596005E+02 -0.47002392218E+01  0.35928694666E+02  0.46343774695E+02  0.00000000000E+00 0. -1.
<mgrwt>
<rscale>  1 0.91305598E+02</rscale>
<asrwt>0</asrwt>
<pdfrwt beam="1">  1       21 0.10688671E-02 0.91305598E+02</pdfrwt>
<pdfrwt beam="2">  1        2 0.19059644E+00 0.91305598E+02</pdfrwt>
<totfact> 0.78945013E+05</totfact>
</mgrwt>
</event>
<event>
 6    2  0.7993170E+000  0.1129824E+03  0.7546771E-02  0.1255145E+00
          2   -1    0    0  502    0 -0.00000000000E+00  0.00000000000E+00  0.11937185591E+02  0.11937185591E+02  0.00000000000E+00 0. -1.
         21   -1    0    0  501  502  0.00000000000E+00 -0.00000000000E+00 -0.82147538793E+03  0.82147538793E+03  0.00000000000E+00 0. -1.
         24    2    1    2    0    0 -0.78963514731E+02  0.60527713849E+00 -0.37102158401E+03  0.38784279495E+03  0.80804794285E+02 0.  0.
        -13    1    3    3    0    0 -0.76880076756E+01 -0.31397253098E+02 -0.14926646000E+03  0.15272645169E+03  0.00000000000E+00 0.  1.
         14    1    3    3    0    0 -0.71275507055E+02  0.32002530236E+02 -0.22175512400E+03  0.23511634326E+03  0.00000000000E+00 0. -1.
          1    1    1    2  501    0  0.78963514731E+02 -0.60527713849E+00 -0.43851661833E+03  0.44556977856E+03  0.00000000000E+00 0. -1.
<mgrwt>
<rscale>  1 0.11298238E+03</rscale>
<asrwt>0</asrwt>
<pdfrwt beam="1">  1       21 0.12638088E+00 0.11298238E+03</pdfrwt>
<pdfrwt beam="2">  1        2 0.18364894E-02 0.11298238E+03</pdfrwt>
<totfact> 0.33919362E+04</totfact>
</mgrwt>
</event>
<event>
 6    2  0.7993170E+000  0.7768696E+02  0.7546771E-02  0.1335747E+00
         -3   -1    0    0    0  501 -0.00000000000E+00  0.00000000000E+00  0.19435385509E+03  0.19435385509E+03  0.00000000000E+00 0.  1.
         21   -1    0    0  501  502  0.00000000000E+00 -0.00000000000E+00 -0.36354200731E+02  0.36354200731E+02  0.00000000000E+00 0.  1.
         24    2    1    2    0    0  0.24426798435E+02 -0.86972748153E+00  0.18111082621E+03  0.19706951882E+03  0.73741704424E+02 0.  0.
        -11    1    3    3    0    0  0.34595820169E+02 -0.27816586860E+02  0.14003005666E+03  0.14689809409E+03  0.00000000000E+00 0.  1.
         12    1    3    3    0    0 -0.10169021734E+02  0.26946859379E+02  0.41080769543E+02  0.50171424732E+02  0.00000000000E+00 0. -1.
         -4    1    1    2    0  502 -0.24426798435E+02  0.86972748153E+00 -0.23111171845E+02  0.33638537004E+02  0.00000000000E+00 0.  1.
<mgrwt>
<rscale>  1 0.77686961E+02</rscale>
<asrwt>0</asrwt>
<pdfrwt beam="1">  1       21 0.55929541E-02 0.77686961E+02</pdfrwt>
<pdfrwt beam="2">  1       -3 0.29900592E-01 0.77686961E+02</pdfrwt>
<totfact> 0.10605213E+05</totfact>
</mgrwt>
</event>
<event>
 6    2  0.7993170E+000  0.9280429E+02  0.7546771E-02  0.1296199E+00
         21   -1    0    0  501  502  0.00000000000E+00  0.00000000000E+00  0.28197186326E+01  0.28197186326E+01  0.00000000000E+00 0. -1.
          2   -1    0    0  502    0 -0.00000000000E+00 -0.00000000000E+00 -0.13312788394E+04  0.13312788394E+04  0.00000000000E+00 0. -1.
         24    2    1    2    0    0  0.29647300409E+02  0.10751342905E+01 -0.98753478984E+03  0.99188587891E+03  0.87934733169E+02 0.  0.
        -11    1    3    3    0    0 -0.11407938529E+02 -0.35545692911E+02 -0.44846358343E+03  0.45001469199E+03  0.00000000000E+00 0.  1.
         12    1    3    3    0    0  0.41055238938E+02  0.36620827201E+02 -0.53907120641E+03  0.54187118692E+03  0.00000000000E+00 0. -1.
          1    1    1    2  501    0 -0.29647300409E+02 -0.10751342905E+01 -0.34092433088E+03  0.34221267908E+03  0.00000000000E+00 0. -1.
<mgrwt>
<rscale>  1 0.92804287E+02</rscale>
<asrwt>0</asrwt>
<pdfrwt beam="1">  1       21 0.43380196E-03 0.92804287E+02</pdfrwt>
<pdfrwt beam="2">  1        2 0.20481256E+00 0.92804287E+02</pdfrwt>
<totfact> 0.28470053E+06</totfact>
</mgrwt>
</event>
<event>
 6    2  0.7993170E+000  0.9498091E+02  0.7546771E-02  0.1291219E+00
         21   -1    0    0  501  502  0.00000000000E+00  0.00000000000E+00  0.49750766866E+02  0.49750766866E+02  0.00000000000E+00 0.  1.
         -1   -1    0    0    0  501 -0.00000000000E+00 -0.00000000000E+00 -0.10995101307E+03  0.10995101307E+03  0.00000000000E+00 0.  1.
         24    2    1    2    0    0  0.48371469519E+02  0.20992497774E+02 -0.42758553245E+02  0.10416173420E+03  0.78999297280E+02 0.  0.
        -13    1    3    3    0    0  0.57257460817E+02  0.41599374686E+02 -0.40661579837E+02  0.81622845260E+02  0.00000000000E+00 0.  1.
         14    1    3    3    0    0 -0.88859912979E+01 -0.20606876912E+02 -0.20969734081E+01  0.22538888945E+02  0.00000000000E+00 0. -1.
         -2    1    1    2    0  502 -0.48371469519E+02 -0.20992497774E+02 -0.17441692956E+02  0.55540045727E+02  0.00000000000E+00 0.  1.
<mgrwt>
<rscale>  1 0.94980909E+02</rscale>
<asrwt>0</asrwt>
<pdfrwt beam="1">  1       21 0.76539643E-02 0.94980909E+02</pdfrwt>
<pdfrwt beam="2">  1       -1 0.16915540E-01 0.94980909E+02</pdfrwt>
<totfact> 0.29360457E+05</totfact>
</mgrwt>
</event>
<event>
 6    2  0.7993170E+000  0.8037693E+02  0.7546771E-02  0.1327985E+00
         21   -1    0    0  501  502  0.00000000000E+00  0.00000000000E+00  0.77146554229E+01  0.77146554229E+01  0.00000000000E+00 0. -1.
         -1   -1    0    0    0  501 -0.00000000000E+00 -0.00000000000E+00 -0.37549284925E+03  0.37549284925E+03  0.00000000000E+00 0.  1.
         24    2    1    2    0    0  0.34776835307E+00 -0.22250840274E+02 -0.32720085300E+03  0.33692855239E+03  0.77234903874E+02 0.  0.
        -11    1    3    3    0    0  0.26610680012E+02  0.18100806018E+02 -0.12542357814E+03  0.12948683881E+03  0.00000000000E+00 0.  1.
         12    1    3    3    0    0 -0.26262911659E+02 -0.40351646292E+02 -0.20177727486E+03  0.20744171359E+03  0.00000000000E+00 0. -1.
         -2    1    1    2    0  502 -0.34776835307E+00  0.22250840274E+02 -0.40577340826E+02  0.46278952281E+02  0.00000000000E+00 0.  1.
<mgrwt>
<rscale>  1 0.80376932E+02</rscale>
<asrwt>0</asrwt>
<pdfrwt beam="1">  1       21 0.11868700E-02 0.80376932E+02</pdfrwt>
<pdfrwt beam="2">  1       -1 0.57768133E-01 0.80376932E+02</pdfrwt>
<totfact> 0.75918090E+05</totfact>
</mgrwt>
</event>
<event>
 6    2  0.7993170E+000  0.8391429E+02  0.7546771E-02  0.1318296E+00
         21   -1    0    0  501  502  0.00000000000E+00  0.00000000000E+00  0.13201071100E+02  0.13201071100E+02  0.00000000000E+00 0.  1.
         -1   -1    0    0    0  501 -0.00000000000E+00 -0.00000000000E+00 -0.29336696596E+03  0.29336696596E+03  0.00000000000E+00 0.  1.
         24    2    1    2    0    0  0.52121682958E+01 -0.26992464944E+02 -0.25784589718E+03  0.27115699135E+03  0.79283336204E+02 0.  0.
        -11    1    3    3    0    0 -0.83819853648E+01 -0.10733155013E+02 -0.24695259420E+03  0.24732780288E+03  0.00000000000E+00 0.  1.
         12    1    3    3    0    0  0.13594153661E+02 -0.16259309931E+02 -0.10893302987E+02  0.23829188471E+02  0.00000000000E+00 0. -1.
         -2    1    1    2    0  502 -0.52121682958E+01  0.26992464944E+02 -0.22319997675E+02  0.35411045710E+02  0.00000000000E+00 0.  1.
<mgrwt>
<rscale>  1 0.83914285E+02</rscale>
<asrwt>0</asrwt>
<pdfrwt beam="1">  1       21 0.20309341E-02 0.83914285E+02</pdfrwt>
<pdfrwt beam="2">  1       -1 0.45133377E-01 0.83914285E+02</pdfrwt>
<totfact> 0.50988028E+05</totfact>
</mgrwt>
</event>
<event>
 6    2  0.7993170E+000  0.8934007E+02  0.7546771E-02  0.1304458E+00
         21   -1    0    0  501  502  0.00000000000E+00  0.00000000000E+00  0.10846505979E+02  0.10846505979E+02  0.00000000000E+00 0.  1.
          4   -1    0    0  502    0 -0.00000000000E+00 -0.00000000000E+00 -0.41070369968E+03  0.41070369968E+03  0.00000000000E+00 0. -1.
         24    2    1    2    0    0  0.43291410147E+02 -0.84765016538E+01 -0.27209531512E+03  0.28638698991E+03  0.77689447209E+02 0.  0.
        -13    1    3    3    0    0  0.34529693051E+02 -0.96694669316E+01 -0.38454705365E+02  0.52579108566E+02  0.00000000000E+00 0.  1.
         14    1    3    3    0    0  0.87617170960E+01  0.11929652778E+01 -0.23364060975E+03  0.23380788134E+03  0.00000000000E+00 0. -1.
          3    1    1    2  501    0 -0.43291410147E+02  0.84765016538E+01 -0.12776187858E+03  0.13516321575E+03  0.00000000000E+00 0. -1.
<mgrwt>
<rscale>  1 0.89340066E+02</rscale>
<asrwt>0</asrwt>
<pdfrwt beam="1">  1       21 0.16686933E-02 0.89340066E+02</pdfrwt>
<pdfrwt beam="2">  1        4 0.63185180E-01 0.89340066E+02</pdfrwt>
<totfact> 0.14637892E+05</totfact>
</mgrwt>
</event>
<event>
 6    2  0.7993170E+000  0.8546488E+02  0.7546771E-02  0.1314221E+00
         21   -1    0    0  501  502  0.00000000000E+00  0.00000000000E+00  0.68881311778E+01  0.68881311778E+01  0.00000000000E+00 0.  1.
          2   -1    0    0  502    0 -0.00000000000E+00 -0.00000000000E+00 -0.48826061673E+03  0.48826061673E+03  0.00000000000E+00 0. -1.
         24    2    1    2    0    0 -0.89499732160E+01  0.27729019522E+02 -0.38950837644E+03  0.39877439921E+03  0.80344543082E+02 0.  0.
        -13    1    3    3    0    0 -0.20885269213E+02  0.25588993385E+02 -0.55780767082E+02  0.64826576563E+02  0.00000000000E+00 0.  1.
         14    1    3    3    0    0  0.11935295997E+02  0.21400261367E+01 -0.33372760936E+03  0.33394782264E+03  0.00000000000E+00 0. -1.
          1    1    1    2  501    0  0.89499732160E+01 -0.27729019522E+02 -0.91864109112E+02  0.96374348699E+02  0.00000000000E+00 0. -1.
<mgrwt>
<rscale>  1 0.85464883E+02</rscale>
<asrwt>0</asrwt>
<pdfrwt beam="1">  1       21 0.10597122E-02 0.85464883E+02</pdfrwt>
<pdfrwt beam="2">  1        2 0.75117035E-01 0.85464883E+02</pdfrwt>
<totfact> 0.25189176E+06</totfact>
</mgrwt>
</event>
<event>
 6    2  0.7993170E+000  0.9709432E+02  0.7546771E-02  0.1286528E+00
         21   -1    0    0  501  502  0.00000000000E+00  0.00000000000E+00  0.24972724711E+01  0.24972724711E+01  0.00000000000E+00 0.  1.
          2   -1    0    0  502    0 -0.00000000000E+00 -0.00000000000E+00 -0.25159722013E+04  0.25159722013E+04  0.00000000000E+00 0. -1.
         24    2    1    2    0    0  0.55001214366E+02  0.13275937359E+02 -0.12690383588E+04  0.12727472893E+04  0.78904513069E+02 0.  0.
        -13    1    3    3    0    0  0.26070399449E+02 -0.91379967170E+01 -0.12050504428E+03  0.12363104145E+03  0.00000000000E+00 0.  1.
         14    1    3    3    0    0  0.28930814917E+02  0.22413934076E+02 -0.11485333145E+04  0.11491162478E+04  0.00000000000E+00 0. -1.
          1    1    1    2  501    0 -0.55001214366E+02 -0.13275937359E+02 -0.12444365700E+04  0.12457221845E+04  0.00000000000E+00 0. -1.
<mgrwt>
<rscale>  1 0.97094316E+02</rscale>
<asrwt>0</asrwt>
<pdfrwt beam="1">  1       21 0.38419610E-03 0.97094316E+02</pdfrwt>
<pdfrwt beam="2">  1        2 0.38707231E+00 0.97094316E+02</pdfrwt>
<totfact> 0.85394518E+05</totfact>
</mgrwt>
</event>
<event>
 6    2  0.7993170E+000  0.8414080E+02  0.7546771E-02  0.1317695E+00
         21   -1    0    0  501  502  0.00000000000E+00  0.00000000000E+00  0.83256431270E+01  0.83256431270E+01  0.00000000000E+00 0.  1.
         -1   -1    0    0    0  501 -0.00000000000E+00 -0.00000000000E+00 -0.37299518229E+03  0.37299518229E+03  0.00000000000E+00 0.  1.
         24    2    1    2    0    0  0.38117189159E+01 -0.27020440921E+02 -0.27872122972E+03  0.29114463496E+03  0.79592971690E+02 0.  0.
        -13    1    3    3    0    0  0.39976743615E+01 -0.55385272682E+02 -0.19474796296E+03  0.20250994768E+03  0.00000000000E+00 0.  1.
         14    1    3    3    0    0 -0.18595544567E+00  0.28364831761E+02 -0.83973266758E+02  0.88634687286E+02  0.00000000000E+00 0. -1.
         -2    1    1    2    0  502 -0.38117189159E+01  0.27020440921E+02 -0.85948309440E+02  0.90176190451E+02  0.00000000000E+00 0.  1.
<mgrwt>
<rscale>  1 0.84140802E+02</rscale>
<asrwt>0</asrwt>
<pdfrwt beam="1">  1       21 0.12808682E-02 0.84140802E+02</pdfrwt>
<pdfrwt beam="2">  1       -1 0.57383872E-01 0.84140802E+02</pdfrwt>
<totfact> 0.68566286E+05</totfact>
</mgrwt>
</event>
<event>
 6    2  0.7993170E+000  0.9178731E+02  0.7546771E-02  0.1298580E+00
         -1   -1    0    0    0  501 -0.00000000000E+00  0.00000000000E+00  0.73397178486E+03  0.73397178486E+03  0.00000000000E+00 0.  1.
         21   -1    0    0  501  502  0.00000000000E+00 -0.00000000000E+00 -0.83929352534E+01  0.83929352534E+01  0.00000000000E+00 0. -1.
         24    2    1    2    0    0  0.43453300820E+02 -0.22305347600E+01  0.27987007897E+03  0.29453721665E+03  0.80819219564E+02 0.  0.
        -13    1    3    3    0    0 -0.95860376423E+01 -0.41462148662E+01  0.18910933938E+03  0.18939753287E+03  0.00000000000E+00 0.  1.
         14    1    3    3    0    0  0.53039338462E+02  0.19156801062E+01  0.90760739592E+02  0.10513968378E+03  0.00000000000E+00 0. -1.
         -2    1    1    2    0  502 -0.43453300820E+02  0.22305347600E+01  0.44570877064E+03  0.44782750347E+03  0.00000000000E+00 0.  1.
<mgrwt>
<rscale>  1 0.91787313E+02</rscale>
<asrwt>0</asrwt>
<pdfrwt beam="1">  1       21 0.12912214E-02 0.91787313E+02</pdfrwt>
<pdfrwt beam="2">  1       -1 0.11291869E+00 0.91787313E+02</pdfrwt>
<totfact> 0.17151951E+05</totfact>
</mgrwt>
</event>
<event>
 6    2  0.7993170E+000  0.8530652E+02  0.7546771E-02  0.1314633E+00
         -3   -1    0    0    0  501 -0.00000000000E+00  0.00000000000E+00  0.44689838697E+02  0.44689838697E+02  0.00000000000E+00 0.  1.
         21   -1    0    0  501  502  0.00000000000E+00 -0.00000000000E+00 -0.80981473089E+02  0.80981473089E+02  0.00000000000E+00 0.  1.
         24    2    1    2    0    0  0.26659342349E+02 -0.57496938835E+01 -0.69142452030E+01  0.85586270813E+02  0.80829595141E+02 0.  0.
        -13    1    3    3    0    0  0.33813397395E+02  0.31905805813E+02 -0.83329112233E+01  0.47230961216E+02  0.00000000000E+00 0.  1.
         14    1    3    3    0    0 -0.71540550466E+01 -0.37655499696E+02  0.14186660203E+01  0.38355309597E+02  0.00000000000E+00 0. -1.
         -4    1    1    2    0  502 -0.26659342349E+02  0.57496938835E+01 -0.29377389190E+02  0.40085040973E+02  0.00000000000E+00 0.  1.
<mgrwt>
<rscale>  1 0.85306524E+02</rscale>
<asrwt>0</asrwt>
<pdfrwt beam="1">  1       21 0.12458688E-01 0.85306524E+02</pdfrwt>
<pdfrwt beam="2">  1       -3 0.68753599E-02 0.85306524E+02</pdfrwt>
<totfact> 0.32888274E+05</totfact>
</mgrwt>
</event>
<event>
 6    2  0.7993170E+000  0.8290822E+02  0.7546771E-02  0.1320995E+00
         21   -1    0    0  501  502  0.00000000000E+00  0.00000000000E+00  0.15438221836E+03  0.15438221836E+03  0.00000000000E+00 0.  1.
          2   -1    0    0  502    0 -0.00000000000E+00 -0.00000000000E+00 -0.33425808442E+02  0.33425808442E+02  0.00000000000E+00 0. -1.
         24    2    1    2    0    0 -0.21331898546E+02 -0.32521845082E+01  0.13753825773E+03  0.16059434868E+03  0.80050895616E+02 0.  0.
        -11    1    3    3    0    0 -0.27149368408E+02  0.15469317506E+02  0.13748352433E+03  0.14098974236E+03  0.00000000000E+00 0.  1.
         12    1    3    3    0    0  0.58174698628E+01 -0.18721502014E+02  0.54733403533E-01  0.19604606321E+02  0.00000000000E+00 0. -1.
          1    1    1    2  501    0  0.21331898546E+02  0.32521845082E+01 -0.16581847818E+02  0.27213678117E+02  0.00000000000E+00 0. -1.
<mgrwt>
<rscale>  1 0.82908217E+02</rscale>
<asrwt>0</asrwt>
<pdfrwt beam="1">  1       21 0.23751110E-01 0.82908217E+02</pdfrwt>
<pdfrwt beam="2">  1        2 0.51424322E-02 0.82908217E+02</pdfrwt>
<totfact> 0.28590803E+05</totfact>
</mgrwt>
</event>
<event>
 6    2  0.7993170E+000  0.1099006E+03  0.7546771E-02  0.1260754E+00
          2   -1    0    0  502    0 -0.00000000000E+00  0.00000000000E+00  0.12242444124E+03  0.12242444124E+03  0.00000000000E+00 0. -1.
         21   -1    0    0  501  502  0.00000000000E+00 -0.00000000000E+00 -0.68949489003E+02  0.68949489003E+02  0.00000000000E+00 0.  1.
         24    2    1    2    0    0  0.14886319810E+02  0.69656497703E+02  0.48027400450E+02  0.11993650301E+03  0.83692911113E+02 0.  0.
        -11    1    3    3    0    0  0.89040396015E+01  0.72512177223E+02  0.16372803509E+01  0.73075156201E+02  0.00000000000E+00 0.  1.
         12    1    3    3    0    0  0.59822802086E+01 -0.28556795195E+01  0.46390120099E+02  0.46861346809E+02  0.00000000000E+00 0. -1.
          1    1    1    2  501    0 -0.14886319810E+02 -0.69656497703E+02  0.54475517919E+01  0.71437427238E+02  0.00000000000E+00 0. -1.
<mgrwt>
<rscale>  1 0.10990056E+03</rscale>
<asrwt>0</asrwt>
<pdfrwt beam="1">  1       21 0.10607614E-01 0.10990056E+03</pdfrwt>
<pdfrwt beam="2">  1        2 0.18834529E-01 0.10990056E+03</pdfrwt>
<totfact> 0.25777091E+05</totfact>
</mgrwt>
</event>
<event>
 6    2  0.7993170E+000  0.8194147E+02  0.7546771E-02  0.1323630E+00
         21   -1    0    0  501  502  0.00000000000E+00  0.00000000000E+00  0.62984801850E+01  0.62984801850E+01  0.00000000000E+00 0.  1.
          2   -1    0    0  502    0 -0.00000000000E+00 -0.00000000000E+00 -0.44535575400E+03  0.44535575400E+03  0.00000000000E+00 0. -1.
         24    2    1    2    0    0 -0.61429406085E+01  0.21487264980E+02 -0.30843933625E+03  0.31913825821E+03  0.78835052036E+02 0.  0.
        -13    1    3    3    0    0  0.21015521583E+02  0.40728840102E+02 -0.21807807500E+03  0.22284195601E+03  0.00000000000E+00 0.  1.
         14    1    3    3    0    0 -0.27158462192E+02 -0.19241575122E+02 -0.90361261247E+02  0.96296302192E+02  0.00000000000E+00 0. -1.
          1    1    1    2  501    0  0.61429406085E+01 -0.21487264980E+02 -0.13061793757E+03  0.13251597598E+03  0.00000000000E+00 0. -1.
<mgrwt>
<rscale>  1 0.81941465E+02</rscale>
<asrwt>0</asrwt>
<pdfrwt beam="1">  1       21 0.96899690E-03 0.81941465E+02</pdfrwt>
<pdfrwt beam="2">  1        2 0.68516273E-01 0.81941465E+02</pdfrwt>
<totfact> 0.31780653E+06</totfact>
</mgrwt>
</event>
<event>
 6    2  0.7993170E+000  0.8167702E+02  0.7546771E-02  0.1324359E+00
         21   -1    0    0  501  502  0.00000000000E+00  0.00000000000E+00  0.58492185872E+02  0.58492185872E+02  0.00000000000E+00 0. -1.
          4   -1    0    0  502    0 -0.00000000000E+00 -0.00000000000E+00 -0.49979002386E+02  0.49979002386E+02  0.00000000000E+00 0. -1.
         24    2    1    2    0    0 -0.58174523181E+01 -0.21349354351E+02 -0.61783050676E+01  0.81910361490E+02  0.78622504305E+02 0.  0.
        -11    1    3    3    0    0  0.23973772302E+02 -0.49026925318E-02  0.24380641311E+02  0.34192944494E+02  0.00000000000E+00 0.  1.
         12    1    3    3    0    0 -0.29791224620E+02 -0.21344451659E+02 -0.30558946379E+02  0.47717416996E+02  0.00000000000E+00 0. -1.
          3    1    1    2  501    0  0.58174523181E+01  0.21349354351E+02  0.14691488553E+02  0.26560826768E+02  0.00000000000E+00 0. -1.
<mgrwt>
<rscale>  1 0.81677022E+02</rscale>
<asrwt>0</asrwt>
<pdfrwt beam="1">  1       21 0.89987978E-02 0.81677022E+02</pdfrwt>
<pdfrwt beam="2">  1        4 0.76890773E-02 0.81677022E+02</pdfrwt>
<totfact> 0.41744169E+05</totfact>
</mgrwt>
</event>
<event>
 6    2  0.7993170E+000  0.8373812E+02  0.7546771E-02  0.1318766E+00
          2   -1    0    0  502    0 -0.00000000000E+00  0.00000000000E+00  0.28860445960E+03  0.28860445960E+03  0.00000000000E+00 0. -1.
         21   -1    0    0  501  502  0.00000000000E+00 -0.00000000000E+00 -0.10852745827E+02  0.10852745827E+02  0.00000000000E+00 0.  1.
         24    2    1    2    0    0 -0.25917766010E+02  0.86725978383E+01  0.19229603401E+03  0.20973754342E+03  0.79152560746E+02 0.  0.
        -11    1    3    3    0    0 -0.18692413143E+02  0.61632194063E+01  0.25607458672E+01  0.19848148577E+02  0.00000000000E+00 0.  1.
         12    1    3    3    0    0 -0.72253528669E+01  0.25093784319E+01  0.18973528815E+03  0.18988939484E+03  0.00000000000E+00 0. -1.
          1    1    1    2  501    0  0.25917766010E+02 -0.86725978383E+01  0.85455679765E+02  0.89719662016E+02  0.00000000000E+00 0. -1.
<mgrwt>
<rscale>  1 0.83738118E+02</rscale>
<asrwt>0</asrwt>
<pdfrwt beam="1">  1       21 0.16696534E-02 0.83738118E+02</pdfrwt>
<pdfrwt beam="2">  1        2 0.44400680E-01 0.83738118E+02</pdfrwt>
<totfact> 0.21332873E+06</totfact>
</mgrwt>
</event>
<event>
 6    2  0.7993170E+000  0.8465001E+02  0.7546771E-02  0.1316350E+00
         -1   -1    0    0    0  501 -0.00000000000E+00  0.00000000000E+00  0.98492459852E+03  0.98492459852E+03  0.00000000000E+00 0.  1.
         21   -1    0    0  501  502  0.00000000000E+00 -0.00000000000E+00 -0.37089852564E+01  0.37089852564E+01  0.00000000000E+00 0. -1.
         24    2    1    2    0    0 -0.30814016996E+02  0.30958030435E+01  0.82824669957E+03  0.83256124095E+03  0.78781577397E+02 0.  0.
        -13    1    3    3    0    0  0.16048055085E+02  0.27432172327E+02  0.29567195544E+03  0.29737513243E+03  0.00000000000E+00 0.  1.
         14    1    3    3    0    0 -0.46862072081E+02 -0.24336369284E+02  0.53257474413E+03  0.53518610852E+03  0.00000000000E+00 0. -1.
         -2    1    1    2    0  502  0.30814016996E+02 -0.30958030435E+01  0.15296891369E+03  0.15607234283E+03  0.00000000000E+00 0.  1.
<mgrwt>
<rscale>  1 0.84650012E+02</rscale>
<asrwt>0</asrwt>
<pdfrwt beam="1">  1       21 0.57061390E-03 0.84650012E+02</pdfrwt>
<pdfrwt beam="2">  1       -1 0.15152665E+00 0.84650012E+02</pdfrwt>
<totfact> 0.29835006E+05</totfact>
</mgrwt>
</event>
<event>
 6    2  0.7993170E+000  0.9372913E+02  0.7546771E-02  0.1294064E+00
         -1   -1    0    0    0  501 -0.00000000000E+00  0.00000000000E+00  0.25572979103E+04  0.25572979103E+04  0.00000000000E+00 0.  1.
         21   -1    0    0  501  502  0.00000000000E+00 -0.00000000000E+00 -0.20081907480E+01  0.20081907480E+01  0.00000000000E+00 0. -1.
         24    2    1    2    0    0 -0.44664529758E+02 -0.11202179580E+02  0.14253051563E+04  0.14283836801E+04  0.81637858351E+02 0.  0.
        -13    1    3    3    0    0 -0.22182710618E+02 -0.23282804425E+02  0.13052312241E+04  0.13056273243E+04  0.00000000000E+00 0.  1.
         14    1    3    3    0    0 -0.22481819140E+02  0.12080624845E+02  0.12007393224E+03  0.12275635581E+03  0.00000000000E+00 0. -1.
         -2    1    1    2    0  502  0.44664529758E+02  0.11202179580E+02  0.11299845633E+04  0.11309224210E+04  0.00000000000E+00 0.  1.
<mgrwt>
<rscale>  1 0.93729125E+02</rscale>
<asrwt>0</asrwt>
<pdfrwt beam="1">  1       21 0.30895447E-03 0.93729125E+02</pdfrwt>
<pdfrwt beam="2">  1       -1 0.39342784E+00 0.93729125E+02</pdfrwt>
<totfact> 0.22286187E+04</totfact>
</mgrwt>
</event>
<event>
 6    2  0.7993170E+000  0.9978619E+02  0.7546771E-02  0.1280746E+00
          2   -1    0    0  502    0 -0.00000000000E+00  0.00000000000E+00  0.23784398088E+04  0.23784398088E+04  0.00000000000E+00 0. -1.
         21   -1    0    0  501  502  0.00000000000E+00 -0.00000000000E+00 -0.90525939550E+01  0.90525939550E+01  0.00000000000E+00 0. -1.
         24    2    1    2    0    0  0.58703093636E+02 -0.77716838904E+01  0.22671476329E+04  0.22693425640E+04  0.80317067597E+02 0.  0.
        -13    1    3    3    0    0 -0.93420979766E+01 -0.13632865665E+02  0.12274330405E+03  0.12385091243E+03  0.00000000000E+00 0.  1.
         14    1    3    3    0    0  0.68045191612E+02  0.58611817750E+01  0.21444043288E+04  0.21454916516E+04  0.00000000000E+00 0. -1.
          1    1    1    2  501    0 -0.58703093636E+02  0.77716838904E+01  0.10223958201E+03  0.11814983877E+03  0.00000000000E+00 0. -1.
<mgrwt>
<rscale>  1 0.99786190E+02</rscale>
<asrwt>0</asrwt>
<pdfrwt beam="1">  1       21 0.13927087E-02 0.99786190E+02</pdfrwt>
<pdfrwt beam="2">  1        2 0.36591332E+00 0.99786190E+02</pdfrwt>
<totfact> 0.13654407E+05</totfact>
</mgrwt>
</event>
<event>
 6    2  0.7993170E+000  0.1034424E+03  0.7546771E-02  0.1273219E+00
         21   -1    0    0  501  502  0.00000000000E+00  0.00000000000E+00  0.50078766204E+02  0.50078766204E+02  0.00000000000E+00 0.  1.
          2   -1    0    0  502    0 -0.00000000000E+00 -0.00000000000E+00 -0.14754385127E+03  0.14754385127E+03  0.00000000000E+00 0. -1.
         24    2    1    2    0    0 -0.26376404518E+02 -0.60211382212E+02 -0.76390555023E+02  0.12859174699E+03  0.79869864367E+02 0.  0.
        -13    1    3    3    0    0 -0.90504489110E+01 -0.71575029330E+01  0.16553505227E+02  0.20178181510E+02  0.00000000000E+00 0.  1.
         14    1    3    3    0    0 -0.17325955607E+02 -0.53053879279E+02 -0.92944060250E+02  0.10841356548E+03  0.00000000000E+00 0. -1.
          1    1    1    2  501    0  0.26376404518E+02  0.60211382212E+02 -0.21074530042E+02  0.69030870483E+02  0.00000000000E+00 0. -1.
<mgrwt>
<rscale>  1 0.10344235E+03</rscale>
<asrwt>0</asrwt>
<pdfrwt beam="1">  1       21 0.77044256E-02 0.10344235E+03</pdfrwt>
<pdfrwt beam="2">  1        2 0.22699054E-01 0.10344235E+03</pdfrwt>
<totfact> 0.36211276E+05</totfact>
</mgrwt>
</event>
<event>
 6    2  0.7993170E+000  0.8626361E+02  0.7546771E-02  0.1312161E+00
         21   -1    0    0  501  502  0.00000000000E+00  0.00000000000E+00  0.34927437927E+01  0.34927437927E+01  0.00000000000E+00 0. -1.
         -1   -1    0    0    0  501 -0.00000000000E+00 -0.00000000000E+00 -0.98038160223E+03  0.98038160223E+03  0.00000000000E+00 0.  1.
         24    2    1    2    0    0 -0.18999042399E+02  0.24151598139E+02 -0.70864665824E+03  0.71387778813E+03  0.80604881072E+02 0.  0.
        -13    1    3    3    0    0  0.18734645976E+02  0.60098282346E+01 -0.47591971672E+02  0.51498551075E+02  0.00000000000E+00 0.  1.
         14    1    3    3    0    0 -0.37733688375E+02  0.18141769904E+02 -0.66105468657E+03  0.66237923706E+03  0.00000000000E+00 0. -1.
         -2    1    1    2    0  502  0.18999042399E+02 -0.24151598139E+02 -0.26824220020E+03  0.26999655789E+03  0.00000000000E+00 0.  1.
<mgrwt>
<rscale>  1 0.86263609E+02</rscale>
<asrwt>0</asrwt>
<pdfrwt beam="1">  1       21 0.53734516E-03 0.86263609E+02</pdfrwt>
<pdfrwt beam="2">  1       -1 0.15082795E+00 0.86263609E+02</pdfrwt>
<totfact> 0.33163736E+05</totfact>
</mgrwt>
</event>
<event>
 6    2  0.7993170E+000  0.8475375E+02  0.7546771E-02  0.1316078E+00
          2   -1    0    0  502    0 -0.00000000000E+00  0.00000000000E+00  0.20456813735E+02  0.20456813735E+02  0.00000000000E+00 0. -1.
         21   -1    0    0  501  502  0.00000000000E+00 -0.00000000000E+00 -0.15280666403E+03  0.15280666403E+03  0.00000000000E+00 0.  1.
         24    2    1    2    0    0  0.19027588250E+02 -0.16907518848E+02 -0.88335047981E+02  0.12241845706E+03  0.80841107227E+02 0.  0.
        -11    1    3    3    0    0  0.11920396854E+02 -0.25866528949E+02 -0.10124336209E+03  0.10517315032E+03  0.00000000000E+00 0.  1.
         12    1    3    3    0    0  0.71071913958E+01  0.89590101008E+01  0.12908314104E+02  0.17245306739E+02  0.00000000000E+00 0. -1.
          1    1    1    2  501    0 -0.19027588250E+02  0.16907518848E+02 -0.44014802316E+02  0.50845020712E+02  0.00000000000E+00 0. -1.
<mgrwt>
<rscale>  1 0.84753749E+02</rscale>
<asrwt>0</asrwt>
<pdfrwt beam="1">  1       21 0.23508717E-01 0.84753749E+02</pdfrwt>
<pdfrwt beam="2">  1        2 0.31472022E-02 0.84753749E+02</pdfrwt>
<totfact> 0.55389397E+05</totfact>
</mgrwt>
</event>
<event>
 6    2  0.7993170E+000  0.8510311E+02  0.7546771E-02  0.1315163E+00
         21   -1    0    0  501  502  0.00000000000E+00  0.00000000000E+00  0.18488210618E+01  0.18488210618E+01  0.00000000000E+00 0.  1.
          2   -1    0    0  502    0 -0.00000000000E+00 -0.00000000000E+00 -0.21281756636E+04  0.21281756636E+04  0.00000000000E+00 0. -1.
         24    2    1    2    0    0 -0.16976585732E+02  0.21025947464E+02 -0.10796803385E+04  0.10830291651E+04  0.80698475932E+02 0.  0.
        -13    1    3    3    0    0  0.84921330148E+01 -0.20339928058E+02 -0.11303403965E+03  0.11516302842E+03  0.00000000000E+00 0.  1.
         14    1    3    3    0    0 -0.25468718747E+02  0.41365875521E+02 -0.96664629890E+03  0.96786613665E+03  0.00000000000E+00 0. -1.
          1    1    1    2  501    0  0.16976585732E+02 -0.21025947464E+02 -0.10466465040E+04  0.10469953196E+04  0.00000000000E+00 0. -1.
<mgrwt>
<rscale>  1 0.85103108E+02</rscale>
<asrwt>0</asrwt>
<pdfrwt beam="1">  1       21 0.28443412E-03 0.85103108E+02</pdfrwt>
<pdfrwt beam="2">  1        2 0.32741152E+00 0.85103108E+02</pdfrwt>
<totfact> 0.21207771E+06</totfact>
</mgrwt>
</event>
<event>
 6    2  0.7993170E+000  0.9055670E+02  0.7546771E-02  0.1301509E+00
          2   -1    0    0  502    0 -0.00000000000E+00  0.00000000000E+00  0.22923136902E+04  0.22923136902E+04  0.00000000000E+00 0. -1.
         21   -1    0    0  501  502  0.00000000000E+00 -0.00000000000E+00 -0.21657828605E+01  0.21657828605E+01  0.00000000000E+00 0.  1.
         24    2    1    2    0    0  0.13087854378E+02  0.38568200123E+02  0.11322785980E+04  0.11358940703E+04  0.80880884314E+02 0.  0.
        -11    1    3    3    0    0  0.55019004277E+01  0.80728862683E+01  0.13446746904E+02  0.16620992850E+02  0.00000000000E+00 0.  1.
         12    1    3    3    0    0  0.75859539500E+01  0.30495313855E+02  0.11188318511E+04  0.11192730774E+04  0.00000000000E+00 0. -1.
          1    1    1    2  501    0 -0.13087854378E+02 -0.38568200123E+02  0.11578693094E+04  0.11585854028E+04  0.00000000000E+00 0. -1.
<mgrwt>
<rscale>  1 0.90556697E+02</rscale>
<asrwt>0</asrwt>
<pdfrwt beam="1">  1       21 0.33319920E-03 0.90556697E+02</pdfrwt>
<pdfrwt beam="2">  1        2 0.35266170E+00 0.90556697E+02</pdfrwt>
<totfact> 0.13822443E+06</totfact>
</mgrwt>
</event>
<event>
 6    2  0.7993170E+000  0.1292275E+03  0.7546771E-02  0.1228607E+00
         21   -1    0    0  501  502  0.00000000000E+00  0.00000000000E+00  0.26495177031E+02  0.26495177031E+02  0.00000000000E+00 0.  1.
         -1   -1    0    0    0  501 -0.00000000000E+00 -0.00000000000E+00 -0.54661153745E+03  0.54661153745E+03  0.00000000000E+00 0.  1.
         24    2    1    2    0    0 -0.82222198976E+02 -0.58972853624E+02 -0.37133360103E+03  0.39317729231E+03  0.80383160371E+02 0.  0.
        -13    1    3    3    0    0 -0.97195436574E+02 -0.57718833771E+02 -0.30809770317E+03  0.32818076019E+03  0.00000000000E+00 0.  1.
         14    1    3    3    0    0  0.14973237599E+02 -0.12540198535E+01 -0.63235897856E+02  0.64996532120E+02  0.00000000000E+00 0. -1.
         -2    1    1    2    0  502  0.82222198976E+02  0.58972853624E+02 -0.14878275940E+03  0.17992942217E+03  0.00000000000E+00 0.  1.
<mgrwt>
<rscale>  1 0.12922747E+03</rscale>
<asrwt>0</asrwt>
<pdfrwt beam="1">  1       21 0.40761810E-02 0.12922747E+03</pdfrwt>
<pdfrwt beam="2">  1       -1 0.84094084E-01 0.12922747E+03</pdfrwt>
<totfact> 0.51620849E+04</totfact>
</mgrwt>
</event>
<event>
 6    2  0.7993170E+000  0.8627959E+02  0.7546771E-02  0.1312120E+00
          2   -1    0    0  502    0 -0.00000000000E+00  0.00000000000E+00  0.21309053102E+02  0.21309053102E+02  0.00000000000E+00 0. -1.
         21   -1    0    0  501  502  0.00000000000E+00 -0.00000000000E+00 -0.18204832883E+03  0.18204832883E+03  0.00000000000E+00 0.  1.
         24    2    1    2    0    0  0.93899341119E+01  0.33317931441E+02 -0.13501944050E+03  0.16023238521E+03  0.79031085906E+02 0.  0.
        -11    1    3    3    0    0 -0.20809025310E+02  0.15255417018E+02 -0.11864934014E+03  0.12142244108E+03  0.00000000000E+00 0.  1.
         12    1    3    3    0    0  0.30198959422E+02  0.18062514423E+02 -0.16370100359E+02  0.38809944128E+02  0.00000000000E+00 0. -1.
          1    1    1    2  501    0 -0.93899341119E+01 -0.33317931441E+02 -0.25719835232E+02  0.43124996725E+02  0.00000000000E+00 0. -1.
<mgrwt>
<rscale>  1 0.86279592E+02</rscale>
<asrwt>0</asrwt>
<pdfrwt beam="1">  1       21 0.28007436E-01 0.86279592E+02</pdfrwt>
<pdfrwt beam="2">  1        2 0.32783157E-02 0.86279592E+02</pdfrwt>
<totfact> 0.37871775E+05</totfact>
</mgrwt>
</event>
<event>
 6    2  0.7993170E+000  0.9990693E+02  0.7546771E-02  0.1280492E+00
          2   -1    0    0  502    0 -0.00000000000E+00  0.00000000000E+00  0.20709592567E+04  0.20709592567E+04  0.00000000000E+00 0. -1.
         21   -1    0    0  501  502  0.00000000000E+00 -0.00000000000E+00 -0.33506753468E+01  0.33506753468E+01  0.00000000000E+00 0. -1.
         24    2    1    2    0    0  0.31759019797E+02 -0.49348085061E+02  0.15851662432E+04  0.15883114974E+04  0.80854964906E+02 0.  0.
        -13    1    3    3    0    0  0.17791184560E+02  0.18514677204E+02  0.24175787426E+03  0.24311764495E+03  0.00000000000E+00 0.  1.
         14    1    3    3    0    0  0.13967835238E+02 -0.67862762265E+02  0.13434083690E+04  0.13451938525E+04  0.00000000000E+00 0. -1.
          1    1    1    2  501    0 -0.31759019797E+02  0.49348085061E+02  0.48244233811E+03  0.48599843460E+03  0.00000000000E+00 0. -1.
<mgrwt>
<rscale>  1 0.99906928E+02</rscale>
<asrwt>0</asrwt>
<pdfrwt beam="1">  1       21 0.51549017E-03 0.99906928E+02</pdfrwt>
<pdfrwt beam="2">  1        2 0.31860809E+00 0.99906928E+02</pdfrwt>
<totfact> 0.92433980E+05</totfact>
</mgrwt>
</event>
<event>
 6    2  0.7993170E+000  0.9340820E+02  0.7546771E-02  0.1294802E+00
         21   -1    0    0  501  502  0.00000000000E+00  0.00000000000E+00  0.78528286883E+01  0.78528286883E+01  0.00000000000E+00 0. -1.
          2   -1    0    0  502    0 -0.00000000000E+00 -0.00000000000E+00 -0.61217772404E+03  0.61217772404E+03  0.00000000000E+00 0. -1.
         24    2    1    2    0    0  0.29472546826E+02  0.28190260465E+02 -0.48542800498E+03  0.49433332785E+03  0.84034333488E+02 0.  0.
        -13    1    3    3    0    0  0.93540143685E+01 -0.26066559170E+02 -0.77050890666E+02  0.81876753992E+02  0.00000000000E+00 0.  1.
         14    1    3    3    0    0  0.20118532457E+02  0.54256819635E+02 -0.40837711432E+03  0.41245657386E+03  0.00000000000E+00 0. -1.
          1    1    1    2  501    0 -0.29472546826E+02 -0.28190260465E+02 -0.11889689037E+03  0.12569722487E+03  0.00000000000E+00 0. -1.
<mgrwt>
<rscale>  1 0.93408196E+02</rscale>
<asrwt>0</asrwt>
<pdfrwt beam="1">  1       21 0.12081274E-02 0.93408196E+02</pdfrwt>
<pdfrwt beam="2">  1        2 0.94181195E-01 0.93408196E+02</pdfrwt>
<totfact> 0.16160123E+06</totfact>
</mgrwt>
</event>
<event>
 6    2  0.7993170E+000  0.9326905E+02  0.7546771E-02  0.1295123E+00
         -1   -1    0    0    0  501 -0.00000000000E+00  0.00000000000E+00  0.15778611665E+03  0.15778611665E+03  0.00000000000E+00 0.  1.
         21   -1    0    0  501  502  0.00000000000E+00 -0.00000000000E+00 -0.24660223952E+02  0.24660223952E+02  0.00000000000E+00 0. -1.
         24    2    1    2    0    0  0.18118469381E+02 -0.19126584342E+02  0.78923944203E+02  0.12218062579E+03  0.89470728108E+02 0.  0.
        -11    1    3    3    0    0  0.37980409348E+02  0.17591030001E+02  0.66588150484E+02  0.78650731819E+02  0.00000000000E+00 0.  1.
         12    1    3    3    0    0 -0.19861939968E+02 -0.36717614343E+02  0.12335793719E+02  0.43529893969E+02  0.00000000000E+00 0. -1.
         -2    1    1    2    0  502 -0.18118469381E+02  0.19126584342E+02  0.54201948493E+02  0.60265714812E+02  0.00000000000E+00 0.  1.
<mgrwt>
<rscale>  1 0.93269054E+02</rscale>
<asrwt>0</asrwt>
<pdfrwt beam="1">  1       21 0.37938807E-02 0.93269054E+02</pdfrwt>
<pdfrwt beam="2">  1       -1 0.24274787E-01 0.93269054E+02</pdfrwt>
<totfact> 0.53355933E+05</totfact>
</mgrwt>
</event>
<event>
 6    2  0.7993170E+000  0.1476744E+03  0.7546771E-02  0.1203360E+00
          2   -1    0    0  502    0 -0.00000000000E+00  0.00000000000E+00  0.20804866823E+04  0.20804866823E+04  0.00000000000E+00 0. -1.
         21   -1    0    0  501  502  0.00000000000E+00 -0.00000000000E+00 -0.92176825247E+01  0.92176825247E+01  0.00000000000E+00 0.  1.
         24    2    1    2    0    0  0.12405068059E+03 -0.24299675879E+02  0.12642060103E+04  0.12728018525E+04  0.76345751266E+02 0.  0.
        -11    1    3    3    0    0  0.37800547210E+02 -0.37547053596E+02  0.30350810002E+03  0.30814903761E+03  0.00000000000E+00 0.  1.
         12    1    3    3    0    0  0.86250133381E+02  0.13247377717E+02  0.96069791027E+03  0.96465281491E+03  0.00000000000E+00 0. -1.
          1    1    1    2  501    0 -0.12405068059E+03  0.24299675879E+02  0.80706298944E+03  0.81690251226E+03  0.00000000000E+00 0. -1.
<mgrwt>
<rscale>  1 0.14767437E+03</rscale>
<asrwt>0</asrwt>
<pdfrwt beam="1">  1       21 0.14181067E-02 0.14767437E+03</pdfrwt>
<pdfrwt beam="2">  1        2 0.32007450E+00 0.14767437E+03</pdfrwt>
<totfact> 0.18848305E+05</totfact>
</mgrwt>
</event>
<event>
 6    2  0.7993170E+000  0.1024499E+03  0.7546771E-02  0.1275227E+00
         21   -1    0    0  501  502  0.00000000000E+00  0.00000000000E+00  0.10132717794E+03  0.10132717794E+03  0.00000000000E+00 0. -1.
          4   -1    0    0  502    0 -0.00000000000E+00 -0.00000000000E+00 -0.68666892249E+02  0.68666892249E+02  0.00000000000E+00 0. -1.
         24    2    1    2    0    0 -0.46535972613E+01 -0.61540114968E+02  0.55897890302E+01  0.10260227909E+03  0.81774936357E+02 0.  0.
        -13    1    3    3    0    0  0.97800970213E+01  0.15636441002E+02  0.14667658395E+02  0.23564566360E+02  0.00000000000E+00 0.  1.
         14    1    3    3    0    0 -0.14433694283E+02 -0.77176555970E+02 -0.90778693648E+01  0.79037712734E+02  0.00000000000E+00 0. -1.
          3    1    1    2  501    0  0.46535972613E+01  0.61540114968E+02  0.27070496664E+02  0.67391791098E+02  0.00000000000E+00 0. -1.
<mgrwt>
<rscale>  1 0.10244990E+03</rscale>
<asrwt>0</asrwt>
<pdfrwt beam="1">  1       21 0.15588797E-01 0.10244990E+03</pdfrwt>
<pdfrwt beam="2">  1        4 0.10564137E-01 0.10244990E+03</pdfrwt>
<totfact> 0.97918123E+04</totfact>
</mgrwt>
</event>
<event>
 6    2  0.7993170E+000  0.8667732E+02  0.7546771E-02  0.1311104E+00
         21   -1    0    0  501  502  0.00000000000E+00  0.00000000000E+00  0.63210697676E+02  0.63210697676E+02  0.00000000000E+00 0. -1.
          2   -1    0    0  502    0 -0.00000000000E+00 -0.00000000000E+00 -0.16843972760E+03  0.16843972760E+03  0.00000000000E+00 0. -1.
         24    2    1    2    0    0  0.13007469364E+02  0.28008685243E+02 -0.15236783904E+03  0.17529664960E+03  0.80989359056E+02 0.  0.
        -13    1    3    3    0    0  0.13878680790E+02 -0.23047011089E+02 -0.20305482190E+02  0.33706009962E+02  0.00000000000E+00 0.  1.
         14    1    3    3    0    0 -0.87121142631E+00  0.51055696332E+02 -0.13206235685E+03  0.14159063964E+03  0.00000000000E+00 0. -1.
          1    1    1    2  501    0 -0.13007469364E+02 -0.28008685243E+02  0.47138809112E+02  0.56353775675E+02  0.00000000000E+00 0. -1.
<mgrwt>
<rscale>  1 0.86677315E+02</rscale>
<asrwt>0</asrwt>
<pdfrwt beam="1">  1       21 0.97247230E-02 0.86677315E+02</pdfrwt>
<pdfrwt beam="2">  1        2 0.25913803E-01 0.86677315E+02</pdfrwt>
<totfact> 0.20728871E+05</totfact>
</mgrwt>
</event>
<event>
 6    2  0.7993170E+000  0.8771321E+02  0.7546771E-02  0.1308486E+00
          2   -1    0    0  502    0 -0.00000000000E+00  0.00000000000E+00  0.11469003545E+04  0.11469003545E+04  0.00000000000E+00 0. -1.
         21   -1    0    0  501  502  0.00000000000E+00 -0.00000000000E+00 -0.67755337711E+01  0.67755337711E+01  0.00000000000E+00 0. -1.
         24    2    1    2    0    0 -0.13785788060E+02 -0.35440349535E+02  0.10725935524E+04  0.10761740268E+04  0.79041387882E+02 0.  0.
        -11    1    3    3    0    0  0.52074564720E+00 -0.29202178936E+01 -0.25848320225E-01  0.29663979353E+01  0.00000000000E+00 0.  1.
         12    1    3    3    0    0 -0.14306533707E+02 -0.32520131642E+02  0.10726194008E+04  0.10732076289E+04  0.00000000000E+00 0. -1.
          1    1    1    2  501    0  0.13785788060E+02  0.35440349535E+02  0.67531268301E+02  0.77501861436E+02  0.00000000000E+00 0. -1.
<mgrwt>
<rscale>  1 0.87713211E+02</rscale>
<asrwt>0</asrwt>
<pdfrwt beam="1">  1       21 0.10423907E-02 0.87713211E+02</pdfrwt>
<pdfrwt beam="2">  1        2 0.17644605E+00 0.87713211E+02</pdfrwt>
<totfact> 0.91873339E+05</totfact>
</mgrwt>
</event>
<event>
 6    2  0.7993170E+000  0.9831236E+02  0.7546771E-02  0.1283885E+00
         -1   -1    0    0    0  501 -0.00000000000E+00  0.00000000000E+00  0.25790162550E+02  0.25790162550E+02  0.00000000000E+00 0.  1.
         21   -1    0    0  501  502  0.00000000000E+00 -0.00000000000E+00 -0.26013279072E+03  0.26013279072E+03  0.00000000000E+00 0.  1.
         24    2    1    2    0    0  0.60782003200E+01 -0.59617815172E+02 -0.17964534426E+03  0.20478713336E+03  0.77936460470E+02 0.  0.
        -13    1    3    3    0    0  0.91920640088E+01 -0.68729235097E+02 -0.85194412934E+02  0.10984666492E+03  0.00000000000E+00 0.  1.
         14    1    3    3    0    0 -0.31138636888E+01  0.91114199252E+01 -0.94450931330E+02  0.94940468449E+02  0.00000000000E+00 0. -1.
         -2    1    1    2    0  502 -0.60782003200E+01  0.59617815172E+02 -0.54697283906E+02  0.81135819905E+02  0.00000000000E+00 0.  1.
<mgrwt>
<rscale>  1 0.98312361E+02</rscale>
<asrwt>0</asrwt>
<pdfrwt beam="1">  1       21 0.40020430E-01 0.98312361E+02</pdfrwt>
<pdfrwt beam="2">  1       -1 0.39677173E-02 0.98312361E+02</pdfrwt>
<totfact> 0.12732140E+05</totfact>
</mgrwt>
</event>
<event>
 6    2  0.7993170E+000  0.8343443E+02  0.7546771E-02  0.1319578E+00
         21   -1    0    0  501  502  0.00000000000E+00  0.00000000000E+00  0.15000727572E+03  0.15000727572E+03  0.00000000000E+00 0.  1.
          2   -1    0    0  502    0 -0.00000000000E+00 -0.00000000000E+00 -0.20910855950E+02  0.20910855950E+02  0.00000000000E+00 0. -1.
         24    2    1    2    0    0  0.10162989424E+02  0.17414846752E+02  0.12508727958E+03  0.15036000806E+03  0.80961356640E+02 0.  0.
        -13    1    3    3    0    0  0.10766129896E+02  0.17271281746E+02  0.13696363349E+03  0.13846748219E+03  0.00000000000E+00 0.  1.
         14    1    3    3    0    0 -0.60314047133E+00  0.14356500607E+00 -0.11876353908E+02  0.11892525867E+02  0.00000000000E+00 0. -1.
          1    1    1    2  501    0 -0.10162989424E+02 -0.17414846752E+02  0.40091401913E+01  0.20558123614E+02  0.00000000000E+00 0. -1.
<mgrwt>
<rscale>  1 0.83434432E+02</rscale>
<asrwt>0</asrwt>
<pdfrwt beam="1">  1       21 0.23078042E-01 0.83434432E+02</pdfrwt>
<pdfrwt beam="2">  1        2 0.32170548E-02 0.83434432E+02</pdfrwt>
<totfact> 0.55589980E+05</totfact>
</mgrwt>
</event>
<event>
 6    2  0.7993170E+000  0.9659998E+02  0.7546771E-02  0.1287613E+00
          2   -1    0    0  502    0 -0.00000000000E+00  0.00000000000E+00  0.15278705424E+04  0.15278705424E+04  0.00000000000E+00 0. -1.
         21   -1    0    0  501  502  0.00000000000E+00 -0.00000000000E+00 -0.48037470533E+01  0.48037470533E+01  0.00000000000E+00 0. -1.
         24    2    1    2    0    0 -0.53660711651E+02 -0.27772455312E+01  0.12846846874E+04  0.12883114149E+04  0.80276837713E+02 0.  0.
        -11    1    3    3    0    0  0.51918230557E+01 -0.18182870563E+02  0.84678645988E+02  0.86764306572E+02  0.00000000000E+00 0.  1.
         12    1    3    3    0    0 -0.58852534707E+02  0.15405625032E+02  0.12000060414E+04  0.12015471083E+04  0.00000000000E+00 0. -1.
          1    1    1    2  501    0  0.53660711651E+02  0.27772455312E+01  0.23838210799E+03  0.24436287459E+03  0.00000000000E+00 0. -1.
<mgrwt>
<rscale>  1 0.96599978E+02</rscale>
<asrwt>0</asrwt>
<pdfrwt beam="1">  1       21 0.73903923E-03 0.96599978E+02</pdfrwt>
<pdfrwt beam="2">  1        2 0.23505662E+00 0.96599978E+02</pdfrwt>
<totfact> 0.99493216E+05</totfact>
</mgrwt>
</event>
<event>
 6    2  0.7993170E+000  0.8513907E+02  0.7546771E-02  0.1315069E+00
         21   -1    0    0  501  502  0.00000000000E+00  0.00000000000E+00  0.35976114063E+01  0.35976114063E+01  0.00000000000E+00 0. -1.
          4   -1    0    0  502    0 -0.00000000000E+00 -0.00000000000E+00 -0.13096021057E+04  0.13096021057E+04  0.00000000000E+00 0. -1.
         24    2    1    2    0    0  0.24872047840E+02 -0.11577249171E+02 -0.12190629228E+04  0.12220323528E+04  0.80597829176E+02 0.  0.
        -13    1    3    3    0    0  0.98812027054E+01  0.31791308291E+02 -0.30353531933E+03  0.30535555592E+03  0.00000000000E+00 0.  1.
         14    1    3    3    0    0  0.14990845134E+02 -0.43368557461E+02 -0.91552760345E+03  0.91667679685E+03  0.00000000000E+00 0. -1.
          3    1    1    2  501    0 -0.24872047840E+02  0.11577249171E+02 -0.86941571528E+02  0.91167364347E+02  0.00000000000E+00 0. -1.
<mgrwt>
<rscale>  1 0.85139072E+02</rscale>
<asrwt>0</asrwt>
<pdfrwt beam="1">  1       21 0.55347792E-03 0.85139072E+02</pdfrwt>
<pdfrwt beam="2">  1        4 0.20147752E+00 0.85139072E+02</pdfrwt>
<totfact> 0.51718164E+04</totfact>
</mgrwt>
</event>
<event>
 6    2  0.7993170E+000  0.8716889E+02  0.7546771E-02  0.1309856E+00
          4   -1    0    0  502    0 -0.00000000000E+00  0.00000000000E+00  0.97630690450E+03  0.97630690450E+03  0.00000000000E+00 0. -1.
         21   -1    0    0  501  502  0.00000000000E+00 -0.00000000000E+00 -0.50477469666E+01  0.50477469666E+01  0.00000000000E+00 0.  1.
         24    2    1    2    0    0  0.33149631668E+02 -0.44673820225E+01  0.41322898927E+03  0.42232287753E+03  0.80495712481E+02 0.  0.
        -11    1    3    3    0    0  0.27144862694E+02 -0.32228115204E+02  0.11045006517E+03  0.11821468554E+03  0.00000000000E+00 0.  1.
         12    1    3    3    0    0  0.60047689736E+01  0.27760733181E+02  0.30277892410E+03  0.30410819199E+03  0.00000000000E+00 0. -1.
          3    1    1    2  501    0 -0.33149631668E+02  0.44673820225E+01  0.55803016826E+03  0.55903177394E+03  0.00000000000E+00 0. -1.
<mgrwt>
<rscale>  1 0.87168890E+02</rscale>
<asrwt>0</asrwt>
<pdfrwt beam="1">  1       21 0.77657723E-03 0.87168890E+02</pdfrwt>
<pdfrwt beam="2">  1        4 0.15020091E+00 0.87168890E+02</pdfrwt>
<totfact> 0.67025718E+04</totfact>
</mgrwt>
</event>
<event>
 6    2  0.7993170E+000  0.8639654E+02  0.7546771E-02  0.1311820E+00
         21   -1    0    0  501  502  0.00000000000E+00  0.00000000000E+00  0.32797866220E+02  0.32797866220E+02  0.00000000000E+00 0. -1.
          2   -1    0    0  502    0 -0.00000000000E+00 -0.00000000000E+00 -0.21589441201E+03  0.21589441201E+03  0.00000000000E+00 0. -1.
         24    2    1    2    0    0  0.11817511805E+02  0.28481226815E+02 -0.19681479738E+03  0.21494284427E+03  0.80706430785E+02 0.  0.
        -13    1    3    3    0    0 -0.30872013280E+02 -0.59737879049E+01 -0.66978938525E+02  0.73992875007E+02  0.00000000000E+00 0.  1.
         14    1    3    3    0    0  0.42689525085E+02  0.34455014720E+02 -0.12983585885E+03  0.14094996926E+03  0.00000000000E+00 0. -1.
          1    1    1    2  501    0 -0.11817511805E+02 -0.28481226815E+02  0.13718251586E+02  0.33749433962E+02  0.00000000000E+00 0. -1.
<mgrwt>
<rscale>  1 0.86396538E+02</rscale>
<asrwt>0</asrwt>
<pdfrwt beam="1">  1       21 0.50458257E-02 0.86396538E+02</pdfrwt>
<pdfrwt beam="2">  1        2 0.33214524E-01 0.86396538E+02</pdfrwt>
<totfact> 0.48271339E+05</totfact>
</mgrwt>
</event>
<event>
 6    2  0.7993170E+000  0.8429896E+02  0.7546771E-02  0.1317276E+00
         21   -1    0    0  501  502  0.00000000000E+00  0.00000000000E+00  0.27871263162E+02  0.27871263162E+02  0.00000000000E+00 0. -1.
          2   -1    0    0  502    0 -0.00000000000E+00 -0.00000000000E+00 -0.68835572691E+03  0.68835572691E+03  0.00000000000E+00 0. -1.
         24    2    1    2    0    0  0.24379822036E+02 -0.18505342827E+02 -0.67646597956E+03  0.68169827328E+03  0.78546106629E+02 0.  0.
        -11    1    3    3    0    0  0.67983559807E+01  0.25592775240E+02 -0.10589349124E+03  0.10915419954E+03  0.00000000000E+00 0.  1.
         12    1    3    3    0    0  0.17581466056E+02 -0.44098118067E+02 -0.57057248831E+03  0.57254407375E+03  0.00000000000E+00 0. -1.
          1    1    1    2  501    0 -0.24379822036E+02  0.18505342827E+02  0.15981515807E+02  0.34528716790E+02  0.00000000000E+00 0. -1.
<mgrwt>
<rscale>  1 0.84298958E+02</rscale>
<asrwt>0</asrwt>
<pdfrwt beam="1">  1       21 0.42878871E-02 0.84298958E+02</pdfrwt>
<pdfrwt beam="2">  1        2 0.10590087E+00 0.84298958E+02</pdfrwt>
<totfact> 0.18290089E+05</totfact>
</mgrwt>
</event>
<event>
 6    2  0.7993170E+000  0.9348399E+02  0.7546771E-02  0.1294627E+00
         21   -1    0    0  501  502  0.00000000000E+00  0.00000000000E+00  0.31241294946E+01  0.31241294946E+01  0.00000000000E+00 0. -1.
          2   -1    0    0  502    0 -0.00000000000E+00 -0.00000000000E+00 -0.17264240410E+04  0.17264240410E+04  0.00000000000E+00 0. -1.
         24    2    1    2    0    0  0.33228043266E+02 -0.32886320453E+02 -0.13672379849E+04  0.13704302115E+04  0.80954580860E+02 0.  0.
        -13    1    3    3    0    0 -0.24344716034E+02 -0.25286127104E+01 -0.22221098722E+03  0.22355487452E+03  0.00000000000E+00 0.  1.
         14    1    3    3    0    0  0.57572759300E+02 -0.30357707743E+02 -0.11450269977E+04  0.11468753369E+04  0.00000000000E+00 0. -1.
          1    1    1    2  501    0 -0.33228043266E+02  0.32886320453E+02 -0.35606192659E+03  0.35911795903E+03  0.00000000000E+00 0. -1.
<mgrwt>
<rscale>  1 0.93483994E+02</rscale>
<asrwt>0</asrwt>
<pdfrwt beam="1">  1       21 0.48063638E-03 0.93483994E+02</pdfrwt>
<pdfrwt beam="2">  1        2 0.26560310E+00 0.93483994E+02</pdfrwt>
<totfact> 0.15291150E+06</totfact>
</mgrwt>
</event>
<event>
 6    2  0.7993170E+000  0.8950309E+02  0.7546771E-02  0.1304060E+00
         21   -1    0    0  501  502  0.00000000000E+00  0.00000000000E+00  0.58161011685E+03  0.58161011685E+03  0.00000000000E+00 0.  1.
         -1   -1    0    0    0  501 -0.00000000000E+00 -0.00000000000E+00 -0.67143923738E+01  0.67143923738E+01  0.00000000000E+00 0.  1.
         24    2    1    2    0    0  0.23787076296E+02 -0.26056489144E+02  0.39703438995E+03  0.40699767739E+03  0.82255923609E+02 0.  0.
        -11    1    3    3    0    0  0.36231285530E+02 -0.50055489550E+02  0.25199755457E+03  0.25946295612E+03  0.00000000000E+00 0.  1.
         12    1    3    3    0    0 -0.12444209234E+02  0.23999000407E+02  0.14503683538E+03  0.14753472127E+03  0.00000000000E+00 0. -1.
         -2    1    1    2    0  502 -0.23787076296E+02  0.26056489144E+02  0.17786133453E+03  0.18132683184E+03  0.00000000000E+00 0.  1.
<mgrwt>
<rscale>  1 0.89503087E+02</rscale>
<asrwt>0</asrwt>
<pdfrwt beam="1">  1       21 0.89478440E-01 0.89503087E+02</pdfrwt>
<pdfrwt beam="2">  1       -1 0.10329839E-02 0.89503087E+02</pdfrwt>
<totfact> 0.15884677E+05</totfact>
</mgrwt>
</event>
<event>
 6    2  0.7993170E+000  0.8326632E+02  0.7546771E-02  0.1320030E+00
         -3   -1    0    0    0  501 -0.00000000000E+00  0.00000000000E+00  0.51783201423E+01  0.51783201423E+01  0.00000000000E+00 0.  1.
         21   -1    0    0  501  502  0.00000000000E+00 -0.00000000000E+00 -0.71624019821E+03  0.71624019821E+03  0.00000000000E+00 0. -1.
         24    2    1    2    0    0 -0.37534273471E+01  0.20858390519E+02 -0.67052979267E+03  0.67568001577E+03  0.80524034798E+02 0.  0.
        -11    1    3    3    0    0  0.18450045917E+02  0.15631203997E+02 -0.59520242236E+02  0.64244828341E+02  0.00000000000E+00 0.  1.
         12    1    3    3    0    0 -0.22203473264E+02  0.52271865215E+01 -0.61100955043E+03  0.61143518743E+03  0.00000000000E+00 0. -1.
         -4    1    1    2    0  502  0.37534273471E+01 -0.20858390519E+02 -0.40532085402E+02  0.45738502587E+02  0.00000000000E+00 0.  1.
<mgrwt>
<rscale>  1 0.83266325E+02</rscale>
<asrwt>0</asrwt>
<pdfrwt beam="1">  1       21 0.11019074E+00 0.83266325E+02</pdfrwt>
<pdfrwt beam="2">  1       -3 0.79666507E-03 0.83266325E+02</pdfrwt>
<totfact> 0.11395901E+05</totfact>
</mgrwt>
</event>
<event>
 6    2  0.7993170E+000  0.8857586E+02  0.7546771E-02  0.1306338E+00
         21   -1    0    0  501  502  0.00000000000E+00  0.00000000000E+00  0.11110847135E+02  0.11110847135E+02  0.00000000000E+00 0. -1.
          2   -1    0    0  502    0 -0.00000000000E+00 -0.00000000000E+00 -0.79532073358E+03  0.79532073358E+03  0.00000000000E+00 0. -1.
         24    2    1    2    0    0  0.82546498660E+01  0.30974628941E+02 -0.76270410998E+03  0.76783021670E+03  0.82571880299E+02 0.  0.
        -13    1    3    3    0    0 -0.49952289447E+01  0.20185503516E+02 -0.41448585845E+02  0.46372320763E+02  0.00000000000E+00 0.  1.
         14    1    3    3    0    0  0.13249878811E+02  0.10789125425E+02 -0.72125552414E+03  0.72145789594E+03  0.00000000000E+00 0. -1.
          1    1    1    2  501    0 -0.82546498660E+01 -0.30974628941E+02 -0.21505776465E+02  0.38601364015E+02  0.00000000000E+00 0. -1.
<mgrwt>
<rscale>  1 0.88575856E+02</rscale>
<asrwt>0</asrwt>
<pdfrwt beam="1">  1       21 0.17093602E-02 0.88575856E+02</pdfrwt>
<pdfrwt beam="2">  1        2 0.12235710E+00 0.88575856E+02</pdfrwt>
<totfact> 0.68438591E+05</totfact>
</mgrwt>
</event>
<event>
 6    2  0.7993170E+000  0.8504732E+02  0.7546771E-02  0.1315309E+00
          2   -1    0    0  502    0 -0.00000000000E+00  0.00000000000E+00  0.25270569463E+04  0.25270569463E+04  0.00000000000E+00 0. -1.
         21   -1    0    0  501  502  0.00000000000E+00 -0.00000000000E+00 -0.20147800445E+01  0.20147800445E+01  0.00000000000E+00 0. -1.
         24    2    1    2    0    0 -0.24495837121E+02  0.89457523914E+01  0.23912390690E+04  0.23927509966E+04  0.80950442355E+02 0.  0.
        -13    1    3    3    0    0 -0.81979522923E+01 -0.23640030758E+02  0.26014819618E+03  0.26134869706E+03  0.00000000000E+00 0.  1.
         14    1    3    3    0    0 -0.16297884829E+02  0.32585783149E+02  0.21310908728E+04  0.21314022995E+04  0.00000000000E+00 0. -1.
          1    1    1    2  501    0  0.24495837121E+02 -0.89457523914E+01  0.13380309733E+03  0.13632072982E+03  0.00000000000E+00 0. -1.
<mgrwt>
<rscale>  1 0.85047320E+02</rscale>
<asrwt>0</asrwt>
<pdfrwt beam="1">  1       21 0.30996818E-03 0.85047320E+02</pdfrwt>
<pdfrwt beam="2">  1        2 0.38877545E+00 0.85047320E+02</pdfrwt>
<totfact> 0.11620215E+06</totfact>
</mgrwt>
</event>
<event>
 6    2  0.7993170E+000  0.8685501E+02  0.7546771E-02  0.1310652E+00
          2   -1    0    0  502    0 -0.00000000000E+00  0.00000000000E+00  0.70121893524E+03  0.70121893524E+03  0.00000000000E+00 0. -1.
         21   -1    0    0  501  502  0.00000000000E+00 -0.00000000000E+00 -0.57611903370E+01  0.57611903370E+01  0.00000000000E+00 0.  1.
         24    2    1    2    0    0  0.91904854853E+00  0.34674484107E+02  0.57861195700E+03  0.58509451261E+03  0.79628056623E+02 0.  0.
        -13    1    3    3    0    0 -0.24386578841E+02 -0.16831758303E+01  0.62890157074E+02  0.67473773907E+02  0.00000000000E+00 0.  1.
         14    1    3    3    0    0  0.25305627390E+02  0.36357659937E+02  0.51572179993E+03  0.51762073870E+03  0.00000000000E+00 0. -1.
          1    1    1    2  501    0 -0.91904854853E+00 -0.34674484107E+02  0.11684578790E+03  0.12188561297E+03  0.00000000000E+00 0. -1.
<mgrwt>
<rscale>  1 0.86855005E+02</rscale>
<asrwt>0</asrwt>
<pdfrwt beam="1">  1       21 0.88633753E-03 0.86855005E+02</pdfrwt>
<pdfrwt beam="2">  1        2 0.10787977E+00 0.86855005E+02</pdfrwt>
<totfact> 0.22286728E+06</totfact>
</mgrwt>
</event>
<event>
 6    2  0.7993170E+000  0.8176029E+02  0.7546771E-02  0.1324129E+00
         -3   -1    0    0    0  501 -0.00000000000E+00  0.00000000000E+00  0.15048659888E+04  0.15048659888E+04  0.00000000000E+00 0.  1.
         21   -1    0    0  501  502  0.00000000000E+00 -0.00000000000E+00 -0.19173047658E+01  0.19173047658E+01  0.00000000000E+00 0. -1.
         24    2    1    2    0    0 -0.19686847944E+02 -0.16470143706E+02  0.11403217080E+04  0.11432490292E+04  0.77626718530E+02 0.  0.
        -11    1    3    3    0    0 -0.12505856330E+02 -0.95419465941E+01  0.11240595167E+04  0.11241695789E+04  0.00000000000E+00 0.  1.
         12    1    3    3    0    0 -0.71809916144E+01 -0.69281971118E+01  0.16262191329E+02  0.19079450270E+02  0.00000000000E+00 0. -1.
         -4    1    1    2    0  502  0.19686847944E+02  0.16470143706E+02  0.36262697605E+03  0.36353426438E+03  0.00000000000E+00 0.  1.
<mgrwt>
<rscale>  1 0.81760290E+02</rscale>
<asrwt>0</asrwt>
<pdfrwt beam="1">  1       21 0.29497117E-03 0.81760290E+02</pdfrwt>
<pdfrwt beam="2">  1       -3 0.23151690E+00 0.81760290E+02</pdfrwt>
<totfact> 0.11944776E+05</totfact>
</mgrwt>
</event>
<event>
 6    2  0.7993170E+000  0.9725122E+02  0.7546771E-02  0.1286185E+00
         21   -1    0    0  501  502  0.00000000000E+00  0.00000000000E+00  0.71292248332E+01  0.71292248332E+01  0.00000000000E+00 0. -1.
          2   -1    0    0  502    0 -0.00000000000E+00 -0.00000000000E+00 -0.11495188791E+04  0.11495188791E+04  0.00000000000E+00 0. -1.
         24    2    1    2    0    0  0.55497463924E+02  0.81766807074E+00 -0.98440693212E+03  0.98919907413E+03  0.79857142340E+02 0.  0.
        -11    1    3    3    0    0  0.23487766915E+02  0.13003389222E+02 -0.84973577025E+02  0.89113815530E+02  0.00000000000E+00 0.  1.
         12    1    3    3    0    0  0.32009697010E+02 -0.12185721151E+02 -0.89943335509E+03  0.90008525860E+03  0.00000000000E+00 0. -1.
          1    1    1    2  501    0 -0.55497463924E+02 -0.81766807074E+00 -0.15798272215E+03  0.16744902980E+03  0.00000000000E+00 0. -1.
<mgrwt>
<rscale>  1 0.97251222E+02</rscale>
<asrwt>0</asrwt>
<pdfrwt beam="1">  1       21 0.10968043E-02 0.97251222E+02</pdfrwt>
<pdfrwt beam="2">  1        2 0.17684898E+00 0.97251222E+02</pdfrwt>
<totfact> 0.85157492E+05</totfact>
</mgrwt>
</event>
<event>
 6    2  0.7993170E+000  0.1042136E+03  0.7546771E-02  0.1271677E+00
          2   -1    0    0  502    0 -0.00000000000E+00  0.00000000000E+00  0.15264492061E+04  0.15264492061E+04  0.00000000000E+00 0. -1.
         21   -1    0    0  501  502  0.00000000000E+00 -0.00000000000E+00 -0.26032489242E+01  0.26032489242E+01  0.00000000000E+00 0.  1.
         24    2    1    2    0    0 -0.13648823982E+02  0.15398664445E+02  0.11807713093E+04  0.11853612807E+04  0.10216198784E+03 0.  0.
        -13    1    3    3    0    0 -0.26492864929E+02  0.20493643383E+02  0.12240758584E+03  0.12690736142E+03  0.00000000000E+00 0.  1.
         14    1    3    3    0    0  0.12844040947E+02 -0.50949789379E+01  0.10583637234E+04  0.10584539193E+04  0.00000000000E+00 0. -1.
          1    1    1    2  501    0  0.13648823982E+02 -0.15398664445E+02  0.34307464794E+03  0.34369117435E+03  0.00000000000E+00 0. -1.
<mgrwt>
<rscale>  1 0.10421363E+03</rscale>
<asrwt>0</asrwt>
<pdfrwt beam="1">  1       21 0.40050106E-03 0.10421363E+03</pdfrwt>
<pdfrwt beam="2">  1        2 0.23483762E+00 0.10421363E+03</pdfrwt>
<totfact> 0.25729126E+06</totfact>
</mgrwt>
</event>
<event>
 6    2  0.7993170E+000  0.9370665E+02  0.7546771E-02  0.1294116E+00
          2   -1    0    0  502    0 -0.00000000000E+00  0.00000000000E+00  0.26871227814E+03  0.26871227814E+03  0.00000000000E+00 0. -1.
         21   -1    0    0  501  502  0.00000000000E+00 -0.00000000000E+00 -0.18924555819E+02  0.18924555819E+02  0.00000000000E+00 0. -1.
         24    2    1    2    0    0 -0.46985831312E+02 -0.12251118779E+02  0.15466376368E+03  0.18083643245E+03  0.80144726897E+02 0.  0.
        -13    1    3    3    0    0  0.12847650201E+02 -0.28813038298E+02  0.48718091885E+02  0.58040552793E+02  0.00000000000E+00 0.  1.
         14    1    3    3    0    0 -0.59833481513E+02  0.16561919519E+02  0.10594567180E+03  0.12279587966E+03  0.00000000000E+00 0. -1.
          1    1    1    2  501    0  0.46985831312E+02  0.12251118779E+02  0.95123958641E+02  0.10680040151E+03  0.00000000000E+00 0. -1.
<mgrwt>
<rscale>  1 0.93706646E+02</rscale>
<asrwt>0</asrwt>
<pdfrwt beam="1">  1       21 0.29114703E-02 0.93706646E+02</pdfrwt>
<pdfrwt beam="2">  1        2 0.41340348E-01 0.93706646E+02</pdfrwt>
<totfact> 0.95371860E+05</totfact>
</mgrwt>
</event>
<event>
 6    2  0.7993170E+000  0.8521138E+02  0.7546771E-02  0.1314881E+00
         21   -1    0    0  501  502  0.00000000000E+00  0.00000000000E+00  0.42574907899E+01  0.42574907899E+01  0.00000000000E+00 0. -1.
          2   -1    0    0  502    0 -0.00000000000E+00 -0.00000000000E+00 -0.74970410564E+03  0.74970410564E+03  0.00000000000E+00 0. -1.
         24    2    1    2    0    0 -0.15189405423E+02  0.23056121537E+02 -0.58032145581E+03  0.58654409159E+03  0.80614369271E+02 0.  0.
        -11    1    3    3    0    0  0.21133870055E+02  0.34387299264E+02 -0.41216172308E+03  0.41413332731E+03  0.00000000000E+00 0.  1.
         12    1    3    3    0    0 -0.36323275478E+02 -0.11331177727E+02 -0.16815973273E+03  0.17241076428E+03  0.00000000000E+00 0. -1.
          1    1    1    2  501    0  0.15189405423E+02 -0.23056121537E+02 -0.16512515904E+03  0.16741750484E+03  0.00000000000E+00 0. -1.
<mgrwt>
<rscale>  1 0.85211380E+02</rscale>
<asrwt>0</asrwt>
<pdfrwt beam="1">  1       21 0.65499921E-03 0.85211380E+02</pdfrwt>
<pdfrwt beam="2">  1        2 0.11533898E+00 0.85211380E+02</pdfrwt>
<totfact> 0.32835174E+06</totfact>
</mgrwt>
</event>
<event>
 6    2  0.7993170E+000  0.8358161E+02  0.7546771E-02  0.1319184E+00
          2   -1    0    0  502    0 -0.00000000000E+00  0.00000000000E+00  0.10324963812E+03  0.10324963812E+03  0.00000000000E+00 0. -1.
         21   -1    0    0  501  502  0.00000000000E+00 -0.00000000000E+00 -0.26770426422E+02  0.26770426422E+02  0.00000000000E+00 0.  1.
         24    2    1    2    0    0  0.21369622321E+02  0.27687829292E+01  0.61776319849E+02  0.10393363233E+03  0.80756172008E+02 0.  0.
        -13    1    3    3    0    0 -0.96349451146E-01 -0.26294152589E+02 -0.61426626075E+01  0.27002297078E+02  0.00000000000E+00 0.  1.
         14    1    3    3    0    0  0.21465971772E+02  0.29062935518E+02  0.67918982457E+02  0.76931335248E+02  0.00000000000E+00 0. -1.
          1    1    1    2  501    0 -0.21369622321E+02 -0.27687829292E+01  0.14702891850E+02  0.26086432217E+02  0.00000000000E+00 0. -1.
<mgrwt>
<rscale>  1 0.83581614E+02</rscale>
<asrwt>0</asrwt>
<pdfrwt beam="1">  1       21 0.41185272E-02 0.83581614E+02</pdfrwt>
<pdfrwt beam="2">  1        2 0.15884559E-01 0.83581614E+02</pdfrwt>
<totfact> 0.15132405E+06</totfact>
</mgrwt>
</event>
<event>
 6    2  0.7993170E+000  0.1094817E+03  0.7546771E-02  0.1261533E+00
          2   -1    0    0  502    0 -0.00000000000E+00  0.00000000000E+00  0.23162573506E+03  0.23162573506E+03  0.00000000000E+00 0. -1.
         21   -1    0    0  501  502  0.00000000000E+00 -0.00000000000E+00 -0.45807762030E+02  0.45807762030E+02  0.00000000000E+00 0. -1.
         24    2    1    2    0    0  0.28247844576E+02 -0.55099953887E+02  0.35876218404E+02  0.11520996174E+03  0.90290013817E+02 0.  0.
        -13    1    3    3    0    0  0.13117092390E+02  0.21360920883E+02 -0.72980662011E+01  0.26107639189E+02  0.00000000000E+00 0.  1.
         14    1    3    3    0    0  0.15130752186E+02 -0.76460874771E+02  0.43174284605E+02  0.89102322548E+02  0.00000000000E+00 0. -1.
          1    1    1    2  501    0 -0.28247844576E+02  0.55099953887E+02  0.14994175463E+03  0.16222353536E+03  0.00000000000E+00 0. -1.
<mgrwt>
<rscale>  1 0.10948165E+03</rscale>
<asrwt>0</asrwt>
<pdfrwt beam="1">  1       21 0.70473481E-02 0.10948165E+03</pdfrwt>
<pdfrwt beam="2">  1        2 0.35634728E-01 0.10948165E+03</pdfrwt>
<totfact> 0.25993525E+05</totfact>
</mgrwt>
</event>
<event>
 6    2  0.7993170E+000  0.7999916E+02  0.7546771E-02  0.1329054E+00
          2   -1    0    0  502    0 -0.00000000000E+00  0.00000000000E+00  0.14127526437E+04  0.14127526437E+04  0.00000000000E+00 0. -1.
         21   -1    0    0  501  502  0.00000000000E+00 -0.00000000000E+00 -0.19125807176E+01  0.19125807176E+01  0.00000000000E+00 0.  1.
         24    2    1    2    0    0  0.22716115360E+02  0.14704784702E+01  0.99989404442E+03  0.10030892115E+04  0.76692125002E+02 0.  0.
        -13    1    3    3    0    0 -0.12113185594E+02  0.14326793313E+02  0.70491939863E+02  0.72945869366E+02  0.00000000000E+00 0.  1.
         14    1    3    3    0    0  0.34829300954E+02 -0.12856314842E+02  0.92940210456E+03  0.93014334218E+03  0.00000000000E+00 0. -1.
          1    1    1    2  501    0 -0.22716115360E+02 -0.14704784702E+01  0.41094601851E+03  0.41157601282E+03  0.00000000000E+00 0. -1.
<mgrwt>
<rscale>  1 0.79999164E+02</rscale>
<asrwt>0</asrwt>
<pdfrwt beam="1">  1       21 0.29424432E-03 0.79999164E+02</pdfrwt>
<pdfrwt beam="2">  1        2 0.21734573E+00 0.79999164E+02</pdfrwt>
<totfact> 0.45869258E+06</totfact>
</mgrwt>
</event>
<event>
 6    2  0.7993170E+000  0.8709460E+02  0.7546771E-02  0.1310044E+00
         21   -1    0    0  501  502  0.00000000000E+00  0.00000000000E+00  0.34696958080E+01  0.34696958080E+01  0.00000000000E+00 0.  1.
          2   -1    0    0  502    0 -0.00000000000E+00 -0.00000000000E+00 -0.99664544761E+03  0.99664544761E+03  0.00000000000E+00 0. -1.
         24    2    1    2    0    0 -0.10415829995E+02 -0.28484207373E+02 -0.76057810059E+03  0.76554850697E+03  0.81643308643E+02 0.  0.
        -11    1    3    3    0    0 -0.33634608708E+02 -0.16139312249E+02 -0.15599935941E+03  0.16039814351E+03  0.00000000000E+00 0.  1.
         12    1    3    3    0    0  0.23218778713E+02 -0.12344895125E+02 -0.60457874118E+03  0.60515036347E+03  0.00000000000E+00 0. -1.
          1    1    1    2  501    0  0.10415829995E+02  0.28484207373E+02 -0.23259765121E+03  0.23456663644E+03  0.00000000000E+00 0. -1.
<mgrwt>
<rscale>  1 0.87094600E+02</rscale>
<asrwt>0</asrwt>
<pdfrwt beam="1">  1       21 0.53379903E-03 0.87094600E+02</pdfrwt>
<pdfrwt beam="2">  1        2 0.15333016E+00 0.87094600E+02</pdfrwt>
<totfact> 0.31491672E+06</totfact>
</mgrwt>
</event>
<event>
 6    2  0.7993170E+000  0.8943262E+02  0.7546771E-02  0.1304232E+00
         21   -1    0    0  501  502  0.00000000000E+00  0.00000000000E+00  0.10915065155E+02  0.10915065155E+02  0.00000000000E+00 0. -1.
          2   -1    0    0  502    0 -0.00000000000E+00 -0.00000000000E+00 -0.47096422233E+03  0.47096422233E+03  0.00000000000E+00 0. -1.
         24    2    1    2    0    0 -0.21920937694E+02  0.32296846735E+02 -0.20223614016E+03  0.22112813109E+03  0.80464775864E+02 0.  0.
        -13    1    3    3    0    0 -0.31944301655E+02 -0.18940489373E+02 -0.79294961383E+02  0.87560672946E+02  0.00000000000E+00 0.  1.
         14    1    3    3    0    0  0.10023363961E+02  0.51237336108E+02 -0.12294117878E+03  0.13356745815E+03  0.00000000000E+00 0. -1.
          1    1    1    2  501    0  0.21920937694E+02 -0.32296846735E+02 -0.25781301701E+03  0.26075115639E+03  0.00000000000E+00 0. -1.
<mgrwt>
<rscale>  1 0.89432623E+02</rscale>
<asrwt>0</asrwt>
<pdfrwt beam="1">  1       21 0.16792407E-02 0.89432623E+02</pdfrwt>
<pdfrwt beam="2">  1        2 0.72456039E-01 0.89432623E+02</pdfrwt>
<totfact> 0.12739082E+06</totfact>
</mgrwt>
</event>
<event>
 6    2  0.7993170E+000  0.8358071E+02  0.7546771E-02  0.1319186E+00
          2   -1    0    0  502    0 -0.00000000000E+00  0.00000000000E+00  0.28635286034E+04  0.28635286034E+04  0.00000000000E+00 0. -1.
         21   -1    0    0  501  502  0.00000000000E+00 -0.00000000000E+00 -0.13699116978E+01  0.13699116978E+01  0.00000000000E+00 0. -1.
         24    2    1    2    0    0 -0.23626691204E+02 -0.99327563067E+00  0.26674427985E+04  0.26687519215E+04  0.80165627564E+02 0.  0.
        -13    1    3    3    0    0  0.23681357671E+02 -0.20146747378E+02  0.78057502653E+03  0.78119400291E+03  0.00000000000E+00 0.  1.
         14    1    3    3    0    0 -0.47308048874E+02  0.19153471747E+02  0.18868677720E+04  0.18875579186E+04  0.00000000000E+00 0. -1.
          1    1    1    2  501    0  0.23626691204E+02  0.99327563067E+00  0.19471589314E+03  0.19614659359E+03  0.00000000000E+00 0. -1.
<mgrwt>
<rscale>  1 0.83580709E+02</rscale>
<asrwt>0</asrwt>
<pdfrwt beam="1">  1       21 0.21075794E-03 0.83580709E+02</pdfrwt>
<pdfrwt beam="2">  1        2 0.44053807E+00 0.83580709E+02</pdfrwt>
<totfact> 0.13673064E+06</totfact>
</mgrwt>
</event>
<event>
 6    2  0.7993170E+000  0.8185101E+02  0.7546771E-02  0.1323879E+00
         -1   -1    0    0    0  501 -0.00000000000E+00  0.00000000000E+00  0.37938467106E+03  0.37938467106E+03  0.00000000000E+00 0.  1.
         21   -1    0    0  501  502  0.00000000000E+00 -0.00000000000E+00 -0.87147900616E+01  0.87147900616E+01  0.00000000000E+00 0. -1.
         24    2    1    2    0    0 -0.21200414344E+02 -0.49868522993E+01  0.20083576374E+03  0.21687459830E+03  0.78900323988E+02 0.  0.
        -13    1    3    3    0    0 -0.39009586233E+02 -0.19031179413E+02  0.18284190051E+03  0.18792310712E+03  0.00000000000E+00 0.  1.
         14    1    3    3    0    0  0.17809171890E+02  0.14044327113E+02  0.17993863233E+02  0.28951491179E+02  0.00000000000E+00 0. -1.
         -2    1    1    2    0  502  0.21200414344E+02  0.49868522993E+01  0.16983411726E+03  0.17122486282E+03  0.00000000000E+00 0.  1.
<mgrwt>
<rscale>  1 0.81851007E+02</rscale>
<asrwt>0</asrwt>
<pdfrwt beam="1">  1       21 0.13407372E-02 0.81851007E+02</pdfrwt>
<pdfrwt beam="2">  1       -1 0.58366860E-01 0.81851007E+02</pdfrwt>
<totfact> 0.61632640E+05</totfact>
</mgrwt>
</event>
<event>
 6    2  0.7993170E+000  0.8671567E+02  0.7546771E-02  0.1311006E+00
         21   -1    0    0  501  502  0.00000000000E+00  0.00000000000E+00  0.88167072383E+02  0.88167072383E+02  0.00000000000E+00 0.  1.
         -3   -1    0    0    0  501 -0.00000000000E+00 -0.00000000000E+00 -0.77328431930E+02  0.77328431930E+02  0.00000000000E+00 0.  1.
         24    2    1    2    0    0  0.13312604929E+02 -0.24291873208E+02 -0.48967138342E+02  0.99586083656E+02  0.82172299874E+02 0.  0.
        -13    1    3    3    0    0  0.44300221919E+02 -0.25926676407E+02 -0.45076412878E+02  0.68312408898E+02  0.00000000000E+00 0.  1.
         14    1    3    3    0    0 -0.30987616990E+02  0.16348031995E+01 -0.38907254648E+01  0.31273674757E+02  0.00000000000E+00 0. -1.
         -4    1    1    2    0  502 -0.13312604929E+02  0.24291873208E+02  0.59805778795E+02  0.65909420656E+02  0.00000000000E+00 0.  1.
<mgrwt>
<rscale>  1 0.86715670E+02</rscale>
<asrwt>0</asrwt>
<pdfrwt beam="1">  1       21 0.13564165E-01 0.86715670E+02</pdfrwt>
<pdfrwt beam="2">  1       -3 0.11896682E-01 0.86715670E+02</pdfrwt>
<totfact> 0.11652158E+05</totfact>
</mgrwt>
</event>
<event>
 6    2  0.7993170E+000  0.8231810E+02  0.7546771E-02  0.1322599E+00
         21   -1    0    0  501  502  0.00000000000E+00  0.00000000000E+00  0.20639886078E+03  0.20639886078E+03  0.00000000000E+00 0.  1.
         -1   -1    0    0    0  501 -0.00000000000E+00 -0.00000000000E+00 -0.28082260954E+02  0.28082260954E+02  0.00000000000E+00 0.  1.
         24    2    1    2    0    0 -0.23193615572E+01  0.33414316660E+02  0.38806789951E+02  0.91006792854E+02  0.75195567711E+02 0.  0.
        -13    1    3    3    0    0 -0.15379345677E+02  0.36992996475E+01 -0.18992726378E+02  0.24717053760E+02  0.00000000000E+00 0.  1.
         14    1    3    3    0    0  0.13059984120E+02  0.29715017013E+02  0.57799516329E+02  0.66289739094E+02  0.00000000000E+00 0. -1.
         -2    1    1    2    0  502  0.23193615572E+01 -0.33414316660E+02  0.13950980988E+03  0.14347432888E+03  0.00000000000E+00 0.  1.
<mgrwt>
<rscale>  1 0.82318099E+02</rscale>
<asrwt>0</asrwt>
<pdfrwt beam="1">  1       21 0.31753670E-01 0.82318099E+02</pdfrwt>
<pdfrwt beam="2">  1       -1 0.43203480E-02 0.82318099E+02</pdfrwt>
<totfact> 0.17433499E+05</totfact>
</mgrwt>
</event>
<event>
 6    2  0.7993170E+000  0.8320657E+02  0.7546771E-02  0.1320190E+00
         21   -1    0    0  501  502  0.00000000000E+00  0.00000000000E+00  0.42405916291E+01  0.42405916291E+01  0.00000000000E+00 0. -1.
          2   -1    0    0  502    0 -0.00000000000E+00 -0.00000000000E+00 -0.72967669491E+03  0.72967669491E+03  0.00000000000E+00 0. -1.
         24    2    1    2    0    0 -0.21707987515E+02  0.43084248795E+01 -0.64992988233E+03  0.65523445074E+03  0.80209315207E+02 0.  0.
        -13    1    3    3    0    0  0.14999756159E+02 -0.12632892160E+02 -0.46689065213E+02  0.50640413304E+02  0.00000000000E+00 0.  1.
         14    1    3    3    0    0 -0.36707743673E+02  0.16941317039E+02 -0.60324081712E+03  0.60459403744E+03  0.00000000000E+00 0. -1.
          1    1    1    2  501    0  0.21707987515E+02 -0.43084248795E+01 -0.75506220948E+02  0.78682835795E+02  0.00000000000E+00 0. -1.
<mgrwt>
<rscale>  1 0.83206571E+02</rscale>
<asrwt>0</asrwt>
<pdfrwt beam="1">  1       21 0.65239848E-03 0.83206571E+02</pdfrwt>
<pdfrwt beam="2">  1        2 0.11225799E+00 0.83206571E+02</pdfrwt>
<totfact> 0.34015489E+06</totfact>
</mgrwt>
</event>
<event>
 6    2  0.7993170E+000  0.1016783E+03  0.7546771E-02  0.1276806E+00
         21   -1    0    0  501  502  0.00000000000E+00  0.00000000000E+00  0.18800439410E+03  0.18800439410E+03  0.00000000000E+00 0.  1.
         -1   -1    0    0    0  501 -0.00000000000E+00 -0.00000000000E+00 -0.47893624222E+02  0.47893624222E+02  0.00000000000E+00 0.  1.
         24    2    1    2    0    0  0.47905947357E+02  0.35300315331E+02  0.22571250620E+02  0.10415345243E+03  0.82446274894E+02 0.  0.
        -11    1    3    3    0    0  0.57822397258E+02  0.23833423835E+01 -0.76567084482E+01  0.58375809457E+02  0.00000000000E+00 0.  1.
         12    1    3    3    0    0 -0.99164499007E+01  0.32916972948E+02  0.30227959068E+02  0.45777642972E+02  0.00000000000E+00 0. -1.
         -2    1    1    2    0  502 -0.47905947357E+02 -0.35300315331E+02  0.11753951925E+03  0.13174456589E+03  0.00000000000E+00 0.  1.
<mgrwt>
<rscale>  1 0.10167832E+03</rscale>
<asrwt>0</asrwt>
<pdfrwt beam="1">  1       21 0.28923753E-01 0.10167832E+03</pdfrwt>
<pdfrwt beam="2">  1       -1 0.73682500E-02 0.10167832E+03</pdfrwt>
<totfact> 0.96449157E+04</totfact>
</mgrwt>
</event>
<event>
 6    2  0.7993170E+000  0.7714114E+02  0.7546771E-02  0.1337366E+00
         21   -1    0    0  501  502  0.00000000000E+00  0.00000000000E+00  0.20034702109E+02  0.20034702109E+02  0.00000000000E+00 0.  1.
         -1   -1    0    0    0  501 -0.00000000000E+00 -0.00000000000E+00 -0.20615662194E+03  0.20615662194E+03  0.00000000000E+00 0.  1.
         24    2    1    2    0    0  0.28013430612E+02 -0.48154769388E+00 -0.18225499887E+03  0.19790816191E+03  0.71873303494E+02 0.  0.
        -13    1    3    3    0    0  0.69702725190E+01 -0.70773861547E+01 -0.17411964683E+03  0.17440276805E+03  0.00000000000E+00 0.  1.
         14    1    3    3    0    0  0.21043158093E+02  0.65958384608E+01 -0.81353520434E+01  0.23505393858E+02  0.00000000000E+00 0. -1.
         -2    1    1    2    0  502 -0.28013430612E+02  0.48154769388E+00 -0.38669209625E+01  0.28283162139E+02  0.00000000000E+00 0.  1.
<mgrwt>
<rscale>  1 0.77141143E+02</rscale>
<asrwt>0</asrwt>
<pdfrwt beam="1">  1       21 0.30822617E-02 0.77141143E+02</pdfrwt>
<pdfrwt beam="2">  1       -1 0.31716405E-01 0.77141143E+02</pdfrwt>
<totfact> 0.47271735E+05</totfact>
</mgrwt>
</event>
<event>
 6    2  0.7993170E+000  0.8789013E+02  0.7546771E-02  0.1308043E+00
          4   -1    0    0  502    0 -0.00000000000E+00  0.00000000000E+00  0.60773872218E+02  0.60773872218E+02  0.00000000000E+00 0. -1.
         21   -1    0    0  501  502  0.00000000000E+00 -0.00000000000E+00 -0.85309530883E+02  0.85309530883E+02  0.00000000000E+00 0. -1.
         24    2    1    2    0    0  0.42217111913E+02 -0.36924265696E+02 -0.16470067109E+02  0.89420013664E+02  0.67668233297E+02 0.  0.
        -11    1    3    3    0    0  0.17948809749E+02  0.11807186560E+02 -0.26446777884E+02  0.34073471885E+02  0.00000000000E+00 0.  1.
         12    1    3    3    0    0  0.24268302163E+02 -0.48731452256E+02  0.99767107751E+01  0.55346541778E+02  0.00000000000E+00 0. -1.
          3    1    1    2  501    0 -0.42217111913E+02  0.36924265696E+02 -0.80655915556E+01  0.56663389438E+02  0.00000000000E+00 0. -1.
<mgrwt>
<rscale>  1 0.87890134E+02</rscale>
<asrwt>0</asrwt>
<pdfrwt beam="1">  1       21 0.13124543E-01 0.87890134E+02</pdfrwt>
<pdfrwt beam="2">  1        4 0.93498265E-02 0.87890134E+02</pdfrwt>
<totfact> 0.15913003E+05</totfact>
</mgrwt>
</event>
<event>
 6    2  0.7993170E+000  0.8446104E+02  0.7546771E-02  0.1316848E+00
         -1   -1    0    0    0  501 -0.00000000000E+00  0.00000000000E+00  0.46934319491E+03  0.46934319491E+03  0.00000000000E+00 0.  1.
         21   -1    0    0  501  502  0.00000000000E+00 -0.00000000000E+00 -0.10990709072E+02  0.10990709072E+02  0.00000000000E+00 0. -1.
         24    2    1    2    0    0 -0.31079668014E+02 -0.18973752187E+02  0.17139906978E+03  0.19107932403E+03  0.76208384803E+02 0.  0.
        -11    1    3    3    0    0  0.22194823275E+02 -0.15263030374E+02  0.32160457507E+02  0.41950748545E+02  0.00000000000E+00 0.  1.
         12    1    3    3    0    0 -0.53274491289E+02 -0.37107218125E+01  0.13923861227E+03  0.14912857548E+03  0.00000000000E+00 0. -1.
         -2    1    1    2    0  502  0.31079668014E+02  0.18973752187E+02  0.28695341606E+03  0.28925457995E+03  0.00000000000E+00 0.  1.
<mgrwt>
<rscale>  1 0.84461038E+02</rscale>
<asrwt>0</asrwt>
<pdfrwt beam="1">  1       21 0.16908787E-02 0.84461038E+02</pdfrwt>
<pdfrwt beam="2">  1       -1 0.72206630E-01 0.84461038E+02</pdfrwt>
<totfact> 0.28526692E+05</totfact>
</mgrwt>
</event>
<event>
 6    2  0.7993170E+000  0.8224551E+02  0.7546771E-02  0.1322797E+00
         21   -1    0    0  501  502  0.00000000000E+00  0.00000000000E+00  0.38538382088E+02  0.38538382088E+02  0.00000000000E+00 0. -1.
          2   -1    0    0  502    0 -0.00000000000E+00 -0.00000000000E+00 -0.18321144378E+03  0.18321144378E+03  0.00000000000E+00 0. -1.
         24    2    1    2    0    0  0.33266236110E+02 -0.24385613591E+02 -0.15823307038E+03  0.17833123019E+03  0.71154918922E+02 0.  0.
        -13    1    3    3    0    0 -0.82993844220E+01 -0.20127733901E+01  0.39565415896E+01  0.94119742804E+01  0.00000000000E+00 0.  1.
         14    1    3    3    0    0  0.41565620532E+02 -0.22372840201E+02 -0.16218961197E+03  0.16891925591E+03  0.00000000000E+00 0. -1.
          1    1    1    2  501    0 -0.33266236110E+02  0.24385613591E+02  0.13560008682E+02  0.43418595677E+02  0.00000000000E+00 0. -1.
<mgrwt>
<rscale>  1 0.82245505E+02</rscale>
<asrwt>0</asrwt>
<pdfrwt beam="1">  1       21 0.59289819E-02 0.82245505E+02</pdfrwt>
<pdfrwt beam="2">  1        2 0.28186376E-01 0.82245505E+02</pdfrwt>
<totfact> 0.43732164E+05</totfact>
</mgrwt>
</event>
<event>
 6    2  0.7993170E+000  0.8638485E+02  0.7546771E-02  0.1311850E+00
         21   -1    0    0  501  502  0.00000000000E+00  0.00000000000E+00  0.16330304708E+03  0.16330304708E+03  0.00000000000E+00 0.  1.
          4   -1    0    0  502    0 -0.00000000000E+00 -0.00000000000E+00 -0.49390454578E+02  0.49390454578E+02  0.00000000000E+00 0. -1.
         24    2    1    2    0    0 -0.15798209708E+02 -0.25164814562E+02 -0.84293336821E+01  0.86795136996E+02  0.81114060544E+02 0.  0.
        -11    1    3    3    0    0 -0.14552480250E+02  0.92737633021E+01  0.30352254581E+02  0.34914706433E+02  0.00000000000E+00 0.  1.
         12    1    3    3    0    0 -0.12457294589E+01 -0.34438577864E+02 -0.38781588263E+02  0.51880430563E+02  0.00000000000E+00 0. -1.
          3    1    1    2  501    0  0.15798209708E+02  0.25164814562E+02  0.12234192619E+03  0.12589836466E+03  0.00000000000E+00 0. -1.
<mgrwt>
<rscale>  1 0.86384849E+02</rscale>
<asrwt>0</asrwt>
<pdfrwt beam="1">  1       21 0.25123545E-01 0.86384849E+02</pdfrwt>
<pdfrwt beam="2">  1        4 0.75985315E-02 0.86384849E+02</pdfrwt>
<totfact> 0.68742013E+04</totfact>
</mgrwt>
</event>
<event>
 6    2  0.7993170E+000  0.8349668E+02  0.7546771E-02  0.1319411E+00
         21   -1    0    0  501  502  0.00000000000E+00  0.00000000000E+00  0.20726153660E+01  0.20726153660E+01  0.00000000000E+00 0.  1.
          2   -1    0    0  502    0 -0.00000000000E+00 -0.00000000000E+00 -0.15971681462E+04  0.15971681462E+04  0.00000000000E+00 0. -1.
         24    2    1    2    0    0  0.57859452044E+01 -0.21516110377E+02 -0.14541369966E+04  0.14565322175E+04  0.80469097503E+02 0.  0.
        -11    1    3    3    0    0 -0.32418348864E+02  0.58653472864E+01 -0.40279281388E+03  0.40413785093E+03  0.00000000000E+00 0.  1.
         12    1    3    3    0    0  0.38204294068E+02 -0.27381457663E+02 -0.10513441827E+04  0.10523943666E+04  0.00000000000E+00 0. -1.
          1    1    1    2  501    0 -0.57859452044E+01  0.21516110377E+02 -0.14095853425E+03  0.14270854405E+03  0.00000000000E+00 0. -1.
<mgrwt>
<rscale>  1 0.83496681E+02</rscale>
<asrwt>0</asrwt>
<pdfrwt beam="1">  1       21 0.31886426E-03 0.83496681E+02</pdfrwt>
<pdfrwt beam="2">  1        2 0.24571790E+00 0.83496681E+02</pdfrwt>
<totfact> 0.32878613E+06</totfact>
</mgrwt>
</event>
<event>
 6    2  0.7993170E+000  0.8945124E+02  0.7546771E-02  0.1304186E+00
         -1   -1    0    0    0  501 -0.00000000000E+00  0.00000000000E+00  0.10945462172E+03  0.10945462172E+03  0.00000000000E+00 0.  1.
         21   -1    0    0  501  502  0.00000000000E+00 -0.00000000000E+00 -0.40269133132E+02  0.40269133132E+02  0.00000000000E+00 0.  1.
         24    2    1    2    0    0 -0.32597530406E+02 -0.22841502603E+01  0.74754523485E+02  0.11657514281E+03  0.83268894605E+02 0.  0.
        -11    1    3    3    0    0  0.24616520625E+01  0.22428794669E+02  0.69847589910E+02  0.73401610182E+02  0.00000000000E+00 0.  1.
         12    1    3    3    0    0 -0.35059182468E+02 -0.24712944930E+02  0.49069335749E+01  0.43173532627E+02  0.00000000000E+00 0. -1.
         -2    1    1    2    0  502  0.32597530406E+02  0.22841502603E+01 -0.55690348922E+01  0.33148612046E+02  0.00000000000E+00 0.  1.
<mgrwt>
<rscale>  1 0.89451244E+02</rscale>
<asrwt>0</asrwt>
<pdfrwt beam="1">  1       21 0.61952513E-02 0.89451244E+02</pdfrwt>
<pdfrwt beam="2">  1       -1 0.16839172E-01 0.89451244E+02</pdfrwt>
<totfact> 0.42064253E+05</totfact>
</mgrwt>
</event>
<event>
 6    2  0.7993170E+000  0.8417575E+02  0.7546771E-02  0.1317602E+00
         21   -1    0    0  501  502  0.00000000000E+00  0.00000000000E+00  0.17949756588E+03  0.17949756588E+03  0.00000000000E+00 0.  1.
         -1   -1    0    0    0  501 -0.00000000000E+00 -0.00000000000E+00 -0.54864635931E+02  0.54864635931E+02  0.00000000000E+00 0.  1.
         24    2    1    2    0    0  0.50322130894E+01  0.19467082051E+02 -0.21479281807E+02  0.86872985676E+02  0.81739009299E+02 0.  0.
        -11    1    3    3    0    0  0.10888179489E+02  0.19364074088E+02 -0.51604803870E+02  0.56183410366E+02  0.00000000000E+00 0.  1.
         12    1    3    3    0    0 -0.58559663996E+01  0.10300796355E+00  0.30125522064E+02  0.30689575310E+02  0.00000000000E+00 0. -1.
         -2    1    1    2    0  502 -0.50322130894E+01 -0.19467082051E+02  0.14611221176E+03  0.14748921614E+03  0.00000000000E+00 0.  1.
<mgrwt>
<rscale>  1 0.84175745E+02</rscale>
<asrwt>0</asrwt>
<pdfrwt beam="1">  1       21 0.27615010E-01 0.84175745E+02</pdfrwt>
<pdfrwt beam="2">  1       -1 0.84407133E-02 0.84175745E+02</pdfrwt>
<totfact> 0.85037756E+04</totfact>
</mgrwt>
</event>
<event>
 6    2  0.7993170E+000  0.8322952E+02  0.7546771E-02  0.1320129E+00
         21   -1    0    0  501  502  0.00000000000E+00  0.00000000000E+00  0.89200085690E+02  0.89200085690E+02  0.00000000000E+00 0.  1.
         -3   -1    0    0    0  501 -0.00000000000E+00 -0.00000000000E+00 -0.13381889441E+03  0.13381889441E+03  0.00000000000E+00 0.  1.
         24    2    1    2    0    0  0.26299648687E+02 -0.16260334871E+02 -0.11741876984E+03  0.14392470501E+03  0.77272784276E+02 0.  0.
        -13    1    3    3    0    0  0.49487675456E+02 -0.24339022013E+02 -0.98647614030E+02  0.11301667916E+03  0.00000000000E+00 0.  1.
         14    1    3    3    0    0 -0.23188026769E+02  0.80786871426E+01 -0.18771155812E+02  0.30908025849E+02  0.00000000000E+00 0. -1.
         -4    1    1    2    0  502 -0.26299648687E+02  0.16260334871E+02  0.72799961127E+02  0.79094275086E+02  0.00000000000E+00 0.  1.
<mgrwt>
<rscale>  1 0.83229521E+02</rscale>
<asrwt>0</asrwt>
<pdfrwt beam="1">  1       21 0.13723090E-01 0.83229521E+02</pdfrwt>
<pdfrwt beam="2">  1       -3 0.20587522E-01 0.83229521E+02</pdfrwt>
<totfact> 0.44709074E+04</totfact>
</mgrwt>
</event>
<event>
 6    2  0.7993170E+000  0.1119792E+03  0.7546771E-02  0.1256948E+00
         -1   -1    0    0    0  501 -0.00000000000E+00  0.00000000000E+00  0.20240979608E+03  0.20240979608E+03  0.00000000000E+00 0.  1.
         21   -1    0    0  501  502  0.00000000000E+00 -0.00000000000E+00 -0.74149088949E+02  0.74149088949E+02  0.00000000000E+00 0.  1.
         24    2    1    2    0    0 -0.31666127510E+02  0.75578753563E+02  0.15423312281E+03  0.19059692833E+03  0.76318027338E+02 0.  0.
        -11    1    3    3    0    0 -0.23053362851E+02  0.67710344601E+02  0.16165353679E+03  0.17677107869E+03  0.00000000000E+00 0.  1.
         12    1    3    3    0    0 -0.86127646588E+01  0.78684089615E+01 -0.74204139811E+01  0.13825849641E+02  0.00000000000E+00 0. -1.
         -2    1    1    2    0  502  0.31666127510E+02 -0.75578753563E+02 -0.25972415685E+02  0.85961956690E+02  0.00000000000E+00 0.  1.
<mgrwt>
<rscale>  1 0.11197916E+03</rscale>
<asrwt>0</asrwt>
<pdfrwt beam="1">  1       21 0.11407552E-01 0.11197916E+03</pdfrwt>
<pdfrwt beam="2">  1       -1 0.31139968E-01 0.11197916E+03</pdfrwt>
<totfact> 0.55393144E+04</totfact>
</mgrwt>
</event>
<event>
 6    2  0.7993170E+000  0.8208942E+02  0.7546771E-02  0.1323224E+00
         -1   -1    0    0    0  501 -0.00000000000E+00  0.00000000000E+00  0.10129164900E+03  0.10129164900E+03  0.00000000000E+00 0.  1.
         21   -1    0    0  501  502  0.00000000000E+00 -0.00000000000E+00 -0.30725146828E+02  0.30725146828E+02  0.00000000000E+00 0.  1.
         24    2    1    2    0    0  0.13804731416E+02  0.18996597698E+02  0.70993767187E+02  0.10853012112E+03  0.78658952939E+02 0.  0.
        -13    1    3    3    0    0 -0.26832327944E+01 -0.28512948060E+02  0.40881500010E+02  0.49914777255E+02  0.00000000000E+00 0.  1.
         14    1    3    3    0    0  0.16487964211E+02  0.47509545758E+02  0.30112267177E+02  0.58615343866E+02  0.00000000000E+00 0. -1.
         -2    1    1    2    0  502 -0.13804731416E+02 -0.18996597698E+02 -0.42726501177E+00  0.23486674711E+02  0.00000000000E+00 0.  1.
<mgrwt>
<rscale>  1 0.82089416E+02</rscale>
<asrwt>0</asrwt>
<pdfrwt beam="1">  1       21 0.47269457E-02 0.82089416E+02</pdfrwt>
<pdfrwt beam="2">  1       -1 0.15583330E-01 0.82089416E+02</pdfrwt>
<totfact> 0.73805316E+05</totfact>
</mgrwt>
</event>
<event>
 6    2  0.7993170E+000  0.8280834E+02  0.7546771E-02  0.1321266E+00
         -3   -1    0    0    0  501 -0.00000000000E+00  0.00000000000E+00  0.23513053777E+03  0.23513053777E+03  0.00000000000E+00 0.  1.
         21   -1    0    0  501  502  0.00000000000E+00 -0.00000000000E+00 -0.11618607030E+02  0.11618607030E+02  0.00000000000E+00 0. -1.
         24    2    1    2    0    0 -0.20263124069E+02  0.44309401736E+01  0.19107869066E+03  0.20825054106E+03  0.80168537465E+02 0.  0.
        -11    1    3    3    0    0  0.13577927703E+02  0.24452926269E+02  0.14501118477E+03  0.14768395117E+03  0.00000000000E+00 0.  1.
         12    1    3    3    0    0 -0.33841051772E+02 -0.20021986095E+02  0.46067505890E+02  0.60566589892E+02  0.00000000000E+00 0. -1.
         -4    1    1    2    0  502  0.20263124069E+02 -0.44309401736E+01  0.32433240075E+02  0.38498603736E+02  0.00000000000E+00 0.  1.
<mgrwt>
<rscale>  1 0.82808344E+02</rscale>
<asrwt>0</asrwt>
<pdfrwt beam="1">  1       21 0.17874782E-02 0.82808344E+02</pdfrwt>
<pdfrwt beam="2">  1       -3 0.36173925E-01 0.82808344E+02</pdfrwt>
<totfact> 0.48125913E+05</totfact>
</mgrwt>
</event>
<event>
 6    2  0.7993170E+000  0.8498465E+02  0.7546771E-02  0.1315473E+00
         21   -1    0    0  501  502  0.00000000000E+00  0.00000000000E+00  0.10754901712E+01  0.10754901712E+01  0.00000000000E+00 0.  1.
          2   -1    0    0  502    0 -0.00000000000E+00 -0.00000000000E+00 -0.29694122529E+04  0.29694122529E+04  0.00000000000E+00 0. -1.
         24    2    1    2    0    0  0.53602095805E+01 -0.27517370343E+02 -0.22430428343E+04  0.22446522106E+04  0.80227506065E+02 0.  0.
        -13    1    3    3    0    0  0.26543091167E+02 -0.46306210077E+02 -0.11436477321E+04  0.11448925434E+04  0.00000000000E+00 0.  1.
         14    1    3    3    0    0 -0.21182881587E+02  0.18788839734E+02 -0.10993951022E+04  0.10997596672E+04  0.00000000000E+00 0. -1.
          1    1    1    2  501    0 -0.53602095805E+01  0.27517370343E+02 -0.72529392844E+03  0.72583553244E+03  0.00000000000E+00 0. -1.
<mgrwt>
<rscale>  1 0.84984647E+02</rscale>
<asrwt>0</asrwt>
<pdfrwt beam="1">  1       21 0.16545946E-03 0.84984647E+02</pdfrwt>
<pdfrwt beam="2">  1        2 0.45683421E+00 0.84984647E+02</pdfrwt>
<totfact> 0.17136427E+06</totfact>
</mgrwt>
</event>
<event>
 6    2  0.7993170E+000  0.9318550E+02  0.7546771E-02  0.1295316E+00
         21   -1    0    0  501  502  0.00000000000E+00  0.00000000000E+00  0.80868730289E+03  0.80868730289E+03  0.00000000000E+00 0.  1.
         -1   -1    0    0    0  501 -0.00000000000E+00 -0.00000000000E+00 -0.40672265887E+01  0.40672265887E+01  0.00000000000E+00 0.  1.
         24    2    1    2    0    0 -0.19015834715E+02  0.98637784141E+01  0.66665916046E+03  0.67314038122E+03  0.90689803770E+02 0.  0.
        -11    1    3    3    0    0 -0.53776326975E+02  0.41709987497E+01  0.30153544045E+03  0.30632158334E+03  0.00000000000E+00 0.  1.
         12    1    3    3    0    0  0.34760492259E+02  0.56927796644E+01  0.36512372001E+03  0.36681879788E+03  0.00000000000E+00 0. -1.
         -2    1    1    2    0  502  0.19015834715E+02 -0.98637784141E+01  0.13796091584E+03  0.13961414826E+03  0.00000000000E+00 0.  1.
<mgrwt>
<rscale>  1 0.93185496E+02</rscale>
<asrwt>0</asrwt>
<pdfrwt beam="1">  1       21 0.12441330E+00 0.93185496E+02</pdfrwt>
<pdfrwt beam="2">  1       -1 0.62572781E-03 0.93185496E+02</pdfrwt>
<totfact> 0.14903445E+05</totfact>
</mgrwt>
</event>
<event>
 6    2  0.7993170E+000  0.1017424E+03  0.7546771E-02  0.1276674E+00
          2   -1    0    0  502    0 -0.00000000000E+00  0.00000000000E+00  0.18201344897E+03  0.18201344897E+03  0.00000000000E+00 0. -1.
         21   -1    0    0  501  502  0.00000000000E+00 -0.00000000000E+00 -0.22823576209E+02  0.22823576209E+02  0.00000000000E+00 0.  1.
         24    2    1    2    0    0  0.21455583565E+02  0.16653850712E+02  0.12505730716E+03  0.16121679084E+03  0.98050144128E+02 0.  0.
        -11    1    3    3    0    0  0.60178712945E+02  0.11231860797E+02  0.89047344211E+02  0.10806045391E+03  0.00000000000E+00 0.  1.
         12    1    3    3    0    0 -0.38723129379E+02  0.54219899152E+01  0.36009962949E+02  0.53156336924E+02  0.00000000000E+00 0. -1.
          1    1    1    2  501    0 -0.21455583565E+02 -0.16653850712E+02  0.34132565599E+02  0.43620234342E+02  0.00000000000E+00 0. -1.
<mgrwt>
<rscale>  1 0.10174244E+03</rscale>
<asrwt>0</asrwt>
<pdfrwt beam="1">  1       21 0.35113195E-02 0.10174244E+03</pdfrwt>
<pdfrwt beam="2">  1        2 0.28002068E-01 0.10174244E+03</pdfrwt>
<totfact> 0.10712744E+06</totfact>
</mgrwt>
</event>
<event>
 6    2  0.7993170E+000  0.8363287E+02  0.7546771E-02  0.1319047E+00
          2   -1    0    0  502    0 -0.00000000000E+00  0.00000000000E+00  0.18466898741E+04  0.18466898741E+04  0.00000000000E+00 0. -1.
         21   -1    0    0  501  502  0.00000000000E+00 -0.00000000000E+00 -0.44302105088E+01  0.44302105088E+01  0.00000000000E+00 0. -1.
         24    2    1    2    0    0 -0.19831895443E+02 -0.77028210064E+01  0.18130801638E+04  0.18150080265E+04  0.80881509628E+02 0.  0.
        -11    1    3    3    0    0  0.22173864825E+02  0.10382218695E+02  0.23636107160E+03  0.23762581281E+03  0.00000000000E+00 0.  1.
         12    1    3    3    0    0 -0.42005760268E+02 -0.18085039701E+02  0.15767190922E+04  0.15773822137E+04  0.00000000000E+00 0. -1.
          1    1    1    2  501    0  0.19831895443E+02  0.77028210064E+01  0.29179499804E+02  0.36112058057E+02  0.00000000000E+00 0. -1.
<mgrwt>
<rscale>  1 0.83632865E+02</rscale>
<asrwt>0</asrwt>
<pdfrwt beam="1">  1       21 0.68157232E-03 0.83632865E+02</pdfrwt>
<pdfrwt beam="2">  1        2 0.28410552E+00 0.83632865E+02</pdfrwt>
<totfact> 0.77316739E+05</totfact>
</mgrwt>
</event>
<event>
 6    2  0.7993170E+000  0.1071272E+03  0.7546771E-02  0.1265984E+00
          2   -1    0    0  502    0 -0.00000000000E+00  0.00000000000E+00  0.15833399174E+04  0.15833399174E+04  0.00000000000E+00 0. -1.
         21   -1    0    0  501  502  0.00000000000E+00 -0.00000000000E+00 -0.57673976788E+01  0.57673976788E+01  0.00000000000E+00 0.  1.
         24    2    1    2    0    0  0.21099244924E+02 -0.68218467219E+02  0.64792589824E+03  0.65672232044E+03  0.79857993595E+02 0.  0.
        -11    1    3    3    0    0  0.12442115596E+02 -0.82289770160E+02  0.41806172335E+03  0.42626519568E+03  0.00000000000E+00 0.  1.
         12    1    3    3    0    0  0.86571293288E+01  0.14071302941E+02  0.22986417489E+03  0.23045712476E+03  0.00000000000E+00 0. -1.
          1    1    1    2  501    0 -0.21099244924E+02  0.68218467219E+02  0.92964662149E+03  0.93238499466E+03  0.00000000000E+00 0. -1.
<mgrwt>
<rscale>  1 0.10712720E+03</rscale>
<asrwt>0</asrwt>
<pdfrwt beam="1">  1       21 0.88729322E-03 0.10712720E+03</pdfrwt>
<pdfrwt beam="2">  1        2 0.24359041E+00 0.10712720E+03</pdfrwt>
<totfact> 0.70495197E+05</totfact>
</mgrwt>
</event>
<event>
 6    2  0.7993170E+000  0.8172476E+02  0.7546771E-02  0.1324227E+00
         21   -1    0    0  501  502  0.00000000000E+00  0.00000000000E+00  0.23139618253E+01  0.23139618253E+01  0.00000000000E+00 0. -1.
          2   -1    0    0  502    0 -0.00000000000E+00 -0.00000000000E+00 -0.11809663996E+04  0.11809663996E+04  0.00000000000E+00 0. -1.
         24    2    1    2    0    0  0.31843467431E+01 -0.21131458411E+02 -0.84445234633E+03  0.84839772569E+03  0.78881285020E+02 0.  0.
        -13    1    3    3    0    0  0.51269162271E+01  0.24748956029E+02 -0.12777764995E+03  0.13025330676E+03  0.00000000000E+00 0.  1.
         14    1    3    3    0    0 -0.19425694840E+01 -0.45880414440E+02 -0.71667469638E+03  0.71814441893E+03  0.00000000000E+00 0. -1.
          1    1    1    2  501    0 -0.31843467431E+01  0.21131458411E+02 -0.33420009141E+03  0.33488263571E+03  0.00000000000E+00 0. -1.
<mgrwt>
<rscale>  1 0.81724756E+02</rscale>
<asrwt>0</asrwt>
<pdfrwt beam="1">  1       21 0.35599341E-03 0.81724756E+02</pdfrwt>
<pdfrwt beam="2">  1        2 0.18168750E+00 0.81724756E+02</pdfrwt>
<totfact> 0.45668891E+06</totfact>
</mgrwt>
</event>
<event>
 6    2  0.7993170E+000  0.8949640E+02  0.7546771E-02  0.1304076E+00
         -1   -1    0    0    0  501 -0.00000000000E+00  0.00000000000E+00  0.10337941732E+04  0.10337941732E+04  0.00000000000E+00 0.  1.
         21   -1    0    0  501  502  0.00000000000E+00 -0.00000000000E+00 -0.48031395816E+01  0.48031395816E+01  0.00000000000E+00 0. -1.
         24    2    1    2    0    0 -0.11897311165E+02  0.35680761342E+02  0.47678790529E+03  0.48511474062E+03  0.81209249474E+02 0.  0.
        -13    1    3    3    0    0 -0.15054019352E+02 -0.17950012750E+02  0.28449908737E+03  0.28546200653E+03  0.00000000000E+00 0.  1.
         14    1    3    3    0    0  0.31567081873E+01  0.53630774092E+02  0.19228881791E+03  0.19965273409E+03  0.00000000000E+00 0. -1.
         -2    1    1    2    0  502  0.11897311165E+02 -0.35680761342E+02  0.55220312831E+03  0.55348257214E+03  0.00000000000E+00 0.  1.
<mgrwt>
<rscale>  1 0.89496396E+02</rscale>
<asrwt>0</asrwt>
<pdfrwt beam="1">  1       21 0.73894537E-03 0.89496396E+02</pdfrwt>
<pdfrwt beam="2">  1       -1 0.15904508E+00 0.89496396E+02</pdfrwt>
<totfact> 0.17737079E+05</totfact>
</mgrwt>
</event>
<event>
 6    2  0.7993170E+000  0.8454434E+02  0.7546771E-02  0.1316628E+00
         21   -1    0    0  501  502  0.00000000000E+00  0.00000000000E+00  0.77863306882E+03  0.77863306882E+03  0.00000000000E+00 0. -1.
          4   -1    0    0  502    0 -0.00000000000E+00 -0.00000000000E+00 -0.39531863138E+01  0.39531863138E+01  0.00000000000E+00 0. -1.
         24    2    1    2    0    0 -0.21519579701E+02  0.15316987742E+02  0.58800548471E+03  0.59405235045E+03  0.80312157224E+02 0.  0.
        -11    1    3    3    0    0  0.40445937565E+01 -0.31093121402E+02  0.19902490150E+03  0.20147965742E+03  0.00000000000E+00 0.  1.
         12    1    3    3    0    0 -0.25564173458E+02  0.46410109144E+02  0.38898058322E+03  0.39257269303E+03  0.00000000000E+00 0. -1.
          3    1    1    2  501    0  0.21519579701E+02 -0.15316987742E+02  0.18667439780E+03  0.18853390469E+03  0.00000000000E+00 0. -1.
<mgrwt>
<rscale>  1 0.84544338E+02</rscale>
<asrwt>0</asrwt>
<pdfrwt beam="1">  1       21 0.11978958E+00 0.84544338E+02</pdfrwt>
<pdfrwt beam="2">  1        4 0.60818313E-03 0.84544338E+02</pdfrwt>
<totfact> 0.12705758E+05</totfact>
</mgrwt>
</event>
<event>
 6    2  0.7993170E+000  0.8396492E+02  0.7546771E-02  0.1318162E+00
          2   -1    0    0  502    0 -0.00000000000E+00  0.00000000000E+00  0.20419568821E+04  0.20419568821E+04  0.00000000000E+00 0. -1.
         21   -1    0    0  501  502  0.00000000000E+00 -0.00000000000E+00 -0.67706658268E+01  0.67706658268E+01  0.00000000000E+00 0. -1.
         24    2    1    2    0    0  0.26377623384E+02 -0.38962954697E+01  0.20109276232E+04  0.20126798091E+04  0.79618767782E+02 0.  0.
        -11    1    3    3    0    0 -0.26439885472E+02 -0.13173093448E+02  0.58708968076E+03  0.58783236657E+03  0.00000000000E+00 0.  1.
         12    1    3    3    0    0  0.52817508856E+02  0.92767979780E+01  0.14238379424E+04  0.14248474425E+04  0.00000000000E+00 0. -1.
          1    1    1    2  501    0 -0.26377623384E+02  0.38962954697E+01  0.24258593034E+02  0.36047738761E+02  0.00000000000E+00 0. -1.
<mgrwt>
<rscale>  1 0.83964923E+02</rscale>
<asrwt>0</asrwt>
<pdfrwt beam="1">  1       21 0.10416425E-02 0.83964923E+02</pdfrwt>
<pdfrwt beam="2">  1        2 0.31414672E+00 0.83964923E+02</pdfrwt>
<totfact> 0.31972646E+05</totfact>
</mgrwt>
</event>
<event>
 6    2  0.7993170E+000  0.9485185E+02  0.7546771E-02  0.1291510E+00
          4   -1    0    0  502    0 -0.00000000000E+00  0.00000000000E+00  0.82555208631E+03  0.82555208631E+03  0.00000000000E+00 0. -1.
         21   -1    0    0  501  502  0.00000000000E+00 -0.00000000000E+00 -0.66521266615E+01  0.66521266615E+01  0.00000000000E+00 0.  1.
         24    2    1    2    0    0 -0.52736035023E+02  0.80067480383E+01  0.53058662249E+03  0.53899817997E+03  0.78432624864E+02 0.  0.
        -11    1    3    3    0    0  0.82828124160E+01 -0.10084973885E+02  0.16743975251E+02  0.21229045833E+02  0.00000000000E+00 0.  1.
         12    1    3    3    0    0 -0.61018847439E+02  0.18091721923E+02  0.51384264724E+03  0.51776913414E+03  0.00000000000E+00 0. -1.
          3    1    1    2  501    0  0.52736035023E+02 -0.80067480383E+01  0.28831333716E+03  0.29320603300E+03  0.00000000000E+00 0. -1.
<mgrwt>
<rscale>  1 0.94851853E+02</rscale>
<asrwt>0</asrwt>
<pdfrwt beam="1">  1       21 0.10234048E-02 0.94851853E+02</pdfrwt>
<pdfrwt beam="2">  1        4 0.12700793E+00 0.94851853E+02</pdfrwt>
<totfact> 0.66753552E+04</totfact>
</mgrwt>
</event>
<event>
 6    2  0.7993170E+000  0.8972035E+02  0.7546771E-02  0.1303530E+00
          2   -1    0    0  502    0 -0.00000000000E+00  0.00000000000E+00  0.31567616558E+04  0.31567616558E+04  0.00000000000E+00 0. -1.
         21   -1    0    0  501  502  0.00000000000E+00 -0.00000000000E+00 -0.18236574837E+01  0.18236574837E+01  0.00000000000E+00 0.  1.
         24    2    1    2    0    0  0.42613445883E+02  0.15513419626E+01  0.27386057279E+04  0.27400750125E+04  0.78939401266E+02 0.  0.
        -11    1    3    3    0    0  0.46324586498E+02 -0.23283356418E+02  0.10469977987E+04  0.10482807222E+04  0.00000000000E+00 0.  1.
         12    1    3    3    0    0 -0.37111406152E+01  0.24834698381E+02  0.16916079292E+04  0.16917942903E+04  0.00000000000E+00 0. -1.
          1    1    1    2  501    0 -0.42613445883E+02 -0.15513419626E+01  0.41633227046E+03  0.41851030078E+03  0.00000000000E+00 0. -1.
<mgrwt>
<rscale>  1 0.89720352E+02</rscale>
<asrwt>0</asrwt>
<pdfrwt beam="1">  1       21 0.28056522E-03 0.89720352E+02</pdfrwt>
<pdfrwt beam="2">  1        2 0.48565127E+00 0.89720352E+02</pdfrwt>
<totfact> 0.60615163E+05</totfact>
</mgrwt>
</event>
<event>
 6    2  0.7993170E+000  0.8285503E+02  0.7546771E-02  0.1321139E+00
         21   -1    0    0  501  502  0.00000000000E+00  0.00000000000E+00  0.18374069122E+01  0.18374069122E+01  0.00000000000E+00 0.  1.
          2   -1    0    0  502    0 -0.00000000000E+00 -0.00000000000E+00 -0.15543079810E+04  0.15543079810E+04  0.00000000000E+00 0. -1.
         24    2    1    2    0    0 -0.35887165173E+01 -0.21890712331E+02 -0.13277224742E+04  0.13303051998E+04  0.79830281802E+02 0.  0.
        -11    1    3    3    0    0 -0.12630055029E+02 -0.20585334871E+02 -0.11316638536E+03  0.11571475739E+03  0.00000000000E+00 0.  1.
         12    1    3    3    0    0  0.90413385118E+01 -0.13053774600E+01 -0.12145560889E+04  0.12145904424E+04  0.00000000000E+00 0. -1.
          1    1    1    2  501    0  0.35887165173E+01  0.21890712331E+02 -0.22474809988E+03  0.22584018812E+03  0.00000000000E+00 0. -1.
<mgrwt>
<rscale>  1 0.82855030E+02</rscale>
<asrwt>0</asrwt>
<pdfrwt beam="1">  1       21 0.28267779E-03 0.82855030E+02</pdfrwt>
<pdfrwt beam="2">  1        2 0.23912447E+00 0.82855030E+02</pdfrwt>
<totfact> 0.41420410E+06</totfact>
</mgrwt>
</event>
<event>
 6    2  0.7993170E+000  0.9408968E+02  0.7546771E-02  0.1293240E+00
         21   -1    0    0  501  502  0.00000000000E+00  0.00000000000E+00  0.10352604914E+03  0.10352604914E+03  0.00000000000E+00 0.  1.
          2   -1    0    0  502    0 -0.00000000000E+00 -0.00000000000E+00 -0.49646940611E+02  0.49646940611E+02  0.00000000000E+00 0. -1.
         24    2    1    2    0    0 -0.28635211122E+02  0.40107402009E+02  0.36367892484E+02  0.10087364273E+03  0.80151663624E+02 0.  0.
        -11    1    3    3    0    0 -0.97712181835E+01 -0.11806636024E+02  0.42614418371E+02  0.45286444022E+02  0.00000000000E+00 0.  1.
         12    1    3    3    0    0 -0.18863992938E+02  0.51914038033E+02 -0.62465258871E+01  0.55587198707E+02  0.00000000000E+00 0. -1.
          1    1    1    2  501    0  0.28635211122E+02 -0.40107402009E+02  0.17511216049E+02  0.52299347027E+02  0.00000000000E+00 0. -1.
<mgrwt>
<rscale>  1 0.94089682E+02</rscale>
<asrwt>0</asrwt>
<pdfrwt beam="1">  1       21 0.15927084E-01 0.94089682E+02</pdfrwt>
<pdfrwt beam="2">  1        2 0.76379909E-02 0.94089682E+02</pdfrwt>
<totfact> 0.36324403E+05</totfact>
</mgrwt>
</event>
<event>
 6    2  0.7993170E+000  0.8574662E+02  0.7546771E-02  0.1313491E+00
         21   -1    0    0  501  502  0.00000000000E+00  0.00000000000E+00  0.29074952410E+03  0.29074952410E+03  0.00000000000E+00 0. -1.
          4   -1    0    0  502    0 -0.00000000000E+00 -0.00000000000E+00 -0.14841879364E+02  0.14841879364E+02  0.00000000000E+00 0. -1.
         24    2    1    2    0    0 -0.27311226456E+02  0.55783943922E+01  0.12163444200E+03  0.14882009660E+03  0.81089223057E+02 0.  0.
        -13    1    3    3    0    0  0.27201531933E+02 -0.52305826669E+01  0.58394300248E+02  0.64631081037E+02  0.00000000000E+00 0.  1.
         14    1    3    3    0    0 -0.54512758389E+02  0.10808977059E+02  0.63240141753E+02  0.84189015561E+02  0.00000000000E+00 0. -1.
          3    1    1    2  501    0  0.27311226456E+02 -0.55783943922E+01  0.15427320274E+03  0.15677130687E+03  0.00000000000E+00 0. -1.
<mgrwt>
<rscale>  1 0.85746625E+02</rscale>
<asrwt>0</asrwt>
<pdfrwt beam="1">  1       21 0.44730692E-01 0.85746625E+02</pdfrwt>
<pdfrwt beam="2">  1        4 0.22833663E-02 0.85746625E+02</pdfrwt>
<totfact> 0.15009564E+05</totfact>
</mgrwt>
</event>
<event>
 6    2  0.7993170E+000  0.7736189E+02  0.7546771E-02  0.1336709E+00
          2   -1    0    0  502    0 -0.00000000000E+00  0.00000000000E+00  0.70009329371E+03  0.70009329371E+03  0.00000000000E+00 0. -1.
         21   -1    0    0  501  502  0.00000000000E+00 -0.00000000000E+00 -0.40897106209E+01  0.40897106209E+01  0.00000000000E+00 0.  1.
         24    2    1    2    0    0  0.18568922935E+02  0.17373333189E+02  0.42454667089E+03  0.43153764350E+03  0.73063153394E+02 0.  0.
        -11    1    3    3    0    0  0.74418137632E+01  0.41484238495E+02  0.15310190458E+03  0.15879709010E+03  0.00000000000E+00 0.  1.
         12    1    3    3    0    0  0.11127109172E+02 -0.24110905307E+02  0.27144476631E+03  0.27274055340E+03  0.00000000000E+00 0. -1.
          1    1    1    2  501    0 -0.18568922935E+02 -0.17373333189E+02  0.27145691220E+03  0.27264536084E+03  0.00000000000E+00 0. -1.
<mgrwt>
<rscale>  1 0.77361890E+02</rscale>
<asrwt>0</asrwt>
<pdfrwt beam="1">  1       21 0.62918680E-03 0.77361890E+02</pdfrwt>
<pdfrwt beam="2">  1        2 0.10770657E+00 0.77361890E+02</pdfrwt>
<totfact> 0.37407009E+06</totfact>
</mgrwt>
</event>
<event>
 6    2  0.7993170E+000  0.8435322E+02  0.7546771E-02  0.1317133E+00
          4   -1    0    0  502    0 -0.00000000000E+00  0.00000000000E+00  0.47473506870E+03  0.47473506870E+03  0.00000000000E+00 0. -1.
         21   -1    0    0  501  502  0.00000000000E+00 -0.00000000000E+00 -0.22147233722E+02  0.22147233722E+02  0.00000000000E+00 0. -1.
         24    2    1    2    0    0  0.23303298998E+02  0.15953665639E+02  0.46001162626E+03  0.46768168825E+03  0.79485231556E+02 0.  0.
        -11    1    3    3    0    0  0.23678113906E+02  0.37934280237E+02  0.14117252053E+03  0.14808559433E+03  0.00000000000E+00 0.  1.
         12    1    3    3    0    0 -0.37481490761E+00 -0.21980614598E+02  0.31883910573E+03  0.31959609391E+03  0.00000000000E+00 0. -1.
          3    1    1    2  501    0 -0.23303298998E+02 -0.15953665639E+02 -0.74237912784E+01  0.29200614180E+02  0.00000000000E+00 0. -1.
<mgrwt>
<rscale>  1 0.84353217E+02</rscale>
<asrwt>0</asrwt>
<pdfrwt beam="1">  1       21 0.34072671E-02 0.84353217E+02</pdfrwt>
<pdfrwt beam="2">  1        4 0.73036157E-01 0.84353217E+02</pdfrwt>
<totfact> 0.33775843E+04</totfact>
</mgrwt>
</event>
<event>
 6    2  0.7993170E+000  0.1322790E+03  0.7546771E-02  0.1224113E+00
          2   -1    0    0  502    0 -0.00000000000E+00  0.00000000000E+00  0.22335644708E+04  0.22335644708E+04  0.00000000000E+00 0. -1.
         21   -1    0    0  501  502  0.00000000000E+00 -0.00000000000E+00 -0.10749781875E+02  0.10749781875E+02  0.00000000000E+00 0. -1.
         24    2    1    2    0    0 -0.92215321741E+02  0.50684694400E+02  0.19038673031E+04  0.19084570825E+04  0.80156872749E+02 0.  0.
        -13    1    3    3    0    0 -0.49975233769E+02 -0.99016198142E+01  0.11078223800E+04  0.11089932334E+04  0.00000000000E+00 0.  1.
         14    1    3    3    0    0 -0.42240087972E+02  0.60586314214E+02  0.79604492311E+03  0.79946384916E+03  0.00000000000E+00 0. -1.
          1    1    1    2  501    0  0.92215321741E+02 -0.50684694400E+02  0.31894738582E+03  0.33585717014E+03  0.00000000000E+00 0. -1.
<mgrwt>
<rscale>  1 0.13227898E+03</rscale>
<asrwt>0</asrwt>
<pdfrwt beam="1">  1       21 0.16538144E-02 0.13227898E+03</pdfrwt>
<pdfrwt beam="2">  1        2 0.34362493E+00 0.13227898E+03</pdfrwt>
<totfact> 0.12296032E+05</totfact>
</mgrwt>
</event>
<event>
 6    2  0.7993170E+000  0.8782006E+02  0.7546771E-02  0.1308218E+00
         21   -1    0    0  501  502  0.00000000000E+00  0.00000000000E+00  0.65021826208E+03  0.65021826208E+03  0.00000000000E+00 0. -1.
          2   -1    0    0  502    0 -0.00000000000E+00 -0.00000000000E+00 -0.14264163717E+02  0.14264163717E+02  0.00000000000E+00 0. -1.
         24    2    1    2    0    0  0.16845922735E+01 -0.26441334609E+02  0.12457900439E+03  0.15242142478E+03  0.83728014250E+02 0.  0.
        -11    1    3    3    0    0  0.22114059648E+02 -0.11767247033E+02  0.12477763663E+03  0.12726727129E+03  0.00000000000E+00 0.  1.
         12    1    3    3    0    0 -0.20429467374E+02 -0.14674087576E+02 -0.19863224005E+00  0.25154153497E+02  0.00000000000E+00 0. -1.
          1    1    1    2  501    0 -0.16845922735E+01  0.26441334609E+02  0.51137509397E+03  0.51206100101E+03  0.00000000000E+00 0. -1.
<mgrwt>
<rscale>  1 0.87820057E+02</rscale>
<asrwt>0</asrwt>
<pdfrwt beam="1">  1       21 0.10003356E+00 0.87820057E+02</pdfrwt>
<pdfrwt beam="2">  1        2 0.21944872E-02 0.87820057E+02</pdfrwt>
<totfact> 0.46319259E+04</totfact>
</mgrwt>
</event>
<event>
 6    2  0.7993170E+000  0.8312367E+02  0.7546771E-02  0.1320414E+00
         21   -1    0    0  501  502  0.00000000000E+00  0.00000000000E+00  0.95952320970E+01  0.95952320970E+01  0.00000000000E+00 0.  1.
          4   -1    0    0  502    0 -0.00000000000E+00 -0.00000000000E+00 -0.29026350138E+03  0.29026350138E+03  0.00000000000E+00 0. -1.
         24    2    1    2    0    0  0.16494501740E+02 -0.11812534289E+02 -0.19806676555E+03  0.21480220537E+03  0.80609796328E+02 0.  0.
        -13    1    3    3    0    0 -0.14226999946E+02  0.11411319891E+02 -0.64366256789E+01  0.19340524792E+02  0.00000000000E+00 0.  1.
         14    1    3    3    0    0  0.30721501686E+02 -0.23223854180E+02 -0.19163013987E+03  0.19546168058E+03  0.00000000000E+00 0. -1.
          3    1    1    2  501    0 -0.16494501740E+02  0.11812534289E+02 -0.82601503731E+02  0.85056528101E+02  0.00000000000E+00 0. -1.
<mgrwt>
<rscale>  1 0.83123666E+02</rscale>
<asrwt>0</asrwt>
<pdfrwt beam="1">  1       21 0.14761895E-02 0.83123666E+02</pdfrwt>
<pdfrwt beam="2">  1        4 0.44655924E-01 0.83123666E+02</pdfrwt>
<totfact> 0.35533715E+05</totfact>
</mgrwt>
</event>
<event>
 6    2  0.7993170E+000  0.9768081E+02  0.7546771E-02  0.1285250E+00
          2   -1    0    0  502    0 -0.00000000000E+00  0.00000000000E+00  0.94207971556E+03  0.94207971556E+03  0.00000000000E+00 0. -1.
         21   -1    0    0  501  502  0.00000000000E+00 -0.00000000000E+00 -0.14883770665E+02  0.14883770665E+02  0.00000000000E+00 0. -1.
         24    2    1    2    0    0  0.26732681830E+02 -0.49746234037E+02  0.87380098696E+03  0.87924382584E+03  0.79700792781E+02 0.  0.
        -13    1    3    3    0    0 -0.28829959047E+01  0.20885682796E+02  0.18415758156E+03  0.18536056284E+03  0.00000000000E+00 0.  1.
         14    1    3    3    0    0  0.29615677735E+02 -0.70631916832E+02  0.68964340540E+03  0.69388326299E+03  0.00000000000E+00 0. -1.
          1    1    1    2  501    0 -0.26732681830E+02  0.49746234037E+02  0.53394957931E+02  0.77719660390E+02  0.00000000000E+00 0. -1.
<mgrwt>
<rscale>  1 0.97680809E+02</rscale>
<asrwt>0</asrwt>
<pdfrwt beam="1">  1       21 0.22898116E-02 0.97680809E+02</pdfrwt>
<pdfrwt beam="2">  1        2 0.14493529E+00 0.97680809E+02</pdfrwt>
<totfact> 0.34823204E+05</totfact>
</mgrwt>
</event>
<event>
 6    2  0.7993170E+000  0.8355524E+02  0.7546771E-02  0.1319255E+00
          2   -1    0    0  502    0 -0.00000000000E+00  0.00000000000E+00  0.19421544594E+04  0.19421544594E+04  0.00000000000E+00 0. -1.
         21   -1    0    0  501  502  0.00000000000E+00 -0.00000000000E+00 -0.18583987773E+01  0.18583987773E+01  0.00000000000E+00 0.  1.
         24    2    1    2    0    0  0.18628191981E+02  0.11316111068E+02  0.18082994136E+04  0.18102287831E+04  0.80662346885E+02 0.  0.
        -13    1    3    3    0    0 -0.14614220977E+02  0.75022687085E+01  0.83272091993E+02  0.84876974472E+02  0.00000000000E+00 0.  1.
         14    1    3    3    0    0  0.33242412958E+02  0.38138423593E+01  0.17250273216E+04  0.17253518087E+04  0.00000000000E+00 0. -1.
          1    1    1    2  501    0 -0.18628191981E+02 -0.11316111068E+02  0.13199664701E+03  0.13378407502E+03  0.00000000000E+00 0. -1.
<mgrwt>
<rscale>  1 0.83555240E+02</rscale>
<asrwt>0</asrwt>
<pdfrwt beam="1">  1       21 0.28590906E-03 0.83555240E+02</pdfrwt>
<pdfrwt beam="2">  1        2 0.29879137E+00 0.83555240E+02</pdfrwt>
<totfact> 0.26055710E+06</totfact>
</mgrwt>
</event>
<event>
 6    2  0.7993170E+000  0.1180971E+03  0.7546771E-02  0.1246270E+00
          2   -1    0    0  502    0 -0.00000000000E+00  0.00000000000E+00  0.14195194732E+04  0.14195194732E+04  0.00000000000E+00 0. -1.
         21   -1    0    0  501  502  0.00000000000E+00 -0.00000000000E+00 -0.10723171605E+02  0.10723171605E+02  0.00000000000E+00 0.  1.
         24    2    1    2    0    0  0.58553261591E+02 -0.76403392670E+02  0.40572871820E+03  0.42256683398E+03  0.68417640687E+02 0.  0.
        -11    1    3    3    0    0  0.65729078775E+02 -0.62340491729E+02  0.38961381192E+03  0.40000696387E+03  0.00000000000E+00 0.  1.
         12    1    3    3    0    0 -0.71758171841E+01 -0.14062900941E+02  0.16114906277E+02  0.22559870111E+02  0.00000000000E+00 0. -1.
          1    1    1    2  501    0 -0.58553261591E+02  0.76403392670E+02  0.10030675834E+04  0.10076758109E+04  0.00000000000E+00 0. -1.
<mgrwt>
<rscale>  1 0.11809715E+03</rscale>
<asrwt>0</asrwt>
<pdfrwt beam="1">  1       21 0.16497198E-02 0.11809715E+03</pdfrwt>
<pdfrwt beam="2">  1        2 0.21838746E+00 0.11809715E+03</pdfrwt>
<totfact> 0.32253838E+05</totfact>
</mgrwt>
</event>
<event>
 6    2  0.7993170E+000  0.8469057E+02  0.7546771E-02  0.1316244E+00
         21   -1    0    0  501  502  0.00000000000E+00  0.00000000000E+00  0.56791284375E+01  0.56791284375E+01  0.00000000000E+00 0.  1.
          2   -1    0    0  502    0 -0.00000000000E+00 -0.00000000000E+00 -0.75241375044E+03  0.75241375044E+03  0.00000000000E+00 0. -1.
         24    2    1    2    0    0 -0.24882100307E+02 -0.26228660077E+02 -0.36718632305E+03  0.37682660347E+03  0.76586106591E+02 0.  0.
        -11    1    3    3    0    0 -0.41054478249E+02 -0.37762819318E+02 -0.17640925550E+03  0.18501817784E+03  0.00000000000E+00 0.  1.
         12    1    3    3    0    0  0.16172377942E+02  0.11534159241E+02 -0.19077706755E+03  0.19180842563E+03  0.00000000000E+00 0. -1.
          1    1    1    2  501    0  0.24882100307E+02  0.26228660077E+02 -0.37954829896E+03  0.38126627541E+03  0.00000000000E+00 0. -1.
<mgrwt>
<rscale>  1 0.84690574E+02</rscale>
<asrwt>0</asrwt>
<pdfrwt beam="1">  1       21 0.87371205E-03 0.84690574E+02</pdfrwt>
<pdfrwt beam="2">  1        2 0.11575596E+00 0.84690574E+02</pdfrwt>
<totfact> 0.20917115E+06</totfact>
</mgrwt>
</event>
<event>
 6    2  0.7993170E+000  0.8783363E+02  0.7546771E-02  0.1308184E+00
         21   -1    0    0  501  502  0.00000000000E+00  0.00000000000E+00  0.39549609305E+02  0.39549609305E+02  0.00000000000E+00 0.  1.
          4   -1    0    0  502    0 -0.00000000000E+00 -0.00000000000E+00 -0.94479714483E+02  0.94479714483E+02  0.00000000000E+00 0. -1.
         24    2    1    2    0    0  0.18890361037E+02  0.28094319720E+02 -0.33746943907E+02  0.94093589638E+02  0.81046966923E+02 0.  0.
        -13    1    3    3    0    0  0.21595565773E+02  0.74856508004E+01  0.23746003407E+02  0.32958703050E+02  0.00000000000E+00 0.  1.
         14    1    3    3    0    0 -0.27052047365E+01  0.20608668920E+02 -0.57492947314E+02  0.61134886588E+02  0.00000000000E+00 0. -1.
          3    1    1    2  501    0 -0.18890361037E+02 -0.28094319720E+02 -0.21183161271E+02  0.39935734149E+02  0.00000000000E+00 0. -1.
<mgrwt>
<rscale>  1 0.87833635E+02</rscale>
<asrwt>0</asrwt>
<pdfrwt beam="1">  1       21 0.60845554E-02 0.87833635E+02</pdfrwt>
<pdfrwt beam="2">  1        4 0.14535340E-01 0.87833635E+02</pdfrwt>
<totfact> 0.28312163E+05</totfact>
</mgrwt>
</event>
<event>
 6    2  0.7993170E+000  0.8996110E+02  0.7546771E-02  0.1302946E+00
         21   -1    0    0  501  502  0.00000000000E+00  0.00000000000E+00  0.29069505893E+02  0.29069505893E+02  0.00000000000E+00 0.  1.
         -1   -1    0    0    0  501 -0.00000000000E+00 -0.00000000000E+00 -0.27288355507E+03  0.27288355507E+03  0.00000000000E+00 0.  1.
         24    2    1    2    0    0 -0.37476946652E+02  0.19493373170E+02 -0.24363056218E+03  0.25970916441E+03  0.79425978910E+02 0.  0.
        -13    1    3    3    0    0 -0.15228063476E+02  0.10868540609E+02 -0.23272034504E+03  0.23347115044E+03  0.00000000000E+00 0.  1.
         14    1    3    3    0    0 -0.22248883176E+02  0.86248325604E+01 -0.10910217136E+02  0.26238013972E+02  0.00000000000E+00 0. -1.
         -2    1    1    2    0  502  0.37476946652E+02 -0.19493373170E+02 -0.18348699662E+00  0.42243896546E+02  0.00000000000E+00 0.  1.
<mgrwt>
<rscale>  1 0.89961099E+02</rscale>
<asrwt>0</asrwt>
<pdfrwt beam="1">  1       21 0.44722316E-02 0.89961099E+02</pdfrwt>
<pdfrwt beam="2">  1       -1 0.41982087E-01 0.89961099E+02</pdfrwt>
<totfact> 0.16162254E+05</totfact>
</mgrwt>
</event>
<event>
 6    2  0.7993170E+000  0.7563772E+02  0.7546771E-02  0.1341908E+00
          4   -1    0    0  502    0 -0.00000000000E+00  0.00000000000E+00  0.34272222488E+02  0.34272222488E+02  0.00000000000E+00 0. -1.
         21   -1    0    0  501  502  0.00000000000E+00 -0.00000000000E+00 -0.11109710399E+03  0.11109710399E+03  0.00000000000E+00 0. -1.
         24    2    1    2    0    0 -0.21601779062E+02  0.95524205041E+01 -0.12266631603E+02  0.76625939696E+02  0.71855262767E+02 0.  0.
        -11    1    3    3    0    0  0.13618790086E+02  0.45945054310E+01 -0.32620148940E+02  0.35646248617E+02  0.00000000000E+00 0.  1.
         12    1    3    3    0    0 -0.35220569148E+02  0.49579150731E+01  0.20353517337E+02  0.40979691080E+02  0.00000000000E+00 0. -1.
          3    1    1    2  501    0  0.21601779062E+02 -0.95524205041E+01 -0.64558249899E+02  0.68743386781E+02  0.00000000000E+00 0. -1.
<mgrwt>
<rscale>  1 0.75637718E+02</rscale>
<asrwt>0</asrwt>
<pdfrwt beam="1">  1       21 0.17091862E-01 0.75637718E+02</pdfrwt>
<pdfrwt beam="2">  1        4 0.52726496E-02 0.75637718E+02</pdfrwt>
<totfact> 0.24521696E+05</totfact>
</mgrwt>
</event>
<event>
 6    2  0.7993170E+000  0.8356749E+02  0.7546771E-02  0.1319222E+00
         21   -1    0    0  501  502  0.00000000000E+00  0.00000000000E+00  0.27704917948E+02  0.27704917948E+02  0.00000000000E+00 0.  1.
         -1   -1    0    0    0  501 -0.00000000000E+00 -0.00000000000E+00 -0.20358005356E+03  0.20358005356E+03  0.00000000000E+00 0.  1.
         24    2    1    2    0    0 -0.24849510088E+02 -0.13573244407E+02 -0.18377979765E+03  0.20188744104E+03  0.78624383669E+02 0.  0.
        -13    1    3    3    0    0 -0.20097001800E+02 -0.84133881244E+01 -0.19075479655E+03  0.19199496605E+03  0.00000000000E+00 0.  1.
         14    1    3    3    0    0 -0.47525082883E+01 -0.51598562827E+01  0.69749988934E+01  0.98924749912E+01  0.00000000000E+00 0. -1.
         -2    1    1    2    0  502  0.24849510088E+02  0.13573244407E+02  0.79046620472E+01  0.29397530465E+02  0.00000000000E+00 0.  1.
<mgrwt>
<rscale>  1 0.83567487E+02</rscale>
<asrwt>0</asrwt>
<pdfrwt beam="1">  1       21 0.42622950E-02 0.83567487E+02</pdfrwt>
<pdfrwt beam="2">  1       -1 0.31320009E-01 0.83567487E+02</pdfrwt>
<totfact> 0.28658259E+05</totfact>
</mgrwt>
</event>
<event>
 6    2  0.7993170E+000  0.8915375E+02  0.7546771E-02  0.1304914E+00
          4   -1    0    0  502    0 -0.00000000000E+00  0.00000000000E+00  0.41410611521E+02  0.41410611521E+02  0.00000000000E+00 0. -1.
         21   -1    0    0  501  502  0.00000000000E+00 -0.00000000000E+00 -0.25125294578E+03  0.25125294578E+03  0.00000000000E+00 0. -1.
         24    2    1    2    0    0  0.95721767854E+01 -0.39683631495E+02 -0.11181778506E+02  0.89852232200E+02  0.79258906652E+02 0.  0.
        -11    1    3    3    0    0  0.38427247196E+02 -0.26781178340E+02 -0.27463718388E+02  0.54296783220E+02  0.00000000000E+00 0.  1.
         12    1    3    3    0    0 -0.28855070411E+02 -0.12902453156E+02  0.16281939882E+02  0.35555448980E+02  0.00000000000E+00 0. -1.
          3    1    1    2  501    0 -0.95721767854E+01  0.39683631495E+02 -0.19866055575E+03  0.20281132510E+03  0.00000000000E+00 0. -1.
<mgrwt>
<rscale>  1 0.89153752E+02</rscale>
<asrwt>0</asrwt>
<pdfrwt beam="1">  1       21 0.38654299E-01 0.89153752E+02</pdfrwt>
<pdfrwt beam="2">  1        4 0.63708633E-02 0.89153752E+02</pdfrwt>
<totfact> 0.40254458E+04</totfact>
</mgrwt>
</event>
<event>
 6    2  0.7993170E+000  0.8635972E+02  0.7546771E-02  0.1311915E+00
         21   -1    0    0  501  502  0.00000000000E+00  0.00000000000E+00  0.15342511612E+03  0.15342511612E+03  0.00000000000E+00 0.  1.
         -3   -1    0    0    0  501 -0.00000000000E+00 -0.00000000000E+00 -0.29287555902E+03  0.29287555902E+03  0.00000000000E+00 0.  1.
         24    2    1    2    0    0 -0.13282644998E+02 -0.21321432711E+02 -0.28541304016E+03  0.29819222855E+03  0.82625477444E+02 0.  0.
        -13    1    3    3    0    0 -0.34264959365E+01  0.29659608601E+02 -0.15448081535E+03  0.15733961856E+03  0.00000000000E+00 0.  1.
         14    1    3    3    0    0 -0.98561490619E+01 -0.50981041312E+02 -0.13093222481E+03  0.14085260999E+03  0.00000000000E+00 0. -1.
         -4    1    1    2    0  502  0.13282644998E+02  0.21321432711E+02  0.14596259726E+03  0.14810844659E+03  0.00000000000E+00 0.  1.
<mgrwt>
<rscale>  1 0.86359723E+02</rscale>
<asrwt>0</asrwt>
<pdfrwt beam="1">  1       21 0.23603864E-01 0.86359723E+02</pdfrwt>
<pdfrwt beam="2">  1       -3 0.45057779E-01 0.86359723E+02</pdfrwt>
<totfact> 0.39858177E+03</totfact>
</mgrwt>
</event>
<event>
 6    2  0.7993170E+000  0.8320132E+02  0.7546771E-02  0.1320204E+00
          2   -1    0    0  502    0 -0.00000000000E+00  0.00000000000E+00  0.17041967030E+02  0.17041967030E+02  0.00000000000E+00 0. -1.
         21   -1    0    0  501  502  0.00000000000E+00 -0.00000000000E+00 -0.19261483495E+03  0.19261483495E+03  0.00000000000E+00 0.  1.
         24    2    1    2    0    0 -0.21093281132E+02  0.13014756073E+01 -0.16751490417E+03  0.18703930593E+03  0.80472594687E+02 0.  0.
        -11    1    3    3    0    0 -0.39822939677E+02 -0.43130403918E+01 -0.16177638520E+03  0.16666153620E+03  0.00000000000E+00 0.  1.
         12    1    3    3    0    0  0.18729658545E+02  0.56145159991E+01 -0.57385189763E+01  0.20377769730E+02  0.00000000000E+00 0. -1.
          1    1    1    2  501    0  0.21093281132E+02 -0.13014756073E+01 -0.80579637438E+01  0.22617496046E+02  0.00000000000E+00 0. -1.
<mgrwt>
<rscale>  1 0.83201315E+02</rscale>
<asrwt>0</asrwt>
<pdfrwt beam="1">  1       21 0.29633053E-01 0.83201315E+02</pdfrwt>
<pdfrwt beam="2">  1        2 0.26218410E-02 0.83201315E+02</pdfrwt>
<totfact> 0.45601520E+05</totfact>
</mgrwt>
</event>
<event>
 6    2  0.7993170E+000  0.8318287E+02  0.7546771E-02  0.1320254E+00
         21   -1    0    0  501  502  0.00000000000E+00  0.00000000000E+00  0.39353900082E+02  0.39353900082E+02  0.00000000000E+00 0. -1.
          2   -1    0    0  502    0 -0.00000000000E+00 -0.00000000000E+00 -0.85155771042E+02  0.85155771042E+02  0.00000000000E+00 0. -1.
         24    2    1    2    0    0 -0.10733223625E+02  0.19738224053E+02 -0.55542003262E+02  0.10002151571E+03  0.80091134972E+02 0.  0.
        -13    1    3    3    0    0 -0.42688471426E+02 -0.36393703184E+01 -0.35523796843E+02  0.55655105347E+02  0.00000000000E+00 0.  1.
         14    1    3    3    0    0  0.31955247801E+02  0.23377594371E+02 -0.20018206419E+02  0.44366410367E+02  0.00000000000E+00 0. -1.
          1    1    1    2  501    0  0.10733223625E+02 -0.19738224053E+02  0.97401323015E+01  0.24488155410E+02  0.00000000000E+00 0. -1.
<mgrwt>
<rscale>  1 0.83182868E+02</rscale>
<asrwt>0</asrwt>
<pdfrwt beam="1">  1       21 0.60544462E-02 0.83182868E+02</pdfrwt>
<pdfrwt beam="2">  1        2 0.13100888E-01 0.83182868E+02</pdfrwt>
<totfact> 0.99699551E+05</totfact>
</mgrwt>
</event>
<event>
 6    2  0.7993170E+000  0.8337703E+02  0.7546771E-02  0.1319732E+00
         21   -1    0    0  501  502  0.00000000000E+00  0.00000000000E+00  0.45362429646E+02  0.45362429646E+02  0.00000000000E+00 0.  1.
          2   -1    0    0  502    0 -0.00000000000E+00 -0.00000000000E+00 -0.73262358019E+02  0.73262358019E+02  0.00000000000E+00 0. -1.
         24    2    1    2    0    0 -0.12906467819E+02 -0.22443606013E+02 -0.36951130090E+02  0.91198219980E+02  0.79255516844E+02 0.  0.
        -11    1    3    3    0    0  0.21075347152E+01 -0.42016997036E+02 -0.48292765953E+02  0.64047333949E+02  0.00000000000E+00 0.  1.
         12    1    3    3    0    0 -0.15014002534E+02  0.19573391023E+02  0.11341635863E+02  0.27150886032E+02  0.00000000000E+00 0. -1.
          1    1    1    2  501    0  0.12906467819E+02  0.22443606013E+02  0.90512017175E+01  0.27426567685E+02  0.00000000000E+00 0. -1.
<mgrwt>
<rscale>  1 0.83377031E+02</rscale>
<asrwt>0</asrwt>
<pdfrwt beam="1">  1       21 0.69788354E-02 0.83377031E+02</pdfrwt>
<pdfrwt beam="2">  1        2 0.11271132E-01 0.83377031E+02</pdfrwt>
<totfact> 0.93786843E+05</totfact>
</mgrwt>
</event>
<event>
 6    2  0.7993170E+000  0.8484648E+02  0.7546771E-02  0.1315834E+00
         21   -1    0    0  501  502  0.00000000000E+00  0.00000000000E+00  0.10226725855E+02  0.10226725855E+02  0.00000000000E+00 0.  1.
          4   -1    0    0  502    0 -0.00000000000E+00 -0.00000000000E+00 -0.31597314861E+03  0.31597314861E+03  0.00000000000E+00 0. -1.
         24    2    1    2    0    0  0.12002067422E+01 -0.27021236289E+02 -0.20449860434E+03  0.22140145634E+03  0.80419761177E+02 0.  0.
        -11    1    3    3    0    0 -0.13825882986E+02 -0.45142717154E+02 -0.67366152334E+02  0.82263104930E+02  0.00000000000E+00 0.  1.
         12    1    3    3    0    0  0.15026089728E+02  0.18121480866E+02 -0.13713245201E+03  0.13913835142E+03  0.00000000000E+00 0. -1.
          3    1    1    2  501    0 -0.12002067422E+01  0.27021236289E+02 -0.10124781841E+03  0.10479841812E+03  0.00000000000E+00 0. -1.
<mgrwt>
<rscale>  1 0.84846483E+02</rscale>
<asrwt>0</asrwt>
<pdfrwt beam="1">  1       21 0.15733427E-02 0.84846483E+02</pdfrwt>
<pdfrwt beam="2">  1        4 0.48611244E-01 0.84846483E+02</pdfrwt>
<totfact> 0.27243452E+05</totfact>
</mgrwt>
</event>
<event>
 6    2  0.7993170E+000  0.8077747E+02  0.7546771E-02  0.1326859E+00
         -3   -1    0    0    0  501 -0.00000000000E+00  0.00000000000E+00  0.60834849988E+01  0.60834849988E+01  0.00000000000E+00 0.  1.
         21   -1    0    0  501  502  0.00000000000E+00 -0.00000000000E+00 -0.47974669655E+03  0.47974669655E+03  0.00000000000E+00 0. -1.
         24    2    1    2    0    0  0.19827809233E+02  0.13757808275E+02 -0.40686412567E+03  0.41480527618E+03  0.77088138422E+02 0.  0.
        -11    1    3    3    0    0  0.16924369541E+02 -0.30446105934E+02 -0.13873053319E+03  0.14303692003E+03  0.00000000000E+00 0.  1.
         12    1    3    3    0    0  0.29034396916E+01  0.44203914209E+02 -0.26813359247E+03  0.27176835615E+03  0.00000000000E+00 0. -1.
         -4    1    1    2    0  502 -0.19827809233E+02 -0.13757808275E+02 -0.66799085883E+02  0.71024905366E+02  0.00000000000E+00 0.  1.
<mgrwt>
<rscale>  1 0.80777475E+02</rscale>
<asrwt>0</asrwt>
<pdfrwt beam="1">  1       21 0.73807186E-01 0.80777475E+02</pdfrwt>
<pdfrwt beam="2">  1       -3 0.93592074E-03 0.80777475E+02</pdfrwt>
<totfact> 0.22132876E+05</totfact>
</mgrwt>
</event>
<event>
 6    2  0.7993170E+000  0.1037723E+03  0.7546771E-02  0.1272558E+00
          2   -1    0    0  502    0 -0.00000000000E+00  0.00000000000E+00  0.41525892511E+03  0.41525892511E+03  0.00000000000E+00 0. -1.
         21   -1    0    0  501  502  0.00000000000E+00 -0.00000000000E+00 -0.11062648585E+02  0.11062648585E+02  0.00000000000E+00 0.  1.
         24    2    1    2    0    0 -0.47994911983E+01 -0.28460570069E+02  0.34805716419E+03  0.36319757590E+03  0.99677732855E+02 0.  0.
        -11    1    3    3    0    0  0.28850824967E+01  0.72928736046E+01 -0.43023746235E+01  0.89453973543E+01  0.00000000000E+00 0.  1.
         12    1    3    3    0    0 -0.76845736950E+01 -0.35753443674E+02  0.35235953882E+03  0.35425217854E+03  0.00000000000E+00 0. -1.
          1    1    1    2  501    0  0.47994911983E+01  0.28460570069E+02  0.56139112328E+02  0.63123997793E+02  0.00000000000E+00 0. -1.
<mgrwt>
<rscale>  1 0.10377230E+03</rscale>
<asrwt>0</asrwt>
<pdfrwt beam="1">  1       21 0.17019462E-02 0.10377230E+03</pdfrwt>
<pdfrwt beam="2">  1        2 0.63885977E-01 0.10377230E+03</pdfrwt>
<totfact> 0.14476831E+06</totfact>
</mgrwt>
</event>
<event>
 6    2  0.7993170E+000  0.1185560E+03  0.7546771E-02  0.1245498E+00
         -3   -1    0    0    0  501 -0.00000000000E+00  0.00000000000E+00  0.46641631439E+03  0.46641631439E+03  0.00000000000E+00 0.  1.
         21   -1    0    0  501  502  0.00000000000E+00 -0.00000000000E+00 -0.23107356746E+02  0.23107356746E+02  0.00000000000E+00 0.  1.
         24    2    1    2    0    0 -0.87897523279E+02  0.11888521096E+02  0.23888084329E+03  0.26668254955E+03  0.78665198214E+02 0.  0.
        -11    1    3    3    0    0 -0.71705485848E+02  0.34605431741E+02  0.21725545890E+03  0.23138527833E+03  0.00000000000E+00 0.  1.
         12    1    3    3    0    0 -0.16192037431E+02 -0.22716910645E+02  0.21625384394E+02  0.35297271220E+02  0.00000000000E+00 0. -1.
         -4    1    1    2    0  502  0.87897523279E+02 -0.11888521096E+02  0.20442811436E+03  0.22284112159E+03  0.00000000000E+00 0.  1.
<mgrwt>
<rscale>  1 0.11855600E+03</rscale>
<asrwt>0</asrwt>
<pdfrwt beam="1">  1       21 0.35549783E-02 0.11855600E+03</pdfrwt>
<pdfrwt beam="2">  1       -3 0.71756349E-01 0.11855600E+03</pdfrwt>
<totfact> 0.42577238E+04</totfact>
</mgrwt>
</event>
<event>
 6    2  0.7993170E+000  0.8669806E+02  0.7546771E-02  0.1311051E+00
          2   -1    0    0  502    0 -0.00000000000E+00  0.00000000000E+00  0.26294622794E+04  0.26294622794E+04  0.00000000000E+00 0. -1.
         21   -1    0    0  501  502  0.00000000000E+00 -0.00000000000E+00 -0.15547119236E+01  0.15547119236E+01  0.00000000000E+00 0.  1.
         24    2    1    2    0    0  0.16051047512E+02  0.28145086453E+02  0.22672332289E+04  0.22688902725E+04  0.80416243091E+02 0.  0.
        -13    1    3    3    0    0  0.14740013798E+02  0.30718581435E+02  0.34992535221E+03  0.35158022039E+03  0.00000000000E+00 0.  1.
         14    1    3    3    0    0  0.13110337143E+01 -0.25734949814E+01  0.19173078767E+04  0.19173100521E+04  0.00000000000E+00 0. -1.
          1    1    1    2  501    0 -0.16051047512E+02 -0.28145086453E+02  0.36067433860E+03  0.36212671890E+03  0.00000000000E+00 0. -1.
<mgrwt>
<rscale>  1 0.86698063E+02</rscale>
<asrwt>0</asrwt>
<pdfrwt beam="1">  1       21 0.23918855E-03 0.86698063E+02</pdfrwt>
<pdfrwt beam="2">  1        2 0.40452910E+00 0.86698063E+02</pdfrwt>
<totfact> 0.15172775E+06</totfact>
</mgrwt>
</event>
<event>
 6    2  0.7993170E+000  0.9815751E+02  0.7546771E-02  0.1284219E+00
         21   -1    0    0  501  502  0.00000000000E+00  0.00000000000E+00  0.21367249334E+02  0.21367249334E+02  0.00000000000E+00 0. -1.
          2   -1    0    0  502    0 -0.00000000000E+00 -0.00000000000E+00 -0.62658311260E+03  0.62658311260E+03  0.00000000000E+00 0. -1.
         24    2    1    2    0    0 -0.19078975862E+02  0.56210470194E+02 -0.57112242663E+03  0.57949609471E+03  0.78174633383E+02 0.  0.
        -13    1    3    3    0    0  0.35897846763E+01 -0.11552674856E+02 -0.17458081888E+02  0.21239949943E+02  0.00000000000E+00 0.  1.
         14    1    3    3    0    0 -0.22668760539E+02  0.67763145050E+02 -0.55366434475E+03  0.55825614477E+03  0.00000000000E+00 0. -1.
          1    1    1    2  501    0  0.19078975862E+02 -0.56210470194E+02 -0.34093436632E+02  0.68454267221E+02  0.00000000000E+00 0. -1.
<mgrwt>
<rscale>  1 0.98157514E+02</rscale>
<asrwt>0</asrwt>
<pdfrwt beam="1">  1       21 0.32872690E-02 0.98157514E+02</pdfrwt>
<pdfrwt beam="2">  1        2 0.96397405E-01 0.98157514E+02</pdfrwt>
<totfact> 0.31768435E+05</totfact>
</mgrwt>
</event>
<event>
 6    2  0.7993170E+000  0.8175855E+02  0.7546771E-02  0.1324134E+00
          2   -1    0    0  502    0 -0.00000000000E+00  0.00000000000E+00  0.28119927013E+04  0.28119927013E+04  0.00000000000E+00 0. -1.
         21   -1    0    0  501  502  0.00000000000E+00 -0.00000000000E+00 -0.22637780232E+01  0.22637780232E+01  0.00000000000E+00 0.  1.
         24    2    1    2    0    0  0.11915979287E+02 -0.19121767217E+02  0.27345986564E+04  0.27358205848E+04  0.78592800252E+02 0.  0.
        -11    1    3    3    0    0  0.15127430259E+02  0.21766289782E+02  0.40783712962E+03  0.40869760804E+03  0.00000000000E+00 0.  1.
         12    1    3    3    0    0 -0.32114509728E+01 -0.40888056998E+02  0.23267615268E+04  0.23271229768E+04  0.00000000000E+00 0. -1.
          1    1    1    2  501    0 -0.11915979287E+02  0.19121767217E+02  0.75130266858E+02  0.78435894474E+02  0.00000000000E+00 0. -1.
<mgrwt>
<rscale>  1 0.81758552E+02</rscale>
<asrwt>0</asrwt>
<pdfrwt beam="1">  1       21 0.34827579E-03 0.81758552E+02</pdfrwt>
<pdfrwt beam="2">  1        2 0.43261147E+00 0.81758552E+02</pdfrwt>
<totfact> 0.68457654E+05</totfact>
</mgrwt>
</event>
<event>
 6    2  0.7993170E+000  0.1049628E+03  0.7546771E-02  0.1270193E+00
         21   -1    0    0  501  502  0.00000000000E+00  0.00000000000E+00  0.40468835473E+03  0.40468835473E+03  0.00000000000E+00 0.  1.
          2   -1    0    0  502    0 -0.00000000000E+00 -0.00000000000E+00 -0.21070549347E+02  0.21070549347E+02  0.00000000000E+00 0. -1.
         24    2    1    2    0    0 -0.54934937079E+02 -0.38884224201E+02  0.15316490022E+03  0.18567897634E+03  0.80544182856E+02 0.  0.
        -11    1    3    3    0    0 -0.58142951702E+02 -0.14291634514E+02  0.14893562304E+03  0.16052000953E+03  0.00000000000E+00 0.  1.
         12    1    3    3    0    0  0.32080146225E+01 -0.24592589687E+02  0.42292771769E+01  0.25158966807E+02  0.00000000000E+00 0. -1.
          1    1    1    2  501    0  0.54934937079E+02  0.38884224201E+02  0.23045290516E+03  0.24007992774E+03  0.00000000000E+00 0. -1.
<mgrwt>
<rscale>  1 0.10496283E+03</rscale>
<asrwt>0</asrwt>
<pdfrwt beam="1">  1       21 0.62259741E-01 0.10496283E+03</pdfrwt>
<pdfrwt beam="2">  1        2 0.32416233E-02 0.10496283E+03</pdfrwt>
<totfact> 0.78934949E+04</totfact>
</mgrwt>
</event>
<event>
 6    2  0.7993170E+000  0.8433862E+02  0.7546771E-02  0.1317171E+00
          4   -1    0    0  502    0 -0.00000000000E+00  0.00000000000E+00  0.85827128940E+02  0.85827128940E+02  0.00000000000E+00 0. -1.
         21   -1    0    0  501  502  0.00000000000E+00 -0.00000000000E+00 -0.48065523006E+02  0.48065523006E+02  0.00000000000E+00 0. -1.
         24    2    1    2    0    0 -0.17866968736E+02 -0.25814225556E+02  0.52359978028E+02  0.99270184086E+02  0.78277706511E+02 0.  0.
        -13    1    3    3    0    0 -0.11379072732E+02  0.73864987794E+01 -0.17208469438E+02  0.21912897592E+02  0.00000000000E+00 0.  1.
         14    1    3    3    0    0 -0.64878960040E+01 -0.33200724336E+02  0.69568447466E+02  0.77357286495E+02  0.00000000000E+00 0. -1.
          3    1    1    2  501    0  0.17866968736E+02  0.25814225556E+02 -0.14598372094E+02  0.34622467859E+02  0.00000000000E+00 0. -1.
<mgrwt>
<rscale>  1 0.84338616E+02</rscale>
<asrwt>0</asrwt>
<pdfrwt beam="1">  1       21 0.73946958E-02 0.84338616E+02</pdfrwt>
<pdfrwt beam="2">  1        4 0.13204174E-01 0.84338616E+02</pdfrwt>
<totfact> 0.23827148E+05</totfact>
</mgrwt>
</event>
<event>
 6    2  0.7993170E+000  0.1062691E+03  0.7546771E-02  0.1267639E+00
         21   -1    0    0  501  502  0.00000000000E+00  0.00000000000E+00  0.76812041245E+02  0.76812041245E+02  0.00000000000E+00 0. -1.
         -1   -1    0    0    0  501 -0.00000000000E+00 -0.00000000000E+00 -0.60499486498E+02  0.60499486498E+02  0.00000000000E+00 0.  1.
         24    2    1    2    0    0  0.15212512835E+02 -0.19641916173E+02 -0.22594253513E+01  0.10629308383E+03  0.10332419489E+03 0.  0.
        -13    1    3    3    0    0 -0.25055291903E+02 -0.16926244954E+02 -0.40602148219E+02  0.50624103553E+02  0.00000000000E+00 0.  1.
         14    1    3    3    0    0  0.40267804739E+02 -0.27156712192E+01  0.38342722867E+02  0.55668980281E+02  0.00000000000E+00 0. -1.
         -2    1    1    2    0  502 -0.15212512835E+02  0.19641916173E+02  0.18571980098E+02  0.31018443909E+02  0.00000000000E+00 0.  1.
<mgrwt>
<rscale>  1 0.10626907E+03</rscale>
<asrwt>0</asrwt>
<pdfrwt beam="1">  1       21 0.11817237E-01 0.10626907E+03</pdfrwt>
<pdfrwt beam="2">  1       -1 0.93076133E-02 0.10626907E+03</pdfrwt>
<totfact> 0.34996655E+05</totfact>
</mgrwt>
</event>
<event>
 6    2  0.7993170E+000  0.9427619E+02  0.7546771E-02  0.1292815E+00
          4   -1    0    0  502    0 -0.00000000000E+00  0.00000000000E+00  0.10124906526E+03  0.10124906526E+03  0.00000000000E+00 0. -1.
         21   -1    0    0  501  502  0.00000000000E+00 -0.00000000000E+00 -0.50751419847E+02  0.50751419847E+02  0.00000000000E+00 0. -1.
         24    2    1    2    0    0 -0.27524649472E+02 -0.28144116379E+02  0.59679104489E+02  0.11157775876E+03  0.85663896252E+02 0.  0.
        -11    1    3    3    0    0  0.18734369163E+02  0.58381567711E+01 -0.94043237925E+01  0.21760100377E+02  0.00000000000E+00 0.  1.
         12    1    3    3    0    0 -0.46259018635E+02 -0.33982273150E+02  0.69083428281E+02  0.89817658379E+02  0.00000000000E+00 0. -1.
          3    1    1    2  501    0  0.27524649472E+02  0.28144116379E+02 -0.91814590713E+01  0.40422726355E+02  0.00000000000E+00 0. -1.
<mgrwt>
<rscale>  1 0.94276194E+02</rscale>
<asrwt>0</asrwt>
<pdfrwt beam="1">  1       21 0.78079107E-02 0.94276194E+02</pdfrwt>
<pdfrwt beam="2">  1        4 0.15576779E-01 0.94276194E+02</pdfrwt>
<totfact> 0.16679616E+05</totfact>
</mgrwt>
</event>
<event>
 6    2  0.7993170E+000  0.8364321E+02  0.7546771E-02  0.1319019E+00
          2   -1    0    0  502    0 -0.00000000000E+00  0.00000000000E+00  0.12808469266E+03  0.12808469266E+03  0.00000000000E+00 0. -1.
         21   -1    0    0  501  502  0.00000000000E+00 -0.00000000000E+00 -0.23484195842E+02  0.23484195842E+02  0.00000000000E+00 0.  1.
         24    2    1    2    0    0 -0.11427405220E+02  0.21623534041E+02  0.69289120969E+02  0.10861477253E+03  0.79987647252E+02 0.  0.
        -11    1    3    3    0    0 -0.18962050964E+01  0.39568934533E+02  0.35109030062E+01  0.39769619231E+02  0.00000000000E+00 0.  1.
         12    1    3    3    0    0 -0.95312001241E+01 -0.17945400492E+02  0.65778217963E+02  0.68845153301E+02  0.00000000000E+00 0. -1.
          1    1    1    2  501    0  0.11427405220E+02 -0.21623534041E+02  0.35311375849E+02  0.42954115971E+02  0.00000000000E+00 0. -1.
<mgrwt>
<rscale>  1 0.83643210E+02</rscale>
<asrwt>0</asrwt>
<pdfrwt beam="1">  1       21 0.36129533E-02 0.83643210E+02</pdfrwt>
<pdfrwt beam="2">  1        2 0.19705337E-01 0.83643210E+02</pdfrwt>
<totfact> 0.14703104E+06</totfact>
</mgrwt>
</event>
<event>
 6    2  0.7993170E+000  0.8298680E+02  0.7546771E-02  0.1320783E+00
         21   -1    0    0  501  502  0.00000000000E+00  0.00000000000E+00  0.12590899085E+03  0.12590899085E+03  0.00000000000E+00 0. -1.
         -1   -1    0    0    0  501 -0.00000000000E+00 -0.00000000000E+00 -0.23838213207E+02  0.23838213207E+02  0.00000000000E+00 0.  1.
         24    2    1    2    0    0  0.18291092933E+01  0.25663121271E+02  0.69533379879E+02  0.10826680281E+03  0.78897834189E+02 0.  0.
        -13    1    3    3    0    0 -0.10033521267E+02  0.16126566740E+02 -0.13849385732E+02  0.23506237236E+02  0.00000000000E+00 0.  1.
         14    1    3    3    0    0  0.11862630561E+02  0.95365545309E+01  0.83382765610E+02  0.84760565577E+02  0.00000000000E+00 0. -1.
         -2    1    1    2    0  502 -0.18291092933E+01 -0.25663121271E+02  0.32537397767E+02  0.41480401247E+02  0.00000000000E+00 0.  1.
<mgrwt>
<rscale>  1 0.82986804E+02</rscale>
<asrwt>0</asrwt>
<pdfrwt beam="1">  1       21 0.19370614E-01 0.82986804E+02</pdfrwt>
<pdfrwt beam="2">  1       -1 0.36674175E-02 0.82986804E+02</pdfrwt>
<totfact> 0.55638598E+05</totfact>
</mgrwt>
</event>
<event>
 6    2  0.7993170E+000  0.1769127E+03  0.7546771E-02  0.1170825E+00
         21   -1    0    0  501  502  0.00000000000E+00  0.00000000000E+00  0.55806125184E+02  0.55806125184E+02  0.00000000000E+00 0. -1.
          4   -1    0    0  502    0 -0.00000000000E+00 -0.00000000000E+00 -0.72706551283E+03  0.72706551283E+03  0.00000000000E+00 0. -1.
         24    2    1    2    0    0 -0.85259624766E+02 -0.13444776833E+03 -0.56352462764E+03  0.59064212795E+03  0.77153816069E+02 0.  0.
        -13    1    3    3    0    0  0.13859679173E+02 -0.20144911607E+02 -0.57472929363E+02  0.62458352363E+02  0.00000000000E+00 0.  1.
         14    1    3    3    0    0 -0.99119303940E+02 -0.11430285672E+03 -0.50605169828E+03  0.52818377559E+03  0.00000000000E+00 0. -1.
          3    1    1    2  501    0  0.85259624766E+02  0.13444776833E+03 -0.10773476000E+03  0.19222951006E+03  0.00000000000E+00 0. -1.
<mgrwt>
<rscale>  1 0.17691274E+03</rscale>
<asrwt>0</asrwt>
<pdfrwt beam="1">  1       21 0.85855582E-02 0.17691274E+03</pdfrwt>
<pdfrwt beam="2">  1        4 0.11185623E+00 0.17691274E+03</pdfrwt>
<totfact> 0.29170480E+03</totfact>
</mgrwt>
</event>
<event>
 6    2  0.7993170E+000  0.8799045E+02  0.7546771E-02  0.1307792E+00
         21   -1    0    0  501  502  0.00000000000E+00  0.00000000000E+00  0.74230021725E+01  0.74230021725E+01  0.00000000000E+00 0. -1.
         -1   -1    0    0    0  501 -0.00000000000E+00 -0.00000000000E+00 -0.54042327945E+03  0.54042327945E+03  0.00000000000E+00 0.  1.
         24    2    1    2    0    0 -0.16599607892E+02 -0.29855123336E+02 -0.44138027180E+03  0.45006540018E+03  0.81089116007E+02 0.  0.
        -13    1    3    3    0    0  0.23522664637E+02  0.14169271803E+02 -0.17200180499E+03  0.17418009339E+03  0.00000000000E+00 0.  1.
         14    1    3    3    0    0 -0.40122272529E+02 -0.44024395139E+02 -0.26937846682E+03  0.27588530679E+03  0.00000000000E+00 0. -1.
         -2    1    1    2    0  502  0.16599607892E+02  0.29855123336E+02 -0.91620005472E+02  0.97780881436E+02  0.00000000000E+00 0.  1.
<mgrwt>
<rscale>  1 0.87990455E+02</rscale>
<asrwt>0</asrwt>
<pdfrwt beam="1">  1       21 0.11420003E-02 0.87990455E+02</pdfrwt>
<pdfrwt beam="2">  1       -1 0.83142046E-01 0.87990455E+02</pdfrwt>
<totfact> 0.40094473E+05</totfact>
</mgrwt>
</event>
<event>
 6    2  0.7993170E+000  0.8715376E+02  0.7546771E-02  0.1309894E+00
         21   -1    0    0  501  502  0.00000000000E+00  0.00000000000E+00  0.11205014491E+03  0.11205014491E+03  0.00000000000E+00 0.  1.
          2   -1    0    0  502    0 -0.00000000000E+00 -0.00000000000E+00 -0.36384238961E+02  0.36384238961E+02  0.00000000000E+00 0. -1.
         24    2    1    2    0    0  0.27866184626E+02 -0.19818507959E+02  0.31708222494E+02  0.92742594188E+02  0.80165328539E+02 0.  0.
        -13    1    3    3    0    0 -0.49596996136E+01  0.11080508856E+02  0.44302347124E+02  0.45935544597E+02  0.00000000000E+00 0.  1.
         14    1    3    3    0    0  0.32825884239E+02 -0.30899016815E+02 -0.12594124630E+02  0.46807049591E+02  0.00000000000E+00 0. -1.
          1    1    1    2  501    0 -0.27866184626E+02  0.19818507959E+02  0.43957683459E+02  0.55691789686E+02  0.00000000000E+00 0. -1.
<mgrwt>
<rscale>  1 0.87153757E+02</rscale>
<asrwt>0</asrwt>
<pdfrwt beam="1">  1       21 0.17238484E-01 0.87153757E+02</pdfrwt>
<pdfrwt beam="2">  1        2 0.55975753E-02 0.87153757E+02</pdfrwt>
<totfact> 0.46316114E+05</totfact>
</mgrwt>
</event>
<event>
 6    2  0.7993170E+000  0.8566794E+02  0.7546771E-02  0.1313695E+00
         21   -1    0    0  501  502  0.00000000000E+00  0.00000000000E+00  0.16523708177E+01  0.16523708177E+01  0.00000000000E+00 0.  1.
          2   -1    0    0  502    0 -0.00000000000E+00 -0.00000000000E+00 -0.21204438930E+04  0.21204438930E+04  0.00000000000E+00 0. -1.
         24    2    1    2    0    0  0.30542278934E+02 -0.10949327635E+02 -0.14704153184E+04  0.14729087560E+04  0.79286042647E+02 0.  0.
        -13    1    3    3    0    0  0.36584697348E+02  0.20653770064E+02 -0.44247782835E+03  0.44446782435E+03  0.00000000000E+00 0.  1.
         14    1    3    3    0    0 -0.60424184143E+01 -0.31603097698E+02 -0.10279374900E+04  0.10284409317E+04  0.00000000000E+00 0. -1.
          1    1    1    2  501    0 -0.30542278934E+02  0.10949327635E+02 -0.64837620382E+03  0.64918750778E+03  0.00000000000E+00 0. -1.
<mgrwt>
<rscale>  1 0.85667935E+02</rscale>
<asrwt>0</asrwt>
<pdfrwt beam="1">  1       21 0.25421164E-03 0.85667935E+02</pdfrwt>
<pdfrwt beam="2">  1        2 0.32622118E+00 0.85667935E+02</pdfrwt>
<totfact> 0.25356999E+06</totfact>
</mgrwt>
</event>
<event>
 6    2  0.7993170E+000  0.8889309E+02  0.7546771E-02  0.1305555E+00
          2   -1    0    0  502    0 -0.00000000000E+00  0.00000000000E+00  0.19817217379E+04  0.19817217379E+04  0.00000000000E+00 0. -1.
         21   -1    0    0  501  502  0.00000000000E+00 -0.00000000000E+00 -0.20203390488E+01  0.20203390488E+01  0.00000000000E+00 0.  1.
         24    2    1    2    0    0  0.75361943813E+01 -0.36832304982E+02  0.14192530817E+04  0.14220342088E+04  0.80551649478E+02 0.  0.
        -13    1    3    3    0    0  0.11767488773E+02 -0.26293224201E+02  0.15059773933E+03  0.15332803567E+03  0.00000000000E+00 0.  1.
         14    1    3    3    0    0 -0.42312943921E+01 -0.10539080781E+02  0.12686553424E+04  0.12687061732E+04  0.00000000000E+00 0. -1.
          1    1    1    2  501    0 -0.75361943813E+01  0.36832304982E+02  0.56044831713E+03  0.56170786811E+03  0.00000000000E+00 0. -1.
<mgrwt>
<rscale>  1 0.88893088E+02</rscale>
<asrwt>0</asrwt>
<pdfrwt beam="1">  1       21 0.31082298E-03 0.88893088E+02</pdfrwt>
<pdfrwt beam="2">  1        2 0.30487871E+00 0.88893088E+02</pdfrwt>
<totfact> 0.22038264E+06</totfact>
</mgrwt>
</event>
<event>
 6    2  0.7993170E+000  0.1008818E+03  0.7546771E-02  0.1278453E+00
         21   -1    0    0  501  502  0.00000000000E+00  0.00000000000E+00  0.78454238172E+01  0.78454238172E+01  0.00000000000E+00 0.  1.
          2   -1    0    0  502    0 -0.00000000000E+00 -0.00000000000E+00 -0.17258787483E+04  0.17258787483E+04  0.00000000000E+00 0. -1.
         24    2    1    2    0    0  0.39977357764E+02 -0.53198686652E+02 -0.35468419096E+03  0.36875195655E+03  0.75821110166E+02 0.  0.
        -11    1    3    3    0    0  0.60211172702E+02 -0.32081547937E+02 -0.19970017982E+03  0.21103263458E+03  0.00000000000E+00 0.  1.
         12    1    3    3    0    0 -0.20233814939E+02 -0.21117138714E+02 -0.15498401114E+03  0.15771932198E+03  0.00000000000E+00 0. -1.
          1    1    1    2  501    0 -0.39977357764E+02  0.53198686652E+02 -0.13633491335E+04  0.13649722156E+04  0.00000000000E+00 0. -1.
<mgrwt>
<rscale>  1 0.10088176E+03</rscale>
<asrwt>0</asrwt>
<pdfrwt beam="1">  1       21 0.12069857E-02 0.10088176E+03</pdfrwt>
<pdfrwt beam="2">  1        2 0.26552037E+00 0.10088176E+03</pdfrwt>
<totfact> 0.36735003E+05</totfact>
</mgrwt>
</event>
<event>
 6    2  0.7993170E+000  0.9917965E+02  0.7546771E-02  0.1282031E+00
         21   -1    0    0  501  502  0.00000000000E+00  0.00000000000E+00  0.79696136374E+01  0.79696136374E+01  0.00000000000E+00 0.  1.
          2   -1    0    0  502    0 -0.00000000000E+00 -0.00000000000E+00 -0.26918662463E+04  0.26918662463E+04  0.00000000000E+00 0. -1.
         24    2    1    2    0    0 -0.46942691708E+02 -0.33273778126E+02 -0.31509221731E+03  0.33033272240E+03  0.80782680458E+02 0.  0.
        -13    1    3    3    0    0 -0.18656478669E+02 -0.34135689655E+02 -0.48179278269E+02  0.61923762475E+02  0.00000000000E+00 0.  1.
         14    1    3    3    0    0 -0.28286213039E+02  0.86191152847E+00 -0.26691293904E+03  0.26840895992E+03  0.00000000000E+00 0. -1.
          1    1    1    2  501    0  0.46942691708E+02  0.33273778126E+02 -0.23688044153E+04  0.23695031375E+04  0.00000000000E+00 0. -1.
<mgrwt>
<rscale>  1 0.99179645E+02</rscale>
<asrwt>0</asrwt>
<pdfrwt beam="1">  1       21 0.12260951E-02 0.99179645E+02</pdfrwt>
<pdfrwt beam="2">  1        2 0.41413302E+00 0.99179645E+02</pdfrwt>
<totfact> 0.11394410E+05</totfact>
</mgrwt>
</event>
<event>
 6    2  0.7993170E+000  0.8157981E+02  0.7546771E-02  0.1324627E+00
         -3   -1    0    0    0  501 -0.00000000000E+00  0.00000000000E+00  0.10135229383E+03  0.10135229383E+03  0.00000000000E+00 0.  1.
         21   -1    0    0  501  502  0.00000000000E+00 -0.00000000000E+00 -0.37299683443E+02  0.37299683443E+02  0.00000000000E+00 0. -1.
         24    2    1    2    0    0  0.37865658238E+01  0.20644194383E+02  0.11911182818E+02  0.82444777455E+02  0.78833648977E+02 0.  0.
        -13    1    3    3    0    0  0.25182797152E+02 -0.22002233979E+02  0.90633007779E+01  0.34647005548E+02  0.00000000000E+00 0.  1.
         14    1    3    3    0    0 -0.21396231328E+02  0.42646428362E+02  0.28478820398E+01  0.47797771906E+02  0.00000000000E+00 0. -1.
         -4    1    1    2    0  502 -0.37865658238E+01 -0.20644194383E+02  0.52141427571E+02  0.56207199820E+02  0.00000000000E+00 0.  1.
<mgrwt>
<rscale>  1 0.81579808E+02</rscale>
<asrwt>0</asrwt>
<pdfrwt beam="1">  1       21 0.57384129E-02 0.81579808E+02</pdfrwt>
<pdfrwt beam="2">  1       -3 0.15592660E-01 0.81579808E+02</pdfrwt>
<totfact> 0.32115151E+05</totfact>
</mgrwt>
</event>
<event>
 6    2  0.7993170E+000  0.8838069E+02  0.7546771E-02  0.1306821E+00
         21   -1    0    0  501  502  0.00000000000E+00  0.00000000000E+00  0.10397844401E+03  0.10397844401E+03  0.00000000000E+00 0. -1.
         -3   -1    0    0    0  501 -0.00000000000E+00 -0.00000000000E+00 -0.39752949489E+02  0.39752949489E+02  0.00000000000E+00 0.  1.
         24    2    1    2    0    0 -0.16973461099E+02  0.31324473959E+02  0.27490600572E+02  0.92557440322E+02  0.80881552832E+02 0.  0.
        -11    1    3    3    0    0 -0.23321634105E+01 -0.15525165698E+02 -0.19208127212E+02  0.24807698546E+02  0.00000000000E+00 0.  1.
         12    1    3    3    0    0 -0.14641297689E+02  0.46849639657E+02  0.46698727784E+02  0.67749741776E+02  0.00000000000E+00 0. -1.
         -4    1    1    2    0  502  0.16973461099E+02 -0.31324473959E+02  0.36734893950E+02  0.51173953179E+02  0.00000000000E+00 0.  1.
<mgrwt>
<rscale>  1 0.88380692E+02</rscale>
<asrwt>0</asrwt>
<pdfrwt beam="1">  1       21 0.15996684E-01 0.88380692E+02</pdfrwt>
<pdfrwt beam="2">  1       -3 0.61158384E-02 0.88380692E+02</pdfrwt>
<totfact> 0.25563546E+05</totfact>
</mgrwt>
</event>
<event>
 6    2  0.7993170E+000  0.8295725E+02  0.7546771E-02  0.1320863E+00
         21   -1    0    0  501  502  0.00000000000E+00  0.00000000000E+00  0.10694017572E+03  0.10694017572E+03  0.00000000000E+00 0. -1.
          4   -1    0    0  502    0 -0.00000000000E+00 -0.00000000000E+00 -0.59950131778E+02  0.59950131778E+02  0.00000000000E+00 0. -1.
         24    2    1    2    0    0 -0.13100301973E+02 -0.22384307188E+02 -0.27989462563E+02  0.87551782709E+02  0.78798664461E+02 0.  0.
        -13    1    3    3    0    0 -0.11054655032E+02 -0.14087782515E+02  0.26727350768E+02  0.32171762357E+02  0.00000000000E+00 0.  1.
         14    1    3    3    0    0 -0.20456469407E+01 -0.82965246735E+01 -0.54716813331E+02  0.55380020352E+02  0.00000000000E+00 0. -1.
          3    1    1    2  501    0  0.13100301973E+02  0.22384307188E+02  0.74979506501E+02  0.79338524785E+02  0.00000000000E+00 0. -1.
<mgrwt>
<rscale>  1 0.82957246E+02</rscale>
<asrwt>0</asrwt>
<pdfrwt beam="1">  1       21 0.16452335E-01 0.82957246E+02</pdfrwt>
<pdfrwt beam="2">  1        4 0.92230972E-02 0.82957246E+02</pdfrwt>
<totfact> 0.10778565E+05</totfact>
</mgrwt>
</event>
<event>
 6    2  0.7993170E+000  0.8342871E+02  0.7546771E-02  0.1319594E+00
          2   -1    0    0  502    0 -0.00000000000E+00  0.00000000000E+00  0.17982801428E+03  0.17982801428E+03  0.00000000000E+00 0. -1.
         21   -1    0    0  501  502  0.00000000000E+00 -0.00000000000E+00 -0.16793216159E+02  0.16793216159E+02  0.00000000000E+00 0. -1.
         24    2    1    2    0    0  0.19532160281E+02 -0.16260642421E+02  0.11254165493E+03  0.14009273066E+03  0.79463421231E+02 0.  0.
        -11    1    3    3    0    0 -0.29745148523E+02 -0.41730970938E+01  0.25772909467E+02  0.39578169013E+02  0.00000000000E+00 0.  1.
         12    1    3    3    0    0  0.49277308804E+02 -0.12087545327E+02  0.86768745458E+02  0.10051456165E+03  0.00000000000E+00 0. -1.
          1    1    1    2  501    0 -0.19532160281E+02  0.16260642421E+02  0.50493143191E+02  0.56528499773E+02  0.00000000000E+00 0. -1.
<mgrwt>
<rscale>  1 0.83428707E+02</rscale>
<asrwt>0</asrwt>
<pdfrwt beam="1">  1       21 0.25835718E-02 0.83428707E+02</pdfrwt>
<pdfrwt beam="2">  1        2 0.27665847E-01 0.83428707E+02</pdfrwt>
<totfact> 0.17476095E+06</totfact>
</mgrwt>
</event>
<event>
 6    2  0.7993170E+000  0.8628476E+02  0.7546771E-02  0.1312107E+00
         -1   -1    0    0    0  501 -0.00000000000E+00  0.00000000000E+00  0.17883990832E+03  0.17883990832E+03  0.00000000000E+00 0.  1.
         21   -1    0    0  501  502  0.00000000000E+00 -0.00000000000E+00 -0.23796151975E+02  0.23796151975E+02  0.00000000000E+00 0. -1.
         24    2    1    2    0    0 -0.44948250131E+01  0.29174308672E+02  0.14948280330E+03  0.17259828513E+03  0.81078454652E+02 0.  0.
        -11    1    3    3    0    0  0.29615254975E+01 -0.27146618789E+02  0.31773652772E+02  0.41895996890E+02  0.00000000000E+00 0.  1.
         12    1    3    3    0    0 -0.74563505106E+01  0.56320927461E+02  0.11770915053E+03  0.13070228824E+03  0.00000000000E+00 0. -1.
         -2    1    1    2    0  502  0.44948250131E+01 -0.29174308672E+02  0.55609530499E+01  0.30037775171E+02  0.00000000000E+00 0.  1.
<mgrwt>
<rscale>  1 0.86284758E+02</rscale>
<asrwt>0</asrwt>
<pdfrwt beam="1">  1       21 0.36609466E-02 0.86284758E+02</pdfrwt>
<pdfrwt beam="2">  1       -1 0.27513831E-01 0.86284758E+02</pdfrwt>
<totfact> 0.45734957E+05</totfact>
</mgrwt>
</event>
<event>
 6    2  0.7993170E+000  0.9854543E+02  0.7546771E-02  0.1283385E+00
          2   -1    0    0  502    0 -0.00000000000E+00  0.00000000000E+00  0.15574316570E+03  0.15574316570E+03  0.00000000000E+00 0. -1.
         21   -1    0    0  501  502  0.00000000000E+00 -0.00000000000E+00 -0.56299126776E+02  0.56299126776E+02  0.00000000000E+00 0. -1.
         24    2    1    2    0    0  0.47581265436E+02 -0.31147433798E+02  0.11657707247E+03  0.15264801421E+03  0.80480202317E+02 0.  0.
        -13    1    3    3    0    0 -0.21495955916E+01 -0.28987012708E+02  0.37237127903E+01  0.29304158474E+02  0.00000000000E+00 0.  1.
         14    1    3    3    0    0  0.49730861028E+02 -0.21604210906E+01  0.11285335968E+03  0.12334385574E+03  0.00000000000E+00 0. -1.
          1    1    1    2  501    0 -0.47581265436E+02  0.31147433798E+02 -0.17133033540E+02  0.59394278268E+02  0.00000000000E+00 0. -1.
<mgrwt>
<rscale>  1 0.98545433E+02</rscale>
<asrwt>0</asrwt>
<pdfrwt beam="1">  1       21 0.86614042E-02 0.98545433E+02</pdfrwt>
<pdfrwt beam="2">  1        2 0.23960487E-01 0.98545433E+02</pdfrwt>
<totfact> 0.27810406E+05</totfact>
</mgrwt>
</event>
<event>
 6    2  0.7993170E+000  0.8823422E+02  0.7546771E-02  0.1307185E+00
         21   -1    0    0  501  502  0.00000000000E+00  0.00000000000E+00  0.56496261264E+02  0.56496261264E+02  0.00000000000E+00 0. -1.
          2   -1    0    0  502    0 -0.00000000000E+00 -0.00000000000E+00 -0.10553886324E+03  0.10553886324E+03  0.00000000000E+00 0. -1.
         24    2    1    2    0    0 -0.34530303029E+02 -0.74999075209E+01 -0.76897685662E+02  0.11704072344E+03  0.80849777013E+02 0.  0.
        -11    1    3    3    0    0 -0.37063514046E+02  0.31810114456E+02 -0.42449532856E+02  0.64711284138E+02  0.00000000000E+00 0.  1.
         12    1    3    3    0    0  0.25332110169E+01 -0.39310021977E+02 -0.34448152806E+02  0.52329439301E+02  0.00000000000E+00 0. -1.
          1    1    1    2  501    0  0.34530303029E+02  0.74999075209E+01  0.27855083684E+02  0.44994401065E+02  0.00000000000E+00 0. -1.
<mgrwt>
<rscale>  1 0.88234216E+02</rscale>
<asrwt>0</asrwt>
<pdfrwt beam="1">  1       21 0.86917325E-02 0.88234216E+02</pdfrwt>
<pdfrwt beam="2">  1        2 0.16236748E-01 0.88234216E+02</pdfrwt>
<totfact> 0.42372530E+05</totfact>
</mgrwt>
</event>
<event>
 6    2  0.7993170E+000  0.8675107E+02  0.7546771E-02  0.1310916E+00
         21   -1    0    0  501  502  0.00000000000E+00  0.00000000000E+00  0.37848604892E+03  0.37848604892E+03  0.00000000000E+00 0.  1.
          4   -1    0    0  502    0 -0.00000000000E+00 -0.00000000000E+00 -0.10150212915E+02  0.10150212915E+02  0.00000000000E+00 0. -1.
         24    2    1    2    0    0  0.33860194187E+02 -0.11326086920E+01  0.30108743390E+03  0.31333590899E+03  0.79862090243E+02 0.  0.
        -13    1    3    3    0    0  0.53675362655E+02  0.14598322849E+02  0.25251689739E+03  0.25857095555E+03  0.00000000000E+00 0.  1.
         14    1    3    3    0    0 -0.19815168468E+02 -0.15730931541E+02  0.48570536503E+02  0.54764953435E+02  0.00000000000E+00 0. -1.
          3    1    1    2  501    0 -0.33860194187E+02  0.11326086920E+01  0.67248402109E+02  0.75300352848E+02  0.00000000000E+00 0. -1.
<mgrwt>
<rscale>  1 0.86751075E+02</rscale>
<asrwt>0</asrwt>
<pdfrwt beam="1">  1       21 0.58228612E-01 0.86751075E+02</pdfrwt>
<pdfrwt beam="2">  1        4 0.15615715E-02 0.86751075E+02</pdfrwt>
<totfact> 0.15634082E+05</totfact>
</mgrwt>
</event>
<event>
 6    2  0.7993170E+000  0.8391422E+02  0.7546771E-02  0.1318297E+00
          2   -1    0    0  502    0 -0.00000000000E+00  0.00000000000E+00  0.18997916199E+03  0.18997916199E+03  0.00000000000E+00 0. -1.
         21   -1    0    0  501  502  0.00000000000E+00 -0.00000000000E+00 -0.15587125743E+02  0.15587125743E+02  0.00000000000E+00 0.  1.
         24    2    1    2    0    0  0.10980754037E+02 -0.18818882838E+02  0.11543812873E+03  0.14271495105E+03  0.81036216467E+02 0.  0.
        -11    1    3    3    0    0 -0.79822893001E+00 -0.48442831714E+02  0.48401145850E+02  0.68483691734E+02  0.00000000000E+00 0.  1.
         12    1    3    3    0    0  0.11778982967E+02  0.29623948876E+02  0.67036982876E+02  0.74231259317E+02  0.00000000000E+00 0. -1.
          1    1    1    2  501    0 -0.10980754037E+02  0.18818882838E+02  0.58953907519E+02  0.62851336678E+02  0.00000000000E+00 0. -1.
<mgrwt>
<rscale>  1 0.83914216E+02</rscale>
<asrwt>0</asrwt>
<pdfrwt beam="1">  1       21 0.23980195E-02 0.83914216E+02</pdfrwt>
<pdfrwt beam="2">  1        2 0.29227562E-01 0.83914216E+02</pdfrwt>
<totfact> 0.18592036E+06</totfact>
</mgrwt>
</event>
<event>
 6    2  0.7993170E+000  0.8335800E+02  0.7546771E-02  0.1319783E+00
         21   -1    0    0  501  502  0.00000000000E+00  0.00000000000E+00  0.10672936520E+04  0.10672936520E+04  0.00000000000E+00 0.  1.
         -1   -1    0    0    0  501 -0.00000000000E+00 -0.00000000000E+00 -0.26546422092E+01  0.26546422092E+01  0.00000000000E+00 0.  1.
         24    2    1    2    0    0  0.11055619997E+02  0.19967016097E+02  0.86588141466E+03  0.86988457914E+03  0.80172615684E+02 0.  0.
        -13    1    3    3    0    0  0.16084556128E+02  0.48721132635E+02  0.65277279427E+03  0.65478605869E+03  0.00000000000E+00 0.  1.
         14    1    3    3    0    0 -0.50289361310E+01 -0.28754116538E+02  0.21310862038E+03  0.21509852045E+03  0.00000000000E+00 0. -1.
         -2    1    1    2    0  502 -0.11055619997E+02 -0.19967016097E+02  0.19875759513E+03  0.20006371507E+03  0.00000000000E+00 0.  1.
<mgrwt>
<rscale>  1 0.83358004E+02</rscale>
<asrwt>0</asrwt>
<pdfrwt beam="1">  1       21 0.16419868E+00 0.83358004E+02</pdfrwt>
<pdfrwt beam="2">  1       -1 0.40840734E-03 0.83358004E+02</pdfrwt>
<totfact> 0.13375685E+05</totfact>
</mgrwt>
</event>
<event>
 6    2  0.7993170E+000  0.8704719E+02  0.7546771E-02  0.1310164E+00
          2   -1    0    0  502    0 -0.00000000000E+00  0.00000000000E+00  0.40059450250E+02  0.40059450250E+02  0.00000000000E+00 0. -1.
         21   -1    0    0  501  502  0.00000000000E+00 -0.00000000000E+00 -0.73714903752E+02  0.73714903752E+02  0.00000000000E+00 0.  1.
         24    2    1    2    0    0  0.19220693056E+02 -0.89349589380E+01 -0.31048236283E+02  0.92418649509E+02  0.84427159540E+02 0.  0.
        -11    1    3    3    0    0  0.36401264219E+02 -0.23717507852E+02 -0.47529990481E+02  0.64394659798E+02  0.00000000000E+00 0.  1.
         12    1    3    3    0    0 -0.17180571163E+02  0.14782548914E+02  0.16481754197E+02  0.28023989711E+02  0.00000000000E+00 0. -1.
          1    1    1    2  501    0 -0.19220693056E+02  0.89349589380E+01 -0.26072172191E+01  0.21355704493E+02  0.00000000000E+00 0. -1.
<mgrwt>
<rscale>  1 0.87047193E+02</rscale>
<asrwt>0</asrwt>
<pdfrwt beam="1">  1       21 0.11340754E-01 0.87047193E+02</pdfrwt>
<pdfrwt beam="2">  1        2 0.61629924E-02 0.87047193E+02</pdfrwt>
<totfact> 0.86120918E+05</totfact>
</mgrwt>
</event>
<event>
 6    2  0.7993170E+000  0.9513655E+02  0.7546771E-02  0.1290869E+00
         21   -1    0    0  501  502  0.00000000000E+00  0.00000000000E+00  0.45050594575E+01  0.45050594575E+01  0.00000000000E+00 0. -1.
          2   -1    0    0  502    0 -0.00000000000E+00 -0.00000000000E+00 -0.24852784033E+04  0.24852784033E+04  0.00000000000E+00 0. -1.
         24    2    1    2    0    0 -0.45976091781E+02 -0.44217294704E+02 -0.21913430088E+04  0.21934072002E+04  0.70583238043E+02 0.  0.
        -13    1    3    3    0    0 -0.24322289714E+02  0.17342165764E+02 -0.70131627016E+03  0.70195216025E+03  0.00000000000E+00 0.  1.
         14    1    3    3    0    0 -0.21653802066E+02 -0.61559460468E+02 -0.14900267387E+04  0.14914550400E+04  0.00000000000E+00 0. -1.
          1    1    1    2  501    0  0.45976091781E+02  0.44217294704E+02 -0.28943033503E+03  0.29637626254E+03  0.00000000000E+00 0. -1.
<mgrwt>
<rscale>  1 0.95136553E+02</rscale>
<asrwt>0</asrwt>
<pdfrwt beam="1">  1       21 0.69308546E-03 0.95136553E+02</pdfrwt>
<pdfrwt beam="2">  1        2 0.38235086E+00 0.95136553E+02</pdfrwt>
<totfact> 0.35796605E+05</totfact>
</mgrwt>
</event>
<event>
 6    2  0.7993170E+000  0.8732147E+02  0.7546771E-02  0.1309471E+00
         21   -1    0    0  501  502  0.00000000000E+00  0.00000000000E+00  0.41645390804E+02  0.41645390804E+02  0.00000000000E+00 0.  1.
          4   -1    0    0  502    0 -0.00000000000E+00 -0.00000000000E+00 -0.72554372754E+02  0.72554372754E+02  0.00000000000E+00 0. -1.
         24    2    1    2    0    0  0.21934204269E+00  0.20337210597E+02 -0.33843956030E+02  0.93650692566E+02  0.84919895269E+02 0.  0.
        -13    1    3    3    0    0 -0.33090593007E+02  0.34208332021E+02 -0.32329926757E+02  0.57536262386E+02  0.00000000000E+00 0.  1.
         14    1    3    3    0    0  0.33309935050E+02 -0.13871121424E+02 -0.15140292732E+01  0.36114430180E+02  0.00000000000E+00 0. -1.
          3    1    1    2  501    0 -0.21934204269E+00 -0.20337210597E+02  0.29349740802E+01  0.20549070993E+02  0.00000000000E+00 0. -1.
<mgrwt>
<rscale>  1 0.87321468E+02</rscale>
<asrwt>0</asrwt>
<pdfrwt beam="1">  1       21 0.64069833E-02 0.87321468E+02</pdfrwt>
<pdfrwt beam="2">  1        4 0.11162211E-01 0.87321468E+02</pdfrwt>
<totfact> 0.40648075E+05</totfact>
</mgrwt>
</event>
<event>
 6    2  0.7993170E+000  0.8800617E+02  0.7546771E-02  0.1307753E+00
         -1   -1    0    0    0  501 -0.00000000000E+00  0.00000000000E+00  0.28241412477E+02  0.28241412477E+02  0.00000000000E+00 0.  1.
         21   -1    0    0  501  502  0.00000000000E+00 -0.00000000000E+00 -0.13268938381E+03  0.13268938381E+03  0.00000000000E+00 0. -1.
         24    2    1    2    0    0  0.16518990431E+02  0.30176212671E+02 -0.73681494616E+02  0.11477825632E+03  0.81003732126E+02 0.  0.
        -11    1    3    3    0    0  0.11536391714E+02 -0.18522858796E+02  0.47411567441E+01  0.22330767990E+02  0.00000000000E+00 0.  1.
         12    1    3    3    0    0  0.49825987175E+01  0.48699071467E+02 -0.78422651360E+02  0.92447488328E+02  0.00000000000E+00 0. -1.
         -2    1    1    2    0  502 -0.16518990431E+02 -0.30176212671E+02 -0.30766476717E+02  0.46152539969E+02  0.00000000000E+00 0.  1.
<mgrwt>
<rscale>  1 0.88006167E+02</rscale>
<asrwt>0</asrwt>
<pdfrwt beam="1">  1       21 0.20413752E-01 0.88006167E+02</pdfrwt>
<pdfrwt beam="2">  1       -1 0.43448326E-02 0.88006167E+02</pdfrwt>
<totfact> 0.39797115E+05</totfact>
</mgrwt>
</event>
<event>
 6    2  0.7993170E+000  0.8613739E+02  0.7546771E-02  0.1312485E+00
         21   -1    0    0  501  502  0.00000000000E+00  0.00000000000E+00  0.60903420358E+03  0.60903420358E+03  0.00000000000E+00 0.  1.
         -1   -1    0    0    0  501 -0.00000000000E+00 -0.00000000000E+00 -0.70719302572E+01  0.70719302572E+01  0.00000000000E+00 0.  1.
         24    2    1    2    0    0 -0.28955127348E+02 -0.98844738578E+01  0.28663400756E+03  0.29929701558E+03  0.80520475786E+02 0.  0.
        -11    1    3    3    0    0 -0.22976281055E+02 -0.90338915492E+01  0.17899039938E+02  0.30494201388E+02  0.00000000000E+00 0.  1.
         12    1    3    3    0    0 -0.59788462930E+01 -0.85058230864E+00  0.26873496762E+03  0.26880281419E+03  0.00000000000E+00 0. -1.
         -2    1    1    2    0  502  0.28955127348E+02  0.98844738578E+01  0.31532826576E+03  0.31680911826E+03  0.00000000000E+00 0.  1.
<mgrwt>
<rscale>  1 0.86137386E+02</rscale>
<asrwt>0</asrwt>
<pdfrwt beam="1">  1       21 0.93697529E-01 0.86137386E+02</pdfrwt>
<pdfrwt beam="2">  1       -1 0.10879897E-02 0.86137386E+02</pdfrwt>
<totfact> 0.13265444E+05</totfact>
</mgrwt>
</event>
<event>
 6    2  0.7993170E+000  0.8473628E+02  0.7546771E-02  0.1316124E+00
         21   -1    0    0  501  502  0.00000000000E+00  0.00000000000E+00  0.14662521232E+02  0.14662521232E+02  0.00000000000E+00 0.  1.
          2   -1    0    0  502    0 -0.00000000000E+00 -0.00000000000E+00 -0.23630890317E+03  0.23630890317E+03  0.00000000000E+00 0. -1.
         24    2    1    2    0    0 -0.11349915579E+02  0.22183912800E+02 -0.20260251796E+03  0.21960878220E+03  0.80989446007E+02 0.  0.
        -13    1    3    3    0    0  0.16483062911E+02  0.35906075179E+00 -0.28284433016E+01  0.16727832467E+02  0.00000000000E+00 0.  1.
         14    1    3    3    0    0 -0.27832978490E+02  0.21824852048E+02 -0.19977407466E+03  0.20288094973E+03  0.00000000000E+00 0. -1.
          1    1    1    2  501    0  0.11349915579E+02 -0.22183912800E+02 -0.19043863980E+02  0.31362642205E+02  0.00000000000E+00 0. -1.
<mgrwt>
<rscale>  1 0.84736279E+02</rscale>
<asrwt>0</asrwt>
<pdfrwt beam="1">  1       21 0.22557725E-02 0.84736279E+02</pdfrwt>
<pdfrwt beam="2">  1        2 0.36355215E-01 0.84736279E+02</pdfrwt>
<totfact> 0.16295472E+06</totfact>
</mgrwt>
</event>
<event>
 6    2  0.7993170E+000  0.9425093E+02  0.7546771E-02  0.1292872E+00
          2   -1    0    0  502    0 -0.00000000000E+00  0.00000000000E+00  0.16514932619E+02  0.16514932619E+02  0.00000000000E+00 0. -1.
         21   -1    0    0  501  502  0.00000000000E+00 -0.00000000000E+00 -0.33289750676E+03  0.33289750676E+03  0.00000000000E+00 0. -1.
         24    2    1    2    0    0 -0.48105928307E+02 -0.46318709870E+01 -0.25096210045E+03  0.26807688169E+03  0.80917266791E+02 0.  0.
        -11    1    3    3    0    0  0.18646732004E+02 -0.12910847151E+01 -0.11573275778E+03  0.11723241334E+03  0.00000000000E+00 0.  1.
         12    1    3    3    0    0 -0.66752660312E+02 -0.33407862719E+01 -0.13522934267E+03  0.15084446835E+03  0.00000000000E+00 0. -1.
          1    1    1    2  501    0  0.48105928307E+02  0.46318709870E+01 -0.65420473688E+02  0.81335557690E+02  0.00000000000E+00 0. -1.
<mgrwt>
<rscale>  1 0.94250934E+02</rscale>
<asrwt>0</asrwt>
<pdfrwt beam="1">  1       21 0.51214999E-01 0.94250934E+02</pdfrwt>
<pdfrwt beam="2">  1        2 0.25407590E-02 0.94250934E+02</pdfrwt>
<totfact> 0.16328595E+05</totfact>
</mgrwt>
</event>
<event>
 6    2  0.7993170E+000  0.8449759E+02  0.7546771E-02  0.1316752E+00
          2   -1    0    0  502    0 -0.00000000000E+00  0.00000000000E+00  0.18418362881E+02  0.18418362881E+02  0.00000000000E+00 0. -1.
         21   -1    0    0  501  502  0.00000000000E+00 -0.00000000000E+00 -0.45392515350E+03  0.45392515350E+03  0.00000000000E+00 0. -1.
         24    2    1    2    0    0  0.18783305386E+02 -0.12272907009E+02 -0.80749530213E+02  0.11687741305E+03  0.81464140845E+02 0.  0.
        -11    1    3    3    0    0 -0.72713785762E+01 -0.41746469827E+02 -0.56644914016E+02  0.70740985103E+02  0.00000000000E+00 0.  1.
         12    1    3    3    0    0  0.26054683962E+02  0.29473562818E+02 -0.24104616197E+02  0.46136427946E+02  0.00000000000E+00 0. -1.
          1    1    1    2  501    0 -0.18783305386E+02  0.12272907009E+02 -0.35475726041E+03  0.35546610334E+03  0.00000000000E+00 0. -1.
<mgrwt>
<rscale>  1 0.84497592E+02</rscale>
<asrwt>0</asrwt>
<pdfrwt beam="1">  1       21 0.69834638E-01 0.84497592E+02</pdfrwt>
<pdfrwt beam="2">  1        2 0.28335943E-02 0.84497592E+02</pdfrwt>
<totfact> 0.73166833E+04</totfact>
</mgrwt>
</event>
<event>
 6    2  0.7993170E+000  0.9242543E+02  0.7546771E-02  0.1297082E+00
          2   -1    0    0  502    0 -0.00000000000E+00  0.00000000000E+00  0.11082247783E+04  0.11082247783E+04  0.00000000000E+00 0. -1.
         21   -1    0    0  501  502  0.00000000000E+00 -0.00000000000E+00 -0.53602941842E+01  0.53602941842E+01  0.00000000000E+00 0. -1.
         24    2    1    2    0    0  0.21699990351E+02  0.38981054388E+02  0.94585795416E+03  0.95036294582E+03  0.80944716744E+02 0.  0.
        -13    1    3    3    0    0 -0.10840554126E+02 -0.15266529364E+02  0.78536922749E+02  0.80738050307E+02  0.00000000000E+00 0.  1.
         14    1    3    3    0    0  0.32540544477E+02  0.54247583752E+02  0.86732103141E+03  0.86962489552E+03  0.00000000000E+00 0. -1.
          1    1    1    2  501    0 -0.21699990351E+02 -0.38981054388E+02  0.15700652999E+03  0.16322212669E+03  0.00000000000E+00 0. -1.
<mgrwt>
<rscale>  1 0.92425426E+02</rscale>
<asrwt>0</asrwt>
<pdfrwt beam="1">  1       21 0.82466152E-03 0.92425426E+02</pdfrwt>
<pdfrwt beam="2">  1        2 0.17049594E+00 0.92425426E+02</pdfrwt>
<totfact> 0.13966978E+06</totfact>
</mgrwt>
</event>
<event>
 6    2  0.7993170E+000  0.8554710E+02  0.7546771E-02  0.1314008E+00
          4   -1    0    0  502    0 -0.00000000000E+00  0.00000000000E+00  0.15752708178E+03  0.15752708178E+03  0.00000000000E+00 0. -1.
         21   -1    0    0  501  502  0.00000000000E+00 -0.00000000000E+00 -0.59049831806E+02  0.59049831806E+02  0.00000000000E+00 0. -1.
         24    2    1    2    0    0 -0.20990296165E+02 -0.75191581288E+01  0.14308446924E+03  0.16670774191E+03  0.82590408653E+02 0.  0.
        -11    1    3    3    0    0  0.21657921273E+02  0.14892288780E+02  0.15936047451E+02  0.30737654877E+02  0.00000000000E+00 0.  1.
         12    1    3    3    0    0 -0.42648217438E+02 -0.22411446909E+02  0.12714842179E+03  0.13597008703E+03  0.00000000000E+00 0. -1.
          3    1    1    2  501    0  0.20990296165E+02  0.75191581288E+01 -0.44607219274E+02  0.49869171673E+02  0.00000000000E+00 0. -1.
<mgrwt>
<rscale>  1 0.85547097E+02</rscale>
<asrwt>0</asrwt>
<pdfrwt beam="1">  1       21 0.90845896E-02 0.85547097E+02</pdfrwt>
<pdfrwt beam="2">  1        4 0.24234935E-01 0.85547097E+02</pdfrwt>
<totfact> 0.57705004E+04</totfact>
</mgrwt>
</event>
<event>
 6    2  0.7993170E+000  0.8514339E+02  0.7546771E-02  0.1315058E+00
         21   -1    0    0  501  502  0.00000000000E+00  0.00000000000E+00  0.17252595692E+01  0.17252595692E+01  0.00000000000E+00 0.  1.
          2   -1    0    0  502    0 -0.00000000000E+00 -0.00000000000E+00 -0.19052098237E+04  0.19052098237E+04  0.00000000000E+00 0. -1.
         24    2    1    2    0    0  0.14156313456E+02 -0.23621538096E+02 -0.15742431589E+04  0.15765439799E+04  0.80566859915E+02 0.  0.
        -11    1    3    3    0    0  0.19628179816E+02  0.98780958524E+01 -0.12590379409E+03  0.12780691525E+03  0.00000000000E+00 0.  1.
         12    1    3    3    0    0 -0.54718663592E+01 -0.33499633949E+02 -0.14483393648E+04  0.14487370646E+04  0.00000000000E+00 0. -1.
          1    1    1    2  501    0 -0.14156313456E+02  0.23621538096E+02 -0.32924140525E+03  0.33039110340E+03  0.00000000000E+00 0. -1.
<mgrwt>
<rscale>  1 0.85143392E+02</rscale>
<asrwt>0</asrwt>
<pdfrwt beam="1">  1       21 0.26542390E-03 0.85143392E+02</pdfrwt>
<pdfrwt beam="2">  1        2 0.29310993E+00 0.85143392E+02</pdfrwt>
<totfact> 0.30454523E+06</totfact>
</mgrwt>
</event>
<event>
 6    2  0.7993170E+000  0.8618669E+02  0.7546771E-02  0.1312358E+00
          4   -1    0    0  502    0 -0.00000000000E+00  0.00000000000E+00  0.10473226064E+03  0.10473226064E+03  0.00000000000E+00 0. -1.
         21   -1    0    0  501  502  0.00000000000E+00 -0.00000000000E+00 -0.60586891613E+02  0.60586891613E+02  0.00000000000E+00 0. -1.
         24    2    1    2    0    0  0.12579926304E+02 -0.31469793396E+02  0.78848174208E+02  0.11681258435E+03  0.79243566587E+02 0.  0.
        -13    1    3    3    0    0  0.11748056222E+02  0.25648726356E+02  0.34041265505E+02  0.44211782885E+02  0.00000000000E+00 0.  1.
         14    1    3    3    0    0  0.83187008230E+00 -0.57118519752E+02  0.44806908703E+02  0.72600801469E+02  0.00000000000E+00 0. -1.
          3    1    1    2  501    0 -0.12579926304E+02  0.31469793396E+02 -0.34702805180E+02  0.48506567901E+02  0.00000000000E+00 0. -1.
<mgrwt>
<rscale>  1 0.86186689E+02</rscale>
<asrwt>0</asrwt>
<pdfrwt beam="1">  1       21 0.93210602E-02 0.86186689E+02</pdfrwt>
<pdfrwt beam="2">  1        4 0.16112655E-01 0.86186689E+02</pdfrwt>
<totfact> 0.11426857E+05</totfact>
</mgrwt>
</event>
<event>
 6    2  0.7993170E+000  0.8519905E+02  0.7546771E-02  0.1314913E+00
         21   -1    0    0  501  502  0.00000000000E+00  0.00000000000E+00  0.45729477133E+02  0.45729477133E+02  0.00000000000E+00 0.  1.
          2   -1    0    0  502    0 -0.00000000000E+00 -0.00000000000E+00 -0.71104848397E+02  0.71104848397E+02  0.00000000000E+00 0. -1.
         24    2    1    2    0    0  0.27666589031E+02 -0.67122982156E+01 -0.14860166145E+02  0.86485278846E+02  0.80301829513E+02 0.  0.
        -13    1    3    3    0    0 -0.12821820661E+02  0.14211742255E+02  0.21058106662E+02  0.28457276032E+02  0.00000000000E+00 0.  1.
         14    1    3    3    0    0  0.40488409693E+02 -0.20924040471E+02 -0.35918272807E+02  0.58028002813E+02  0.00000000000E+00 0. -1.
          1    1    1    2  501    0 -0.27666589031E+02  0.67122982156E+01 -0.10515205118E+02  0.30349046684E+02  0.00000000000E+00 0. -1.
<mgrwt>
<rscale>  1 0.85199055E+02</rscale>
<asrwt>0</asrwt>
<pdfrwt beam="1">  1       21 0.70353042E-02 0.85199055E+02</pdfrwt>
<pdfrwt beam="2">  1        2 0.10939207E-01 0.85199055E+02</pdfrwt>
<totfact> 0.96121441E+05</totfact>
</mgrwt>
</event>
<event>
 6    2  0.7993170E+000  0.8690783E+02  0.7546771E-02  0.1310517E+00
          2   -1    0    0  502    0 -0.00000000000E+00  0.00000000000E+00  0.23518953722E+03  0.23518953722E+03  0.00000000000E+00 0. -1.
         21   -1    0    0  501  502  0.00000000000E+00 -0.00000000000E+00 -0.27448922386E+02  0.27448922386E+02  0.00000000000E+00 0.  1.
         24    2    1    2    0    0  0.22253502144E+02 -0.22637677339E+02  0.21337796995E+03  0.23039776225E+03  0.80902954207E+02 0.  0.
        -11    1    3    3    0    0  0.11096220341E+02 -0.49030813498E+02  0.17749991412E+03  0.18448134402E+03  0.00000000000E+00 0.  1.
         12    1    3    3    0    0  0.11157281803E+02  0.26393136159E+02  0.35878055826E+02  0.45916418233E+02  0.00000000000E+00 0. -1.
          1    1    1    2  501    0 -0.22253502144E+02  0.22637677339E+02 -0.56373551159E+01  0.32240697351E+02  0.00000000000E+00 0. -1.
<mgrwt>
<rscale>  1 0.86907829E+02</rscale>
<asrwt>0</asrwt>
<pdfrwt beam="1">  1       21 0.42229113E-02 0.86907829E+02</pdfrwt>
<pdfrwt beam="2">  1        2 0.36183004E-01 0.86907829E+02</pdfrwt>
<totfact> 0.59252903E+05</totfact>
</mgrwt>
</event>
<event>
 6    2  0.7993170E+000  0.9261915E+02  0.7546771E-02  0.1296630E+00
         21   -1    0    0  501  502  0.00000000000E+00  0.00000000000E+00  0.61913439258E+01  0.61913439258E+01  0.00000000000E+00 0. -1.
          2   -1    0    0  502    0 -0.00000000000E+00 -0.00000000000E+00 -0.15536101007E+04  0.15536101007E+04  0.00000000000E+00 0. -1.
         24    2    1    2    0    0 -0.43947797171E+02  0.36081393058E+02 -0.13777163693E+04  0.13808260940E+04  0.73109725490E+02 0.  0.
        -13    1    3    3    0    0 -0.16771792567E+02  0.16932249625E+02 -0.10480283157E+03  0.10747849835E+03  0.00000000000E+00 0.  1.
         14    1    3    3    0    0 -0.27176004604E+02  0.19149143434E+02 -0.12729135377E+04  0.12733475957E+04  0.00000000000E+00 0. -1.
          1    1    1    2  501    0  0.43947797171E+02 -0.36081393058E+02 -0.16970238751E+03  0.17897535061E+03  0.00000000000E+00 0. -1.
<mgrwt>
<rscale>  1 0.92619154E+02</rscale>
<asrwt>0</asrwt>
<pdfrwt beam="1">  1       21 0.95251462E-03 0.92619154E+02</pdfrwt>
<pdfrwt beam="2">  1        2 0.23901690E+00 0.92619154E+02</pdfrwt>
<totfact> 0.64890187E+05</totfact>
</mgrwt>
</event>
<event>
 6    2  0.7993170E+000  0.8278337E+02  0.7546771E-02  0.1321333E+00
         21   -1    0    0  501  502  0.00000000000E+00  0.00000000000E+00  0.10471132441E+03  0.10471132441E+03  0.00000000000E+00 0. -1.
         -1   -1    0    0    0  501 -0.00000000000E+00 -0.00000000000E+00 -0.26023987952E+02  0.26023987952E+02  0.00000000000E+00 0.  1.
         24    2    1    2    0    0  0.18978784563E+02 -0.91832846766E+01  0.57138873037E+02  0.10058795333E+03  0.80053473139E+02 0.  0.
        -13    1    3    3    0    0  0.24952190206E+02 -0.21592231953E+02 -0.80458675603E+01  0.33964279200E+02  0.00000000000E+00 0.  1.
         14    1    3    3    0    0 -0.59734056423E+01  0.12408947276E+02  0.65184740597E+02  0.66623674127E+02  0.00000000000E+00 0. -1.
         -2    1    1    2    0  502 -0.18978784563E+02  0.91832846766E+01  0.21548463421E+02  0.30147359034E+02  0.00000000000E+00 0.  1.
<mgrwt>
<rscale>  1 0.82783365E+02</rscale>
<asrwt>0</asrwt>
<pdfrwt beam="1">  1       21 0.16109434E-01 0.82783365E+02</pdfrwt>
<pdfrwt beam="2">  1       -1 0.40036905E-02 0.82783365E+02</pdfrwt>
<totfact> 0.68342079E+05</totfact>
</mgrwt>
</event>
<event>
 6    2  0.7993170E+000  0.8426849E+02  0.7546771E-02  0.1317357E+00
          2   -1    0    0  502    0 -0.00000000000E+00  0.00000000000E+00  0.53127333932E+02  0.53127333932E+02  0.00000000000E+00 0. -1.
         21   -1    0    0  501  502  0.00000000000E+00 -0.00000000000E+00 -0.65447277064E+02  0.65447277064E+02  0.00000000000E+00 0. -1.
         24    2    1    2    0    0 -0.21873334485E+02  0.36414391759E+01  0.12613501922E+02  0.85207268833E+02  0.81298680128E+02 0.  0.
        -13    1    3    3    0    0  0.13673435487E+02 -0.26824855757E+02  0.22214212602E+02  0.37416666954E+02  0.00000000000E+00 0.  1.
         14    1    3    3    0    0 -0.35546769973E+02  0.30466294933E+02 -0.96007106799E+01  0.47790601880E+02  0.00000000000E+00 0. -1.
          1    1    1    2  501    0  0.21873334485E+02 -0.36414391759E+01 -0.24933445053E+02  0.33367342163E+02  0.00000000000E+00 0. -1.
<mgrwt>
<rscale>  1 0.84268489E+02</rscale>
<asrwt>0</asrwt>
<pdfrwt beam="1">  1       21 0.10068812E-01 0.84268489E+02</pdfrwt>
<pdfrwt beam="2">  1        2 0.81734360E-02 0.84268489E+02</pdfrwt>
<totfact> 0.74110914E+05</totfact>
</mgrwt>
</event>
<event>
 6    2  0.7993170E+000  0.8520976E+02  0.7546771E-02  0.1314885E+00
         21   -1    0    0  501  502  0.00000000000E+00  0.00000000000E+00  0.36919431229E+01  0.36919431229E+01  0.00000000000E+00 0. -1.
          2   -1    0    0  502    0 -0.00000000000E+00 -0.00000000000E+00 -0.22085275259E+04  0.22085275259E+04  0.00000000000E+00 0. -1.
         24    2    1    2    0    0 -0.26116272717E+02  0.19723341203E+01 -0.21474482428E+04  0.21491381200E+04  0.81084854320E+02 0.  0.
        -11    1    3    3    0    0 -0.10784046651E+02 -0.16354920954E+02 -0.12311668509E+03  0.12466554154E+03  0.00000000000E+00 0.  1.
         12    1    3    3    0    0 -0.15332226066E+02  0.18327255074E+02 -0.20243315577E+04  0.20244725785E+04  0.00000000000E+00 0. -1.
          1    1    1    2  501    0  0.26116272717E+02 -0.19723341203E+01 -0.57387339947E+02  0.63081348976E+02  0.00000000000E+00 0. -1.
<mgrwt>
<rscale>  1 0.85209761E+02</rscale>
<asrwt>0</asrwt>
<pdfrwt beam="1">  1       21 0.56798927E-03 0.85209761E+02</pdfrwt>
<pdfrwt beam="2">  1        2 0.33977465E+00 0.85209761E+02</pdfrwt>
<totfact> 0.67417462E+05</totfact>
</mgrwt>
</event>
<event>
 6    2  0.7993170E+000  0.8498744E+02  0.7546771E-02  0.1315465E+00
         21   -1    0    0  501  502  0.00000000000E+00  0.00000000000E+00  0.35806387331E+02  0.35806387331E+02  0.00000000000E+00 0. -1.
          2   -1    0    0  502    0 -0.00000000000E+00 -0.00000000000E+00 -0.32109678724E+03  0.32109678724E+03  0.00000000000E+00 0. -1.
         24    2    1    2    0    0  0.41282073411E+02 -0.20231201764E+01 -0.30093824014E+03  0.31270863300E+03  0.74260098113E+02 0.  0.
        -13    1    3    3    0    0  0.20578266425E+02 -0.27739547423E+02 -0.57756717580E+02  0.67296255215E+02  0.00000000000E+00 0.  1.
         14    1    3    3    0    0  0.20703806986E+02  0.25716427246E+02 -0.24318152256E+03  0.24541237779E+03  0.00000000000E+00 0. -1.
          1    1    1    2  501    0 -0.41282073411E+02  0.20231201764E+01  0.15647840237E+02  0.44194541568E+02  0.00000000000E+00 0. -1.
<mgrwt>
<rscale>  1 0.84987439E+02</rscale>
<asrwt>0</asrwt>
<pdfrwt beam="1">  1       21 0.55086747E-02 0.84987439E+02</pdfrwt>
<pdfrwt beam="2">  1        2 0.49399508E-01 0.84987439E+02</pdfrwt>
<totfact> 0.27479051E+05</totfact>
</mgrwt>
</event>
<event>
 6    2  0.7993170E+000  0.1005272E+03  0.7546771E-02  0.1279191E+00
          2   -1    0    0  502    0 -0.00000000000E+00  0.00000000000E+00  0.48799848119E+03  0.48799848119E+03  0.00000000000E+00 0. -1.
         21   -1    0    0  501  502  0.00000000000E+00 -0.00000000000E+00 -0.14120362452E+02  0.14120362452E+02  0.00000000000E+00 0. -1.
         24    2    1    2    0    0  0.77081773297E+01 -0.59880278966E+02  0.35250379829E+03  0.36655782613E+03  0.80378157953E+02 0.  0.
        -13    1    3    3    0    0  0.27965272252E+02 -0.30549634654E+02  0.66510637011E+02  0.78351780230E+02  0.00000000000E+00 0.  1.
         14    1    3    3    0    0 -0.20257094922E+02 -0.29330644312E+02  0.28599316128E+03  0.28820604590E+03  0.00000000000E+00 0. -1.
          1    1    1    2  501    0 -0.77081773297E+01  0.59880278966E+02  0.12137432044E+03  0.13556101751E+03  0.00000000000E+00 0. -1.
<mgrwt>
<rscale>  1 0.10052717E+03</rscale>
<asrwt>0</asrwt>
<pdfrwt beam="1">  1       21 0.21723638E-02 0.10052717E+03</pdfrwt>
<pdfrwt beam="2">  1        2 0.75076677E-01 0.10052717E+03</pdfrwt>
<totfact> 0.82129857E+05</totfact>
</mgrwt>
</event>
<event>
 6    2  0.7993170E+000  0.8677502E+02  0.7546771E-02  0.1310855E+00
         21   -1    0    0  501  502  0.00000000000E+00  0.00000000000E+00  0.35613066769E+03  0.35613066769E+03  0.00000000000E+00 0. -1.
         -1   -1    0    0    0  501 -0.00000000000E+00 -0.00000000000E+00 -0.12126227438E+02  0.12126227438E+02  0.00000000000E+00 0.  1.
         24    2    1    2    0    0  0.75399006388E+01 -0.28075940156E+02  0.31670394906E+03  0.32837675801E+03  0.81760597684E+02 0.  0.
        -11    1    3    3    0    0  0.24542912534E+02 -0.42090692433E+02  0.10762894485E+03  0.11814385602E+03  0.00000000000E+00 0.  1.
         12    1    3    3    0    0 -0.17003011895E+02  0.14014752277E+02  0.20907500421E+03  0.21023290199E+03  0.00000000000E+00 0. -1.
         -2    1    1    2    0  502 -0.75399006388E+01  0.28075940156E+02  0.27300491192E+02  0.39880137119E+02  0.00000000000E+00 0.  1.
<mgrwt>
<rscale>  1 0.86775019E+02</rscale>
<asrwt>0</asrwt>
<pdfrwt beam="1">  1       21 0.54789325E-01 0.86775019E+02</pdfrwt>
<pdfrwt beam="2">  1       -1 0.18655737E-02 0.86775019E+02</pdfrwt>
<totfact> 0.19769296E+05</totfact>
</mgrwt>
</event>
<event>
 6    2  0.7993170E+000  0.1173180E+03  0.7546771E-02  0.1247588E+00
          2   -1    0    0  502    0 -0.00000000000E+00  0.00000000000E+00  0.22226946531E+04  0.22226946531E+04  0.00000000000E+00 0. -1.
         21   -1    0    0  501  502  0.00000000000E+00 -0.00000000000E+00 -0.62547135387E+01  0.62547135387E+01  0.00000000000E+00 0. -1.
         24    2    1    2    0    0  0.21240965536E+01 -0.85560530645E+02  0.17992529736E+04  0.18030737032E+04  0.80239639615E+02 0.  0.
        -13    1    3    3    0    0 -0.38382887073E+02 -0.48279755332E+02  0.86014761064E+03  0.86235612881E+03  0.00000000000E+00 0.  1.
         14    1    3    3    0    0  0.40506983627E+02 -0.37280775313E+02  0.93910536297E+03  0.94071757435E+03  0.00000000000E+00 0. -1.
          1    1    1    2  501    0 -0.21240965536E+01  0.85560530645E+02  0.41718696597E+03  0.42587566351E+03  0.00000000000E+00 0. -1.
<mgrwt>
<rscale>  1 0.11731801E+03</rscale>
<asrwt>0</asrwt>
<pdfrwt beam="1">  1       21 0.96226539E-03 0.11731801E+03</pdfrwt>
<pdfrwt beam="2">  1        2 0.34195240E+00 0.11731801E+03</pdfrwt>
<totfact> 0.29432393E+05</totfact>
</mgrwt>
</event>
<event>
 6    2  0.7993170E+000  0.1345917E+03  0.7546771E-02  0.1220797E+00
         21   -1    0    0  501  502  0.00000000000E+00  0.00000000000E+00  0.12654086448E+02  0.12654086448E+02  0.00000000000E+00 0. -1.
          2   -1    0    0  502    0 -0.00000000000E+00 -0.00000000000E+00 -0.16524905945E+04  0.16524905945E+04  0.00000000000E+00 0. -1.
         24    2    1    2    0    0  0.25360159805E+02  0.10527096167E+03 -0.13327040368E+04  0.13394830959E+04  0.79936233486E+02 0.  0.
        -11    1    3    3    0    0 -0.25008564638E+02  0.10968335918E+02 -0.31348045969E+03  0.31466765215E+03  0.00000000000E+00 0.  1.
         12    1    3    3    0    0  0.50368724444E+02  0.94302625752E+02 -0.10192235771E+04  0.10248154438E+04  0.00000000000E+00 0. -1.
          1    1    1    2  501    0 -0.25360159805E+02 -0.10527096167E+03 -0.30713247120E+03  0.32566158500E+03  0.00000000000E+00 0. -1.
<mgrwt>
<rscale>  1 0.13459166E+03</rscale>
<asrwt>0</asrwt>
<pdfrwt beam="1">  1       21 0.19467828E-02 0.13459166E+03</pdfrwt>
<pdfrwt beam="2">  1        2 0.25422928E+00 0.13459166E+03</pdfrwt>
<totfact> 0.18774897E+05</totfact>
</mgrwt>
</event>
<event>
 6    2  0.7993170E+000  0.1358088E+03  0.7546771E-02  0.1219082E+00
         21   -1    0    0  501  502  0.00000000000E+00  0.00000000000E+00  0.16079684717E+02  0.16079684717E+02  0.00000000000E+00 0. -1.
          2   -1    0    0  502    0 -0.00000000000E+00 -0.00000000000E+00 -0.95771421941E+03  0.95771421941E+03  0.00000000000E+00 0. -1.
         24    2    1    2    0    0 -0.93431898898E+02 -0.55645018371E+02 -0.60394012254E+03  0.61902157741E+03  0.81352036798E+02 0.  0.
        -11    1    3    3    0    0  0.90412665519E+01  0.10296624349E+02 -0.73272349401E+02  0.74542619759E+02  0.00000000000E+00 0.  1.
         12    1    3    3    0    0 -0.10247316545E+03 -0.65941642720E+02 -0.53066777314E+03  0.54447895765E+03  0.00000000000E+00 0. -1.
          1    1    1    2  501    0  0.93431898898E+02  0.55645018371E+02 -0.33769441215E+03  0.35477232671E+03  0.00000000000E+00 0. -1.
<mgrwt>
<rscale>  1 0.13580884E+03</rscale>
<asrwt>0</asrwt>
<pdfrwt beam="1">  1       21 0.24737975E-02 0.13580884E+03</pdfrwt>
<pdfrwt beam="2">  1        2 0.14734066E+00 0.13580884E+03</pdfrwt>
<totfact> 0.30500855E+05</totfact>
</mgrwt>
</event>
<event>
 6    2  0.7993170E+000  0.8766133E+02  0.7546771E-02  0.1308616E+00
         21   -1    0    0  501  502  0.00000000000E+00  0.00000000000E+00  0.49161218012E+01  0.49161218012E+01  0.00000000000E+00 0.  1.
          2   -1    0    0  502    0 -0.00000000000E+00 -0.00000000000E+00 -0.11969937994E+04  0.11969937994E+04  0.00000000000E+00 0. -1.
         24    2    1    2    0    0  0.23003384366E+02 -0.24721550920E+02 -0.41785546241E+03  0.42695163248E+03  0.80896218922E+02 0.  0.
        -13    1    3    3    0    0  0.38603403136E+02 -0.22250943874E+02 -0.10986581717E+03  0.11855726473E+03  0.00000000000E+00 0.  1.
         14    1    3    3    0    0 -0.15600018770E+02 -0.24706070465E+01 -0.30798964524E+03  0.30839436775E+03  0.00000000000E+00 0. -1.
          1    1    1    2  501    0 -0.23003384366E+02  0.24721550920E+02 -0.77422221523E+03  0.77495828877E+03  0.00000000000E+00 0. -1.
<mgrwt>
<rscale>  1 0.87661331E+02</rscale>
<asrwt>0</asrwt>
<pdfrwt beam="1">  1       21 0.75632610E-03 0.87661331E+02</pdfrwt>
<pdfrwt beam="2">  1        2 0.18415297E+00 0.87661331E+02</pdfrwt>
<totfact> 0.14209898E+06</totfact>
</mgrwt>
</event>
<event>
 6    2  0.7993170E+000  0.8455221E+02  0.7546771E-02  0.1316608E+00
         21   -1    0    0  501  502  0.00000000000E+00  0.00000000000E+00  0.54416681939E+01  0.54416681939E+01  0.00000000000E+00 0.  1.
          2   -1    0    0  502    0 -0.00000000000E+00 -0.00000000000E+00 -0.96171294194E+03  0.96171294194E+03  0.00000000000E+00 0. -1.
         24    2    1    2    0    0 -0.23057396951E+02  0.12379525900E+02 -0.34097051919E+03  0.35129755304E+03  0.80400121885E+02 0.  0.
        -13    1    3    3    0    0  0.15672980073E+02 -0.60548536814E+01 -0.15019658963E+02  0.22536497351E+02  0.00000000000E+00 0.  1.
         14    1    3    3    0    0 -0.38730377024E+02  0.18434379581E+02 -0.32595086022E+03  0.32876105569E+03  0.00000000000E+00 0. -1.
          1    1    1    2  501    0  0.23057396951E+02 -0.12379525900E+02 -0.61530075456E+03  0.61585705710E+03  0.00000000000E+00 0. -1.
<mgrwt>
<rscale>  1 0.84552208E+02</rscale>
<asrwt>0</asrwt>
<pdfrwt beam="1">  1       21 0.83718044E-03 0.84552208E+02</pdfrwt>
<pdfrwt beam="2">  1        2 0.14795571E+00 0.84552208E+02</pdfrwt>
<totfact> 0.16443945E+06</totfact>
</mgrwt>
</event>
<event>
 6    2  0.7993170E+000  0.8986129E+02  0.7546771E-02  0.1303188E+00
         21   -1    0    0  501  502  0.00000000000E+00  0.00000000000E+00  0.36133379306E+03  0.36133379306E+03  0.00000000000E+00 0. -1.
          2   -1    0    0  502    0 -0.00000000000E+00 -0.00000000000E+00 -0.22081842123E+02  0.22081842123E+02  0.00000000000E+00 0. -1.
         24    2    1    2    0    0 -0.32109971577E+02  0.28281293826E+02  0.78939030850E+02  0.11960945971E+03  0.79020063304E+02 0.  0.
        -11    1    3    3    0    0  0.12031844994E+02  0.38003846059E+02  0.18003249142E+02  0.43739851268E+02  0.00000000000E+00 0.  1.
         12    1    3    3    0    0 -0.44141816572E+02 -0.97225522338E+01  0.60935781708E+02  0.75869608439E+02  0.00000000000E+00 0. -1.
          1    1    1    2  501    0  0.32109971577E+02 -0.28281293826E+02  0.26031292009E+03  0.26380617548E+03  0.00000000000E+00 0. -1.
<mgrwt>
<rscale>  1 0.89861295E+02</rscale>
<asrwt>0</asrwt>
<pdfrwt beam="1">  1       21 0.55589810E-01 0.89861295E+02</pdfrwt>
<pdfrwt beam="2">  1        2 0.33972067E-02 0.89861295E+02</pdfrwt>
<totfact> 0.93453961E+04</totfact>
</mgrwt>
</event>
<event>
 6    2  0.7993170E+000  0.9764656E+02  0.7546771E-02  0.1285324E+00
          2   -1    0    0  502    0 -0.00000000000E+00  0.00000000000E+00  0.29276090042E+02  0.29276090042E+02  0.00000000000E+00 0. -1.
         21   -1    0    0  501  502  0.00000000000E+00 -0.00000000000E+00 -0.19840550617E+03  0.19840550617E+03  0.00000000000E+00 0.  1.
         24    2    1    2    0    0 -0.17373094694E+02  0.49375108466E+02 -0.12866193196E+03  0.16152010416E+03  0.82432551563E+02 0.  0.
        -11    1    3    3    0    0 -0.64691643123E+01  0.67741669342E+02 -0.12100964561E+03  0.13883125795E+03  0.00000000000E+00 0.  1.
         12    1    3    3    0    0 -0.10903930382E+02 -0.18366560877E+02 -0.76522863510E+01  0.22688846216E+02  0.00000000000E+00 0. -1.
          1    1    1    2  501    0  0.17373094694E+02 -0.49375108466E+02 -0.40467484162E+02  0.66161492046E+02  0.00000000000E+00 0. -1.
<mgrwt>
<rscale>  1 0.97646563E+02</rscale>
<asrwt>0</asrwt>
<pdfrwt beam="1">  1       21 0.30523925E-01 0.97646563E+02</pdfrwt>
<pdfrwt beam="2">  1        2 0.45040137E-02 0.97646563E+02</pdfrwt>
<totfact> 0.21410211E+05</totfact>
</mgrwt>
</event>
<event>
 6    2  0.7993170E+000  0.9361842E+02  0.7546771E-02  0.1294318E+00
          2   -1    0    0  502    0 -0.00000000000E+00  0.00000000000E+00  0.41060767895E+03  0.41060767895E+03  0.00000000000E+00 0. -1.
         21   -1    0    0  501  502  0.00000000000E+00 -0.00000000000E+00 -0.56703408421E+02  0.56703408421E+02  0.00000000000E+00 0. -1.
         24    2    1    2    0    0  0.51848196510E+01 -0.49240860490E+02  0.39314241165E+03  0.40413532925E+03  0.79453532439E+02 0.  0.
        -11    1    3    3    0    0 -0.36897707191E+02 -0.20319453261E+02  0.15856014267E+03  0.16405986658E+03  0.00000000000E+00 0.  1.
         12    1    3    3    0    0  0.42082526842E+02 -0.28921407229E+02  0.23458226897E+03  0.24007546267E+03  0.00000000000E+00 0. -1.
          1    1    1    2  501    0 -0.51848196510E+01  0.49240860490E+02 -0.39238141113E+02  0.63175758125E+02  0.00000000000E+00 0. -1.
<mgrwt>
<rscale>  1 0.93618420E+02</rscale>
<asrwt>0</asrwt>
<pdfrwt beam="1">  1       21 0.87236015E-02 0.93618420E+02</pdfrwt>
<pdfrwt beam="2">  1        2 0.63170410E-01 0.93618420E+02</pdfrwt>
<totfact> 0.98000193E+04</totfact>
</mgrwt>
</event>
<event>
 6    2  0.7993170E+000  0.8514511E+02  0.7546771E-02  0.1315053E+00
          2   -1    0    0  502    0 -0.00000000000E+00  0.00000000000E+00  0.25835895096E+03  0.25835895096E+03  0.00000000000E+00 0. -1.
         21   -1    0    0  501  502  0.00000000000E+00 -0.00000000000E+00 -0.42745914023E+02  0.42745914023E+02  0.00000000000E+00 0. -1.
         24    2    1    2    0    0 -0.21490179900E+01  0.21988406024E+02  0.24782538234E+03  0.26204409856E+03  0.82228834262E+02 0.  0.
        -11    1    3    3    0    0  0.21184960567E+02  0.34947416658E+02  0.61650028678E+02  0.73965198041E+02  0.00000000000E+00 0.  1.
         12    1    3    3    0    0 -0.23333978557E+02 -0.12959010634E+02  0.18617535366E+03  0.18807890052E+03  0.00000000000E+00 0. -1.
          1    1    1    2  501    0  0.21490179900E+01 -0.21988406024E+02 -0.32212345395E+02  0.39060766424E+02  0.00000000000E+00 0. -1.
<mgrwt>
<rscale>  1 0.85145108E+02</rscale>
<asrwt>0</asrwt>
<pdfrwt beam="1">  1       21 0.65762946E-02 0.85145108E+02</pdfrwt>
<pdfrwt beam="2">  1        2 0.39747530E-01 0.85145108E+02</pdfrwt>
<totfact> 0.25612942E+05</totfact>
</mgrwt>
</event>
<event>
 6    2  0.7993170E+000  0.8533042E+02  0.7546771E-02  0.1314571E+00
         -3   -1    0    0    0  501 -0.00000000000E+00  0.00000000000E+00  0.11137084328E+04  0.11137084328E+04  0.00000000000E+00 0.  1.
         21   -1    0    0  501  502  0.00000000000E+00 -0.00000000000E+00 -0.31181903386E+01  0.31181903386E+01  0.00000000000E+00 0. -1.
         24    2    1    2    0    0  0.29037903333E+02 -0.11563875118E+02  0.88006849005E+03  0.88419558185E+03  0.79399979473E+02 0.  0.
        -13    1    3    3    0    0  0.32402690133E+02 -0.17961982115E+02  0.87392161587E+03  0.87470655526E+03  0.00000000000E+00 0.  1.
         14    1    3    3    0    0 -0.33647868003E+01  0.63981069978E+01  0.61468741779E+01  0.94890265848E+01  0.00000000000E+00 0. -1.
         -4    1    1    2    0  502 -0.29037903333E+02  0.11563875118E+02  0.23052175239E+03  0.23263104127E+03  0.00000000000E+00 0.  1.
<mgrwt>
<rscale>  1 0.85330415E+02</rscale>
<asrwt>0</asrwt>
<pdfrwt beam="1">  1       21 0.47972248E-03 0.85330415E+02</pdfrwt>
<pdfrwt beam="2">  1       -3 0.17133944E+00 0.85330415E+02</pdfrwt>
<totfact> 0.12999948E+05</totfact>
</mgrwt>
</event>
<event>
 6    2  0.7993170E+000  0.8140366E+02  0.7546771E-02  0.1325115E+00
          2   -1    0    0  502    0 -0.00000000000E+00  0.00000000000E+00  0.72375481798E+03  0.72375481798E+03  0.00000000000E+00 0. -1.
         21   -1    0    0  501  502  0.00000000000E+00 -0.00000000000E+00 -0.37416009205E+02  0.37416009205E+02  0.00000000000E+00 0. -1.
         24    2    1    2    0    0 -0.25380454133E+02  0.50462246064E+00  0.71686299133E+03  0.72147009902E+03  0.77344252230E+02 0.  0.
        -13    1    3    3    0    0  0.21478279779E+02 -0.74278820517E+01  0.43777555579E+03  0.43836506154E+03  0.00000000000E+00 0.  1.
         14    1    3    3    0    0 -0.46858733912E+02  0.79325045123E+01  0.27908743554E+03  0.28310503748E+03  0.00000000000E+00 0. -1.
          1    1    1    2  501    0  0.25380454133E+02 -0.50462246064E+00 -0.30524182554E+02  0.39700728160E+02  0.00000000000E+00 0. -1.
<mgrwt>
<rscale>  1 0.81403657E+02</rscale>
<asrwt>0</asrwt>
<pdfrwt beam="1">  1       21 0.57563096E-02 0.81403657E+02</pdfrwt>
<pdfrwt beam="2">  1        2 0.11134689E+00 0.81403657E+02</pdfrwt>
<totfact> 0.10566294E+05</totfact>
</mgrwt>
</event>
<event>
 6    2  0.7993170E+000  0.8375411E+02  0.7546771E-02  0.1318723E+00
         21   -1    0    0  501  502  0.00000000000E+00  0.00000000000E+00  0.15337999044E+02  0.15337999044E+02  0.00000000000E+00 0. -1.
          2   -1    0    0  502    0 -0.00000000000E+00 -0.00000000000E+00 -0.58126731606E+03  0.58126731606E+03  0.00000000000E+00 0. -1.
         24    2    1    2    0    0 -0.10006347971E+01  0.24542642093E+02 -0.56587768970E+03  0.57204222865E+03  0.80071275182E+02 0.  0.
        -11    1    3    3    0    0  0.25150318026E+02 -0.53916625630E+01 -0.70037364135E+02  0.74611265215E+02  0.00000000000E+00 0.  1.
         12    1    3    3    0    0 -0.26150952823E+02  0.29934304656E+02 -0.49584032556E+03  0.49743096343E+03  0.00000000000E+00 0. -1.
          1    1    1    2  501    0  0.10006347971E+01 -0.24542642093E+02 -0.51627319628E-01  0.24563086456E+02  0.00000000000E+00 0. -1.
<mgrwt>
<rscale>  1 0.83754114E+02</rscale>
<asrwt>0</asrwt>
<pdfrwt beam="1">  1       21 0.23596925E-02 0.83754114E+02</pdfrwt>
<pdfrwt beam="2">  1        2 0.89425729E-01 0.83754114E+02</pdfrwt>
<totfact> 0.58484580E+05</totfact>
</mgrwt>
</event>
