<event>
 4    1  0.8404100E-005  0.5466293E+03  0.7818608E-02  0.1002277E+00
         -2   -1    0    0    0  501 -0.00000000000E+00  0.00000000000E+00  0.60786276826E+02  0.60786276879E+02  0.25500000000E-02 0. -1.
          2   -1    0    0  501    0  0.00000000000E+00 -0.00000000000E+00 -0.12289106666E+04  0.12289106666E+04  0.25500000000E-02 0.  1.
    5000001    1    1    2    0    0  0.11636597633E+03  0.17663098569E+03 -0.70748097246E+03  0.75663324798E+03  0.16500000000E+03 0.  0.
   -5000001    1    1    2    0    0 -0.11636597633E+03 -0.17663098569E+03 -0.46064341736E+03  0.53306369555E+03  0.16500000000E+03 0.  0.
<mgrwt>
<rscale>  0 0.54662932E+03</rscale>
<asrwt>0</asrwt>
<pdfrwt beam="1">  1        2 0.18906316E+00 0.54662932E+03</pdfrwt>
<pdfrwt beam="2">  1       -2 0.93517358E-02 0.54662932E+03</pdfrwt>
<totfact> 0.14106511E+03</totfact>
</mgrwt>
</event>
<event>
 4    1  0.8404100E-005  0.5710245E+03  0.7818608E-02  0.9967414E-01
          2   -1    0    0  501    0  0.00000000000E+00  0.00000000000E+00  0.20605983733E+04  0.20605983733E+04  0.25500000000E-02 0. -1.
         -2   -1    0    0    0  501 -0.00000000000E+00 -0.00000000000E+00 -0.39559988863E+02  0.39559988945E+02  0.25500000000E-02 0.  1.
    5000001    1    1    2    0    0  0.50550414455E+02 -0.17934505699E+03  0.49598087346E+03  0.55492523885E+03  0.16500000000E+03 0.  0.
   -5000001    1    1    2    0    0 -0.50550414455E+02  0.17934505699E+03  0.15250575109E+04  0.15452331234E+04  0.16500000000E+03 0.  0.
<mgrwt>
<rscale>  0 0.57102451E+03</rscale>
<asrwt>0</asrwt>
<pdfrwt beam="1">  1        2 0.31701516E+00 0.57102451E+03</pdfrwt>
<pdfrwt beam="2">  1       -2 0.60861516E-02 0.57102451E+03</pdfrwt>
<totfact> 0.97285911E+02</totfact>
</mgrwt>
</event>
<event>
 4    1  0.8404100E-005  0.3974885E+03  0.7818608E-02  0.1044653E+00
          2   -1    0    0  501    0  0.00000000000E+00  0.00000000000E+00  0.11180243122E+04  0.11180243122E+04  0.25500000000E-02 0.  1.
         -2   -1    0    0    0  501 -0.00000000000E+00 -0.00000000000E+00 -0.35329538171E+02  0.35329538263E+02  0.25500000000E-02 0. -1.
    5000001    1    1    2    0    0  0.75577618978E+02 -0.80140892123E+02  0.50704661355E+03  0.54447755453E+03  0.16500000000E+03 0.  0.
   -5000001    1    1    2    0    0 -0.75577618978E+02  0.80140892123E+02  0.57564816047E+03  0.60887629592E+03  0.16500000000E+03 0.  0.
<mgrwt>
<rscale>  0 0.39748853E+03</rscale>
<asrwt>0</asrwt>
<pdfrwt beam="1">  1        2 0.17200372E+00 0.39748853E+03</pdfrwt>
<pdfrwt beam="2">  1       -2 0.54353143E-02 0.39748853E+03</pdfrwt>
<totfact> 0.38556942E+03</totfact>
</mgrwt>
</event>
<event>
 4    1  0.8404100E-005  0.8938765E+03  0.7818608E-02  0.9433269E-01
          2   -1    0    0  501    0  0.00000000000E+00  0.00000000000E+00  0.10945136361E+04  0.10945136361E+04  0.25500000000E-02 0.  1.
         -2   -1    0    0    0  501 -0.00000000000E+00 -0.00000000000E+00 -0.18250462757E+03  0.18250462759E+03  0.25500000000E-02 0. -1.
    5000001    1    1    2    0    0 -0.40694940399E+03 -0.58275250438E+02  0.54082445070E+03  0.69908505111E+03  0.16500000000E+03 0.  0.
   -5000001    1    1    2    0    0  0.40694940399E+03  0.58275250438E+02  0.37118455781E+03  0.57793321256E+03  0.16500000000E+03 0.  0.
<mgrwt>
<rscale>  0 0.89387651E+03</rscale>
<asrwt>0</asrwt>
<pdfrwt beam="1">  1        2 0.16838671E+00 0.89387651E+03</pdfrwt>
<pdfrwt beam="2">  1       -2 0.28077636E-01 0.89387651E+03</pdfrwt>
<totfact> 0.25496394E+02</totfact>
</mgrwt>
</event>
<event>
 4    1  0.8404100E-005  0.4969403E+03  0.7818608E-02  0.1014581E+00
          2   -1    0    0  501    0  0.00000000000E+00  0.00000000000E+00  0.35592368505E+03  0.35592368506E+03  0.25500000000E-02 0.  1.
         -2   -1    0    0    0  501 -0.00000000000E+00 -0.00000000000E+00 -0.17345685759E+03  0.17345685761E+03  0.25500000000E-02 0. -1.
    5000001    1    1    2    0    0 -0.18465949156E+03  0.19819431236E+02  0.96052705971E+02  0.26635138445E+03  0.16500000000E+03 0.  0.
   -5000001    1    1    2    0    0  0.18465949156E+03 -0.19819431236E+02  0.86414121491E+02  0.26302915821E+03  0.16500000000E+03 0.  0.
<mgrwt>
<rscale>  0 0.49694025E+03</rscale>
<asrwt>0</asrwt>
<pdfrwt beam="1">  1        2 0.54757489E-01 0.49694025E+03</pdfrwt>
<pdfrwt beam="2">  1       -2 0.26685671E-01 0.49694025E+03</pdfrwt>
<totfact> 0.11544321E+03</totfact>
</mgrwt>
</event>
<event>
 4    1  0.8404100E-005  0.5164432E+03  0.7818608E-02  0.1009574E+00
         -2   -1    0    0    0  501 -0.00000000000E+00  0.00000000000E+00  0.64614929143E+02  0.64614929193E+02  0.25500000000E-02 0. -1.
          2   -1    0    0  501    0  0.00000000000E+00 -0.00000000000E+00 -0.10319346862E+04  0.10319346862E+04  0.25500000000E-02 0.  1.
    5000001    1    1    2    0    0 -0.14031784755E+02  0.13734889881E+03 -0.18045703349E+03  0.28080482888E+03  0.16500000000E+03 0.  0.
   -5000001    1    1    2    0    0  0.14031784755E+02 -0.13734889881E+03 -0.78686272353E+03  0.81574478647E+03  0.16500000000E+03 0.  0.
<mgrwt>
<rscale>  0 0.51644317E+03</rscale>
<asrwt>0</asrwt>
<pdfrwt beam="1">  1        2 0.15875917E+00 0.51644317E+03</pdfrwt>
<pdfrwt beam="2">  1       -2 0.99407591E-02 0.51644317E+03</pdfrwt>
<totfact> 0.16781496E+03</totfact>
</mgrwt>
</event>
<event>
 4    1  0.8404100E-005  0.4279353E+03  0.7818608E-02  0.1034514E+00
          2   -1    0    0  501    0  0.00000000000E+00  0.00000000000E+00  0.29496623681E+03  0.29496623682E+03  0.25500000000E-02 0.  1.
         -2   -1    0    0    0  501 -0.00000000000E+00 -0.00000000000E+00 -0.15521150157E+03  0.15521150159E+03  0.25500000000E-02 0. -1.
    5000001    1    1    2    0    0 -0.77814454740E+02 -0.38541799207E+02  0.18029274613E+03  0.25936660147E+03  0.16500000000E+03 0.  0.
   -5000001    1    1    2    0    0  0.77814454740E+02  0.38541799207E+02 -0.40538010894E+02  0.19081113694E+03  0.16500000000E+03 0.  0.
<mgrwt>
<rscale>  0 0.42793529E+03</rscale>
<asrwt>0</asrwt>
<pdfrwt beam="1">  1        2 0.45379421E-01 0.42793529E+03</pdfrwt>
<pdfrwt beam="2">  1       -2 0.23878693E-01 0.42793529E+03</pdfrwt>
<totfact> 0.17294966E+03</totfact>
</mgrwt>
</event>
<event>
 4    1  0.8404100E-005  0.5446690E+03  0.7818608E-02  0.1002735E+00
         -2   -1    0    0    0  501 -0.00000000000E+00  0.00000000000E+00  0.52509196947E+02  0.52509197009E+02  0.25500000000E-02 0. -1.
          2   -1    0    0  501    0  0.00000000000E+00 -0.00000000000E+00 -0.14124395763E+04  0.14124395763E+04  0.25500000000E-02 0.  1.
    5000001    1    1    2    0    0  0.15224364962E+03 -0.93282580825E+02 -0.10100465751E+04  0.10388930900E+04  0.16500000000E+03 0.  0.
   -5000001    1    1    2    0    0 -0.15224364962E+03  0.93282580825E+02 -0.34988380424E+03  0.42605568322E+03  0.16500000000E+03 0.  0.
<mgrwt>
<rscale>  0 0.54466896E+03</rscale>
<asrwt>0</asrwt>
<pdfrwt beam="1">  1        2 0.21729837E+00 0.54466896E+03</pdfrwt>
<pdfrwt beam="2">  1       -2 0.80783391E-02 0.54466896E+03</pdfrwt>
<totfact> 0.14027141E+03</totfact>
</mgrwt>
</event>
<event>
 4    1  0.8404100E-005  0.7772582E+03  0.7818608E-02  0.9593531E-01
          2   -1    0    0  501    0  0.00000000000E+00  0.00000000000E+00  0.20111078467E+04  0.20111078467E+04  0.25500000000E-02 0.  1.
         -2   -1    0    0    0  501 -0.00000000000E+00 -0.00000000000E+00 -0.75099191564E+02  0.75099191608E+02  0.25500000000E-02 0. -1.
    5000001    1    1    2    0    0  0.22457931007E+03 -0.26954975872E+03  0.10397563426E+04  0.11096896823E+04  0.16500000000E+03 0.  0.
   -5000001    1    1    2    0    0 -0.22457931007E+03  0.26954975872E+03  0.89625231251E+03  0.97651735602E+03  0.16500000000E+03 0.  0.
<mgrwt>
<rscale>  0 0.77725819E+03</rscale>
<asrwt>0</asrwt>
<pdfrwt beam="1">  1        2 0.30940113E+00 0.77725819E+03</pdfrwt>
<pdfrwt beam="2">  1       -2 0.11553725E-01 0.77725819E+03</pdfrwt>
<totfact> 0.36464377E+02</totfact>
</mgrwt>
</event>
<event>
 4    1  0.8404100E-005  0.4907016E+03  0.7818608E-02  0.1016235E+00
         -2   -1    0    0    0  501 -0.00000000000E+00  0.00000000000E+00  0.40606133631E+02  0.40606133711E+02  0.25500000000E-02 0. -1.
          2   -1    0    0  501    0  0.00000000000E+00 -0.00000000000E+00 -0.14824612376E+04  0.14824612376E+04  0.25500000000E-02 0.  1.
    5000001    1    1    2    0    0  0.16680514476E+03  0.63578029306E+02 -0.82414639221E+03  0.85924874043E+03  0.16500000000E+03 0.  0.
   -5000001    1    1    2    0    0 -0.16680514476E+03 -0.63578029306E+02 -0.61770871174E+03  0.66381863087E+03  0.16500000000E+03 0.  0.
<mgrwt>
<rscale>  0 0.49070162E+03</rscale>
<asrwt>0</asrwt>
<pdfrwt beam="1">  1        2 0.22807092E+00 0.49070162E+03</pdfrwt>
<pdfrwt beam="2">  1       -2 0.62470986E-02 0.49070162E+03</pdfrwt>
<totfact> 0.19278514E+03</totfact>
</mgrwt>
</event>
<event>
 4    1  0.8404100E-005  0.5802837E+03  0.7818608E-02  0.9947177E-01
          2   -1    0    0  501    0  0.00000000000E+00  0.00000000000E+00  0.19977105212E+04  0.19977105212E+04  0.25500000000E-02 0.  1.
         -2   -1    0    0    0  501 -0.00000000000E+00 -0.00000000000E+00 -0.42139379697E+02  0.42139379775E+02  0.25500000000E-02 0. -1.
    5000001    1    1    2    0    0 -0.23306095857E+03 -0.33090885964E+02  0.83961894513E+03  0.88746683891E+03  0.16500000000E+03 0.  0.
   -5000001    1    1    2    0    0  0.23306095857E+03  0.33090885964E+02  0.11159521964E+04  0.11523830621E+04  0.16500000000E+03 0.  0.
<mgrwt>
<rscale>  0 0.58028366E+03</rscale>
<asrwt>0</asrwt>
<pdfrwt beam="1">  1        2 0.30734004E+00 0.58028366E+03</pdfrwt>
<pdfrwt beam="2">  1       -2 0.64829824E-02 0.58028366E+03</pdfrwt>
<totfact> 0.95233548E+02</totfact>
</mgrwt>
</event>
<event>
 4    1  0.8404100E-005  0.4599259E+03  0.7818608E-02  0.1024803E+00
          2   -1    0    0  501    0  0.00000000000E+00  0.00000000000E+00  0.64684808348E+03  0.64684808349E+03  0.25500000000E-02 0.  1.
         -2   -1    0    0    0  501 -0.00000000000E+00 -0.00000000000E+00 -0.81754818900E+02  0.81754818940E+02  0.25500000000E-02 0. -1.
    5000001    1    1    2    0    0 -0.10766994037E+03 -0.57817243606E+02  0.44658559486E+03  0.49152756103E+03  0.16500000000E+03 0.  0.
   -5000001    1    1    2    0    0  0.10766994037E+03  0.57817243606E+02  0.11850766973E+03  0.23707534140E+03  0.16500000000E+03 0.  0.
<mgrwt>
<rscale>  0 0.45992585E+03</rscale>
<asrwt>0</asrwt>
<pdfrwt beam="1">  1        2 0.99515083E-01 0.45992585E+03</pdfrwt>
<pdfrwt beam="2">  1       -2 0.12577665E-01 0.45992585E+03</pdfrwt>
<totfact> 0.21237207E+03</totfact>
</mgrwt>
</event>
<event>
 4    1  0.8404100E-005  0.5358276E+03  0.7818608E-02  0.1004829E+00
         -2   -1    0    0    0  501 -0.00000000000E+00  0.00000000000E+00  0.11043026205E+03  0.11043026208E+03  0.25500000000E-02 0. -1.
          2   -1    0    0  501    0  0.00000000000E+00 -0.00000000000E+00 -0.64998304651E+03  0.64998304651E+03  0.25500000000E-02 0.  1.
    5000001    1    1    2    0    0  0.18322635813E+03 -0.94061084160E+02 -0.33532478462E+03  0.42671664725E+03  0.16500000000E+03 0.  0.
   -5000001    1    1    2    0    0 -0.18322635813E+03  0.94061084160E+02 -0.20422799985E+03  0.33369666134E+03  0.16500000000E+03 0.  0.
<mgrwt>
<rscale>  0 0.53582758E+03</rscale>
<asrwt>0</asrwt>
<pdfrwt beam="1">  1        2 0.99997389E-01 0.53582758E+03</pdfrwt>
<pdfrwt beam="2">  1       -2 0.16989272E-01 0.53582758E+03</pdfrwt>
<totfact> 0.12766881E+03</totfact>
</mgrwt>
</event>
<event>
 4    1  0.8404100E-005  0.4605470E+03  0.7818608E-02  0.1024623E+00
          2   -1    0    0  501    0  0.00000000000E+00  0.00000000000E+00  0.61196782492E+03  0.61196782492E+03  0.25500000000E-02 0.  1.
         -2   -1    0    0    0  501 -0.00000000000E+00 -0.00000000000E+00 -0.86648171302E+02  0.86648171340E+02  0.25500000000E-02 0. -1.
    5000001    1    1    2    0    0 -0.81414032251E+02 -0.12902407149E+03  0.18642861438E+03  0.29198644477E+03  0.16500000000E+03 0.  0.
   -5000001    1    1    2    0    0  0.81414032251E+02  0.12902407149E+03  0.33889103924E+03  0.40662955149E+03  0.16500000000E+03 0.  0.
<mgrwt>
<rscale>  0 0.46054704E+03</rscale>
<asrwt>0</asrwt>
<pdfrwt beam="1">  1        2 0.94148900E-01 0.46054704E+03</pdfrwt>
<pdfrwt beam="2">  1       -2 0.13330487E-01 0.46054704E+03</pdfrwt>
<totfact> 0.20625151E+03</totfact>
</mgrwt>
</event>
<event>
 4    1  0.8404100E-005  0.5189269E+03  0.7818608E-02  0.1008953E+00
          2   -1    0    0  501    0  0.00000000000E+00  0.00000000000E+00  0.31790771216E+04  0.31790771216E+04  0.25500000000E-02 0.  1.
         -2   -1    0    0    0  501 -0.00000000000E+00 -0.00000000000E+00 -0.21176355937E+02  0.21176356091E+02  0.25500000000E-02 0. -1.
    5000001    1    1    2    0    0 -0.26825228019E+02 -0.19835804370E+03  0.15447453881E+04  0.15663744190E+04  0.16500000000E+03 0.  0.
   -5000001    1    1    2    0    0  0.26825228019E+02  0.19835804370E+03  0.16131553775E+04  0.16338790587E+04  0.16500000000E+03 0.  0.
<mgrwt>
<rscale>  0 0.51892685E+03</rscale>
<asrwt>0</asrwt>
<pdfrwt beam="1">  1        2 0.48908865E+00 0.51892685E+03</pdfrwt>
<pdfrwt beam="2">  1       -2 0.32579018E-02 0.51892685E+03</pdfrwt>
<totfact> 0.58283046E+02</totfact>
</mgrwt>
</event>
<event>
 4    1  0.8404100E-005  0.6896191E+03  0.7818608E-02  0.9735151E-01
          2   -1    0    0  501    0  0.00000000000E+00  0.00000000000E+00  0.19642168998E+04  0.19642168998E+04  0.25500000000E-02 0.  1.
         -2   -1    0    0    0  501 -0.00000000000E+00 -0.00000000000E+00 -0.60529788427E+02  0.60529788481E+02  0.25500000000E-02 0. -1.
    5000001    1    1    2    0    0 -0.17835104839E+03  0.13470938170E+03  0.15514919779E+04  0.15761687953E+04  0.16500000000E+03 0.  0.
   -5000001    1    1    2    0    0  0.17835104839E+03 -0.13470938170E+03  0.35219513350E+03  0.44857789295E+03  0.16500000000E+03 0.  0.
<mgrwt>
<rscale>  0 0.68961912E+03</rscale>
<asrwt>0</asrwt>
<pdfrwt beam="1">  1        2 0.30218722E+00 0.68961912E+03</pdfrwt>
<pdfrwt beam="2">  1       -2 0.93122751E-02 0.68961912E+03</pdfrwt>
<totfact> 0.55347376E+02</totfact>
</mgrwt>
</event>
<event>
 4    1  0.8404100E-005  0.6101797E+03  0.7818608E-02  0.9884509E-01
          2   -1    0    0  501    0  0.00000000000E+00  0.00000000000E+00  0.20064188661E+04  0.20064188661E+04  0.25500000000E-02 0.  1.
         -2   -1    0    0    0  501 -0.00000000000E+00 -0.00000000000E+00 -0.46391015825E+02  0.46391015895E+02  0.25500000000E-02 0. -1.
    5000001    1    1    2    0    0 -0.20250846437E+02  0.22798146338E+03  0.13704602399E+04  0.13992040286E+04  0.16500000000E+03 0.  0.
   -5000001    1    1    2    0    0  0.20250846437E+02 -0.22798146338E+03  0.58956761039E+03  0.65360585344E+03  0.16500000000E+03 0.  0.
<mgrwt>
<rscale>  0 0.61017968E+03</rscale>
<asrwt>0</asrwt>
<pdfrwt beam="1">  1        2 0.30867975E+00 0.61017968E+03</pdfrwt>
<pdfrwt beam="2">  1       -2 0.71370812E-02 0.61017968E+03</pdfrwt>
<totfact> 0.80786835E+02</totfact>
</mgrwt>
</event>
<event>
 4    1  0.8404100E-005  0.4587312E+03  0.7818608E-02  0.1025150E+00
          2   -1    0    0  501    0  0.00000000000E+00  0.00000000000E+00  0.43858507009E+03  0.43858507010E+03  0.25500000000E-02 0.  1.
         -2   -1    0    0    0  501 -0.00000000000E+00 -0.00000000000E+00 -0.11995070432E+03  0.11995070434E+03  0.25500000000E-02 0. -1.
    5000001    1    1    2    0    0  0.14272945601E+03 -0.25365680527E+02  0.23979153515E+03  0.32517702208E+03  0.16500000000E+03 0.  0.
   -5000001    1    1    2    0    0 -0.14272945601E+03  0.25365680527E+02  0.78842830627E+02  0.23335875236E+03  0.16500000000E+03 0.  0.
<mgrwt>
<rscale>  0 0.45873124E+03</rscale>
<asrwt>0</asrwt>
<pdfrwt beam="1">  1        2 0.67474627E-01 0.45873124E+03</pdfrwt>
<pdfrwt beam="2">  1       -2 0.18453954E-01 0.45873124E+03</pdfrwt>
<totfact> 0.17510983E+03</totfact>
</mgrwt>
</event>
<event>
 4    1  0.8404100E-005  0.4337754E+03  0.7818608E-02  0.1032674E+00
         -2   -1    0    0    0  501 -0.00000000000E+00  0.00000000000E+00  0.32347081830E+02  0.32347081930E+02  0.25500000000E-02 0. -1.
          2   -1    0    0  501    0  0.00000000000E+00 -0.00000000000E+00 -0.14542356971E+04  0.14542356971E+04  0.25500000000E-02 0.  1.
    5000001    1    1    2    0    0  0.64508301350E+02 -0.12481544084E+03 -0.74063673149E+03  0.77169163741E+03  0.16500000000E+03 0.  0.
   -5000001    1    1    2    0    0 -0.64508301350E+02  0.12481544084E+03 -0.68125188376E+03  0.71489114160E+03  0.16500000000E+03 0.  0.
<mgrwt>
<rscale>  0 0.43377543E+03</rscale>
<asrwt>0</asrwt>
<pdfrwt beam="1">  1        2 0.22372852E+00 0.43377543E+03</pdfrwt>
<pdfrwt beam="2">  1       -2 0.49764753E-02 0.43377543E+03</pdfrwt>
<totfact> 0.28464477E+03</totfact>
</mgrwt>
</event>
<event>
 4    1  0.8404100E-005  0.5032029E+03  0.7818608E-02  0.1012946E+00
         -2   -1    0    0    0  501 -0.00000000000E+00  0.00000000000E+00  0.15580751446E+03  0.15580751448E+03  0.25500000000E-02 0. -1.
          2   -1    0    0  501    0  0.00000000000E+00 -0.00000000000E+00 -0.40629158098E+03  0.40629158099E+03  0.25500000000E-02 0.  1.
    5000001    1    1    2    0    0 -0.11608806442E+03  0.11536351882E+03 -0.17558297669E+02  0.23306324033E+03  0.16500000000E+03 0.  0.
   -5000001    1    1    2    0    0  0.11608806442E+03 -0.11536351882E+03 -0.23292576885E+03  0.32903585514E+03  0.16500000000E+03 0.  0.
<mgrwt>
<rscale>  0 0.50320287E+03</rscale>
<asrwt>0</asrwt>
<pdfrwt beam="1">  1        2 0.62506397E-01 0.50320287E+03</pdfrwt>
<pdfrwt beam="2">  1       -2 0.23970387E-01 0.50320287E+03</pdfrwt>
<totfact> 0.12084155E+03</totfact>
</mgrwt>
</event>
<event>
 4    1  0.8404100E-005  0.5340284E+03  0.7818608E-02  0.1005260E+00
          2   -1    0    0  501    0  0.00000000000E+00  0.00000000000E+00  0.95170809309E+03  0.95170809309E+03  0.25500000000E-02 0.  1.
         -2   -1    0    0    0  501 -0.00000000000E+00 -0.00000000000E+00 -0.74914349343E+02  0.74914349387E+02  0.25500000000E-02 0. -1.
    5000001    1    1    2    0    0 -0.70285556224E+02  0.12420701387E+03  0.14241945718E+03  0.26052973629E+03  0.16500000000E+03 0.  0.
   -5000001    1    1    2    0    0  0.70285556224E+02 -0.12420701387E+03  0.73437428656E+03  0.76609270618E+03  0.16500000000E+03 0.  0.
<mgrwt>
<rscale>  0 0.53402844E+03</rscale>
<asrwt>0</asrwt>
<pdfrwt beam="1">  1        2 0.14641663E+00 0.53402844E+03</pdfrwt>
<pdfrwt beam="2">  1       -2 0.11525285E-01 0.53402844E+03</pdfrwt>
<totfact> 0.14825605E+03</totfact>
</mgrwt>
</event>
<event>
 4    1  0.8404100E-005  0.5192273E+03  0.7818608E-02  0.1008879E+00
         -2   -1    0    0    0  501 -0.00000000000E+00  0.00000000000E+00  0.66430879778E+02  0.66430879827E+02  0.25500000000E-02 0. -1.
          2   -1    0    0  501    0  0.00000000000E+00 -0.00000000000E+00 -0.10145771786E+04  0.10145771786E+04  0.25500000000E-02 0.  1.
    5000001    1    1    2    0    0 -0.11698684182E+03 -0.15771409192E+03 -0.55773041835E+03  0.61387936560E+03  0.16500000000E+03 0.  0.
   -5000001    1    1    2    0    0  0.11698684182E+03  0.15771409192E+03 -0.39041588050E+03  0.46712869287E+03  0.16500000000E+03 0.  0.
<mgrwt>
<rscale>  0 0.51922733E+03</rscale>
<asrwt>0</asrwt>
<pdfrwt beam="1">  1        2 0.15608879E+00 0.51922733E+03</pdfrwt>
<pdfrwt beam="2">  1       -2 0.10220136E-01 0.51922733E+03</pdfrwt>
<totfact> 0.16449532E+03</totfact>
</mgrwt>
</event>
<event>
 4    1  0.8404100E-005  0.5541231E+03  0.7818608E-02  0.1000544E+00
          2   -1    0    0  501    0  0.00000000000E+00  0.00000000000E+00  0.16786165439E+04  0.16786165439E+04  0.25500000000E-02 0.  1.
         -2   -1    0    0    0  501 -0.00000000000E+00 -0.00000000000E+00 -0.45729983283E+02  0.45729983354E+02  0.25500000000E-02 0. -1.
    5000001    1    1    2    0    0  0.16682365934E+03  0.13797793640E+03  0.97724066384E+03  0.10144418955E+04  0.16500000000E+03 0.  0.
   -5000001    1    1    2    0    0 -0.16682365934E+03 -0.13797793640E+03  0.65564589674E+03  0.70990463174E+03  0.16500000000E+03 0.  0.
<mgrwt>
<rscale>  0 0.55412311E+03</rscale>
<asrwt>0</asrwt>
<pdfrwt beam="1">  1        2 0.25824871E+00 0.55412311E+03</pdfrwt>
<pdfrwt beam="2">  1       -2 0.70353816E-02 0.55412311E+03</pdfrwt>
<totfact> 0.12472320E+03</totfact>
</mgrwt>
</event>
<event>
 4    1  0.8404100E-005  0.4698426E+03  0.7818608E-02  0.1021965E+00
          2   -1    0    0  501    0  0.00000000000E+00  0.00000000000E+00  0.34452668374E+03  0.34452668375E+03  0.25500000000E-02 0.  1.
         -2   -1    0    0    0  501 -0.00000000000E+00 -0.00000000000E+00 -0.16018503880E+03  0.16018503882E+03  0.25500000000E-02 0. -1.
    5000001    1    1    2    0    0  0.75138630999E+02  0.12993278116E+03  0.12979439670E+02  0.22343188524E+03  0.16500000000E+03 0.  0.
   -5000001    1    1    2    0    0 -0.75138630999E+02 -0.12993278116E+03  0.17136220527E+03  0.28127983732E+03  0.16500000000E+03 0.  0.
<mgrwt>
<rscale>  0 0.46984261E+03</rscale>
<asrwt>0</asrwt>
<pdfrwt beam="1">  1        2 0.53004105E-01 0.46984261E+03</pdfrwt>
<pdfrwt beam="2">  1       -2 0.24643852E-01 0.46984261E+03</pdfrwt>
<totfact> 0.13801432E+03</totfact>
</mgrwt>
</event>
<event>
 4    1  0.8404100E-005  0.3665781E+03  0.7818608E-02  0.1056009E+00
         -2   -1    0    0    0  501 -0.00000000000E+00  0.00000000000E+00  0.51161673468E+02  0.51161673532E+02  0.25500000000E-02 0. -1.
          2   -1    0    0  501    0  0.00000000000E+00 -0.00000000000E+00 -0.65664143575E+03  0.65664143575E+03  0.25500000000E-02 0.  1.
    5000001    1    1    2    0    0  0.48853072953E+02  0.27805966775E+02 -0.19334326209E+03  0.26031982544E+03  0.16500000000E+03 0.  0.
   -5000001    1    1    2    0    0 -0.48853072953E+02 -0.27805966775E+02 -0.41213650019E+03  0.44748328384E+03  0.16500000000E+03 0.  0.
<mgrwt>
<rscale>  0 0.36657809E+03</rscale>
<asrwt>0</asrwt>
<pdfrwt beam="1">  1        2 0.10102175E+00 0.36657809E+03</pdfrwt>
<pdfrwt beam="2">  1       -2 0.78710272E-02 0.36657809E+03</pdfrwt>
<totfact> 0.44180133E+03</totfact>
</mgrwt>
</event>
<event>
 4    1  0.8404100E-005  0.4130005E+03  0.7818608E-02  0.1039369E+00
         -2   -1    0    0    0  501 -0.00000000000E+00  0.00000000000E+00  0.20335607360E+02  0.20335607520E+02  0.25500000000E-02 0. -1.
          2   -1    0    0  501    0  0.00000000000E+00 -0.00000000000E+00 -0.20969307833E+04  0.20969307833E+04  0.25500000000E-02 0.  1.
    5000001    1    1    2    0    0  0.52460756361E+02  0.63819997761E+02 -0.56309582968E+03  0.59255973241E+03  0.16500000000E+03 0.  0.
   -5000001    1    1    2    0    0 -0.52460756361E+02 -0.63819997761E+02 -0.15134993463E+04  0.15247066584E+04  0.16500000000E+03 0.  0.
<mgrwt>
<rscale>  0 0.41300054E+03</rscale>
<asrwt>0</asrwt>
<pdfrwt beam="1">  1        2 0.32260456E+00 0.41300054E+03</pdfrwt>
<pdfrwt beam="2">  1       -2 0.31285567E-02 0.41300054E+03</pdfrwt>
<totfact> 0.26078944E+03</totfact>
</mgrwt>
</event>
<event>
 4    1  0.8404100E-005  0.4540521E+03  0.7818608E-02  0.1026521E+00
          2   -1    0    0  501    0  0.00000000000E+00  0.00000000000E+00  0.94101387092E+03  0.94101387093E+03  0.25500000000E-02 0.  1.
         -2   -1    0    0    0  501 -0.00000000000E+00 -0.00000000000E+00 -0.54771582704E+02  0.54771582763E+02  0.25500000000E-02 0. -1.
    5000001    1    1    2    0    0 -0.88063227774E+02 -0.72804276320E+02  0.21040117748E+03  0.29077353769E+03  0.16500000000E+03 0.  0.
   -5000001    1    1    2    0    0  0.88063227774E+02  0.72804276320E+02  0.67584111074E+03  0.70501191600E+03  0.16500000000E+03 0.  0.
<mgrwt>
<rscale>  0 0.45405206E+03</rscale>
<asrwt>0</asrwt>
<pdfrwt beam="1">  1        2 0.14477136E+00 0.45405206E+03</pdfrwt>
<pdfrwt beam="2">  1       -2 0.84263974E-02 0.45405206E+03</pdfrwt>
<totfact> 0.24976335E+03</totfact>
</mgrwt>
</event>
<event>
 4    1  0.8404100E-005  0.8648802E+03  0.7818608E-02  0.9470580E-01
          2   -1    0    0  501    0  0.00000000000E+00  0.00000000000E+00  0.39854397656E+04  0.39854397656E+04  0.25500000000E-02 0.  1.
         -2   -1    0    0    0  501 -0.00000000000E+00 -0.00000000000E+00 -0.46921913278E+02  0.46921913348E+02  0.25500000000E-02 0. -1.
    5000001    1    1    2    0    0 -0.26383086633E+03  0.29602317045E+03  0.22043726742E+04  0.22458228627E+04  0.16500000000E+03 0.  0.
   -5000001    1    1    2    0    0  0.26383086633E+03 -0.29602317045E+03  0.17341451781E+04  0.17865388163E+04  0.16500000000E+03 0.  0.
<mgrwt>
<rscale>  0 0.86488024E+03</rscale>
<asrwt>0</asrwt>
<pdfrwt beam="1">  1        2 0.61314482E+00 0.86488024E+03</pdfrwt>
<pdfrwt beam="2">  1       -2 0.72187531E-02 0.86488024E+03</pdfrwt>
<totfact> 0.44050592E+01</totfact>
</mgrwt>
</event>
<event>
 4    1  0.8404100E-005  0.6915892E+03  0.7818608E-02  0.9731725E-01
          2   -1    0    0  501    0  0.00000000000E+00  0.00000000000E+00  0.68126755819E+03  0.68126755819E+03  0.25500000000E-02 0.  1.
         -2   -1    0    0    0  501 -0.00000000000E+00 -0.00000000000E+00 -0.17551681599E+03  0.17551681600E+03  0.25500000000E-02 0. -1.
    5000001    1    1    2    0    0 -0.29392017213E+03  0.77180944418E+02  0.25500206673E+03  0.42964755300E+03  0.16500000000E+03 0.  0.
   -5000001    1    1    2    0    0  0.29392017213E+03 -0.77180944418E+02  0.25074867548E+03  0.42713682120E+03  0.16500000000E+03 0.  0.
<mgrwt>
<rscale>  0 0.69158922E+03</rscale>
<asrwt>0</asrwt>
<pdfrwt beam="1">  1        2 0.10481039E+00 0.69158922E+03</pdfrwt>
<pdfrwt beam="2">  1       -2 0.27002587E-01 0.69158922E+03</pdfrwt>
<totfact> 0.53128310E+02</totfact>
</mgrwt>
</event>
<event>
 4    1  0.8404100E-005  0.4841788E+03  0.7818608E-02  0.1017993E+00
          2   -1    0    0  501    0  0.00000000000E+00  0.00000000000E+00  0.13289243205E+03  0.13289243207E+03  0.25500000000E-02 0.  1.
         -2   -1    0    0    0  501 -0.00000000000E+00 -0.00000000000E+00 -0.44101289758E+03  0.44101289759E+03  0.25500000000E-02 0. -1.
    5000001    1    1    2    0    0  0.15340444053E+03  0.76173668430E+02 -0.20768749244E+03  0.31574427097E+03  0.16500000000E+03 0.  0.
   -5000001    1    1    2    0    0 -0.15340444053E+03 -0.76173668430E+02 -0.10043297309E+03  0.25816105868E+03  0.16500000000E+03 0.  0.
<mgrwt>
<rscale>  0 0.48417880E+03</rscale>
<asrwt>0</asrwt>
<pdfrwt beam="1">  1        2 0.20444990E-01 0.48417880E+03</pdfrwt>
<pdfrwt beam="2">  1       -2 0.67848137E-01 0.48417880E+03</pdfrwt>
<totfact> 0.55517131E+02</totfact>
</mgrwt>
</event>
<event>
 4    1  0.8404100E-005  0.1555553E+04  0.7818608E-02  0.8848329E-01
         -2   -1    0    0    0  501 -0.00000000000E+00  0.00000000000E+00  0.57629041452E+03  0.57629041452E+03  0.25500000000E-02 0. -1.
          2   -1    0    0  501    0  0.00000000000E+00 -0.00000000000E+00 -0.10497074478E+04  0.10497074478E+04  0.25500000000E-02 0.  1.
    5000001    1    1    2    0    0  0.20664148592E+03 -0.41320581807E+03 -0.86759000907E+03  0.99668308685E+03  0.16500000000E+03 0.  0.
   -5000001    1    1    2    0    0 -0.20664148592E+03  0.41320581807E+03  0.39417297579E+03  0.62931477547E+03  0.16500000000E+03 0.  0.
<mgrwt>
<rscale>  0 0.15555531E+04</rscale>
<asrwt>0</asrwt>
<pdfrwt beam="1">  1        2 0.16149345E+00 0.15555531E+04</pdfrwt>
<pdfrwt beam="2">  1       -2 0.88660064E-01 0.15555531E+04</pdfrwt>
<totfact> 0.24655816E+01</totfact>
</mgrwt>
</event>
<event>
 4    1  0.8404100E-005  0.4609592E+03  0.7818608E-02  0.1024503E+00
          2   -1    0    0  501    0  0.00000000000E+00  0.00000000000E+00  0.23252218895E+04  0.23252218895E+04  0.25500000000E-02 0.  1.
         -2   -1    0    0    0  501 -0.00000000000E+00 -0.00000000000E+00 -0.22845493508E+02  0.22845493650E+02  0.25500000000E-02 0. -1.
    5000001    1    1    2    0    0  0.15308392402E+03  0.33713865558E+02  0.13365750196E+04  0.13558130754E+04  0.16500000000E+03 0.  0.
   -5000001    1    1    2    0    0 -0.15308392402E+03 -0.33713865558E+02  0.96580137636E+03  0.99225430768E+03  0.16500000000E+03 0.  0.
<mgrwt>
<rscale>  0 0.46095918E+03</rscale>
<asrwt>0</asrwt>
<pdfrwt beam="1">  1        2 0.35772665E+00 0.46095918E+03</pdfrwt>
<pdfrwt beam="2">  1       -2 0.35146893E-02 0.46095918E+03</pdfrwt>
<totfact> 0.16399170E+03</totfact>
</mgrwt>
</event>
<event>
 4    1  0.8404100E-005  0.5342438E+03  0.7818608E-02  0.1005208E+00
         -2   -1    0    0    0  501 -0.00000000000E+00  0.00000000000E+00  0.37021158832E+02  0.37021158920E+02  0.25500000000E-02 0. -1.
          2   -1    0    0  501    0  0.00000000000E+00 -0.00000000000E+00 -0.19273869896E+04  0.19273869896E+04  0.25500000000E-02 0.  1.
    5000001    1    1    2    0    0 -0.10533849930E+03 -0.17992131122E+03 -0.10397338897E+04  0.10731912407E+04  0.16500000000E+03 0.  0.
   -5000001    1    1    2    0    0  0.10533849930E+03  0.17992131122E+03 -0.85063194104E+03  0.89121690782E+03  0.16500000000E+03 0.  0.
<mgrwt>
<rscale>  0 0.53424376E+03</rscale>
<asrwt>0</asrwt>
<pdfrwt beam="1">  1        2 0.29652100E+00 0.53424376E+03</pdfrwt>
<pdfrwt beam="2">  1       -2 0.56955644E-02 0.53424376E+03</pdfrwt>
<totfact> 0.12764815E+03</totfact>
</mgrwt>
</event>
<event>
 4    1  0.8404100E-005  0.4212719E+03  0.7818608E-02  0.1036653E+00
         -2   -1    0    0    0  501 -0.00000000000E+00  0.00000000000E+00  0.89810287666E+02  0.89810287702E+02  0.25500000000E-02 0. -1.
          2   -1    0    0  501    0  0.00000000000E+00 -0.00000000000E+00 -0.49401351152E+03  0.49401351153E+03  0.25500000000E-02 0.  1.
    5000001    1    1    2    0    0 -0.93868643326E+02  0.71580759930E+02 -0.28058789299E+03  0.34625091059E+03  0.16500000000E+03 0.  0.
   -5000001    1    1    2    0    0  0.93868643326E+02 -0.71580759930E+02 -0.12361533087E+03  0.23757288864E+03  0.16500000000E+03 0.  0.
<mgrwt>
<rscale>  0 0.42127186E+03</rscale>
<asrwt>0</asrwt>
<pdfrwt beam="1">  1        2 0.76002077E-01 0.42127186E+03</pdfrwt>
<pdfrwt beam="2">  1       -2 0.13816968E-01 0.42127186E+03</pdfrwt>
<totfact> 0.24911508E+03</totfact>
</mgrwt>
</event>
<event>
 4    1  0.8404100E-005  0.4368491E+03  0.7818608E-02  0.1031718E+00
          2   -1    0    0  501    0  0.00000000000E+00  0.00000000000E+00  0.61360572319E+03  0.61360572319E+03  0.25500000000E-02 0.  1.
         -2   -1    0    0    0  501 -0.00000000000E+00 -0.00000000000E+00 -0.77752356565E+02  0.77752356607E+02  0.25500000000E-02 0. -1.
    5000001    1    1    2    0    0 -0.32191313212E+02  0.11673543327E+03  0.38867045319E+03  0.43926434320E+03  0.16500000000E+03 0.  0.
   -5000001    1    1    2    0    0  0.32191313212E+02 -0.11673543327E+03  0.14718291344E+03  0.25209373660E+03  0.16500000000E+03 0.  0.
<mgrwt>
<rscale>  0 0.43684913E+03</rscale>
<asrwt>0</asrwt>
<pdfrwt beam="1">  1        2 0.94400877E-01 0.43684913E+03</pdfrwt>
<pdfrwt beam="2">  1       -2 0.11961901E-01 0.43684913E+03</pdfrwt>
<totfact> 0.24558739E+03</totfact>
</mgrwt>
</event>
<event>
 4    1  0.8404100E-005  0.4855212E+03  0.7818608E-02  0.1017629E+00
          2   -1    0    0  501    0  0.00000000000E+00  0.00000000000E+00  0.19498105611E+04  0.19498105611E+04  0.25500000000E-02 0.  1.
         -2   -1    0    0    0  501 -0.00000000000E+00 -0.00000000000E+00 -0.30224834326E+02  0.30224834434E+02  0.25500000000E-02 0. -1.
    5000001    1    1    2    0    0 -0.11067052357E+02 -0.17450989676E+03  0.82261139890E+03  0.85702432714E+03  0.16500000000E+03 0.  0.
   -5000001    1    1    2    0    0  0.11067052357E+02  0.17450989676E+03  0.10969743279E+04  0.11230110684E+04  0.16500000000E+03 0.  0.
<mgrwt>
<rscale>  0 0.48552117E+03</rscale>
<asrwt>0</asrwt>
<pdfrwt beam="1">  1        2 0.29997080E+00 0.48552117E+03</pdfrwt>
<pdfrwt beam="2">  1       -2 0.46499754E-02 0.48552117E+03</pdfrwt>
<totfact> 0.17041313E+03</totfact>
</mgrwt>
</event>
<event>
 4    1  0.8404100E-005  0.6042373E+03  0.7818608E-02  0.9896654E-01
         -2   -1    0    0    0  501 -0.00000000000E+00  0.00000000000E+00  0.25178951753E+03  0.25178951755E+03  0.25500000000E-02 0. -1.
          2   -1    0    0  501    0  0.00000000000E+00 -0.00000000000E+00 -0.36250787502E+03  0.36250787503E+03  0.25500000000E-02 0.  1.
    5000001    1    1    2    0    0 -0.22069975725E+03 -0.12241505141E+03 -0.74564306694E+02  0.31061014712E+03  0.16500000000E+03 0.  0.
   -5000001    1    1    2    0    0  0.22069975725E+03  0.12241505141E+03 -0.36154050792E+02  0.30368724545E+03  0.16500000000E+03 0.  0.
<mgrwt>
<rscale>  0 0.60423731E+03</rscale>
<asrwt>0</asrwt>
<pdfrwt beam="1">  1        2 0.55770442E-01 0.60423731E+03</pdfrwt>
<pdfrwt beam="2">  1       -2 0.38736849E-01 0.60423731E+03</pdfrwt>
<totfact> 0.56357223E+02</totfact>
</mgrwt>
</event>
<event>
 4    1  0.8404100E-005  0.4623598E+03  0.7818608E-02  0.1024099E+00
          2   -1    0    0  501    0  0.00000000000E+00  0.00000000000E+00  0.12966514525E+04  0.12966514525E+04  0.25500000000E-02 0.  1.
         -2   -1    0    0    0  501 -0.00000000000E+00 -0.00000000000E+00 -0.41217047417E+02  0.41217047496E+02  0.25500000000E-02 0. -1.
    5000001    1    1    2    0    0 -0.91873935436E+02 -0.12855304340E+03  0.52531442365E+03  0.57284111992E+03  0.16500000000E+03 0.  0.
   -5000001    1    1    2    0    0  0.91873935436E+02  0.12855304340E+03  0.73011998145E+03  0.76502738009E+03  0.16500000000E+03 0.  0.
<mgrwt>
<rscale>  0 0.46235979E+03</rscale>
<asrwt>0</asrwt>
<pdfrwt beam="1">  1        2 0.19948484E+00 0.46235979E+03</pdfrwt>
<pdfrwt beam="2">  1       -2 0.63410843E-02 0.46235979E+03</pdfrwt>
<totfact> 0.23921226E+03</totfact>
</mgrwt>
</event>
<event>
 4    1  0.8404100E-005  0.5011036E+03  0.7818608E-02  0.1013491E+00
         -2   -1    0    0    0  501 -0.00000000000E+00  0.00000000000E+00  0.77343321137E+03  0.77343321137E+03  0.25500000000E-02 0. -1.
          2   -1    0    0  501    0  0.00000000000E+00 -0.00000000000E+00 -0.81165646017E+02  0.81165646057E+02  0.25500000000E-02 0.  1.
    5000001    1    1    2    0    0 -0.68040809207E+02  0.16535013764E+03  0.24407835128E+03  0.34462945506E+03  0.16500000000E+03 0.  0.
   -5000001    1    1    2    0    0  0.68040809207E+02 -0.16535013764E+03  0.44818921407E+03  0.50996940237E+03  0.16500000000E+03 0.  0.
<mgrwt>
<rscale>  0 0.50110361E+03</rscale>
<asrwt>0</asrwt>
<pdfrwt beam="1">  1        2 0.12487022E-01 0.50110361E+03</pdfrwt>
<pdfrwt beam="2">  1       -2 0.11898973E+00 0.50110361E+03</pdfrwt>
<totfact> 0.27616011E+02</totfact>
</mgrwt>
</event>
<event>
 4    1  0.8404100E-005  0.4516817E+03  0.7818608E-02  0.1027222E+00
         -2   -1    0    0    0  501 -0.00000000000E+00  0.00000000000E+00  0.77400282731E+02  0.77400282773E+02  0.25500000000E-02 0.  1.
          2   -1    0    0  501    0  0.00000000000E+00 -0.00000000000E+00 -0.65896518337E+03  0.65896518337E+03  0.25500000000E-02 0. -1.
    5000001    1    1    2    0    0  0.94101203106E+02 -0.10321442399E+03 -0.18424128402E+03  0.28403891368E+03  0.16500000000E+03 0.  0.
   -5000001    1    1    2    0    0 -0.94101203106E+02  0.10321442399E+03 -0.39732361662E+03  0.45232655247E+03  0.16500000000E+03 0.  0.
<mgrwt>
<rscale>  0 0.45168171E+03</rscale>
<asrwt>0</asrwt>
<pdfrwt beam="1">  1        2 0.10137926E+00 0.45168171E+03</pdfrwt>
<pdfrwt beam="2">  1       -2 0.11907736E-01 0.45168171E+03</pdfrwt>
<totfact> 0.22711465E+03</totfact>
</mgrwt>
</event>
<event>
 4    1  0.8404100E-005  0.4981345E+03  0.7818608E-02  0.1014267E+00
          2   -1    0    0  501    0  0.00000000000E+00  0.00000000000E+00  0.25122706736E+03  0.25122706737E+03  0.25500000000E-02 0.  1.
         -2   -1    0    0    0  501 -0.00000000000E+00 -0.00000000000E+00 -0.24692601696E+03  0.24692601698E+03  0.25500000000E-02 0. -1.
    5000001    1    1    2    0    0  0.11313700561E+02  0.18592480825E+03  0.12802915405E+02  0.24916851484E+03  0.16500000000E+03 0.  0.
   -5000001    1    1    2    0    0 -0.11313700561E+02 -0.18592480825E+03 -0.85018650118E+01  0.24898456951E+03  0.16500000000E+03 0.  0.
<mgrwt>
<rscale>  0 0.49813452E+03</rscale>
<asrwt>0</asrwt>
<pdfrwt beam="1">  1        2 0.38650318E-01 0.49813452E+03</pdfrwt>
<pdfrwt beam="2">  1       -2 0.37988618E-01 0.49813452E+03</pdfrwt>
<totfact> 0.87792733E+02</totfact>
</mgrwt>
</event>
<event>
 4    1  0.8404100E-005  0.3699668E+03  0.7818608E-02  0.1054706E+00
          2   -1    0    0  501    0  0.00000000000E+00  0.00000000000E+00  0.45015523460E+03  0.45015523461E+03  0.25500000000E-02 0.  1.
         -2   -1    0    0    0  501 -0.00000000000E+00 -0.00000000000E+00 -0.76015692308E+02  0.76015692351E+02  0.25500000000E-02 0. -1.
    5000001    1    1    2    0    0  0.48385468836E+01 -0.70536238537E+02  0.25059485482E+03  0.30825566296E+03  0.16500000000E+03 0.  0.
   -5000001    1    1    2    0    0 -0.48385468836E+01  0.70536238537E+02  0.12354468748E+03  0.21791526400E+03  0.16500000000E+03 0.  0.
<mgrwt>
<rscale>  0 0.36996682E+03</rscale>
<asrwt>0</asrwt>
<pdfrwt beam="1">  1        2 0.69254651E-01 0.36996682E+03</pdfrwt>
<pdfrwt beam="2">  1       -2 0.11694722E-01 0.36996682E+03</pdfrwt>
<totfact> 0.36284851E+03</totfact>
</mgrwt>
</event>
<event>
 4    1  0.8404100E-005  0.4115979E+03  0.7818608E-02  0.1039836E+00
         -2   -1    0    0    0  501 -0.00000000000E+00  0.00000000000E+00  0.11543114523E+03  0.11543114526E+03  0.25500000000E-02 0. -1.
          2   -1    0    0  501    0  0.00000000000E+00 -0.00000000000E+00 -0.36691312202E+03  0.36691312203E+03  0.25500000000E-02 0.  1.
    5000001    1    1    2    0    0 -0.11884601003E+03 -0.24972641756E+01 -0.88727470691E+02  0.22187423123E+03  0.16500000000E+03 0.  0.
   -5000001    1    1    2    0    0  0.11884601003E+03  0.24972641756E+01 -0.16275450609E+03  0.26047003606E+03  0.16500000000E+03 0.  0.
<mgrwt>
<rscale>  0 0.41159787E+03</rscale>
<asrwt>0</asrwt>
<pdfrwt beam="1">  1        2 0.56448172E-01 0.41159787E+03</pdfrwt>
<pdfrwt beam="2">  1       -2 0.17758638E-01 0.41159787E+03</pdfrwt>
<totfact> 0.22761578E+03</totfact>
</mgrwt>
</event>
<event>
 4    1  0.8404100E-005  0.4795345E+03  0.7818608E-02  0.1019263E+00
         -2   -1    0    0    0  501 -0.00000000000E+00  0.00000000000E+00  0.48101276342E+02  0.48101276410E+02  0.25500000000E-02 0. -1.
          2   -1    0    0  501    0  0.00000000000E+00 -0.00000000000E+00 -0.11951517980E+04  0.11951517980E+04  0.25500000000E-02 0.  1.
    5000001    1    1    2    0    0 -0.14958527425E+03  0.84783939255E+02 -0.64208322479E+03  0.68487950633E+03  0.16500000000E+03 0.  0.
   -5000001    1    1    2    0    0  0.14958527425E+03 -0.84783939255E+02 -0.50496729682E+03  0.55837356804E+03  0.16500000000E+03 0.  0.
<mgrwt>
<rscale>  0 0.47953447E+03</rscale>
<asrwt>0</asrwt>
<pdfrwt beam="1">  1        2 0.18386948E+00 0.47953447E+03</pdfrwt>
<pdfrwt beam="2">  1       -2 0.74001973E-02 0.47953447E+03</pdfrwt>
<totfact> 0.21462113E+03</totfact>
</mgrwt>
</event>
<event>
 4    1  0.8404100E-005  0.4102858E+03  0.7818608E-02  0.1040275E+00
         -2   -1    0    0    0  501 -0.00000000000E+00  0.00000000000E+00  0.17232994297E+02  0.17232994486E+02  0.25500000000E-02 0. -1.
          2   -1    0    0  501    0  0.00000000000E+00 -0.00000000000E+00 -0.24420364095E+04  0.24420364095E+04  0.25500000000E-02 0.  1.
    5000001    1    1    2    0    0  0.66269875220E+02  0.90185408684E+02 -0.15019514278E+04  0.15151264620E+04  0.16500000000E+03 0.  0.
   -5000001    1    1    2    0    0 -0.66269875220E+02 -0.90185408684E+02 -0.92285198739E+03  0.94414294200E+03  0.16500000000E+03 0.  0.
<mgrwt>
<rscale>  0 0.41028575E+03</rscale>
<asrwt>0</asrwt>
<pdfrwt beam="1">  1        2 0.37569764E+00 0.41028575E+03</pdfrwt>
<pdfrwt beam="2">  1       -2 0.26512318E-02 0.41028575E+03</pdfrwt>
<totfact> 0.21724294E+03</totfact>
</mgrwt>
</event>
<event>
 4    1  0.8404100E-005  0.5783683E+03  0.7818608E-02  0.9951330E-01
         -2   -1    0    0    0  501 -0.00000000000E+00  0.00000000000E+00  0.92915495380E+02  0.92915495415E+02  0.25500000000E-02 0. -1.
          2   -1    0    0  501    0  0.00000000000E+00 -0.00000000000E+00 -0.90003791209E+03  0.90003791210E+03  0.25500000000E-02 0.  1.
    5000001    1    1    2    0    0  0.15553228793E+03 -0.16705191462E+03 -0.29090554565E+03  0.40490452116E+03  0.16500000000E+03 0.  0.
   -5000001    1    1    2    0    0 -0.15553228793E+03  0.16705191462E+03 -0.51621687107E+03  0.58804888635E+03  0.16500000000E+03 0.  0.
<mgrwt>
<rscale>  0 0.57836829E+03</rscale>
<asrwt>0</asrwt>
<pdfrwt beam="1">  1        2 0.13846737E+00 0.57836829E+03</pdfrwt>
<pdfrwt beam="2">  1       -2 0.14294692E-01 0.57836829E+03</pdfrwt>
<totfact> 0.11213295E+03</totfact>
</mgrwt>
</event>
<event>
 4    1  0.8404100E-005  0.5228948E+03  0.7818608E-02  0.1007970E+00
         -2   -1    0    0    0  501 -0.00000000000E+00  0.00000000000E+00  0.89389789305E+02  0.89389789341E+02  0.25500000000E-02 0. -1.
          2   -1    0    0  501    0  0.00000000000E+00 -0.00000000000E+00 -0.76468168050E+03  0.76468168051E+03  0.25500000000E-02 0.  1.
    5000001    1    1    2    0    0 -0.11329950293E+03 -0.10698971930E+03 -0.54964325058E+03  0.59465643889E+03  0.16500000000E+03 0.  0.
   -5000001    1    1    2    0    0  0.11329950293E+03  0.10698971930E+03 -0.12564864062E+03  0.25941503096E+03  0.16500000000E+03 0.  0.
<mgrwt>
<rscale>  0 0.52289477E+03</rscale>
<asrwt>0</asrwt>
<pdfrwt beam="1">  1        2 0.11764333E+00 0.52289477E+03</pdfrwt>
<pdfrwt beam="2">  1       -2 0.13752276E-01 0.52289477E+03</pdfrwt>
<totfact> 0.14872413E+03</totfact>
</mgrwt>
</event>
<event>
 4    1  0.8404100E-005  0.3781280E+03  0.7818608E-02  0.1051628E+00
          2   -1    0    0  501    0  0.00000000000E+00  0.00000000000E+00  0.22581018251E+04  0.22581018251E+04  0.25500000000E-02 0.  1.
         -2   -1    0    0    0  501 -0.00000000000E+00 -0.00000000000E+00 -0.15829750236E+02  0.15829750441E+02  0.25500000000E-02 0. -1.
    5000001    1    1    2    0    0  0.87878016023E+02  0.20082527181E+02  0.10017177029E+04  0.10192100912E+04  0.16500000000E+03 0.  0.
   -5000001    1    1    2    0    0 -0.87878016023E+02 -0.20082527181E+02  0.12405543719E+04  0.12547214843E+04  0.16500000000E+03 0.  0.
<mgrwt>
<rscale>  0 0.37812796E+03</rscale>
<asrwt>0</asrwt>
<pdfrwt beam="1">  1        2 0.34740017E+00 0.37812796E+03</pdfrwt>
<pdfrwt beam="2">  1       -2 0.24353470E-02 0.37812796E+03</pdfrwt>
<totfact> 0.31153056E+03</totfact>
</mgrwt>
</event>
<event>
 4    1  0.8404100E-005  0.6273040E+03  0.7818608E-02  0.9850324E-01
          2   -1    0    0  501    0  0.00000000000E+00  0.00000000000E+00  0.10950970588E+04  0.10950970588E+04  0.25500000000E-02 0.  1.
         -2   -1    0    0    0  501 -0.00000000000E+00 -0.00000000000E+00 -0.89834579020E+02  0.89834579056E+02  0.25500000000E-02 0. -1.
    5000001    1    1    2    0    0  0.16136464178E+03 -0.19866949262E+03  0.64454573181E+03  0.71286205911E+03  0.16500000000E+03 0.  0.
   -5000001    1    1    2    0    0 -0.16136464178E+03  0.19866949262E+03  0.36071674796E+03  0.47206957874E+03  0.16500000000E+03 0.  0.
<mgrwt>
<rscale>  0 0.62730402E+03</rscale>
<asrwt>0</asrwt>
<pdfrwt beam="1">  1        2 0.16847648E+00 0.62730402E+03</pdfrwt>
<pdfrwt beam="2">  1       -2 0.13820704E-01 0.62730402E+03</pdfrwt>
<totfact> 0.89070393E+02</totfact>
</mgrwt>
</event>
<event>
 4    1  0.8404100E-005  0.5337156E+03  0.7818608E-02  0.1005335E+00
          2   -1    0    0  501    0  0.00000000000E+00  0.00000000000E+00  0.71992769412E+03  0.71992769413E+03  0.25500000000E-02 0.  1.
         -2   -1    0    0    0  501 -0.00000000000E+00 -0.00000000000E+00 -0.98917010217E+02  0.98917010250E+02  0.25500000000E-02 0. -1.
    5000001    1    1    2    0    0 -0.17175993587E+03  0.75490514000E+02  0.16668121539E+03  0.30034633481E+03  0.16500000000E+03 0.  0.
   -5000001    1    1    2    0    0  0.17175993587E+03 -0.75490514000E+02  0.45432946852E+03  0.51849836956E+03  0.16500000000E+03 0.  0.
<mgrwt>
<rscale>  0 0.53371564E+03</rscale>
<asrwt>0</asrwt>
<pdfrwt beam="1">  1        2 0.11075811E+00 0.53371564E+03</pdfrwt>
<pdfrwt beam="2">  1       -2 0.15218002E-01 0.53371564E+03</pdfrwt>
<totfact> 0.13553567E+03</totfact>
</mgrwt>
</event>
<event>
 4    1  0.8404100E-005  0.3888325E+03  0.7818608E-02  0.1047717E+00
         -2   -1    0    0    0  501 -0.00000000000E+00  0.00000000000E+00  0.19629123638E+03  0.19629123640E+03  0.25500000000E-02 0. -1.
          2   -1    0    0  501    0  0.00000000000E+00 -0.00000000000E+00 -0.19255921565E+03  0.19255921567E+03  0.25500000000E-02 0.  1.
    5000001    1    1    2    0    0  0.87797400663E+02 -0.40633488601E+02 -0.32966938516E+02  0.19409091425E+03  0.16500000000E+03 0.  0.
   -5000001    1    1    2    0    0 -0.87797400663E+02  0.40633488601E+02  0.36698959247E+02  0.19475953781E+03  0.16500000000E+03 0.  0.
<mgrwt>
<rscale>  0 0.38883254E+03</rscale>
<asrwt>0</asrwt>
<pdfrwt beam="1">  1        2 0.29624495E-01 0.38883254E+03</pdfrwt>
<pdfrwt beam="2">  1       -2 0.30198652E-01 0.38883254E+03</pdfrwt>
<totfact> 0.18086329E+03</totfact>
</mgrwt>
</event>
<event>
 4    1  0.8404100E-005  0.6282965E+03  0.7818608E-02  0.9848379E-01
          2   -1    0    0  501    0  0.00000000000E+00  0.00000000000E+00  0.21957055429E+04  0.21957055429E+04  0.25500000000E-02 0.  1.
         -2   -1    0    0    0  501 -0.00000000000E+00 -0.00000000000E+00 -0.44946432325E+02  0.44946432397E+02  0.25500000000E-02 0. -1.
    5000001    1    1    2    0    0  0.16806395433E+03  0.13203089050E+03  0.50270775807E+03  0.57062924812E+03  0.16500000000E+03 0.  0.
   -5000001    1    1    2    0    0 -0.16806395433E+03 -0.13203089050E+03  0.16480513525E+04  0.16700227272E+04  0.16500000000E+03 0.  0.
<mgrwt>
<rscale>  0 0.62829652E+03</rscale>
<asrwt>0</asrwt>
<pdfrwt beam="1">  1        2 0.33780082E+00 0.62829652E+03</pdfrwt>
<pdfrwt beam="2">  1       -2 0.69148365E-02 0.62829652E+03</pdfrwt>
<totfact> 0.66896074E+02</totfact>
</mgrwt>
</event>
<event>
 4    1  0.8404100E-005  0.8738274E+03  0.7818608E-02  0.9458903E-01
          2   -1    0    0  501    0  0.00000000000E+00  0.00000000000E+00  0.53273450208E+03  0.53273450209E+03  0.25500000000E-02 0.  1.
         -2   -1    0    0    0  501 -0.00000000000E+00 -0.00000000000E+00 -0.35832783423E+03  0.35832783423E+03  0.25500000000E-02 0. -1.
    5000001    1    1    2    0    0  0.61557360859E+02 -0.37832423481E+03  0.21917802551E+03  0.47136243188E+03  0.16500000000E+03 0.  0.
   -5000001    1    1    2    0    0 -0.61557360859E+02  0.37832423481E+03 -0.44771357651E+02  0.41969990444E+03  0.16500000000E+03 0.  0.
<mgrwt>
<rscale>  0 0.87382744E+03</rscale>
<asrwt>0</asrwt>
<pdfrwt beam="1">  1        2 0.81959154E-01 0.87382744E+03</pdfrwt>
<pdfrwt beam="2">  1       -2 0.55127359E-01 0.87382744E+03</pdfrwt>
<totfact> 0.17772861E+02</totfact>
</mgrwt>
</event>
<event>
 4    1  0.8404100E-005  0.6156973E+03  0.7818608E-02  0.9873364E-01
          2   -1    0    0  501    0  0.00000000000E+00  0.00000000000E+00  0.23231915107E+03  0.23231915109E+03  0.25500000000E-02 0.  1.
         -2   -1    0    0    0  501 -0.00000000000E+00 -0.00000000000E+00 -0.40793356736E+03  0.40793356737E+03  0.25500000000E-02 0. -1.
    5000001    1    1    2    0    0 -0.66113986719E+00 -0.25513745603E+03 -0.13928108514E+03  0.33424508860E+03  0.16500000000E+03 0.  0.
   -5000001    1    1    2    0    0  0.66113986719E+00  0.25513745603E+03 -0.36333331147E+02  0.30600762985E+03  0.16500000000E+03 0.  0.
<mgrwt>
<rscale>  0 0.61569726E+03</rscale>
<asrwt>0</asrwt>
<pdfrwt beam="1">  1        2 0.35741408E-01 0.61569726E+03</pdfrwt>
<pdfrwt beam="2">  1       -2 0.62759010E-01 0.61569726E+03</pdfrwt>
<totfact> 0.34733267E+02</totfact>
</mgrwt>
</event>
<event>
 4    1  0.8404100E-005  0.3593562E+03  0.7818608E-02  0.1058839E+00
         -2   -1    0    0    0  501 -0.00000000000E+00  0.00000000000E+00  0.36887362469E+02  0.36887362558E+02  0.25500000000E-02 0. -1.
          2   -1    0    0  501    0  0.00000000000E+00 -0.00000000000E+00 -0.87521084163E+03  0.87521084163E+03  0.25500000000E-02 0.  1.
    5000001    1    1    2    0    0  0.45476041256E+02  0.50094854734E+02 -0.36345799346E+03  0.40485093283E+03  0.16500000000E+03 0.  0.
   -5000001    1    1    2    0    0 -0.45476041256E+02 -0.50094854734E+02 -0.47486548570E+03  0.50724727137E+03  0.16500000000E+03 0.  0.
<mgrwt>
<rscale>  0 0.35935620E+03</rscale>
<asrwt>0</asrwt>
<pdfrwt beam="1">  1        2 0.13464781E+00 0.35935620E+03</pdfrwt>
<pdfrwt beam="2">  1       -2 0.56749795E-02 0.35935620E+03</pdfrwt>
<totfact> 0.51090130E+03</totfact>
</mgrwt>
</event>
<event>
 4    1  0.8404100E-005  0.3941976E+03  0.7818608E-02  0.1045808E+00
         -2   -1    0    0    0  501 -0.00000000000E+00  0.00000000000E+00  0.68169187417E+02  0.68169187465E+02  0.25500000000E-02 0. -1.
          2   -1    0    0  501    0  0.00000000000E+00 -0.00000000000E+00 -0.56987526518E+03  0.56987526519E+03  0.25500000000E-02 0.  1.
    5000001    1    1    2    0    0  0.83225797760E+02 -0.65399451479E+02 -0.21770898089E+03  0.29296044447E+03  0.16500000000E+03 0.  0.
   -5000001    1    1    2    0    0 -0.83225797760E+02  0.65399451479E+02 -0.28399709687E+03  0.34508400818E+03  0.16500000000E+03 0.  0.
<mgrwt>
<rscale>  0 0.39419758E+03</rscale>
<asrwt>0</asrwt>
<pdfrwt beam="1">  1        2 0.87673115E-01 0.39419758E+03</pdfrwt>
<pdfrwt beam="2">  1       -2 0.10487568E-01 0.39419758E+03</pdfrwt>
<totfact> 0.33130170E+03</totfact>
</mgrwt>
</event>
<event>
 4    1  0.8404100E-005  0.5010876E+03  0.7818608E-02  0.1013495E+00
         -2   -1    0    0    0  501 -0.00000000000E+00  0.00000000000E+00  0.32706990376E+02  0.32706990476E+02  0.25500000000E-02 0. -1.
          2   -1    0    0  501    0  0.00000000000E+00 -0.00000000000E+00 -0.19192287899E+04  0.19192287899E+04  0.25500000000E-02 0.  1.
    5000001    1    1    2    0    0 -0.74477160000E+02 -0.14389330760E+03 -0.13188198436E+04  0.13389409663E+04  0.16500000000E+03 0.  0.
   -5000001    1    1    2    0    0  0.74477160000E+02  0.14389330760E+03 -0.56770195587E+03  0.61299481404E+03  0.16500000000E+03 0.  0.
<mgrwt>
<rscale>  0 0.50108761E+03</rscale>
<asrwt>0</asrwt>
<pdfrwt beam="1">  1        2 0.29526588E+00 0.50108761E+03</pdfrwt>
<pdfrwt beam="2">  1       -2 0.50318462E-02 0.50108761E+03</pdfrwt>
<totfact> 0.15656838E+03</totfact>
</mgrwt>
</event>
<event>
 4    1  0.8404100E-005  0.9539162E+03  0.7818608E-02  0.9360585E-01
          2   -1    0    0  501    0  0.00000000000E+00  0.00000000000E+00  0.94640791300E+03  0.94640791300E+03  0.25500000000E-02 0.  1.
         -2   -1    0    0    0  501 -0.00000000000E+00 -0.00000000000E+00 -0.24037101043E+03  0.24037101044E+03  0.25500000000E-02 0. -1.
    5000001    1    1    2    0    0 -0.38132282005E+03 -0.15981153206E+03  0.13999819474E+03  0.46665974050E+03  0.16500000000E+03 0.  0.
   -5000001    1    1    2    0    0  0.38132282005E+03  0.15981153206E+03  0.56603870784E+03  0.72011918294E+03  0.16500000000E+03 0.  0.
<mgrwt>
<rscale>  0 0.95391619E+03</rscale>
<asrwt>0</asrwt>
<pdfrwt beam="1">  1        2 0.14560122E+00 0.95391619E+03</pdfrwt>
<pdfrwt beam="2">  1       -2 0.36980155E-01 0.95391619E+03</pdfrwt>
<totfact> 0.18801533E+02</totfact>
</mgrwt>
</event>
<event>
 4    1  0.8404100E-005  0.4543026E+03  0.7818608E-02  0.1026447E+00
         -2   -1    0    0    0  501 -0.00000000000E+00  0.00000000000E+00  0.15175881385E+04  0.15175881385E+04  0.25500000000E-02 0. -1.
          2   -1    0    0  501    0  0.00000000000E+00 -0.00000000000E+00 -0.33999813325E+02  0.33999813421E+02  0.25500000000E-02 0.  1.
    5000001    1    1    2    0    0  0.10080570544E+03 -0.11883650401E+03  0.77397953813E+03  0.80656880077E+03  0.16500000000E+03 0.  0.
   -5000001    1    1    2    0    0 -0.10080570544E+03  0.11883650401E+03  0.70960878706E+03  0.74501915117E+03  0.16500000000E+03 0.  0.
<mgrwt>
<rscale>  0 0.45430260E+03</rscale>
<asrwt>0</asrwt>
<pdfrwt beam="1">  1        2 0.52307399E-02 0.45430260E+03</pdfrwt>
<pdfrwt beam="2">  1       -2 0.23347512E+00 0.45430260E+03</pdfrwt>
<totfact> 0.13174217E+02</totfact>
</mgrwt>
</event>
<event>
 4    1  0.8404100E-005  0.6686895E+03  0.7818608E-02  0.9772328E-01
         -2   -1    0    0    0  501 -0.00000000000E+00  0.00000000000E+00  0.31764662077E+03  0.31764662078E+03  0.25500000000E-02 0. -1.
          2   -1    0    0  501    0  0.00000000000E+00 -0.00000000000E+00 -0.35192069935E+03  0.35192069936E+03  0.25500000000E-02 0.  1.
    5000001    1    1    2    0    0 -0.16821952532E+03 -0.17984641977E+03 -0.17199734949E+03  0.34271071129E+03  0.16500000000E+03 0.  0.
   -5000001    1    1    2    0    0  0.16821952532E+03  0.17984641977E+03  0.13772327091E+03  0.32685660885E+03  0.16500000000E+03 0.  0.
<mgrwt>
<rscale>  0 0.66868953E+03</rscale>
<asrwt>0</asrwt>
<pdfrwt beam="1">  1        2 0.54141646E-01 0.66868953E+03</pdfrwt>
<pdfrwt beam="2">  1       -2 0.48868711E-01 0.66868953E+03</pdfrwt>
<totfact> 0.36753966E+02</totfact>
</mgrwt>
</event>
<event>
 4    1  0.8404100E-005  0.4822727E+03  0.7818608E-02  0.1018512E+00
         -2   -1    0    0    0  501 -0.00000000000E+00  0.00000000000E+00  0.26149076056E+02  0.26149076180E+02  0.25500000000E-02 0. -1.
          2   -1    0    0  501    0  0.00000000000E+00 -0.00000000000E+00 -0.22236629179E+04  0.22236629179E+04  0.25500000000E-02 0.  1.
    5000001    1    1    2    0    0 -0.14015097139E+03 -0.92602524978E+02 -0.85616648975E+03  0.88795471765E+03  0.16500000000E+03 0.  0.
   -5000001    1    1    2    0    0  0.14015097139E+03  0.92602524978E+02 -0.13413473520E+04  0.13618572764E+04  0.16500000000E+03 0.  0.
<mgrwt>
<rscale>  0 0.48227267E+03</rscale>
<asrwt>0</asrwt>
<pdfrwt beam="1">  1        2 0.34210184E+00 0.48227267E+03</pdfrwt>
<pdfrwt beam="2">  1       -2 0.40229365E-02 0.48227267E+03</pdfrwt>
<totfact> 0.15143547E+03</totfact>
</mgrwt>
</event>
<event>
 4    1  0.8404100E-005  0.4396128E+03  0.7818608E-02  0.1030866E+00
          2   -1    0    0  501    0  0.00000000000E+00  0.00000000000E+00  0.11693075295E+04  0.11693075295E+04  0.25500000000E-02 0.  1.
         -2   -1    0    0    0  501 -0.00000000000E+00 -0.00000000000E+00 -0.41319205132E+02  0.41319205210E+02  0.25500000000E-02 0. -1.
    5000001    1    1    2    0    0 -0.92197845272E+02 -0.11217921946E+03  0.57029666714E+03  0.61118565796E+03  0.16500000000E+03 0.  0.
   -5000001    1    1    2    0    0  0.92197845272E+02  0.11217921946E+03  0.55769165726E+03  0.59944107678E+03  0.16500000000E+03 0.  0.
<mgrwt>
<rscale>  0 0.43961282E+03</rscale>
<asrwt>0</asrwt>
<pdfrwt beam="1">  1        2 0.17989346E+00 0.43961282E+03</pdfrwt>
<pdfrwt beam="2">  1       -2 0.63568011E-02 0.43961282E+03</pdfrwt>
<totfact> 0.28215614E+03</totfact>
</mgrwt>
</event>
<event>
 4    1  0.8404100E-005  0.4933335E+03  0.7818608E-02  0.1015534E+00
          2   -1    0    0  501    0  0.00000000000E+00  0.00000000000E+00  0.39815012206E+03  0.39815012207E+03  0.25500000000E-02 0. -1.
         -2   -1    0    0    0  501 -0.00000000000E+00 -0.00000000000E+00 -0.15281795142E+03  0.15281795144E+03  0.25500000000E-02 0.  1.
    5000001    1    1    2    0    0 -0.67667194769E+01  0.12565534923E+03  0.27160418524E+03  0.34180241182E+03  0.16500000000E+03 0.  0.
   -5000001    1    1    2    0    0  0.67667194769E+01 -0.12565534923E+03 -0.26272014605E+02  0.20916566170E+03  0.16500000000E+03 0.  0.
<mgrwt>
<rscale>  0 0.49333350E+03</rscale>
<asrwt>0</asrwt>
<pdfrwt beam="1">  1        2 0.61253864E-01 0.49333350E+03</pdfrwt>
<pdfrwt beam="2">  1       -2 0.23510455E-01 0.49333350E+03</pdfrwt>
<totfact> 0.12791988E+03</totfact>
</mgrwt>
</event>
<event>
 4    1  0.8404100E-005  0.4349869E+03  0.7818608E-02  0.1032296E+00
          2   -1    0    0  501    0  0.00000000000E+00  0.00000000000E+00  0.23516775805E+03  0.23516775806E+03  0.25500000000E-02 0.  1.
         -2   -1    0    0    0  501 -0.00000000000E+00 -0.00000000000E+00 -0.20114747579E+03  0.20114747580E+03  0.25500000000E-02 0. -1.
    5000001    1    1    2    0    0 -0.12444128305E+03  0.30395700391E+02  0.77766302080E+02  0.22289488390E+03  0.16500000000E+03 0.  0.
   -5000001    1    1    2    0    0  0.12444128305E+03 -0.30395700391E+02 -0.43746019821E+02  0.21342034997E+03  0.16500000000E+03 0.  0.
<mgrwt>
<rscale>  0 0.43498690E+03</rscale>
<asrwt>0</asrwt>
<pdfrwt beam="1">  1        2 0.36179655E-01 0.43498690E+03</pdfrwt>
<pdfrwt beam="2">  1       -2 0.30945766E-01 0.43498690E+03</pdfrwt>
<totfact> 0.13877591E+03</totfact>
</mgrwt>
</event>
<event>
 4    1  0.8404100E-005  0.6817329E+03  0.7818608E-02  0.9748992E-01
         -2   -1    0    0    0  501 -0.00000000000E+00  0.00000000000E+00  0.40773953741E+02  0.40773953821E+02  0.25500000000E-02 0. -1.
          2   -1    0    0  501    0  0.00000000000E+00 -0.00000000000E+00 -0.28496114810E+04  0.28496114810E+04  0.25500000000E-02 0.  1.
    5000001    1    1    2    0    0 -0.14128006338E+03 -0.20143210190E+03 -0.68954428383E+03  0.75048735322E+03  0.16500000000E+03 0.  0.
   -5000001    1    1    2    0    0  0.14128006338E+03  0.20143210190E+03 -0.21192932434E+04  0.21398980816E+04  0.16500000000E+03 0.  0.
<mgrwt>
<rscale>  0 0.68173287E+03</rscale>
<asrwt>0</asrwt>
<pdfrwt beam="1">  1        2 0.43840161E+00 0.68173287E+03</pdfrwt>
<pdfrwt beam="2">  1       -2 0.62729182E-02 0.68173287E+03</pdfrwt>
<totfact> 0.33018447E+02</totfact>
</mgrwt>
</event>
<event>
 4    1  0.8404100E-005  0.4202338E+03  0.7818608E-02  0.1036990E+00
          2   -1    0    0  501    0  0.00000000000E+00  0.00000000000E+00  0.28817503675E+03  0.28817503676E+03  0.25500000000E-02 0.  1.
         -2   -1    0    0    0  501 -0.00000000000E+00 -0.00000000000E+00 -0.15320239069E+03  0.15320239071E+03  0.25500000000E-02 0. -1.
    5000001    1    1    2    0    0  0.58588750751E+02 -0.10863175285E+03  0.11067205301E+03  0.23389485407E+03  0.16500000000E+03 0.  0.
   -5000001    1    1    2    0    0 -0.58588750751E+02  0.10863175285E+03  0.24300593056E+02  0.20748257340E+03  0.16500000000E+03 0.  0.
<mgrwt>
<rscale>  0 0.42023377E+03</rscale>
<asrwt>0</asrwt>
<pdfrwt beam="1">  1        2 0.44334621E-01 0.42023377E+03</pdfrwt>
<pdfrwt beam="2">  1       -2 0.23569599E-01 0.42023377E+03</pdfrwt>
<totfact> 0.18151461E+03</totfact>
</mgrwt>
</event>
<event>
 4    1  0.8404100E-005  0.3719115E+03  0.7818608E-02  0.1053964E+00
         -2   -1    0    0    0  501 -0.00000000000E+00  0.00000000000E+00  0.35510341017E+02  0.35510341109E+02  0.25500000000E-02 0. -1.
          2   -1    0    0  501    0  0.00000000000E+00 -0.00000000000E+00 -0.97378784769E+03  0.97378784769E+03  0.25500000000E-02 0.  1.
    5000001    1    1    2    0    0 -0.52621138328E+02  0.65516757637E+02 -0.51560037670E+03  0.54784138049E+03  0.16500000000E+03 0.  0.
   -5000001    1    1    2    0    0  0.52621138328E+02 -0.65516757637E+02 -0.42267712997E+03  0.46145680830E+03  0.16500000000E+03 0.  0.
<mgrwt>
<rscale>  0 0.37191149E+03</rscale>
<asrwt>0</asrwt>
<pdfrwt beam="1">  1        2 0.14981349E+00 0.37191149E+03</pdfrwt>
<pdfrwt beam="2">  1       -2 0.54631301E-02 0.37191149E+03</pdfrwt>
<totfact> 0.46813582E+03</totfact>
</mgrwt>
</event>
<event>
 4    1  0.8404100E-005  0.4204404E+03  0.7818608E-02  0.1036923E+00
          2   -1    0    0  501    0  0.00000000000E+00  0.00000000000E+00  0.20618946918E+04  0.20618946918E+04  0.25500000000E-02 0.  1.
         -2   -1    0    0    0  501 -0.00000000000E+00 -0.00000000000E+00 -0.21432967946E+02  0.21432968097E+02  0.25500000000E-02 0. -1.
    5000001    1    1    2    0    0  0.55267663562E+01 -0.13013825021E+03  0.10152419675E+04  0.10367775856E+04  0.16500000000E+03 0.  0.
   -5000001    1    1    2    0    0 -0.55267663562E+01  0.13013825021E+03  0.10252197564E+04  0.10465500744E+04  0.16500000000E+03 0.  0.
<mgrwt>
<rscale>  0 0.42044035E+03</rscale>
<asrwt>0</asrwt>
<pdfrwt beam="1">  1        2 0.31721445E+00 0.42044035E+03</pdfrwt>
<pdfrwt beam="2">  1       -2 0.32973810E-02 0.42044035E+03</pdfrwt>
<totfact> 0.25145407E+03</totfact>
</mgrwt>
</event>
<event>
 4    1  0.8404100E-005  0.4737654E+03  0.7818608E-02  0.1020863E+00
         -2   -1    0    0    0  501 -0.00000000000E+00  0.00000000000E+00  0.63867428746E+03  0.63867428747E+03  0.25500000000E-02 0.  1.
          2   -1    0    0  501    0  0.00000000000E+00 -0.00000000000E+00 -0.87859199237E+02  0.87859199274E+02  0.25500000000E-02 0. -1.
    5000001    1    1    2    0    0  0.15830066146E+03 -0.60924551874E+02  0.25878369260E+03  0.35066351392E+03  0.16500000000E+03 0.  0.
   -5000001    1    1    2    0    0 -0.15830066146E+03  0.60924551874E+02  0.29203139562E+03  0.37586997282E+03  0.16500000000E+03 0.  0.
<mgrwt>
<rscale>  0 0.47376539E+03</rscale>
<asrwt>0</asrwt>
<pdfrwt beam="1">  1        2 0.13516800E-01 0.47376539E+03</pdfrwt>
<pdfrwt beam="2">  1       -2 0.98257584E-01 0.47376539E+03</pdfrwt>
<totfact> 0.39636381E+02</totfact>
</mgrwt>
</event>
<event>
 4    1  0.8404100E-005  0.4889836E+03  0.7818608E-02  0.1016695E+00
         -2   -1    0    0    0  501 -0.00000000000E+00  0.00000000000E+00  0.40247220921E+02  0.40247221002E+02  0.25500000000E-02 0. -1.
          2   -1    0    0  501    0  0.00000000000E+00 -0.00000000000E+00 -0.14852263260E+04  0.14852263260E+04  0.25500000000E-02 0.  1.
    5000001    1    1    2    0    0  0.13132379116E+03 -0.12225513020E+03 -0.66338188617E+03  0.70674803281E+03  0.16500000000E+03 0.  0.
   -5000001    1    1    2    0    0 -0.13132379116E+03  0.12225513020E+03 -0.78159721891E+03  0.81872551419E+03  0.16500000000E+03 0.  0.
<mgrwt>
<rscale>  0 0.48898357E+03</rscale>
<asrwt>0</asrwt>
<pdfrwt beam="1">  1        2 0.22849632E+00 0.48898357E+03</pdfrwt>
<pdfrwt beam="2">  1       -2 0.61918813E-02 0.48898357E+03</pdfrwt>
<totfact> 0.19480554E+03</totfact>
</mgrwt>
</event>
<event>
 4    1  0.8404100E-005  0.1019054E+04  0.7818608E-02  0.9287890E-01
         -2   -1    0    0    0  501 -0.00000000000E+00  0.00000000000E+00  0.14689724293E+03  0.14689724295E+03  0.25500000000E-02 0. -1.
          2   -1    0    0  501    0  0.00000000000E+00 -0.00000000000E+00 -0.17673423308E+04  0.17673423308E+04  0.25500000000E-02 0.  1.
    5000001    1    1    2    0    0 -0.23560636713E+03 -0.41201819549E+03 -0.65168152589E+03  0.82291139550E+03  0.16500000000E+03 0.  0.
   -5000001    1    1    2    0    0  0.23560636713E+03  0.41201819549E+03 -0.96876356193E+03  0.10913281782E+04  0.16500000000E+03 0.  0.
<mgrwt>
<rscale>  0 0.10190539E+04</rscale>
<asrwt>0</asrwt>
<pdfrwt beam="1">  1        2 0.27189881E+00 0.10190539E+04</pdfrwt>
<pdfrwt beam="2">  1       -2 0.22599577E-01 0.10190539E+04</pdfrwt>
<totfact> 0.15455191E+02</totfact>
</mgrwt>
</event>
<event>
 4    1  0.8404100E-005  0.4303506E+03  0.7818608E-02  0.1033749E+00
          2   -1    0    0  501    0  0.00000000000E+00  0.00000000000E+00  0.67811152495E+03  0.67811152495E+03  0.25500000000E-02 0. -1.
         -2   -1    0    0    0  501 -0.00000000000E+00 -0.00000000000E+00 -0.68278463453E+02  0.68278463501E+02  0.25500000000E-02 0.  1.
    5000001    1    1    2    0    0  0.12545903326E+03 -0.50517577434E+02  0.35346105434E+03  0.41285797993E+03  0.16500000000E+03 0.  0.
   -5000001    1    1    2    0    0 -0.12545903326E+03  0.50517577434E+02  0.25637200715E+03  0.33353200852E+03  0.16500000000E+03 0.  0.
<mgrwt>
<rscale>  0 0.43035062E+03</rscale>
<asrwt>0</asrwt>
<pdfrwt beam="1">  1        2 0.10432485E+00 0.43035062E+03</pdfrwt>
<pdfrwt beam="2">  1       -2 0.10504379E-01 0.43035062E+03</pdfrwt>
<totfact> 0.26879258E+03</totfact>
</mgrwt>
</event>
<event>
 4    1  0.8404100E-005  0.5020057E+03  0.7818608E-02  0.1013257E+00
          2   -1    0    0  501    0  0.00000000000E+00  0.00000000000E+00  0.10202262467E+04  0.10202262467E+04  0.25500000000E-02 0.  1.
         -2   -1    0    0    0  501 -0.00000000000E+00 -0.00000000000E+00 -0.61753392845E+02  0.61753392898E+02  0.25500000000E-02 0. -1.
    5000001    1    1    2    0    0  0.17245760793E+03  0.74270345934E+02  0.43010088602E+03  0.49746304684E+03  0.16500000000E+03 0.  0.
   -5000001    1    1    2    0    0 -0.17245760793E+03 -0.74270345934E+02  0.52837196785E+03  0.58451659277E+03  0.16500000000E+03 0.  0.
<mgrwt>
<rscale>  0 0.50200571E+03</rscale>
<asrwt>0</asrwt>
<pdfrwt beam="1">  1        2 0.15695789E+00 0.50200571E+03</pdfrwt>
<pdfrwt beam="2">  1       -2 0.95005217E-02 0.50200571E+03</pdfrwt>
<totfact> 0.18361720E+03</totfact>
</mgrwt>
</event>
<event>
 4    1  0.8404100E-005  0.4487542E+03  0.7818608E-02  0.1028094E+00
         -2   -1    0    0    0  501 -0.00000000000E+00  0.00000000000E+00  0.14025043369E+03  0.14025043371E+03  0.25500000000E-02 0. -1.
          2   -1    0    0  501    0  0.00000000000E+00 -0.00000000000E+00 -0.35896562840E+03  0.35896562841E+03  0.25500000000E-02 0.  1.
    5000001    1    1    2    0    0  0.11468129637E+03  0.61219612887E+02 -0.19709620112E+03  0.28804783150E+03  0.16500000000E+03 0.  0.
   -5000001    1    1    2    0    0 -0.11468129637E+03 -0.61219612887E+02 -0.21618993598E+02  0.21116823062E+03  0.16500000000E+03 0.  0.
<mgrwt>
<rscale>  0 0.44875421E+03</rscale>
<asrwt>0</asrwt>
<pdfrwt beam="1">  1        2 0.55225481E-01 0.44875421E+03</pdfrwt>
<pdfrwt beam="2">  1       -2 0.21576990E-01 0.44875421E+03</pdfrwt>
<totfact> 0.16676625E+03</totfact>
</mgrwt>
</event>
<event>
 4    1  0.8404100E-005  0.8623109E+03  0.7818608E-02  0.9473961E-01
         -2   -1    0    0    0  501 -0.00000000000E+00  0.00000000000E+00  0.12328076831E+03  0.12328076833E+03  0.25500000000E-02 0. -1.
          2   -1    0    0  501    0  0.00000000000E+00 -0.00000000000E+00 -0.15078995352E+04  0.15078995352E+04  0.25500000000E-02 0.  1.
    5000001    1    1    2    0    0 -0.11948194542E+03 -0.37154503495E+03 -0.54159002161E+03  0.68765281922E+03  0.16500000000E+03 0.  0.
   -5000001    1    1    2    0    0  0.11948194542E+03  0.37154503495E+03 -0.84302874524E+03  0.94352748427E+03  0.16500000000E+03 0.  0.
<mgrwt>
<rscale>  0 0.86231088E+03</rscale>
<asrwt>0</asrwt>
<pdfrwt beam="1">  1        2 0.23198453E+00 0.86231088E+03</pdfrwt>
<pdfrwt beam="2">  1       -2 0.18966273E-01 0.86231088E+03</pdfrwt>
<totfact> 0.29607976E+02</totfact>
</mgrwt>
</event>
<event>
 4    1  0.8404100E-005  0.4368557E+03  0.7818608E-02  0.1031716E+00
         -2   -1    0    0    0  501 -0.00000000000E+00  0.00000000000E+00  0.21256079645E+03  0.21256079646E+03  0.25500000000E-02 0. -1.
          2   -1    0    0  501    0  0.00000000000E+00 -0.00000000000E+00 -0.22445687838E+03  0.22445687840E+03  0.25500000000E-02 0.  1.
    5000001    1    1    2    0    0 -0.11213393407E+03  0.68698710658E+02 -0.62468550138E+02  0.22004738529E+03  0.16500000000E+03 0.  0.
   -5000001    1    1    2    0    0  0.11213393407E+03 -0.68698710658E+02  0.50572468201E+02  0.21697028957E+03  0.16500000000E+03 0.  0.
<mgrwt>
<rscale>  0 0.43685573E+03</rscale>
<asrwt>0</asrwt>
<pdfrwt beam="1">  1        2 0.34531828E-01 0.43685573E+03</pdfrwt>
<pdfrwt beam="2">  1       -2 0.32701661E-01 0.43685573E+03</pdfrwt>
<totfact> 0.13189234E+03</totfact>
</mgrwt>
</event>
<event>
 4    1  0.8404100E-005  0.4414241E+03  0.7818608E-02  0.1030311E+00
          2   -1    0    0  501    0  0.00000000000E+00  0.00000000000E+00  0.24792553597E+03  0.24792553598E+03  0.25500000000E-02 0.  1.
         -2   -1    0    0    0  501 -0.00000000000E+00 -0.00000000000E+00 -0.19648561851E+03  0.19648561853E+03  0.25500000000E-02 0. -1.
    5000001    1    1    2    0    0  0.13438832092E+03 -0.39024313713E+02 -0.18229591317E+02  0.21711848346E+03  0.16500000000E+03 0.  0.
   -5000001    1    1    2    0    0 -0.13438832092E+03  0.39024313713E+02  0.69669508770E+02  0.22729267105E+03  0.16500000000E+03 0.  0.
<mgrwt>
<rscale>  0 0.44142407E+03</rscale>
<asrwt>0</asrwt>
<pdfrwt beam="1">  1        2 0.38142390E-01 0.44142407E+03</pdfrwt>
<pdfrwt beam="2">  1       -2 0.30228557E-01 0.44142407E+03</pdfrwt>
<totfact> 0.13673222E+03</totfact>
</mgrwt>
</event>
<event>
 4    1  0.8404100E-005  0.4351959E+03  0.7818608E-02  0.1032231E+00
          2   -1    0    0  501    0  0.00000000000E+00  0.00000000000E+00  0.17599641320E+04  0.17599641320E+04  0.25500000000E-02 0.  1.
         -2   -1    0    0    0  501 -0.00000000000E+00 -0.00000000000E+00 -0.26903308219E+02  0.26903308340E+02  0.25500000000E-02 0. -1.
    5000001    1    1    2    0    0 -0.66255604819E+02 -0.73648208446E+02  0.12834351105E+04  0.12977844762E+04  0.16500000000E+03 0.  0.
   -5000001    1    1    2    0    0  0.66255604819E+02  0.73648208446E+02  0.44962571325E+03  0.48908296412E+03  0.16500000000E+03 0.  0.
<mgrwt>
<rscale>  0 0.43519585E+03</rscale>
<asrwt>0</asrwt>
<pdfrwt beam="1">  1        2 0.27076366E+00 0.43519585E+03</pdfrwt>
<pdfrwt beam="2">  1       -2 0.41389713E-02 0.43519585E+03</pdfrwt>
<totfact> 0.25803828E+03</totfact>
</mgrwt>
</event>
<event>
 4    1  0.8404100E-005  0.8037512E+03  0.7818608E-02  0.9554603E-01
         -2   -1    0    0    0  501 -0.00000000000E+00  0.00000000000E+00  0.62063535412E+02  0.62063535465E+02  0.25500000000E-02 0. -1.
          2   -1    0    0  501    0  0.00000000000E+00 -0.00000000000E+00 -0.26022363588E+04  0.26022363588E+04  0.25500000000E-02 0.  1.
    5000001    1    1    2    0    0 -0.50851933309E+02  0.27840437600E+03 -0.49847736863E+03  0.59648939868E+03  0.16500000000E+03 0.  0.
   -5000001    1    1    2    0    0  0.50851933309E+02 -0.27840437600E+03 -0.20416954548E+04  0.20678104956E+04  0.16500000000E+03 0.  0.
<mgrwt>
<rscale>  0 0.80375118E+03</rscale>
<asrwt>0</asrwt>
<pdfrwt beam="1">  1        2 0.40034397E+00 0.80375118E+03</pdfrwt>
<pdfrwt beam="2">  1       -2 0.95482382E-02 0.80375118E+03</pdfrwt>
<totfact> 0.23253658E+02</totfact>
</mgrwt>
</event>
<event>
 4    1  0.8404100E-005  0.5195503E+03  0.7818608E-02  0.1008798E+00
          2   -1    0    0  501    0  0.00000000000E+00  0.00000000000E+00  0.28950488314E+04  0.28950488314E+04  0.25500000000E-02 0.  1.
         -2   -1    0    0    0  501 -0.00000000000E+00 -0.00000000000E+00 -0.23309841513E+02  0.23309841653E+02  0.25500000000E-02 0. -1.
    5000001    1    1    2    0    0 -0.12577444656E+01  0.11861001723E+03  0.52686928541E+03  0.56470006376E+03  0.16500000000E+03 0.  0.
   -5000001    1    1    2    0    0  0.12577444656E+01 -0.11861001723E+03  0.23448697045E+04  0.23536586093E+04  0.16500000000E+03 0.  0.
<mgrwt>
<rscale>  0 0.51955030E+03</rscale>
<asrwt>0</asrwt>
<pdfrwt beam="1">  1        2 0.44539188E+00 0.51955030E+03</pdfrwt>
<pdfrwt beam="2">  1       -2 0.35861315E-02 0.51955030E+03</pdfrwt>
<totfact> 0.75036345E+02</totfact>
</mgrwt>
</event>
<event>
 4    1  0.8404100E-005  0.3893085E+03  0.7818608E-02  0.1047546E+00
         -2   -1    0    0    0  501 -0.00000000000E+00  0.00000000000E+00  0.26673407674E+02  0.26673407796E+02  0.25500000000E-02 0. -1.
          2   -1    0    0  501    0  0.00000000000E+00 -0.00000000000E+00 -0.14205263187E+04  0.14205263187E+04  0.25500000000E-02 0.  1.
    5000001    1    1    2    0    0 -0.94172048518E+01  0.98269230941E+02 -0.58418854010E+03  0.61501770371E+03  0.16500000000E+03 0.  0.
   -5000001    1    1    2    0    0  0.94172048518E+01 -0.98269230941E+02 -0.80966437088E+03  0.83218202274E+03  0.16500000000E+03 0.  0.
<mgrwt>
<rscale>  0 0.38930850E+03</rscale>
<asrwt>0</asrwt>
<pdfrwt beam="1">  1        2 0.21854245E+00 0.38930850E+03</pdfrwt>
<pdfrwt beam="2">  1       -2 0.41036023E-02 0.38930850E+03</pdfrwt>
<totfact> 0.39915641E+03</totfact>
</mgrwt>
</event>
<event>
 4    1  0.8404100E-005  0.5217533E+03  0.7818608E-02  0.1008252E+00
          2   -1    0    0  501    0  0.00000000000E+00  0.00000000000E+00  0.75464032415E+03  0.75464032415E+03  0.25500000000E-02 0.  1.
         -2   -1    0    0    0  501 -0.00000000000E+00 -0.00000000000E+00 -0.90184178811E+02  0.90184178847E+02  0.25500000000E-02 0. -1.
    5000001    1    1    2    0    0 -0.18148254142E+03 -0.22189181432E+02  0.47154867014E+03  0.53198817743E+03  0.16500000000E+03 0.  0.
   -5000001    1    1    2    0    0  0.18148254142E+03  0.22189181432E+02  0.19290747520E+03  0.31283632557E+03  0.16500000000E+03 0.  0.
<mgrwt>
<rscale>  0 0.52175327E+03</rscale>
<asrwt>0</asrwt>
<pdfrwt beam="1">  1        2 0.11609851E+00 0.52175327E+03</pdfrwt>
<pdfrwt beam="2">  1       -2 0.13874489E-01 0.52175327E+03</pdfrwt>
<totfact> 0.14905574E+03</totfact>
</mgrwt>
</event>
<event>
 4    1  0.8404100E-005  0.8239582E+03  0.7818608E-02  0.9525972E-01
          2   -1    0    0  501    0  0.00000000000E+00  0.00000000000E+00  0.36119287668E+03  0.36119287669E+03  0.25500000000E-02 0.  1.
         -2   -1    0    0    0  501 -0.00000000000E+00 -0.00000000000E+00 -0.46990617492E+03  0.46990617493E+03  0.25500000000E-02 0. -1.
    5000001    1    1    2    0    0  0.32362359526E+03  0.74005938106E+02  0.12690231277E+03  0.39183964484E+03  0.16500000000E+03 0.  0.
   -5000001    1    1    2    0    0 -0.32362359526E+03 -0.74005938106E+02 -0.23561561102E+03  0.43925940677E+03  0.16500000000E+03 0.  0.
<mgrwt>
<rscale>  0 0.82395816E+03</rscale>
<asrwt>0</asrwt>
<pdfrwt beam="1">  1        2 0.55568135E-01 0.82395816E+03</pdfrwt>
<pdfrwt beam="2">  1       -2 0.72293258E-01 0.82395816E+03</pdfrwt>
<totfact> 0.15557367E+02</totfact>
</mgrwt>
</event>
<event>
 4    1  0.8404100E-005  0.5538097E+03  0.7818608E-02  0.1000616E+00
         -2   -1    0    0    0  501 -0.00000000000E+00  0.00000000000E+00  0.31202063923E+02  0.31202064027E+02  0.25500000000E-02 0. -1.
          2   -1    0    0  501    0  0.00000000000E+00 -0.00000000000E+00 -0.24574109277E+04  0.24574109277E+04  0.25500000000E-02 0.  1.
    5000001    1    1    2    0    0 -0.21847837635E+03 -0.21776597017E+02 -0.10545952384E+04  0.10897720578E+04  0.16500000000E+03 0.  0.
   -5000001    1    1    2    0    0  0.21847837635E+03  0.21776597017E+02 -0.13716136254E+04  0.13988409340E+04  0.16500000000E+03 0.  0.
<mgrwt>
<rscale>  0 0.55380969E+03</rscale>
<asrwt>0</asrwt>
<pdfrwt beam="1">  1        2 0.37806307E+00 0.55380969E+03</pdfrwt>
<pdfrwt beam="2">  1       -2 0.48003195E-02 0.55380969E+03</pdfrwt>
<totfact> 0.85321009E+02</totfact>
</mgrwt>
</event>
<event>
 4    1  0.8404100E-005  0.4815462E+03  0.7818608E-02  0.1018711E+00
         -2   -1    0    0    0  501 -0.00000000000E+00  0.00000000000E+00  0.90302805079E+02  0.90302805115E+02  0.25500000000E-02 0. -1.
          2   -1    0    0  501    0  0.00000000000E+00 -0.00000000000E+00 -0.64196979977E+03  0.64196979978E+03  0.25500000000E-02 0.  1.
    5000001    1    1    2    0    0  0.40151431300E+02  0.16193565375E+03 -0.19378240962E+03  0.30432205912E+03  0.16500000000E+03 0.  0.
   -5000001    1    1    2    0    0 -0.40151431300E+02 -0.16193565375E+03 -0.35788458508E+03  0.42795054577E+03  0.16500000000E+03 0.  0.
<mgrwt>
<rscale>  0 0.48154615E+03</rscale>
<asrwt>0</asrwt>
<pdfrwt beam="1">  1        2 0.98764582E-01 0.48154615E+03</pdfrwt>
<pdfrwt beam="2">  1       -2 0.13892740E-01 0.48154615E+03</pdfrwt>
<totfact> 0.18186147E+03</totfact>
</mgrwt>
</event>
<event>
 4    1  0.8404100E-005  0.4738543E+03  0.7818608E-02  0.1020838E+00
         -2   -1    0    0    0  501 -0.00000000000E+00  0.00000000000E+00  0.47469434934E+03  0.47469434935E+03  0.25500000000E-02 0. -1.
          2   -1    0    0  501    0  0.00000000000E+00 -0.00000000000E+00 -0.11825393530E+03  0.11825393533E+03  0.25500000000E-02 0.  1.
    5000001    1    1    2    0    0  0.75266131056E+02  0.14581878590E+03  0.23392009874E+03  0.32995715086E+03  0.16500000000E+03 0.  0.
   -5000001    1    1    2    0    0 -0.75266131056E+02 -0.14581878590E+03  0.12252031530E+03  0.26299113382E+03  0.16500000000E+03 0.  0.
<mgrwt>
<rscale>  0 0.47385430E+03</rscale>
<asrwt>0</asrwt>
<pdfrwt beam="1">  1        2 0.18192913E-01 0.47385430E+03</pdfrwt>
<pdfrwt beam="2">  1       -2 0.73029900E-01 0.47385430E+03</pdfrwt>
<totfact> 0.54256029E+02</totfact>
</mgrwt>
</event>
<event>
 4    1  0.8404100E-005  0.6337665E+03  0.7818608E-02  0.9837726E-01
         -2   -1    0    0    0  501 -0.00000000000E+00  0.00000000000E+00  0.51570878722E+03  0.51570878722E+03  0.25500000000E-02 0. -1.
          2   -1    0    0  501    0  0.00000000000E+00 -0.00000000000E+00 -0.19471258793E+03  0.19471258795E+03  0.25500000000E-02 0.  1.
    5000001    1    1    2    0    0 -0.69442071567E+01 -0.24364507010E+03  0.28917083370E+02  0.29575723137E+03  0.16500000000E+03 0.  0.
   -5000001    1    1    2    0    0  0.69442071567E+01  0.24364507010E+03  0.29207911592E+03  0.41466414380E+03  0.16500000000E+03 0.  0.
<mgrwt>
<rscale>  0 0.63376650E+03</rscale>
<asrwt>0</asrwt>
<pdfrwt beam="1">  1        2 0.29955783E-01 0.63376650E+03</pdfrwt>
<pdfrwt beam="2">  1       -2 0.79339813E-01 0.63376650E+03</pdfrwt>
<totfact> 0.25376704E+02</totfact>
</mgrwt>
</event>
<event>
 4    1  0.8404100E-005  0.6650763E+03  0.7818608E-02  0.9778894E-01
         -2   -1    0    0    0  501 -0.00000000000E+00  0.00000000000E+00  0.67921074640E+02  0.67921074688E+02  0.25500000000E-02 0. -1.
          2   -1    0    0  501    0  0.00000000000E+00 -0.00000000000E+00 -0.16280898981E+04  0.16280898981E+04  0.25500000000E-02 0.  1.
    5000001    1    1    2    0    0  0.21997372031E+03 -0.18652453457E+03 -0.74617902240E+03  0.81681575223E+03  0.16500000000E+03 0.  0.
   -5000001    1    1    2    0    0 -0.21997372031E+03  0.18652453457E+03 -0.81398980109E+03  0.87919522059E+03  0.16500000000E+03 0.  0.
<mgrwt>
<rscale>  0 0.66507628E+03</rscale>
<asrwt>0</asrwt>
<pdfrwt beam="1">  1        2 0.25047534E+00 0.66507628E+03</pdfrwt>
<pdfrwt beam="2">  1       -2 0.10449397E-01 0.66507628E+03</pdfrwt>
<totfact> 0.70058607E+02</totfact>
</mgrwt>
</event>
<event>
 4    1  0.8404100E-005  0.6881162E+03  0.7818608E-02  0.9737774E-01
          2   -1    0    0  501    0  0.00000000000E+00  0.00000000000E+00  0.12893109045E+04  0.12893109045E+04  0.25500000000E-02 0.  1.
         -2   -1    0    0    0  501 -0.00000000000E+00 -0.00000000000E+00 -0.91813361524E+02  0.91813361559E+02  0.25500000000E-02 0. -1.
    5000001    1    1    2    0    0  0.53189613384E+02  0.26262094082E+03  0.31953633797E+03  0.44847225645E+03  0.16500000000E+03 0.  0.
   -5000001    1    1    2    0    0 -0.53189613384E+02 -0.26262094082E+03  0.87796120505E+03  0.93265200965E+03  0.16500000000E+03 0.  0.
<mgrwt>
<rscale>  0 0.68811618E+03</rscale>
<asrwt>0</asrwt>
<pdfrwt beam="1">  1        2 0.19835551E+00 0.68811618E+03</pdfrwt>
<pdfrwt beam="2">  1       -2 0.14125134E-01 0.68811618E+03</pdfrwt>
<totfact> 0.65766131E+02</totfact>
</mgrwt>
</event>
<event>
 4    1  0.8404100E-005  0.7205535E+03  0.7818608E-02  0.9682714E-01
          2   -1    0    0  501    0  0.00000000000E+00  0.00000000000E+00  0.20399808693E+04  0.20399808693E+04  0.25500000000E-02 0.  1.
         -2   -1    0    0    0  501 -0.00000000000E+00 -0.00000000000E+00 -0.63627731220E+02  0.63627731271E+02  0.25500000000E-02 0. -1.
    5000001    1    1    2    0    0 -0.27211604767E+03 -0.14081937601E+03  0.71591504698E+03  0.79601293617E+03  0.16500000000E+03 0.  0.
   -5000001    1    1    2    0    0  0.27211604767E+03  0.14081937601E+03  0.12604380911E+04  0.13075956644E+04  0.16500000000E+03 0.  0.
<mgrwt>
<rscale>  0 0.72055355E+03</rscale>
<asrwt>0</asrwt>
<pdfrwt beam="1">  1        2 0.31384317E+00 0.72055355E+03</pdfrwt>
<pdfrwt beam="2">  1       -2 0.97888828E-02 0.72055355E+03</pdfrwt>
<totfact> 0.46314647E+02</totfact>
</mgrwt>
</event>
<event>
 4    1  0.8404100E-005  0.4723148E+03  0.7818608E-02  0.1021269E+00
         -2   -1    0    0    0  501 -0.00000000000E+00  0.00000000000E+00  0.69962977601E+02  0.69962977648E+02  0.25500000000E-02 0. -1.
          2   -1    0    0  501    0  0.00000000000E+00 -0.00000000000E+00 -0.79714026011E+03  0.79714026011E+03  0.25500000000E-02 0.  1.
    5000001    1    1    2    0    0 -0.78795086280E+02  0.10659383906E+03 -0.55591090957E+03  0.59483850878E+03  0.16500000000E+03 0.  0.
   -5000001    1    1    2    0    0  0.78795086280E+02 -0.10659383906E+03 -0.17126637294E+03  0.27226472898E+03  0.16500000000E+03 0.  0.
<mgrwt>
<rscale>  0 0.47231475E+03</rscale>
<asrwt>0</asrwt>
<pdfrwt beam="1">  1        2 0.12263696E+00 0.47231475E+03</pdfrwt>
<pdfrwt beam="2">  1       -2 0.10763536E-01 0.47231475E+03</pdfrwt>
<totfact> 0.21081865E+03</totfact>
</mgrwt>
</event>
<event>
 4    1  0.8404100E-005  0.5509827E+03  0.7818608E-02  0.1001267E+00
         -2   -1    0    0    0  501 -0.00000000000E+00  0.00000000000E+00  0.35119606357E+02  0.35119606450E+02  0.25500000000E-02 0. -1.
          2   -1    0    0  501    0  0.00000000000E+00 -0.00000000000E+00 -0.21610577449E+04  0.21610577449E+04  0.25500000000E-02 0.  1.
    5000001    1    1    2    0    0  0.73211482826E+01  0.16773917020E+03 -0.49254301246E+03  0.54590626261E+03  0.16500000000E+03 0.  0.
   -5000001    1    1    2    0    0 -0.73211482826E+01 -0.16773917020E+03 -0.16333951261E+04  0.16502710887E+04  0.16500000000E+03 0.  0.
<mgrwt>
<rscale>  0 0.55098275E+03</rscale>
<asrwt>0</asrwt>
<pdfrwt beam="1">  1        2 0.33247032E+00 0.55098275E+03</pdfrwt>
<pdfrwt beam="2">  1       -2 0.54030181E-02 0.55098275E+03</pdfrwt>
<totfact> 0.10345944E+03</totfact>
</mgrwt>
</event>
<event>
 4    1  0.8404100E-005  0.1657077E+04  0.7818608E-02  0.8786231E-01
         -2   -1    0    0    0  501 -0.00000000000E+00  0.00000000000E+00  0.75782822493E+03  0.75782822493E+03  0.25500000000E-02 0. -1.
          2   -1    0    0  501    0  0.00000000000E+00 -0.00000000000E+00 -0.90584631131E+03  0.90584631132E+03  0.25500000000E-02 0.  1.
    5000001    1    1    2    0    0  0.75137805876E+03 -0.79925855356E+01 -0.38283420987E+03  0.85931362194E+03  0.16500000000E+03 0.  0.
   -5000001    1    1    2    0    0 -0.75137805876E+03  0.79925855356E+01  0.23481612348E+03  0.80436091430E+03  0.16500000000E+03 0.  0.
<mgrwt>
<rscale>  0 0.16570768E+04</rscale>
<asrwt>0</asrwt>
<pdfrwt beam="1">  1        2 0.13936097E+00 0.16570768E+04</pdfrwt>
<pdfrwt beam="2">  1       -2 0.11658896E+00 0.16570768E+04</pdfrwt>
<totfact> 0.15817594E+01</totfact>
</mgrwt>
</event>
<event>
 4    1  0.8404100E-005  0.4509248E+03  0.7818608E-02  0.1027447E+00
         -2   -1    0    0    0  501 -0.00000000000E+00  0.00000000000E+00  0.49933061081E+02  0.49933061146E+02  0.25500000000E-02 0. -1.
          2   -1    0    0  501    0  0.00000000000E+00 -0.00000000000E+00 -0.10180286160E+04  0.10180286160E+04  0.25500000000E-02 0.  1.
    5000001    1    1    2    0    0 -0.12100819979E+03 -0.23856320165E+02 -0.26703147043E+03  0.33725793486E+03  0.16500000000E+03 0.  0.
   -5000001    1    1    2    0    0  0.12100819979E+03  0.23856320165E+02 -0.70106408453E+03  0.73070374233E+03  0.16500000000E+03 0.  0.
<mgrwt>
<rscale>  0 0.45092476E+03</rscale>
<asrwt>0</asrwt>
<pdfrwt beam="1">  1        2 0.15661977E+00 0.45092476E+03</pdfrwt>
<pdfrwt beam="2">  1       -2 0.76820102E-02 0.45092476E+03</pdfrwt>
<totfact> 0.25850021E+03</totfact>
</mgrwt>
</event>
<event>
 4    1  0.8404100E-005  0.7046228E+03  0.7818608E-02  0.9709359E-01
         -2   -1    0    0    0  501 -0.00000000000E+00  0.00000000000E+00  0.60919636246E+02  0.60919636300E+02  0.25500000000E-02 0. -1.
          2   -1    0    0  501    0  0.00000000000E+00 -0.00000000000E+00 -0.20374926792E+04  0.20374926792E+04  0.25500000000E-02 0.  1.
    5000001    1    1    2    0    0  0.24879514059E+03  0.18706255626E+03 -0.99610414894E+03  0.10565698734E+04  0.16500000000E+03 0.  0.
   -5000001    1    1    2    0    0 -0.24879514059E+03 -0.18706255626E+03 -0.98046889396E+03  0.10418424420E+04  0.16500000000E+03 0.  0.
<mgrwt>
<rscale>  0 0.70462277E+03</rscale>
<asrwt>0</asrwt>
<pdfrwt beam="1">  1        2 0.31346036E+00 0.70462277E+03</pdfrwt>
<pdfrwt beam="2">  1       -2 0.93722533E-02 0.70462277E+03</pdfrwt>
<totfact> 0.49913279E+02</totfact>
</mgrwt>
</event>
<event>
 4    1  0.8404100E-005  0.5880602E+03  0.7818608E-02  0.9930492E-01
          2   -1    0    0  501    0  0.00000000000E+00  0.00000000000E+00  0.59888120955E+03  0.59888120956E+03  0.25500000000E-02 0.  1.
         -2   -1    0    0    0  501 -0.00000000000E+00 -0.00000000000E+00 -0.14435870109E+03  0.14435870111E+03  0.25500000000E-02 0. -1.
    5000001    1    1    2    0    0 -0.17475040804E+03  0.16861337216E+03  0.24766188952E+03  0.38409580302E+03  0.16500000000E+03 0.  0.
   -5000001    1    1    2    0    0  0.17475040804E+03 -0.16861337216E+03  0.20686061895E+03  0.35914410764E+03  0.16500000000E+03 0.  0.
<mgrwt>
<rscale>  0 0.58806025E+03</rscale>
<asrwt>0</asrwt>
<pdfrwt beam="1">  1        2 0.92135571E-01 0.58806025E+03</pdfrwt>
<pdfrwt beam="2">  1       -2 0.22209031E-01 0.58806025E+03</pdfrwt>
<totfact> 0.88513439E+02</totfact>
</mgrwt>
</event>
<event>
 4    1  0.8404100E-005  0.1098743E+04  0.7818608E-02  0.9206418E-01
          2   -1    0    0  501    0  0.00000000000E+00  0.00000000000E+00  0.17816239366E+04  0.17816239366E+04  0.25500000000E-02 0.  1.
         -2   -1    0    0    0  501 -0.00000000000E+00 -0.00000000000E+00 -0.16940100913E+03  0.16940100914E+03  0.25500000000E-02 0. -1.
    5000001    1    1    2    0    0  0.42899796278E+03  0.29443718450E+03  0.91630986207E+03  0.10665745501E+04  0.16500000000E+03 0.  0.
   -5000001    1    1    2    0    0 -0.42899796278E+03 -0.29443718450E+03  0.69591306539E+03  0.88445039559E+03  0.16500000000E+03 0.  0.
<mgrwt>
<rscale>  0 0.10987427E+04</rscale>
<asrwt>0</asrwt>
<pdfrwt beam="1">  1        2 0.27409598E+00 0.10987427E+04</pdfrwt>
<pdfrwt beam="2">  1       -2 0.26061695E-01 0.10987427E+04</pdfrwt>
<totfact> 0.11670916E+02</totfact>
</mgrwt>
</event>
<event>
 4    1  0.8404100E-005  0.4089971E+03  0.7818608E-02  0.1040708E+00
         -2   -1    0    0    0  501 -0.00000000000E+00  0.00000000000E+00  0.21615505072E+02  0.21615505223E+02  0.25500000000E-02 0. -1.
          2   -1    0    0  501    0  0.00000000000E+00 -0.00000000000E+00 -0.19347061432E+04  0.19347061432E+04  0.25500000000E-02 0.  1.
    5000001    1    1    2    0    0 -0.41178841138E+01 -0.11588078857E+03 -0.11187052905E+04  0.11367373668E+04  0.16500000000E+03 0.  0.
   -5000001    1    1    2    0    0  0.41178841138E+01  0.11588078857E+03 -0.79438534763E+03  0.81958428161E+03  0.16500000000E+03 0.  0.
<mgrwt>
<rscale>  0 0.40899707E+03</rscale>
<asrwt>0</asrwt>
<pdfrwt beam="1">  1        2 0.29764696E+00 0.40899707E+03</pdfrwt>
<pdfrwt beam="2">  1       -2 0.33254639E-02 0.40899707E+03</pdfrwt>
<totfact> 0.29046920E+03</totfact>
</mgrwt>
</event>
<event>
 4    1  0.8404100E-005  0.5956700E+03  0.7818608E-02  0.9914430E-01
          2   -1    0    0  501    0  0.00000000000E+00  0.00000000000E+00  0.36102149690E+03  0.36102149691E+03  0.25500000000E-02 0.  1.
         -2   -1    0    0    0  501 -0.00000000000E+00 -0.00000000000E+00 -0.24570745846E+03  0.24570745847E+03  0.25500000000E-02 0. -1.
    5000001    1    1    2    0    0  0.21902883757E+03 -0.37986553210E+02 -0.54218702710E+02  0.28210153782E+03  0.16500000000E+03 0.  0.
   -5000001    1    1    2    0    0 -0.21902883757E+03  0.37986553210E+02  0.16953274115E+03  0.32462741757E+03  0.16500000000E+03 0.  0.
<mgrwt>
<rscale>  0 0.59566996E+03</rscale>
<asrwt>0</asrwt>
<pdfrwt beam="1">  1        2 0.55541769E-01 0.59566996E+03</pdfrwt>
<pdfrwt beam="2">  1       -2 0.37801147E-01 0.59566996E+03</pdfrwt>
<totfact> 0.59355200E+02</totfact>
</mgrwt>
</event>
<event>
 4    1  0.8404100E-005  0.6245141E+03  0.7818608E-02  0.9855813E-01
          2   -1    0    0  501    0  0.00000000000E+00  0.00000000000E+00  0.53027006506E+03  0.53027006507E+03  0.25500000000E-02 0.  1.
         -2   -1    0    0    0  501 -0.00000000000E+00 -0.00000000000E+00 -0.18387698696E+03  0.18387698698E+03  0.25500000000E-02 0. -1.
    5000001    1    1    2    0    0  0.57947941339E+01 -0.21163567707E+03  0.35564591640E+03  0.44556958750E+03  0.16500000000E+03 0.  0.
   -5000001    1    1    2    0    0 -0.57947941339E+01  0.21163567707E+03 -0.92528382987E+01  0.26857746455E+03  0.16500000000E+03 0.  0.
<mgrwt>
<rscale>  0 0.62451409E+03</rscale>
<asrwt>0</asrwt>
<pdfrwt beam="1">  1        2 0.81580009E-01 0.62451409E+03</pdfrwt>
<pdfrwt beam="2">  1       -2 0.28288768E-01 0.62451409E+03</pdfrwt>
<totfact> 0.66095574E+02</totfact>
</mgrwt>
</event>
<event>
 4    1  0.8404100E-005  0.4907767E+03  0.7818608E-02  0.1016215E+00
         -2   -1    0    0    0  501 -0.00000000000E+00  0.00000000000E+00  0.34569723199E+02  0.34569723293E+02  0.25500000000E-02 0. -1.
          2   -1    0    0  501    0  0.00000000000E+00 -0.00000000000E+00 -0.17418547797E+04  0.17418547797E+04  0.25500000000E-02 0.  1.
    5000001    1    1    2    0    0  0.72592515748E+02  0.16157879631E+03 -0.99901684315E+03  0.10279285158E+04  0.16500000000E+03 0.  0.
   -5000001    1    1    2    0    0 -0.72592515748E+02 -0.16157879631E+03 -0.70826821337E+03  0.74849598719E+03  0.16500000000E+03 0.  0.
<mgrwt>
<rscale>  0 0.49077668E+03</rscale>
<asrwt>0</asrwt>
<pdfrwt beam="1">  1        2 0.26797759E+00 0.49077668E+03</pdfrwt>
<pdfrwt beam="2">  1       -2 0.53184203E-02 0.49077668E+03</pdfrwt>
<totfact> 0.17906968E+03</totfact>
</mgrwt>
</event>
<event>
 4    1  0.8404100E-005  0.6227045E+03  0.7818608E-02  0.9859390E-01
          2   -1    0    0  501    0  0.00000000000E+00  0.00000000000E+00  0.12135488313E+04  0.12135488313E+04  0.25500000000E-02 0.  1.
         -2   -1    0    0    0  501 -0.00000000000E+00 -0.00000000000E+00 -0.79881601735E+02  0.79881601775E+02  0.25500000000E-02 0. -1.
    5000001    1    1    2    0    0 -0.28029185993E+02 -0.23237482651E+03  0.31302099432E+03  0.42425327123E+03  0.16500000000E+03 0.  0.
   -5000001    1    1    2    0    0  0.28029185993E+02  0.23237482651E+03  0.82064623522E+03  0.86917716182E+03  0.16500000000E+03 0.  0.
<mgrwt>
<rscale>  0 0.62270450E+03</rscale>
<asrwt>0</asrwt>
<pdfrwt beam="1">  1        2 0.18669981E+00 0.62270450E+03</pdfrwt>
<pdfrwt beam="2">  1       -2 0.12289478E-01 0.62270450E+03</pdfrwt>
<totfact> 0.92015502E+02</totfact>
</mgrwt>
</event>
<event>
 4    1  0.8404100E-005  0.4876681E+03  0.7818608E-02  0.1017049E+00
         -2   -1    0    0    0  501 -0.00000000000E+00  0.00000000000E+00  0.69519466892E+02  0.69519466938E+02  0.25500000000E-02 0. -1.
          2   -1    0    0  501    0  0.00000000000E+00 -0.00000000000E+00 -0.85522879863E+03  0.85522879864E+03  0.25500000000E-02 0.  1.
    5000001    1    1    2    0    0  0.15032879667E+03  0.88272046341E+02 -0.47418100319E+03  0.53147278863E+03  0.16500000000E+03 0.  0.
   -5000001    1    1    2    0    0 -0.15032879667E+03 -0.88272046341E+02 -0.31152832855E+03  0.39327547694E+03  0.16500000000E+03 0.  0.
<mgrwt>
<rscale>  0 0.48766813E+03</rscale>
<asrwt>0</asrwt>
<pdfrwt beam="1">  1        2 0.13157365E+00 0.48766813E+03</pdfrwt>
<pdfrwt beam="2">  1       -2 0.10695303E-01 0.48766813E+03</pdfrwt>
<totfact> 0.19410909E+03</totfact>
</mgrwt>
</event>
<event>
 4    1  0.8404100E-005  0.8159495E+03  0.7818608E-02  0.9537214E-01
         -2   -1    0    0    0  501 -0.00000000000E+00  0.00000000000E+00  0.53025263556E+02  0.53025263617E+02  0.25500000000E-02 0. -1.
          2   -1    0    0  501    0  0.00000000000E+00 -0.00000000000E+00 -0.31389448998E+04  0.31389448998E+04  0.25500000000E-02 0.  1.
    5000001    1    1    2    0    0  0.20547838499E+03  0.26877683442E+03 -0.92744850507E+03  0.10009236150E+04  0.16500000000E+03 0.  0.
   -5000001    1    1    2    0    0 -0.20547838499E+03 -0.26877683442E+03 -0.21584711312E+04  0.21910465485E+04  0.16500000000E+03 0.  0.
<mgrwt>
<rscale>  0 0.81594946E+03</rscale>
<asrwt>0</asrwt>
<pdfrwt beam="1">  1        2 0.48291445E+00 0.81594946E+03</pdfrwt>
<pdfrwt beam="2">  1       -2 0.81577353E-02 0.81594946E+03</pdfrwt>
<totfact> 0.14258717E+02</totfact>
</mgrwt>
</event>
<event>
 4    1  0.8404100E-005  0.5863439E+03  0.7818608E-02  0.9934150E-01
         -2   -1    0    0    0  501 -0.00000000000E+00  0.00000000000E+00  0.47683725086E+02  0.47683725154E+02  0.25500000000E-02 0. -1.
          2   -1    0    0  501    0  0.00000000000E+00 -0.00000000000E+00 -0.18024975651E+04  0.18024975651E+04  0.25500000000E-02 0.  1.
    5000001    1    1    2    0    0  0.21488698742E+03 -0.96878760321E+01 -0.52525872886E+03  0.59109390501E+03  0.16500000000E+03 0.  0.
   -5000001    1    1    2    0    0 -0.21488698742E+03  0.96878760321E+01 -0.12295551111E+04  0.12590873852E+04  0.16500000000E+03 0.  0.
<mgrwt>
<rscale>  0 0.58634392E+03</rscale>
<asrwt>0</asrwt>
<pdfrwt beam="1">  1        2 0.27730727E+00 0.58634392E+03</pdfrwt>
<pdfrwt beam="2">  1       -2 0.73359591E-02 0.58634392E+03</pdfrwt>
<totfact> 0.99864052E+02</totfact>
</mgrwt>
</event>
<event>
 4    1  0.8404100E-005  0.6247795E+03  0.7818608E-02  0.9855289E-01
         -2   -1    0    0    0  501 -0.00000000000E+00  0.00000000000E+00  0.37466997755E+02  0.37466997842E+02  0.25500000000E-02 0. -1.
          2   -1    0    0  501    0  0.00000000000E+00 -0.00000000000E+00 -0.26046217427E+04  0.26046217427E+04  0.25500000000E-02 0.  1.
    5000001    1    1    2    0    0 -0.18019821502E+03 -0.30807572545E+02 -0.47078434477E+03  0.53130349378E+03  0.16500000000E+03 0.  0.
   -5000001    1    1    2    0    0  0.18019821502E+03  0.30807572545E+02 -0.20963704002E+04  0.21107852467E+04  0.16500000000E+03 0.  0.
<mgrwt>
<rscale>  0 0.62477950E+03</rscale>
<asrwt>0</asrwt>
<pdfrwt beam="1">  1        2 0.40071090E+00 0.62477950E+03</pdfrwt>
<pdfrwt beam="2">  1       -2 0.57641555E-02 0.62477950E+03</pdfrwt>
<totfact> 0.52666342E+02</totfact>
</mgrwt>
</event>
<event>
 4    1  0.8404100E-005  0.5923421E+03  0.7818608E-02  0.9921422E-01
         -2   -1    0    0    0  501 -0.00000000000E+00  0.00000000000E+00  0.11621017994E+03  0.11621017996E+03  0.25500000000E-02 0. -1.
          2   -1    0    0  501    0  0.00000000000E+00 -0.00000000000E+00 -0.75481591257E+03  0.75481591258E+03  0.25500000000E-02 0.  1.
    5000001    1    1    2    0    0  0.85471622269E+02 -0.15555487328E+03 -0.68934478832E+02  0.25195173979E+03  0.16500000000E+03 0.  0.
   -5000001    1    1    2    0    0 -0.85471622269E+02  0.15555487328E+03 -0.56967125380E+03  0.61907435274E+03  0.16500000000E+03 0.  0.
<mgrwt>
<rscale>  0 0.59234211E+03</rscale>
<asrwt>0</asrwt>
<pdfrwt beam="1">  1        2 0.11612552E+00 0.59234211E+03</pdfrwt>
<pdfrwt beam="2">  1       -2 0.17878490E-01 0.59234211E+03</pdfrwt>
<totfact> 0.96962492E+02</totfact>
</mgrwt>
</event>
<event>
 4    1  0.8404100E-005  0.6418420E+03  0.7818608E-02  0.9822209E-01
          2   -1    0    0  501    0  0.00000000000E+00  0.00000000000E+00  0.83025563653E+02  0.83025563692E+02  0.25500000000E-02 0.  1.
         -2   -1    0    0    0  501 -0.00000000000E+00 -0.00000000000E+00 -0.12404648960E+04  0.12404648960E+04  0.25500000000E-02 0. -1.
    5000001    1    1    2    0    0 -0.52287357291E+02  0.22041604140E+03 -0.25630469187E+03  0.37978190335E+03  0.16500000000E+03 0.  0.
   -5000001    1    1    2    0    0  0.52287357291E+02 -0.22041604140E+03 -0.90113464044E+03  0.94370855631E+03  0.16500000000E+03 0.  0.
<mgrwt>
<rscale>  0 0.64184203E+03</rscale>
<asrwt>0</asrwt>
<pdfrwt beam="1">  1        2 0.12773165E-01 0.64184203E+03</pdfrwt>
<pdfrwt beam="2">  1       -2 0.19084074E+00 0.64184203E+03</pdfrwt>
<totfact> 0.76375593E+01</totfact>
</mgrwt>
</event>
<event>
 4    1  0.8404100E-005  0.4763312E+03  0.7818608E-02  0.1020148E+00
          2   -1    0    0  501    0  0.00000000000E+00  0.00000000000E+00  0.90955811288E+03  0.90955811289E+03  0.25500000000E-02 0.  1.
         -2   -1    0    0    0  501 -0.00000000000E+00 -0.00000000000E+00 -0.62363097351E+02  0.62363097403E+02  0.25500000000E-02 0. -1.
    5000001    1    1    2    0    0  0.81622521776E+02  0.15103497148E+03  0.41358846954E+03  0.47723602212E+03  0.16500000000E+03 0.  0.
   -5000001    1    1    2    0    0 -0.81622521776E+02 -0.15103497148E+03  0.43360654599E+03  0.49468518817E+03  0.16500000000E+03 0.  0.
<mgrwt>
<rscale>  0 0.47633123E+03</rscale>
<asrwt>0</asrwt>
<pdfrwt beam="1">  1        2 0.13993201E+00 0.47633123E+03</pdfrwt>
<pdfrwt beam="2">  1       -2 0.95943233E-02 0.47633123E+03</pdfrwt>
<totfact> 0.21276619E+03</totfact>
</mgrwt>
</event>
<event>
 4    1  0.8404100E-005  0.6075999E+03  0.7818608E-02  0.9889763E-01
          2   -1    0    0  501    0  0.00000000000E+00  0.00000000000E+00  0.12816866841E+03  0.12816866843E+03  0.25500000000E-02 0.  1.
         -2   -1    0    0    0  501 -0.00000000000E+00 -0.00000000000E+00 -0.72010124611E+03  0.72010124612E+03  0.25500000000E-02 0. -1.
    5000001    1    1    2    0    0  0.24087189313E+03 -0.23550739641E+02 -0.18344802229E+03  0.34561840680E+03  0.16500000000E+03 0.  0.
   -5000001    1    1    2    0    0 -0.24087189313E+03  0.23550739641E+02 -0.40848455541E+03  0.50265150775E+03  0.16500000000E+03 0.  0.
<mgrwt>
<rscale>  0 0.60759993E+03</rscale>
<asrwt>0</asrwt>
<pdfrwt beam="1">  1        2 0.19718257E-01 0.60759993E+03</pdfrwt>
<pdfrwt beam="2">  1       -2 0.11078480E+00 0.60759993E+03</pdfrwt>
<totfact> 0.18897672E+02</totfact>
</mgrwt>
</event>
<event>
 4    1  0.8404100E-005  0.3887962E+03  0.7818608E-02  0.1047730E+00
         -2   -1    0    0    0  501 -0.00000000000E+00  0.00000000000E+00  0.37614210799E+02  0.37614210885E+02  0.25500000000E-02 0. -1.
          2   -1    0    0  501    0  0.00000000000E+00 -0.00000000000E+00 -0.10046899392E+04  0.10046899392E+04  0.25500000000E-02 0.  1.
    5000001    1    1    2    0    0  0.37795456500E+02  0.26116365710E+01 -0.22737566717E+03  0.28347841399E+03  0.16500000000E+03 0.  0.
   -5000001    1    1    2    0    0 -0.37795456500E+02 -0.26116365710E+01 -0.73970006118E+03  0.75882573605E+03  0.16500000000E+03 0.  0.
<mgrwt>
<rscale>  0 0.38879619E+03</rscale>
<asrwt>0</asrwt>
<pdfrwt beam="1">  1        2 0.15456766E+00 0.38879619E+03</pdfrwt>
<pdfrwt beam="2">  1       -2 0.57868024E-02 0.38879619E+03</pdfrwt>
<totfact> 0.40992433E+03</totfact>
</mgrwt>
</event>
<event>
 4    1  0.8404100E-005  0.3867181E+03  0.7818608E-02  0.1048478E+00
         -2   -1    0    0    0  501 -0.00000000000E+00  0.00000000000E+00  0.23293092378E+03  0.23293092380E+03  0.25500000000E-02 0. -1.
          2   -1    0    0  501    0  0.00000000000E+00 -0.00000000000E+00 -0.16050988853E+03  0.16050988855E+03  0.25500000000E-02 0.  1.
    5000001    1    1    2    0    0  0.67030206700E+02 -0.28211389312E+02 -0.34815611732E+02  0.18364655705E+03  0.16500000000E+03 0.  0.
   -5000001    1    1    2    0    0 -0.67030206700E+02  0.28211389312E+02  0.10723664698E+03  0.20979425529E+03  0.16500000000E+03 0.  0.
<mgrwt>
<rscale>  0 0.38671807E+03</rscale>
<asrwt>0</asrwt>
<pdfrwt beam="1">  1        2 0.24693829E-01 0.38671807E+03</pdfrwt>
<pdfrwt beam="2">  1       -2 0.35835527E-01 0.38671807E+03</pdfrwt>
<totfact> 0.16134692E+03</totfact>
</mgrwt>
</event>
<event>
 4    1  0.8404100E-005  0.7684929E+03  0.7818608E-02  0.9606776E-01
          2   -1    0    0  501    0  0.00000000000E+00  0.00000000000E+00  0.23373649587E+04  0.23373649587E+04  0.25500000000E-02 0.  1.
         -2   -1    0    0    0  501 -0.00000000000E+00 -0.00000000000E+00 -0.63167432538E+02  0.63167432590E+02  0.25500000000E-02 0. -1.
    5000001    1    1    2    0    0 -0.69772345221E+02  0.11897540579E+03  0.14242586472E+03  0.25794079608E+03  0.16500000000E+03 0.  0.
   -5000001    1    1    2    0    0  0.69772345221E+02 -0.11897540579E+03  0.21317716615E+04  0.21425915953E+04  0.16500000000E+03 0.  0.
<mgrwt>
<rscale>  0 0.76849292E+03</rscale>
<asrwt>0</asrwt>
<pdfrwt beam="1">  1        2 0.35959454E+00 0.76849292E+03</pdfrwt>
<pdfrwt beam="2">  1       -2 0.97180684E-02 0.76849292E+03</pdfrwt>
<totfact> 0.32014174E+02</totfact>
</mgrwt>
</event>
<event>
 4    1  0.8404100E-005  0.4400867E+03  0.7818608E-02  0.1030720E+00
          2   -1    0    0  501    0  0.00000000000E+00  0.00000000000E+00  0.81292568040E+03  0.81292568040E+03  0.25500000000E-02 0.  1.
         -2   -1    0    0    0  501 -0.00000000000E+00 -0.00000000000E+00 -0.59561512532E+02  0.59561512586E+02  0.25500000000E-02 0. -1.
    5000001    1    1    2    0    0  0.89473905128E+02 -0.11455171849E+03  0.36052628545E+03  0.42229359267E+03  0.16500000000E+03 0.  0.
   -5000001    1    1    2    0    0 -0.89473905128E+02  0.11455171849E+03  0.39283788241E+03  0.45019360032E+03  0.16500000000E+03 0.  0.
<mgrwt>
<rscale>  0 0.44008673E+03</rscale>
<asrwt>0</asrwt>
<pdfrwt beam="1">  1        2 0.12506550E+00 0.44008673E+03</pdfrwt>
<pdfrwt beam="2">  1       -2 0.91633092E-02 0.44008673E+03</pdfrwt>
<totfact> 0.26624278E+03</totfact>
</mgrwt>
</event>
<event>
 4    1  0.8404100E-005  0.7685934E+03  0.7818608E-02  0.9606623E-01
          2   -1    0    0  501    0  0.00000000000E+00  0.00000000000E+00  0.76248469033E+03  0.76248469033E+03  0.25500000000E-02 0.  1.
         -2   -1    0    0    0  501 -0.00000000000E+00 -0.00000000000E+00 -0.19368777743E+03  0.19368777744E+03  0.25500000000E-02 0. -1.
    5000001    1    1    2    0    0  0.26192328648E+02 -0.28926050915E+03  0.52077310480E+03  0.61869807411E+03  0.16500000000E+03 0.  0.
   -5000001    1    1    2    0    0 -0.26192328648E+02  0.28926050915E+03  0.48023808106E+02  0.33747439366E+03  0.16500000000E+03 0.  0.
<mgrwt>
<rscale>  0 0.76859343E+03</rscale>
<asrwt>0</asrwt>
<pdfrwt beam="1">  1        2 0.11730534E+00 0.76859343E+03</pdfrwt>
<pdfrwt beam="2">  1       -2 0.29798120E-01 0.76859343E+03</pdfrwt>
<totfact> 0.38302799E+02</totfact>
</mgrwt>
</event>
<event>
 4    1  0.8404100E-005  0.6428447E+03  0.7818608E-02  0.9820299E-01
          2   -1    0    0  501    0  0.00000000000E+00  0.00000000000E+00  0.18796611114E+04  0.18796611114E+04  0.25500000000E-02 0.  1.
         -2   -1    0    0    0  501 -0.00000000000E+00 -0.00000000000E+00 -0.54963267017E+02  0.54963267076E+02  0.25500000000E-02 0. -1.
    5000001    1    1    2    0    0  0.25044405844E+03 -0.11309749987E+03  0.98445360710E+03  0.10353198421E+04  0.16500000000E+03 0.  0.
   -5000001    1    1    2    0    0 -0.25044405844E+03  0.11309749987E+03  0.84024423725E+03  0.89930453636E+03  0.16500000000E+03 0.  0.
<mgrwt>
<rscale>  0 0.64284466E+03</rscale>
<asrwt>0</asrwt>
<pdfrwt beam="1">  1        2 0.28917856E+00 0.64284466E+03</pdfrwt>
<pdfrwt beam="2">  1       -2 0.84558894E-02 0.64284466E+03</pdfrwt>
<totfact> 0.72079969E+02</totfact>
</mgrwt>
</event>
<event>
 4    1  0.8404100E-005  0.1058995E+04  0.7818608E-02  0.9246106E-01
         -2   -1    0    0    0  501 -0.00000000000E+00  0.00000000000E+00  0.27558100916E+03  0.27558100917E+03  0.25500000000E-02 0. -1.
          2   -1    0    0  501    0  0.00000000000E+00 -0.00000000000E+00 -0.10173700222E+04  0.10173700222E+04  0.25500000000E-02 0.  1.
    5000001    1    1    2    0    0  0.20811170400E+03  0.45105648005E+03 -0.46841881318E+03  0.70242694572E+03  0.16500000000E+03 0.  0.
   -5000001    1    1    2    0    0 -0.20811170400E+03 -0.45105648005E+03 -0.27337019984E+03  0.59052408562E+03  0.16500000000E+03 0.  0.
<mgrwt>
<rscale>  0 0.10589955E+04</rscale>
<asrwt>0</asrwt>
<pdfrwt beam="1">  1        2 0.15651846E+00 0.10589955E+04</pdfrwt>
<pdfrwt beam="2">  1       -2 0.42397079E-01 0.10589955E+04</pdfrwt>
<totfact> 0.12876024E+02</totfact>
</mgrwt>
</event>
<event>
 4    1  0.8404100E-005  0.3731684E+03  0.7818608E-02  0.1053488E+00
          2   -1    0    0  501    0  0.00000000000E+00  0.00000000000E+00  0.25390885819E+04  0.25390885819E+04  0.25500000000E-02 0.  1.
         -2   -1    0    0    0  501 -0.00000000000E+00 -0.00000000000E+00 -0.13711084251E+02  0.13711084488E+02  0.25500000000E-02 0. -1.
    5000001    1    1    2    0    0 -0.19804436286E+01 -0.80544502978E+02  0.10360791553E+04  0.10522244794E+04  0.16500000000E+03 0.  0.
   -5000001    1    1    2    0    0  0.19804436286E+01  0.80544502978E+02  0.14892983424E+04  0.15005751870E+04  0.16500000000E+03 0.  0.
<mgrwt>
<rscale>  0 0.37316837E+03</rscale>
<asrwt>0</asrwt>
<pdfrwt beam="1">  1        2 0.39062892E+00 0.37316837E+03</pdfrwt>
<pdfrwt beam="2">  1       -2 0.21093981E-02 0.37316837E+03</pdfrwt>
<totfact> 0.27075836E+03</totfact>
</mgrwt>
</event>
<event>
 4    1  0.8404100E-005  0.5415858E+03  0.7818608E-02  0.1003460E+00
         -2   -1    0    0    0  501 -0.00000000000E+00  0.00000000000E+00  0.13920546700E+03  0.13920546703E+03  0.25500000000E-02 0. -1.
          2   -1    0    0  501    0  0.00000000000E+00 -0.00000000000E+00 -0.52676660425E+03  0.52676660425E+03  0.25500000000E-02 0.  1.
    5000001    1    1    2    0    0  0.95638097734E+02 -0.17104211206E+03 -0.30169591825E+03  0.39578716114E+03  0.16500000000E+03 0.  0.
   -5000001    1    1    2    0    0 -0.95638097734E+02  0.17104211206E+03 -0.85865218994E+02  0.27018491014E+03  0.16500000000E+03 0.  0.
<mgrwt>
<rscale>  0 0.54158579E+03</rscale>
<asrwt>0</asrwt>
<pdfrwt beam="1">  1        2 0.81041015E-01 0.54158579E+03</pdfrwt>
<pdfrwt beam="2">  1       -2 0.21416226E-01 0.54158579E+03</pdfrwt>
<totfact> 0.10981259E+03</totfact>
</mgrwt>
</event>
<event>
 4    1  0.8404100E-005  0.3970720E+03  0.7818608E-02  0.1044798E+00
         -2   -1    0    0    0  501 -0.00000000000E+00  0.00000000000E+00  0.15694923728E+03  0.15694923730E+03  0.25500000000E-02 0. -1.
          2   -1    0    0  501    0  0.00000000000E+00 -0.00000000000E+00 -0.25114197372E+03  0.25114197373E+03  0.25500000000E-02 0.  1.
    5000001    1    1    2    0    0  0.72606636535E+02 -0.82035058766E+02 -0.61265426964E+02  0.20731600777E+03  0.16500000000E+03 0.  0.
   -5000001    1    1    2    0    0 -0.72606636535E+02  0.82035058766E+02 -0.32927309478E+02  0.20077520326E+03  0.16500000000E+03 0.  0.
<mgrwt>
<rscale>  0 0.39707199E+03</rscale>
<asrwt>0</asrwt>
<pdfrwt beam="1">  1        2 0.38637227E-01 0.39707199E+03</pdfrwt>
<pdfrwt beam="2">  1       -2 0.24146036E-01 0.39707199E+03</pdfrwt>
<totfact> 0.20198381E+03</totfact>
</mgrwt>
</event>
<event>
 4    1  0.8404100E-005  0.5471357E+03  0.7818608E-02  0.1002159E+00
          2   -1    0    0  501    0  0.00000000000E+00  0.00000000000E+00  0.96471144951E+03  0.96471144951E+03  0.25500000000E-02 0.  1.
         -2   -1    0    0    0  501 -0.00000000000E+00 -0.00000000000E+00 -0.77576953176E+02  0.77576953218E+02  0.25500000000E-02 0. -1.
    5000001    1    1    2    0    0 -0.43646615537E+02  0.20491087222E+03  0.55976983713E+03  0.62004900061E+03  0.16500000000E+03 0.  0.
   -5000001    1    1    2    0    0  0.43646615537E+02 -0.20491087222E+03  0.32736465920E+03  0.42223940211E+03  0.16500000000E+03 0.  0.
<mgrwt>
<rscale>  0 0.54713572E+03</rscale>
<asrwt>0</asrwt>
<pdfrwt beam="1">  1        2 0.14841714E+00 0.54713572E+03</pdfrwt>
<pdfrwt beam="2">  1       -2 0.11934916E-01 0.54713572E+03</pdfrwt>
<totfact> 0.13729909E+03</totfact>
</mgrwt>
</event>
<event>
 4    1  0.8404100E-005  0.4241706E+03  0.7818608E-02  0.1035717E+00
          2   -1    0    0  501    0  0.00000000000E+00  0.00000000000E+00  0.12207593541E+04  0.12207593541E+04  0.25500000000E-02 0.  1.
         -2   -1    0    0    0  501 -0.00000000000E+00 -0.00000000000E+00 -0.36846054724E+02  0.36846054812E+02  0.25500000000E-02 0. -1.
    5000001    1    1    2    0    0 -0.13095070649E+03 -0.22073271718E+02  0.55949867713E+03  0.59824667702E+03  0.16500000000E+03 0.  0.
   -5000001    1    1    2    0    0  0.13095070649E+03  0.22073271718E+02  0.62441462227E+03  0.65935873192E+03  0.16500000000E+03 0.  0.
<mgrwt>
<rscale>  0 0.42417056E+03</rscale>
<asrwt>0</asrwt>
<pdfrwt beam="1">  1        2 0.18780915E+00 0.42417056E+03</pdfrwt>
<pdfrwt beam="2">  1       -2 0.56686232E-02 0.42417056E+03</pdfrwt>
<totfact> 0.31475516E+03</totfact>
</mgrwt>
</event>
<event>
 4    1  0.8404100E-005  0.5387461E+03  0.7818608E-02  0.1004133E+00
         -2   -1    0    0    0  501 -0.00000000000E+00  0.00000000000E+00  0.75091491920E+02  0.75091491963E+02  0.25500000000E-02 0. -1.
          2   -1    0    0  501    0  0.00000000000E+00 -0.00000000000E+00 -0.96631230627E+03  0.96631230628E+03  0.25500000000E-02 0.  1.
    5000001    1    1    2    0    0  0.70599194118E+02 -0.20086854183E+03 -0.44967224730E+03  0.52417797293E+03  0.16500000000E+03 0.  0.
   -5000001    1    1    2    0    0 -0.70599194118E+02  0.20086854183E+03 -0.44154856705E+03  0.51722582531E+03  0.16500000000E+03 0.  0.
<mgrwt>
<rscale>  0 0.53874607E+03</rscale>
<asrwt>0</asrwt>
<pdfrwt beam="1">  1        2 0.14866342E+00 0.53874607E+03</pdfrwt>
<pdfrwt beam="2">  1       -2 0.11552538E-01 0.53874607E+03</pdfrwt>
<totfact> 0.14451183E+03</totfact>
</mgrwt>
</event>
<event>
 4    1  0.8404100E-005  0.7265575E+03  0.7818608E-02  0.9672863E-01
         -2   -1    0    0    0  501 -0.00000000000E+00  0.00000000000E+00  0.73299139245E+03  0.73299139245E+03  0.25500000000E-02 0. -1.
          2   -1    0    0  501    0  0.00000000000E+00 -0.00000000000E+00 -0.18004501744E+03  0.18004501746E+03  0.25500000000E-02 0.  1.
    5000001    1    1    2    0    0 -0.17585561821E+03 -0.20868761656E+03  0.57833224676E+02  0.32410708360E+03  0.16500000000E+03 0.  0.
   -5000001    1    1    2    0    0  0.17585561821E+03  0.20868761656E+03  0.49511315033E+03  0.58892932631E+03  0.16500000000E+03 0.  0.
<mgrwt>
<rscale>  0 0.72655749E+03</rscale>
<asrwt>0</asrwt>
<pdfrwt beam="1">  1        2 0.27699233E-01 0.72655749E+03</pdfrwt>
<pdfrwt beam="2">  1       -2 0.11276791E+00 0.72655749E+03</pdfrwt>
<totfact> 0.12171919E+02</totfact>
</mgrwt>
</event>
<event>
 4    1  0.8404100E-005  0.4881497E+03  0.7818608E-02  0.1016919E+00
          2   -1    0    0  501    0  0.00000000000E+00  0.00000000000E+00  0.55874743331E+03  0.55874743331E+03  0.25500000000E-02 0.  1.
         -2   -1    0    0    0  501 -0.00000000000E+00 -0.00000000000E+00 -0.10661801161E+03  0.10661801164E+03  0.25500000000E-02 0. -1.
    5000001    1    1    2    0    0  0.12814700507E+03  0.10500996450E+03  0.32146544611E+03  0.39750947233E+03  0.16500000000E+03 0.  0.
   -5000001    1    1    2    0    0 -0.12814700507E+03 -0.10500996450E+03  0.13066397559E+03  0.26785597262E+03  0.16500000000E+03 0.  0.
<mgrwt>
<rscale>  0 0.48814973E+03</rscale>
<asrwt>0</asrwt>
<pdfrwt beam="1">  1        2 0.85961147E-01 0.48814973E+03</pdfrwt>
<pdfrwt beam="2">  1       -2 0.16402770E-01 0.48814973E+03</pdfrwt>
<totfact> 0.16234967E+03</totfact>
</mgrwt>
</event>
<event>
 4    1  0.8404100E-005  0.5062630E+03  0.7818608E-02  0.1012157E+00
          2   -1    0    0  501    0  0.00000000000E+00  0.00000000000E+00  0.94312284523E+02  0.94312284557E+02  0.25500000000E-02 0.  1.
         -2   -1    0    0    0  501 -0.00000000000E+00 -0.00000000000E+00 -0.67939764662E+03  0.67939764663E+03  0.25500000000E-02 0. -1.
    5000001    1    1    2    0    0  0.16014636359E+03 -0.94243761875E+02 -0.21890257527E+03  0.33116775489E+03  0.16500000000E+03 0.  0.
   -5000001    1    1    2    0    0 -0.16014636359E+03  0.94243761875E+02 -0.36618278683E+03  0.44254217629E+03  0.16500000000E+03 0.  0.
<mgrwt>
<rscale>  0 0.50626295E+03</rscale>
<asrwt>0</asrwt>
<pdfrwt beam="1">  1        2 0.14509583E-01 0.50626295E+03</pdfrwt>
<pdfrwt beam="2">  1       -2 0.10452271E+00 0.50626295E+03</pdfrwt>
<totfact> 0.31410983E+02</totfact>
</mgrwt>
</event>
<event>
 4    1  0.8404100E-005  0.6130091E+03  0.7818608E-02  0.9878778E-01
          2   -1    0    0  501    0  0.00000000000E+00  0.00000000000E+00  0.56782676474E+03  0.56782676475E+03  0.25500000000E-02 0.  1.
         -2   -1    0    0    0  501 -0.00000000000E+00 -0.00000000000E+00 -0.16544666467E+03  0.16544666469E+03  0.25500000000E-02 0. -1.
    5000001    1    1    2    0    0 -0.43125004387E-02 -0.17902044426E+03  0.42392416399E+03  0.48886093759E+03  0.16500000000E+03 0.  0.
   -5000001    1    1    2    0    0  0.43125004387E-02  0.17902044426E+03 -0.21544063925E+02  0.24441249185E+03  0.16500000000E+03 0.  0.
<mgrwt>
<rscale>  0 0.61300912E+03</rscale>
<asrwt>0</asrwt>
<pdfrwt beam="1">  1        2 0.87357964E-01 0.61300912E+03</pdfrwt>
<pdfrwt beam="2">  1       -2 0.25453333E-01 0.61300912E+03</pdfrwt>
<totfact> 0.73909728E+02</totfact>
</mgrwt>
</event>
<event>
 4    1  0.8404100E-005  0.5400260E+03  0.7818608E-02  0.1003829E+00
          2   -1    0    0  501    0  0.00000000000E+00  0.00000000000E+00  0.27459105179E+04  0.27459105179E+04  0.25500000000E-02 0.  1.
         -2   -1    0    0    0  501 -0.00000000000E+00 -0.00000000000E+00 -0.26551129161E+02  0.26551129283E+02  0.25500000000E-02 0. -1.
    5000001    1    1    2    0    0 -0.67016819784E+02 -0.17639987738E+03  0.18749661080E+04  0.18916477148E+04  0.16500000000E+03 0.  0.
   -5000001    1    1    2    0    0  0.67016819784E+02  0.17639987738E+03  0.84439328077E+03  0.88081393238E+03  0.16500000000E+03 0.  0.
<mgrwt>
<rscale>  0 0.54002602E+03</rscale>
<asrwt>0</asrwt>
<pdfrwt beam="1">  1        2 0.42244752E+00 0.54002602E+03</pdfrwt>
<pdfrwt beam="2">  1       -2 0.40847916E-02 0.54002602E+03</pdfrwt>
<totfact> 0.75061679E+02</totfact>
</mgrwt>
</event>
<event>
 4    1  0.8404100E-005  0.4352641E+03  0.7818608E-02  0.1032210E+00
         -2   -1    0    0    0  501 -0.00000000000E+00  0.00000000000E+00  0.21197241633E+03  0.21197241634E+03  0.25500000000E-02 0. -1.
          2   -1    0    0  501    0  0.00000000000E+00 -0.00000000000E+00 -0.22344280887E+03  0.22344280889E+03  0.25500000000E-02 0.  1.
    5000001    1    1    2    0    0  0.12654814964E+03  0.63753323389E+02 -0.13470389741E+02  0.21791138525E+03  0.16500000000E+03 0.  0.
   -5000001    1    1    2    0    0 -0.12654814964E+03 -0.63753323389E+02  0.19999971963E+01  0.21750383999E+03  0.16500000000E+03 0.  0.
<mgrwt>
<rscale>  0 0.43526411E+03</rscale>
<asrwt>0</asrwt>
<pdfrwt beam="1">  1        2 0.34375816E-01 0.43526411E+03</pdfrwt>
<pdfrwt beam="2">  1       -2 0.32611141E-01 0.43526411E+03</pdfrwt>
<totfact> 0.13323616E+03</totfact>
</mgrwt>
</event>
<event>
 4    1  0.8404100E-005  0.6016926E+03  0.7818608E-02  0.9901901E-01
          2   -1    0    0  501    0  0.00000000000E+00  0.00000000000E+00  0.93116484443E+03  0.93116484444E+03  0.25500000000E-02 0.  1.
         -2   -1    0    0    0  501 -0.00000000000E+00 -0.00000000000E+00 -0.97199225689E+02  0.97199225722E+02  0.25500000000E-02 0. -1.
    5000001    1    1    2    0    0 -0.14628364495E+03  0.17930076971E+03  0.24834353460E+03  0.37742175610E+03  0.16500000000E+03 0.  0.
   -5000001    1    1    2    0    0  0.14628364495E+03 -0.17930076971E+03  0.58562208415E+03  0.65094231406E+03  0.16500000000E+03 0.  0.
<mgrwt>
<rscale>  0 0.60169262E+03</rscale>
<asrwt>0</asrwt>
<pdfrwt beam="1">  1        2 0.14325614E+00 0.60169262E+03</pdfrwt>
<pdfrwt beam="2">  1       -2 0.14953726E-01 0.60169262E+03</pdfrwt>
<totfact> 0.99093203E+02</totfact>
</mgrwt>
</event>
<event>
 4    1  0.8404100E-005  0.5340390E+03  0.7818608E-02  0.1005257E+00
         -2   -1    0    0    0  501 -0.00000000000E+00  0.00000000000E+00  0.17566504479E+02  0.17566504665E+02  0.25500000000E-02 0. -1.
          2   -1    0    0  501    0  0.00000000000E+00 -0.00000000000E+00 -0.40588272036E+04  0.40588272036E+04  0.25500000000E-02 0.  1.
    5000001    1    1    2    0    0  0.18731208250E+03 -0.14675482660E+01 -0.12970330648E+04  0.13208360009E+04  0.16500000000E+03 0.  0.
   -5000001    1    1    2    0    0 -0.18731208250E+03  0.14675482660E+01 -0.27442276342E+04  0.27555577073E+04  0.16500000000E+03 0.  0.
<mgrwt>
<rscale>  0 0.53403897E+03</rscale>
<asrwt>0</asrwt>
<pdfrwt beam="1">  1        2 0.62443421E+00 0.53403897E+03</pdfrwt>
<pdfrwt beam="2">  1       -2 0.27025424E-02 0.53403897E+03</pdfrwt>
<totfact> 0.18618929E+02</totfact>
</mgrwt>
</event>
<event>
 4    1  0.8404100E-005  0.5003586E+03  0.7818608E-02  0.1013685E+00
         -2   -1    0    0    0  501 -0.00000000000E+00  0.00000000000E+00  0.27734248033E+02  0.27734248151E+02  0.25500000000E-02 0. -1.
          2   -1    0    0  501    0  0.00000000000E+00 -0.00000000000E+00 -0.22567652799E+04  0.22567652799E+04  0.25500000000E-02 0.  1.
    5000001    1    1    2    0    0  0.16025611815E+03 -0.69668314206E+02 -0.79723904226E+03  0.83267688086E+03  0.16500000000E+03 0.  0.
   -5000001    1    1    2    0    0 -0.16025611815E+03  0.69668314206E+02 -0.14317919896E+04  0.14518226472E+04  0.16500000000E+03 0.  0.
<mgrwt>
<rscale>  0 0.50035862E+03</rscale>
<asrwt>0</asrwt>
<pdfrwt beam="1">  1        2 0.34719451E+00 0.50035862E+03</pdfrwt>
<pdfrwt beam="2">  1       -2 0.42668092E-02 0.50035862E+03</pdfrwt>
<totfact> 0.13258280E+03</totfact>
</mgrwt>
</event>
<event>
 4    1  0.8404100E-005  0.4159877E+03  0.7818608E-02  0.1038380E+00
          2   -1    0    0  501    0  0.00000000000E+00  0.00000000000E+00  0.18571393763E+04  0.18571393763E+04  0.25500000000E-02 0.  1.
         -2   -1    0    0    0  501 -0.00000000000E+00 -0.00000000000E+00 -0.23294671485E+02  0.23294671624E+02  0.25500000000E-02 0. -1.
    5000001    1    1    2    0    0 -0.85511661595E+02  0.89204377696E+02  0.79174815798E+03  0.81814412601E+03  0.16500000000E+03 0.  0.
   -5000001    1    1    2    0    0  0.85511661595E+02 -0.89204377696E+02  0.10420965469E+04  0.10622899220E+04  0.16500000000E+03 0.  0.
<mgrwt>
<rscale>  0 0.41598775E+03</rscale>
<asrwt>0</asrwt>
<pdfrwt beam="1">  1        2 0.28571380E+00 0.41598775E+03</pdfrwt>
<pdfrwt beam="2">  1       -2 0.35837950E-02 0.41598775E+03</pdfrwt>
<totfact> 0.28522634E+03</totfact>
</mgrwt>
</event>
<event>
 4    1  0.8404100E-005  0.4588973E+03  0.7818608E-02  0.1025102E+00
         -2   -1    0    0    0  501 -0.00000000000E+00  0.00000000000E+00  0.13227595661E+03  0.13227595663E+03  0.25500000000E-02 0. -1.
          2   -1    0    0  501    0  0.00000000000E+00 -0.00000000000E+00 -0.39800652295E+03  0.39800652295E+03  0.25500000000E-02 0.  1.
    5000001    1    1    2    0    0  0.10191997169E+03  0.11707127747E+03 -0.90749532336E+02  0.24403655927E+03  0.16500000000E+03 0.  0.
   -5000001    1    1    2    0    0 -0.10191997169E+03 -0.11707127747E+03 -0.17498103400E+03  0.28624592032E+03  0.16500000000E+03 0.  0.
<mgrwt>
<rscale>  0 0.45889735E+03</rscale>
<asrwt>0</asrwt>
<pdfrwt beam="1">  1        2 0.61231772E-01 0.45889735E+03</pdfrwt>
<pdfrwt beam="2">  1       -2 0.20350147E-01 0.45889735E+03</pdfrwt>
<totfact> 0.16480780E+03</totfact>
</mgrwt>
</event>
<event>
 4    1  0.8404100E-005  0.6820630E+03  0.7818608E-02  0.9748408E-01
          2   -1    0    0  501    0  0.00000000000E+00  0.00000000000E+00  0.38788355474E+03  0.38788355475E+03  0.25500000000E-02 0.  1.
         -2   -1    0    0    0  501 -0.00000000000E+00 -0.00000000000E+00 -0.29983865185E+03  0.29983865186E+03  0.25500000000E-02 0. -1.
    5000001    1    1    2    0    0  0.28084175015E+03 -0.46837136674E+02  0.13427308370E+03  0.35541534435E+03  0.16500000000E+03 0.  0.
   -5000001    1    1    2    0    0 -0.28084175015E+03  0.46837136674E+02 -0.46228180805E+02  0.33230686225E+03  0.16500000000E+03 0.  0.
<mgrwt>
<rscale>  0 0.68206299E+03</rscale>
<asrwt>0</asrwt>
<pdfrwt beam="1">  1        2 0.59674393E-01 0.68206299E+03</pdfrwt>
<pdfrwt beam="2">  1       -2 0.46129024E-01 0.68206299E+03</pdfrwt>
<totfact> 0.37012944E+02</totfact>
</mgrwt>
</event>
<event>
 4    1  0.8404100E-005  0.6691630E+03  0.7818608E-02  0.9771471E-01
          2   -1    0    0  501    0  0.00000000000E+00  0.00000000000E+00  0.15363241441E+04  0.15363241441E+04  0.25500000000E-02 0.  1.
         -2   -1    0    0    0  501 -0.00000000000E+00 -0.00000000000E+00 -0.72865348586E+02  0.72865348631E+02  0.25500000000E-02 0. -1.
    5000001    1    1    2    0    0 -0.31326580505E+02 -0.26009297189E+03  0.10367677310E+04  0.10820083349E+04  0.16500000000E+03 0.  0.
   -5000001    1    1    2    0    0  0.31326580505E+02  0.26009297189E+03  0.42669106450E+03  0.52718115786E+03  0.16500000000E+03 0.  0.
<mgrwt>
<rscale>  0 0.66916304E+03</rscale>
<asrwt>0</asrwt>
<pdfrwt beam="1">  1        2 0.23635754E+00 0.66916304E+03</pdfrwt>
<pdfrwt beam="2">  1       -2 0.11210054E-01 0.66916304E+03</pdfrwt>
<totfact> 0.70130203E+02</totfact>
</mgrwt>
</event>
<event>
 4    1  0.8404100E-005  0.4237079E+03  0.7818608E-02  0.1035866E+00
         -2   -1    0    0    0  501 -0.00000000000E+00  0.00000000000E+00  0.24579978859E+03  0.24579978861E+03  0.25500000000E-02 0. -1.
          2   -1    0    0  501    0  0.00000000000E+00 -0.00000000000E+00 -0.18259612984E+03  0.18259612986E+03  0.25500000000E-02 0.  1.
    5000001    1    1    2    0    0  0.55764823628E+01  0.13213841154E+03  0.44606222010E+02  0.21611657040E+03  0.16500000000E+03 0.  0.
   -5000001    1    1    2    0    0 -0.55764823628E+01 -0.13213841154E+03  0.18597436744E+02  0.21227934806E+03  0.16500000000E+03 0.  0.
<mgrwt>
<rscale>  0 0.42370787E+03</rscale>
<asrwt>0</asrwt>
<pdfrwt beam="1">  1        2 0.28091712E-01 0.42370787E+03</pdfrwt>
<pdfrwt beam="2">  1       -2 0.37815352E-01 0.42370787E+03</pdfrwt>
<totfact> 0.12612433E+03</totfact>
</mgrwt>
</event>
<event>
 4    1  0.8404100E-005  0.6638294E+03  0.7818608E-02  0.9781170E-01
          2   -1    0    0  501    0  0.00000000000E+00  0.00000000000E+00  0.23556683367E+03  0.23556683369E+03  0.25500000000E-02 0.  1.
         -2   -1    0    0    0  501 -0.00000000000E+00 -0.00000000000E+00 -0.46766932513E+03  0.46766932514E+03  0.25500000000E-02 0. -1.
    5000001    1    1    2    0    0 -0.58860579016E+01 -0.27239313959E+03 -0.17185321908E+02  0.31898746600E+03  0.16500000000E+03 0.  0.
   -5000001    1    1    2    0    0  0.58860579016E+01  0.27239313959E+03 -0.21491716955E+03  0.38424869283E+03  0.16500000000E+03 0.  0.
<mgrwt>
<rscale>  0 0.66382944E+03</rscale>
<asrwt>0</asrwt>
<pdfrwt beam="1">  1        2 0.36241051E-01 0.66382944E+03</pdfrwt>
<pdfrwt beam="2">  1       -2 0.71949127E-01 0.66382944E+03</pdfrwt>
<totfact> 0.25435597E+02</totfact>
</mgrwt>
</event>
<event>
 4    1  0.8404100E-005  0.6288620E+03  0.7818608E-02  0.9847272E-01
         -2   -1    0    0    0  501 -0.00000000000E+00  0.00000000000E+00  0.42442135959E+03  0.42442135960E+03  0.25500000000E-02 0.  1.
          2   -1    0    0  501    0  0.00000000000E+00 -0.00000000000E+00 -0.23294505024E+03  0.23294505025E+03  0.25500000000E-02 0. -1.
    5000001    1    1    2    0    0 -0.14178877909E+03 -0.22659185600E+03  0.11029516702E+03  0.33292334095E+03  0.16500000000E+03 0.  0.
   -5000001    1    1    2    0    0  0.14178877909E+03  0.22659185600E+03  0.81181142338E+02  0.32444306890E+03  0.16500000000E+03 0.  0.
<mgrwt>
<rscale>  0 0.62886200E+03</rscale>
<asrwt>0</asrwt>
<pdfrwt beam="1">  1        2 0.35837701E-01 0.62886200E+03</pdfrwt>
<pdfrwt beam="2">  1       -2 0.65295593E-01 0.62886200E+03</pdfrwt>
<totfact> 0.31811707E+02</totfact>
</mgrwt>
</event>
<event>
 4    1  0.8404100E-005  0.6162796E+03  0.7818608E-02  0.9872195E-01
         -2   -1    0    0    0  501 -0.00000000000E+00  0.00000000000E+00  0.11415449630E+03  0.11415449633E+03  0.25500000000E-02 0. -1.
          2   -1    0    0  501    0  0.00000000000E+00 -0.00000000000E+00 -0.83176857784E+03  0.83176857784E+03  0.25500000000E-02 0.  1.
    5000001    1    1    2    0    0  0.12723250768E+03 -0.22182631013E+03 -0.28471605817E+03  0.41675323233E+03  0.16500000000E+03 0.  0.
   -5000001    1    1    2    0    0 -0.12723250768E+03  0.22182631013E+03 -0.43289802337E+03  0.52916984184E+03  0.16500000000E+03 0.  0.
<mgrwt>
<rscale>  0 0.61627956E+03</rscale>
<asrwt>0</asrwt>
<pdfrwt beam="1">  1        2 0.12796439E+00 0.61627956E+03</pdfrwt>
<pdfrwt beam="2">  1       -2 0.17562231E-01 0.61627956E+03</pdfrwt>
<totfact> 0.87985331E+02</totfact>
</mgrwt>
</event>
<event>
 4    1  0.8404100E-005  0.4829268E+03  0.7818608E-02  0.1018334E+00
         -2   -1    0    0    0  501 -0.00000000000E+00  0.00000000000E+00  0.32468790935E+02  0.32468791035E+02  0.25500000000E-02 0. -1.
          2   -1    0    0  501    0  0.00000000000E+00 -0.00000000000E+00 -0.17957114911E+04  0.17957114911E+04  0.25500000000E-02 0.  1.
    5000001    1    1    2    0    0 -0.13162235614E+03 -0.85446537071E+02 -0.11857469873E+04  0.12074131328E+04  0.16500000000E+03 0.  0.
   -5000001    1    1    2    0    0  0.13162235614E+03  0.85446537071E+02 -0.57749571282E+03  0.62076714931E+03  0.16500000000E+03 0.  0.
<mgrwt>
<rscale>  0 0.48292683E+03</rscale>
<asrwt>0</asrwt>
<pdfrwt beam="1">  1        2 0.27626323E+00 0.48292683E+03</pdfrwt>
<pdfrwt beam="2">  1       -2 0.49952000E-02 0.48292683E+03</pdfrwt>
<totfact> 0.18464395E+03</totfact>
</mgrwt>
</event>
<event>
 4    1  0.8404100E-005  0.6209200E+03  0.7818608E-02  0.9862930E-01
         -2   -1    0    0    0  501 -0.00000000000E+00  0.00000000000E+00  0.12497213232E+03  0.12497213234E+03  0.25500000000E-02 0. -1.
          2   -1    0    0  501    0  0.00000000000E+00 -0.00000000000E+00 -0.77125533657E+03  0.77125533658E+03  0.25500000000E-02 0.  1.
    5000001    1    1    2    0    0 -0.10873754875E+03 -0.23416117795E+03 -0.25089853653E+03  0.39601816549E+03  0.16500000000E+03 0.  0.
   -5000001    1    1    2    0    0  0.10873754875E+03  0.23416117795E+03 -0.39538466773E+03  0.50020930343E+03  0.16500000000E+03 0.  0.
<mgrwt>
<rscale>  0 0.62092004E+03</rscale>
<asrwt>0</asrwt>
<pdfrwt beam="1">  1        2 0.11865466E+00 0.62092004E+03</pdfrwt>
<pdfrwt beam="2">  1       -2 0.19226482E-01 0.62092004E+03</pdfrwt>
<totfact> 0.83128076E+02</totfact>
</mgrwt>
</event>
<event>
 4    1  0.8404100E-005  0.5475097E+03  0.7818608E-02  0.1002072E+00
         -2   -1    0    0    0  501 -0.00000000000E+00  0.00000000000E+00  0.31967175504E+02  0.31967175605E+02  0.25500000000E-02 0. -1.
          2   -1    0    0  501    0  0.00000000000E+00 -0.00000000000E+00 -0.23443330001E+04  0.23443330001E+04  0.25500000000E-02 0.  1.
    5000001    1    1    2    0    0  0.60801606927E+02  0.16946392432E+03 -0.61929768288E+03  0.66570975438E+03  0.16500000000E+03 0.  0.
   -5000001    1    1    2    0    0 -0.60801606927E+02 -0.16946392432E+03 -0.16930681417E+04  0.17105904213E+04  0.16500000000E+03 0.  0.
<mgrwt>
<rscale>  0 0.54750965E+03</rscale>
<asrwt>0</asrwt>
<pdfrwt beam="1">  1        2 0.36066648E+00 0.54750965E+03</pdfrwt>
<pdfrwt beam="2">  1       -2 0.49180289E-02 0.54750965E+03</pdfrwt>
<totfact> 0.95019773E+02</totfact>
</mgrwt>
</event>
<event>
 4    1  0.8404100E-005  0.4878300E+03  0.7818608E-02  0.1017005E+00
          2   -1    0    0  501    0  0.00000000000E+00  0.00000000000E+00  0.34329542871E+04  0.34329542871E+04  0.25500000000E-02 0.  1.
         -2   -1    0    0    0  501 -0.00000000000E+00 -0.00000000000E+00 -0.17330418676E+02  0.17330418863E+02  0.25500000000E-02 0. -1.
    5000001    1    1    2    0    0 -0.11783195316E+03 -0.13552207179E+03  0.17385878438E+04  0.17556090942E+04  0.16500000000E+03 0.  0.
   -5000001    1    1    2    0    0  0.11783195316E+03  0.13552207179E+03  0.16770360247E+04  0.16946756118E+04  0.16500000000E+03 0.  0.
<mgrwt>
<rscale>  0 0.48783003E+03</rscale>
<asrwt>0</asrwt>
<pdfrwt beam="1">  1        2 0.52814669E+00 0.48783003E+03</pdfrwt>
<pdfrwt beam="2">  1       -2 0.26662189E-02 0.48783003E+03</pdfrwt>
<totfact> 0.54378917E+02</totfact>
</mgrwt>
</event>
<event>
 4    1  0.8404100E-005  0.3962949E+03  0.7818608E-02  0.1045070E+00
         -2   -1    0    0    0  501 -0.00000000000E+00  0.00000000000E+00  0.36559866626E+03  0.36559866627E+03  0.25500000000E-02 0. -1.
          2   -1    0    0  501    0  0.00000000000E+00 -0.00000000000E+00 -0.10739211883E+03  0.10739211886E+03  0.25500000000E-02 0.  1.
    5000001    1    1    2    0    0 -0.51378545998E+02 -0.51003958902E+02  0.30709172876E+02  0.18278187030E+03  0.16500000000E+03 0.  0.
   -5000001    1    1    2    0    0  0.51378545998E+02  0.51003958902E+02  0.22749737455E+03  0.29020891482E+03  0.16500000000E+03 0.  0.
<mgrwt>
<rscale>  0 0.39629492E+03</rscale>
<asrwt>0</asrwt>
<pdfrwt beam="1">  1        2 0.16521864E-01 0.39629492E+03</pdfrwt>
<pdfrwt beam="2">  1       -2 0.56245949E-01 0.39629492E+03</pdfrwt>
<totfact> 0.10573819E+03</totfact>
</mgrwt>
</event>
<event>
 4    1  0.8404100E-005  0.5006508E+03  0.7818608E-02  0.1013609E+00
         -2   -1    0    0    0  501 -0.00000000000E+00  0.00000000000E+00  0.21748347962E+02  0.21748348111E+02  0.25500000000E-02 0. -1.
          2   -1    0    0  501    0  0.00000000000E+00 -0.00000000000E+00 -0.28812674483E+04  0.28812674483E+04  0.25500000000E-02 0.  1.
    5000001    1    1    2    0    0  0.76595622837E+02  0.17192980956E+03 -0.14490419307E+04  0.14705013655E+04  0.16500000000E+03 0.  0.
   -5000001    1    1    2    0    0 -0.76595622837E+02 -0.17192980956E+03 -0.14104771696E+04  0.14325144309E+04  0.16500000000E+03 0.  0.
<mgrwt>
<rscale>  0 0.50065081E+03</rscale>
<asrwt>0</asrwt>
<pdfrwt beam="1">  1        2 0.44327161E+00 0.50065081E+03</pdfrwt>
<pdfrwt beam="2">  1       -2 0.33459020E-02 0.50065081E+03</pdfrwt>
<totfact> 0.85142931E+02</totfact>
</mgrwt>
</event>
<event>
 4    1  0.8404100E-005  0.3909002E+03  0.7818608E-02  0.1046977E+00
         -2   -1    0    0    0  501 -0.00000000000E+00  0.00000000000E+00  0.37704518405E+02  0.37704518491E+02  0.25500000000E-02 0. -1.
          2   -1    0    0  501    0  0.00000000000E+00 -0.00000000000E+00 -0.10131606089E+04  0.10131606089E+04  0.25500000000E-02 0.  1.
    5000001    1    1    2    0    0 -0.10273961828E+03 -0.16823960293E+02 -0.45623243115E+03  0.49619704356E+03  0.16500000000E+03 0.  0.
   -5000001    1    1    2    0    0  0.10273961828E+03  0.16823960293E+02 -0.51922365939E+03  0.55466808388E+03  0.16500000000E+03 0.  0.
<mgrwt>
<rscale>  0 0.39090016E+03</rscale>
<asrwt>0</asrwt>
<pdfrwt beam="1">  1        2 0.15587084E+00 0.39090016E+03</pdfrwt>
<pdfrwt beam="2">  1       -2 0.58006959E-02 0.39090016E+03</pdfrwt>
<totfact> 0.40352124E+03</totfact>
</mgrwt>
</event>
<event>
 4    1  0.8404100E-005  0.3742843E+03  0.7818608E-02  0.1053067E+00
          2   -1    0    0  501    0  0.00000000000E+00  0.00000000000E+00  0.11491777535E+03  0.11491777538E+03  0.25500000000E-02 0.  1.
         -2   -1    0    0    0  501 -0.00000000000E+00 -0.00000000000E+00 -0.30475860937E+03  0.30475860938E+03  0.25500000000E-02 0. -1.
    5000001    1    1    2    0    0 -0.10718136265E+02  0.84753073513E+02 -0.11997335773E+03  0.22117090333E+03  0.16500000000E+03 0.  0.
   -5000001    1    1    2    0    0  0.10718136265E+02 -0.84753073513E+02 -0.69867476296E+02  0.19850548143E+03  0.16500000000E+03 0.  0.
<mgrwt>
<rscale>  0 0.37428428E+03</rscale>
<asrwt>0</asrwt>
<pdfrwt beam="1">  1        2 0.17679658E-01 0.37428428E+03</pdfrwt>
<pdfrwt beam="2">  1       -2 0.46885940E-01 0.37428428E+03</pdfrwt>
<totfact> 0.14093603E+03</totfact>
</mgrwt>
</event>
<event>
 4    1  0.8404100E-005  0.1102053E+04  0.7818608E-02  0.9203193E-01
         -2   -1    0    0    0  501 -0.00000000000E+00  0.00000000000E+00  0.11844188571E+03  0.11844188573E+03  0.25500000000E-02 0. -1.
          2   -1    0    0  501    0  0.00000000000E+00 -0.00000000000E+00 -0.25635371012E+04  0.25635371012E+04  0.25500000000E-02 0.  1.
    5000001    1    1    2    0    0 -0.32197997043E+03 -0.85814799532E+02 -0.22121964709E+04  0.22432283671E+04  0.16500000000E+03 0.  0.
   -5000001    1    1    2    0    0  0.32197997043E+03  0.85814799532E+02 -0.23289874464E+03  0.43875061987E+03  0.16500000000E+03 0.  0.
<mgrwt>
<rscale>  0 0.11020529E+04</rscale>
<asrwt>0</asrwt>
<pdfrwt beam="1">  1        2 0.39439028E+00 0.11020529E+04</pdfrwt>
<pdfrwt beam="2">  1       -2 0.18221831E-01 0.11020529E+04</pdfrwt>
<totfact> 0.80611553E+01</totfact>
</mgrwt>
</event>
<event>
 4    1  0.8404100E-005  0.8483498E+03  0.7818608E-02  0.9492554E-01
         -2   -1    0    0    0  501 -0.00000000000E+00  0.00000000000E+00  0.15299490541E+03  0.15299490543E+03  0.25500000000E-02 0. -1.
          2   -1    0    0  501    0  0.00000000000E+00 -0.00000000000E+00 -0.11760154059E+04  0.11760154059E+04  0.25500000000E-02 0.  1.
    5000001    1    1    2    0    0 -0.16315517815E+03  0.34550853529E+03 -0.38324541873E+03  0.56577187195E+03  0.16500000000E+03 0.  0.
   -5000001    1    1    2    0    0  0.16315517815E+03 -0.34550853529E+03 -0.63977508178E+03  0.76323843940E+03  0.16500000000E+03 0.  0.
<mgrwt>
<rscale>  0 0.84834985E+03</rscale>
<asrwt>0</asrwt>
<pdfrwt beam="1">  1        2 0.18092544E+00 0.84834985E+03</pdfrwt>
<pdfrwt beam="2">  1       -2 0.23537678E-01 0.84834985E+03</pdfrwt>
<totfact> 0.31410572E+02</totfact>
</mgrwt>
</event>
<event>
 4    1  0.8404100E-005  0.4143905E+03  0.7818608E-02  0.1038908E+00
          2   -1    0    0  501    0  0.00000000000E+00  0.00000000000E+00  0.17239717120E+04  0.17239717120E+04  0.25500000000E-02 0.  1.
         -2   -1    0    0    0  501 -0.00000000000E+00 -0.00000000000E+00 -0.24901721692E+02  0.24901721822E+02  0.25500000000E-02 0. -1.
    5000001    1    1    2    0    0  0.99609785535E+02 -0.69222454790E+02  0.71667726434E+03  0.74536243455E+03  0.16500000000E+03 0.  0.
   -5000001    1    1    2    0    0 -0.99609785535E+02  0.69222454790E+02  0.98239272593E+03  0.10035109992E+04  0.16500000000E+03 0.  0.
<mgrwt>
<rscale>  0 0.41439046E+03</rscale>
<asrwt>0</asrwt>
<pdfrwt beam="1">  1        2 0.26522639E+00 0.41439046E+03</pdfrwt>
<pdfrwt beam="2">  1       -2 0.38310345E-02 0.41439046E+03</pdfrwt>
<totfact> 0.30363407E+03</totfact>
</mgrwt>
</event>
<event>
 4    1  0.8404100E-005  0.4771817E+03  0.7818608E-02  0.1019913E+00
         -2   -1    0    0    0  501 -0.00000000000E+00  0.00000000000E+00  0.22139478481E+02  0.22139478628E+02  0.25500000000E-02 0. -1.
          2   -1    0    0  501    0  0.00000000000E+00 -0.00000000000E+00 -0.25712259948E+04  0.25712259948E+04  0.25500000000E-02 0.  1.
    5000001    1    1    2    0    0  0.12303784227E+03  0.10982632635E+03 -0.15463065222E+04  0.15638059321E+04  0.16500000000E+03 0.  0.
   -5000001    1    1    2    0    0 -0.12303784227E+03 -0.10982632635E+03 -0.10027799941E+04  0.10295595413E+04  0.16500000000E+03 0.  0.
<mgrwt>
<rscale>  0 0.47718174E+03</rscale>
<asrwt>0</asrwt>
<pdfrwt beam="1">  1        2 0.39557299E+00 0.47718174E+03</pdfrwt>
<pdfrwt beam="2">  1       -2 0.34060757E-02 0.47718174E+03</pdfrwt>
<totfact> 0.12540896E+03</totfact>
</mgrwt>
</event>
<event>
 4    1  0.8404100E-005  0.9591653E+03  0.7818608E-02  0.9354501E-01
         -2   -1    0    0    0  501 -0.00000000000E+00  0.00000000000E+00  0.29819645212E+03  0.29819645213E+03  0.25500000000E-02 0. -1.
          2   -1    0    0  501    0  0.00000000000E+00 -0.00000000000E+00 -0.77130200687E+03  0.77130200687E+03  0.25500000000E-02 0.  1.
    5000001    1    1    2    0    0  0.65187748930E+02  0.38883646894E+03 -0.47913603537E+03  0.64205886223E+03  0.16500000000E+03 0.  0.
   -5000001    1    1    2    0    0 -0.65187748930E+02 -0.38883646894E+03  0.60304806212E+01  0.42743959676E+03  0.16500000000E+03 0.  0.
<mgrwt>
<rscale>  0 0.95916531E+03</rscale>
<asrwt>0</asrwt>
<pdfrwt beam="1">  1        2 0.11866185E+00 0.95916531E+03</pdfrwt>
<pdfrwt beam="2">  1       -2 0.45876378E-01 0.95916531E+03</pdfrwt>
<totfact> 0.16290937E+02</totfact>
</mgrwt>
</event>
<event>
 4    1  0.8404100E-005  0.4420288E+03  0.7818608E-02  0.1030126E+00
          2   -1    0    0  501    0  0.00000000000E+00  0.00000000000E+00  0.16051225425E+04  0.16051225425E+04  0.25500000000E-02 0.  1.
         -2   -1    0    0    0  501 -0.00000000000E+00 -0.00000000000E+00 -0.30432170750E+02  0.30432170857E+02  0.25500000000E-02 0. -1.
    5000001    1    1    2    0    0  0.88460583073E+02  0.11466133483E+03  0.88167016811E+03  0.90859219774E+03  0.16500000000E+03 0.  0.
   -5000001    1    1    2    0    0 -0.88460583073E+02 -0.11466133483E+03  0.69302020366E+03  0.72696251564E+03  0.16500000000E+03 0.  0.
<mgrwt>
<rscale>  0 0.44202879E+03</rscale>
<asrwt>0</asrwt>
<pdfrwt beam="1">  1        2 0.24694186E+00 0.44202879E+03</pdfrwt>
<pdfrwt beam="2">  1       -2 0.46818738E-02 0.44202879E+03</pdfrwt>
<totfact> 0.25873532E+03</totfact>
</mgrwt>
</event>
<event>
 4    1  0.8404100E-005  0.7333520E+03  0.7818608E-02  0.9661837E-01
          2   -1    0    0  501    0  0.00000000000E+00  0.00000000000E+00  0.23794666761E+03  0.23794666763E+03  0.25500000000E-02 0.  1.
         -2   -1    0    0    0  501 -0.00000000000E+00 -0.00000000000E+00 -0.56504803454E+03  0.56504803454E+03  0.25500000000E-02 0. -1.
    5000001    1    1    2    0    0 -0.62483842030E+02  0.28691425957E+03 -0.32223475921E+03  0.46613760082E+03  0.16500000000E+03 0.  0.
   -5000001    1    1    2    0    0  0.62483842030E+02 -0.28691425957E+03 -0.48666077180E+01  0.33685710135E+03  0.16500000000E+03 0.  0.
<mgrwt>
<rscale>  0 0.73335202E+03</rscale>
<asrwt>0</asrwt>
<pdfrwt beam="1">  1        2 0.36607180E-01 0.73335202E+03</pdfrwt>
<pdfrwt beam="2">  1       -2 0.86930466E-01 0.73335202E+03</pdfrwt>
<totfact> 0.16431721E+02</totfact>
</mgrwt>
</event>
<event>
 4    1  0.8404100E-005  0.5775882E+03  0.7818608E-02  0.9953026E-01
          2   -1    0    0  501    0  0.00000000000E+00  0.00000000000E+00  0.14430705455E+03  0.14430705457E+03  0.25500000000E-02 0.  1.
         -2   -1    0    0    0  501 -0.00000000000E+00 -0.00000000000E+00 -0.57794838608E+03  0.57794838608E+03  0.25500000000E-02 0. -1.
    5000001    1    1    2    0    0 -0.14688211667E+03  0.18228449017E+03 -0.17045144201E+03  0.33328769200E+03  0.16500000000E+03 0.  0.
   -5000001    1    1    2    0    0  0.14688211667E+03 -0.18228449017E+03 -0.26318988952E+03  0.38896774866E+03  0.16500000000E+03 0.  0.
<mgrwt>
<rscale>  0 0.57758819E+03</rscale>
<asrwt>0</asrwt>
<pdfrwt beam="1">  1        2 0.22201086E-01 0.57758819E+03</pdfrwt>
<pdfrwt beam="2">  1       -2 0.88915135E-01 0.57758819E+03</pdfrwt>
<totfact> 0.27641780E+02</totfact>
</mgrwt>
</event>
<event>
 4    1  0.8404100E-005  0.5295714E+03  0.7818608E-02  0.1006336E+00
          2   -1    0    0  501    0  0.00000000000E+00  0.00000000000E+00  0.32743082196E+03  0.32743082197E+03  0.25500000000E-02 0.  1.
         -2   -1    0    0    0  501 -0.00000000000E+00 -0.00000000000E+00 -0.21412605222E+03  0.21412605224E+03  0.25500000000E-02 0. -1.
    5000001    1    1    2    0    0  0.19226514907E+03  0.65596514938E+02  0.97783048135E+02  0.27938381274E+03  0.16500000000E+03 0.  0.
   -5000001    1    1    2    0    0 -0.19226514907E+03 -0.65596514938E+02  0.15521721601E+02  0.26217306147E+03  0.16500000000E+03 0.  0.
<mgrwt>
<rscale>  0 0.52957141E+03</rscale>
<asrwt>0</asrwt>
<pdfrwt beam="1">  1        2 0.50373973E-01 0.52957141E+03</pdfrwt>
<pdfrwt beam="2">  1       -2 0.32942469E-01 0.52957141E+03</pdfrwt>
<totfact> 0.85911243E+02</totfact>
</mgrwt>
</event>
<event>
 4    1  0.8404100E-005  0.6713209E+03  0.7818608E-02  0.9767575E-01
         -2   -1    0    0    0  501 -0.00000000000E+00  0.00000000000E+00  0.25450699933E+03  0.25450699935E+03  0.25500000000E-02 0. -1.
          2   -1    0    0  501    0  0.00000000000E+00 -0.00000000000E+00 -0.44269090957E+03  0.44269090957E+03  0.25500000000E-02 0.  1.
    5000001    1    1    2    0    0 -0.14072349860E+03  0.44443178109E+02 -0.35613645142E+03  0.41932859570E+03  0.16500000000E+03 0.  0.
   -5000001    1    1    2    0    0  0.14072349860E+03 -0.44443178109E+02  0.16795254119E+03  0.27786931322E+03  0.16500000000E+03 0.  0.
<mgrwt>
<rscale>  0 0.67132089E+03</rscale>
<asrwt>0</asrwt>
<pdfrwt beam="1">  1        2 0.68106293E-01 0.67132089E+03</pdfrwt>
<pdfrwt beam="2">  1       -2 0.39154923E-01 0.67132089E+03</pdfrwt>
<totfact> 0.44048424E+02</totfact>
</mgrwt>
</event>
<event>
 4    1  0.8404100E-005  0.4225000E+03  0.7818608E-02  0.1036256E+00
         -2   -1    0    0    0  501 -0.00000000000E+00  0.00000000000E+00  0.13229503951E+03  0.13229503954E+03  0.25500000000E-02 0. -1.
          2   -1    0    0  501    0  0.00000000000E+00 -0.00000000000E+00 -0.33732610989E+03  0.33732610990E+03  0.25500000000E-02 0.  1.
    5000001    1    1    2    0    0 -0.61055479499E+02 -0.11346819974E+03 -0.13393009517E+03  0.24852580212E+03  0.16500000000E+03 0.  0.
   -5000001    1    1    2    0    0  0.61055479499E+02  0.11346819974E+03 -0.71100975202E+02  0.22109534731E+03  0.16500000000E+03 0.  0.
<mgrwt>
<rscale>  0 0.42250004E+03</rscale>
<asrwt>0</asrwt>
<pdfrwt beam="1">  1        2 0.51896324E-01 0.42250004E+03</pdfrwt>
<pdfrwt beam="2">  1       -2 0.20353083E-01 0.42250004E+03</pdfrwt>
<totfact> 0.19755318E+03</totfact>
</mgrwt>
</event>
<event>
 4    1  0.8404100E-005  0.1152304E+04  0.7818608E-02  0.9155661E-01
          2   -1    0    0  501    0  0.00000000000E+00  0.00000000000E+00  0.29571085529E+03  0.29571085531E+03  0.25500000000E-02 0.  1.
         -2   -1    0    0    0  501 -0.00000000000E+00 -0.00000000000E+00 -0.11225531182E+04  0.11225531182E+04  0.25500000000E-02 0. -1.
    5000001    1    1    2    0    0  0.43003054940E+03  0.13186704720E+03 -0.80730046221E+03  0.93876207201E+03  0.16500000000E+03 0.  0.
   -5000001    1    1    2    0    0 -0.43003054940E+03 -0.13186704720E+03 -0.19541800681E+02  0.47950190149E+03  0.16500000000E+03 0.  0.
<mgrwt>
<rscale>  0 0.11523040E+04</rscale>
<asrwt>0</asrwt>
<pdfrwt beam="1">  1        2 0.45493978E-01 0.11523040E+04</pdfrwt>
<pdfrwt beam="2">  1       -2 0.17270048E+00 0.11523040E+04</pdfrwt>
<totfact> 0.22495140E+01</totfact>
</mgrwt>
</event>
<event>
 4    1  0.8404100E-005  0.7636662E+03  0.7818608E-02  0.9614151E-01
          2   -1    0    0  501    0  0.00000000000E+00  0.00000000000E+00  0.50330120008E+03  0.50330120008E+03  0.25500000000E-02 0.  1.
         -2   -1    0    0    0  501 -0.00000000000E+00 -0.00000000000E+00 -0.28968047910E+03  0.28968047911E+03  0.25500000000E-02 0. -1.
    5000001    1    1    2    0    0  0.28104197533E+03  0.13132851724E+03 -0.48392179864E+02  0.35468094734E+03  0.16500000000E+03 0.  0.
   -5000001    1    1    2    0    0 -0.28104197533E+03 -0.13132851724E+03  0.26201290084E+03  0.43830073185E+03  0.16500000000E+03 0.  0.
<mgrwt>
<rscale>  0 0.76366624E+03</rscale>
<asrwt>0</asrwt>
<pdfrwt beam="1">  1        2 0.77430953E-01 0.76366624E+03</pdfrwt>
<pdfrwt beam="2">  1       -2 0.44566228E-01 0.76366624E+03</pdfrwt>
<totfact> 0.29397944E+02</totfact>
</mgrwt>
</event>
<event>
 4    1  0.8404100E-005  0.8450169E+03  0.7818608E-02  0.9497050E-01
         -2   -1    0    0    0  501 -0.00000000000E+00  0.00000000000E+00  0.47691505413E+03  0.47691505414E+03  0.25500000000E-02 0. -1.
          2   -1    0    0  501    0  0.00000000000E+00 -0.00000000000E+00 -0.37430858032E+03  0.37430858033E+03  0.25500000000E-02 0.  1.
    5000001    1    1    2    0    0  0.35642993237E+03  0.90965335890E+02  0.17860952941E+03  0.44095731428E+03  0.16500000000E+03 0.  0.
   -5000001    1    1    2    0    0 -0.35642993237E+03 -0.90965335890E+02 -0.76003055599E+02  0.41026632019E+03  0.16500000000E+03 0.  0.
<mgrwt>
<rscale>  0 0.84501692E+03</rscale>
<asrwt>0</asrwt>
<pdfrwt beam="1">  1        2 0.57585936E-01 0.84501692E+03</pdfrwt>
<pdfrwt beam="2">  1       -2 0.73371547E-01 0.84501692E+03</pdfrwt>
<totfact> 0.14455175E+02</totfact>
</mgrwt>
</event>
<event>
 4    1  0.8404100E-005  0.2567879E+04  0.7818608E-02  0.8379194E-01
         -2   -1    0    0    0  501 -0.00000000000E+00  0.00000000000E+00  0.68575830196E+03  0.68575830197E+03  0.25500000000E-02 0. -1.
          2   -1    0    0  501    0  0.00000000000E+00 -0.00000000000E+00 -0.24039100543E+04  0.24039100543E+04  0.25500000000E-02 0.  1.
    5000001    1    1    2    0    0  0.16065689532E+03  0.99432102016E+03 -0.17963290399E+04  0.20660367734E+04  0.16500000000E+03 0.  0.
   -5000001    1    1    2    0    0 -0.16065689532E+03 -0.99432102016E+03  0.78177287645E+02  0.10236315829E+04  0.16500000000E+03 0.  0.
<mgrwt>
<rscale>  0 0.25678795E+04</rscale>
<asrwt>0</asrwt>
<pdfrwt beam="1">  1        2 0.36983231E+00 0.25678795E+04</pdfrwt>
<pdfrwt beam="2">  1       -2 0.10550128E+00 0.25678795E+04</pdfrwt>
<totfact> 0.25486412E+00</totfact>
</mgrwt>
</event>
<event>
 4    1  0.8404100E-005  0.6721020E+03  0.7818608E-02  0.9766168E-01
         -2   -1    0    0    0  501 -0.00000000000E+00  0.00000000000E+00  0.14138442713E+03  0.14138442716E+03  0.25500000000E-02 0. -1.
          2   -1    0    0  501    0  0.00000000000E+00 -0.00000000000E+00 -0.79874621202E+03  0.79874621202E+03  0.25500000000E-02 0.  1.
    5000001    1    1    2    0    0  0.25520631119E+03 -0.99289324373E+02 -0.18387626938E+03  0.36881447050E+03  0.16500000000E+03 0.  0.
   -5000001    1    1    2    0    0 -0.25520631119E+03  0.99289324373E+02 -0.47348551550E+03  0.57131616868E+03  0.16500000000E+03 0.  0.
<mgrwt>
<rscale>  0 0.67210200E+03</rscale>
<asrwt>0</asrwt>
<pdfrwt beam="1">  1        2 0.12288403E+00 0.67210200E+03</pdfrwt>
<pdfrwt beam="2">  1       -2 0.21751451E-01 0.67210200E+03</pdfrwt>
<totfact> 0.63889665E+02</totfact>
</mgrwt>
</event>
<event>
 4    1  0.8404100E-005  0.4663311E+03  0.7818608E-02  0.1022961E+00
          2   -1    0    0  501    0  0.00000000000E+00  0.00000000000E+00  0.21603781476E+03  0.21603781478E+03  0.25500000000E-02 0.  1.
         -2   -1    0    0    0  501 -0.00000000000E+00 -0.00000000000E+00 -0.25165120220E+03  0.25165120222E+03  0.25500000000E-02 0. -1.
    5000001    1    1    2    0    0 -0.67156380979E+02  0.13719273307E+03 -0.79706350158E+02  0.23855801762E+03  0.16500000000E+03 0.  0.
   -5000001    1    1    2    0    0  0.67156380979E+02 -0.13719273307E+03  0.44092962721E+02  0.22913099938E+03  0.16500000000E+03 0.  0.
<mgrwt>
<rscale>  0 0.46633111E+03</rscale>
<asrwt>0</asrwt>
<pdfrwt beam="1">  1        2 0.33236587E-01 0.46633111E+03</pdfrwt>
<pdfrwt beam="2">  1       -2 0.38715570E-01 0.46633111E+03</pdfrwt>
<totfact> 0.10001733E+03</totfact>
</mgrwt>
</event>
<event>
 4    1  0.8404100E-005  0.9189563E+03  0.7818608E-02  0.9402190E-01
         -2   -1    0    0    0  501 -0.00000000000E+00  0.00000000000E+00  0.95979538235E+03  0.95979538235E+03  0.25500000000E-02 0. -1.
          2   -1    0    0  501    0  0.00000000000E+00 -0.00000000000E+00 -0.21996374323E+03  0.21996374325E+03  0.25500000000E-02 0.  1.
    5000001    1    1    2    0    0 -0.33036328029E+03  0.57237961600E+02  0.71314801656E+03  0.80512183845E+03  0.16500000000E+03 0.  0.
   -5000001    1    1    2    0    0  0.33036328029E+03 -0.57237961600E+02  0.26683622553E+02  0.37463728715E+03  0.16500000000E+03 0.  0.
<mgrwt>
<rscale>  0 0.91895633E+03</rscale>
<asrwt>0</asrwt>
<pdfrwt beam="1">  1        2 0.33840576E-01 0.91895633E+03</pdfrwt>
<pdfrwt beam="2">  1       -2 0.14766083E+00 0.91895633E+03</pdfrwt>
<totfact> 0.48621593E+01</totfact>
</mgrwt>
</event>
<event>
 4    1  0.8404100E-005  0.4060605E+03  0.7818608E-02  0.1041701E+00
          2   -1    0    0  501    0  0.00000000000E+00  0.00000000000E+00  0.40311965290E+03  0.40311965291E+03  0.25500000000E-02 0.  1.
         -2   -1    0    0    0  501 -0.00000000000E+00 -0.00000000000E+00 -0.10225568142E+03  0.10225568146E+03  0.25500000000E-02 0. -1.
    5000001    1    1    2    0    0  0.82561671345E+02 -0.84404958366E+02  0.14114768807E+03  0.24716046694E+03  0.16500000000E+03 0.  0.
   -5000001    1    1    2    0    0 -0.82561671345E+02  0.84404958366E+02  0.15971628340E+03  0.25821486742E+03  0.16500000000E+03 0.  0.
<mgrwt>
<rscale>  0 0.40606046E+03</rscale>
<asrwt>0</asrwt>
<pdfrwt beam="1">  1        2 0.62018409E-01 0.40606046E+03</pdfrwt>
<pdfrwt beam="2">  1       -2 0.15731643E-01 0.40606046E+03</pdfrwt>
<totfact> 0.25180333E+03</totfact>
</mgrwt>
</event>
<event>
 4    1  0.8404100E-005  0.5136256E+03  0.7818608E-02  0.1010282E+00
         -2   -1    0    0    0  501 -0.00000000000E+00  0.00000000000E+00  0.16522107590E+03  0.16522107592E+03  0.25500000000E-02 0. -1.
          2   -1    0    0  501    0  0.00000000000E+00 -0.00000000000E+00 -0.39917921185E+03  0.39917921186E+03  0.25500000000E-02 0.  1.
    5000001    1    1    2    0    0  0.17787418712E+03 -0.83781824757E+02 -0.12611995101E+03  0.28598927016E+03  0.16500000000E+03 0.  0.
   -5000001    1    1    2    0    0 -0.17787418712E+03  0.83781824757E+02 -0.10783818494E+03  0.27841101762E+03  0.16500000000E+03 0.  0.
<mgrwt>
<rscale>  0 0.51362562E+03</rscale>
<asrwt>0</asrwt>
<pdfrwt beam="1">  1        2 0.61412186E-01 0.51362562E+03</pdfrwt>
<pdfrwt beam="2">  1       -2 0.25418627E-01 0.51362562E+03</pdfrwt>
<totfact> 0.11097405E+03</totfact>
</mgrwt>
</event>
<event>
 4    1  0.8404100E-005  0.6531783E+03  0.7818608E-02  0.9800834E-01
          2   -1    0    0  501    0  0.00000000000E+00  0.00000000000E+00  0.92264521056E+03  0.92264521056E+03  0.25500000000E-02 0.  1.
         -2   -1    0    0    0  501 -0.00000000000E+00 -0.00000000000E+00 -0.11560290466E+03  0.11560290469E+03  0.25500000000E-02 0. -1.
    5000001    1    1    2    0    0  0.11498568380E+03 -0.24540432542E+03  0.28049425329E+03  0.42349382114E+03  0.16500000000E+03 0.  0.
   -5000001    1    1    2    0    0 -0.11498568380E+03  0.24540432542E+03  0.52654805261E+03  0.61475429411E+03  0.16500000000E+03 0.  0.
<mgrwt>
<rscale>  0 0.65317828E+03</rscale>
<asrwt>0</asrwt>
<pdfrwt beam="1">  1        2 0.14194541E+00 0.65317828E+03</pdfrwt>
<pdfrwt beam="2">  1       -2 0.17785063E-01 0.65317828E+03</pdfrwt>
<totfact> 0.74622764E+02</totfact>
</mgrwt>
</event>
<event>
 4    1  0.8404100E-005  0.6255604E+03  0.7818608E-02  0.9853751E-01
         -2   -1    0    0    0  501 -0.00000000000E+00  0.00000000000E+00  0.36502376020E+02  0.36502376109E+02  0.25500000000E-02 0. -1.
          2   -1    0    0  501    0  0.00000000000E+00 -0.00000000000E+00 -0.26801397082E+04  0.26801397082E+04  0.25500000000E-02 0.  1.
    5000001    1    1    2    0    0 -0.18009389141E+03 -0.14668050249E+03 -0.18823087054E+04  0.19037489441E+04  0.16500000000E+03 0.  0.
   -5000001    1    1    2    0    0  0.18009389141E+03  0.14668050249E+03 -0.76132862678E+03  0.81289314027E+03  0.16500000000E+03 0.  0.
<mgrwt>
<rscale>  0 0.62556044E+03</rscale>
<asrwt>0</asrwt>
<pdfrwt beam="1">  1        2 0.41232903E+00 0.62556044E+03</pdfrwt>
<pdfrwt beam="2">  1       -2 0.56157523E-02 0.62556044E+03</pdfrwt>
<totfact> 0.49640827E+02</totfact>
</mgrwt>
</event>
<event>
 4    1  0.8404100E-005  0.7437542E+03  0.7818608E-02  0.9645200E-01
         -2   -1    0    0    0  501 -0.00000000000E+00  0.00000000000E+00  0.19581692694E+03  0.19581692696E+03  0.25500000000E-02 0. -1.
          2   -1    0    0  501    0  0.00000000000E+00 -0.00000000000E+00 -0.70623409598E+03  0.70623409599E+03  0.25500000000E-02 0.  1.
    5000001    1    1    2    0    0 -0.98259674202E+02 -0.96387950238E+01 -0.64126310603E+03  0.66947086650E+03  0.16500000000E+03 0.  0.
   -5000001    1    1    2    0    0  0.98259674202E+02  0.96387950238E+01  0.13084593699E+03  0.23258015644E+03  0.16500000000E+03 0.  0.
<mgrwt>
<rscale>  0 0.74375423E+03</rscale>
<asrwt>0</asrwt>
<pdfrwt beam="1">  1        2 0.10865140E+00 0.74375423E+03</pdfrwt>
<pdfrwt beam="2">  1       -2 0.30125682E-01 0.74375423E+03</pdfrwt>
<totfact> 0.41448631E+02</totfact>
</mgrwt>
</event>
<event>
 4    1  0.8404100E-005  0.4038740E+03  0.7818608E-02  0.1042446E+00
          2   -1    0    0  501    0  0.00000000000E+00  0.00000000000E+00  0.40084947909E+03  0.40084947910E+03  0.25500000000E-02 0.  1.
         -2   -1    0    0    0  501 -0.00000000000E+00 -0.00000000000E+00 -0.10173033955E+03  0.10173033958E+03  0.25500000000E-02 0. -1.
    5000001    1    1    2    0    0 -0.77022574300E+02 -0.61436723761E+02  0.72380778380E+02  0.20535560634E+03  0.16500000000E+03 0.  0.
   -5000001    1    1    2    0    0  0.77022574300E+02  0.61436723761E+02  0.22673836116E+03  0.29722421233E+03  0.16500000000E+03 0.  0.
<mgrwt>
<rscale>  0 0.40387401E+03</rscale>
<asrwt>0</asrwt>
<pdfrwt beam="1">  1        2 0.61669152E-01 0.40387401E+03</pdfrwt>
<pdfrwt beam="2">  1       -2 0.15650821E-01 0.40387401E+03</pdfrwt>
<totfact> 0.25555677E+03</totfact>
</mgrwt>
</event>
<event>
 4    1  0.8404100E-005  0.3909278E+03  0.7818608E-02  0.1046967E+00
         -2   -1    0    0    0  501 -0.00000000000E+00  0.00000000000E+00  0.20017467348E+03  0.20017467349E+03  0.25500000000E-02 0. -1.
          2   -1    0    0  501    0  0.00000000000E+00 -0.00000000000E+00 -0.19086401592E+03  0.19086401593E+03  0.25500000000E-02 0.  1.
    5000001    1    1    2    0    0  0.94698198401E+02 -0.23639350183E+02  0.42805027444E+02  0.19642769161E+03  0.16500000000E+03 0.  0.
   -5000001    1    1    2    0    0 -0.94698198401E+02  0.23639350183E+02 -0.33494369882E+02  0.19461099782E+03  0.16500000000E+03 0.  0.
<mgrwt>
<rscale>  0 0.39092783E+03</rscale>
<asrwt>0</asrwt>
<pdfrwt beam="1">  1        2 0.29363695E-01 0.39092783E+03</pdfrwt>
<pdfrwt beam="2">  1       -2 0.30796104E-01 0.39092783E+03</pdfrwt>
<totfact> 0.17620964E+03</totfact>
</mgrwt>
</event>
<event>
 4    1  0.8404100E-005  0.7217749E+03  0.7818608E-02  0.9680702E-01
         -2   -1    0    0    0  501 -0.00000000000E+00  0.00000000000E+00  0.52933620564E+03  0.52933620565E+03  0.25500000000E-02 0. -1.
          2   -1    0    0  501    0  0.00000000000E+00 -0.00000000000E+00 -0.24604355070E+03  0.24604355071E+03  0.25500000000E-02 0.  1.
    5000001    1    1    2    0    0 -0.30885513439E+03  0.17721274119E+02  0.23348978926E+03  0.42124579438E+03  0.16500000000E+03 0.  0.
   -5000001    1    1    2    0    0  0.30885513439E+03 -0.17721274119E+02  0.49802865686E+02  0.35413396198E+03  0.16500000000E+03 0.  0.
<mgrwt>
<rscale>  0 0.72177492E+03</rscale>
<asrwt>0</asrwt>
<pdfrwt beam="1">  1        2 0.37852854E-01 0.72177492E+03</pdfrwt>
<pdfrwt beam="2">  1       -2 0.81436338E-01 0.72177492E+03</pdfrwt>
<totfact> 0.18366167E+02</totfact>
</mgrwt>
</event>
<event>
 4    1  0.8404100E-005  0.8016634E+03  0.7818608E-02  0.9557613E-01
          2   -1    0    0  501    0  0.00000000000E+00  0.00000000000E+00  0.30189041538E+04  0.30189041538E+04  0.25500000000E-02 0.  1.
         -2   -1    0    0    0  501 -0.00000000000E+00 -0.00000000000E+00 -0.53219986207E+02  0.53219986268E+02  0.25500000000E-02 0. -1.
    5000001    1    1    2    0    0  0.27567213688E+03 -0.19517572312E+03  0.94973610698E+03  0.10214266312E+04  0.16500000000E+03 0.  0.
   -5000001    1    1    2    0    0 -0.27567213688E+03  0.19517572312E+03  0.20159480606E+04  0.20506975089E+04  0.16500000000E+03 0.  0.
<mgrwt>
<rscale>  0 0.80166336E+03</rscale>
<asrwt>0</asrwt>
<pdfrwt beam="1">  1        2 0.46444685E+00 0.80166336E+03</pdfrwt>
<pdfrwt beam="2">  1       -2 0.81876892E-02 0.80166336E+03</pdfrwt>
<totfact> 0.16862858E+02</totfact>
</mgrwt>
</event>
<event>
 4    1  0.8404100E-005  0.4610172E+03  0.7818608E-02  0.1024487E+00
         -2   -1    0    0    0  501 -0.00000000000E+00  0.00000000000E+00  0.17982841596E+02  0.17982841777E+02  0.25500000000E-02 0. -1.
          2   -1    0    0  501    0  0.00000000000E+00 -0.00000000000E+00 -0.29547172740E+04  0.29547172740E+04  0.25500000000E-02 0.  1.
    5000001    1    1    2    0    0 -0.13340120124E+03  0.87042341767E+02 -0.16177863611E+04  0.16339614316E+04  0.16500000000E+03 0.  0.
   -5000001    1    1    2    0    0  0.13340120124E+03 -0.87042341767E+02 -0.13189480714E+04  0.13387386842E+04  0.16500000000E+03 0.  0.
<mgrwt>
<rscale>  0 0.46101719E+03</rscale>
<asrwt>0</asrwt>
<pdfrwt beam="1">  1        2 0.45457150E+00 0.46101719E+03</pdfrwt>
<pdfrwt beam="2">  1       -2 0.27665934E-02 0.46101719E+03</pdfrwt>
<totfact> 0.10310880E+03</totfact>
</mgrwt>
</event>
<event>
 4    1  0.8404100E-005  0.4902419E+03  0.7818608E-02  0.1016358E+00
          2   -1    0    0  501    0  0.00000000000E+00  0.00000000000E+00  0.91709363305E+02  0.91709363340E+02  0.25500000000E-02 0.  1.
         -2   -1    0    0    0  501 -0.00000000000E+00 -0.00000000000E+00 -0.65515967844E+03  0.65515967844E+03  0.25500000000E-02 0. -1.
    5000001    1    1    2    0    0  0.66621771195E+02  0.16850110324E+03 -0.28981459881E+03  0.37953732870E+03  0.16500000000E+03 0.  0.
   -5000001    1    1    2    0    0 -0.66621771195E+02 -0.16850110324E+03 -0.27363571632E+03  0.36733171308E+03  0.16500000000E+03 0.  0.
<mgrwt>
<rscale>  0 0.49024189E+03</rscale>
<asrwt>0</asrwt>
<pdfrwt beam="1">  1        2 0.14109133E-01 0.49024189E+03</pdfrwt>
<pdfrwt beam="2">  1       -2 0.10079379E+00 0.49024189E+03</pdfrwt>
<totfact> 0.35428585E+02</totfact>
</mgrwt>
</event>
<event>
 4    1  0.8404100E-005  0.3677131E+03  0.7818608E-02  0.1055571E+00
          2   -1    0    0  501    0  0.00000000000E+00  0.00000000000E+00  0.14028519001E+03  0.14028519004E+03  0.25500000000E-02 0.  1.
         -2   -1    0    0    0  501 -0.00000000000E+00 -0.00000000000E+00 -0.24096082313E+03  0.24096082315E+03  0.25500000000E-02 0. -1.
    5000001    1    1    2    0    0 -0.55637677677E+02  0.31735318679E+02  0.12482386820E+01  0.17700067720E+03  0.16500000000E+03 0.  0.
   -5000001    1    1    2    0    0  0.55637677677E+02 -0.31735318679E+02 -0.10192387180E+03  0.20424533599E+03  0.16500000000E+03 0.  0.
<mgrwt>
<rscale>  0 0.36771312E+03</rscale>
<asrwt>0</asrwt>
<pdfrwt beam="1">  1        2 0.21582337E-01 0.36771312E+03</pdfrwt>
<pdfrwt beam="2">  1       -2 0.37070896E-01 0.36771312E+03</pdfrwt>
<totfact> 0.17628820E+03</totfact>
</mgrwt>
</event>
<event>
 4    1  0.8404100E-005  0.1074863E+04  0.7818608E-02  0.9230044E-01
         -2   -1    0    0    0  501 -0.00000000000E+00  0.00000000000E+00  0.43015870582E+03  0.43015870582E+03  0.25500000000E-02 0. -1.
          2   -1    0    0  501    0  0.00000000000E+00 -0.00000000000E+00 -0.67145589601E+03  0.67145589601E+03  0.25500000000E-02 0.  1.
    5000001    1    1    2    0    0 -0.56772073224E+02  0.49210734588E+03  0.98583433537E+01  0.52222111706E+03  0.16500000000E+03 0.  0.
   -5000001    1    1    2    0    0  0.56772073224E+02 -0.49210734588E+03 -0.25115553354E+03  0.57939348477E+03  0.16500000000E+03 0.  0.
<mgrwt>
<rscale>  0 0.10748630E+04</rscale>
<asrwt>0</asrwt>
<pdfrwt beam="1">  1        2 0.10330091E+00 0.10748630E+04</pdfrwt>
<pdfrwt beam="2">  1       -2 0.66178263E-01 0.10748630E+04</pdfrwt>
<totfact> 0.90224782E+01</totfact>
</mgrwt>
</event>
<event>
 4    1  0.8404100E-005  0.1209115E+04  0.7818608E-02  0.9104916E-01
          2   -1    0    0  501    0  0.00000000000E+00  0.00000000000E+00  0.15675993629E+04  0.15675993629E+04  0.25500000000E-02 0.  1.
         -2   -1    0    0    0  501 -0.00000000000E+00 -0.00000000000E+00 -0.23315236634E+03  0.23315236635E+03  0.25500000000E-02 0. -1.
    5000001    1    1    2    0    0 -0.47722864921E+03  0.31182580617E+03  0.49558375077E+03  0.77318223664E+03  0.16500000000E+03 0.  0.
   -5000001    1    1    2    0    0  0.47722864921E+03 -0.31182580617E+03  0.83886324576E+03  0.10275694926E+04  0.16500000000E+03 0.  0.
<mgrwt>
<rscale>  0 0.12091146E+04</rscale>
<asrwt>0</asrwt>
<pdfrwt beam="1">  1        2 0.24116913E+00 0.12091146E+04</pdfrwt>
<pdfrwt beam="2">  1       -2 0.35869595E-01 0.12091146E+04</pdfrwt>
<totfact> 0.83767374E+01</totfact>
</mgrwt>
</event>
<event>
 4    1  0.8404100E-005  0.6817174E+03  0.7818608E-02  0.9749019E-01
          2   -1    0    0  501    0  0.00000000000E+00  0.00000000000E+00  0.57703049478E+03  0.57703049478E+03  0.25500000000E-02 0.  1.
         -2   -1    0    0    0  501 -0.00000000000E+00 -0.00000000000E+00 -0.20134923341E+03  0.20134923343E+03  0.25500000000E-02 0. -1.
    5000001    1    1    2    0    0  0.21522376578E+03 -0.19813748329E+03  0.12146019304E+03  0.35715166265E+03  0.16500000000E+03 0.  0.
   -5000001    1    1    2    0    0 -0.21522376578E+03  0.19813748329E+03  0.25422106833E+03  0.42122806556E+03  0.16500000000E+03 0.  0.
<mgrwt>
<rscale>  0 0.68171738E+03</rscale>
<asrwt>0</asrwt>
<pdfrwt beam="1">  1        2 0.88773920E-01 0.68171738E+03</pdfrwt>
<pdfrwt beam="2">  1       -2 0.30976806E-01 0.68171738E+03</pdfrwt>
<totfact> 0.50520519E+02</totfact>
</mgrwt>
</event>
<event>
 4    1  0.8404100E-005  0.6131648E+03  0.7818608E-02  0.9878464E-01
          2   -1    0    0  501    0  0.00000000000E+00  0.00000000000E+00  0.10516897439E+04  0.10516897439E+04  0.25500000000E-02 0.  1.
         -2   -1    0    0    0  501 -0.00000000000E+00 -0.00000000000E+00 -0.89373098806E+02  0.89373098843E+02  0.25500000000E-02 0. -1.
    5000001    1    1    2    0    0 -0.11753744777E+03 -0.49748441492E+02  0.63055978332E+02  0.21792433426E+03  0.16500000000E+03 0.  0.
   -5000001    1    1    2    0    0  0.11753744777E+03  0.49748441492E+02  0.89926066673E+03  0.92313850845E+03  0.16500000000E+03 0.  0.
<mgrwt>
<rscale>  0 0.61316481E+03</rscale>
<asrwt>0</asrwt>
<pdfrwt beam="1">  1        2 0.16179842E+00 0.61316481E+03</pdfrwt>
<pdfrwt beam="2">  1       -2 0.13749707E-01 0.61316481E+03</pdfrwt>
<totfact> 0.95571015E+02</totfact>
</mgrwt>
</event>
<event>
 4    1  0.8404100E-005  0.3708643E+03  0.7818608E-02  0.1054363E+00
         -2   -1    0    0    0  501 -0.00000000000E+00  0.00000000000E+00  0.83643419987E+02  0.83643420026E+02  0.25500000000E-02 0. -1.
          2   -1    0    0  501    0  0.00000000000E+00 -0.00000000000E+00 -0.41109135996E+03  0.41109135997E+03  0.25500000000E-02 0.  1.
    5000001    1    1    2    0    0 -0.44217762028E+02 -0.68516680519E+02 -0.13358782213E+03  0.22742130993E+03  0.16500000000E+03 0.  0.
   -5000001    1    1    2    0    0  0.44217762028E+02  0.68516680519E+02 -0.19386011784E+03  0.26731347006E+03  0.16500000000E+03 0.  0.
<mgrwt>
<rscale>  0 0.37086433E+03</rscale>
<asrwt>0</asrwt>
<pdfrwt beam="1">  1        2 0.63244824E-01 0.37086433E+03</pdfrwt>
<pdfrwt beam="2">  1       -2 0.12868219E-01 0.37086433E+03</pdfrwt>
<totfact> 0.34332214E+03</totfact>
</mgrwt>
</event>
<event>
 4    1  0.8404100E-005  0.1734732E+04  0.7818608E-02  0.8741800E-01
         -2   -1    0    0    0  501 -0.00000000000E+00  0.00000000000E+00  0.30576495982E+03  0.30576495983E+03  0.25500000000E-02 0. -1.
          2   -1    0    0  501    0  0.00000000000E+00 -0.00000000000E+00 -0.24604645001E+04  0.24604645001E+04  0.25500000000E-02 0.  1.
    5000001    1    1    2    0    0  0.43144359755E+03  0.73412439729E+03 -0.10838507319E+04  0.13881785251E+04  0.16500000000E+03 0.  0.
   -5000001    1    1    2    0    0 -0.43144359755E+03 -0.73412439729E+03 -0.10708488084E+04  0.13780509348E+04  0.16500000000E+03 0.  0.
<mgrwt>
<rscale>  0 0.17347321E+04</rscale>
<asrwt>0</asrwt>
<pdfrwt beam="1">  1        2 0.37853299E+00 0.17347321E+04</pdfrwt>
<pdfrwt beam="2">  1       -2 0.47040764E-01 0.17347321E+04</pdfrwt>
<totfact> 0.14935309E+01</totfact>
</mgrwt>
</event>
<event>
 4    1  0.8404100E-005  0.5620755E+03  0.7818608E-02  0.9987369E-01
          2   -1    0    0  501    0  0.00000000000E+00  0.00000000000E+00  0.15020062881E+04  0.15020062881E+04  0.25500000000E-02 0.  1.
         -2   -1    0    0    0  501 -0.00000000000E+00 -0.00000000000E+00 -0.52584481336E+02  0.52584481398E+02  0.25500000000E-02 0. -1.
    5000001    1    1    2    0    0 -0.24401598805E+02  0.17296460427E+03  0.32157629463E+03  0.40143306493E+03  0.16500000000E+03 0.  0.
   -5000001    1    1    2    0    0  0.24401598805E+02 -0.17296460427E+03  0.11278455121E+04  0.11531577046E+04  0.16500000000E+03 0.  0.
<mgrwt>
<rscale>  0 0.56207552E+03</rscale>
<asrwt>0</asrwt>
<pdfrwt beam="1">  1        2 0.23107788E+00 0.56207552E+03</pdfrwt>
<pdfrwt beam="2">  1       -2 0.80899205E-02 0.56207552E+03</pdfrwt>
<totfact> 0.12475146E+03</totfact>
</mgrwt>
</event>
<event>
 4    1  0.8404100E-005  0.4280406E+03  0.7818608E-02  0.1034481E+00
         -2   -1    0    0    0  501 -0.00000000000E+00  0.00000000000E+00  0.11921964334E+03  0.11921964337E+03  0.25500000000E-02 0. -1.
          2   -1    0    0  501    0  0.00000000000E+00 -0.00000000000E+00 -0.38420427438E+03  0.38420427439E+03  0.25500000000E-02 0.  1.
    5000001    1    1    2    0    0  0.44741391688E+02  0.12513252854E+03 -0.16816081682E+03  0.27048660252E+03  0.16500000000E+03 0.  0.
   -5000001    1    1    2    0    0 -0.44741391688E+02 -0.12513252854E+03 -0.96823814220E+02  0.23293731524E+03  0.16500000000E+03 0.  0.
<mgrwt>
<rscale>  0 0.42804064E+03</rscale>
<asrwt>0</asrwt>
<pdfrwt beam="1">  1        2 0.59108349E-01 0.42804064E+03</pdfrwt>
<pdfrwt beam="2">  1       -2 0.18341484E-01 0.42804064E+03</pdfrwt>
<totfact> 0.20485933E+03</totfact>
</mgrwt>
</event>
<event>
 4    1  0.8404100E-005  0.4326053E+03  0.7818608E-02  0.1033040E+00
          2   -1    0    0  501    0  0.00000000000E+00  0.00000000000E+00  0.13814954263E+03  0.13814954265E+03  0.25500000000E-02 0.  1.
         -2   -1    0    0    0  501 -0.00000000000E+00 -0.00000000000E+00 -0.33866802967E+03  0.33866802968E+03  0.25500000000E-02 0. -1.
    5000001    1    1    2    0    0 -0.71217875037E+02  0.10665084809E+03 -0.38738663010E+02  0.21253722764E+03  0.16500000000E+03 0.  0.
   -5000001    1    1    2    0    0  0.71217875037E+02 -0.10665084809E+03 -0.16177982403E+03  0.26428034468E+03  0.16500000000E+03 0.  0.
<mgrwt>
<rscale>  0 0.43260529E+03</rscale>
<asrwt>0</asrwt>
<pdfrwt beam="1">  1        2 0.21253776E-01 0.43260529E+03</pdfrwt>
<pdfrwt beam="2">  1       -2 0.52102774E-01 0.43260529E+03</pdfrwt>
<totfact> 0.92160298E+02</totfact>
</mgrwt>
</event>
<event>
 4    1  0.8404100E-005  0.4891173E+03  0.7818608E-02  0.1016659E+00
         -2   -1    0    0    0  501 -0.00000000000E+00  0.00000000000E+00  0.71041815945E+02  0.71041815991E+02  0.25500000000E-02 0.  1.
          2   -1    0    0  501    0  0.00000000000E+00 -0.00000000000E+00 -0.84188351746E+03  0.84188351747E+03  0.25500000000E-02 0. -1.
    5000001    1    1    2    0    0  0.17105850965E+03  0.41512076761E+02 -0.31076959506E+03  0.39342979990E+03  0.16500000000E+03 0.  0.
   -5000001    1    1    2    0    0 -0.17105850965E+03 -0.41512076761E+02 -0.46007210646E+03  0.51949553356E+03  0.16500000000E+03 0.  0.
<mgrwt>
<rscale>  0 0.48911730E+03</rscale>
<asrwt>0</asrwt>
<pdfrwt beam="1">  1        2 0.12952053E+00 0.48911730E+03</pdfrwt>
<pdfrwt beam="2">  1       -2 0.10929511E-01 0.48911730E+03</pdfrwt>
<totfact> 0.19137867E+03</totfact>
</mgrwt>
</event>
<event>
 4    1  0.8404100E-005  0.3551415E+03  0.7818608E-02  0.1060524E+00
         -2   -1    0    0    0  501 -0.00000000000E+00  0.00000000000E+00  0.20205098403E+03  0.20205098404E+03  0.25500000000E-02 0.  1.
          2   -1    0    0  501    0  0.00000000000E+00 -0.00000000000E+00 -0.15605647727E+03  0.15605647729E+03  0.25500000000E-02 0. -1.
    5000001    1    1    2    0    0  0.26151902664E+02 -0.48648680931E+02  0.58729748794E+02  0.18364313100E+03  0.16500000000E+03 0.  0.
   -5000001    1    1    2    0    0 -0.26151902664E+02  0.48648680931E+02 -0.12735242033E+02  0.17446433033E+03  0.16500000000E+03 0.  0.
<mgrwt>
<rscale>  0 0.35514146E+03</rscale>
<asrwt>0</asrwt>
<pdfrwt beam="1">  1        2 0.24008689E-01 0.35514146E+03</pdfrwt>
<pdfrwt beam="2">  1       -2 0.31084767E-01 0.35514146E+03</pdfrwt>
<totfact> 0.21680188E+03</totfact>
</mgrwt>
</event>
<event>
 4    1  0.8404100E-005  0.3374216E+03  0.7818608E-02  0.1067899E+00
          2   -1    0    0  501    0  0.00000000000E+00  0.00000000000E+00  0.18920178823E+03  0.18920178825E+03  0.25500000000E-02 0.  1.
         -2   -1    0    0    0  501 -0.00000000000E+00 -0.00000000000E+00 -0.15043901278E+03  0.15043901280E+03  0.25500000000E-02 0. -1.
    5000001    1    1    2    0    0  0.37369524391E+01 -0.32499131290E+02  0.32434789784E+02  0.17131016881E+03  0.16500000000E+03 0.  0.
   -5000001    1    1    2    0    0 -0.37369524391E+01  0.32499131290E+02  0.63279856748E+01  0.16833063224E+03  0.16500000000E+03 0.  0.
<mgrwt>
<rscale>  0 0.33742158E+03</rscale>
<asrwt>0</asrwt>
<pdfrwt beam="1">  1        2 0.29107967E-01 0.33742158E+03</pdfrwt>
<pdfrwt beam="2">  1       -2 0.23144464E-01 0.33742158E+03</pdfrwt>
<totfact> 0.29638364E+03</totfact>
</mgrwt>
</event>
<event>
 4    1  0.8404100E-005  0.5638644E+03  0.7818608E-02  0.9983349E-01
          2   -1    0    0  501    0  0.00000000000E+00  0.00000000000E+00  0.24655592655E+03  0.24655592656E+03  0.25500000000E-02 0.  1.
         -2   -1    0    0    0  501 -0.00000000000E+00 -0.00000000000E+00 -0.32238430219E+03  0.32238430220E+03  0.25500000000E-02 0. -1.
    5000001    1    1    2    0    0 -0.35258058009E+01 -0.16028754659E+03  0.12651359600E+03  0.26255517301E+03  0.16500000000E+03 0.  0.
   -5000001    1    1    2    0    0  0.35258058009E+01  0.16028754659E+03 -0.20234197164E+03  0.30638505575E+03  0.16500000000E+03 0.  0.
<mgrwt>
<rscale>  0 0.56386438E+03</rscale>
<asrwt>0</asrwt>
<pdfrwt beam="1">  1        2 0.37931681E-01 0.56386438E+03</pdfrwt>
<pdfrwt beam="2">  1       -2 0.49597585E-01 0.56386438E+03</pdfrwt>
<totfact> 0.53002873E+02</totfact>
</mgrwt>
</event>
<event>
 4    1  0.8404100E-005  0.4004394E+03  0.7818608E-02  0.1043628E+00
         -2   -1    0    0    0  501 -0.00000000000E+00  0.00000000000E+00  0.27931977670E+02  0.27931977786E+02  0.25500000000E-02 0. -1.
          2   -1    0    0  501    0  0.00000000000E+00 -0.00000000000E+00 -0.14351983012E+04  0.14351983012E+04  0.25500000000E-02 0.  1.
    5000001    1    1    2    0    0  0.17481642010E+02  0.10910474938E+03 -0.79703597879E+03  0.82140173218E+03  0.16500000000E+03 0.  0.
   -5000001    1    1    2    0    0 -0.17481642010E+02 -0.10910474938E+03 -0.61023034471E+03  0.64172854678E+03  0.16500000000E+03 0.  0.
<mgrwt>
<rscale>  0 0.40043939E+03</rscale>
<asrwt>0</asrwt>
<pdfrwt beam="1">  1        2 0.22079968E+00 0.40043939E+03</pdfrwt>
<pdfrwt beam="2">  1       -2 0.42972284E-02 0.40043939E+03</pdfrwt>
<totfact> 0.36523653E+03</totfact>
</mgrwt>
</event>
<event>
 4    1  0.8404100E-005  0.4167315E+03  0.7818608E-02  0.1038135E+00
         -2   -1    0    0    0  501 -0.00000000000E+00  0.00000000000E+00  0.43567625722E+02  0.43567625797E+02  0.25500000000E-02 0.  1.
          2   -1    0    0  501    0  0.00000000000E+00 -0.00000000000E+00 -0.99652633625E+03  0.99652633625E+03  0.25500000000E-02 0. -1.
    5000001    1    1    2    0    0  0.52033154971E+02 -0.37512021644E+02 -0.20220189418E+03  0.26874747812E+03  0.16500000000E+03 0.  0.
   -5000001    1    1    2    0    0 -0.52033154971E+02  0.37512021644E+02 -0.75075681634E+03  0.77134648393E+03  0.16500000000E+03 0.  0.
<mgrwt>
<rscale>  0 0.41673150E+03</rscale>
<asrwt>0</asrwt>
<pdfrwt beam="1">  1        2 0.15331173E+00 0.41673150E+03</pdfrwt>
<pdfrwt beam="2">  1       -2 0.67027124E-02 0.41673150E+03</pdfrwt>
<totfact> 0.33022791E+03</totfact>
</mgrwt>
</event>
<event>
 4    1  0.8404100E-005  0.9183497E+03  0.7818608E-02  0.9402930E-01
          2   -1    0    0  501    0  0.00000000000E+00  0.00000000000E+00  0.13379609179E+04  0.13379609179E+04  0.25500000000E-02 0.  1.
         -2   -1    0    0    0  501 -0.00000000000E+00 -0.00000000000E+00 -0.15758422693E+03  0.15758422695E+03  0.25500000000E-02 0. -1.
    5000001    1    1    2    0    0 -0.28012196713E+03  0.10482047611E+03  0.10899083305E+04  0.11421824800E+04  0.16500000000E+03 0.  0.
   -5000001    1    1    2    0    0  0.28012196713E+03 -0.10482047611E+03  0.90468360483E+02  0.35336266488E+03  0.16500000000E+03 0.  0.
<mgrwt>
<rscale>  0 0.91834969E+03</rscale>
<asrwt>0</asrwt>
<pdfrwt beam="1">  1        2 0.20584014E+00 0.91834969E+03</pdfrwt>
<pdfrwt beam="2">  1       -2 0.24243727E-01 0.91834969E+03</pdfrwt>
<totfact> 0.23848410E+02</totfact>
</mgrwt>
</event>
<event>
 4    1  0.8404100E-005  0.5413195E+03  0.7818608E-02  0.1003523E+00
         -2   -1    0    0    0  501 -0.00000000000E+00  0.00000000000E+00  0.10070034680E+03  0.10070034683E+03  0.25500000000E-02 0. -1.
          2   -1    0    0  501    0  0.00000000000E+00 -0.00000000000E+00 -0.72747230538E+03  0.72747230539E+03  0.25500000000E-02 0.  1.
    5000001    1    1    2    0    0  0.20002427314E+03  0.66908471245E+02 -0.37352660851E+03  0.45960154551E+03  0.16500000000E+03 0.  0.
   -5000001    1    1    2    0    0 -0.20002427314E+03 -0.66908471245E+02 -0.25324535007E+03  0.36857110671E+03  0.16500000000E+03 0.  0.
<mgrwt>
<rscale>  0 0.54131955E+03</rscale>
<asrwt>0</asrwt>
<pdfrwt beam="1">  1        2 0.11191881E+00 0.54131955E+03</pdfrwt>
<pdfrwt beam="2">  1       -2 0.15492362E-01 0.54131955E+03</pdfrwt>
<totfact> 0.12978798E+03</totfact>
</mgrwt>
</event>
<event>
 4    1  0.8404100E-005  0.4428657E+03  0.7818608E-02  0.1029871E+00
         -2   -1    0    0    0  501 -0.00000000000E+00  0.00000000000E+00  0.61306860623E+03  0.61306860624E+03  0.25500000000E-02 0. -1.
          2   -1    0    0  501    0  0.00000000000E+00 -0.00000000000E+00 -0.79978832548E+02  0.79978832589E+02  0.25500000000E-02 0.  1.
    5000001    1    1    2    0    0 -0.25551390807E+02  0.13024289246E+03  0.16523033178E+03  0.26859290227E+03  0.16500000000E+03 0.  0.
   -5000001    1    1    2    0    0  0.25551390807E+02 -0.13024289246E+03  0.36785944191E+03  0.42445453656E+03  0.16500000000E+03 0.  0.
<mgrwt>
<rscale>  0 0.44286572E+03</rscale>
<asrwt>0</asrwt>
<pdfrwt beam="1">  1        2 0.12304436E-01 0.44286572E+03</pdfrwt>
<pdfrwt beam="2">  1       -2 0.94318244E-01 0.44286572E+03</pdfrwt>
<totfact> 0.48922557E+02</totfact>
</mgrwt>
</event>
<event>
 4    1  0.8404100E-005  0.4524794E+03  0.7818608E-02  0.1026985E+00
         -2   -1    0    0    0  501 -0.00000000000E+00  0.00000000000E+00  0.13519239386E+02  0.13519239626E+02  0.25500000000E-02 0. -1.
          2   -1    0    0  501    0  0.00000000000E+00 -0.00000000000E+00 -0.37860415548E+04  0.37860415548E+04  0.25500000000E-02 0.  1.
    5000001    1    1    2    0    0 -0.82635521468E+02  0.12555800205E+03 -0.21966126062E+04  0.22079233191E+04  0.16500000000E+03 0.  0.
   -5000001    1    1    2    0    0  0.82635521468E+02 -0.12555800205E+03 -0.15759097092E+04  0.15916374753E+04  0.16500000000E+03 0.  0.
<mgrwt>
<rscale>  0 0.45247940E+03</rscale>
<asrwt>0</asrwt>
<pdfrwt beam="1">  1        2 0.58246709E+00 0.45247940E+03</pdfrwt>
<pdfrwt beam="2">  1       -2 0.20798860E-02 0.45247940E+03</pdfrwt>
<totfact> 0.45163705E+02</totfact>
</mgrwt>
</event>
<event>
 4    1  0.8404100E-005  0.4225377E+03  0.7818608E-02  0.1036244E+00
          2   -1    0    0  501    0  0.00000000000E+00  0.00000000000E+00  0.18694754606E+03  0.18694754607E+03  0.25500000000E-02 0. -1.
         -2   -1    0    0    0  501 -0.00000000000E+00 -0.00000000000E+00 -0.23875428088E+03  0.23875428089E+03  0.25500000000E-02 0.  1.
    5000001    1    1    2    0    0  0.11469207124E+02 -0.11124787678E+03  0.44634449396E+02  0.20426665629E+03  0.16500000000E+03 0.  0.
   -5000001    1    1    2    0    0 -0.11469207124E+02  0.11124787678E+03 -0.96441184219E+02  0.22143517068E+03  0.16500000000E+03 0.  0.
<mgrwt>
<rscale>  0 0.42253770E+03</rscale>
<asrwt>0</asrwt>
<pdfrwt beam="1">  1        2 0.28761161E-01 0.42253770E+03</pdfrwt>
<pdfrwt beam="2">  1       -2 0.36731428E-01 0.42253770E+03</pdfrwt>
<totfact> 0.12983606E+03</totfact>
</mgrwt>
</event>
<event>
 4    1  0.8404100E-005  0.4369068E+03  0.7818608E-02  0.1031700E+00
          2   -1    0    0  501    0  0.00000000000E+00  0.00000000000E+00  0.13361104610E+03  0.13361104613E+03  0.25500000000E-02 0.  1.
         -2   -1    0    0    0  501 -0.00000000000E+00 -0.00000000000E+00 -0.35717020881E+03  0.35717020882E+03  0.25500000000E-02 0. -1.
    5000001    1    1    2    0    0 -0.66492542543E+02  0.11735274837E+03 -0.16569793137E+03  0.26995134788E+03  0.16500000000E+03 0.  0.
   -5000001    1    1    2    0    0  0.66492542543E+02 -0.11735274837E+03 -0.57861231342E+02  0.22082990707E+03  0.16500000000E+03 0.  0.
<mgrwt>
<rscale>  0 0.43690679E+03</rscale>
<asrwt>0</asrwt>
<pdfrwt beam="1">  1        2 0.20555546E-01 0.43690679E+03</pdfrwt>
<pdfrwt beam="2">  1       -2 0.54949262E-01 0.43690679E+03</pdfrwt>
<totfact> 0.85928840E+02</totfact>
</mgrwt>
</event>
<event>
 4    1  0.8404100E-005  0.4788252E+03  0.7818608E-02  0.1019459E+00
          2   -1    0    0  501    0  0.00000000000E+00  0.00000000000E+00  0.17053274629E+04  0.17053274630E+04  0.25500000000E-02 0.  1.
         -2   -1    0    0    0  501 -0.00000000000E+00 -0.00000000000E+00 -0.33611364179E+02  0.33611364276E+02  0.25500000000E-02 0. -1.
    5000001    1    1    2    0    0 -0.15038005373E+03  0.40853910954E+02  0.11126810266E+04  0.11355911543E+04  0.16500000000E+03 0.  0.
   -5000001    1    1    2    0    0  0.15038005373E+03 -0.40853910954E+02  0.55903507214E+03  0.60334767297E+03  0.16500000000E+03 0.  0.
<mgrwt>
<rscale>  0 0.47882516E+03</rscale>
<asrwt>0</asrwt>
<pdfrwt beam="1">  1        2 0.26235809E+00 0.47882516E+03</pdfrwt>
<pdfrwt beam="2">  1       -2 0.51709787E-02 0.47882516E+03</pdfrwt>
<totfact> 0.19579343E+03</totfact>
</mgrwt>
</event>
<event>
 4    1  0.8404100E-005  0.4882215E+03  0.7818608E-02  0.1016900E+00
         -2   -1    0    0    0  501 -0.00000000000E+00  0.00000000000E+00  0.35479259301E+02  0.35479259392E+02  0.25500000000E-02 0. -1.
          2   -1    0    0  501    0  0.00000000000E+00 -0.00000000000E+00 -0.16795746046E+04  0.16795746046E+04  0.25500000000E-02 0.  1.
    5000001    1    1    2    0    0 -0.69924264674E+02 -0.19032037598E+02 -0.14004808185E+04  0.14120280253E+04  0.16500000000E+03 0.  0.
   -5000001    1    1    2    0    0  0.69924264674E+02  0.19032037598E+02 -0.24361452677E+03  0.30302583866E+03  0.16500000000E+03 0.  0.
<mgrwt>
<rscale>  0 0.48822152E+03</rscale>
<asrwt>0</asrwt>
<pdfrwt beam="1">  1        2 0.25839603E+00 0.48822152E+03</pdfrwt>
<pdfrwt beam="2">  1       -2 0.54583489E-02 0.48822152E+03</pdfrwt>
<totfact> 0.18584236E+03</totfact>
</mgrwt>
</event>
<event>
 4    1  0.8404100E-005  0.4455701E+03  0.7818608E-02  0.1029051E+00
         -2   -1    0    0    0  501 -0.00000000000E+00  0.00000000000E+00  0.22883749408E+02  0.22883749550E+02  0.25500000000E-02 0. -1.
          2   -1    0    0  501    0  0.00000000000E+00 -0.00000000000E+00 -0.21689265703E+04  0.21689265703E+04  0.25500000000E-02 0.  1.
    5000001    1    1    2    0    0  0.53458304813E+02 -0.11393562052E+03 -0.14717142600E+04  0.14862728481E+04  0.16500000000E+03 0.  0.
   -5000001    1    1    2    0    0 -0.53458304813E+02  0.11393562052E+03 -0.67432856083E+03  0.70553747167E+03  0.16500000000E+03 0.  0.
<mgrwt>
<rscale>  0 0.44557007E+03</rscale>
<asrwt>0</asrwt>
<pdfrwt beam="1">  1        2 0.33368085E+00 0.44557007E+03</pdfrwt>
<pdfrwt beam="2">  1       -2 0.35205786E-02 0.44557007E+03</pdfrwt>
<totfact> 0.19914963E+03</totfact>
</mgrwt>
</event>
<event>
 4    1  0.8404100E-005  0.1114623E+04  0.7818608E-02  0.9191055E-01
         -2   -1    0    0    0  501 -0.00000000000E+00  0.00000000000E+00  0.27871183767E+03  0.27871183768E+03  0.25500000000E-02 0. -1.
          2   -1    0    0  501    0  0.00000000000E+00 -0.00000000000E+00 -0.11143992999E+04  0.11143992999E+04  0.25500000000E-02 0.  1.
    5000001    1    1    2    0    0 -0.23145973886E+03  0.32137613386E+03 -0.86240204438E+03  0.96323336543E+03  0.16500000000E+03 0.  0.
   -5000001    1    1    2    0    0  0.23145973886E+03 -0.32137613386E+03  0.26714582111E+02  0.42987777219E+03  0.16500000000E+03 0.  0.
<mgrwt>
<rscale>  0 0.11146233E+04</rscale>
<asrwt>0</asrwt>
<pdfrwt beam="1">  1        2 0.17144604E+00 0.11146233E+04</pdfrwt>
<pdfrwt beam="2">  1       -2 0.42878745E-01 0.11146233E+04</pdfrwt>
<totfact> 0.10912100E+02</totfact>
</mgrwt>
</event>
<event>
 4    1  0.8404100E-005  0.5942717E+03  0.7818608E-02  0.9917362E-01
         -2   -1    0    0    0  501 -0.00000000000E+00  0.00000000000E+00  0.72372540946E+02  0.72372540991E+02  0.25500000000E-02 0. -1.
          2   -1    0    0  501    0  0.00000000000E+00 -0.00000000000E+00 -0.12199337271E+04  0.12199337271E+04  0.25500000000E-02 0.  1.
    5000001    1    1    2    0    0 -0.22536178872E+03  0.99661390262E+02 -0.61413549639E+03  0.68198807648E+03  0.16500000000E+03 0.  0.
   -5000001    1    1    2    0    0  0.22536178872E+03 -0.99661390262E+02 -0.53342568977E+03  0.61031819163E+03  0.16500000000E+03 0.  0.
<mgrwt>
<rscale>  0 0.59427167E+03</rscale>
<asrwt>0</asrwt>
<pdfrwt beam="1">  1        2 0.18768210E+00 0.59427167E+03</pdfrwt>
<pdfrwt beam="2">  1       -2 0.11134238E-01 0.59427167E+03</pdfrwt>
<totfact> 0.10741098E+03</totfact>
</mgrwt>
</event>
<event>
 4    1  0.8404100E-005  0.5902396E+03  0.7818608E-02  0.9925865E-01
         -2   -1    0    0    0  501 -0.00000000000E+00  0.00000000000E+00  0.75172767074E+03  0.75172767075E+03  0.25500000000E-02 0. -1.
          2   -1    0    0  501    0  0.00000000000E+00 -0.00000000000E+00 -0.11586069395E+03  0.11586069398E+03  0.25500000000E-02 0.  1.
    5000001    1    1    2    0    0 -0.11422140560E+03  0.20211969025E+03  0.20434411876E+03  0.35054303239E+03  0.16500000000E+03 0.  0.
   -5000001    1    1    2    0    0  0.11422140560E+03 -0.20211969025E+03  0.43152285803E+03  0.51704533233E+03  0.16500000000E+03 0.  0.
<mgrwt>
<rscale>  0 0.59023958E+03</rscale>
<asrwt>0</asrwt>
<pdfrwt beam="1">  1        2 0.17824722E-01 0.59023958E+03</pdfrwt>
<pdfrwt beam="2">  1       -2 0.11565041E+00 0.59023958E+03</pdfrwt>
<totfact> 0.19194736E+02</totfact>
</mgrwt>
</event>
<event>
 4    1  0.8404100E-005  0.8409868E+03  0.7818608E-02  0.9502515E-01
          2   -1    0    0  501    0  0.00000000000E+00  0.00000000000E+00  0.19660591212E+04  0.19660591212E+04  0.25500000000E-02 0.  1.
         -2   -1    0    0    0  501 -0.00000000000E+00 -0.00000000000E+00 -0.89933569509E+02  0.89933569545E+02  0.25500000000E-02 0. -1.
    5000001    1    1    2    0    0 -0.37046878796E+03  0.17867846965E+02  0.66999489213E+03  0.78338020034E+03  0.16500000000E+03 0.  0.
   -5000001    1    1    2    0    0  0.37046878796E+03 -0.17867846965E+02  0.12061306596E+04  0.12726124904E+04  0.16500000000E+03 0.  0.
<mgrwt>
<rscale>  0 0.84098684E+03</rscale>
<asrwt>0</asrwt>
<pdfrwt beam="1">  1        2 0.30247063E+00 0.84098684E+03</pdfrwt>
<pdfrwt beam="2">  1       -2 0.13835934E-01 0.84098684E+03</pdfrwt>
<totfact> 0.28455986E+02</totfact>
</mgrwt>
</event>
<event>
 4    1  0.8404100E-005  0.7888681E+03  0.7818608E-02  0.9576271E-01
          2   -1    0    0  501    0  0.00000000000E+00  0.00000000000E+00  0.21614634410E+04  0.21614634410E+04  0.25500000000E-02 0.  1.
         -2   -1    0    0    0  501 -0.00000000000E+00 -0.00000000000E+00 -0.71978177959E+02  0.71978178004E+02  0.25500000000E-02 0. -1.
    5000001    1    1    2    0    0 -0.18361768239E+01  0.35482097334E+03  0.11849342695E+04  0.12478764032E+04  0.16500000000E+03 0.  0.
   -5000001    1    1    2    0    0  0.18361768239E+01 -0.35482097334E+03  0.90455099359E+03  0.98556521584E+03  0.16500000000E+03 0.  0.
<mgrwt>
<rscale>  0 0.78886805E+03</rscale>
<asrwt>0</asrwt>
<pdfrwt beam="1">  1        2 0.33253277E+00 0.78886805E+03</pdfrwt>
<pdfrwt beam="2">  1       -2 0.11073568E-01 0.78886805E+03</pdfrwt>
<totfact> 0.32313215E+02</totfact>
</mgrwt>
</event>
<event>
 4    1  0.8404100E-005  0.6667064E+03  0.7818608E-02  0.9775926E-01
          2   -1    0    0  501    0  0.00000000000E+00  0.00000000000E+00  0.24802892357E+03  0.24802892358E+03  0.25500000000E-02 0.  1.
         -2   -1    0    0    0  501 -0.00000000000E+00 -0.00000000000E+00 -0.44802980075E+03  0.44802980076E+03  0.25500000000E-02 0. -1.
    5000001    1    1    2    0    0  0.20761686803E+03 -0.20054551268E+03 -0.12505885804E+03  0.35522948149E+03  0.16500000000E+03 0.  0.
   -5000001    1    1    2    0    0 -0.20761686803E+03  0.20054551268E+03 -0.74942019143E+02  0.34082924285E+03  0.16500000000E+03 0.  0.
<mgrwt>
<rscale>  0 0.66670638E+03</rscale>
<asrwt>0</asrwt>
<pdfrwt beam="1">  1        2 0.38158296E-01 0.66670638E+03</pdfrwt>
<pdfrwt beam="2">  1       -2 0.68927662E-01 0.66670638E+03</pdfrwt>
<totfact> 0.26370006E+02</totfact>
</mgrwt>
</event>
<event>
 4    1  0.8404100E-005  0.4596147E+03  0.7818608E-02  0.1024893E+00
          2   -1    0    0  501    0  0.00000000000E+00  0.00000000000E+00  0.96991259888E+02  0.96991259922E+02  0.25500000000E-02 0.  1.
         -2   -1    0    0    0  501 -0.00000000000E+00 -0.00000000000E+00 -0.54449668585E+03  0.54449668585E+03  0.25500000000E-02 0. -1.
    5000001    1    1    2    0    0 -0.12973494731E+03  0.93390875103E+02 -0.21568563263E+03  0.31511633444E+03  0.16500000000E+03 0.  0.
   -5000001    1    1    2    0    0  0.12973494731E+03 -0.93390875103E+02 -0.23181979333E+03  0.32637161134E+03  0.16500000000E+03 0.  0.
<mgrwt>
<rscale>  0 0.45961471E+03</rscale>
<asrwt>0</asrwt>
<pdfrwt beam="1">  1        2 0.14921733E-01 0.45961471E+03</pdfrwt>
<pdfrwt beam="2">  1       -2 0.83768719E-01 0.45961471E+03</pdfrwt>
<totfact> 0.50684490E+02</totfact>
</mgrwt>
</event>
<event>
 4    1  0.8404100E-005  0.8964100E+03  0.7818608E-02  0.9430080E-01
         -2   -1    0    0    0  501 -0.00000000000E+00  0.00000000000E+00  0.10125983480E+03  0.10125983483E+03  0.25500000000E-02 0. -1.
          2   -1    0    0  501    0  0.00000000000E+00 -0.00000000000E+00 -0.19838835237E+04  0.19838835237E+04  0.25500000000E-02 0.  1.
    5000001    1    1    2    0    0 -0.20293680575E+03  0.35948468654E+03 -0.80870081124E+03  0.92284050035E+03  0.16500000000E+03 0.  0.
   -5000001    1    1    2    0    0  0.20293680575E+03 -0.35948468654E+03 -0.10739228777E+04  0.11623028582E+04  0.16500000000E+03 0.  0.
<mgrwt>
<rscale>  0 0.89640999E+03</rscale>
<asrwt>0</asrwt>
<pdfrwt beam="1">  1        2 0.30521282E+00 0.89640999E+03</pdfrwt>
<pdfrwt beam="2">  1       -2 0.15578438E-01 0.89640999E+03</pdfrwt>
<totfact> 0.22672656E+02</totfact>
</mgrwt>
</event>
<event>
 4    1  0.8404100E-005  0.6263632E+03  0.7818608E-02  0.9852172E-01
         -2   -1    0    0    0  501 -0.00000000000E+00  0.00000000000E+00  0.28638926733E+03  0.28638926735E+03  0.25500000000E-02 0. -1.
          2   -1    0    0  501    0  0.00000000000E+00 -0.00000000000E+00 -0.34248041611E+03  0.34248041612E+03  0.25500000000E-02 0.  1.
    5000001    1    1    2    0    0  0.15439258896E+03 -0.20760132803E+03 -0.90924719340E+02  0.32004325881E+03  0.16500000000E+03 0.  0.
   -5000001    1    1    2    0    0 -0.15439258896E+03  0.20760132803E+03  0.34833570566E+02  0.30882642465E+03  0.16500000000E+03 0.  0.
<mgrwt>
<rscale>  0 0.62636320E+03</rscale>
<asrwt>0</asrwt>
<pdfrwt beam="1">  1        2 0.52689295E-01 0.62636320E+03</pdfrwt>
<pdfrwt beam="2">  1       -2 0.44059887E-01 0.62636320E+03</pdfrwt>
<totfact> 0.46650887E+02</totfact>
</mgrwt>
</event>
<event>
 4    1  0.8404100E-005  0.3524958E+03  0.7818608E-02  0.1061595E+00
          2   -1    0    0  501    0  0.00000000000E+00  0.00000000000E+00  0.38211605073E+03  0.38211605073E+03  0.25500000000E-02 0.  1.
         -2   -1    0    0    0  501 -0.00000000000E+00 -0.00000000000E+00 -0.81292884901E+02  0.81292884941E+02  0.25500000000E-02 0. -1.
    5000001    1    1    2    0    0  0.57851742977E+02  0.97816043688E+01  0.17656660455E+03  0.24868307098E+03  0.16500000000E+03 0.  0.
   -5000001    1    1    2    0    0 -0.57851742977E+02 -0.97816043688E+01  0.12425656128E+03  0.21472586470E+03  0.16500000000E+03 0.  0.
<mgrwt>
<rscale>  0 0.35249577E+03</rscale>
<asrwt>0</asrwt>
<pdfrwt beam="1">  1        2 0.58787086E-01 0.35249577E+03</pdfrwt>
<pdfrwt beam="2">  1       -2 0.12506597E-01 0.35249577E+03</pdfrwt>
<totfact> 0.38937054E+03</totfact>
</mgrwt>
</event>
<event>
 4    1  0.8404100E-005  0.5373257E+03  0.7818608E-02  0.1004471E+00
         -2   -1    0    0    0  501 -0.00000000000E+00  0.00000000000E+00  0.11331451989E+03  0.11331451992E+03  0.25500000000E-02 0. -1.
          2   -1    0    0  501    0  0.00000000000E+00 -0.00000000000E+00 -0.63698576123E+03  0.63698576124E+03  0.25500000000E-02 0.  1.
    5000001    1    1    2    0    0 -0.66472152767E+02 -0.15065576875E+03 -0.44833743580E+03  0.50531887368E+03  0.16500000000E+03 0.  0.
   -5000001    1    1    2    0    0  0.66472152767E+02  0.15065576875E+03 -0.75333805544E+02  0.24498140748E+03  0.16500000000E+03 0.  0.
<mgrwt>
<rscale>  0 0.53732573E+03</rscale>
<asrwt>0</asrwt>
<pdfrwt beam="1">  1        2 0.97997807E-01 0.53732573E+03</pdfrwt>
<pdfrwt beam="2">  1       -2 0.17433003E-01 0.53732573E+03</pdfrwt>
<totfact> 0.12521181E+03</totfact>
</mgrwt>
</event>
<event>
 4    1  0.8404100E-005  0.4957063E+03  0.7818608E-02  0.1014906E+00
         -2   -1    0    0    0  501 -0.00000000000E+00  0.00000000000E+00  0.84721894750E+02  0.84721894788E+02  0.25500000000E-02 0. -1.
          2   -1    0    0  501    0  0.00000000000E+00 -0.00000000000E+00 -0.72509227550E+03  0.72509227551E+03  0.25500000000E-02 0.  1.
    5000001    1    1    2    0    0 -0.15509758716E+03  0.26653820921E+02 -0.47891499860E+03  0.53042460689E+03  0.16500000000E+03 0.  0.
   -5000001    1    1    2    0    0  0.15509758716E+03 -0.26653820921E+02 -0.16145538215E+03  0.27938956340E+03  0.16500000000E+03 0.  0.
<mgrwt>
<rscale>  0 0.49570633E+03</rscale>
<asrwt>0</asrwt>
<pdfrwt beam="1">  1        2 0.11155265E+00 0.49570633E+03</pdfrwt>
<pdfrwt beam="2">  1       -2 0.13034138E-01 0.49570633E+03</pdfrwt>
<totfact> 0.17396160E+03</totfact>
</mgrwt>
</event>
<event>
 4    1  0.8404100E-005  0.1084731E+04  0.7818608E-02  0.9220204E-01
          2   -1    0    0  501    0  0.00000000000E+00  0.00000000000E+00  0.15056832515E+04  0.15056832515E+04  0.25500000000E-02 0.  1.
         -2   -1    0    0    0  501 -0.00000000000E+00 -0.00000000000E+00 -0.19536651162E+03  0.19536651164E+03  0.25500000000E-02 0. -1.
    5000001    1    1    2    0    0 -0.40451942380E+03  0.19631937184E+03  0.10542211994E+04  0.11579225351E+04  0.16500000000E+03 0.  0.
   -5000001    1    1    2    0    0  0.40451942380E+03 -0.19631937184E+03  0.25609554046E+03  0.54312722804E+03  0.16500000000E+03 0.  0.
<mgrwt>
<rscale>  0 0.10847305E+04</rscale>
<asrwt>0</asrwt>
<pdfrwt beam="1">  1        2 0.23164358E+00 0.10847305E+04</pdfrwt>
<pdfrwt beam="2">  1       -2 0.30056386E-01 0.10847305E+04</pdfrwt>
<totfact> 0.12785260E+02</totfact>
</mgrwt>
</event>
<event>
 4    1  0.8404100E-005  0.5499053E+03  0.7818608E-02  0.1001516E+00
          2   -1    0    0  501    0  0.00000000000E+00  0.00000000000E+00  0.56784771023E+03  0.56784771024E+03  0.25500000000E-02 0.  1.
         -2   -1    0    0    0  501 -0.00000000000E+00 -0.00000000000E+00 -0.13313247679E+03  0.13313247682E+03  0.25500000000E-02 0. -1.
    5000001    1    1    2    0    0 -0.16352770785E+03  0.13881158696E+03  0.27933623992E+03  0.38892634629E+03  0.16500000000E+03 0.  0.
   -5000001    1    1    2    0    0  0.16352770785E+03 -0.13881158696E+03  0.15537899353E+03  0.31205384077E+03  0.16500000000E+03 0.  0.
<mgrwt>
<rscale>  0 0.54990535E+03</rscale>
<asrwt>0</asrwt>
<pdfrwt beam="1">  1        2 0.87361183E-01 0.54990535E+03</pdfrwt>
<pdfrwt beam="2">  1       -2 0.20481920E-01 0.54990535E+03</pdfrwt>
<totfact> 0.10873933E+03</totfact>
</mgrwt>
</event>
<event>
 4    1  0.8404100E-005  0.4744097E+03  0.7818608E-02  0.1020683E+00
          2   -1    0    0  501    0  0.00000000000E+00  0.00000000000E+00  0.47853157638E+02  0.47853157706E+02  0.25500000000E-02 0.  1.
         -2   -1    0    0    0  501 -0.00000000000E+00 -0.00000000000E+00 -0.11758083833E+04  0.11758083833E+04  0.25500000000E-02 0. -1.
    5000001    1    1    2    0    0  0.10820998386E+03  0.10756287545E+03 -0.75976886299E+03  0.79230858758E+03  0.16500000000E+03 0.  0.
   -5000001    1    1    2    0    0 -0.10820998386E+03 -0.10756287545E+03 -0.36818636270E+03  0.43135295346E+03  0.16500000000E+03 0.  0.
<mgrwt>
<rscale>  0 0.47440971E+03</rscale>
<asrwt>0</asrwt>
<pdfrwt beam="1">  1        2 0.73620251E-02 0.47440971E+03</pdfrwt>
<pdfrwt beam="2">  1       -2 0.18089358E+00 0.47440971E+03</pdfrwt>
<totfact> 0.18081951E+02</totfact>
</mgrwt>
</event>
<event>
 4    1  0.8404100E-005  0.4485817E+03  0.7818608E-02  0.1028146E+00
          2   -1    0    0  501    0  0.00000000000E+00  0.00000000000E+00  0.13958610401E+04  0.13958610401E+04  0.25500000000E-02 0.  1.
         -2   -1    0    0    0  501 -0.00000000000E+00 -0.00000000000E+00 -0.36039677678E+02  0.36039677768E+02  0.25500000000E-02 0. -1.
    5000001    1    1    2    0    0  0.13850547434E+03  0.15974802016E+02  0.87255954782E+03  0.89890162154E+03  0.16500000000E+03 0.  0.
   -5000001    1    1    2    0    0 -0.13850547434E+03 -0.15974802016E+02  0.48726181464E+03  0.53299909637E+03  0.16500000000E+03 0.  0.
<mgrwt>
<rscale>  0 0.44858169E+03</rscale>
<asrwt>0</asrwt>
<pdfrwt beam="1">  1        2 0.21474789E+00 0.44858169E+03</pdfrwt>
<pdfrwt beam="2">  1       -2 0.55445649E-02 0.44858169E+03</pdfrwt>
<totfact> 0.25937509E+03</totfact>
</mgrwt>
</event>
<event>
 4    1  0.8404100E-005  0.1145335E+04  0.7818608E-02  0.9162098E-01
         -2   -1    0    0    0  501 -0.00000000000E+00  0.00000000000E+00  0.50510548857E+03  0.50510548858E+03  0.25500000000E-02 0. -1.
          2   -1    0    0  501    0  0.00000000000E+00 -0.00000000000E+00 -0.64926638095E+03  0.64926638096E+03  0.25500000000E-02 0.  1.
    5000001    1    1    2    0    0 -0.18016240334E+03  0.51780245189E+03 -0.59937907178E+02  0.57566954364E+03  0.16500000000E+03 0.  0.
   -5000001    1    1    2    0    0  0.18016240334E+03 -0.51780245189E+03 -0.84222985199E+02  0.57870232589E+03  0.16500000000E+03 0.  0.
<mgrwt>
<rscale>  0 0.11453349E+04</rscale>
<asrwt>0</asrwt>
<pdfrwt beam="1">  1        2 0.99887135E-01 0.11453349E+04</pdfrwt>
<pdfrwt beam="2">  1       -2 0.77708537E-01 0.11453349E+04</pdfrwt>
<totfact> 0.65816906E+01</totfact>
</mgrwt>
</event>
<event>
 4    1  0.8404100E-005  0.1451663E+04  0.7818608E-02  0.8917248E-01
         -2   -1    0    0    0  501 -0.00000000000E+00  0.00000000000E+00  0.51929794547E+03  0.51929794548E+03  0.25500000000E-02 0. -1.
          2   -1    0    0  501    0  0.00000000000E+00 -0.00000000000E+00 -0.10145075043E+04  0.10145075043E+04  0.25500000000E-02 0.  1.
    5000001    1    1    2    0    0 -0.56193975050E+03 -0.36010054392E+03 -0.17177804917E+01  0.68751482580E+03  0.16500000000E+03 0.  0.
   -5000001    1    1    2    0    0  0.56193975050E+03  0.36010054392E+03 -0.49349177829E+03  0.84629062394E+03  0.16500000000E+03 0.  0.
<mgrwt>
<rscale>  0 0.14516634E+04</rscale>
<asrwt>0</asrwt>
<pdfrwt beam="1">  1        2 0.15607808E+00 0.14516634E+04</pdfrwt>
<pdfrwt beam="2">  1       -2 0.79891992E-01 0.14516634E+04</pdfrwt>
<totfact> 0.33154510E+01</totfact>
</mgrwt>
</event>
<event>
 4    1  0.8404100E-005  0.3630487E+03  0.7818608E-02  0.1057383E+00
          2   -1    0    0  501    0  0.00000000000E+00  0.00000000000E+00  0.16585010981E+04  0.16585010981E+04  0.25500000000E-02 0.  1.
         -2   -1    0    0    0  501 -0.00000000000E+00 -0.00000000000E+00 -0.19867993282E+02  0.19867993446E+02  0.25500000000E-02 0. -1.
    5000001    1    1    2    0    0  0.74547315145E+01 -0.31990039723E+02  0.50416744227E+03  0.53149670319E+03  0.16500000000E+03 0.  0.
   -5000001    1    1    2    0    0 -0.74547315145E+01  0.31990039723E+02  0.11344656625E+04  0.11468723883E+04  0.16500000000E+03 0.  0.
<mgrwt>
<rscale>  0 0.36304870E+03</rscale>
<asrwt>0</asrwt>
<pdfrwt beam="1">  1        2 0.25515396E+00 0.36304870E+03</pdfrwt>
<pdfrwt beam="2">  1       -2 0.30566151E-02 0.36304870E+03</pdfrwt>
<totfact> 0.46327661E+03</totfact>
</mgrwt>
</event>
<event>
 4    1  0.8404100E-005  0.8150418E+03  0.7818608E-02  0.9538496E-01
         -2   -1    0    0    0  501 -0.00000000000E+00  0.00000000000E+00  0.88645814341E+02  0.88645814377E+02  0.25500000000E-02 0. -1.
          2   -1    0    0  501    0  0.00000000000E+00 -0.00000000000E+00 -0.18734474563E+04  0.18734474563E+04  0.25500000000E-02 0.  1.
    5000001    1    1    2    0    0  0.10450242834E+03  0.29247432836E+03 -0.39677667681E+03  0.53020630092E+03  0.16500000000E+03 0.  0.
   -5000001    1    1    2    0    0 -0.10450242834E+03 -0.29247432836E+03 -0.13880249651E+04  0.14318869697E+04  0.16500000000E+03 0.  0.
<mgrwt>
<rscale>  0 0.81504178E+03</rscale>
<asrwt>0</asrwt>
<pdfrwt beam="1">  1        2 0.28822266E+00 0.81504178E+03</pdfrwt>
<pdfrwt beam="2">  1       -2 0.13637819E-01 0.81504178E+03</pdfrwt>
<totfact> 0.32819163E+02</totfact>
</mgrwt>
</event>
<event>
 4    1  0.8404100E-005  0.5324540E+03  0.7818608E-02  0.1005639E+00
          2   -1    0    0  501    0  0.00000000000E+00  0.00000000000E+00  0.55171581245E+03  0.55171581246E+03  0.25500000000E-02 0.  1.
         -2   -1    0    0    0  501 -0.00000000000E+00 -0.00000000000E+00 -0.12846616611E+03  0.12846616613E+03  0.25500000000E-02 0. -1.
    5000001    1    1    2    0    0 -0.16064601641E+03 -0.31195580911E+02  0.37755293984E+03  0.44334132363E+03  0.16500000000E+03 0.  0.
   -5000001    1    1    2    0    0  0.16064601641E+03  0.31195580911E+02  0.45696706501E+02  0.23684065496E+03  0.16500000000E+03 0.  0.
<mgrwt>
<rscale>  0 0.53245400E+03</rscale>
<asrwt>0</asrwt>
<pdfrwt beam="1">  1        2 0.84879356E-01 0.53245400E+03</pdfrwt>
<pdfrwt beam="2">  1       -2 0.19764025E-01 0.53245400E+03</pdfrwt>
<totfact> 0.11970506E+03</totfact>
</mgrwt>
</event>
<event>
 4    1  0.8404100E-005  0.3812551E+03  0.7818608E-02  0.1050471E+00
         -2   -1    0    0    0  501 -0.00000000000E+00  0.00000000000E+00  0.85820681552E+02  0.85820681590E+02  0.25500000000E-02 0. -1.
          2   -1    0    0  501    0  0.00000000000E+00 -0.00000000000E+00 -0.42342786359E+03  0.42342786360E+03  0.25500000000E-02 0.  1.
    5000001    1    1    2    0    0 -0.73599709733E+02 -0.60634158164E+02 -0.17484384028E+03  0.25862866603E+03  0.16500000000E+03 0.  0.
   -5000001    1    1    2    0    0  0.73599709733E+02  0.60634158164E+02 -0.16276334176E+03  0.25061987916E+03  0.16500000000E+03 0.  0.
<mgrwt>
<rscale>  0 0.38125513E+03</rscale>
<asrwt>0</asrwt>
<pdfrwt beam="1">  1        2 0.65142747E-01 0.38125513E+03</pdfrwt>
<pdfrwt beam="2">  1       -2 0.13203182E-01 0.38125513E+03</pdfrwt>
<totfact> 0.31871576E+03</totfact>
</mgrwt>
</event>
<event>
 4    1  0.8404100E-005  0.7019763E+03  0.7818608E-02  0.9713858E-01
          2   -1    0    0  501    0  0.00000000000E+00  0.00000000000E+00  0.23351503713E+04  0.23351503713E+04  0.25500000000E-02 0.  1.
         -2   -1    0    0    0  501 -0.00000000000E+00 -0.00000000000E+00 -0.52755775361E+02  0.52755775423E+02  0.25500000000E-02 0. -1.
    5000001    1    1    2    0    0  0.14432491742E+03 -0.24782040665E+03  0.74270505079E+03  0.81306852614E+03  0.16500000000E+03 0.  0.
   -5000001    1    1    2    0    0 -0.14432491742E+03  0.24782040665E+03  0.15396895451E+04  0.15748376206E+04  0.16500000000E+03 0.  0.
<mgrwt>
<rscale>  0 0.70197626E+03</rscale>
<asrwt>0</asrwt>
<pdfrwt beam="1">  1        2 0.35925401E+00 0.70197626E+03</pdfrwt>
<pdfrwt beam="2">  1       -2 0.81162708E-02 0.70197626E+03</pdfrwt>
<totfact> 0.43169134E+02</totfact>
</mgrwt>
</event>
<event>
 4    1  0.8404100E-005  0.7659572E+03  0.7818608E-02  0.9610643E-01
         -2   -1    0    0    0  501 -0.00000000000E+00  0.00000000000E+00  0.63058662251E+02  0.63058662302E+02  0.25500000000E-02 0. -1.
          2   -1    0    0  501    0  0.00000000000E+00 -0.00000000000E+00 -0.23259708939E+04  0.23259708939E+04  0.25500000000E-02 0.  1.
    5000001    1    1    2    0    0  0.26498315528E+03 -0.20889348815E+03 -0.89815380491E+03  0.97352854054E+03  0.16500000000E+03 0.  0.
   -5000001    1    1    2    0    0 -0.26498315528E+03  0.20889348815E+03 -0.13647584267E+04  0.14155010156E+04  0.16500000000E+03 0.  0.
<mgrwt>
<rscale>  0 0.76595721E+03</rscale>
<asrwt>0</asrwt>
<pdfrwt beam="1">  1        2 0.35784161E+00 0.76595721E+03</pdfrwt>
<pdfrwt beam="2">  1       -2 0.97013344E-02 0.76595721E+03</pdfrwt>
<totfact> 0.32583852E+02</totfact>
</mgrwt>
</event>
<event>
 4    1  0.8404100E-005  0.4603112E+03  0.7818608E-02  0.1024691E+00
         -2   -1    0    0    0  501 -0.00000000000E+00  0.00000000000E+00  0.78895974541E+02  0.78895974583E+02  0.25500000000E-02 0. -1.
          2   -1    0    0  501    0  0.00000000000E+00 -0.00000000000E+00 -0.67141065564E+03  0.67141065565E+03  0.25500000000E-02 0.  1.
    5000001    1    1    2    0    0 -0.83905548190E+02 -0.64660392500E+02 -0.49270762256E+03  0.53028945747E+03  0.16500000000E+03 0.  0.
   -5000001    1    1    2    0    0  0.83905548190E+02  0.64660392500E+02 -0.99807058544E+02  0.22001717276E+03  0.16500000000E+03 0.  0.
<mgrwt>
<rscale>  0 0.46031119E+03</rscale>
<asrwt>0</asrwt>
<pdfrwt beam="1">  1        2 0.10329394E+00 0.46031119E+03</pdfrwt>
<pdfrwt beam="2">  1       -2 0.12137843E-01 0.46031119E+03</pdfrwt>
<totfact> 0.21516084E+03</totfact>
</mgrwt>
</event>
<event>
 4    1  0.8404100E-005  0.7457862E+03  0.7818608E-02  0.9641984E-01
          2   -1    0    0  501    0  0.00000000000E+00  0.00000000000E+00  0.28788606553E+03  0.28788606554E+03  0.25500000000E-02 0.  1.
         -2   -1    0    0    0  501 -0.00000000000E+00 -0.00000000000E+00 -0.48300096115E+03  0.48300096116E+03  0.25500000000E-02 0. -1.
    5000001    1    1    2    0    0  0.28603114695E+03 -0.77690157257E+02  0.62491465505E+02  0.34493442974E+03  0.16500000000E+03 0.  0.
   -5000001    1    1    2    0    0 -0.28603114695E+03  0.77690157257E+02 -0.25760636113E+03  0.42595259696E+03  0.16500000000E+03 0.  0.
<mgrwt>
<rscale>  0 0.74578615E+03</rscale>
<asrwt>0</asrwt>
<pdfrwt beam="1">  1        2 0.44290164E-01 0.74578615E+03</pdfrwt>
<pdfrwt beam="2">  1       -2 0.74307840E-01 0.74578615E+03</pdfrwt>
<totfact> 0.18908073E+02</totfact>
</mgrwt>
</event>
<event>
 4    1  0.8404100E-005  0.4161399E+03  0.7818608E-02  0.1038330E+00
         -2   -1    0    0    0  501 -0.00000000000E+00  0.00000000000E+00  0.46516097774E+02  0.46516097844E+02  0.25500000000E-02 0. -1.
          2   -1    0    0  501    0  0.00000000000E+00 -0.00000000000E+00 -0.93071242259E+03  0.93071242259E+03  0.25500000000E-02 0.  1.
    5000001    1    1    2    0    0  0.35925248449E+02  0.74315941220E+02 -0.66800855803E+03  0.69301797682E+03  0.16500000000E+03 0.  0.
   -5000001    1    1    2    0    0 -0.35925248449E+02 -0.74315941220E+02 -0.21618776679E+03  0.28421054362E+03  0.16500000000E+03 0.  0.
<mgrwt>
<rscale>  0 0.41613993E+03</rscale>
<asrwt>0</asrwt>
<pdfrwt beam="1">  1        2 0.14318651E+00 0.41613993E+03</pdfrwt>
<pdfrwt beam="2">  1       -2 0.71563234E-02 0.41613993E+03</pdfrwt>
<totfact> 0.32816662E+03</totfact>
</mgrwt>
</event>
<event>
 4    1  0.8404100E-005  0.4001611E+03  0.7818608E-02  0.1043724E+00
         -2   -1    0    0    0  501 -0.00000000000E+00  0.00000000000E+00  0.20774275635E+02  0.20774275791E+02  0.25500000000E-02 0. -1.
          2   -1    0    0  501    0  0.00000000000E+00 -0.00000000000E+00 -0.19270090901E+04  0.19270090901E+04  0.25500000000E-02 0.  1.
    5000001    1    1    2    0    0 -0.86066590484E+02 -0.16998583246E+02 -0.60514033808E+03  0.63333738134E+03  0.16500000000E+03 0.  0.
   -5000001    1    1    2    0    0  0.86066590484E+02  0.16998583246E+02 -0.13010944764E+04  0.13144459845E+04  0.16500000000E+03 0.  0.
<mgrwt>
<rscale>  0 0.40016106E+03</rscale>
<asrwt>0</asrwt>
<pdfrwt beam="1">  1        2 0.29646280E+00 0.40016106E+03</pdfrwt>
<pdfrwt beam="2">  1       -2 0.31960439E-02 0.40016106E+03</pdfrwt>
<totfact> 0.31143984E+03</totfact>
</mgrwt>
</event>
<event>
 4    1  0.8404100E-005  0.3855536E+03  0.7818608E-02  0.1048900E+00
         -2   -1    0    0    0  501 -0.00000000000E+00  0.00000000000E+00  0.34367615445E+02  0.34367615540E+02  0.25500000000E-02 0. -1.
          2   -1    0    0  501    0  0.00000000000E+00 -0.00000000000E+00 -0.10813345978E+04  0.10813345978E+04  0.25500000000E-02 0.  1.
    5000001    1    1    2    0    0 -0.99104445280E+02 -0.68712714478E+01 -0.49944845597E+03  0.53529680142E+03  0.16500000000E+03 0.  0.
   -5000001    1    1    2    0    0  0.99104445280E+02  0.68712714478E+01 -0.54751852635E+03  0.58040541189E+03  0.16500000000E+03 0.  0.
<mgrwt>
<rscale>  0 0.38555358E+03</rscale>
<asrwt>0</asrwt>
<pdfrwt beam="1">  1        2 0.16635914E+00 0.38555358E+03</pdfrwt>
<pdfrwt beam="2">  1       -2 0.52873263E-02 0.38555358E+03</pdfrwt>
<totfact> 0.42303076E+03</totfact>
</mgrwt>
</event>
<event>
 4    1  0.8404100E-005  0.7976790E+03  0.7818608E-02  0.9563383E-01
         -2   -1    0    0    0  501 -0.00000000000E+00  0.00000000000E+00  0.19711334595E+03  0.19711334597E+03  0.25500000000E-02 0. -1.
          2   -1    0    0  501    0  0.00000000000E+00 -0.00000000000E+00 -0.80701264964E+03  0.80701264964E+03  0.25500000000E-02 0.  1.
    5000001    1    1    2    0    0  0.13272612821E+03 -0.20486992132E+03 -0.64333314486E+03  0.70759483113E+03  0.16500000000E+03 0.  0.
   -5000001    1    1    2    0    0 -0.13272612821E+03  0.20486992132E+03  0.33433841170E+02  0.29653116448E+03  0.16500000000E+03 0.  0.
<mgrwt>
<rscale>  0 0.79767904E+03</rscale>
<asrwt>0</asrwt>
<pdfrwt beam="1">  1        2 0.12415579E+00 0.79767904E+03</pdfrwt>
<pdfrwt beam="2">  1       -2 0.30325130E-01 0.79767904E+03</pdfrwt>
<totfact> 0.34367341E+02</totfact>
</mgrwt>
</event>
<event>
 4    1  0.8404100E-005  0.4147835E+03  0.7818608E-02  0.1038778E+00
         -2   -1    0    0    0  501 -0.00000000000E+00  0.00000000000E+00  0.12069288813E+03  0.12069288815E+03  0.25500000000E-02 0. -1.
          2   -1    0    0  501    0  0.00000000000E+00 -0.00000000000E+00 -0.35637012647E+03  0.35637012648E+03  0.25500000000E-02 0.  1.
    5000001    1    1    2    0    0  0.39509640831E+02  0.64828161857E+02 -0.26935674902E+01  0.18164789455E+03  0.16500000000E+03 0.  0.
   -5000001    1    1    2    0    0 -0.39509640831E+02 -0.64828161857E+02 -0.23298367086E+03  0.29541512008E+03  0.16500000000E+03 0.  0.
<mgrwt>
<rscale>  0 0.41478351E+03</rscale>
<asrwt>0</asrwt>
<pdfrwt beam="1">  1        2 0.54826173E-01 0.41478351E+03</pdfrwt>
<pdfrwt beam="2">  1       -2 0.18568137E-01 0.41478351E+03</pdfrwt>
<totfact> 0.21782601E+03</totfact>
</mgrwt>
</event>
<event>
 4    1  0.8404100E-005  0.7432499E+03  0.7818608E-02  0.9646000E-01
         -2   -1    0    0    0  501 -0.00000000000E+00  0.00000000000E+00  0.16803715404E+03  0.16803715406E+03  0.25500000000E-02 0.  1.
          2   -1    0    0  501    0  0.00000000000E+00 -0.00000000000E+00 -0.82187238239E+03  0.82187238239E+03  0.25500000000E-02 0. -1.
    5000001    1    1    2    0    0 -0.19078407359E+03  0.16668178591E+03 -0.39102810272E+02  0.30485309620E+03  0.16500000000E+03 0.  0.
   -5000001    1    1    2    0    0  0.19078407359E+03 -0.16668178591E+03 -0.61473241808E+03  0.68505644025E+03  0.16500000000E+03 0.  0.
<mgrwt>
<rscale>  0 0.74324988E+03</rscale>
<asrwt>0</asrwt>
<pdfrwt beam="1">  1        2 0.12644190E+00 0.74324988E+03</pdfrwt>
<pdfrwt beam="2">  1       -2 0.25851870E-01 0.74324988E+03</pdfrwt>
<totfact> 0.45056001E+02</totfact>
</mgrwt>
</event>
<event>
 4    1  0.8404100E-005  0.6302448E+03  0.7818608E-02  0.9844571E-01
         -2   -1    0    0    0  501 -0.00000000000E+00  0.00000000000E+00  0.90362905003E+02  0.90362905039E+02  0.25500000000E-02 0. -1.
          2   -1    0    0  501    0  0.00000000000E+00 -0.00000000000E+00 -0.10989257783E+04  0.10989257783E+04  0.25500000000E-02 0.  1.
    5000001    1    1    2    0    0 -0.22751292619E+03  0.14118985924E+03 -0.54108657323E+03  0.62585652323E+03  0.16500000000E+03 0.  0.
   -5000001    1    1    2    0    0  0.22751292619E+03 -0.14118985924E+03 -0.46747630011E+03  0.56343216015E+03  0.16500000000E+03 0.  0.
<mgrwt>
<rscale>  0 0.63024480E+03</rscale>
<asrwt>0</asrwt>
<pdfrwt beam="1">  1        2 0.16906549E+00 0.63024480E+03</pdfrwt>
<pdfrwt beam="2">  1       -2 0.13901986E-01 0.63024480E+03</pdfrwt>
<totfact> 0.87720277E+02</totfact>
</mgrwt>
</event>
<event>
 4    1  0.8404100E-005  0.5666506E+03  0.7818608E-02  0.9977118E-01
         -2   -1    0    0    0  501 -0.00000000000E+00  0.00000000000E+00  0.64923547371E+02  0.64923547421E+02  0.25500000000E-02 0. -1.
          2   -1    0    0  501    0  0.00000000000E+00 -0.00000000000E+00 -0.12364270518E+04  0.12364270518E+04  0.25500000000E-02 0.  1.
    5000001    1    1    2    0    0  0.60024833997E+02  0.10738355973E+03 -0.13857535542E+03  0.24811759052E+03  0.16500000000E+03 0.  0.
   -5000001    1    1    2    0    0 -0.60024833997E+02 -0.10738355973E+03 -0.10329281490E+04  0.10532330087E+04  0.16500000000E+03 0.  0.
<mgrwt>
<rscale>  0 0.56665062E+03</rscale>
<asrwt>0</asrwt>
<pdfrwt beam="1">  1        2 0.19021953E+00 0.56665062E+03</pdfrwt>
<pdfrwt beam="2">  1       -2 0.99882389E-02 0.56665062E+03</pdfrwt>
<totfact> 0.12549410E+03</totfact>
</mgrwt>
</event>
<event>
 4    1  0.8404100E-005  0.7291350E+03  0.7818608E-02  0.9668665E-01
          2   -1    0    0  501    0  0.00000000000E+00  0.00000000000E+00  0.26555298920E+04  0.26555298920E+04  0.25500000000E-02 0.  1.
         -2   -1    0    0    0  501 -0.00000000000E+00 -0.00000000000E+00 -0.50050078595E+02  0.50050078660E+02  0.25500000000E-02 0. -1.
    5000001    1    1    2    0    0 -0.16304187523E+03 -0.27931140386E+03  0.11804021597E+04  0.12349784500E+04  0.16500000000E+03 0.  0.
   -5000001    1    1    2    0    0  0.16304187523E+03  0.27931140386E+03  0.14250776538E+04  0.14706015207E+04  0.16500000000E+03 0.  0.
<mgrwt>
<rscale>  0 0.72913505E+03</rscale>
<asrwt>0</asrwt>
<pdfrwt beam="1">  1        2 0.40854289E+00 0.72913505E+03</pdfrwt>
<pdfrwt beam="2">  1       -2 0.77000153E-02 0.72913505E+03</pdfrwt>
<totfact> 0.30848840E+02</totfact>
</mgrwt>
</event>
<event>
 4    1  0.8404100E-005  0.8501436E+03  0.7818608E-02  0.9490144E-01
         -2   -1    0    0    0  501 -0.00000000000E+00  0.00000000000E+00  0.10408117215E+03  0.10408117218E+03  0.25500000000E-02 0. -1.
          2   -1    0    0  501    0  0.00000000000E+00 -0.00000000000E+00 -0.17360109340E+04  0.17360109340E+04  0.25500000000E-02 0.  1.
    5000001    1    1    2    0    0 -0.33847747261E+03  0.19189275303E+03 -0.91447046884E+03  0.10074080933E+04  0.16500000000E+03 0.  0.
   -5000001    1    1    2    0    0  0.33847747261E+03 -0.19189275303E+03 -0.71745929305E+03  0.83268401289E+03  0.16500000000E+03 0.  0.
<mgrwt>
<rscale>  0 0.85014364E+03</rscale>
<asrwt>0</asrwt>
<pdfrwt beam="1">  1        2 0.26707858E+00 0.85014364E+03</pdfrwt>
<pdfrwt beam="2">  1       -2 0.16012489E-01 0.85014364E+03</pdfrwt>
<totfact> 0.29672708E+02</totfact>
</mgrwt>
</event>
<event>
 4    1  0.8404100E-005  0.5697067E+03  0.7818608E-02  0.9970328E-01
         -2   -1    0    0    0  501 -0.00000000000E+00  0.00000000000E+00  0.50326957238E+02  0.50326957302E+02  0.25500000000E-02 0. -1.
          2   -1    0    0  501    0  0.00000000000E+00 -0.00000000000E+00 -0.16122856090E+04  0.16122856090E+04  0.25500000000E-02 0.  1.
    5000001    1    1    2    0    0  0.12915308289E+03  0.17589940834E+03 -0.54942748486E+03  0.61377250003E+03  0.16500000000E+03 0.  0.
   -5000001    1    1    2    0    0 -0.12915308289E+03 -0.17589940834E+03 -0.10125311669E+04  0.10488400663E+04  0.16500000000E+03 0.  0.
<mgrwt>
<rscale>  0 0.56970669E+03</rscale>
<asrwt>0</asrwt>
<pdfrwt beam="1">  1        2 0.24804390E+00 0.56970669E+03</pdfrwt>
<pdfrwt beam="2">  1       -2 0.77426100E-02 0.56970669E+03</pdfrwt>
<totfact> 0.11635749E+03</totfact>
</mgrwt>
</event>
<event>
 4    1  0.8404100E-005  0.4226895E+03  0.7818608E-02  0.1036195E+00
         -2   -1    0    0    0  501 -0.00000000000E+00  0.00000000000E+00  0.99113813383E+02  0.99113813416E+02  0.25500000000E-02 0. -1.
          2   -1    0    0  501    0  0.00000000000E+00 -0.00000000000E+00 -0.45065966298E+03  0.45065966298E+03  0.25500000000E-02 0.  1.
    5000001    1    1    2    0    0  0.10623607125E+03 -0.71632820151E+02 -0.13414718710E+03  0.24826967508E+03  0.16500000000E+03 0.  0.
   -5000001    1    1    2    0    0 -0.10623607125E+03  0.71632820151E+02 -0.21739866249E+03  0.30150380132E+03  0.16500000000E+03 0.  0.
<mgrwt>
<rscale>  0 0.42268947E+03</rscale>
<asrwt>0</asrwt>
<pdfrwt beam="1">  1        2 0.69332254E-01 0.42268947E+03</pdfrwt>
<pdfrwt beam="2">  1       -2 0.15248279E-01 0.42268947E+03</pdfrwt>
<totfact> 0.23449601E+03</totfact>
</mgrwt>
</event>
<event>
 4    1  0.8404100E-005  0.4866601E+03  0.7818608E-02  0.1017321E+00
          2   -1    0    0  501    0  0.00000000000E+00  0.00000000000E+00  0.14469099426E+04  0.14469099426E+04  0.25500000000E-02 0.  1.
         -2   -1    0    0    0  501 -0.00000000000E+00 -0.00000000000E+00 -0.40921354695E+02  0.40921354775E+02  0.25500000000E-02 0. -1.
    5000001    1    1    2    0    0  0.10938222510E+03  0.83949841642E+02  0.10512026957E+04  0.10729697826E+04  0.16500000000E+03 0.  0.
   -5000001    1    1    2    0    0 -0.10938222510E+03 -0.83949841642E+02  0.35478589224E+03  0.41486151474E+03  0.16500000000E+03 0.  0.
<mgrwt>
<rscale>  0 0.48666011E+03</rscale>
<asrwt>0</asrwt>
<pdfrwt beam="1">  1        2 0.22260152E+00 0.48666011E+03</pdfrwt>
<pdfrwt beam="2">  1       -2 0.62955933E-02 0.48666011E+03</pdfrwt>
<totfact> 0.19927869E+03</totfact>
</mgrwt>
</event>
<event>
 4    1  0.8404100E-005  0.3795192E+03  0.7818608E-02  0.1051112E+00
          2   -1    0    0  501    0  0.00000000000E+00  0.00000000000E+00  0.10395200162E+04  0.10395200162E+04  0.25500000000E-02 0.  1.
         -2   -1    0    0    0  501 -0.00000000000E+00 -0.00000000000E+00 -0.34639747537E+02  0.34639747631E+02  0.25500000000E-02 0. -1.
    5000001    1    1    2    0    0 -0.23088229658E+02  0.78592906944E+02  0.63132991680E+03  0.65765673054E+03  0.16500000000E+03 0.  0.
   -5000001    1    1    2    0    0  0.23088229658E+02 -0.78592906944E+02  0.37355035185E+03  0.41650303329E+03  0.16500000000E+03 0.  0.
<mgrwt>
<rscale>  0 0.37951923E+03</rscale>
<asrwt>0</asrwt>
<pdfrwt beam="1">  1        2 0.15992612E+00 0.37951923E+03</pdfrwt>
<pdfrwt beam="2">  1       -2 0.53291932E-02 0.37951923E+03</pdfrwt>
<totfact> 0.44294712E+03</totfact>
</mgrwt>
</event>
<event>
 4    1  0.8404100E-005  0.5629750E+03  0.7818608E-02  0.9985346E-01
          2   -1    0    0  501    0  0.00000000000E+00  0.00000000000E+00  0.18763341593E+03  0.18763341595E+03  0.25500000000E-02 0.  1.
         -2   -1    0    0    0  501 -0.00000000000E+00 -0.00000000000E+00 -0.42228735833E+03  0.42228735834E+03  0.25500000000E-02 0. -1.
    5000001    1    1    2    0    0 -0.72592636070E+02 -0.51365100705E+02 -0.34484415529E+03  0.39249274620E+03  0.16500000000E+03 0.  0.
   -5000001    1    1    2    0    0  0.72592636070E+02  0.51365100705E+02  0.11019021289E+03  0.21742802809E+03  0.16500000000E+03 0.  0.
<mgrwt>
<rscale>  0 0.56297502E+03</rscale>
<asrwt>0</asrwt>
<pdfrwt beam="1">  1        2 0.28866679E-01 0.56297502E+03</pdfrwt>
<pdfrwt beam="2">  1       -2 0.64967286E-01 0.56297502E+03</pdfrwt>
<totfact> 0.41024342E+02</totfact>
</mgrwt>
</event>
<event>
 4    1  0.8404100E-005  0.5056991E+03  0.7818608E-02  0.1012302E+00
         -2   -1    0    0    0  501 -0.00000000000E+00  0.00000000000E+00  0.60567859733E+02  0.60567859787E+02  0.25500000000E-02 0. -1.
          2   -1    0    0  501    0  0.00000000000E+00 -0.00000000000E+00 -0.10555582177E+04  0.10555582177E+04  0.25500000000E-02 0.  1.
    5000001    1    1    2    0    0 -0.33555142384E+01  0.14972836311E+03 -0.23376753802E+03  0.32295836268E+03  0.16500000000E+03 0.  0.
   -5000001    1    1    2    0    0  0.33555142384E+01 -0.14972836311E+03 -0.76122281991E+03  0.79316771477E+03  0.16500000000E+03 0.  0.
<mgrwt>
<rscale>  0 0.50569913E+03</rscale>
<asrwt>0</asrwt>
<pdfrwt beam="1">  1        2 0.16239356E+00 0.50569913E+03</pdfrwt>
<pdfrwt beam="2">  1       -2 0.93181330E-02 0.50569913E+03</pdfrwt>
<totfact> 0.18012816E+03</totfact>
</mgrwt>
</event>
<event>
 4    1  0.8404100E-005  0.5153963E+03  0.7818608E-02  0.1009837E+00
          2   -1    0    0  501    0  0.00000000000E+00  0.00000000000E+00  0.67589900512E+03  0.67589900512E+03  0.25500000000E-02 0.  1.
         -2   -1    0    0    0  501 -0.00000000000E+00 -0.00000000000E+00 -0.98251879124E+02  0.98251879157E+02  0.25500000000E-02 0. -1.
    5000001    1    1    2    0    0  0.14935941006E+03  0.12188080356E+03  0.35633536733E+03  0.43745063454E+03  0.16500000000E+03 0.  0.
   -5000001    1    1    2    0    0 -0.14935941006E+03 -0.12188080356E+03  0.22131175866E+03  0.33670024973E+03  0.16500000000E+03 0.  0.
<mgrwt>
<rscale>  0 0.51539634E+03</rscale>
<asrwt>0</asrwt>
<pdfrwt beam="1">  1        2 0.10398446E+00 0.51539634E+03</pdfrwt>
<pdfrwt beam="2">  1       -2 0.15115674E-01 0.51539634E+03</pdfrwt>
<totfact> 0.14831177E+03</totfact>
</mgrwt>
</event>
<event>
 4    1  0.8404100E-005  0.4440289E+03  0.7818608E-02  0.1029518E+00
         -2   -1    0    0    0  501 -0.00000000000E+00  0.00000000000E+00  0.20367044046E+03  0.20367044048E+03  0.25500000000E-02 0. -1.
          2   -1    0    0  501    0  0.00000000000E+00 -0.00000000000E+00 -0.24201064421E+03  0.24201064422E+03  0.25500000000E-02 0.  1.
    5000001    1    1    2    0    0  0.95606781740E+02  0.71194204878E+02  0.69794586372E+02  0.21518725754E+03  0.16500000000E+03 0.  0.
   -5000001    1    1    2    0    0 -0.95606781740E+02 -0.71194204878E+02 -0.10813479012E+03  0.23049382715E+03  0.16500000000E+03 0.  0.
<mgrwt>
<rscale>  0 0.44402889E+03</rscale>
<asrwt>0</asrwt>
<pdfrwt beam="1">  1        2 0.37232407E-01 0.44402889E+03</pdfrwt>
<pdfrwt beam="2">  1       -2 0.31333914E-01 0.44402889E+03</pdfrwt>
<totfact> 0.13141852E+03</totfact>
</mgrwt>
</event>
<event>
 4    1  0.8404100E-005  0.4869980E+03  0.7818608E-02  0.1017229E+00
         -2   -1    0    0    0  501 -0.00000000000E+00  0.00000000000E+00  0.34698118136E+02  0.34698118229E+02  0.25500000000E-02 0. -1.
          2   -1    0    0  501    0  0.00000000000E+00 -0.00000000000E+00 -0.17087886867E+04  0.17087886867E+04  0.25500000000E-02 0.  1.
    5000001    1    1    2    0    0 -0.10540203673E+03 -0.11102589395E+03 -0.11696338590E+04  0.11910939101E+04  0.16500000000E+03 0.  0.
   -5000001    1    1    2    0    0  0.10540203673E+03  0.11102589395E+03 -0.50445670958E+03  0.55239289488E+03  0.16500000000E+03 0.  0.
<mgrwt>
<rscale>  0 0.48699795E+03</rscale>
<asrwt>0</asrwt>
<pdfrwt beam="1">  1        2 0.26289050E+00 0.48699795E+03</pdfrwt>
<pdfrwt beam="2">  1       -2 0.53381734E-02 0.48699795E+03</pdfrwt>
<totfact> 0.18552478E+03</totfact>
</mgrwt>
</event>
<event>
 4    1  0.8404100E-005  0.4407459E+03  0.7818608E-02  0.1030518E+00
          2   -1    0    0  501    0  0.00000000000E+00  0.00000000000E+00  0.26195144667E+03  0.26195144669E+03  0.25500000000E-02 0.  1.
         -2   -1    0    0    0  501 -0.00000000000E+00 -0.00000000000E+00 -0.18539407795E+03  0.18539407796E+03  0.25500000000E-02 0. -1.
    5000001    1    1    2    0    0 -0.10992050293E+03  0.66731171152E+02 -0.32067709745E+02  0.21163389184E+03  0.16500000000E+03 0.  0.
   -5000001    1    1    2    0    0  0.10992050293E+03 -0.66731171152E+02  0.10862507847E+03  0.23571163281E+03  0.16500000000E+03 0.  0.
<mgrwt>
<rscale>  0 0.44074594E+03</rscale>
<asrwt>0</asrwt>
<pdfrwt beam="1">  1        2 0.40300222E-01 0.44074594E+03</pdfrwt>
<pdfrwt beam="2">  1       -2 0.28522166E-01 0.44074594E+03</pdfrwt>
<totfact> 0.14315900E+03</totfact>
</mgrwt>
</event>
<event>
 4    1  0.8404100E-005  0.4698363E+03  0.7818608E-02  0.1021966E+00
         -2   -1    0    0    0  501 -0.00000000000E+00  0.00000000000E+00  0.17687328529E+03  0.17687328531E+03  0.25500000000E-02 0. -1.
          2   -1    0    0  501    0  0.00000000000E+00 -0.00000000000E+00 -0.31201165305E+03  0.31201165306E+03  0.25500000000E-02 0.  1.
    5000001    1    1    2    0    0 -0.13638373088E+03 -0.96752278601E+02 -0.67596107404E+02  0.24444991143E+03  0.16500000000E+03 0.  0.
   -5000001    1    1    2    0    0  0.13638373088E+03  0.96752278601E+02 -0.67542260351E+02  0.24443502694E+03  0.16500000000E+03 0.  0.
<mgrwt>
<rscale>  0 0.46983625E+03</rscale>
<asrwt>0</asrwt>
<pdfrwt beam="1">  1        2 0.48001793E-01 0.46983625E+03</pdfrwt>
<pdfrwt beam="2">  1       -2 0.27211275E-01 0.46983625E+03</pdfrwt>
<totfact> 0.12879096E+03</totfact>
</mgrwt>
</event>
<event>
 4    1  0.8404100E-005  0.4534792E+03  0.7818608E-02  0.1026690E+00
         -2   -1    0    0    0  501 -0.00000000000E+00  0.00000000000E+00  0.67187346597E+02  0.67187346645E+02  0.25500000000E-02 0. -1.
          2   -1    0    0  501    0  0.00000000000E+00 -0.00000000000E+00 -0.76518647182E+03  0.76518647182E+03  0.25500000000E-02 0.  1.
    5000001    1    1    2    0    0  0.14457567600E+03 -0.55833874504E+02 -0.37267012448E+03  0.43603620184E+03  0.16500000000E+03 0.  0.
   -5000001    1    1    2    0    0 -0.14457567600E+03  0.55833874504E+02 -0.32532900074E+03  0.39633761663E+03  0.16500000000E+03 0.  0.
<mgrwt>
<rscale>  0 0.45347921E+03</rscale>
<asrwt>0</asrwt>
<pdfrwt beam="1">  1        2 0.11772099E+00 0.45347921E+03</pdfrwt>
<pdfrwt beam="2">  1       -2 0.10336515E-01 0.45347921E+03</pdfrwt>
<totfact> 0.23726741E+03</totfact>
</mgrwt>
</event>
<event>
 4    1  0.8404100E-005  0.4099478E+03  0.7818608E-02  0.1040389E+00
         -2   -1    0    0    0  501 -0.00000000000E+00  0.00000000000E+00  0.67578996573E+02  0.67578996621E+02  0.25500000000E-02 0. -1.
          2   -1    0    0  501    0  0.00000000000E+00 -0.00000000000E+00 -0.62170646165E+03  0.62170646166E+03  0.25500000000E-02 0.  1.
    5000001    1    1    2    0    0 -0.10718234710E+03 -0.55084830462E+02 -0.24959436003E+03  0.32255966678E+03  0.16500000000E+03 0.  0.
   -5000001    1    1    2    0    0  0.10718234710E+03  0.55084830462E+02 -0.30453310505E+03  0.36672579149E+03  0.16500000000E+03 0.  0.
<mgrwt>
<rscale>  0 0.40994780E+03</rscale>
<asrwt>0</asrwt>
<pdfrwt beam="1">  1        2 0.95647144E-01 0.40994780E+03</pdfrwt>
<pdfrwt beam="2">  1       -2 0.10396769E-01 0.40994780E+03</pdfrwt>
<totfact> 0.30339038E+03</totfact>
</mgrwt>
</event>
<event>
 4    1  0.8404100E-005  0.3743732E+03  0.7818608E-02  0.1053033E+00
         -2   -1    0    0    0  501 -0.00000000000E+00  0.00000000000E+00  0.21294970728E+03  0.21294970730E+03  0.25500000000E-02 0. -1.
          2   -1    0    0  501    0  0.00000000000E+00 -0.00000000000E+00 -0.16454040283E+03  0.16454040284E+03  0.25500000000E-02 0.  1.
    5000001    1    1    2    0    0 -0.29031326765E+02 -0.38958589418E+02 -0.50256221202E+02  0.17919619804E+03  0.16500000000E+03 0.  0.
   -5000001    1    1    2    0    0  0.29031326765E+02  0.38958589418E+02  0.98665525662E+02  0.19829391210E+03  0.16500000000E+03 0.  0.
<mgrwt>
<rscale>  0 0.37437324E+03</rscale>
<asrwt>0</asrwt>
<pdfrwt beam="1">  1        2 0.25313908E-01 0.37437324E+03</pdfrwt>
<pdfrwt beam="2">  1       -2 0.32761493E-01 0.37437324E+03</pdfrwt>
<totfact> 0.18548164E+03</totfact>
</mgrwt>
</event>
<event>
 4    1  0.8404100E-005  0.5102171E+03  0.7818608E-02  0.1011146E+00
          2   -1    0    0  501    0  0.00000000000E+00  0.00000000000E+00  0.18368859772E+04  0.18368859772E+04  0.25500000000E-02 0.  1.
         -2   -1    0    0    0  501 -0.00000000000E+00 -0.00000000000E+00 -0.35429723087E+02  0.35429723178E+02  0.25500000000E-02 0. -1.
    5000001    1    1    2    0    0  0.35573712433E+02  0.14357715134E+03  0.43690651194E+03  0.48988997497E+03  0.16500000000E+03 0.  0.
   -5000001    1    1    2    0    0 -0.35573712433E+02 -0.14357715134E+03  0.13645497422E+04  0.13824257254E+04  0.16500000000E+03 0.  0.
<mgrwt>
<rscale>  0 0.51021706E+03</rscale>
<asrwt>0</asrwt>
<pdfrwt beam="1">  1        2 0.28259779E+00 0.51021706E+03</pdfrwt>
<pdfrwt beam="2">  1       -2 0.54507277E-02 0.51021706E+03</pdfrwt>
<totfact> 0.15309538E+03</totfact>
</mgrwt>
</event>
<event>
 4    1  0.8404100E-005  0.1711772E+04  0.7818608E-02  0.8754679E-01
          2   -1    0    0  501    0  0.00000000000E+00  0.00000000000E+00  0.16877248742E+04  0.16877248742E+04  0.25500000000E-02 0.  1.
         -2   -1    0    0    0  501 -0.00000000000E+00 -0.00000000000E+00 -0.43404026444E+03  0.43404026445E+03  0.25500000000E-02 0. -1.
    5000001    1    1    2    0    0  0.54043360298E+03  0.39976174531E+03  0.28388158358E+01  0.69217843878E+03  0.16500000000E+03 0.  0.
   -5000001    1    1    2    0    0 -0.54043360298E+03 -0.39976174531E+03  0.12508457939E+04  0.14295866998E+04  0.16500000000E+03 0.  0.
<mgrwt>
<rscale>  0 0.17117717E+04</rscale>
<asrwt>0</asrwt>
<pdfrwt beam="1">  1        2 0.25964998E+00 0.17117717E+04</pdfrwt>
<pdfrwt beam="2">  1       -2 0.66775426E-01 0.17117717E+04</pdfrwt>
<totfact> 0.19506208E+01</totfact>
</mgrwt>
</event>
<event>
 4    1  0.8404100E-005  0.7412743E+03  0.7818608E-02  0.9649140E-01
         -2   -1    0    0    0  501 -0.00000000000E+00  0.00000000000E+00  0.71746102590E+03  0.71746102590E+03  0.25500000000E-02 0. -1.
          2   -1    0    0  501    0  0.00000000000E+00 -0.00000000000E+00 -0.19146948226E+03  0.19146948228E+03  0.25500000000E-02 0.  1.
    5000001    1    1    2    0    0  0.33958081064E+02 -0.29209453669E+03  0.45166121146E+03  0.56364458621E+03  0.16500000000E+03 0.  0.
   -5000001    1    1    2    0    0 -0.33958081064E+02  0.29209453669E+03  0.74330332175E+02  0.34528592197E+03  0.16500000000E+03 0.  0.
<mgrwt>
<rscale>  0 0.74127428E+03</rscale>
<asrwt>0</asrwt>
<pdfrwt beam="1">  1        2 0.29456844E-01 0.74127428E+03</pdfrwt>
<pdfrwt beam="2">  1       -2 0.11037862E+00 0.74127428E+03</pdfrwt>
<totfact> 0.11949347E+02</totfact>
</mgrwt>
</event>
<event>
 4    1  0.8404100E-005  0.6986438E+03  0.7818608E-02  0.9719554E-01
          2   -1    0    0  501    0  0.00000000000E+00  0.00000000000E+00  0.90092650879E+03  0.90092650879E+03  0.25500000000E-02 0.  1.
         -2   -1    0    0    0  501 -0.00000000000E+00 -0.00000000000E+00 -0.13544478701E+03  0.13544478704E+03  0.25500000000E-02 0. -1.
    5000001    1    1    2    0    0 -0.12475001426E+03 -0.27422415566E+03  0.47701987911E+03  0.58782175756E+03  0.16500000000E+03 0.  0.
   -5000001    1    1    2    0    0  0.12475001426E+03  0.27422415566E+03  0.28846184267E+03  0.44854953827E+03  0.16500000000E+03 0.  0.
<mgrwt>
<rscale>  0 0.69864383E+03</rscale>
<asrwt>0</asrwt>
<pdfrwt beam="1">  1        2 0.13860407E+00 0.69864383E+03</pdfrwt>
<pdfrwt beam="2">  1       -2 0.20837660E-01 0.69864383E+03</pdfrwt>
<totfact> 0.58491803E+02</totfact>
</mgrwt>
</event>
<event>
 4    1  0.8404100E-005  0.3868863E+03  0.7818608E-02  0.1048418E+00
          2   -1    0    0  501    0  0.00000000000E+00  0.00000000000E+00  0.13593176511E+03  0.13593176513E+03  0.25500000000E-02 0.  1.
         -2   -1    0    0    0  501 -0.00000000000E+00 -0.00000000000E+00 -0.27528703379E+03  0.27528703381E+03  0.25500000000E-02 0. -1.
    5000001    1    1    2    0    0  0.62784382206E+02 -0.55405549157E+02 -0.12964966868E+03  0.22593293278E+03  0.16500000000E+03 0.  0.
   -5000001    1    1    2    0    0 -0.62784382206E+02  0.55405549157E+02 -0.97056000039E+01  0.18528586616E+03  0.16500000000E+03 0.  0.
<mgrwt>
<rscale>  0 0.38688630E+03</rscale>
<asrwt>0</asrwt>
<pdfrwt beam="1">  1        2 0.20912579E-01 0.38688630E+03</pdfrwt>
<pdfrwt beam="2">  1       -2 0.42351851E-01 0.38688630E+03</pdfrwt>
<totfact> 0.14162889E+03</totfact>
</mgrwt>
</event>
<event>
 4    1  0.8404100E-005  0.7764861E+03  0.7818608E-02  0.9594690E-01
          2   -1    0    0  501    0  0.00000000000E+00  0.00000000000E+00  0.20689745767E+04  0.20689745767E+04  0.25500000000E-02 0. -1.
         -2   -1    0    0    0  501 -0.00000000000E+00 -0.00000000000E+00 -0.72853804631E+02  0.72853804676E+02  0.25500000000E-02 0.  1.
    5000001    1    1    2    0    0 -0.17581460505E+03 -0.30387957168E+03  0.95409068722E+03  0.10299357305E+04  0.16500000000E+03 0.  0.
   -5000001    1    1    2    0    0  0.17581460505E+03  0.30387957168E+03  0.10420300848E+04  0.11118926509E+04  0.16500000000E+03 0.  0.
<mgrwt>
<rscale>  0 0.77648611E+03</rscale>
<asrwt>0</asrwt>
<pdfrwt beam="1">  1        2 0.31830379E+00 0.77648611E+03</pdfrwt>
<pdfrwt beam="2">  1       -2 0.11208277E-01 0.77648611E+03</pdfrwt>
<totfact> 0.35640698E+02</totfact>
</mgrwt>
</event>
<event>
 4    1  0.8404100E-005  0.6350353E+03  0.7818608E-02  0.9835272E-01
          2   -1    0    0  501    0  0.00000000000E+00  0.00000000000E+00  0.63852001914E+03  0.63852001914E+03  0.25500000000E-02 0.  1.
         -2   -1    0    0    0  501 -0.00000000000E+00 -0.00000000000E+00 -0.15789239262E+03  0.15789239264E+03  0.25500000000E-02 0. -1.
    5000001    1    1    2    0    0 -0.38799633022E+01  0.25309532436E+03  0.11794740859E+03  0.32435919676E+03  0.16500000000E+03 0.  0.
   -5000001    1    1    2    0    0  0.38799633022E+01 -0.25309532436E+03  0.36268021793E+03  0.47205321502E+03  0.16500000000E+03 0.  0.
<mgrwt>
<rscale>  0 0.63503529E+03</rscale>
<asrwt>0</asrwt>
<pdfrwt beam="1">  1        2 0.98233850E-01 0.63503529E+03</pdfrwt>
<pdfrwt beam="2">  1       -2 0.24291137E-01 0.63503529E+03</pdfrwt>
<totfact> 0.69780553E+02</totfact>
</mgrwt>
</event>
<event>
 4    1  0.8404100E-005  0.4168641E+03  0.7818608E-02  0.1038092E+00
          2   -1    0    0  501    0  0.00000000000E+00  0.00000000000E+00  0.35987198079E+03  0.35987198080E+03  0.25500000000E-02 0.  1.
         -2   -1    0    0    0  501 -0.00000000000E+00 -0.00000000000E+00 -0.12072050866E+03  0.12072050869E+03  0.25500000000E-02 0. -1.
    5000001    1    1    2    0    0  0.42800054987E+02 -0.11965008337E+03  0.12928603029E+03  0.24512826191E+03  0.16500000000E+03 0.  0.
   -5000001    1    1    2    0    0 -0.42800054987E+02  0.11965008337E+03  0.10986544185E+03  0.23546422758E+03  0.16500000000E+03 0.  0.
<mgrwt>
<rscale>  0 0.41686414E+03</rscale>
<asrwt>0</asrwt>
<pdfrwt beam="1">  1        2 0.55364920E-01 0.41686414E+03</pdfrwt>
<pdfrwt beam="2">  1       -2 0.18572386E-01 0.41686414E+03</pdfrwt>
<totfact> 0.21542758E+03</totfact>
</mgrwt>
</event>
<event>
 4    1  0.8404100E-005  0.1026432E+04  0.7818608E-02  0.9280020E-01
         -2   -1    0    0    0  501 -0.00000000000E+00  0.00000000000E+00  0.10289652684E+03  0.10289652687E+03  0.25500000000E-02 0.  1.
          2   -1    0    0  501    0  0.00000000000E+00 -0.00000000000E+00 -0.25597636601E+04  0.25597636601E+04  0.25500000000E-02 0. -1.
    5000001    1    1    2    0    0 -0.32403039018E+03 -0.29378636205E+03 -0.17778649886E+04  0.18382967764E+04  0.16500000000E+03 0.  0.
   -5000001    1    1    2    0    0  0.32403039018E+03  0.29378636205E+03 -0.67900214461E+03  0.82436341056E+03  0.16500000000E+03 0.  0.
<mgrwt>
<rscale>  0 0.10264322E+04</rscale>
<asrwt>0</asrwt>
<pdfrwt beam="1">  1        2 0.39380975E+00 0.10264322E+04</pdfrwt>
<pdfrwt beam="2">  1       -2 0.15830237E-01 0.10264322E+04</pdfrwt>
<totfact> 0.10393065E+02</totfact>
</mgrwt>
</event>
<event>
 4    1  0.8404100E-005  0.3808545E+03  0.7818608E-02  0.1050618E+00
         -2   -1    0    0    0  501 -0.00000000000E+00  0.00000000000E+00  0.34960965858E+02  0.34960965951E+02  0.25500000000E-02 0. -1.
          2   -1    0    0  501    0  0.00000000000E+00 -0.00000000000E+00 -0.10372291254E+04  0.10372291254E+04  0.25500000000E-02 0.  1.
    5000001    1    1    2    0    0  0.37444999819E+01 -0.80638316128E+02 -0.64248440409E+03  0.66822733318E+03  0.16500000000E+03 0.  0.
   -5000001    1    1    2    0    0 -0.37444999819E+01  0.80638316128E+02 -0.35978375547E+03  0.40396275819E+03  0.16500000000E+03 0.  0.
<mgrwt>
<rscale>  0 0.38085447E+03</rscale>
<asrwt>0</asrwt>
<pdfrwt beam="1">  1        2 0.15957369E+00 0.38085447E+03</pdfrwt>
<pdfrwt beam="2">  1       -2 0.53786109E-02 0.38085447E+03</pdfrwt>
<totfact> 0.43812311E+03</totfact>
</mgrwt>
</event>
<event>
 4    1  0.8404100E-005  0.6750866E+03  0.7818608E-02  0.9760812E-01
          2   -1    0    0  501    0  0.00000000000E+00  0.00000000000E+00  0.96265692059E+03  0.96265692059E+03  0.25500000000E-02 0.  1.
         -2   -1    0    0    0  501 -0.00000000000E+00 -0.00000000000E+00 -0.11835521566E+03  0.11835521569E+03  0.25500000000E-02 0. -1.
    5000001    1    1    2    0    0  0.27818902771E+03  0.86316609180E+02  0.35289094320E+03  0.48641207834E+03  0.16500000000E+03 0.  0.
   -5000001    1    1    2    0    0 -0.27818902771E+03 -0.86316609180E+02  0.49141076173E+03  0.59460005794E+03  0.16500000000E+03 0.  0.
<mgrwt>
<rscale>  0 0.67508656E+03</rscale>
<asrwt>0</asrwt>
<pdfrwt beam="1">  1        2 0.14810107E+00 0.67508656E+03</pdfrwt>
<pdfrwt beam="2">  1       -2 0.18208494E-01 0.67508656E+03</pdfrwt>
<totfact> 0.67419230E+02</totfact>
</mgrwt>
</event>
<event>
 4    1  0.8404100E-005  0.5788152E+03  0.7818608E-02  0.9950359E-01
          2   -1    0    0  501    0  0.00000000000E+00  0.00000000000E+00  0.71404501635E+03  0.71404501635E+03  0.25500000000E-02 0.  1.
         -2   -1    0    0    0  501 -0.00000000000E+00 -0.00000000000E+00 -0.11729897904E+03  0.11729897907E+03  0.25500000000E-02 0. -1.
    5000001    1    1    2    0    0 -0.16047651949E+03 -0.17421979653E+03  0.32803503608E+03  0.43696365491E+03  0.16500000000E+03 0.  0.
   -5000001    1    1    2    0    0  0.16047651949E+03  0.17421979653E+03  0.26871100122E+03  0.39438034052E+03  0.16500000000E+03 0.  0.
<mgrwt>
<rscale>  0 0.57881517E+03</rscale>
<asrwt>0</asrwt>
<pdfrwt beam="1">  1        2 0.10985308E+00 0.57881517E+03</pdfrwt>
<pdfrwt beam="2">  1       -2 0.18045997E-01 0.57881517E+03</pdfrwt>
<totfact> 0.10243033E+03</totfact>
</mgrwt>
</event>
<event>
 4    1  0.8404100E-005  0.5503057E+03  0.7818608E-02  0.1001423E+00
         -2   -1    0    0    0  501 -0.00000000000E+00  0.00000000000E+00  0.50741322242E+02  0.50741322306E+02  0.25500000000E-02 0. -1.
          2   -1    0    0  501    0  0.00000000000E+00 -0.00000000000E+00 -0.14920596859E+04  0.14920596859E+04  0.25500000000E-02 0.  1.
    5000001    1    1    2    0    0 -0.15097335363E+03 -0.16010965767E+03 -0.69967469389E+03  0.75179633761E+03  0.16500000000E+03 0.  0.
   -5000001    1    1    2    0    0  0.15097335363E+03  0.16010965767E+03 -0.74164366975E+03  0.79100467058E+03  0.16500000000E+03 0.  0.
<mgrwt>
<rscale>  0 0.55030567E+03</rscale>
<asrwt>0</asrwt>
<pdfrwt beam="1">  1        2 0.22954761E+00 0.55030567E+03</pdfrwt>
<pdfrwt beam="2">  1       -2 0.78063584E-02 0.55030567E+03</pdfrwt>
<totfact> 0.13378096E+03</totfact>
</mgrwt>
</event>
<event>
 4    1  0.8404100E-005  0.4534392E+03  0.7818608E-02  0.1026701E+00
         -2   -1    0    0    0  501 -0.00000000000E+00  0.00000000000E+00  0.11903923647E+04  0.11903923647E+04  0.25500000000E-02 0. -1.
          2   -1    0    0  501    0  0.00000000000E+00 -0.00000000000E+00 -0.43180527288E+02  0.43180527363E+02  0.25500000000E-02 0.  1.
    5000001    1    1    2    0    0 -0.78052097819E+02  0.10317560282E+03  0.33895851006E+03  0.39856643930E+03  0.16500000000E+03 0.  0.
   -5000001    1    1    2    0    0  0.78052097819E+02 -0.10317560282E+03  0.80825332733E+03  0.83500645275E+03  0.16500000000E+03 0.  0.
<mgrwt>
<rscale>  0 0.45343917E+03</rscale>
<asrwt>0</asrwt>
<pdfrwt beam="1">  1        2 0.66431590E-02 0.45343917E+03</pdfrwt>
<pdfrwt beam="2">  1       -2 0.18313726E+00 0.45343917E+03</pdfrwt>
<totfact> 0.19989364E+02</totfact>
</mgrwt>
</event>
<event>
 4    1  0.8404100E-005  0.3746641E+03  0.7818608E-02  0.1052924E+00
          2   -1    0    0  501    0  0.00000000000E+00  0.00000000000E+00  0.88305787731E+02  0.88305787768E+02  0.25500000000E-02 0.  1.
         -2   -1    0    0    0  501 -0.00000000000E+00 -0.00000000000E+00 -0.39740655298E+03  0.39740655299E+03  0.25500000000E-02 0. -1.
    5000001    1    1    2    0    0  0.45942829023E+02  0.49039916006E+02 -0.22961419620E+03  0.29062576623E+03  0.16500000000E+03 0.  0.
   -5000001    1    1    2    0    0 -0.45942829023E+02 -0.49039916006E+02 -0.79486569048E+02  0.19508657452E+03  0.16500000000E+03 0.  0.
<mgrwt>
<rscale>  0 0.37466411E+03</rscale>
<asrwt>0</asrwt>
<pdfrwt beam="1">  1        2 0.13585506E-01 0.37466411E+03</pdfrwt>
<pdfrwt beam="2">  1       -2 0.61139468E-01 0.37466411E+03</pdfrwt>
<totfact> 0.11236261E+03</totfact>
</mgrwt>
</event>
<event>
 4    1  0.8404100E-005  0.4506542E+03  0.7818608E-02  0.1027527E+00
         -2   -1    0    0    0  501 -0.00000000000E+00  0.00000000000E+00  0.42130945213E+02  0.42130945290E+02  0.25500000000E-02 0. -1.
          2   -1    0    0  501    0  0.00000000000E+00 -0.00000000000E+00 -0.12051070550E+04  0.12051070550E+04  0.25500000000E-02 0.  1.
    5000001    1    1    2    0    0 -0.11335143913E+03 -0.35994470568E+02 -0.84986337437E+03  0.87386320770E+03  0.16500000000E+03 0.  0.
   -5000001    1    1    2    0    0  0.11335143913E+03  0.35994470568E+02 -0.31311273539E+03  0.37337479257E+03  0.16500000000E+03 0.  0.
<mgrwt>
<rscale>  0 0.45065419E+03</rscale>
<asrwt>0</asrwt>
<pdfrwt beam="1">  1        2 0.18540106E+00 0.45065419E+03</pdfrwt>
<pdfrwt beam="2">  1       -2 0.64816848E-02 0.45065419E+03</pdfrwt>
<totfact> 0.26086359E+03</totfact>
</mgrwt>
</event>
<event>
 4    1  0.8404100E-005  0.2050275E+04  0.7818608E-02  0.8583469E-01
         -2   -1    0    0    0  501 -0.00000000000E+00  0.00000000000E+00  0.11187416172E+04  0.11187416172E+04  0.25500000000E-02 0. -1.
          2   -1    0    0  501    0  0.00000000000E+00 -0.00000000000E+00 -0.93936552515E+03  0.93936552515E+03  0.25500000000E-02 0.  1.
    5000001    1    1    2    0    0 -0.15310205303E+03 -0.95574328782E+03  0.38542645023E+03  0.10548289053E+04  0.16500000000E+03 0.  0.
   -5000001    1    1    2    0    0  0.15310205303E+03  0.95574328782E+03 -0.20605035820E+03  0.10032782371E+04  0.16500000000E+03 0.  0.
<mgrwt>
<rscale>  0 0.20502754E+04</rscale>
<asrwt>0</asrwt>
<pdfrwt beam="1">  1        2 0.14451777E+00 0.20502754E+04</pdfrwt>
<pdfrwt beam="2">  1       -2 0.17211409E+00 0.20502754E+04</pdfrwt>
<totfact> 0.52554460E+00</totfact>
</mgrwt>
</event>
<event>
 4    1  0.8404100E-005  0.5682842E+03  0.7818608E-02  0.9973483E-01
          2   -1    0    0  501    0  0.00000000000E+00  0.00000000000E+00  0.89207430861E+03  0.89207430861E+03  0.25500000000E-02 0.  1.
         -2   -1    0    0    0  501 -0.00000000000E+00 -0.00000000000E+00 -0.90504497527E+02  0.90504497563E+02  0.25500000000E-02 0. -1.
    5000001    1    1    2    0    0 -0.16445881913E+03  0.35526700917E+02  0.12629463865E+03  0.26736526592E+03  0.16500000000E+03 0.  0.
   -5000001    1    1    2    0    0  0.16445881913E+03 -0.35526700917E+02  0.67527517243E+03  0.71521354026E+03  0.16500000000E+03 0.  0.
<mgrwt>
<rscale>  0 0.56828421E+03</rscale>
<asrwt>0</asrwt>
<pdfrwt beam="1">  1        2 0.13724220E+00 0.56828421E+03</pdfrwt>
<pdfrwt beam="2">  1       -2 0.13923769E-01 0.56828421E+03</pdfrwt>
<totfact> 0.11864095E+03</totfact>
</mgrwt>
</event>
<event>
 4    1  0.8404100E-005  0.6876070E+03  0.7818608E-02  0.9738664E-01
          2   -1    0    0  501    0  0.00000000000E+00  0.00000000000E+00  0.12515758384E+04  0.12515758384E+04  0.25500000000E-02 0. -1.
         -2   -1    0    0    0  501 -0.00000000000E+00 -0.00000000000E+00 -0.94441621834E+02  0.94441621869E+02  0.25500000000E-02 0.  1.
    5000001    1    1    2    0    0 -0.19244702314E+03  0.19913047139E+03  0.34458551865E+03  0.47186118829E+03  0.16500000000E+03 0.  0.
   -5000001    1    1    2    0    0  0.19244702314E+03 -0.19913047139E+03  0.81254869788E+03  0.87415627194E+03  0.16500000000E+03 0.  0.
<mgrwt>
<rscale>  0 0.68760702E+03</rscale>
<asrwt>0</asrwt>
<pdfrwt beam="1">  1        2 0.19255010E+00 0.68760702E+03</pdfrwt>
<pdfrwt beam="2">  1       -2 0.14529482E-01 0.68760702E+03</pdfrwt>
<totfact> 0.65956331E+02</totfact>
</mgrwt>
</event>
<event>
 4    1  0.8404100E-005  0.4437657E+03  0.7818608E-02  0.1029598E+00
          2   -1    0    0  501    0  0.00000000000E+00  0.00000000000E+00  0.15353560062E+04  0.15353560062E+04  0.25500000000E-02 0.  1.
         -2   -1    0    0    0  501 -0.00000000000E+00 -0.00000000000E+00 -0.32065530903E+02  0.32065531004E+02  0.25500000000E-02 0. -1.
    5000001    1    1    2    0    0  0.10893926184E+03  0.98598892692E+02  0.67947454386E+03  0.71449293919E+03  0.16500000000E+03 0.  0.
   -5000001    1    1    2    0    0 -0.10893926184E+03 -0.98598892692E+02  0.82381593147E+03  0.85292859804E+03  0.16500000000E+03 0.  0.
<mgrwt>
<rscale>  0 0.44376573E+03</rscale>
<asrwt>0</asrwt>
<pdfrwt beam="1">  1        2 0.23620866E+00 0.44376573E+03</pdfrwt>
<pdfrwt beam="2">  1       -2 0.49331577E-02 0.44376573E+03</pdfrwt>
<totfact> 0.26045979E+03</totfact>
</mgrwt>
</event>
<event>
 4    1  0.8404100E-005  0.3828323E+03  0.7818608E-02  0.1049892E+00
          2   -1    0    0  501    0  0.00000000000E+00  0.00000000000E+00  0.10196887392E+04  0.10196887392E+04  0.25500000000E-02 0.  1.
         -2   -1    0    0    0  501 -0.00000000000E+00 -0.00000000000E+00 -0.35932666947E+02  0.35932667037E+02  0.25500000000E-02 0. -1.
    5000001    1    1    2    0    0  0.29158015514E+01  0.80647419617E+02  0.64043578969E+03  0.66625483781E+03  0.16500000000E+03 0.  0.
   -5000001    1    1    2    0    0 -0.29158015514E+01 -0.80647419617E+02  0.34332028254E+03  0.38936656841E+03  0.16500000000E+03 0.  0.
<mgrwt>
<rscale>  0 0.38283227E+03</rscale>
<asrwt>0</asrwt>
<pdfrwt beam="1">  1        2 0.15687517E+00 0.38283227E+03</pdfrwt>
<pdfrwt beam="2">  1       -2 0.55281032E-02 0.38283227E+03</pdfrwt>
<totfact> 0.43056199E+03</totfact>
</mgrwt>
</event>
<event>
 4    1  0.8404100E-005  0.7734338E+03  0.7818608E-02  0.9599287E-01
         -2   -1    0    0    0  501 -0.00000000000E+00  0.00000000000E+00  0.49909654420E+02  0.49909654485E+02  0.25500000000E-02 0. -1.
          2   -1    0    0  501    0  0.00000000000E+00 -0.00000000000E+00 -0.29964137008E+04  0.29964137008E+04  0.25500000000E-02 0.  1.
    5000001    1    1    2    0    0 -0.27604619189E+03 -0.21391832573E+03 -0.15482345852E+04  0.15956872754E+04  0.16500000000E+03 0.  0.
   -5000001    1    1    2    0    0  0.27604619189E+03  0.21391832573E+03 -0.13982694612E+04  0.14506360799E+04  0.16500000000E+03 0.  0.
<mgrwt>
<rscale>  0 0.77343383E+03</rscale>
<asrwt>0</asrwt>
<pdfrwt beam="1">  1        2 0.46098658E+00 0.77343383E+03</pdfrwt>
<pdfrwt beam="2">  1       -2 0.76784107E-02 0.77343383E+03</pdfrwt>
<totfact> 0.19352292E+02</totfact>
</mgrwt>
</event>
<event>
 4    1  0.8404100E-005  0.4647747E+03  0.7818608E-02  0.1023405E+00
         -2   -1    0    0    0  501 -0.00000000000E+00  0.00000000000E+00  0.40176073899E+02  0.40176073980E+02  0.25500000000E-02 0. -1.
          2   -1    0    0  501    0  0.00000000000E+00 -0.00000000000E+00 -0.13441801838E+04  0.13441801838E+04  0.25500000000E-02 0.  1.
    5000001    1    1    2    0    0 -0.40243270582E+02 -0.15861012844E+03 -0.65640868917E+03  0.69632898898E+03  0.16500000000E+03 0.  0.
   -5000001    1    1    2    0    0  0.40243270582E+02  0.15861012844E+03 -0.64759542074E+03  0.68802726882E+03  0.16500000000E+03 0.  0.
<mgrwt>
<rscale>  0 0.46477471E+03</rscale>
<asrwt>0</asrwt>
<pdfrwt beam="1">  1        2 0.20679692E+00 0.46477471E+03</pdfrwt>
<pdfrwt beam="2">  1       -2 0.61809355E-02 0.46477471E+03</pdfrwt>
<totfact> 0.23404844E+03</totfact>
</mgrwt>
</event>
<event>
 4    1  0.8404100E-005  0.4654769E+03  0.7818608E-02  0.1023205E+00
          2   -1    0    0  501    0  0.00000000000E+00  0.00000000000E+00  0.12878425856E+04  0.12878425856E+04  0.25500000000E-02 0.  1.
         -2   -1    0    0    0  501 -0.00000000000E+00 -0.00000000000E+00 -0.42060413264E+02  0.42060413342E+02  0.25500000000E-02 0. -1.
    5000001    1    1    2    0    0 -0.15478453972E+03  0.46540729835E+02  0.70460037393E+03  0.74149240064E+03  0.16500000000E+03 0.  0.
   -5000001    1    1    2    0    0  0.15478453972E+03 -0.46540729835E+02  0.54118179844E+03  0.58841059833E+03  0.16500000000E+03 0.  0.
<mgrwt>
<rscale>  0 0.46547692E+03</rscale>
<asrwt>0</asrwt>
<pdfrwt beam="1">  1        2 0.19812963E+00 0.46547692E+03</pdfrwt>
<pdfrwt beam="2">  1       -2 0.64708326E-02 0.46547692E+03</pdfrwt>
<totfact> 0.23442910E+03</totfact>
</mgrwt>
</event>
<event>
 4    1  0.8404100E-005  0.1782803E+04  0.7818608E-02  0.8715499E-01
         -2   -1    0    0    0  501 -0.00000000000E+00  0.00000000000E+00  0.17277859770E+03  0.17277859772E+03  0.25500000000E-02 0. -1.
          2   -1    0    0  501    0  0.00000000000E+00 -0.00000000000E+00 -0.45989290618E+04  0.45989290618E+04  0.25500000000E-02 0.  1.
    5000001    1    1    2    0    0 -0.32603585648E+03 -0.75998208444E+03 -0.29864893472E+04  0.31032588950E+04  0.16500000000E+03 0.  0.
   -5000001    1    1    2    0    0  0.32603585648E+03  0.75998208444E+03 -0.14396611169E+04  0.16684487646E+04  0.16500000000E+03 0.  0.
<mgrwt>
<rscale>  0 0.17828029E+04</rscale>
<asrwt>0</asrwt>
<pdfrwt beam="1">  1        2 0.70752746E+00 0.17828029E+04</pdfrwt>
<pdfrwt beam="2">  1       -2 0.26581326E-01 0.17828029E+04</pdfrwt>
<totfact> 0.12184199E+00</totfact>
</mgrwt>
</event>
<event>
 4    1  0.8404100E-005  0.4410892E+03  0.7818608E-02  0.1030413E+00
          2   -1    0    0  501    0  0.00000000000E+00  0.00000000000E+00  0.16526220325E+04  0.16526220325E+04  0.25500000000E-02 0.  1.
         -2   -1    0    0    0  501 -0.00000000000E+00 -0.00000000000E+00 -0.29431968955E+02  0.29431969065E+02  0.25500000000E-02 0. -1.
    5000001    1    1    2    0    0  0.82370529994E+02 -0.98506643271E+02  0.54393663038E+03  0.58273537806E+03  0.16500000000E+03 0.  0.
   -5000001    1    1    2    0    0 -0.82370529994E+02  0.98506643271E+02  0.10792534332E+04  0.10993186235E+04  0.16500000000E+03 0.  0.
<mgrwt>
<rscale>  0 0.44108920E+03</rscale>
<asrwt>0</asrwt>
<pdfrwt beam="1">  1        2 0.25424962E+00 0.44108920E+03</pdfrwt>
<pdfrwt beam="2">  1       -2 0.45279939E-02 0.44108920E+03</pdfrwt>
<totfact> 0.25675773E+03</totfact>
</mgrwt>
</event>
<event>
 4    1  0.8404100E-005  0.3688276E+03  0.7818608E-02  0.1055142E+00
         -2   -1    0    0    0  501 -0.00000000000E+00  0.00000000000E+00  0.16884623831E+02  0.16884624023E+02  0.25500000000E-02 0. -1.
          2   -1    0    0  501    0  0.00000000000E+00 -0.00000000000E+00 -0.20141665065E+04  0.20141665065E+04  0.25500000000E-02 0.  1.
    5000001    1    1    2    0    0 -0.95411475750E+01 -0.57694186576E+02 -0.13180240940E+04  0.13295984977E+04  0.16500000000E+03 0.  0.
   -5000001    1    1    2    0    0  0.95411475750E+01  0.57694186576E+02 -0.67925778868E+03  0.70145263286E+03  0.16500000000E+03 0.  0.
<mgrwt>
<rscale>  0 0.36882757E+03</rscale>
<asrwt>0</asrwt>
<pdfrwt beam="1">  1        2 0.30987158E+00 0.36882757E+03</pdfrwt>
<pdfrwt beam="2">  1       -2 0.25976360E-02 0.36882757E+03</pdfrwt>
<totfact> 0.38245048E+03</totfact>
</mgrwt>
</event>
<event>
 4    1  0.8404100E-005  0.4121036E+03  0.7818608E-02  0.1039667E+00
         -2   -1    0    0    0  501 -0.00000000000E+00  0.00000000000E+00  0.19416082200E+04  0.19416082200E+04  0.25500000000E-02 0. -1.
          2   -1    0    0  501    0  0.00000000000E+00 -0.00000000000E+00 -0.21867097532E+02  0.21867097681E+02  0.25500000000E-02 0.  1.
    5000001    1    1    2    0    0 -0.70456660122E+02  0.91444687877E+02  0.75185880443E+03  0.77835912900E+03  0.16500000000E+03 0.  0.
   -5000001    1    1    2    0    0  0.70456660122E+02 -0.91444687877E+02  0.11678823181E+04  0.11851161887E+04  0.16500000000E+03 0.  0.
<mgrwt>
<rscale>  0 0.41210356E+03</rscale>
<asrwt>0</asrwt>
<pdfrwt beam="1">  1        2 0.33641686E-02 0.41210356E+03</pdfrwt>
<pdfrwt beam="2">  1       -2 0.29870898E+00 0.41210356E+03</pdfrwt>
<totfact> 0.98493073E+01</totfact>
</mgrwt>
</event>
<event>
 4    1  0.8404100E-005  0.7730541E+03  0.7818608E-02  0.9599860E-01
          2   -1    0    0  501    0  0.00000000000E+00  0.00000000000E+00  0.31148668612E+04  0.31148668612E+04  0.25500000000E-02 0.  1.
         -2   -1    0    0    0  501 -0.00000000000E+00 -0.00000000000E+00 -0.47964546615E+02  0.47964546683E+02  0.25500000000E-02 0. -1.
    5000001    1    1    2    0    0 -0.13247402727E+03 -0.26800884804E+03  0.79247626535E+03  0.86291467810E+03  0.16500000000E+03 0.  0.
   -5000001    1    1    2    0    0  0.13247402727E+03  0.26800884804E+03  0.22744260492E+04  0.22999167298E+04  0.16500000000E+03 0.  0.
<mgrwt>
<rscale>  0 0.77305414E+03</rscale>
<asrwt>0</asrwt>
<pdfrwt beam="1">  1        2 0.47921050E+00 0.77305414E+03</pdfrwt>
<pdfrwt beam="2">  1       -2 0.73791577E-02 0.77305414E+03</pdfrwt>
<totfact> 0.17417741E+02</totfact>
</mgrwt>
</event>
<event>
 4    1  0.8404100E-005  0.4045934E+03  0.7818608E-02  0.1042201E+00
          2   -1    0    0  501    0  0.00000000000E+00  0.00000000000E+00  0.15608808603E+03  0.15608808606E+03  0.25500000000E-02 0.  1.
         -2   -1    0    0    0  501 -0.00000000000E+00 -0.00000000000E+00 -0.26218498908E+03  0.26218498909E+03  0.25500000000E-02 0. -1.
    5000001    1    1    2    0    0 -0.37271231720E+02  0.11049850534E+03 -0.42716094674E+02  0.20651568740E+03  0.16500000000E+03 0.  0.
   -5000001    1    1    2    0    0  0.37271231720E+02 -0.11049850534E+03 -0.63380808369E+02  0.21175738775E+03  0.16500000000E+03 0.  0.
<mgrwt>
<rscale>  0 0.40459339E+03</rscale>
<asrwt>0</asrwt>
<pdfrwt beam="1">  1        2 0.24013552E-01 0.40459339E+03</pdfrwt>
<pdfrwt beam="2">  1       -2 0.40336152E-01 0.40459339E+03</pdfrwt>
<totfact> 0.13295554E+03</totfact>
</mgrwt>
</event>
<event>
 4    1  0.8404100E-005  0.5220565E+03  0.7818608E-02  0.1008177E+00
         -2   -1    0    0    0  501 -0.00000000000E+00  0.00000000000E+00  0.12528231337E+03  0.12528231339E+03  0.25500000000E-02 0. -1.
          2   -1    0    0  501    0  0.00000000000E+00 -0.00000000000E+00 -0.54385759642E+03  0.54385759642E+03  0.25500000000E-02 0.  1.
    5000001    1    1    2    0    0  0.99692732867E+02 -0.13459567868E+03 -0.35461724188E+03  0.42547975974E+03  0.16500000000E+03 0.  0.
   -5000001    1    1    2    0    0 -0.99692732867E+02  0.13459567868E+03 -0.63958041169E+02  0.24366015008E+03  0.16500000000E+03 0.  0.
<mgrwt>
<rscale>  0 0.52205646E+03</rscale>
<asrwt>0</asrwt>
<pdfrwt beam="1">  1        2 0.83670399E-01 0.52205646E+03</pdfrwt>
<pdfrwt beam="2">  1       -2 0.19274202E-01 0.52205646E+03</pdfrwt>
<totfact> 0.12714396E+03</totfact>
</mgrwt>
</event>
<event>
 4    1  0.8404100E-005  0.5464444E+03  0.7818608E-02  0.1002320E+00
          2   -1    0    0  501    0  0.00000000000E+00  0.00000000000E+00  0.90324528424E+03  0.90324528424E+03  0.25500000000E-02 0.  1.
         -2   -1    0    0    0  501 -0.00000000000E+00 -0.00000000000E+00 -0.82646836273E+02  0.82646836312E+02  0.25500000000E-02 0. -1.
    5000001    1    1    2    0    0 -0.17614982344E+03 -0.11155905109E+03  0.52370808851E+03  0.58734090965E+03  0.16500000000E+03 0.  0.
   -5000001    1    1    2    0    0  0.17614982344E+03  0.11155905109E+03  0.29689035946E+03  0.39855121091E+03  0.16500000000E+03 0.  0.
<mgrwt>
<rscale>  0 0.54644438E+03</rscale>
<asrwt>0</asrwt>
<pdfrwt beam="1">  1        2 0.13896082E+00 0.54644438E+03</pdfrwt>
<pdfrwt beam="2">  1       -2 0.12714897E-01 0.54644438E+03</pdfrwt>
<totfact> 0.13567029E+03</totfact>
</mgrwt>
</event>
<event>
 4    1  0.8404100E-005  0.8246997E+03  0.7818608E-02  0.9524938E-01
         -2   -1    0    0    0  501 -0.00000000000E+00  0.00000000000E+00  0.14232353680E+03  0.14232353683E+03  0.25500000000E-02 0. -1.
          2   -1    0    0  501    0  0.00000000000E+00 -0.00000000000E+00 -0.11946892828E+04  0.11946892828E+04  0.25500000000E-02 0.  1.
    5000001    1    1    2    0    0 -0.36285702907E+03 -0.88950644532E+02 -0.43404492626E+03  0.59598442825E+03  0.16500000000E+03 0.  0.
   -5000001    1    1    2    0    0  0.36285702907E+03  0.88950644532E+02 -0.61832081975E+03  0.74102839139E+03  0.16500000000E+03 0.  0.
<mgrwt>
<rscale>  0 0.82469971E+03</rscale>
<asrwt>0</asrwt>
<pdfrwt beam="1">  1        2 0.18379834E+00 0.82469971E+03</pdfrwt>
<pdfrwt beam="2">  1       -2 0.21895930E-01 0.82469971E+03</pdfrwt>
<totfact> 0.34868223E+02</totfact>
</mgrwt>
</event>
<event>
 4    1  0.8404100E-005  0.4521978E+03  0.7818608E-02  0.1027069E+00
          2   -1    0    0  501    0  0.00000000000E+00  0.00000000000E+00  0.20335537449E+04  0.20335537449E+04  0.25500000000E-02 0.  1.
         -2   -1    0    0    0  501 -0.00000000000E+00 -0.00000000000E+00 -0.25138606197E+02  0.25138606326E+02  0.25500000000E-02 0. -1.
    5000001    1    1    2    0    0 -0.12919139550E+03  0.49422774265E+02  0.69002020577E+03  0.72283186956E+03  0.16500000000E+03 0.  0.
   -5000001    1    1    2    0    0  0.12919139550E+03 -0.49422774265E+02  0.13183949329E+04  0.13358604816E+04  0.16500000000E+03 0.  0.
<mgrwt>
<rscale>  0 0.45219777E+03</rscale>
<asrwt>0</asrwt>
<pdfrwt beam="1">  1        2 0.31285445E+00 0.45219777E+03</pdfrwt>
<pdfrwt beam="2">  1       -2 0.38674775E-02 0.45219777E+03</pdfrwt>
<totfact> 0.20410294E+03</totfact>
</mgrwt>
</event>
<event>
 4    1  0.8404100E-005  0.6036069E+03  0.7818608E-02  0.9897951E-01
         -2   -1    0    0    0  501 -0.00000000000E+00  0.00000000000E+00  0.47956552423E+03  0.47956552424E+03  0.25500000000E-02 0. -1.
          2   -1    0    0  501    0  0.00000000000E+00 -0.00000000000E+00 -0.18993303214E+03  0.18993303216E+03  0.25500000000E-02 0.  1.
    5000001    1    1    2    0    0  0.24889087907E+03 -0.40846213414E+02  0.16218629649E+03  0.34226375444E+03  0.16500000000E+03 0.  0.
   -5000001    1    1    2    0    0 -0.24889087907E+03  0.40846213414E+02  0.12744619560E+03  0.32723480195E+03  0.16500000000E+03 0.  0.
<mgrwt>
<rscale>  0 0.60360694E+03</rscale>
<asrwt>0</asrwt>
<pdfrwt beam="1">  1        2 0.29220467E-01 0.60360694E+03</pdfrwt>
<pdfrwt beam="2">  1       -2 0.73779311E-01 0.60360694E+03</pdfrwt>
<totfact> 0.30687039E+02</totfact>
</mgrwt>
</event>
<event>
 4    1  0.8404100E-005  0.4499341E+03  0.7818608E-02  0.1027742E+00
         -2   -1    0    0    0  501 -0.00000000000E+00  0.00000000000E+00  0.75984551273E+02  0.75984551316E+02  0.25500000000E-02 0. -1.
          2   -1    0    0  501    0  0.00000000000E+00 -0.00000000000E+00 -0.66605887443E+03  0.66605887443E+03  0.25500000000E-02 0.  1.
    5000001    1    1    2    0    0  0.32693374912E+02 -0.14435295274E+03 -0.35845315660E+03  0.42145023099E+03  0.16500000000E+03 0.  0.
   -5000001    1    1    2    0    0 -0.32693374912E+02  0.14435295274E+03 -0.23162116655E+03  0.32059319475E+03  0.16500000000E+03 0.  0.
<mgrwt>
<rscale>  0 0.44993415E+03</rscale>
<asrwt>0</asrwt>
<pdfrwt beam="1">  1        2 0.10247059E+00 0.44993415E+03</pdfrwt>
<pdfrwt beam="2">  1       -2 0.11689931E-01 0.44993415E+03</pdfrwt>
<totfact> 0.23102878E+03</totfact>
</mgrwt>
</event>
<event>
 4    1  0.8404100E-005  0.5115730E+03  0.7818608E-02  0.1010802E+00
         -2   -1    0    0    0  501 -0.00000000000E+00  0.00000000000E+00  0.51405143634E+03  0.51405143635E+03  0.25500000000E-02 0. -1.
          2   -1    0    0  501    0  0.00000000000E+00 -0.00000000000E+00 -0.12727661948E+03  0.12727661951E+03  0.25500000000E-02 0.  1.
    5000001    1    1    2    0    0 -0.13028705483E+03 -0.14129826046E+03  0.14885560228E+03  0.29380759928E+03  0.16500000000E+03 0.  0.
   -5000001    1    1    2    0    0  0.13028705483E+03  0.14129826046E+03  0.23791921459E+03  0.34752045657E+03  0.16500000000E+03 0.  0.
<mgrwt>
<rscale>  0 0.51157298E+03</rscale>
<asrwt>0</asrwt>
<pdfrwt beam="1">  1        2 0.19581019E-01 0.51157298E+03</pdfrwt>
<pdfrwt beam="2">  1       -2 0.79084833E-01 0.51157298E+03</pdfrwt>
<totfact> 0.41732780E+02</totfact>
</mgrwt>
</event>
<event>
 4    1  0.8404100E-005  0.8220510E+03  0.7818608E-02  0.9528636E-01
          2   -1    0    0  501    0  0.00000000000E+00  0.00000000000E+00  0.19574856451E+04  0.19574856451E+04  0.25500000000E-02 0.  1.
         -2   -1    0    0    0  501 -0.00000000000E+00 -0.00000000000E+00 -0.86305602477E+02  0.86305602514E+02  0.25500000000E-02 0. -1.
    5000001    1    1    2    0    0  0.60096015162E+02  0.33168599688E+03  0.51890063897E+03  0.64039831721E+03  0.16500000000E+03 0.  0.
   -5000001    1    1    2    0    0 -0.60096015162E+02 -0.33168599688E+03  0.13522794036E+04  0.14033929304E+04  0.16500000000E+03 0.  0.
<mgrwt>
<rscale>  0 0.82205104E+03</rscale>
<asrwt>0</asrwt>
<pdfrwt beam="1">  1        2 0.30115163E+00 0.82205104E+03</pdfrwt>
<pdfrwt beam="2">  1       -2 0.13277785E-01 0.82205104E+03</pdfrwt>
<totfact> 0.30863765E+02</totfact>
</mgrwt>
</event>
<event>
 4    1  0.8404100E-005  0.3631749E+03  0.7818608E-02  0.1057334E+00
          2   -1    0    0  501    0  0.00000000000E+00  0.00000000000E+00  0.27556545347E+04  0.27556545347E+04  0.25500000000E-02 0.  1.
         -2   -1    0    0    0  501 -0.00000000000E+00 -0.00000000000E+00 -0.11965944281E+02  0.11965944553E+02  0.25500000000E-02 0. -1.
    5000001    1    1    2    0    0 -0.74398124625E+02  0.12605424401E+02  0.14283764654E+04  0.14398535706E+04  0.16500000000E+03 0.  0.
   -5000001    1    1    2    0    0  0.74398124625E+02 -0.12605424401E+02  0.13153121250E+04  0.13277669087E+04  0.16500000000E+03 0.  0.
<mgrwt>
<rscale>  0 0.36317494E+03</rscale>
<asrwt>0</asrwt>
<pdfrwt beam="1">  1        2 0.42394712E+00 0.36317494E+03</pdfrwt>
<pdfrwt beam="2">  1       -2 0.18409134E-02 0.36317494E+03</pdfrwt>
<totfact> 0.25021671E+03</totfact>
</mgrwt>
</event>
<event>
 4    1  0.8404100E-005  0.6296516E+03  0.7818608E-02  0.9845729E-01
         -2   -1    0    0    0  501 -0.00000000000E+00  0.00000000000E+00  0.29442669580E+03  0.29442669581E+03  0.25500000000E-02 0. -1.
          2   -1    0    0  501    0  0.00000000000E+00 -0.00000000000E+00 -0.33663825167E+03  0.33663825168E+03  0.25500000000E-02 0.  1.
    5000001    1    1    2    0    0 -0.23874120143E+03 -0.93665386960E+02 -0.99510025398E+02  0.32077688684E+03  0.16500000000E+03 0.  0.
   -5000001    1    1    2    0    0  0.23874120143E+03  0.93665386960E+02  0.57298469523E+02  0.31028806065E+03  0.16500000000E+03 0.  0.
<mgrwt>
<rscale>  0 0.62965161E+03</rscale>
<asrwt>0</asrwt>
<pdfrwt beam="1">  1        2 0.51790501E-01 0.62965161E+03</pdfrwt>
<pdfrwt beam="2">  1       -2 0.45296414E-01 0.62965161E+03</pdfrwt>
<totfact> 0.45005367E+02</totfact>
</mgrwt>
</event>
<event>
 4    1  0.8404100E-005  0.7484080E+03  0.7818608E-02  0.9637851E-01
         -2   -1    0    0    0  501 -0.00000000000E+00  0.00000000000E+00  0.21749104953E+03  0.21749104955E+03  0.25500000000E-02 0. -1.
          2   -1    0    0  501    0  0.00000000000E+00 -0.00000000000E+00 -0.64383634733E+03  0.64383634734E+03  0.25500000000E-02 0.  1.
    5000001    1    1    2    0    0  0.23472772276E+03  0.14652183156E+03  0.59116674404E+01  0.32221995402E+03  0.16500000000E+03 0.  0.
   -5000001    1    1    2    0    0 -0.23472772276E+03 -0.14652183156E+03 -0.43225696524E+03  0.53910744287E+03  0.16500000000E+03 0.  0.
<mgrwt>
<rscale>  0 0.74840802E+03</rscale>
<asrwt>0</asrwt>
<pdfrwt beam="1">  1        2 0.99051745E-01 0.74840802E+03</pdfrwt>
<pdfrwt beam="2">  1       -2 0.33460162E-01 0.74840802E+03</pdfrwt>
<totfact> 0.38209220E+02</totfact>
</mgrwt>
</event>
<event>
 4    1  0.8404100E-005  0.4839670E+03  0.7818608E-02  0.1018051E+00
         -2   -1    0    0    0  501 -0.00000000000E+00  0.00000000000E+00  0.26738997761E+03  0.26738997763E+03  0.25500000000E-02 0. -1.
          2   -1    0    0  501    0  0.00000000000E+00 -0.00000000000E+00 -0.21899102808E+03  0.21899102810E+03  0.25500000000E-02 0.  1.
    5000001    1    1    2    0    0  0.23863760899E+02 -0.14044556250E+03  0.12977857772E+03  0.25369650046E+03  0.16500000000E+03 0.  0.
   -5000001    1    1    2    0    0 -0.23863760899E+02  0.14044556250E+03 -0.81379628187E+02  0.23268450527E+03  0.16500000000E+03 0.  0.
<mgrwt>
<rscale>  0 0.48396697E+03</rscale>
<asrwt>0</asrwt>
<pdfrwt beam="1">  1        2 0.33690928E-01 0.48396697E+03</pdfrwt>
<pdfrwt beam="2">  1       -2 0.41136919E-01 0.48396697E+03</pdfrwt>
<totfact> 0.87630185E+02</totfact>
</mgrwt>
</event>
<event>
 4    1  0.8404100E-005  0.8023408E+03  0.7818608E-02  0.9556635E-01
          2   -1    0    0  501    0  0.00000000000E+00  0.00000000000E+00  0.87308002049E+03  0.87308002050E+03  0.25500000000E-02 0.  1.
         -2   -1    0    0    0  501 -0.00000000000E+00 -0.00000000000E+00 -0.18433328184E+03  0.18433328185E+03  0.25500000000E-02 0. -1.
    5000001    1    1    2    0    0  0.93271067177E+02 -0.32398616052E+03  0.53096909808E+03  0.65024588218E+03  0.16500000000E+03 0.  0.
   -5000001    1    1    2    0    0 -0.93271067177E+02  0.32398616052E+03  0.15777764057E+03  0.40716742017E+03  0.16500000000E+03 0.  0.
<mgrwt>
<rscale>  0 0.80234084E+03</rscale>
<asrwt>0</asrwt>
<pdfrwt beam="1">  1        2 0.13432000E+00 0.80234084E+03</pdfrwt>
<pdfrwt beam="2">  1       -2 0.28358967E-01 0.80234084E+03</pdfrwt>
<totfact> 0.34967507E+02</totfact>
</mgrwt>
</event>
<event>
 4    1  0.8404100E-005  0.4583492E+03  0.7818608E-02  0.1025261E+00
          2   -1    0    0  501    0  0.00000000000E+00  0.00000000000E+00  0.10895294793E+04  0.10895294793E+04  0.25500000000E-02 0.  1.
         -2   -1    0    0    0  501 -0.00000000000E+00 -0.00000000000E+00 -0.48205204486E+02  0.48205204553E+02  0.25500000000E-02 0. -1.
    5000001    1    1    2    0    0  0.15177726489E+03 -0.22118656556E+02  0.62510589474E+03  0.66446064800E+03  0.16500000000E+03 0.  0.
   -5000001    1    1    2    0    0 -0.15177726489E+03  0.22118656556E+02  0.41621838009E+03  0.47327403587E+03  0.16500000000E+03 0.  0.
<mgrwt>
<rscale>  0 0.45834917E+03</rscale>
<asrwt>0</asrwt>
<pdfrwt beam="1">  1        2 0.16761993E+00 0.45834917E+03</pdfrwt>
<pdfrwt beam="2">  1       -2 0.74161849E-02 0.45834917E+03</pdfrwt>
<totfact> 0.24709191E+03</totfact>
</mgrwt>
</event>
<event>
 4    1  0.8404100E-005  0.3884740E+03  0.7818608E-02  0.1047845E+00
          2   -1    0    0  501    0  0.00000000000E+00  0.00000000000E+00  0.87116826044E+03  0.87116826044E+03  0.25500000000E-02 0.  1.
         -2   -1    0    0    0  501 -0.00000000000E+00 -0.00000000000E+00 -0.43307377075E+02  0.43307377150E+02  0.25500000000E-02 0. -1.
    5000001    1    1    2    0    0  0.59326750919E+02  0.75383284802E+02  0.32903188284E+03  0.38038044499E+03  0.16500000000E+03 0.  0.
   -5000001    1    1    2    0    0 -0.59326750919E+02 -0.75383284802E+02  0.49882900052E+03  0.53409519260E+03  0.16500000000E+03 0.  0.
<mgrwt>
<rscale>  0 0.38847400E+03</rscale>
<asrwt>0</asrwt>
<pdfrwt beam="1">  1        2 0.13402588E+00 0.38847400E+03</pdfrwt>
<pdfrwt beam="2">  1       -2 0.66626739E-02 0.38847400E+03</pdfrwt>
<totfact> 0.40130732E+03</totfact>
</mgrwt>
</event>
<event>
 4    1  0.8404100E-005  0.8858330E+03  0.7818608E-02  0.9443466E-01
         -2   -1    0    0    0  501 -0.00000000000E+00  0.00000000000E+00  0.41317754035E+03  0.41317754036E+03  0.25500000000E-02 0. -1.
          2   -1    0    0  501    0  0.00000000000E+00 -0.00000000000E+00 -0.47479594365E+03  0.47479594366E+03  0.25500000000E-02 0.  1.
    5000001    1    1    2    0    0 -0.55602663767E+02  0.39345531625E+03 -0.13618828151E+03  0.45129922460E+03  0.16500000000E+03 0.  0.
   -5000001    1    1    2    0    0  0.55602663767E+02 -0.39345531625E+03  0.74569878203E+02  0.43667425942E+03  0.16500000000E+03 0.  0.
<mgrwt>
<rscale>  0 0.88583299E+03</rscale>
<asrwt>0</asrwt>
<pdfrwt beam="1">  1        2 0.73045529E-01 0.88583299E+03</pdfrwt>
<pdfrwt beam="2">  1       -2 0.63565776E-01 0.88583299E+03</pdfrwt>
<totfact> 0.15044363E+02</totfact>
</mgrwt>
</event>
<event>
 4    1  0.8404100E-005  0.4376078E+03  0.7818608E-02  0.1031483E+00
         -2   -1    0    0    0  501 -0.00000000000E+00  0.00000000000E+00  0.73331563437E+02  0.73331563482E+02  0.25500000000E-02 0. -1.
          2   -1    0    0  501    0  0.00000000000E+00 -0.00000000000E+00 -0.65285878253E+03  0.65285878254E+03  0.25500000000E-02 0.  1.
    5000001    1    1    2    0    0 -0.13954663449E+03  0.32897930926E+02 -0.27362178254E+03  0.35021338772E+03  0.16500000000E+03 0.  0.
   -5000001    1    1    2    0    0  0.13954663449E+03 -0.32897930926E+02 -0.30590543655E+03  0.37597695829E+03  0.16500000000E+03 0.  0.
<mgrwt>
<rscale>  0 0.43760784E+03</rscale>
<asrwt>0</asrwt>
<pdfrwt beam="1">  1        2 0.10043981E+00 0.43760784E+03</pdfrwt>
<pdfrwt beam="2">  1       -2 0.11281779E-01 0.43760784E+03</pdfrwt>
<totfact> 0.25078534E+03</totfact>
</mgrwt>
</event>
<event>
 4    1  0.8404100E-005  0.5647362E+03  0.7818608E-02  0.9981395E-01
         -2   -1    0    0    0  501 -0.00000000000E+00  0.00000000000E+00  0.18751512796E+03  0.18751512798E+03  0.25500000000E-02 0. -1.
          2   -1    0    0  501    0  0.00000000000E+00 -0.00000000000E+00 -0.42520170989E+03  0.42520170990E+03  0.25500000000E-02 0.  1.
    5000001    1    1    2    0    0  0.21600851329E+03  0.72455068083E+02 -0.92326292764E+02  0.29607188154E+03  0.16500000000E+03 0.  0.
   -5000001    1    1    2    0    0 -0.21600851329E+03 -0.72455068083E+02 -0.14536028917E+03  0.31664495633E+03  0.16500000000E+03 0.  0.
<mgrwt>
<rscale>  0 0.56473623E+03</rscale>
<asrwt>0</asrwt>
<pdfrwt beam="1">  1        2 0.65415647E-01 0.56473623E+03</pdfrwt>
<pdfrwt beam="2">  1       -2 0.28848481E-01 0.56473623E+03</pdfrwt>
<totfact> 0.82159135E+02</totfact>
</mgrwt>
</event>
<event>
 4    1  0.8404100E-005  0.3388946E+03  0.7818608E-02  0.1067268E+00
         -2   -1    0    0    0  501 -0.00000000000E+00  0.00000000000E+00  0.39240070640E+02  0.39240070723E+02  0.25500000000E-02 0. -1.
          2   -1    0    0  501    0  0.00000000000E+00 -0.00000000000E+00 -0.73171090396E+03  0.73171090397E+03  0.25500000000E-02 0.  1.
    5000001    1    1    2    0    0  0.29311399897E+02  0.18282850175E+02 -0.38523960713E+03  0.42050918620E+03  0.16500000000E+03 0.  0.
   -5000001    1    1    2    0    0 -0.29311399897E+02 -0.18282850175E+02 -0.30723122620E+03  0.35044178850E+03  0.16500000000E+03 0.  0.
<mgrwt>
<rscale>  0 0.33889460E+03</rscale>
<asrwt>0</asrwt>
<pdfrwt beam="1">  1        2 0.11257090E+00 0.33889460E+03</pdfrwt>
<pdfrwt beam="2">  1       -2 0.60369345E-02 0.33889460E+03</pdfrwt>
<totfact> 0.58425516E+03</totfact>
</mgrwt>
</event>
<event>
 4    1  0.8404100E-005  0.4993801E+03  0.7818608E-02  0.1013941E+00
         -2   -1    0    0    0  501 -0.00000000000E+00  0.00000000000E+00  0.49906314884E+02  0.49906314949E+02  0.25500000000E-02 0. -1.
          2   -1    0    0  501    0  0.00000000000E+00 -0.00000000000E+00 -0.12492432839E+04  0.12492432839E+04  0.25500000000E-02 0.  1.
    5000001    1    1    2    0    0 -0.11079725982E+03 -0.47637747948E+02 -0.22650847755E+03  0.30508437885E+03  0.16500000000E+03 0.  0.
   -5000001    1    1    2    0    0  0.11079725982E+03  0.47637747948E+02 -0.97282849142E+03  0.99406521996E+03  0.16500000000E+03 0.  0.
<mgrwt>
<rscale>  0 0.49938013E+03</rscale>
<asrwt>0</asrwt>
<pdfrwt beam="1">  1        2 0.19219125E+00 0.49938013E+03</pdfrwt>
<pdfrwt beam="2">  1       -2 0.76778955E-02 0.49938013E+03</pdfrwt>
<totfact> 0.18832605E+03</totfact>
</mgrwt>
</event>
<event>
 4    1  0.8404100E-005  0.3966890E+03  0.7818608E-02  0.1044932E+00
         -2   -1    0    0    0  501 -0.00000000000E+00  0.00000000000E+00  0.11853787116E+04  0.11853787117E+04  0.25500000000E-02 0. -1.
          2   -1    0    0  501    0  0.00000000000E+00 -0.00000000000E+00 -0.33188160805E+02  0.33188160903E+02  0.25500000000E-02 0.  1.
    5000001    1    1    2    0    0 -0.93111821146E+02 -0.32998420233E+02  0.42696577423E+03  0.46827713946E+03  0.16500000000E+03 0.  0.
   -5000001    1    1    2    0    0  0.93111821146E+02  0.32998420233E+02  0.72522477662E+03  0.75028973310E+03  0.16500000000E+03 0.  0.
<mgrwt>
<rscale>  0 0.39668899E+03</rscale>
<asrwt>0</asrwt>
<pdfrwt beam="1">  1        2 0.51058720E-02 0.39668899E+03</pdfrwt>
<pdfrwt beam="2">  1       -2 0.18236592E+00 0.39668899E+03</pdfrwt>
<totfact> 0.28709617E+02</totfact>
</mgrwt>
</event>
<event>
 4    1  0.8404100E-005  0.3529433E+03  0.7818608E-02  0.1061413E+00
         -2   -1    0    0    0  501 -0.00000000000E+00  0.00000000000E+00  0.75800454058E+02  0.75800454101E+02  0.25500000000E-02 0. -1.
          2   -1    0    0  501    0  0.00000000000E+00 -0.00000000000E+00 -0.41084509931E+03  0.41084509932E+03  0.25500000000E-02 0.  1.
    5000001    1    1    2    0    0  0.20338270616E+02  0.56289909357E+02 -0.14228402923E+03  0.22594677276E+03  0.16500000000E+03 0.  0.
   -5000001    1    1    2    0    0 -0.20338270616E+02 -0.56289909357E+02 -0.19276061603E+03  0.26069878066E+03  0.16500000000E+03 0.  0.
<mgrwt>
<rscale>  0 0.35294331E+03</rscale>
<asrwt>0</asrwt>
<pdfrwt beam="1">  1        2 0.63206937E-01 0.35294331E+03</pdfrwt>
<pdfrwt beam="2">  1       -2 0.11661609E-01 0.35294331E+03</pdfrwt>
<totfact> 0.40295530E+03</totfact>
</mgrwt>
</event>
<event>
 4    1  0.8404100E-005  0.4201056E+03  0.7818608E-02  0.1037032E+00
         -2   -1    0    0    0  501 -0.00000000000E+00  0.00000000000E+00  0.88478387157E+03  0.88478387157E+03  0.25500000000E-02 0. -1.
          2   -1    0    0  501    0  0.00000000000E+00 -0.00000000000E+00 -0.49867735712E+02  0.49867735777E+02  0.25500000000E-02 0.  1.
    5000001    1    1    2    0    0  0.94537649557E+02 -0.84532208479E+02  0.48093735518E+03  0.52403129779E+03  0.16500000000E+03 0.  0.
   -5000001    1    1    2    0    0 -0.94537649557E+02  0.84532208479E+02  0.35397878067E+03  0.41062030956E+03  0.16500000000E+03 0.  0.
<mgrwt>
<rscale>  0 0.42010555E+03</rscale>
<asrwt>0</asrwt>
<pdfrwt beam="1">  1        2 0.76719600E-02 0.42010555E+03</pdfrwt>
<pdfrwt beam="2">  1       -2 0.13612058E+00 0.42010555E+03</pdfrwt>
<totfact> 0.36605992E+02</totfact>
</mgrwt>
</event>
<event>
 4    1  0.8404100E-005  0.5742003E+03  0.7818608E-02  0.9960427E-01
         -2   -1    0    0    0  501 -0.00000000000E+00  0.00000000000E+00  0.64316562756E+02  0.64316562807E+02  0.25500000000E-02 0. -1.
          2   -1    0    0  501    0  0.00000000000E+00 -0.00000000000E+00 -0.12815750733E+04  0.12815750733E+04  0.25500000000E-02 0.  1.
    5000001    1    1    2    0    0 -0.10855464741E+03 -0.14805965896E+03 -0.26497418622E+03  0.36213546284E+03  0.16500000000E+03 0.  0.
   -5000001    1    1    2    0    0  0.10855464741E+03  0.14805965896E+03 -0.95228432431E+03  0.98375617325E+03  0.16500000000E+03 0.  0.
<mgrwt>
<rscale>  0 0.57420033E+03</rscale>
<asrwt>0</asrwt>
<pdfrwt beam="1">  1        2 0.19716538E+00 0.57420033E+03</pdfrwt>
<pdfrwt beam="2">  1       -2 0.98948568E-02 0.57420033E+03</pdfrwt>
<totfact> 0.11997287E+03</totfact>
</mgrwt>
</event>
<event>
 4    1  0.8404100E-005  0.3957882E+03  0.7818608E-02  0.1045248E+00
         -2   -1    0    0    0  501 -0.00000000000E+00  0.00000000000E+00  0.73768767576E+02  0.73768767620E+02  0.25500000000E-02 0. -1.
          2   -1    0    0  501    0  0.00000000000E+00 -0.00000000000E+00 -0.53087619654E+03  0.53087619655E+03  0.25500000000E-02 0.  1.
    5000001    1    1    2    0    0 -0.98838302521E+02 -0.13311951843E+02 -0.16038918786E+03  0.25079056938E+03  0.16500000000E+03 0.  0.
   -5000001    1    1    2    0    0  0.98838302521E+02  0.13311951843E+02 -0.29671824110E+03  0.35385439479E+03  0.16500000000E+03 0.  0.
<mgrwt>
<rscale>  0 0.39578824E+03</rscale>
<asrwt>0</asrwt>
<pdfrwt beam="1">  1        2 0.81673259E-01 0.39578824E+03</pdfrwt>
<pdfrwt beam="2">  1       -2 0.11349042E-01 0.39578824E+03</pdfrwt>
<totfact> 0.31652744E+03</totfact>
</mgrwt>
</event>
<event>
 4    1  0.8404100E-005  0.5431523E+03  0.7818608E-02  0.1003091E+00
         -2   -1    0    0    0  501 -0.00000000000E+00  0.00000000000E+00  0.44127127016E+02  0.44127127090E+02  0.25500000000E-02 0. -1.
          2   -1    0    0  501    0  0.00000000000E+00 -0.00000000000E+00 -0.16713891507E+04  0.16713891507E+04  0.25500000000E-02 0.  1.
    5000001    1    1    2    0    0 -0.17141081509E+03  0.12690399095E+03 -0.91560088630E+03  0.95448220174E+03  0.16500000000E+03 0.  0.
   -5000001    1    1    2    0    0  0.17141081509E+03 -0.12690399095E+03 -0.71166113742E+03  0.76103407608E+03  0.16500000000E+03 0.  0.
<mgrwt>
<rscale>  0 0.54315229E+03</rscale>
<asrwt>0</asrwt>
<pdfrwt beam="1">  1        2 0.25713674E+00 0.54315229E+03</pdfrwt>
<pdfrwt beam="2">  1       -2 0.67887901E-02 0.54315229E+03</pdfrwt>
<totfact> 0.13320553E+03</totfact>
</mgrwt>
</event>
<event>
 4    1  0.8404100E-005  0.8231854E+03  0.7818608E-02  0.9527050E-01
          2   -1    0    0  501    0  0.00000000000E+00  0.00000000000E+00  0.19576020915E+03  0.19576020916E+03  0.25500000000E-02 0.  1.
         -2   -1    0    0    0  501 -0.00000000000E+00 -0.00000000000E+00 -0.86538813149E+03  0.86538813149E+03  0.25500000000E-02 0. -1.
    5000001    1    1    2    0    0 -0.78546011117E+02  0.23144566514E+03 -0.70495379713E+03  0.76414751708E+03  0.16500000000E+03 0.  0.
   -5000001    1    1    2    0    0  0.78546011117E+02 -0.23144566514E+03  0.35325874792E+02  0.29700082357E+03  0.16500000000E+03 0.  0.
<mgrwt>
<rscale>  0 0.82318543E+03</rscale>
<asrwt>0</asrwt>
<pdfrwt beam="1">  1        2 0.30116956E-01 0.82318543E+03</pdfrwt>
<pdfrwt beam="2">  1       -2 0.13313663E+00 0.82318543E+03</pdfrwt>
<totfact> 0.72900371E+01</totfact>
</mgrwt>
</event>
<event>
 4    1  0.8404100E-005  0.7219645E+03  0.7818608E-02  0.9680390E-01
          2   -1    0    0  501    0  0.00000000000E+00  0.00000000000E+00  0.15720856569E+04  0.15720856569E+04  0.25500000000E-02 0. -1.
         -2   -1    0    0    0  501 -0.00000000000E+00 -0.00000000000E+00 -0.82888736828E+02  0.82888736867E+02  0.25500000000E-02 0.  1.
    5000001    1    1    2    0    0 -0.24103026725E+02  0.32010995149E+03  0.73166006464E+03  0.81584483031E+03  0.16500000000E+03 0.  0.
   -5000001    1    1    2    0    0  0.24103026725E+02 -0.32010995149E+03  0.75753685539E+03  0.83912956342E+03  0.16500000000E+03 0.  0.
<mgrwt>
<rscale>  0 0.72196453E+03</rscale>
<asrwt>0</asrwt>
<pdfrwt beam="1">  1        2 0.24185934E+00 0.72196453E+03</pdfrwt>
<pdfrwt beam="2">  1       -2 0.12752113E-01 0.72196453E+03</pdfrwt>
<totfact> 0.54009417E+02</totfact>
</mgrwt>
</event>
<event>
 4    1  0.8404100E-005  0.4453682E+03  0.7818608E-02  0.1029112E+00
         -2   -1    0    0    0  501 -0.00000000000E+00  0.00000000000E+00  0.14008801135E+02  0.14008801367E+02  0.25500000000E-02 0. -1.
          2   -1    0    0  501    0  0.00000000000E+00 -0.00000000000E+00 -0.35397902338E+04  0.35397902338E+04  0.25500000000E-02 0.  1.
    5000001    1    1    2    0    0  0.38719184324E+02 -0.21666195818E+02 -0.62334589192E+03  0.64633868850E+03  0.16500000000E+03 0.  0.
   -5000001    1    1    2    0    0 -0.38719184324E+02  0.21666195818E+02 -0.29024355408E+04  0.29074603467E+04  0.16500000000E+03 0.  0.
<mgrwt>
<rscale>  0 0.44536824E+03</rscale>
<asrwt>0</asrwt>
<pdfrwt beam="1">  1        2 0.54458240E+00 0.44536824E+03</pdfrwt>
<pdfrwt beam="2">  1       -2 0.21552030E-02 0.44536824E+03</pdfrwt>
<totfact> 0.63858234E+02</totfact>
</mgrwt>
</event>
<event>
 4    1  0.8404100E-005  0.4305498E+03  0.7818608E-02  0.1033686E+00
         -2   -1    0    0    0  501 -0.00000000000E+00  0.00000000000E+00  0.29079842003E+02  0.29079842114E+02  0.25500000000E-02 0. -1.
          2   -1    0    0  501    0  0.00000000000E+00 -0.00000000000E+00 -0.15936569344E+04  0.15936569344E+04  0.25500000000E-02 0.  1.
    5000001    1    1    2    0    0 -0.57766629341E+02  0.11632466339E+03 -0.60351451478E+03  0.63900170604E+03  0.16500000000E+03 0.  0.
   -5000001    1    1    2    0    0  0.57766629341E+02 -0.11632466339E+03 -0.96106257761E+03  0.98373507047E+03  0.16500000000E+03 0.  0.
<mgrwt>
<rscale>  0 0.43054984E+03</rscale>
<asrwt>0</asrwt>
<pdfrwt beam="1">  1        2 0.24517792E+00 0.43054984E+03</pdfrwt>
<pdfrwt beam="2">  1       -2 0.44738231E-02 0.43054984E+03</pdfrwt>
<totfact> 0.28147974E+03</totfact>
</mgrwt>
</event>
<event>
 4    1  0.8404100E-005  0.5756363E+03  0.7818608E-02  0.9957283E-01
          2   -1    0    0  501    0  0.00000000000E+00  0.00000000000E+00  0.43241204254E+03  0.43241204255E+03  0.25500000000E-02 0.  1.
         -2   -1    0    0    0  501 -0.00000000000E+00 -0.00000000000E+00 -0.19157488391E+03  0.19157488393E+03  0.25500000000E-02 0. -1.
    5000001    1    1    2    0    0 -0.19817837472E+03 -0.48547546349E+02 -0.77624291023E+01  0.26252007117E+03  0.16500000000E+03 0.  0.
   -5000001    1    1    2    0    0  0.19817837472E+03  0.48547546349E+02  0.24859958773E+03  0.36146685530E+03  0.16500000000E+03 0.  0.
<mgrwt>
<rscale>  0 0.57563630E+03</rscale>
<asrwt>0</asrwt>
<pdfrwt beam="1">  1        2 0.66524929E-01 0.57563630E+03</pdfrwt>
<pdfrwt beam="2">  1       -2 0.29473059E-01 0.57563630E+03</pdfrwt>
<totfact> 0.77497056E+02</totfact>
</mgrwt>
</event>
<event>
 4    1  0.8404100E-005  0.3817520E+03  0.7818608E-02  0.1050288E+00
         -2   -1    0    0    0  501 -0.00000000000E+00  0.00000000000E+00  0.56532195820E+02  0.56532195877E+02  0.25500000000E-02 0. -1.
          2   -1    0    0  501    0  0.00000000000E+00 -0.00000000000E+00 -0.64447621823E+03  0.64447621824E+03  0.25500000000E-02 0.  1.
    5000001    1    1    2    0    0  0.46277561648E+02 -0.77868887103E+02 -0.35214161588E+03  0.39929174037E+03  0.16500000000E+03 0.  0.
   -5000001    1    1    2    0    0 -0.46277561648E+02  0.77868887103E+02 -0.23580240653E+03  0.30171667375E+03  0.16500000000E+03 0.  0.
<mgrwt>
<rscale>  0 0.38175204E+03</rscale>
<asrwt>0</asrwt>
<pdfrwt beam="1">  1        2 0.99150182E-01 0.38175204E+03</pdfrwt>
<pdfrwt beam="2">  1       -2 0.86972614E-02 0.38175204E+03</pdfrwt>
<totfact> 0.38620347E+03</totfact>
</mgrwt>
</event>
<event>
 4    1  0.8404100E-005  0.5073632E+03  0.7818608E-02  0.1011875E+00
         -2   -1    0    0    0  501 -0.00000000000E+00  0.00000000000E+00  0.12195087017E+03  0.12195087019E+03  0.25500000000E-02 0. -1.
          2   -1    0    0  501    0  0.00000000000E+00 -0.00000000000E+00 -0.52770713609E+03  0.52770713610E+03  0.25500000000E-02 0.  1.
    5000001    1    1    2    0    0  0.82194087982E+02 -0.14459313475E+03 -0.78295921546E+02  0.24701881314E+03  0.16500000000E+03 0.  0.
   -5000001    1    1    2    0    0 -0.82194087982E+02  0.14459313475E+03 -0.32746034438E+03  0.40263919314E+03  0.16500000000E+03 0.  0.
<mgrwt>
<rscale>  0 0.50736316E+03</rscale>
<asrwt>0</asrwt>
<pdfrwt beam="1">  1        2 0.81185713E-01 0.50736316E+03</pdfrwt>
<pdfrwt beam="2">  1       -2 0.18761673E-01 0.50736316E+03</pdfrwt>
<totfact> 0.13795169E+03</totfact>
</mgrwt>
</event>
<event>
 4    1  0.8404100E-005  0.4768364E+03  0.7818608E-02  0.1020008E+00
         -2   -1    0    0    0  501 -0.00000000000E+00  0.00000000000E+00  0.10184639681E+03  0.10184639684E+03  0.25500000000E-02 0. -1.
          2   -1    0    0  501    0  0.00000000000E+00 -0.00000000000E+00 -0.55812704444E+03  0.55812704445E+03  0.25500000000E-02 0.  1.
    5000001    1    1    2    0    0 -0.17695355241E+02 -0.14816241820E+03 -0.10945708250E+03  0.24793362151E+03  0.16500000000E+03 0.  0.
   -5000001    1    1    2    0    0  0.17695355241E+02  0.14816241820E+03 -0.34682356512E+03  0.41203981979E+03  0.16500000000E+03 0.  0.
<mgrwt>
<rscale>  0 0.47683636E+03</rscale>
<asrwt>0</asrwt>
<pdfrwt beam="1">  1        2 0.85865698E-01 0.47683636E+03</pdfrwt>
<pdfrwt beam="2">  1       -2 0.15668677E-01 0.47683636E+03</pdfrwt>
<totfact> 0.17561182E+03</totfact>
</mgrwt>
</event>
<event>
 4    1  0.8404100E-005  0.1052826E+04  0.7818608E-02  0.9252431E-01
         -2   -1    0    0    0  501 -0.00000000000E+00  0.00000000000E+00  0.30823187605E+03  0.30823187606E+03  0.25500000000E-02 0. -1.
          2   -1    0    0  501    0  0.00000000000E+00 -0.00000000000E+00 -0.89903276598E+03  0.89903276598E+03  0.25500000000E-02 0.  1.
    5000001    1    1    2    0    0 -0.29772933880E+03  0.28110271100E+03  0.33409857565E+02  0.44272193519E+03  0.16500000000E+03 0.  0.
   -5000001    1    1    2    0    0  0.29772933880E+03 -0.28110271100E+03 -0.62421074749E+03  0.76454270685E+03  0.16500000000E+03 0.  0.
<mgrwt>
<rscale>  0 0.10528258E+04</rscale>
<asrwt>0</asrwt>
<pdfrwt beam="1">  1        2 0.13831273E+00 0.10528258E+04</pdfrwt>
<pdfrwt beam="2">  1       -2 0.47420289E-01 0.10528258E+04</pdfrwt>
<totfact> 0.12318095E+02</totfact>
</mgrwt>
</event>
<event>
 4    1  0.8404100E-005  0.6042584E+03  0.7818608E-02  0.9896610E-01
         -2   -1    0    0    0  501 -0.00000000000E+00  0.00000000000E+00  0.30003437355E+03  0.30003437356E+03  0.25500000000E-02 0. -1.
          2   -1    0    0  501    0  0.00000000000E+00 -0.00000000000E+00 -0.30423867142E+03  0.30423867143E+03  0.25500000000E-02 0.  1.
    5000001    1    1    2    0    0 -0.14114959963E+03  0.94581323490E+02  0.18548763344E+03  0.30083134542E+03  0.16500000000E+03 0.  0.
   -5000001    1    1    2    0    0  0.14114959963E+03 -0.94581323490E+02 -0.18969193131E+03  0.30344169956E+03  0.16500000000E+03 0.  0.
<mgrwt>
<rscale>  0 0.60425842E+03</rscale>
<asrwt>0</asrwt>
<pdfrwt beam="1">  1        2 0.46805949E-01 0.60425842E+03</pdfrwt>
<pdfrwt beam="2">  1       -2 0.46159135E-01 0.60425842E+03</pdfrwt>
<totfact> 0.48508145E+02</totfact>
</mgrwt>
</event>
<event>
 4    1  0.8404100E-005  0.7508890E+03  0.7818608E-02  0.9633957E-01
          2   -1    0    0  501    0  0.00000000000E+00  0.00000000000E+00  0.17043110297E+04  0.17043110297E+04  0.25500000000E-02 0.  1.
         -2   -1    0    0    0  501 -0.00000000000E+00 -0.00000000000E+00 -0.82707081069E+02  0.82707081108E+02  0.25500000000E-02 0. -1.
    5000001    1    1    2    0    0 -0.32865192253E+03  0.63289665658E+02  0.90938497394E+03  0.98296678417E+03  0.16500000000E+03 0.  0.
   -5000001    1    1    2    0    0  0.32865192253E+03 -0.63289665658E+02  0.71221897473E+03  0.80405132667E+03  0.16500000000E+03 0.  0.
<mgrwt>
<rscale>  0 0.75088905E+03</rscale>
<asrwt>0</asrwt>
<pdfrwt beam="1">  1        2 0.26220169E+00 0.75088905E+03</pdfrwt>
<pdfrwt beam="2">  1       -2 0.12724167E-01 0.75088905E+03</pdfrwt>
<totfact> 0.45781113E+02</totfact>
</mgrwt>
</event>
<event>
 4    1  0.8404100E-005  0.6220950E+03  0.7818608E-02  0.9860597E-01
         -2   -1    0    0    0  501 -0.00000000000E+00  0.00000000000E+00  0.67332854092E+02  0.67332854140E+02  0.25500000000E-02 0. -1.
          2   -1    0    0  501    0  0.00000000000E+00 -0.00000000000E+00 -0.14368993329E+04  0.14368993329E+04  0.25500000000E-02 0.  1.
    5000001    1    1    2    0    0 -0.22062998855E+03 -0.12149164097E+03 -0.87344575539E+03  0.92388868284E+03  0.16500000000E+03 0.  0.
   -5000001    1    1    2    0    0  0.22062998855E+03  0.12149164097E+03 -0.49612072345E+03  0.58034350424E+03  0.16500000000E+03 0.  0.
<mgrwt>
<rscale>  0 0.62209495E+03</rscale>
<asrwt>0</asrwt>
<pdfrwt beam="1">  1        2 0.22106141E+00 0.62209495E+03</pdfrwt>
<pdfrwt beam="2">  1       -2 0.10358902E-01 0.62209495E+03</pdfrwt>
<totfact> 0.90811051E+02</totfact>
</mgrwt>
</event>
<event>
 4    1  0.8404100E-005  0.4707359E+03  0.7818608E-02  0.1021713E+00
          2   -1    0    0  501    0  0.00000000000E+00  0.00000000000E+00  0.20821750384E+04  0.20821750384E+04  0.25500000000E-02 0.  1.
         -2   -1    0    0    0  501 -0.00000000000E+00 -0.00000000000E+00 -0.26605866794E+02  0.26605866917E+02  0.25500000000E-02 0. -1.
    5000001    1    1    2    0    0  0.96801955837E+02 -0.13155593526E+03  0.12010236243E+04  0.12232580794E+04  0.16500000000E+03 0.  0.
   -5000001    1    1    2    0    0 -0.96801955837E+02  0.13155593526E+03  0.85454554732E+03  0.88552282591E+03  0.16500000000E+03 0.  0.
<mgrwt>
<rscale>  0 0.47073590E+03</rscale>
<asrwt>0</asrwt>
<pdfrwt beam="1">  1        2 0.32033459E+00 0.47073590E+03</pdfrwt>
<pdfrwt beam="2">  1       -2 0.40932107E-02 0.47073590E+03</pdfrwt>
<totfact> 0.17605169E+03</totfact>
</mgrwt>
</event>
<event>
 4    1  0.8404100E-005  0.4484784E+03  0.7818608E-02  0.1028177E+00
          2   -1    0    0  501    0  0.00000000000E+00  0.00000000000E+00  0.39892488945E+03  0.39892488946E+03  0.25500000000E-02 0.  1.
         -2   -1    0    0    0  501 -0.00000000000E+00 -0.00000000000E+00 -0.12604681821E+03  0.12604681823E+03  0.25500000000E-02 0. -1.
    5000001    1    1    2    0    0  0.12786407255E+03 -0.66600240824E+02  0.80626428352E+02  0.23347469687E+03  0.16500000000E+03 0.  0.
   -5000001    1    1    2    0    0 -0.12786407255E+03  0.66600240824E+02  0.19225164289E+03  0.29149701083E+03  0.16500000000E+03 0.  0.
<mgrwt>
<rscale>  0 0.44847837E+03</rscale>
<asrwt>0</asrwt>
<pdfrwt beam="1">  1        2 0.61373060E-01 0.44847837E+03</pdfrwt>
<pdfrwt beam="2">  1       -2 0.19391818E-01 0.44847837E+03</pdfrwt>
<totfact> 0.17867071E+03</totfact>
</mgrwt>
</event>
<event>
 4    1  0.8404100E-005  0.3884037E+03  0.7818608E-02  0.1047871E+00
          2   -1    0    0  501    0  0.00000000000E+00  0.00000000000E+00  0.17403793218E+03  0.17403793220E+03  0.25500000000E-02 0.  1.
         -2   -1    0    0    0  501 -0.00000000000E+00 -0.00000000000E+00 -0.21670194629E+03  0.21670194631E+03  0.25500000000E-02 0. -1.
    5000001    1    1    2    0    0  0.31177661655E+02  0.97417567577E+02 -0.26571942142E+02  0.19594207605E+03  0.16500000000E+03 0.  0.
   -5000001    1    1    2    0    0 -0.31177661655E+02 -0.97417567577E+02 -0.16092071971E+02  0.19479780245E+03  0.16500000000E+03 0.  0.
<mgrwt>
<rscale>  0 0.38840370E+03</rscale>
<asrwt>0</asrwt>
<pdfrwt beam="1">  1        2 0.26775067E-01 0.38840370E+03</pdfrwt>
<pdfrwt beam="2">  1       -2 0.33338761E-01 0.38840370E+03</pdfrwt>
<totfact> 0.16865040E+03</totfact>
</mgrwt>
</event>
<event>
 4    1  0.8404100E-005  0.8316918E+03  0.7818608E-02  0.9515244E-01
          2   -1    0    0  501    0  0.00000000000E+00  0.00000000000E+00  0.46465365788E+03  0.46465365789E+03  0.25500000000E-02 0.  1.
         -2   -1    0    0    0  501 -0.00000000000E+00 -0.00000000000E+00 -0.37216498327E+03  0.37216498328E+03  0.25500000000E-02 0. -1.
    5000001    1    1    2    0    0 -0.19363128781E+02  0.25896302583E+03 -0.23524088515E+03  0.38729840375E+03  0.16500000000E+03 0.  0.
   -5000001    1    1    2    0    0  0.19363128781E+02 -0.25896302583E+03  0.32772955976E+03  0.44952023742E+03  0.16500000000E+03 0.  0.
<mgrwt>
<rscale>  0 0.83169182E+03</rscale>
<asrwt>0</asrwt>
<pdfrwt beam="1">  1        2 0.71485178E-01 0.83169182E+03</pdfrwt>
<pdfrwt beam="2">  1       -2 0.57256151E-01 0.83169182E+03</pdfrwt>
<totfact> 0.19286024E+02</totfact>
</mgrwt>
</event>
<event>
 4    1  0.8404100E-005  0.4741319E+03  0.7818608E-02  0.1020760E+00
         -2   -1    0    0    0  501 -0.00000000000E+00  0.00000000000E+00  0.19259341054E+03  0.19259341056E+03  0.25500000000E-02 0. -1.
          2   -1    0    0  501    0  0.00000000000E+00 -0.00000000000E+00 -0.29180787885E+03  0.29180787886E+03  0.25500000000E-02 0.  1.
    5000001    1    1    2    0    0 -0.95361100046E+02 -0.14046068422E+03 -0.62216819301E+02  0.24478332422E+03  0.16500000000E+03 0.  0.
   -5000001    1    1    2    0    0  0.95361100046E+02  0.14046068422E+03 -0.36997649007E+02  0.23961796520E+03  0.16500000000E+03 0.  0.
<mgrwt>
<rscale>  0 0.47413194E+03</rscale>
<asrwt>0</asrwt>
<pdfrwt beam="1">  1        2 0.44893520E-01 0.47413194E+03</pdfrwt>
<pdfrwt beam="2">  1       -2 0.29629755E-01 0.47413194E+03</pdfrwt>
<totfact> 0.11867620E+03</totfact>
</mgrwt>
</event>
<event>
 4    1  0.8404100E-005  0.4728245E+03  0.7818608E-02  0.1021126E+00
         -2   -1    0    0    0  501 -0.00000000000E+00  0.00000000000E+00  0.49058013085E+03  0.49058013086E+03  0.25500000000E-02 0.  1.
          2   -1    0    0  501    0  0.00000000000E+00 -0.00000000000E+00 -0.11392788572E+03  0.11392788574E+03  0.25500000000E-02 0. -1.
    5000001    1    1    2    0    0  0.15788527499E+03  0.23061212904E+02  0.26071900236E+03  0.34736001179E+03  0.16500000000E+03 0.  0.
   -5000001    1    1    2    0    0 -0.15788527499E+03 -0.23061212904E+02  0.11593324277E+03  0.25714800481E+03  0.16500000000E+03 0.  0.
<mgrwt>
<rscale>  0 0.47282452E+03</rscale>
<asrwt>0</asrwt>
<pdfrwt beam="1">  1        2 0.17527367E-01 0.47282452E+03</pdfrwt>
<pdfrwt beam="2">  1       -2 0.75473868E-01 0.47282452E+03</pdfrwt>
<totfact> 0.52747740E+02</totfact>
</mgrwt>
</event>
<event>
 4    1  0.8404100E-005  0.5821606E+03  0.7818608E-02  0.9943124E-01
          2   -1    0    0  501    0  0.00000000000E+00  0.00000000000E+00  0.16307696561E+04  0.16307696561E+04  0.25500000000E-02 0.  1.
         -2   -1    0    0    0  501 -0.00000000000E+00 -0.00000000000E+00 -0.51955669102E+02  0.51955669165E+02  0.25500000000E-02 0. -1.
    5000001    1    1    2    0    0 -0.27933256426E+02  0.22141210710E+03  0.53578227302E+03  0.60339972826E+03  0.16500000000E+03 0.  0.
   -5000001    1    1    2    0    0  0.27933256426E+02 -0.22141210710E+03  0.10430317139E+04  0.10793255970E+04  0.16500000000E+03 0.  0.
<mgrwt>
<rscale>  0 0.58216056E+03</rscale>
<asrwt>0</asrwt>
<pdfrwt beam="1">  1        2 0.25088765E+00 0.58216056E+03</pdfrwt>
<pdfrwt beam="2">  1       -2 0.79931794E-02 0.58216056E+03</pdfrwt>
<totfact> 0.10800523E+03</totfact>
</mgrwt>
</event>
<event>
 4    1  0.8404100E-005  0.5929643E+03  0.7818608E-02  0.9920111E-01
          2   -1    0    0  501    0  0.00000000000E+00  0.00000000000E+00  0.14003040310E+04  0.14003040310E+04  0.25500000000E-02 0.  1.
         -2   -1    0    0    0  501 -0.00000000000E+00 -0.00000000000E+00 -0.62773266671E+02  0.62773266723E+02  0.25500000000E-02 0. -1.
    5000001    1    1    2    0    0  0.24427539448E+03  0.52291940369E+00  0.74702175790E+03  0.80307985192E+03  0.16500000000E+03 0.  0.
   -5000001    1    1    2    0    0 -0.24427539448E+03 -0.52291940369E+00  0.59050900644E+03  0.65999744581E+03  0.16500000000E+03 0.  0.
<mgrwt>
<rscale>  0 0.59296428E+03</rscale>
<asrwt>0</asrwt>
<pdfrwt beam="1">  1        2 0.21543140E+00 0.59296428E+03</pdfrwt>
<pdfrwt beam="2">  1       -2 0.96574253E-02 0.59296428E+03</pdfrwt>
<totfact> 0.10679595E+03</totfact>
</mgrwt>
</event>
<event>
 4    1  0.8404100E-005  0.9195873E+03  0.7818608E-02  0.9401422E-01
          2   -1    0    0  501    0  0.00000000000E+00  0.00000000000E+00  0.39287816181E+04  0.39287816181E+04  0.25500000000E-02 0.  1.
         -2   -1    0    0    0  501 -0.00000000000E+00 -0.00000000000E+00 -0.53810625379E+02  0.53810625439E+02  0.25500000000E-02 0. -1.
    5000001    1    1    2    0    0 -0.58075098969E+02  0.31251753112E+03  0.31862819642E+04  0.32063464690E+04  0.16500000000E+03 0.  0.
   -5000001    1    1    2    0    0  0.58075098969E+02 -0.31251753112E+03  0.68868902861E+03  0.77624577455E+03  0.16500000000E+03 0.  0.
<mgrwt>
<rscale>  0 0.91958729E+03</rscale>
<asrwt>0</asrwt>
<pdfrwt beam="1">  1        2 0.60442791E+00 0.91958729E+03</pdfrwt>
<pdfrwt beam="2">  1       -2 0.82785582E-02 0.91958729E+03</pdfrwt>
<totfact> 0.38867810E+01</totfact>
</mgrwt>
</event>
<event>
 4    1  0.8404100E-005  0.4360186E+03  0.7818608E-02  0.1031975E+00
         -2   -1    0    0    0  501 -0.00000000000E+00  0.00000000000E+00  0.20008069708E+03  0.20008069710E+03  0.25500000000E-02 0. -1.
          2   -1    0    0  501    0  0.00000000000E+00 -0.00000000000E+00 -0.23754444386E+03  0.23754444387E+03  0.25500000000E-02 0.  1.
    5000001    1    1    2    0    0  0.87990621814E+01  0.10438558327E+03  0.78212230533E+02  0.21051348293E+03  0.16500000000E+03 0.  0.
   -5000001    1    1    2    0    0 -0.87990621814E+01 -0.10438558327E+03 -0.11567597731E+03  0.22711165804E+03  0.16500000000E+03 0.  0.
<mgrwt>
<rscale>  0 0.43601861E+03</rscale>
<asrwt>0</asrwt>
<pdfrwt beam="1">  1        2 0.36545299E-01 0.43601861E+03</pdfrwt>
<pdfrwt beam="2">  1       -2 0.30781646E-01 0.43601861E+03</pdfrwt>
<totfact> 0.13860282E+03</totfact>
</mgrwt>
</event>
<event>
 4    1  0.8404100E-005  0.6882599E+03  0.7818608E-02  0.9737523E-01
         -2   -1    0    0    0  501 -0.00000000000E+00  0.00000000000E+00  0.57329553375E+02  0.57329553432E+02  0.25500000000E-02 0. -1.
          2   -1    0    0  501    0  0.00000000000E+00 -0.00000000000E+00 -0.20656958046E+04  0.20656958046E+04  0.25500000000E-02 0.  1.
    5000001    1    1    2    0    0  0.15943809833E+03 -0.16125654681E+03 -0.16193806361E+04  0.16434849637E+04  0.16500000000E+03 0.  0.
   -5000001    1    1    2    0    0 -0.15943809833E+03  0.16125654681E+03 -0.38898561508E+03  0.47954039437E+03  0.16500000000E+03 0.  0.
<mgrwt>
<rscale>  0 0.68825989E+03</rscale>
<asrwt>0</asrwt>
<pdfrwt beam="1">  1        2 0.31779930E+00 0.68825989E+03</pdfrwt>
<pdfrwt beam="2">  1       -2 0.88199329E-02 0.68825989E+03</pdfrwt>
<totfact> 0.53203450E+02</totfact>
</mgrwt>
</event>
<event>
 4    1  0.8404100E-005  0.8414759E+03  0.7818608E-02  0.9501850E-01
         -2   -1    0    0    0  501 -0.00000000000E+00  0.00000000000E+00  0.14855362124E+03  0.14855362126E+03  0.25500000000E-02 0. -1.
          2   -1    0    0  501    0  0.00000000000E+00 -0.00000000000E+00 -0.11916264741E+04  0.11916264741E+04  0.25500000000E-02 0.  1.
    5000001    1    1    2    0    0 -0.23980730500E+03  0.26759633630E+03 -0.75056920202E+03  0.84834808289E+03  0.16500000000E+03 0.  0.
   -5000001    1    1    2    0    0  0.23980730500E+03 -0.26759633630E+03 -0.29250365084E+03  0.49183201246E+03  0.16500000000E+03 0.  0.
<mgrwt>
<rscale>  0 0.84147591E+03</rscale>
<asrwt>0</asrwt>
<pdfrwt beam="1">  1        2 0.18332714E+00 0.84147591E+03</pdfrwt>
<pdfrwt beam="2">  1       -2 0.22854404E-01 0.84147591E+03</pdfrwt>
<totfact> 0.32417896E+02</totfact>
</mgrwt>
</event>
<event>
 4    1  0.8404100E-005  0.6322532E+03  0.7818608E-02  0.9840662E-01
          2   -1    0    0  501    0  0.00000000000E+00  0.00000000000E+00  0.14363405458E+04  0.14363405458E+04  0.25500000000E-02 0.  1.
         -2   -1    0    0    0  501 -0.00000000000E+00 -0.00000000000E+00 -0.69576827579E+02  0.69576827626E+02  0.25500000000E-02 0. -1.
    5000001    1    1    2    0    0  0.17198794757E+03 -0.78217418528E+01  0.11776896843E+04  0.12015902073E+04  0.16500000000E+03 0.  0.
   -5000001    1    1    2    0    0 -0.17198794757E+03  0.78217418528E+01  0.18907403397E+03  0.30432716619E+03  0.16500000000E+03 0.  0.
<mgrwt>
<rscale>  0 0.63225317E+03</rscale>
<asrwt>0</asrwt>
<pdfrwt beam="1">  1        2 0.22097548E+00 0.63225317E+03</pdfrwt>
<pdfrwt beam="2">  1       -2 0.10704127E-01 0.63225317E+03</pdfrwt>
<totfact> 0.86107597E+02</totfact>
</mgrwt>
</event>
<event>
 4    1  0.8404100E-005  0.4534147E+03  0.7818608E-02  0.1026709E+00
         -2   -1    0    0    0  501 -0.00000000000E+00  0.00000000000E+00  0.10488674128E+03  0.10488674131E+03  0.25500000000E-02 0. -1.
          2   -1    0    0  501    0  0.00000000000E+00 -0.00000000000E+00 -0.49001631702E+03  0.49001631703E+03  0.25500000000E-02 0.  1.
    5000001    1    1    2    0    0 -0.67725524228E+00 -0.15515710783E+03 -0.17964072872E+03  0.28908472495E+03  0.16500000000E+03 0.  0.
   -5000001    1    1    2    0    0  0.67725524228E+00  0.15515710783E+03 -0.20548884702E+03  0.30581833338E+03  0.16500000000E+03 0.  0.
<mgrwt>
<rscale>  0 0.45341467E+03</rscale>
<asrwt>0</asrwt>
<pdfrwt beam="1">  1        2 0.75387125E-01 0.45341467E+03</pdfrwt>
<pdfrwt beam="2">  1       -2 0.16136422E-01 0.45341467E+03</pdfrwt>
<totfact> 0.19410617E+03</totfact>
</mgrwt>
</event>
<event>
 4    1  0.8404100E-005  0.4997251E+03  0.7818608E-02  0.1013851E+00
          2   -1    0    0  501    0  0.00000000000E+00  0.00000000000E+00  0.24665561892E+04  0.24665561892E+04  0.25500000000E-02 0.  1.
         -2   -1    0    0    0  501 -0.00000000000E+00 -0.00000000000E+00 -0.25311116966E+02  0.25311117094E+02  0.25500000000E-02 0. -1.
    5000001    1    1    2    0    0 -0.18013651535E+03 -0.42276581893E+02  0.13759109520E+04  0.13980673880E+04  0.16500000000E+03 0.  0.
   -5000001    1    1    2    0    0  0.18013651535E+03  0.42276581893E+02  0.10653341202E+04  0.10937999183E+04  0.16500000000E+03 0.  0.
<mgrwt>
<rscale>  0 0.49972509E+03</rscale>
<asrwt>0</asrwt>
<pdfrwt beam="1">  1        2 0.37947032E+00 0.49972509E+03</pdfrwt>
<pdfrwt beam="2">  1       -2 0.38940166E-02 0.49972509E+03</pdfrwt>
<totfact> 0.11683878E+03</totfact>
</mgrwt>
</event>
<event>
 4    1  0.8404100E-005  0.3838526E+03  0.7818608E-02  0.1049519E+00
         -2   -1    0    0    0  501 -0.00000000000E+00  0.00000000000E+00  0.25732417568E+02  0.25732417694E+02  0.25500000000E-02 0. -1.
          2   -1    0    0  501    0  0.00000000000E+00 -0.00000000000E+00 -0.14314900594E+04  0.14314900594E+04  0.25500000000E-02 0.  1.
    5000001    1    1    2    0    0 -0.83686987039E+02  0.19369015834E+02 -0.52352469808E+03  0.55559137869E+03  0.16500000000E+03 0.  0.
   -5000001    1    1    2    0    0  0.83686987039E+02 -0.19369015834E+02 -0.88223294378E+03  0.90163109844E+03  0.16500000000E+03 0.  0.
<mgrwt>
<rscale>  0 0.38385258E+03</rscale>
<asrwt>0</asrwt>
<pdfrwt beam="1">  1        2 0.22022918E+00 0.38385258E+03</pdfrwt>
<pdfrwt beam="2">  1       -2 0.39588346E-02 0.38385258E+03</pdfrwt>
<totfact> 0.41574687E+03</totfact>
</mgrwt>
</event>
<event>
 4    1  0.8404100E-005  0.8263869E+03  0.7818608E-02  0.9522589E-01
         -2   -1    0    0    0  501 -0.00000000000E+00  0.00000000000E+00  0.82544376286E+02  0.82544376325E+02  0.25500000000E-02 0. -1.
          2   -1    0    0  501    0  0.00000000000E+00 -0.00000000000E+00 -0.20683277431E+04  0.20683277431E+04  0.25500000000E-02 0.  1.
    5000001    1    1    2    0    0  0.18528933702E+03 -0.29697668553E+03 -0.61592928722E+03  0.72740716042E+03  0.16500000000E+03 0.  0.
   -5000001    1    1    2    0    0 -0.18528933702E+03  0.29697668553E+03 -0.13698540796E+04  0.14234649590E+04  0.16500000000E+03 0.  0.
<mgrwt>
<rscale>  0 0.82638689E+03</rscale>
<asrwt>0</asrwt>
<pdfrwt beam="1">  1        2 0.31820423E+00 0.82638689E+03</pdfrwt>
<pdfrwt beam="2">  1       -2 0.12699136E-01 0.82638689E+03</pdfrwt>
<totfact> 0.28900464E+02</totfact>
</mgrwt>
</event>
<event>
 4    1  0.8404100E-005  0.7254066E+03  0.7818608E-02  0.9674744E-01
         -2   -1    0    0    0  501 -0.00000000000E+00  0.00000000000E+00  0.40968590046E+03  0.40968590047E+03  0.25500000000E-02 0. -1.
          2   -1    0    0  501    0  0.00000000000E+00 -0.00000000000E+00 -0.32110865433E+03  0.32110865434E+03  0.25500000000E-02 0.  1.
    5000001    1    1    2    0    0 -0.29569121177E+03  0.35718372623E+02  0.17019526886E+03  0.38065801503E+03  0.16500000000E+03 0.  0.
   -5000001    1    1    2    0    0  0.29569121177E+03 -0.35718372623E+02 -0.81618022733E+02  0.35013653979E+03  0.16500000000E+03 0.  0.
<mgrwt>
<rscale>  0 0.72540661E+03</rscale>
<asrwt>0</asrwt>
<pdfrwt beam="1">  1        2 0.49401332E-01 0.72540661E+03</pdfrwt>
<pdfrwt beam="2">  1       -2 0.63028600E-01 0.72540661E+03</pdfrwt>
<totfact> 0.23958584E+02</totfact>
</mgrwt>
</event>
<event>
 4    1  0.8404100E-005  0.7812079E+03  0.7818608E-02  0.9587623E-01
         -2   -1    0    0    0  501 -0.00000000000E+00  0.00000000000E+00  0.10172976199E+03  0.10172976203E+03  0.25500000000E-02 0. -1.
          2   -1    0    0  501    0  0.00000000000E+00 -0.00000000000E+00 -0.14997720140E+04  0.14997720140E+04  0.25500000000E-02 0.  1.
    5000001    1    1    2    0    0 -0.19562209999E+01 -0.33827383692E+03 -0.48485956915E+03  0.61379704898E+03  0.16500000000E+03 0.  0.
   -5000001    1    1    2    0    0  0.19562209999E+01  0.33827383692E+03 -0.91318268281E+03  0.98770472700E+03  0.16500000000E+03 0.  0.
<mgrwt>
<rscale>  0 0.78120791E+03</rscale>
<asrwt>0</asrwt>
<pdfrwt beam="1">  1        2 0.23073414E+00 0.78120791E+03</pdfrwt>
<pdfrwt beam="2">  1       -2 0.15650734E-01 0.78120791E+03</pdfrwt>
<totfact> 0.41837611E+02</totfact>
</mgrwt>
</event>
<event>
 4    1  0.8404100E-005  0.8866407E+03  0.7818608E-02  0.9442437E-01
          2   -1    0    0  501    0  0.00000000000E+00  0.00000000000E+00  0.87833624452E+03  0.87833624453E+03  0.25500000000E-02 0. -1.
         -2   -1    0    0    0  501 -0.00000000000E+00 -0.00000000000E+00 -0.22375592666E+03  0.22375592667E+03  0.25500000000E-02 0.  1.
    5000001    1    1    2    0    0 -0.30694808743E+03  0.19215679383E+03  0.57012548227E+03  0.69527651141E+03  0.16500000000E+03 0.  0.
   -5000001    1    1    2    0    0  0.30694808743E+03 -0.19215679383E+03  0.84454835593E+02  0.40681565978E+03  0.16500000000E+03 0.  0.
<mgrwt>
<rscale>  0 0.88664072E+03</rscale>
<asrwt>0</asrwt>
<pdfrwt beam="1">  1        2 0.13512865E+00 0.88664072E+03</pdfrwt>
<pdfrwt beam="2">  1       -2 0.34423989E-01 0.88664072E+03</pdfrwt>
<totfact> 0.24039936E+02</totfact>
</mgrwt>
</event>
<event>
 4    1  0.8404100E-005  0.4539703E+03  0.7818608E-02  0.1026545E+00
         -2   -1    0    0    0  501 -0.00000000000E+00  0.00000000000E+00  0.10742417909E+03  0.10742417912E+03  0.25500000000E-02 0. -1.
          2   -1    0    0  501    0  0.00000000000E+00 -0.00000000000E+00 -0.47961513477E+03  0.47961513478E+03  0.25500000000E-02 0.  1.
    5000001    1    1    2    0    0 -0.15007695621E+03  0.18512958862E+02 -0.23501996256E+03  0.32453844955E+03  0.16500000000E+03 0.  0.
   -5000001    1    1    2    0    0  0.15007695621E+03 -0.18512958862E+02 -0.13717099312E+03  0.26250086435E+03  0.16500000000E+03 0.  0.
<mgrwt>
<rscale>  0 0.45397032E+03</rscale>
<asrwt>0</asrwt>
<pdfrwt beam="1">  1        2 0.73786942E-01 0.45397032E+03</pdfrwt>
<pdfrwt beam="2">  1       -2 0.16526797E-01 0.45397032E+03</pdfrwt>
<totfact> 0.19102386E+03</totfact>
</mgrwt>
</event>
<event>
 4    1  0.8404100E-005  0.8909033E+03  0.7818608E-02  0.9437025E-01
          2   -1    0    0  501    0  0.00000000000E+00  0.00000000000E+00  0.27622808077E+04  0.27622808077E+04  0.25500000000E-02 0.  1.
         -2   -1    0    0    0  501 -0.00000000000E+00 -0.00000000000E+00 -0.71834543706E+02  0.71834543751E+02  0.25500000000E-02 0. -1.
    5000001    1    1    2    0    0 -0.12630534242E+03 -0.38437233472E+03  0.10695962281E+04  0.11554030563E+04  0.16500000000E+03 0.  0.
   -5000001    1    1    2    0    0  0.12630534242E+03  0.38437233472E+03  0.16208500359E+04  0.16787122952E+04  0.16500000000E+03 0.  0.
<mgrwt>
<rscale>  0 0.89090332E+03</rscale>
<asrwt>0</asrwt>
<pdfrwt beam="1">  1        2 0.42496628E+00 0.89090332E+03</pdfrwt>
<pdfrwt beam="2">  1       -2 0.11051468E-01 0.89090332E+03</pdfrwt>
<totfact> 0.14647298E+02</totfact>
</mgrwt>
</event>
<event>
 4    1  0.8404100E-005  0.3784913E+03  0.7818608E-02  0.1051493E+00
         -2   -1    0    0    0  501 -0.00000000000E+00  0.00000000000E+00  0.29393115511E+02  0.29393115621E+02  0.25500000000E-02 0. -1.
          2   -1    0    0  501    0  0.00000000000E+00 -0.00000000000E+00 -0.12184460351E+04  0.12184460351E+04  0.25500000000E-02 0.  1.
    5000001    1    1    2    0    0 -0.70781512072E+02 -0.59772894907E+02 -0.58638130174E+03  0.61615813915E+03  0.16500000000E+03 0.  0.
   -5000001    1    1    2    0    0  0.70781512072E+02  0.59772894907E+02 -0.60267161788E+03  0.63168101160E+03  0.16500000000E+03 0.  0.
<mgrwt>
<rscale>  0 0.37849135E+03</rscale>
<asrwt>0</asrwt>
<pdfrwt beam="1">  1        2 0.18745320E+00 0.37849135E+03</pdfrwt>
<pdfrwt beam="2">  1       -2 0.45220187E-02 0.37849135E+03</pdfrwt>
<totfact> 0.44671712E+03</totfact>
</mgrwt>
</event>
<event>
 4    1  0.8404100E-005  0.4045583E+03  0.7818608E-02  0.1042213E+00
          2   -1    0    0  501    0  0.00000000000E+00  0.00000000000E+00  0.34735171105E+04  0.34735171105E+04  0.25500000000E-02 0.  1.
         -2   -1    0    0    0  501 -0.00000000000E+00 -0.00000000000E+00 -0.11779660971E+02  0.11779661247E+02  0.25500000000E-02 0. -1.
    5000001    1    1    2    0    0 -0.13997593978E+02  0.10509305976E+03  0.13043254163E+04  0.13189883530E+04  0.16500000000E+03 0.  0.
   -5000001    1    1    2    0    0  0.13997593978E+02 -0.10509305976E+03  0.21574120333E+04  0.21663084188E+04  0.16500000000E+03 0.  0.
<mgrwt>
<rscale>  0 0.40455830E+03</rscale>
<asrwt>0</asrwt>
<pdfrwt beam="1">  1        2 0.53438758E+00 0.40455830E+03</pdfrwt>
<pdfrwt beam="2">  1       -2 0.18122544E-02 0.40455830E+03</pdfrwt>
<totfact> 0.92165323E+02</totfact>
</mgrwt>
</event>
<event>
 4    1  0.8404100E-005  0.5615530E+03  0.7818608E-02  0.9988547E-01
          2   -1    0    0  501    0  0.00000000000E+00  0.00000000000E+00  0.16714621549E+03  0.16714621551E+03  0.25500000000E-02 0.  1.
         -2   -1    0    0    0  501 -0.00000000000E+00 -0.00000000000E+00 -0.47165564090E+03  0.47165564091E+03  0.25500000000E-02 0. -1.
    5000001    1    1    2    0    0  0.48246802042E+02 -0.22185791421E+03 -0.14331435213E+03  0.31513916216E+03  0.16500000000E+03 0.  0.
   -5000001    1    1    2    0    0 -0.48246802042E+02  0.22185791421E+03 -0.16119507328E+03  0.32366269426E+03  0.16500000000E+03 0.  0.
<mgrwt>
<rscale>  0 0.56155304E+03</rscale>
<asrwt>0</asrwt>
<pdfrwt beam="1">  1        2 0.25714803E-01 0.56155304E+03</pdfrwt>
<pdfrwt beam="2">  1       -2 0.72562406E-01 0.56155304E+03</pdfrwt>
<totfact> 0.36819857E+02</totfact>
</mgrwt>
</event>
<event>
 4    1  0.8404100E-005  0.5920622E+03  0.7818608E-02  0.9922013E-01
         -2   -1    0    0    0  501 -0.00000000000E+00  0.00000000000E+00  0.13727571254E+03  0.13727571256E+03  0.25500000000E-02 0. -1.
          2   -1    0    0  501    0  0.00000000000E+00 -0.00000000000E+00 -0.63838243911E+03  0.63838243912E+03  0.25500000000E-02 0.  1.
    5000001    1    1    2    0    0  0.10525203755E+03  0.21949191827E+03 -0.29507177134E+03  0.41658977884E+03  0.16500000000E+03 0.  0.
   -5000001    1    1    2    0    0 -0.10525203755E+03 -0.21949191827E+03 -0.20603495524E+03  0.35906837284E+03  0.16500000000E+03 0.  0.
<mgrwt>
<rscale>  0 0.59206217E+03</rscale>
<asrwt>0</asrwt>
<pdfrwt beam="1">  1        2 0.98212682E-01 0.59206217E+03</pdfrwt>
<pdfrwt beam="2">  1       -2 0.21119341E-01 0.59206217E+03</pdfrwt>
<totfact> 0.89527516E+02</totfact>
</mgrwt>
</event>
<event>
 4    1  0.8404100E-005  0.7745845E+03  0.7818608E-02  0.9597551E-01
          2   -1    0    0  501    0  0.00000000000E+00  0.00000000000E+00  0.49176919059E+03  0.49176919059E+03  0.25500000000E-02 0.  1.
         -2   -1    0    0    0  501 -0.00000000000E+00 -0.00000000000E+00 -0.30501158955E+03  0.30501158956E+03  0.25500000000E-02 0. -1.
    5000001    1    1    2    0    0  0.31986976663E+03 -0.95780220281E+02 -0.15870942108E+02  0.37278332179E+03  0.16500000000E+03 0.  0.
   -5000001    1    1    2    0    0 -0.31986976663E+03  0.95780220281E+02  0.20262854314E+03  0.42399745836E+03  0.16500000000E+03 0.  0.
<mgrwt>
<rscale>  0 0.77458454E+03</rscale>
<asrwt>0</asrwt>
<pdfrwt beam="1">  1        2 0.75656798E-01 0.77458454E+03</pdfrwt>
<pdfrwt beam="2">  1       -2 0.46924860E-01 0.77458454E+03</pdfrwt>
<totfact> 0.27229367E+02</totfact>
</mgrwt>
</event>
<event>
 4    1  0.8404100E-005  0.5185450E+03  0.7818608E-02  0.1009049E+00
          2   -1    0    0  501    0  0.00000000000E+00  0.00000000000E+00  0.16821663388E+03  0.16821663390E+03  0.25500000000E-02 0.  1.
         -2   -1    0    0    0  501 -0.00000000000E+00 -0.00000000000E+00 -0.39961696271E+03  0.39961696272E+03  0.25500000000E-02 0. -1.
    5000001    1    1    2    0    0 -0.15735065738E+03 -0.51264281931E+02  0.72676889208E+01  0.23380563569E+03  0.16500000000E+03 0.  0.
   -5000001    1    1    2    0    0  0.15735065738E+03  0.51264281931E+02 -0.23866801775E+03  0.33402796092E+03  0.16500000000E+03 0.  0.
<mgrwt>
<rscale>  0 0.51854497E+03</rscale>
<asrwt>0</asrwt>
<pdfrwt beam="1">  1        2 0.25879482E-01 0.51854497E+03</pdfrwt>
<pdfrwt beam="2">  1       -2 0.61479532E-01 0.51854497E+03</pdfrwt>
<totfact> 0.52221932E+02</totfact>
</mgrwt>
</event>
<event>
 4    1  0.8404100E-005  0.4050475E+03  0.7818608E-02  0.1042046E+00
         -2   -1    0    0    0  501 -0.00000000000E+00  0.00000000000E+00  0.30489635816E+03  0.30489635817E+03  0.25500000000E-02 0. -1.
          2   -1    0    0  501    0  0.00000000000E+00 -0.00000000000E+00 -0.13452397733E+03  0.13452397735E+03  0.25500000000E-02 0.  1.
    5000001    1    1    2    0    0  0.88695507110E+02  0.69251897001E+02  0.48747890634E+02  0.20558228295E+03  0.16500000000E+03 0.  0.
   -5000001    1    1    2    0    0 -0.88695507110E+02 -0.69251897001E+02  0.12162449020E+03  0.23383805258E+03  0.16500000000E+03 0.  0.
<mgrwt>
<rscale>  0 0.40504751E+03</rscale>
<asrwt>0</asrwt>
<pdfrwt beam="1">  1        2 0.20695997E-01 0.40504751E+03</pdfrwt>
<pdfrwt beam="2">  1       -2 0.46907131E-01 0.40504751E+03</pdfrwt>
<totfact> 0.11731478E+03</totfact>
</mgrwt>
</event>
<event>
 4    1  0.8404100E-005  0.7108834E+03  0.7818608E-02  0.9698799E-01
          2   -1    0    0  501    0  0.00000000000E+00  0.00000000000E+00  0.81791274794E+03  0.81791274794E+03  0.25500000000E-02 0. -1.
         -2   -1    0    0    0  501 -0.00000000000E+00 -0.00000000000E+00 -0.15446488721E+03  0.15446488723E+03  0.25500000000E-02 0.  1.
    5000001    1    1    2    0    0  0.31387244199E+03 -0.47309124064E+01  0.29890966775E+03  0.46379982843E+03  0.16500000000E+03 0.  0.
   -5000001    1    1    2    0    0 -0.31387244199E+03  0.47309124064E+01  0.36453819298E+03  0.50857780675E+03  0.16500000000E+03 0.  0.
<mgrwt>
<rscale>  0 0.71088340E+03</rscale>
<asrwt>0</asrwt>
<pdfrwt beam="1">  1        2 0.12583273E+00 0.71088340E+03</pdfrwt>
<pdfrwt beam="2">  1       -2 0.23763828E-01 0.71088340E+03</pdfrwt>
<totfact> 0.52834961E+02</totfact>
</mgrwt>
</event>
<event>
 4    1  0.8404100E-005  0.4300852E+03  0.7818608E-02  0.1033833E+00
         -2   -1    0    0    0  501 -0.00000000000E+00  0.00000000000E+00  0.39765821445E+02  0.39765821527E+02  0.25500000000E-02 0. -1.
          2   -1    0    0  501    0  0.00000000000E+00 -0.00000000000E+00 -0.11628908349E+04  0.11628908349E+04  0.25500000000E-02 0.  1.
    5000001    1    1    2    0    0  0.11323881203E+03  0.26352697731E+01 -0.34158708500E+03  0.39589987350E+03  0.16500000000E+03 0.  0.
   -5000001    1    1    2    0    0 -0.11323881203E+03 -0.26352697731E+01 -0.78153792846E+03  0.80675678294E+03  0.16500000000E+03 0.  0.
<mgrwt>
<rscale>  0 0.43008515E+03</rscale>
<asrwt>0</asrwt>
<pdfrwt beam="1">  1        2 0.17890626E+00 0.43008515E+03</pdfrwt>
<pdfrwt beam="2">  1       -2 0.61178196E-02 0.43008515E+03</pdfrwt>
<totfact> 0.30212282E+03</totfact>
</mgrwt>
</event>
<event>
 4    1  0.8404100E-005  0.5697147E+03  0.7818608E-02  0.9970310E-01
         -2   -1    0    0    0  501 -0.00000000000E+00  0.00000000000E+00  0.85243256107E+02  0.85243256145E+02  0.25500000000E-02 0. -1.
          2   -1    0    0  501    0  0.00000000000E+00 -0.00000000000E+00 -0.95190775552E+03  0.95190775553E+03  0.25500000000E-02 0.  1.
    5000001    1    1    2    0    0  0.18403781674E+03  0.85960484154E+01 -0.17603986622E+03  0.30357675230E+03  0.16500000000E+03 0.  0.
   -5000001    1    1    2    0    0 -0.18403781674E+03 -0.85960484154E+01 -0.69062463320E+03  0.73357425937E+03  0.16500000000E+03 0.  0.
<mgrwt>
<rscale>  0 0.56971472E+03</rscale>
<asrwt>0</asrwt>
<pdfrwt beam="1">  1        2 0.14644734E+00 0.56971472E+03</pdfrwt>
<pdfrwt beam="2">  1       -2 0.13114348E-01 0.56971472E+03</pdfrwt>
<totfact> 0.11971556E+03</totfact>
</mgrwt>
</event>
<event>
 4    1  0.8404100E-005  0.6162189E+03  0.7818608E-02  0.9872317E-01
         -2   -1    0    0    0  501 -0.00000000000E+00  0.00000000000E+00  0.12043727608E+03  0.12043727610E+03  0.25500000000E-02 0. -1.
          2   -1    0    0  501    0  0.00000000000E+00 -0.00000000000E+00 -0.78822307394E+03  0.78822307394E+03  0.25500000000E-02 0.  1.
    5000001    1    1    2    0    0 -0.13363636088E+03  0.85289402749E+02 -0.63814678055E+03  0.67793013851E+03  0.16500000000E+03 0.  0.
   -5000001    1    1    2    0    0  0.13363636088E+03 -0.85289402749E+02 -0.29639017314E+02  0.23073021154E+03  0.16500000000E+03 0.  0.
<mgrwt>
<rscale>  0 0.61621892E+03</rscale>
<asrwt>0</asrwt>
<pdfrwt beam="1">  1        2 0.12126509E+00 0.61621892E+03</pdfrwt>
<pdfrwt beam="2">  1       -2 0.18528812E-01 0.61621892E+03</pdfrwt>
<totfact> 0.86151965E+02</totfact>
</mgrwt>
</event>
<event>
 4    1  0.8404100E-005  0.9071771E+03  0.7818608E-02  0.9416654E-01
          2   -1    0    0  501    0  0.00000000000E+00  0.00000000000E+00  0.62735664268E+03  0.62735664269E+03  0.25500000000E-02 0.  1.
         -2   -1    0    0    0  501 -0.00000000000E+00 -0.00000000000E+00 -0.32795151123E+03  0.32795151124E+03  0.25500000000E-02 0. -1.
    5000001    1    1    2    0    0 -0.21844850275E+03  0.32487846972E+03  0.31704169702E+03  0.53010018495E+03  0.16500000000E+03 0.  0.
   -5000001    1    1    2    0    0  0.21844850275E+03 -0.32487846972E+03 -0.17636565571E+02  0.42520796898E+03  0.16500000000E+03 0.  0.
<mgrwt>
<rscale>  0 0.90717707E+03</rscale>
<asrwt>0</asrwt>
<pdfrwt beam="1">  1        2 0.96516406E-01 0.90717707E+03</pdfrwt>
<pdfrwt beam="2">  1       -2 0.50454079E-01 0.90717707E+03</pdfrwt>
<totfact> 0.17502700E+02</totfact>
</mgrwt>
</event>
<event>
 4    1  0.8404100E-005  0.4322203E+03  0.7818608E-02  0.1033161E+00
         -2   -1    0    0    0  501 -0.00000000000E+00  0.00000000000E+00  0.38612612128E+02  0.38612612212E+02  0.25500000000E-02 0. -1.
          2   -1    0    0  501    0  0.00000000000E+00 -0.00000000000E+00 -0.12095427268E+04  0.12095427268E+04  0.25500000000E-02 0.  1.
    5000001    1    1    2    0    0  0.11329856091E+03  0.69404850841E+02 -0.46209899284E+03  0.50834444662E+03  0.16500000000E+03 0.  0.
   -5000001    1    1    2    0    0 -0.11329856091E+03 -0.69404850841E+02 -0.70883112179E+03  0.73981089235E+03  0.16500000000E+03 0.  0.
<mgrwt>
<rscale>  0 0.43222033E+03</rscale>
<asrwt>0</asrwt>
<pdfrwt beam="1">  1        2 0.18608347E+00 0.43222033E+03</pdfrwt>
<pdfrwt beam="2">  1       -2 0.59404028E-02 0.43222033E+03</pdfrwt>
<totfact> 0.29709561E+03</totfact>
</mgrwt>
</event>
<event>
 4    1  0.8404100E-005  0.5441103E+03  0.7818608E-02  0.1002866E+00
         -2   -1    0    0    0  501 -0.00000000000E+00  0.00000000000E+00  0.38447227569E+03  0.38447227570E+03  0.25500000000E-02 0. -1.
          2   -1    0    0  501    0  0.00000000000E+00 -0.00000000000E+00 -0.19250806477E+03  0.19250806479E+03  0.25500000000E-02 0.  1.
    5000001    1    1    2    0    0  0.92153019663E+02 -0.17047114134E+03 -0.59300503618E+01  0.25458349232E+03  0.16500000000E+03 0.  0.
   -5000001    1    1    2    0    0 -0.92153019663E+02  0.17047114134E+03  0.19789426128E+03  0.32239684817E+03  0.16500000000E+03 0.  0.
<mgrwt>
<rscale>  0 0.54411033E+03</rscale>
<asrwt>0</asrwt>
<pdfrwt beam="1">  1        2 0.29616626E-01 0.54411033E+03</pdfrwt>
<pdfrwt beam="2">  1       -2 0.59149580E-01 0.54411033E+03</pdfrwt>
<totfact> 0.48619631E+02</totfact>
</mgrwt>
</event>
<event>
 4    1  0.8404100E-005  0.7380422E+03  0.7818608E-02  0.9654299E-01
          2   -1    0    0  501    0  0.00000000000E+00  0.00000000000E+00  0.12394422806E+03  0.12394422808E+03  0.25500000000E-02 0.  1.
         -2   -1    0    0    0  501 -0.00000000000E+00 -0.00000000000E+00 -0.10986923869E+04  0.10986923869E+04  0.25500000000E-02 0. -1.
    5000001    1    1    2    0    0 -0.24102854205E+03 -0.17255059577E+03 -0.24683615158E+03  0.41954922466E+03  0.16500000000E+03 0.  0.
   -5000001    1    1    2    0    0  0.24102854205E+03  0.17255059577E+03 -0.72791200726E+03  0.80308739032E+03  0.16500000000E+03 0.  0.
<mgrwt>
<rscale>  0 0.73804222E+03</rscale>
<asrwt>0</asrwt>
<pdfrwt beam="1">  1        2 0.19068343E-01 0.73804222E+03</pdfrwt>
<pdfrwt beam="2">  1       -2 0.16902959E+00 0.73804222E+03</pdfrwt>
<totfact> 0.65971823E+01</totfact>
</mgrwt>
</event>
<event>
 4    1  0.8404100E-005  0.3731905E+03  0.7818608E-02  0.1053480E+00
          2   -1    0    0  501    0  0.00000000000E+00  0.00000000000E+00  0.21926422189E+04  0.21926422189E+04  0.25500000000E-02 0.  1.
         -2   -1    0    0    0  501 -0.00000000000E+00 -0.00000000000E+00 -0.15879374093E+02  0.15879374297E+02  0.25500000000E-02 0. -1.
    5000001    1    1    2    0    0  0.45478865672E+02  0.50739168799E+02  0.14098079936E+04  0.14210652234E+04  0.16500000000E+03 0.  0.
   -5000001    1    1    2    0    0 -0.45478865672E+02 -0.50739168799E+02  0.76695485126E+03  0.78745636981E+03  0.16500000000E+03 0.  0.
<mgrwt>
<rscale>  0 0.37319049E+03</rscale>
<asrwt>0</asrwt>
<pdfrwt beam="1">  1        2 0.33732935E+00 0.37319049E+03</pdfrwt>
<pdfrwt beam="2">  1       -2 0.24429822E-02 0.37319049E+03</pdfrwt>
<totfact> 0.33641235E+03</totfact>
</mgrwt>
</event>
<event>
 4    1  0.8404100E-005  0.3797935E+03  0.7818608E-02  0.1051010E+00
          2   -1    0    0  501    0  0.00000000000E+00  0.00000000000E+00  0.20032467008E+04  0.20032467008E+04  0.25500000000E-02 0.  1.
         -2   -1    0    0    0  501 -0.00000000000E+00 -0.00000000000E+00 -0.18001166314E+02  0.18001166495E+02  0.25500000000E-02 0. -1.
    5000001    1    1    2    0    0  0.36479191004E+02  0.86450554283E+02  0.96282570127E+03  0.98135761103E+03  0.16500000000E+03 0.  0.
   -5000001    1    1    2    0    0 -0.36479191004E+02 -0.86450554283E+02  0.10224198332E+04  0.10398902563E+04  0.16500000000E+03 0.  0.
<mgrwt>
<rscale>  0 0.37979351E+03</rscale>
<asrwt>0</asrwt>
<pdfrwt beam="1">  1        2 0.30819179E+00 0.37979351E+03</pdfrwt>
<pdfrwt beam="2">  1       -2 0.27694103E-02 0.37979351E+03</pdfrwt>
<totfact> 0.35205939E+03</totfact>
</mgrwt>
</event>
<event>
 4    1  0.8404100E-005  0.7036519E+03  0.7818608E-02  0.9711007E-01
          2   -1    0    0  501    0  0.00000000000E+00  0.00000000000E+00  0.11663717810E+04  0.11663717810E+04  0.25500000000E-02 0.  1.
         -2   -1    0    0    0  501 -0.00000000000E+00 -0.00000000000E+00 -0.10612525694E+03  0.10612525697E+03  0.25500000000E-02 0. -1.
    5000001    1    1    2    0    0 -0.20319282407E+03 -0.19961147846E+03  0.30552644760E+03  0.44911410161E+03  0.16500000000E+03 0.  0.
   -5000001    1    1    2    0    0  0.20319282407E+03  0.19961147846E+03  0.75472007645E+03  0.82338293635E+03  0.16500000000E+03 0.  0.
<mgrwt>
<rscale>  0 0.70365192E+03</rscale>
<asrwt>0</asrwt>
<pdfrwt beam="1">  1        2 0.17944182E+00 0.70365192E+03</pdfrwt>
<pdfrwt beam="2">  1       -2 0.16326962E-01 0.70365192E+03</pdfrwt>
<totfact> 0.60717575E+02</totfact>
</mgrwt>
</event>
<event>
 4    1  0.8404100E-005  0.5088390E+03  0.7818608E-02  0.1011497E+00
         -2   -1    0    0    0  501 -0.00000000000E+00  0.00000000000E+00  0.29591316332E+02  0.29591316441E+02  0.25500000000E-02 0. -1.
          2   -1    0    0  501    0  0.00000000000E+00 -0.00000000000E+00 -0.21874417547E+04  0.21874417547E+04  0.25500000000E-02 0.  1.
    5000001    1    1    2    0    0 -0.10864293831E+03 -0.11392530682E+03 -0.58748603893E+03  0.63019608815E+03  0.16500000000E+03 0.  0.
   -5000001    1    1    2    0    0  0.10864293831E+03  0.11392530682E+03 -0.15703643994E+04  0.15868369829E+04  0.16500000000E+03 0.  0.
<mgrwt>
<rscale>  0 0.50883900E+03</rscale>
<asrwt>0</asrwt>
<pdfrwt beam="1">  1        2 0.33652937E+00 0.50883900E+03</pdfrwt>
<pdfrwt beam="2">  1       -2 0.45525119E-02 0.50883900E+03</pdfrwt>
<totfact> 0.13084372E+03</totfact>
</mgrwt>
</event>
<event>
 4    1  0.8404100E-005  0.6932405E+03  0.7818608E-02  0.9728862E-01
         -2   -1    0    0    0  501 -0.00000000000E+00  0.00000000000E+00  0.10445429982E+03  0.10445429985E+03  0.25500000000E-02 0. -1.
          2   -1    0    0  501    0  0.00000000000E+00 -0.00000000000E+00 -0.11502217335E+04  0.11502217335E+04  0.25500000000E-02 0.  1.
    5000001    1    1    2    0    0 -0.90666596925E+01  0.29196719707E+03 -0.68059773592E+03  0.75879201802E+03  0.16500000000E+03 0.  0.
   -5000001    1    1    2    0    0  0.90666596925E+01 -0.29196719707E+03 -0.36516969772E+03  0.49588401529E+03  0.16500000000E+03 0.  0.
<mgrwt>
<rscale>  0 0.69324052E+03</rscale>
<asrwt>0</asrwt>
<pdfrwt beam="1">  1        2 0.17695718E+00 0.69324052E+03</pdfrwt>
<pdfrwt beam="2">  1       -2 0.16069893E-01 0.69324052E+03</pdfrwt>
<totfact> 0.63812221E+02</totfact>
</mgrwt>
</event>
<event>
 4    1  0.8404100E-005  0.4889358E+03  0.7818608E-02  0.1016708E+00
         -2   -1    0    0    0  501 -0.00000000000E+00  0.00000000000E+00  0.65986565617E+02  0.65986565667E+02  0.25500000000E-02 0. -1.
          2   -1    0    0  501    0  0.00000000000E+00 -0.00000000000E+00 -0.90570791649E+03  0.90570791650E+03  0.25500000000E-02 0.  1.
    5000001    1    1    2    0    0 -0.13392068789E+03 -0.11476086267E+03 -0.49513828286E+03  0.55090083082E+03  0.16500000000E+03 0.  0.
   -5000001    1    1    2    0    0  0.13392068789E+03  0.11476086267E+03 -0.34458306801E+03  0.42079365134E+03  0.16500000000E+03 0.  0.
<mgrwt>
<rscale>  0 0.48893580E+03</rscale>
<asrwt>0</asrwt>
<pdfrwt beam="1">  1        2 0.13933967E+00 0.48893580E+03</pdfrwt>
<pdfrwt beam="2">  1       -2 0.10151780E-01 0.48893580E+03</pdfrwt>
<totfact> 0.19538334E+03</totfact>
</mgrwt>
</event>
<event>
 4    1  0.8404100E-005  0.5982926E+03  0.7818608E-02  0.9908955E-01
         -2   -1    0    0    0  501 -0.00000000000E+00  0.00000000000E+00  0.12472823374E+03  0.12472823377E+03  0.25500000000E-02 0. -1.
          2   -1    0    0  501    0  0.00000000000E+00 -0.00000000000E+00 -0.71746791945E+03  0.71746791945E+03  0.25500000000E-02 0.  1.
    5000001    1    1    2    0    0  0.22911135795E+03 -0.67611592214E+02 -0.39787969014E+03  0.49254095217E+03  0.16500000000E+03 0.  0.
   -5000001    1    1    2    0    0 -0.22911135795E+03  0.67611592214E+02 -0.19485999557E+03  0.34965520104E+03  0.16500000000E+03 0.  0.
<mgrwt>
<rscale>  0 0.59829259E+03</rscale>
<asrwt>0</asrwt>
<pdfrwt beam="1">  1        2 0.11037968E+00 0.59829259E+03</pdfrwt>
<pdfrwt beam="2">  1       -2 0.19188959E-01 0.59829259E+03</pdfrwt>
<totfact> 0.91543674E+02</totfact>
</mgrwt>
</event>
<event>
 4    1  0.8404100E-005  0.6744302E+03  0.7818608E-02  0.9761988E-01
          2   -1    0    0  501    0  0.00000000000E+00  0.00000000000E+00  0.48949470221E+03  0.48949470222E+03  0.25500000000E-02 0.  1.
         -2   -1    0    0    0  501 -0.00000000000E+00 -0.00000000000E+00 -0.23230902464E+03  0.23230902465E+03  0.25500000000E-02 0. -1.
    5000001    1    1    2    0    0 -0.23338620281E+03  0.14074023715E+03  0.24686357822E+03  0.40304287646E+03  0.16500000000E+03 0.  0.
   -5000001    1    1    2    0    0  0.23338620281E+03 -0.14074023715E+03  0.10322099349E+02  0.31876085040E+03  0.16500000000E+03 0.  0.
<mgrwt>
<rscale>  0 0.67443024E+03</rscale>
<asrwt>0</asrwt>
<pdfrwt beam="1">  1        2 0.75306877E-01 0.67443024E+03</pdfrwt>
<pdfrwt beam="2">  1       -2 0.35739850E-01 0.67443024E+03</pdfrwt>
<totfact> 0.46792668E+02</totfact>
</mgrwt>
</event>
<event>
 4    1  0.8404100E-005  0.5165479E+03  0.7818608E-02  0.1009548E+00
          2   -1    0    0  501    0  0.00000000000E+00  0.00000000000E+00  0.85874635168E+03  0.85874635168E+03  0.25500000000E-02 0.  1.
         -2   -1    0    0    0  501 -0.00000000000E+00 -0.00000000000E+00 -0.77677703312E+02  0.77677703354E+02  0.25500000000E-02 0. -1.
    5000001    1    1    2    0    0 -0.14063145843E+03 -0.11834572727E+03  0.25369683837E+03  0.35407626871E+03  0.16500000000E+03 0.  0.
   -5000001    1    1    2    0    0  0.14063145843E+03  0.11834572727E+03  0.52737181000E+03  0.58234778633E+03  0.16500000000E+03 0.  0.
<mgrwt>
<rscale>  0 0.51654794E+03</rscale>
<asrwt>0</asrwt>
<pdfrwt beam="1">  1        2 0.13211482E+00 0.51654794E+03</pdfrwt>
<pdfrwt beam="2">  1       -2 0.11950416E-01 0.51654794E+03</pdfrwt>
<totfact> 0.16103661E+03</totfact>
</mgrwt>
</event>
<event>
 4    1  0.8404100E-005  0.5840831E+03  0.7818608E-02  0.9938990E-01
          2   -1    0    0  501    0  0.00000000000E+00  0.00000000000E+00  0.64272964551E+02  0.64272964602E+02  0.25500000000E-02 0.  1.
         -2   -1    0    0    0  501 -0.00000000000E+00 -0.00000000000E+00 -0.13269695014E+04  0.13269695014E+04  0.25500000000E-02 0. -1.
    5000001    1    1    2    0    0  0.16261349616E+03  0.14979692891E+03 -0.85957844269E+03  0.90276373885E+03  0.16500000000E+03 0.  0.
   -5000001    1    1    2    0    0 -0.16261349616E+03 -0.14979692891E+03 -0.40311809416E+03  0.48847872716E+03  0.16500000000E+03 0.  0.
<mgrwt>
<rscale>  0 0.58408309E+03</rscale>
<asrwt>0</asrwt>
<pdfrwt beam="1">  1        2 0.98881494E-02 0.58408309E+03</pdfrwt>
<pdfrwt beam="2">  1       -2 0.20414913E+00 0.58408309E+03</pdfrwt>
<totfact> 0.86547305E+01</totfact>
</mgrwt>
</event>
<event>
 4    1  0.8404100E-005  0.5569461E+03  0.7818608E-02  0.9998989E-01
         -2   -1    0    0    0  501 -0.00000000000E+00  0.00000000000E+00  0.25948734716E+02  0.25948734841E+02  0.25500000000E-02 0. -1.
          2   -1    0    0  501    0  0.00000000000E+00 -0.00000000000E+00 -0.29884781389E+04  0.29884781389E+04  0.25500000000E-02 0.  1.
    5000001    1    1    2    0    0 -0.20316371545E+03 -0.31819642095E+02 -0.19664013342E+04  0.19839977803E+04  0.16500000000E+03 0.  0.
   -5000001    1    1    2    0    0  0.20316371545E+03  0.31819642095E+02 -0.99612806996E+03  0.10304290935E+04  0.16500000000E+03 0.  0.
<mgrwt>
<rscale>  0 0.55694605E+03</rscale>
<asrwt>0</asrwt>
<pdfrwt beam="1">  1        2 0.45976560E+00 0.55694605E+03</pdfrwt>
<pdfrwt beam="2">  1       -2 0.39921154E-02 0.55694605E+03</pdfrwt>
<totfact> 0.55748759E+02</totfact>
</mgrwt>
</event>
<event>
 4    1  0.8404100E-005  0.4622116E+03  0.7818608E-02  0.1024142E+00
          2   -1    0    0  501    0  0.00000000000E+00  0.00000000000E+00  0.10112816512E+04  0.10112816512E+04  0.25500000000E-02 0.  1.
         -2   -1    0    0    0  501 -0.00000000000E+00 -0.00000000000E+00 -0.52814065137E+02  0.52814065198E+02  0.25500000000E-02 0. -1.
    5000001    1    1    2    0    0  0.11267972923E+03 -0.74112143316E+01  0.74606114491E+03  0.77238842523E+03  0.16500000000E+03 0.  0.
   -5000001    1    1    2    0    0 -0.11267972923E+03  0.74112143316E+01  0.21240644113E+03  0.29170729115E+03  0.16500000000E+03 0.  0.
<mgrwt>
<rscale>  0 0.46221162E+03</rscale>
<asrwt>0</asrwt>
<pdfrwt beam="1">  1        2 0.15558179E+00 0.46221162E+03</pdfrwt>
<pdfrwt beam="2">  1       -2 0.81252410E-02 0.46221162E+03</pdfrwt>
<totfact> 0.23883039E+03</totfact>
</mgrwt>
</event>
<event>
 4    1  0.8404100E-005  0.4900979E+03  0.7818608E-02  0.1016396E+00
         -2   -1    0    0    0  501 -0.00000000000E+00  0.00000000000E+00  0.13466927489E+03  0.13466927492E+03  0.25500000000E-02 0. -1.
          2   -1    0    0  501    0  0.00000000000E+00 -0.00000000000E+00 -0.44589971841E+03  0.44589971841E+03  0.25500000000E-02 0.  1.
    5000001    1    1    2    0    0 -0.14859608195E+03  0.10217490435E+03 -0.17625189455E+03  0.30134736930E+03  0.16500000000E+03 0.  0.
   -5000001    1    1    2    0    0  0.14859608195E+03 -0.10217490435E+03 -0.13497854896E+03  0.27922162403E+03  0.16500000000E+03 0.  0.
<mgrwt>
<rscale>  0 0.49009792E+03</rscale>
<asrwt>0</asrwt>
<pdfrwt beam="1">  1        2 0.68599956E-01 0.49009792E+03</pdfrwt>
<pdfrwt beam="2">  1       -2 0.20718350E-01 0.49009792E+03</pdfrwt>
<totfact> 0.14076158E+03</totfact>
</mgrwt>
</event>
<event>
 4    1  0.8404100E-005  0.6389827E+03  0.7818608E-02  0.9827675E-01
          2   -1    0    0  501    0  0.00000000000E+00  0.00000000000E+00  0.67886535165E+03  0.67886535165E+03  0.25500000000E-02 0.  1.
         -2   -1    0    0    0  501 -0.00000000000E+00 -0.00000000000E+00 -0.15036080064E+03  0.15036080066E+03  0.25500000000E-02 0. -1.
    5000001    1    1    2    0    0 -0.34867642113E+02  0.18130808273E+03  0.22480985285E+01  0.24762557880E+03  0.16500000000E+03 0.  0.
   -5000001    1    1    2    0    0  0.34867642113E+02 -0.18130808273E+03  0.52625645248E+03  0.58160057351E+03  0.16500000000E+03 0.  0.
<mgrwt>
<rscale>  0 0.63898275E+03</rscale>
<asrwt>0</asrwt>
<pdfrwt beam="1">  1        2 0.10444082E+00 0.63898275E+03</pdfrwt>
<pdfrwt beam="2">  1       -2 0.23132431E-01 0.63898275E+03</pdfrwt>
<totfact> 0.70599402E+02</totfact>
</mgrwt>
</event>
<event>
 4    1  0.8404100E-005  0.4154822E+03  0.7818608E-02  0.1038547E+00
          2   -1    0    0  501    0  0.00000000000E+00  0.00000000000E+00  0.84199548943E+03  0.84199548944E+03  0.25500000000E-02 0.  1.
         -2   -1    0    0    0  501 -0.00000000000E+00 -0.00000000000E+00 -0.51254855336E+02  0.51254855400E+02  0.25500000000E-02 0. -1.
    5000001    1    1    2    0    0 -0.84536274872E+02  0.77146657236E+01  0.59619401237E+03  0.62440227276E+03  0.16500000000E+03 0.  0.
   -5000001    1    1    2    0    0  0.84536274872E+02 -0.77146657236E+01  0.19454662173E+03  0.26884807208E+03  0.16500000000E+03 0.  0.
<mgrwt>
<rscale>  0 0.41548216E+03</rscale>
<asrwt>0</asrwt>
<pdfrwt beam="1">  1        2 0.12953775E+00 0.41548216E+03</pdfrwt>
<pdfrwt beam="2">  1       -2 0.78853633E-02 0.41548216E+03</pdfrwt>
<totfact> 0.32260311E+03</totfact>
</mgrwt>
</event>
<event>
 4    1  0.8404100E-005  0.8451014E+03  0.7818608E-02  0.9496935E-01
         -2   -1    0    0    0  501 -0.00000000000E+00  0.00000000000E+00  0.63457038448E+03  0.63457038449E+03  0.25500000000E-02 0. -1.
          2   -1    0    0  501    0  0.00000000000E+00 -0.00000000000E+00 -0.28137001163E+03  0.28137001164E+03  0.25500000000E-02 0.  1.
    5000001    1    1    2    0    0 -0.19241439461E+03 -0.33479051643E+03  0.22762152501E+03  0.47764479249E+03  0.16500000000E+03 0.  0.
   -5000001    1    1    2    0    0  0.19241439461E+03  0.33479051643E+03  0.12557884784E+03  0.43829560364E+03  0.16500000000E+03 0.  0.
<mgrwt>
<rscale>  0 0.84510136E+03</rscale>
<asrwt>0</asrwt>
<pdfrwt beam="1">  1        2 0.43287695E-01 0.84510136E+03</pdfrwt>
<pdfrwt beam="2">  1       -2 0.97626212E-01 0.84510136E+03</pdfrwt>
<totfact> 0.10368288E+02</totfact>
</mgrwt>
</event>
<event>
 4    1  0.8404100E-005  0.7598698E+03  0.7818608E-02  0.9619992E-01
          2   -1    0    0  501    0  0.00000000000E+00  0.00000000000E+00  0.38037571352E+04  0.38037571352E+04  0.25500000000E-02 0.  1.
         -2   -1    0    0    0  501 -0.00000000000E+00 -0.00000000000E+00 -0.37949461930E+02  0.37949462015E+02  0.25500000000E-02 0. -1.
    5000001    1    1    2    0    0 -0.20422572180E+03  0.23764343093E+03  0.11870640243E+04  0.12387608904E+04  0.16500000000E+03 0.  0.
   -5000001    1    1    2    0    0  0.20422572180E+03 -0.23764343093E+03  0.25787436489E+04  0.26029457068E+04  0.16500000000E+03 0.  0.
<mgrwt>
<rscale>  0 0.75986982E+03</rscale>
<asrwt>0</asrwt>
<pdfrwt beam="1">  1        2 0.58519354E+00 0.75986982E+03</pdfrwt>
<pdfrwt beam="2">  1       -2 0.58383775E-02 0.75986982E+03</pdfrwt>
<totfact> 0.86148864E+01</totfact>
</mgrwt>
</event>
<event>
 4    1  0.8404100E-005  0.8839141E+03  0.7818608E-02  0.9445916E-01
         -2   -1    0    0    0  501 -0.00000000000E+00  0.00000000000E+00  0.12895075672E+03  0.12895075675E+03  0.25500000000E-02 0. -1.
          2   -1    0    0  501    0  0.00000000000E+00 -0.00000000000E+00 -0.15147336628E+04  0.15147336628E+04  0.25500000000E-02 0.  1.
    5000001    1    1    2    0    0 -0.13342452469E+03  0.29054935888E+03 -0.11701846150E+04  0.12242459177E+04  0.16500000000E+03 0.  0.
   -5000001    1    1    2    0    0  0.13342452469E+03 -0.29054935888E+03 -0.21559829104E+03  0.41943850185E+03  0.16500000000E+03 0.  0.
<mgrwt>
<rscale>  0 0.88391414E+03</rscale>
<asrwt>0</asrwt>
<pdfrwt beam="1">  1        2 0.23303594E+00 0.88391414E+03</pdfrwt>
<pdfrwt beam="2">  1       -2 0.19838579E-01 0.88391414E+03</pdfrwt>
<totfact> 0.27095923E+02</totfact>
</mgrwt>
</event>
<event>
 4    1  0.8404100E-005  0.6340956E+03  0.7818608E-02  0.9837089E-01
          2   -1    0    0  501    0  0.00000000000E+00  0.00000000000E+00  0.59373874964E+03  0.59373874964E+03  0.25500000000E-02 0.  1.
         -2   -1    0    0    0  501 -0.00000000000E+00 -0.00000000000E+00 -0.16929890924E+03  0.16929890926E+03  0.25500000000E-02 0. -1.
    5000001    1    1    2    0    0 -0.20668474802E+03  0.95500641669E+02  0.38848210724E+03  0.47956470394E+03  0.16500000000E+03 0.  0.
   -5000001    1    1    2    0    0  0.20668474802E+03 -0.95500641669E+02  0.35957733159E+02  0.28347295497E+03  0.16500000000E+03 0.  0.
<mgrwt>
<rscale>  0 0.63409565E+03</rscale>
<asrwt>0</asrwt>
<pdfrwt beam="1">  1        2 0.91344422E-01 0.63409565E+03</pdfrwt>
<pdfrwt beam="2">  1       -2 0.26045986E-01 0.63409565E+03</pdfrwt>
<totfact> 0.67202829E+02</totfact>
</mgrwt>
</event>
<event>
 4    1  0.8404100E-005  0.4990957E+03  0.7818608E-02  0.1014015E+00
         -2   -1    0    0    0  501 -0.00000000000E+00  0.00000000000E+00  0.46243378244E+02  0.46243378314E+02  0.25500000000E-02 0. -1.
          2   -1    0    0  501    0  0.00000000000E+00 -0.00000000000E+00 -0.13466604400E+04  0.13466604400E+04  0.25500000000E-02 0.  1.
    5000001    1    1    2    0    0 -0.17406346952E+02  0.18321882062E+03 -0.55446100392E+03  0.60706187659E+03  0.16500000000E+03 0.  0.
   -5000001    1    1    2    0    0  0.17406346952E+02 -0.18321882062E+03 -0.74595605780E+03  0.78584194169E+03  0.16500000000E+03 0.  0.
<mgrwt>
<rscale>  0 0.49909569E+03</rscale>
<asrwt>0</asrwt>
<pdfrwt beam="1">  1        2 0.20717850E+00 0.49909569E+03</pdfrwt>
<pdfrwt beam="2">  1       -2 0.71143669E-02 0.49909569E+03</pdfrwt>
<totfact> 0.18699270E+03</totfact>
</mgrwt>
</event>
<event>
 4    1  0.8404100E-005  0.3798084E+03  0.7818608E-02  0.1051005E+00
         -2   -1    0    0    0  501 -0.00000000000E+00  0.00000000000E+00  0.31750684588E+02  0.31750684690E+02  0.25500000000E-02 0. -1.
          2   -1    0    0  501    0  0.00000000000E+00 -0.00000000000E+00 -0.11358370998E+04  0.11358370998E+04  0.25500000000E-02 0.  1.
    5000001    1    1    2    0    0  0.64200274854E+02  0.39440765952E+02 -0.37919626807E+03  0.42034754552E+03  0.16500000000E+03 0.  0.
   -5000001    1    1    2    0    0 -0.64200274854E+02 -0.39440765952E+02 -0.72489014715E+03  0.74724023898E+03  0.16500000000E+03 0.  0.
<mgrwt>
<rscale>  0 0.37980840E+03</rscale>
<asrwt>0</asrwt>
<pdfrwt beam="1">  1        2 0.17474414E+00 0.37980840E+03</pdfrwt>
<pdfrwt beam="2">  1       -2 0.48847216E-02 0.37980840E+03</pdfrwt>
<totfact> 0.44335100E+03</totfact>
</mgrwt>
</event>
<event>
 4    1  0.8404100E-005  0.6427734E+03  0.7818608E-02  0.9820435E-01
         -2   -1    0    0    0  501 -0.00000000000E+00  0.00000000000E+00  0.95968378326E+02  0.95968378360E+02  0.25500000000E-02 0. -1.
          2   -1    0    0  501    0  0.00000000000E+00 -0.00000000000E+00 -0.10762857966E+04  0.10762857966E+04  0.25500000000E-02 0.  1.
    5000001    1    1    2    0    0 -0.27462076382E+03 -0.22340591080E+02 -0.51240065787E+03  0.60472729401E+03  0.16500000000E+03 0.  0.
   -5000001    1    1    2    0    0  0.27462076382E+03  0.22340591080E+02 -0.46791676037E+03  0.56752688092E+03  0.16500000000E+03 0.  0.
<mgrwt>
<rscale>  0 0.64277337E+03</rscale>
<asrwt>0</asrwt>
<pdfrwt beam="1">  1        2 0.16558242E+00 0.64277337E+03</pdfrwt>
<pdfrwt beam="2">  1       -2 0.14764367E-01 0.64277337E+03</pdfrwt>
<totfact> 0.81823536E+02</totfact>
</mgrwt>
</event>
<event>
 4    1  0.8404100E-005  0.4338838E+03  0.7818608E-02  0.1032640E+00
          2   -1    0    0  501    0  0.00000000000E+00  0.00000000000E+00  0.10103271324E+04  0.10103271324E+04  0.25500000000E-02 0.  1.
         -2   -1    0    0    0  501 -0.00000000000E+00 -0.00000000000E+00 -0.46582725491E+02  0.46582725561E+02  0.25500000000E-02 0. -1.
    5000001    1    1    2    0    0  0.72174917486E+02  0.10432537954E+03  0.33278646778E+03  0.39251093828E+03  0.16500000000E+03 0.  0.
   -5000001    1    1    2    0    0 -0.72174917486E+02 -0.10432537954E+03  0.63095793909E+03  0.66439891965E+03  0.16500000000E+03 0.  0.
<mgrwt>
<rscale>  0 0.43388382E+03</rscale>
<asrwt>0</asrwt>
<pdfrwt beam="1">  1        2 0.15543494E+00 0.43388382E+03</pdfrwt>
<pdfrwt beam="2">  1       -2 0.71665735E-02 0.43388382E+03</pdfrwt>
<totfact> 0.29156675E+03</totfact>
</mgrwt>
</event>
<event>
 4    1  0.8404100E-005  0.6613227E+03  0.7818608E-02  0.9785762E-01
          2   -1    0    0  501    0  0.00000000000E+00  0.00000000000E+00  0.91059382624E+03  0.91059382624E+03  0.25500000000E-02 0.  1.
         -2   -1    0    0    0  501 -0.00000000000E+00 -0.00000000000E+00 -0.12007211903E+03  0.12007211906E+03  0.25500000000E-02 0. -1.
    5000001    1    1    2    0    0 -0.24652631783E+03 -0.64557419593E+02  0.59947111241E+03  0.67196242486E+03  0.16500000000E+03 0.  0.
   -5000001    1    1    2    0    0  0.24652631783E+03  0.64557419593E+02  0.19105059480E+03  0.35870352045E+03  0.16500000000E+03 0.  0.
<mgrwt>
<rscale>  0 0.66132271E+03</rscale>
<asrwt>0</asrwt>
<pdfrwt beam="1">  1        2 0.14009136E+00 0.66132271E+03</pdfrwt>
<pdfrwt beam="2">  1       -2 0.18472633E-01 0.66132271E+03</pdfrwt>
<totfact> 0.71179639E+02</totfact>
</mgrwt>
</event>
<event>
 4    1  0.8404100E-005  0.6277250E+03  0.7818608E-02  0.9849498E-01
          2   -1    0    0  501    0  0.00000000000E+00  0.00000000000E+00  0.64413697862E+03  0.64413697863E+03  0.25500000000E-02 0.  1.
         -2   -1    0    0    0  501 -0.00000000000E+00 -0.00000000000E+00 -0.15293280732E+03  0.15293280734E+03  0.25500000000E-02 0. -1.
    5000001    1    1    2    0    0  0.17297291068E+03  0.14458179646E+03  0.42723391360E+03  0.51046776649E+03  0.16500000000E+03 0.  0.
   -5000001    1    1    2    0    0 -0.17297291068E+03 -0.14458179646E+03  0.63970257709E+02  0.28660201948E+03  0.16500000000E+03 0.  0.
<mgrwt>
<rscale>  0 0.62772502E+03</rscale>
<asrwt>0</asrwt>
<pdfrwt beam="1">  1        2 0.99097995E-01 0.62772502E+03</pdfrwt>
<pdfrwt beam="2">  1       -2 0.23528125E-01 0.62772502E+03</pdfrwt>
<totfact> 0.73101496E+02</totfact>
</mgrwt>
</event>
<event>
 4    1  0.8404100E-005  0.6457135E+03  0.7818608E-02  0.9814856E-01
         -2   -1    0    0    0  501 -0.00000000000E+00  0.00000000000E+00  0.40842061220E+02  0.40842061300E+02  0.25500000000E-02 0. -1.
          2   -1    0    0  501    0  0.00000000000E+00 -0.00000000000E+00 -0.25521844542E+04  0.25521844542E+04  0.25500000000E-02 0.  1.
    5000001    1    1    2    0    0 -0.58897620628E+02  0.25643288135E+03 -0.90135692493E+03  0.95336040324E+03  0.16500000000E+03 0.  0.
   -5000001    1    1    2    0    0  0.58897620628E+02 -0.25643288135E+03 -0.16099854680E+04  0.16396661122E+04  0.16500000000E+03 0.  0.
<mgrwt>
<rscale>  0 0.64571348E+03</rscale>
<asrwt>0</asrwt>
<pdfrwt beam="1">  1        2 0.39264364E+00 0.64571348E+03</pdfrwt>
<pdfrwt beam="2">  1       -2 0.62833960E-02 0.64571348E+03</pdfrwt>
<totfact> 0.49181920E+02</totfact>
</mgrwt>
</event>
<event>
 4    1  0.8404100E-005  0.6283359E+03  0.7818608E-02  0.9848301E-01
         -2   -1    0    0    0  501 -0.00000000000E+00  0.00000000000E+00  0.12541578093E+03  0.12541578095E+03  0.25500000000E-02 0. -1.
          2   -1    0    0  501    0  0.00000000000E+00 -0.00000000000E+00 -0.78699436366E+03  0.78699436366E+03  0.25500000000E-02 0.  1.
    5000001    1    1    2    0    0 -0.13670090807E+02  0.26105916697E+03 -0.24944865615E+03  0.39722587037E+03  0.16500000000E+03 0.  0.
   -5000001    1    1    2    0    0  0.13670090807E+02 -0.26105916697E+03 -0.41212992658E+03  0.51518427424E+03  0.16500000000E+03 0.  0.
<mgrwt>
<rscale>  0 0.62833594E+03</rscale>
<asrwt>0</asrwt>
<pdfrwt beam="1">  1        2 0.12107605E+00 0.62833594E+03</pdfrwt>
<pdfrwt beam="2">  1       -2 0.19294736E-01 0.62833594E+03</pdfrwt>
<totfact> 0.80456367E+02</totfact>
</mgrwt>
</event>
<event>
 4    1  0.8404100E-005  0.5706814E+03  0.7818608E-02  0.9968172E-01
         -2   -1    0    0    0  501 -0.00000000000E+00  0.00000000000E+00  0.12788556030E+03  0.12788556032E+03  0.25500000000E-02 0. -1.
          2   -1    0    0  501    0  0.00000000000E+00 -0.00000000000E+00 -0.63665762739E+03  0.63665762739E+03  0.25500000000E-02 0.  1.
    5000001    1    1    2    0    0 -0.22365200883E+03  0.62851102915E+02 -0.23434258223E+03  0.36893350084E+03  0.16500000000E+03 0.  0.
   -5000001    1    1    2    0    0  0.22365200883E+03 -0.62851102915E+02 -0.27442948486E+03  0.39560968688E+03  0.16500000000E+03 0.  0.
<mgrwt>
<rscale>  0 0.57068141E+03</rscale>
<asrwt>0</asrwt>
<pdfrwt beam="1">  1        2 0.97947326E-01 0.57068141E+03</pdfrwt>
<pdfrwt beam="2">  1       -2 0.19674702E-01 0.57068141E+03</pdfrwt>
<totfact> 0.10168396E+03</totfact>
</mgrwt>
</event>
<event>
 4    1  0.8404100E-005  0.7119767E+03  0.7818608E-02  0.9696967E-01
          2   -1    0    0  501    0  0.00000000000E+00  0.00000000000E+00  0.30811966218E+03  0.30811966219E+03  0.25500000000E-02 0.  1.
         -2   -1    0    0    0  501 -0.00000000000E+00 -0.00000000000E+00 -0.41129381875E+03  0.41129381876E+03  0.25500000000E-02 0. -1.
    5000001    1    1    2    0    0 -0.14322388052E+03 -0.18440249204E+03 -0.26589999498E+03  0.39044227019E+03  0.16500000000E+03 0.  0.
   -5000001    1    1    2    0    0  0.14322388052E+03  0.18440249204E+03  0.16272583841E+03  0.32897121076E+03  0.16500000000E+03 0.  0.
<mgrwt>
<rscale>  0 0.71197672E+03</rscale>
<asrwt>0</asrwt>
<pdfrwt beam="1">  1        2 0.47403025E-01 0.71197672E+03</pdfrwt>
<pdfrwt beam="2">  1       -2 0.63275972E-01 0.71197672E+03</pdfrwt>
<totfact> 0.24884932E+02</totfact>
</mgrwt>
</event>
<event>
 4    1  0.8404100E-005  0.5273124E+03  0.7818608E-02  0.1006886E+00
         -2   -1    0    0    0  501 -0.00000000000E+00  0.00000000000E+00  0.17754421094E+03  0.17754421096E+03  0.25500000000E-02 0. -1.
          2   -1    0    0  501    0  0.00000000000E+00 -0.00000000000E+00 -0.39153399099E+03  0.39153399100E+03  0.25500000000E-02 0.  1.
    5000001    1    1    2    0    0  0.18576411228E+03 -0.51016035875E+02 -0.29332217347E+02  0.25533570119E+03  0.16500000000E+03 0.  0.
   -5000001    1    1    2    0    0 -0.18576411228E+03  0.51016035875E+02 -0.18465756270E+03  0.31374250077E+03  0.16500000000E+03 0.  0.
<mgrwt>
<rscale>  0 0.52731241E+03</rscale>
<asrwt>0</asrwt>
<pdfrwt beam="1">  1        2 0.60235999E-01 0.52731241E+03</pdfrwt>
<pdfrwt beam="2">  1       -2 0.27314494E-01 0.52731241E+03</pdfrwt>
<totfact> 0.99573241E+02</totfact>
</mgrwt>
</event>
<event>
 4    1  0.8404100E-005  0.3653486E+03  0.7818608E-02  0.1056486E+00
         -2   -1    0    0    0  501 -0.00000000000E+00  0.00000000000E+00  0.29074232400E+02  0.29074232512E+02  0.25500000000E-02 0. -1.
          2   -1    0    0  501    0  0.00000000000E+00 -0.00000000000E+00 -0.11477480670E+04  0.11477480670E+04  0.25500000000E-02 0.  1.
    5000001    1    1    2    0    0  0.30603422433E+02  0.72126842283E+02 -0.55141848552E+03  0.58088397896E+03  0.16500000000E+03 0.  0.
   -5000001    1    1    2    0    0 -0.30603422433E+02 -0.72126842283E+02 -0.56725534906E+03  0.59593832053E+03  0.16500000000E+03 0.  0.
<mgrwt>
<rscale>  0 0.36534857E+03</rscale>
<asrwt>0</asrwt>
<pdfrwt beam="1">  1        2 0.17657659E+00 0.36534857E+03</pdfrwt>
<pdfrwt beam="2">  1       -2 0.44729597E-02 0.36534857E+03</pdfrwt>
<totfact> 0.49895474E+03</totfact>
</mgrwt>
</event>
<event>
 4    1  0.8404100E-005  0.4915586E+03  0.7818608E-02  0.1016006E+00
         -2   -1    0    0    0  501 -0.00000000000E+00  0.00000000000E+00  0.29787126335E+02  0.29787126444E+02  0.25500000000E-02 0. -1.
          2   -1    0    0  501    0  0.00000000000E+00 -0.00000000000E+00 -0.20279719721E+04  0.20279719721E+04  0.25500000000E-02 0.  1.
    5000001    1    1    2    0    0 -0.29689933622E+02 -0.17398087583E+03 -0.81040606078E+03  0.84565585238E+03  0.16500000000E+03 0.  0.
   -5000001    1    1    2    0    0  0.29689933622E+02  0.17398087583E+03 -0.11877787850E+04  0.12121032462E+04  0.16500000000E+03 0.  0.
<mgrwt>
<rscale>  0 0.49155857E+03</rscale>
<asrwt>0</asrwt>
<pdfrwt beam="1">  1        2 0.31199558E+00 0.49155857E+03</pdfrwt>
<pdfrwt beam="2">  1       -2 0.45826364E-02 0.49155857E+03</pdfrwt>
<totfact> 0.15815121E+03</totfact>
</mgrwt>
</event>
<event>
 4    1  0.8404100E-005  0.1116789E+04  0.7818608E-02  0.9188981E-01
         -2   -1    0    0    0  501 -0.00000000000E+00  0.00000000000E+00  0.41289644919E+03  0.41289644920E+03  0.25500000000E-02 0. -1.
          2   -1    0    0  501    0  0.00000000000E+00 -0.00000000000E+00 -0.75516420523E+03  0.75516420523E+03  0.25500000000E-02 0.  1.
    5000001    1    1    2    0    0 -0.48742461884E+03  0.16634124719E+03 -0.31653956718E+03  0.62663742878E+03  0.16500000000E+03 0.  0.
   -5000001    1    1    2    0    0  0.48742461884E+03 -0.16634124719E+03 -0.25728188859E+02  0.54142322564E+03  0.16500000000E+03 0.  0.
<mgrwt>
<rscale>  0 0.11167894E+04</rscale>
<asrwt>0</asrwt>
<pdfrwt beam="1">  1        2 0.11617911E+00 0.11167894E+04</pdfrwt>
<pdfrwt beam="2">  1       -2 0.63522531E-01 0.11167894E+04</pdfrwt>
<totfact> 0.84592774E+01</totfact>
</mgrwt>
</event>
<event>
 4    1  0.8404100E-005  0.4783210E+03  0.7818608E-02  0.1019598E+00
         -2   -1    0    0    0  501 -0.00000000000E+00  0.00000000000E+00  0.68854742854E+03  0.68854742854E+03  0.25500000000E-02 0. -1.
          2   -1    0    0  501    0  0.00000000000E+00 -0.00000000000E+00 -0.83070172234E+02  0.83070172273E+02  0.25500000000E-02 0.  1.
    5000001    1    1    2    0    0  0.64389686814E+02 -0.15540445900E+03  0.23669324962E+03  0.33398393983E+03  0.16500000000E+03 0.  0.
   -5000001    1    1    2    0    0 -0.64389686814E+02  0.15540445900E+03  0.36878400668E+03  0.43763366099E+03  0.16500000000E+03 0.  0.
<mgrwt>
<rscale>  0 0.47832104E+03</rscale>
<asrwt>0</asrwt>
<pdfrwt beam="1">  1        2 0.12780026E-01 0.47832104E+03</pdfrwt>
<pdfrwt beam="2">  1       -2 0.10593038E+00 0.47832104E+03</pdfrwt>
<totfact> 0.35539471E+02</totfact>
</mgrwt>
</event>
<event>
 4    1  0.8404100E-005  0.3600369E+03  0.7818608E-02  0.1058569E+00
         -2   -1    0    0    0  501 -0.00000000000E+00  0.00000000000E+00  0.26941511612E+02  0.26941511733E+02  0.25500000000E-02 0. -1.
          2   -1    0    0  501    0  0.00000000000E+00 -0.00000000000E+00 -0.12028516870E+04  0.12028516870E+04  0.25500000000E-02 0.  1.
    5000001    1    1    2    0    0 -0.22628440182E+02  0.67858358231E+02 -0.56045047673E+03  0.58859709476E+03  0.16500000000E+03 0.  0.
   -5000001    1    1    2    0    0  0.22628440182E+02 -0.67858358231E+02 -0.61545969862E+03  0.64119610395E+03  0.16500000000E+03 0.  0.
<mgrwt>
<rscale>  0 0.36003690E+03</rscale>
<asrwt>0</asrwt>
<pdfrwt beam="1">  1        2 0.18505406E+00 0.36003690E+03</pdfrwt>
<pdfrwt beam="2">  1       -2 0.41448489E-02 0.36003690E+03</pdfrwt>
<totfact> 0.52047674E+03</totfact>
</mgrwt>
</event>
<event>
 4    1  0.8404100E-005  0.1065825E+04  0.7818608E-02  0.9239156E-01
         -2   -1    0    0    0  501 -0.00000000000E+00  0.00000000000E+00  0.36777770554E+03  0.36777770555E+03  0.25500000000E-02 0. -1.
          2   -1    0    0  501    0  0.00000000000E+00 -0.00000000000E+00 -0.77219454142E+03  0.77219454142E+03  0.25500000000E-02 0.  1.
    5000001    1    1    2    0    0  0.70136915823E+02  0.48150412368E+03 -0.35348901682E+03  0.62365446611E+03  0.16500000000E+03 0.  0.
   -5000001    1    1    2    0    0 -0.70136915823E+02 -0.48150412368E+03 -0.50927819047E+02  0.51631778086E+03  0.16500000000E+03 0.  0.
<mgrwt>
<rscale>  0 0.10658254E+04</rscale>
<asrwt>0</asrwt>
<pdfrwt beam="1">  1        2 0.11879916E+00 0.10658254E+04</pdfrwt>
<pdfrwt beam="2">  1       -2 0.56581185E-01 0.10658254E+04</pdfrwt>
<totfact> 0.10526304E+02</totfact>
</mgrwt>
</event>
<event>
 4    1  0.8404100E-005  0.4507753E+03  0.7818608E-02  0.1027491E+00
          2   -1    0    0  501    0  0.00000000000E+00  0.00000000000E+00  0.21722946193E+03  0.21722946195E+03  0.25500000000E-02 0.  1.
         -2   -1    0    0    0  501 -0.00000000000E+00 -0.00000000000E+00 -0.23385223195E+03  0.23385223197E+03  0.25500000000E-02 0. -1.
    5000001    1    1    2    0    0  0.51526420328E+01 -0.64448093876E+02  0.13104736543E+03  0.22040535046E+03  0.16500000000E+03 0.  0.
   -5000001    1    1    2    0    0 -0.51526420328E+01  0.64448093876E+02 -0.14767013545E+03  0.23067634345E+03  0.16500000000E+03 0.  0.
<mgrwt>
<rscale>  0 0.45077531E+03</rscale>
<asrwt>0</asrwt>
<pdfrwt beam="1">  1        2 0.33419917E-01 0.45077531E+03</pdfrwt>
<pdfrwt beam="2">  1       -2 0.35977266E-01 0.45077531E+03</pdfrwt>
<totfact> 0.11432539E+03</totfact>
</mgrwt>
</event>
<event>
 4    1  0.8404100E-005  0.5080965E+03  0.7818608E-02  0.1011687E+00
          2   -1    0    0  501    0  0.00000000000E+00  0.00000000000E+00  0.11604190059E+04  0.11604190059E+04  0.25500000000E-02 0.  1.
         -2   -1    0    0    0  501 -0.00000000000E+00 -0.00000000000E+00 -0.55618285051E+02  0.55618285110E+02  0.25500000000E-02 0. -1.
    5000001    1    1    2    0    0 -0.14263385747E+03  0.12710653163E+03  0.62072648524E+03  0.67009466283E+03  0.16500000000E+03 0.  0.
   -5000001    1    1    2    0    0  0.14263385747E+03 -0.12710653163E+03  0.48407423559E+03  0.54594262816E+03  0.16500000000E+03 0.  0.
<mgrwt>
<rscale>  0 0.50809651E+03</rscale>
<asrwt>0</asrwt>
<pdfrwt beam="1">  1        2 0.17852599E+00 0.50809651E+03</pdfrwt>
<pdfrwt beam="2">  1       -2 0.85566596E-02 0.50809651E+03</pdfrwt>
<totfact> 0.17855250E+03</totfact>
</mgrwt>
</event>
<event>
 4    1  0.8404100E-005  0.7138371E+03  0.7818608E-02  0.9693857E-01
         -2   -1    0    0    0  501 -0.00000000000E+00  0.00000000000E+00  0.63583690901E+02  0.63583690952E+02  0.25500000000E-02 0. -1.
          2   -1    0    0  501    0  0.00000000000E+00 -0.00000000000E+00 -0.20035145562E+04  0.20035145562E+04  0.25500000000E-02 0.  1.
    5000001    1    1    2    0    0 -0.24540054509E+02 -0.26344419516E+03 -0.46706341718E+03  0.56158551789E+03  0.16500000000E+03 0.  0.
   -5000001    1    1    2    0    0  0.24540054509E+02  0.26344419516E+03 -0.14728674481E+04  0.15055127293E+04  0.16500000000E+03 0.  0.
<mgrwt>
<rscale>  0 0.71383710E+03</rscale>
<asrwt>0</asrwt>
<pdfrwt beam="1">  1        2 0.30823296E+00 0.71383710E+03</pdfrwt>
<pdfrwt beam="2">  1       -2 0.97821078E-02 0.71383710E+03</pdfrwt>
<totfact> 0.48563437E+02</totfact>
</mgrwt>
</event>
<event>
 4    1  0.8404100E-005  0.4919406E+03  0.7818608E-02  0.1015904E+00
         -2   -1    0    0    0  501 -0.00000000000E+00  0.00000000000E+00  0.99624393015E+02  0.99624393048E+02  0.25500000000E-02 0. -1.
          2   -1    0    0  501    0  0.00000000000E+00 -0.00000000000E+00 -0.60729481699E+03  0.60729481699E+03  0.25500000000E-02 0.  1.
    5000001    1    1    2    0    0 -0.35783325035E+02 -0.11116825436E+03 -0.52462410173E+02  0.20884475481E+03  0.16500000000E+03 0.  0.
   -5000001    1    1    2    0    0  0.35783325035E+02  0.11116825436E+03 -0.45520801380E+03  0.49807445523E+03  0.16500000000E+03 0.  0.
<mgrwt>
<rscale>  0 0.49194056E+03</rscale>
<asrwt>0</asrwt>
<pdfrwt beam="1">  1        2 0.93429970E-01 0.49194056E+03</pdfrwt>
<pdfrwt beam="2">  1       -2 0.15326830E-01 0.49194056E+03</pdfrwt>
<totfact> 0.16497649E+03</totfact>
</mgrwt>
</event>
<event>
 4    1  0.8404100E-005  0.6725655E+03  0.7818608E-02  0.9765334E-01
         -2   -1    0    0    0  501 -0.00000000000E+00  0.00000000000E+00  0.14993682594E+03  0.14993682596E+03  0.25500000000E-02 0. -1.
          2   -1    0    0  501    0  0.00000000000E+00 -0.00000000000E+00 -0.75422483528E+03  0.75422483529E+03  0.25500000000E-02 0.  1.
    5000001    1    1    2    0    0 -0.24208708864E+03 -0.12853861507E+03 -0.16287101360E+03  0.35899902663E+03  0.16500000000E+03 0.  0.
   -5000001    1    1    2    0    0  0.24208708864E+03  0.12853861507E+03 -0.44141699575E+03  0.54516263462E+03  0.16500000000E+03 0.  0.
<mgrwt>
<rscale>  0 0.67256547E+03</rscale>
<asrwt>0</asrwt>
<pdfrwt beam="1">  1        2 0.11603459E+00 0.67256547E+03</pdfrwt>
<pdfrwt beam="2">  1       -2 0.23067204E-01 0.67256547E+03</pdfrwt>
<totfact> 0.62044203E+02</totfact>
</mgrwt>
</event>
<event>
 4    1  0.8404100E-005  0.5501908E+03  0.7818608E-02  0.1001450E+00
         -2   -1    0    0    0  501 -0.00000000000E+00  0.00000000000E+00  0.22696016372E+04  0.22696016372E+04  0.25500000000E-02 0. -1.
          2   -1    0    0  501    0  0.00000000000E+00 -0.00000000000E+00 -0.33343946473E+02  0.33343946570E+02  0.25500000000E-02 0.  1.
    5000001    1    1    2    0    0 -0.10526823217E+03  0.16846970234E+03  0.15149792989E+04  0.15368313888E+04  0.16500000000E+03 0.  0.
   -5000001    1    1    2    0    0  0.10526823217E+03 -0.16846970234E+03  0.72127839177E+03  0.76611419498E+03  0.16500000000E+03 0.  0.
<mgrwt>
<rscale>  0 0.55019079E+03</rscale>
<asrwt>0</asrwt>
<pdfrwt beam="1">  1        2 0.51298366E-02 0.55019079E+03</pdfrwt>
<pdfrwt beam="2">  1       -2 0.34916957E+00 0.55019079E+03</pdfrwt>
<totfact> 0.27143050E+01</totfact>
</mgrwt>
</event>
<event>
 4    1  0.8404100E-005  0.5619442E+03  0.7818608E-02  0.9987665E-01
          2   -1    0    0  501    0  0.00000000000E+00  0.00000000000E+00  0.39343166977E+03  0.39343166978E+03  0.25500000000E-02 0.  1.
         -2   -1    0    0    0  501 -0.00000000000E+00 -0.00000000000E+00 -0.20065828033E+03  0.20065828035E+03  0.25500000000E-02 0. -1.
    5000001    1    1    2    0    0  0.87537899714E+02  0.20393361080E+03  0.14891306654E+03  0.31408900472E+03  0.16500000000E+03 0.  0.
   -5000001    1    1    2    0    0 -0.87537899714E+02 -0.20393361080E+03  0.43860322896E+02  0.28000094540E+03  0.16500000000E+03 0.  0.
<mgrwt>
<rscale>  0 0.56194420E+03</rscale>
<asrwt>0</asrwt>
<pdfrwt beam="1">  1        2 0.60527949E-01 0.56194420E+03</pdfrwt>
<pdfrwt beam="2">  1       -2 0.30870505E-01 0.56194420E+03</pdfrwt>
<totfact> 0.79093565E+02</totfact>
</mgrwt>
</event>
<event>
 4    1  0.8404100E-005  0.4592929E+03  0.7818608E-02  0.1024987E+00
         -2   -1    0    0    0  501 -0.00000000000E+00  0.00000000000E+00  0.44966818451E+02  0.44966818523E+02  0.25500000000E-02 0. -1.
          2   -1    0    0  501    0  0.00000000000E+00 -0.00000000000E+00 -0.11728088751E+04  0.11728088751E+04  0.25500000000E-02 0.  1.
    5000001    1    1    2    0    0 -0.13326696934E+03 -0.71856968826E+02 -0.69883021007E+03  0.73383388556E+03  0.16500000000E+03 0.  0.
   -5000001    1    1    2    0    0  0.13326696934E+03  0.71856968826E+02 -0.42901184654E+03  0.48394180803E+03  0.16500000000E+03 0.  0.
<mgrwt>
<rscale>  0 0.45929286E+03</rscale>
<asrwt>0</asrwt>
<pdfrwt beam="1">  1        2 0.18043211E+00 0.45929286E+03</pdfrwt>
<pdfrwt beam="2">  1       -2 0.69179730E-02 0.45929286E+03</pdfrwt>
<totfact> 0.24597504E+03</totfact>
</mgrwt>
</event>
<event>
 4    1  0.8404100E-005  0.3853547E+03  0.7818608E-02  0.1048972E+00
          2   -1    0    0  501    0  0.00000000000E+00  0.00000000000E+00  0.50767904177E+02  0.50767904242E+02  0.25500000000E-02 0.  1.
         -2   -1    0    0    0  501 -0.00000000000E+00 -0.00000000000E+00 -0.73126062004E+03  0.73126062004E+03  0.25500000000E-02 0. -1.
    5000001    1    1    2    0    0  0.68061275578E+02  0.56622692627E+02 -0.24811410547E+03  0.31084413440E+03  0.16500000000E+03 0.  0.
   -5000001    1    1    2    0    0 -0.68061275578E+02 -0.56622692627E+02 -0.43237861039E+03  0.47118438989E+03  0.16500000000E+03 0.  0.
<mgrwt>
<rscale>  0 0.38535474E+03</rscale>
<asrwt>0</asrwt>
<pdfrwt beam="1">  1        2 0.78104474E-02 0.38535474E+03</pdfrwt>
<pdfrwt beam="2">  1       -2 0.11250163E+00 0.38535474E+03</pdfrwt>
<totfact> 0.57222701E+02</totfact>
</mgrwt>
</event>
<event>
 4    1  0.8404100E-005  0.4613408E+03  0.7818608E-02  0.1024393E+00
          2   -1    0    0  501    0  0.00000000000E+00  0.00000000000E+00  0.69948480947E+03  0.69948480947E+03  0.25500000000E-02 0.  1.
         -2   -1    0    0    0  501 -0.00000000000E+00 -0.00000000000E+00 -0.76068593672E+02  0.76068593714E+02  0.25500000000E-02 0. -1.
    5000001    1    1    2    0    0  0.92674473299E+02 -0.11299811064E+03  0.42605524589E+03  0.47969282209E+03  0.16500000000E+03 0.  0.
   -5000001    1    1    2    0    0 -0.92674473299E+02  0.11299811064E+03  0.19736096991E+03  0.29586058110E+03  0.16500000000E+03 0.  0.
<mgrwt>
<rscale>  0 0.46134077E+03</rscale>
<asrwt>0</asrwt>
<pdfrwt beam="1">  1        2 0.10761304E+00 0.46134077E+03</pdfrwt>
<pdfrwt beam="2">  1       -2 0.11702861E-01 0.46134077E+03</pdfrwt>
<totfact> 0.21715772E+03</totfact>
</mgrwt>
</event>
<event>
 4    1  0.8404100E-005  0.5292031E+03  0.7818608E-02  0.1006426E+00
         -2   -1    0    0    0  501 -0.00000000000E+00  0.00000000000E+00  0.14926811892E+03  0.14926811895E+03  0.25500000000E-02 0. -1.
          2   -1    0    0  501    0  0.00000000000E+00 -0.00000000000E+00 -0.46904839536E+03  0.46904839537E+03  0.25500000000E-02 0.  1.
    5000001    1    1    2    0    0  0.18299803502E+03  0.47900250926E+02 -0.25768848628E+03  0.35973750266E+03  0.16500000000E+03 0.  0.
   -5000001    1    1    2    0    0 -0.18299803502E+03 -0.47900250926E+02 -0.62091790157E+02  0.25857901165E+03  0.16500000000E+03 0.  0.
<mgrwt>
<rscale>  0 0.52920307E+03</rscale>
<asrwt>0</asrwt>
<pdfrwt beam="1">  1        2 0.72161291E-01 0.52920307E+03</pdfrwt>
<pdfrwt beam="2">  1       -2 0.22964326E-01 0.52920307E+03</pdfrwt>
<totfact> 0.11094363E+03</totfact>
</mgrwt>
</event>
<event>
 4    1  0.8404100E-005  0.5874278E+03  0.7818608E-02  0.9931838E-01
          2   -1    0    0  501    0  0.00000000000E+00  0.00000000000E+00  0.68173899274E+03  0.68173899274E+03  0.25500000000E-02 0.  1.
         -2   -1    0    0    0  501 -0.00000000000E+00 -0.00000000000E+00 -0.12654090395E+03  0.12654090397E+03  0.25500000000E-02 0. -1.
    5000001    1    1    2    0    0  0.22994565434E+03  0.51974868207E+02  0.35861143408E+03  0.45978641947E+03  0.16500000000E+03 0.  0.
   -5000001    1    1    2    0    0 -0.22994565434E+03 -0.51974868207E+02  0.19658665472E+03  0.34849347725E+03  0.16500000000E+03 0.  0.
<mgrwt>
<rscale>  0 0.58742785E+03</rscale>
<asrwt>0</asrwt>
<pdfrwt beam="1">  1        2 0.10488292E+00 0.58742785E+03</pdfrwt>
<pdfrwt beam="2">  1       -2 0.19467831E-01 0.58742785E+03</pdfrwt>
<totfact> 0.95196558E+02</totfact>
</mgrwt>
</event>
<event>
 4    1  0.8404100E-005  0.4621824E+03  0.7818608E-02  0.1024150E+00
         -2   -1    0    0    0  501 -0.00000000000E+00  0.00000000000E+00  0.61398001472E+02  0.61398001525E+02  0.25500000000E-02 0. -1.
          2   -1    0    0  501    0  0.00000000000E+00 -0.00000000000E+00 -0.86978640250E+03  0.86978640250E+03  0.25500000000E-02 0.  1.
    5000001    1    1    2    0    0 -0.34175289956E+02  0.15814447209E+03 -0.40273806008E+03  0.46432808394E+03  0.16500000000E+03 0.  0.
   -5000001    1    1    2    0    0  0.34175289956E+02 -0.15814447209E+03 -0.40565034094E+03  0.46685632009E+03  0.16500000000E+03 0.  0.
<mgrwt>
<rscale>  0 0.46218242E+03</rscale>
<asrwt>0</asrwt>
<pdfrwt beam="1">  1        2 0.13381328E+00 0.46218242E+03</pdfrwt>
<pdfrwt beam="2">  1       -2 0.94458470E-02 0.46218242E+03</pdfrwt>
<totfact> 0.23186877E+03</totfact>
</mgrwt>
</event>
<event>
 4    1  0.8404100E-005  0.3409691E+03  0.7818608E-02  0.1066384E+00
         -2   -1    0    0    0  501 -0.00000000000E+00  0.00000000000E+00  0.16038357145E+03  0.16038357147E+03  0.25500000000E-02 0. -1.
          2   -1    0    0  501    0  0.00000000000E+00 -0.00000000000E+00 -0.18122172417E+03  0.18122172419E+03  0.25500000000E-02 0.  1.
    5000001    1    1    2    0    0 -0.12616379443E+01 -0.39875748357E+02 -0.26206659714E+02  0.17176570103E+03  0.16500000000E+03 0.  0.
   -5000001    1    1    2    0    0  0.12616379443E+01  0.39875748357E+02  0.53685069923E+01  0.16983959463E+03  0.16500000000E+03 0.  0.
<mgrwt>
<rscale>  0 0.34096913E+03</rscale>
<asrwt>0</asrwt>
<pdfrwt beam="1">  1        2 0.27880265E-01 0.34096913E+03</pdfrwt>
<pdfrwt beam="2">  1       -2 0.24674396E-01 0.34096913E+03</pdfrwt>
<totfact> 0.27781087E+03</totfact>
</mgrwt>
</event>
<event>
 4    1  0.8404100E-005  0.5742660E+03  0.7818608E-02  0.9960283E-01
          2   -1    0    0  501    0  0.00000000000E+00  0.00000000000E+00  0.12201991730E+04  0.12201991730E+04  0.25500000000E-02 0.  1.
         -2   -1    0    0    0  501 -0.00000000000E+00 -0.00000000000E+00 -0.67567134603E+02  0.67567134651E+02  0.25500000000E-02 0. -1.
    5000001    1    1    2    0    0 -0.26596546312E+01  0.15832262585E+03  0.18695928927E+03  0.29538433178E+03  0.16500000000E+03 0.  0.
   -5000001    1    1    2    0    0  0.26596546312E+01 -0.15832262585E+03  0.96567274917E+03  0.99238197591E+03  0.16500000000E+03 0.  0.
<mgrwt>
<rscale>  0 0.57426601E+03</rscale>
<asrwt>0</asrwt>
<pdfrwt beam="1">  1        2 0.18772294E+00 0.57426601E+03</pdfrwt>
<pdfrwt beam="2">  1       -2 0.10394945E-01 0.57426601E+03</pdfrwt>
<totfact> 0.12018009E+03</totfact>
</mgrwt>
</event>
<event>
 4    1  0.8404100E-005  0.5770824E+03  0.7818608E-02  0.9954128E-01
          2   -1    0    0  501    0  0.00000000000E+00  0.00000000000E+00  0.56184784099E+03  0.56184784100E+03  0.25500000000E-02 0.  1.
         -2   -1    0    0    0  501 -0.00000000000E+00 -0.00000000000E+00 -0.14818251111E+03  0.14818251113E+03  0.25500000000E-02 0. -1.
    5000001    1    1    2    0    0 -0.14313843694E+03 -0.15793089425E+03  0.33350944794E+03  0.42881736363E+03  0.16500000000E+03 0.  0.
   -5000001    1    1    2    0    0  0.14313843694E+03  0.15793089425E+03  0.80155881945E+02  0.28121298850E+03  0.16500000000E+03 0.  0.
<mgrwt>
<rscale>  0 0.57708240E+03</rscale>
<asrwt>0</asrwt>
<pdfrwt beam="1">  1        2 0.86438130E-01 0.57708240E+03</pdfrwt>
<pdfrwt beam="2">  1       -2 0.22797309E-01 0.57708240E+03</pdfrwt>
<totfact> 0.91181754E+02</totfact>
</mgrwt>
</event>
<event>
 4    1  0.8404100E-005  0.7038991E+03  0.7818608E-02  0.9710587E-01
          2   -1    0    0  501    0  0.00000000000E+00  0.00000000000E+00  0.11186190379E+04  0.11186190379E+04  0.25500000000E-02 0.  1.
         -2   -1    0    0    0  501 -0.00000000000E+00 -0.00000000000E+00 -0.11073341120E+03  0.11073341123E+03  0.25500000000E-02 0. -1.
    5000001    1    1    2    0    0  0.76744748121E+02  0.29930436934E+03  0.44418734402E+03  0.56568565339E+03  0.16500000000E+03 0.  0.
   -5000001    1    1    2    0    0 -0.76744748121E+02 -0.29930436934E+03  0.56369828268E+03  0.66366679574E+03  0.16500000000E+03 0.  0.
<mgrwt>
<rscale>  0 0.70389915E+03</rscale>
<asrwt>0</asrwt>
<pdfrwt beam="1">  1        2 0.17209524E+00 0.70389915E+03</pdfrwt>
<pdfrwt beam="2">  1       -2 0.17035909E-01 0.70389915E+03</pdfrwt>
<totfact> 0.60321561E+02</totfact>
</mgrwt>
</event>
<event>
 4    1  0.8404100E-005  0.4304975E+03  0.7818608E-02  0.1033703E+00
         -2   -1    0    0    0  501 -0.00000000000E+00  0.00000000000E+00  0.71826325686E+02  0.71826325731E+02  0.25500000000E-02 0. -1.
          2   -1    0    0  501    0  0.00000000000E+00 -0.00000000000E+00 -0.64505620208E+03  0.64505620208E+03  0.25500000000E-02 0.  1.
    5000001    1    1    2    0    0 -0.34707118269E+02  0.13360798945E+03 -0.27468339157E+03  0.34890062268E+03  0.16500000000E+03 0.  0.
   -5000001    1    1    2    0    0  0.34707118269E+02 -0.13360798945E+03 -0.29854648482E+03  0.36798190513E+03  0.16500000000E+03 0.  0.
<mgrwt>
<rscale>  0 0.43049747E+03</rscale>
<asrwt>0</asrwt>
<pdfrwt beam="1">  1        2 0.99239412E-01 0.43049747E+03</pdfrwt>
<pdfrwt beam="2">  1       -2 0.11050204E-01 0.43049747E+03</pdfrwt>
<totfact> 0.26314219E+03</totfact>
</mgrwt>
</event>
<event>
 4    1  0.8404100E-005  0.5005133E+03  0.7818608E-02  0.1013645E+00
         -2   -1    0    0    0  501 -0.00000000000E+00  0.00000000000E+00  0.77864565837E+02  0.77864565879E+02  0.25500000000E-02 0. -1.
          2   -1    0    0  501    0  0.00000000000E+00 -0.00000000000E+00 -0.80432474814E+03  0.80432474814E+03  0.25500000000E-02 0.  1.
    5000001    1    1    2    0    0 -0.15866230630E+03 -0.71861535394E+02 -0.48867734238E+03  0.54439723793E+03  0.16500000000E+03 0.  0.
   -5000001    1    1    2    0    0  0.15866230630E+03  0.71861535394E+02 -0.23778283993E+03  0.33779207610E+03  0.16500000000E+03 0.  0.
<mgrwt>
<rscale>  0 0.50051333E+03</rscale>
<asrwt>0</asrwt>
<pdfrwt beam="1">  1        2 0.12374226E+00 0.50051333E+03</pdfrwt>
<pdfrwt beam="2">  1       -2 0.11979165E-01 0.50051333E+03</pdfrwt>
<totfact> 0.17498980E+03</totfact>
</mgrwt>
</event>
<event>
 4    1  0.8404100E-005  0.3550988E+03  0.7818608E-02  0.1060542E+00
         -2   -1    0    0    0  501 -0.00000000000E+00  0.00000000000E+00  0.66264795473E+02  0.66264795522E+02  0.25500000000E-02 0. -1.
          2   -1    0    0  501    0  0.00000000000E+00 -0.00000000000E+00 -0.47572455043E+03  0.47572455043E+03  0.25500000000E-02 0.  1.
    5000001    1    1    2    0    0 -0.56760071244E+02 -0.10118693866E+01 -0.15466191914E+03  0.23316954947E+03  0.16500000000E+03 0.  0.
   -5000001    1    1    2    0    0  0.56760071244E+02  0.10118693866E+01 -0.25479783581E+03  0.30881979649E+03  0.16500000000E+03 0.  0.
<mgrwt>
<rscale>  0 0.35509880E+03</rscale>
<asrwt>0</asrwt>
<pdfrwt beam="1">  1        2 0.73188390E-01 0.35509880E+03</pdfrwt>
<pdfrwt beam="2">  1       -2 0.10194584E-01 0.35509880E+03</pdfrwt>
<totfact> 0.42534380E+03</totfact>
</mgrwt>
</event>
<event>
 4    1  0.8404100E-005  0.7305526E+03  0.7818608E-02  0.9666364E-01
         -2   -1    0    0    0  501 -0.00000000000E+00  0.00000000000E+00  0.89240721416E+02  0.89240721452E+02  0.25500000000E-02 0. -1.
          2   -1    0    0  501    0  0.00000000000E+00 -0.00000000000E+00 -0.14951334672E+04  0.14951334672E+04  0.25500000000E-02 0.  1.
    5000001    1    1    2    0    0 -0.16490113382E+03 -0.26776950165E+03 -0.51753676536E+03  0.62766407691E+03  0.16500000000E+03 0.  0.
   -5000001    1    1    2    0    0  0.16490113382E+03  0.26776950165E+03 -0.88835598041E+03  0.95671011172E+03  0.16500000000E+03 0.  0.
<mgrwt>
<rscale>  0 0.73055264E+03</rscale>
<asrwt>0</asrwt>
<pdfrwt beam="1">  1        2 0.23002051E+00 0.73055264E+03</pdfrwt>
<pdfrwt beam="2">  1       -2 0.13729343E-01 0.73055264E+03</pdfrwt>
<totfact> 0.52648257E+02</totfact>
</mgrwt>
</event>
<event>
 4    1  0.8404100E-005  0.6116666E+03  0.7818608E-02  0.9881493E-01
         -2   -1    0    0    0  501 -0.00000000000E+00  0.00000000000E+00  0.66494176001E+02  0.66494176050E+02  0.25500000000E-02 0. -1.
          2   -1    0    0  501    0  0.00000000000E+00 -0.00000000000E+00 -0.14066496755E+04  0.14066496755E+04  0.25500000000E-02 0.  1.
    5000001    1    1    2    0    0 -0.98695918363E+02 -0.13688194065E+03 -0.20163454883E+03  0.31041752730E+03  0.16500000000E+03 0.  0.
   -5000001    1    1    2    0    0  0.98695918363E+02  0.13688194065E+03 -0.11385209507E+04  0.11627263243E+04  0.16500000000E+03 0.  0.
<mgrwt>
<rscale>  0 0.61166661E+03</rscale>
<asrwt>0</asrwt>
<pdfrwt beam="1">  1        2 0.21640762E+00 0.61166661E+03</pdfrwt>
<pdfrwt beam="2">  1       -2 0.10229874E-01 0.61166661E+03</pdfrwt>
<totfact> 0.96408210E+02</totfact>
</mgrwt>
</event>
<event>
 4    1  0.8404100E-005  0.4338946E+03  0.7818608E-02  0.1032637E+00
         -2   -1    0    0    0  501 -0.00000000000E+00  0.00000000000E+00  0.49923198923E+02  0.49923198988E+02  0.25500000000E-02 0. -1.
          2   -1    0    0  501    0  0.00000000000E+00 -0.00000000000E+00 -0.94277073909E+03  0.94277073909E+03  0.25500000000E-02 0.  1.
    5000001    1    1    2    0    0 -0.13154890350E+03  0.39393565497E+02 -0.37465014235E+03  0.43179242256E+03  0.16500000000E+03 0.  0.
   -5000001    1    1    2    0    0  0.13154890350E+03 -0.39393565497E+02 -0.51819739781E+03  0.56090151552E+03  0.16500000000E+03 0.  0.
<mgrwt>
<rscale>  0 0.43389460E+03</rscale>
<asrwt>0</asrwt>
<pdfrwt beam="1">  1        2 0.14504164E+00 0.43389460E+03</pdfrwt>
<pdfrwt beam="2">  1       -2 0.76804929E-02 0.43389460E+03</pdfrwt>
<totfact> 0.28847081E+03</totfact>
</mgrwt>
</event>
<event>
 4    1  0.8404100E-005  0.7567837E+03  0.7818608E-02  0.9624768E-01
          2   -1    0    0  501    0  0.00000000000E+00  0.00000000000E+00  0.73452505402E+03  0.73452505403E+03  0.25500000000E-02 0.  1.
         -2   -1    0    0    0  501 -0.00000000000E+00 -0.00000000000E+00 -0.19492919200E+03  0.19492919202E+03  0.25500000000E-02 0. -1.
    5000001    1    1    2    0    0 -0.26648173170E+03  0.19154155412E+02  0.10495419471E+02  0.31418871531E+03  0.16500000000E+03 0.  0.
   -5000001    1    1    2    0    0  0.26648173170E+03 -0.19154155412E+02  0.52910044255E+03  0.61526553073E+03  0.16500000000E+03 0.  0.
<mgrwt>
<rscale>  0 0.75678366E+03</rscale>
<asrwt>0</asrwt>
<pdfrwt beam="1">  1        2 0.11300385E+00 0.75678366E+03</pdfrwt>
<pdfrwt beam="2">  1       -2 0.29989107E-01 0.75678366E+03</pdfrwt>
<totfact> 0.39740736E+02</totfact>
</mgrwt>
</event>
<event>
 4    1  0.8404100E-005  0.5729122E+03  0.7818608E-02  0.9963255E-01
          2   -1    0    0  501    0  0.00000000000E+00  0.00000000000E+00  0.35767266802E+03  0.35767266803E+03  0.25500000000E-02 0.  1.
         -2   -1    0    0    0  501 -0.00000000000E+00 -0.00000000000E+00 -0.22941954549E+03  0.22941954551E+03  0.25500000000E-02 0. -1.
    5000001    1    1    2    0    0  0.92230268842E+02 -0.20908502575E+03  0.11647046845E+03  0.30498088547E+03  0.16500000000E+03 0.  0.
   -5000001    1    1    2    0    0 -0.92230268842E+02  0.20908502575E+03  0.11782654086E+02  0.28211132806E+03  0.16500000000E+03 0.  0.
<mgrwt>
<rscale>  0 0.57291221E+03</rscale>
<asrwt>0</asrwt>
<pdfrwt beam="1">  1        2 0.55026564E-01 0.57291221E+03</pdfrwt>
<pdfrwt beam="2">  1       -2 0.35295315E-01 0.57291221E+03</pdfrwt>
<totfact> 0.68387477E+02</totfact>
</mgrwt>
</event>
<event>
 4    1  0.8404100E-005  0.3828298E+03  0.7818608E-02  0.1049893E+00
          2   -1    0    0  501    0  0.00000000000E+00  0.00000000000E+00  0.45092134504E+04  0.45092134504E+04  0.25500000000E-02 0.  1.
         -2   -1    0    0    0  501 -0.00000000000E+00 -0.00000000000E+00 -0.81255099369E+01  0.81255103371E+01  0.25500000000E-02 0. -1.
    5000001    1    1    2    0    0 -0.65929569607E+02 -0.64762171116E+02  0.19017362154E+04  0.19111165532E+04  0.16500000000E+03 0.  0.
   -5000001    1    1    2    0    0  0.65929569607E+02  0.64762171116E+02  0.25993517251E+04  0.26062224075E+04  0.16500000000E+03 0.  0.
<mgrwt>
<rscale>  0 0.38282978E+03</rscale>
<asrwt>0</asrwt>
<pdfrwt beam="1">  1        2 0.69372450E+00 0.38282978E+03</pdfrwt>
<pdfrwt beam="2">  1       -2 0.12500796E-02 0.38282978E+03</pdfrwt>
<totfact> 0.24789915E+02</totfact>
</mgrwt>
</event>
<event>
 4    1  0.8404100E-005  0.5436045E+03  0.7818608E-02  0.1002985E+00
          2   -1    0    0  501    0  0.00000000000E+00  0.00000000000E+00  0.21215403933E+03  0.21215403935E+03  0.25500000000E-02 0.  1.
         -2   -1    0    0    0  501 -0.00000000000E+00 -0.00000000000E+00 -0.34822081897E+03  0.34822081898E+03  0.25500000000E-02 0. -1.
    5000001    1    1    2    0    0 -0.42359294555E+02  0.13646386591E+03 -0.23500173730E+03  0.32072965729E+03  0.16500000000E+03 0.  0.
   -5000001    1    1    2    0    0  0.42359294555E+02 -0.13646386591E+03  0.98934957655E+02  0.23964520104E+03  0.16500000000E+03 0.  0.
<mgrwt>
<rscale>  0 0.54360446E+03</rscale>
<asrwt>0</asrwt>
<pdfrwt beam="1">  1        2 0.32639083E-01 0.54360446E+03</pdfrwt>
<pdfrwt beam="2">  1       -2 0.53572434E-01 0.54360446E+03</pdfrwt>
<totfact> 0.53547708E+02</totfact>
</mgrwt>
</event>
<event>
 4    1  0.8404100E-005  0.5776772E+03  0.7818608E-02  0.9952833E-01
          2   -1    0    0  501    0  0.00000000000E+00  0.00000000000E+00  0.72516840353E+03  0.72516840354E+03  0.25500000000E-02 0.  1.
         -2   -1    0    0    0  501 -0.00000000000E+00 -0.00000000000E+00 -0.11504601030E+03  0.11504601032E+03  0.25500000000E-02 0. -1.
    5000001    1    1    2    0    0 -0.16970540042E+03  0.16534181519E+03  0.29334454958E+03  0.41159915397E+03  0.16500000000E+03 0.  0.
   -5000001    1    1    2    0    0  0.16970540042E+03 -0.16534181519E+03  0.31677784366E+03  0.42861525989E+03  0.16500000000E+03 0.  0.
<mgrwt>
<rscale>  0 0.57767718E+03</rscale>
<asrwt>0</asrwt>
<pdfrwt beam="1">  1        2 0.11156437E+00 0.57767718E+03</pdfrwt>
<pdfrwt beam="2">  1       -2 0.17699386E-01 0.57767718E+03</pdfrwt>
<totfact> 0.10385241E+03</totfact>
</mgrwt>
</event>
<event>
 4    1  0.8404100E-005  0.4588005E+03  0.7818608E-02  0.1025130E+00
          2   -1    0    0  501    0  0.00000000000E+00  0.00000000000E+00  0.21294184788E+04  0.21294184788E+04  0.25500000000E-02 0.  1.
         -2   -1    0    0    0  501 -0.00000000000E+00 -0.00000000000E+00 -0.24713068157E+02  0.24713068288E+02  0.25500000000E-02 0. -1.
    5000001    1    1    2    0    0 -0.12536129937E+03 -0.42134634865E+02  0.14698949482E+04  0.14850275895E+04  0.16500000000E+03 0.  0.
   -5000001    1    1    2    0    0  0.12536129937E+03  0.42134634865E+02  0.63481046245E+03  0.66910395760E+03  0.16500000000E+03 0.  0.
<mgrwt>
<rscale>  0 0.45880045E+03</rscale>
<asrwt>0</asrwt>
<pdfrwt beam="1">  1        2 0.32760277E+00 0.45880045E+03</pdfrwt>
<pdfrwt beam="2">  1       -2 0.38020113E-02 0.45880045E+03</pdfrwt>
<totfact> 0.18594565E+03</totfact>
</mgrwt>
</event>
<event>
 4    1  0.8404100E-005  0.5166614E+03  0.7818608E-02  0.1009519E+00
          2   -1    0    0  501    0  0.00000000000E+00  0.00000000000E+00  0.29923856470E+04  0.29923856470E+04  0.25500000000E-02 0. -1.
         -2   -1    0    0    0  501 -0.00000000000E+00 -0.00000000000E+00 -0.22301524680E+02  0.22301524826E+02  0.25500000000E-02 0.  1.
    5000001    1    1    2    0    0 -0.14047129570E+03  0.13949274718E+03  0.13807694046E+04  0.14046136693E+04  0.16500000000E+03 0.  0.
   -5000001    1    1    2    0    0  0.14047129570E+03 -0.13949274718E+03  0.15893147177E+04  0.16100735025E+04  0.16500000000E+03 0.  0.
<mgrwt>
<rscale>  0 0.51666145E+03</rscale>
<asrwt>0</asrwt>
<pdfrwt beam="1">  1        2 0.46036690E+00 0.51666145E+03</pdfrwt>
<pdfrwt beam="2">  1       -2 0.34310047E-02 0.51666145E+03</pdfrwt>
<totfact> 0.70203338E+02</totfact>
</mgrwt>
</event>
<event>
 4    1  0.8404100E-005  0.5193938E+03  0.7818608E-02  0.1008837E+00
         -2   -1    0    0    0  501 -0.00000000000E+00  0.00000000000E+00  0.89188851808E+02  0.89188851845E+02  0.25500000000E-02 0. -1.
          2   -1    0    0  501    0  0.00000000000E+00 -0.00000000000E+00 -0.75617605878E+03  0.75617605879E+03  0.25500000000E-02 0.  1.
    5000001    1    1    2    0    0  0.41945800463E+02  0.18279123307E+03 -0.44910344842E+03  0.51389784243E+03  0.16500000000E+03 0.  0.
   -5000001    1    1    2    0    0 -0.41945800463E+02 -0.18279123307E+03 -0.21788375855E+03  0.33146706821E+03  0.16500000000E+03 0.  0.
<mgrwt>
<rscale>  0 0.51939378E+03</rscale>
<asrwt>0</asrwt>
<pdfrwt beam="1">  1        2 0.11633477E+00 0.51939378E+03</pdfrwt>
<pdfrwt beam="2">  1       -2 0.13721362E-01 0.51939378E+03</pdfrwt>
<totfact> 0.15144366E+03</totfact>
</mgrwt>
</event>
<event>
 4    1  0.8404100E-005  0.3664948E+03  0.7818608E-02  0.1056041E+00
          2   -1    0    0  501    0  0.00000000000E+00  0.00000000000E+00  0.80685481211E+03  0.80685481211E+03  0.25500000000E-02 0.  1.
         -2   -1    0    0    0  501 -0.00000000000E+00 -0.00000000000E+00 -0.41617912588E+02  0.41617912666E+02  0.25500000000E-02 0. -1.
    5000001    1    1    2    0    0 -0.38599052644E+02  0.47184994849E+02  0.26370462756E+03  0.31698807738E+03  0.16500000000E+03 0.  0.
   -5000001    1    1    2    0    0  0.38599052644E+02 -0.47184994849E+02  0.50153227196E+03  0.53148464740E+03  0.16500000000E+03 0.  0.
<mgrwt>
<rscale>  0 0.36649482E+03</rscale>
<asrwt>0</asrwt>
<pdfrwt beam="1">  1        2 0.12413150E+00 0.36649482E+03</pdfrwt>
<pdfrwt beam="2">  1       -2 0.64027561E-02 0.36649482E+03</pdfrwt>
<totfact> 0.47190056E+03</totfact>
</mgrwt>
</event>
<event>
 4    1  0.8404100E-005  0.6854600E+03  0.7818608E-02  0.9742426E-01
         -2   -1    0    0    0  501 -0.00000000000E+00  0.00000000000E+00  0.11675928450E+03  0.11675928453E+03  0.25500000000E-02 0. -1.
          2   -1    0    0  501    0  0.00000000000E+00 -0.00000000000E+00 -0.10060344712E+04  0.10060344712E+04  0.25500000000E-02 0.  1.
    5000001    1    1    2    0    0  0.21749993192E+03  0.19995132905E+03 -0.35563878989E+03  0.49090803951E+03  0.16500000000E+03 0.  0.
   -5000001    1    1    2    0    0 -0.21749993192E+03 -0.19995132905E+03 -0.53363639682E+03  0.63188571624E+03  0.16500000000E+03 0.  0.
<mgrwt>
<rscale>  0 0.68546004E+03</rscale>
<asrwt>0</asrwt>
<pdfrwt beam="1">  1        2 0.15477453E+00 0.68546004E+03</pdfrwt>
<pdfrwt beam="2">  1       -2 0.17962968E-01 0.68546004E+03</pdfrwt>
<totfact> 0.64713653E+02</totfact>
</mgrwt>
</event>
<event>
 4    1  0.8404100E-005  0.5886686E+03  0.7818608E-02  0.9929198E-01
          2   -1    0    0  501    0  0.00000000000E+00  0.00000000000E+00  0.92568748227E+03  0.92568748228E+03  0.25500000000E-02 0.  1.
         -2   -1    0    0    0  501 -0.00000000000E+00 -0.00000000000E+00 -0.93587381359E+02  0.93587381394E+02  0.25500000000E-02 0. -1.
    5000001    1    1    2    0    0  0.13575286162E+03  0.17493728960E+03  0.59242248107E+03  0.65362167254E+03  0.16500000000E+03 0.  0.
   -5000001    1    1    2    0    0 -0.13575286162E+03 -0.17493728960E+03  0.23967761984E+03  0.36565319113E+03  0.16500000000E+03 0.  0.
<mgrwt>
<rscale>  0 0.58866856E+03</rscale>
<asrwt>0</asrwt>
<pdfrwt beam="1">  1        2 0.14241346E+00 0.58866856E+03</pdfrwt>
<pdfrwt beam="2">  1       -2 0.14398059E-01 0.58866856E+03</pdfrwt>
<totfact> 0.10651549E+03</totfact>
</mgrwt>
</event>
<event>
 4    1  0.8404100E-005  0.4779452E+03  0.7818608E-02  0.1019701E+00
         -2   -1    0    0    0  501 -0.00000000000E+00  0.00000000000E+00  0.62958218520E+02  0.62958218572E+02  0.25500000000E-02 0. -1.
          2   -1    0    0  501    0  0.00000000000E+00 -0.00000000000E+00 -0.90707629060E+03  0.90707629060E+03  0.25500000000E-02 0.  1.
    5000001    1    1    2    0    0  0.97040398746E+02 -0.88244232576E+02 -0.65059364270E+03  0.68388666568E+03  0.16500000000E+03 0.  0.
   -5000001    1    1    2    0    0 -0.97040398746E+02  0.88244232576E+02 -0.19352442939E+03  0.28614784350E+03  0.16500000000E+03 0.  0.
<mgrwt>
<rscale>  0 0.47794522E+03</rscale>
<asrwt>0</asrwt>
<pdfrwt beam="1">  1        2 0.13955019E+00 0.47794522E+03</pdfrwt>
<pdfrwt beam="2">  1       -2 0.96858804E-02 0.47794522E+03</pdfrwt>
<totfact> 0.21032994E+03</totfact>
</mgrwt>
</event>
<event>
 4    1  0.8404100E-005  0.5886557E+03  0.7818608E-02  0.9929225E-01
          2   -1    0    0  501    0  0.00000000000E+00  0.00000000000E+00  0.14417321886E+03  0.14417321888E+03  0.25500000000E-02 0.  1.
         -2   -1    0    0    0  501 -0.00000000000E+00 -0.00000000000E+00 -0.60086677865E+03  0.60086677866E+03  0.25500000000E-02 0. -1.
    5000001    1    1    2    0    0  0.14698148881E+03 -0.13426078253E+03 -0.50367413346E+02  0.26342245938E+03  0.16500000000E+03 0.  0.
   -5000001    1    1    2    0    0 -0.14698148881E+03  0.13426078253E+03 -0.40632614645E+03  0.48161753816E+03  0.16500000000E+03 0.  0.
<mgrwt>
<rscale>  0 0.58865575E+03</rscale>
<asrwt>0</asrwt>
<pdfrwt beam="1">  1        2 0.22180496E-01 0.58865575E+03</pdfrwt>
<pdfrwt beam="2">  1       -2 0.92441041E-01 0.58865575E+03</pdfrwt>
<totfact> 0.25296343E+02</totfact>
</mgrwt>
</event>
<event>
 4    1  0.8404100E-005  0.3974257E+03  0.7818608E-02  0.1044675E+00
          2   -1    0    0  501    0  0.00000000000E+00  0.00000000000E+00  0.26606653230E+04  0.26606653230E+04  0.25500000000E-02 0.  1.
         -2   -1    0    0    0  501 -0.00000000000E+00 -0.00000000000E+00 -0.14840947161E+02  0.14840947380E+02  0.25500000000E-02 0. -1.
    5000001    1    1    2    0    0 -0.70209476927E+02  0.85628948472E+02  0.13251070791E+04  0.13399236764E+04  0.16500000000E+03 0.  0.
   -5000001    1    1    2    0    0  0.70209476927E+02 -0.85628948472E+02  0.13207172967E+04  0.13355825939E+04  0.16500000000E+03 0.  0.
<mgrwt>
<rscale>  0 0.39742568E+03</rscale>
<asrwt>0</asrwt>
<pdfrwt beam="1">  1        2 0.40933313E+00 0.39742568E+03</pdfrwt>
<pdfrwt beam="2">  1       -2 0.22832227E-02 0.39742568E+03</pdfrwt>
<totfact> 0.20521208E+03</totfact>
</mgrwt>
</event>
<event>
 4    1  0.8404100E-005  0.9141339E+03  0.7818608E-02  0.9408084E-01
         -2   -1    0    0    0  501 -0.00000000000E+00  0.00000000000E+00  0.34552118700E+03  0.34552118701E+03  0.25500000000E-02 0. -1.
          2   -1    0    0  501    0  0.00000000000E+00 -0.00000000000E+00 -0.60462334493E+03  0.60462334493E+03  0.25500000000E-02 0.  1.
    5000001    1    1    2    0    0 -0.95024602927E+02 -0.15828456224E+03 -0.52887494125E+03  0.58396693510E+03  0.16500000000E+03 0.  0.
   -5000001    1    1    2    0    0  0.95024602927E+02  0.15828456224E+03  0.26977278333E+03  0.36617759684E+03  0.16500000000E+03 0.  0.
<mgrwt>
<rscale>  0 0.91413385E+03</rscale>
<asrwt>0</asrwt>
<pdfrwt beam="1">  1        2 0.93018976E-01 0.91413385E+03</pdfrwt>
<pdfrwt beam="2">  1       -2 0.53157106E-01 0.91413385E+03</pdfrwt>
<totfact> 0.16443398E+02</totfact>
</mgrwt>
</event>
<event>
 4    1  0.8404100E-005  0.3753060E+03  0.7818608E-02  0.1052682E+00
         -2   -1    0    0    0  501 -0.00000000000E+00  0.00000000000E+00  0.26267007422E+02  0.26267007546E+02  0.25500000000E-02 0. -1.
          2   -1    0    0  501    0  0.00000000000E+00 -0.00000000000E+00 -0.13406037939E+04  0.13406037939E+04  0.25500000000E-02 0.  1.
    5000001    1    1    2    0    0  0.18346429032E+02  0.65894037667E+02 -0.86670417284E+03  0.88491792777E+03  0.16500000000E+03 0.  0.
   -5000001    1    1    2    0    0 -0.18346429032E+02 -0.65894037667E+02 -0.44763261361E+03  0.48195287365E+03  0.16500000000E+03 0.  0.
<mgrwt>
<rscale>  0 0.37530601E+03</rscale>
<asrwt>0</asrwt>
<pdfrwt beam="1">  1        2 0.20624668E+00 0.37530601E+03</pdfrwt>
<pdfrwt beam="2">  1       -2 0.40410791E-02 0.37530601E+03</pdfrwt>
<totfact> 0.45229730E+03</totfact>
</mgrwt>
</event>
<event>
 4    1  0.8404100E-005  0.7000948E+03  0.7818608E-02  0.9717070E-01
          2   -1    0    0  501    0  0.00000000000E+00  0.00000000000E+00  0.86716256414E+03  0.86716256415E+03  0.25500000000E-02 0.  1.
         -2   -1    0    0    0  501 -0.00000000000E+00 -0.00000000000E+00 -0.14130360396E+03  0.14130360399E+03  0.25500000000E-02 0. -1.
    5000001    1    1    2    0    0  0.20339512541E+03 -0.19920730250E+03  0.19094505392E+03  0.38044466093E+03  0.16500000000E+03 0.  0.
   -5000001    1    1    2    0    0 -0.20339512541E+03  0.19920730250E+03  0.53491390626E+03  0.62802150721E+03  0.16500000000E+03 0.  0.
<mgrwt>
<rscale>  0 0.70009484E+03</rscale>
<asrwt>0</asrwt>
<pdfrwt beam="1">  1        2 0.13340963E+00 0.70009484E+03</pdfrwt>
<pdfrwt beam="2">  1       -2 0.21739016E-01 0.70009484E+03</pdfrwt>
<totfact> 0.57220125E+02</totfact>
</mgrwt>
</event>
<event>
 4    1  0.8404100E-005  0.4710397E+03  0.7818608E-02  0.1021627E+00
          2   -1    0    0  501    0  0.00000000000E+00  0.00000000000E+00  0.68994057763E+03  0.68994057763E+03  0.25500000000E-02 0.  1.
         -2   -1    0    0    0  501 -0.00000000000E+00 -0.00000000000E+00 -0.80397636738E+02  0.80397636778E+02  0.25500000000E-02 0. -1.
    5000001    1    1    2    0    0  0.45145271123E+02  0.10705264923E+03  0.50336468930E+03  0.54230929887E+03  0.16500000000E+03 0.  0.
   -5000001    1    1    2    0    0 -0.45145271123E+02 -0.10705264923E+03  0.10617825159E+03  0.22802891554E+03  0.16500000000E+03 0.  0.
<mgrwt>
<rscale>  0 0.47103967E+03</rscale>
<asrwt>0</asrwt>
<pdfrwt beam="1">  1        2 0.10614471E+00 0.47103967E+03</pdfrwt>
<pdfrwt beam="2">  1       -2 0.12368867E-01 0.47103967E+03</pdfrwt>
<totfact> 0.20175485E+03</totfact>
</mgrwt>
</event>
<event>
 4    1  0.8404100E-005  0.6296432E+03  0.7818608E-02  0.9845745E-01
         -2   -1    0    0    0  501 -0.00000000000E+00  0.00000000000E+00  0.96959204067E+02  0.96959204101E+02  0.25500000000E-02 0. -1.
          2   -1    0    0  501    0  0.00000000000E+00 -0.00000000000E+00 -0.10222098611E+04  0.10222098611E+04  0.25500000000E-02 0.  1.
    5000001    1    1    2    0    0  0.22211152041E+03 -0.83101176228E+02 -0.68497425073E+03  0.74340706020E+03  0.16500000000E+03 0.  0.
   -5000001    1    1    2    0    0 -0.22211152041E+03  0.83101176228E+02 -0.24027640632E+03  0.37576200503E+03  0.16500000000E+03 0.  0.
<mgrwt>
<rscale>  0 0.62964325E+03</rscale>
<asrwt>0</asrwt>
<pdfrwt beam="1">  1        2 0.15726305E+00 0.62964325E+03</pdfrwt>
<pdfrwt beam="2">  1       -2 0.14916801E-01 0.62964325E+03</pdfrwt>
<totfact> 0.86920454E+02</totfact>
</mgrwt>
</event>
<event>
 4    1  0.8404100E-005  0.5252777E+03  0.7818608E-02  0.1007384E+00
         -2   -1    0    0    0  501 -0.00000000000E+00  0.00000000000E+00  0.66548460290E+02  0.66548460339E+02  0.25500000000E-02 0. -1.
          2   -1    0    0  501    0  0.00000000000E+00 -0.00000000000E+00 -0.10365254396E+04  0.10365254396E+04  0.25500000000E-02 0.  1.
    5000001    1    1    2    0    0  0.16946656542E+02  0.16456262320E+03 -0.73686493392E+03  0.77302197703E+03  0.16500000000E+03 0.  0.
   -5000001    1    1    2    0    0 -0.16946656542E+02 -0.16456262320E+03 -0.23311204543E+03  0.33005192296E+03  0.16500000000E+03 0.  0.
<mgrwt>
<rscale>  0 0.52527772E+03</rscale>
<asrwt>0</asrwt>
<pdfrwt beam="1">  1        2 0.15946544E+00 0.52527772E+03</pdfrwt>
<pdfrwt beam="2">  1       -2 0.10238225E-01 0.52527772E+03</pdfrwt>
<totfact> 0.15892941E+03</totfact>
</mgrwt>
</event>
<event>
 4    1  0.8404100E-005  0.4354309E+03  0.7818608E-02  0.1032158E+00
          2   -1    0    0  501    0  0.00000000000E+00  0.00000000000E+00  0.10145398425E+04  0.10145398425E+04  0.25500000000E-02 0.  1.
         -2   -1    0    0    0  501 -0.00000000000E+00 -0.00000000000E+00 -0.46720708365E+02  0.46720708435E+02  0.25500000000E-02 0. -1.
    5000001    1    1    2    0    0  0.88559465257E+01  0.13688227516E+03  0.57378601213E+03  0.61259331760E+03  0.16500000000E+03 0.  0.
   -5000001    1    1    2    0    0 -0.88559465257E+01 -0.13688227516E+03  0.39403312199E+03  0.44866723333E+03  0.16500000000E+03 0.  0.
<mgrwt>
<rscale>  0 0.43543091E+03</rscale>
<asrwt>0</asrwt>
<pdfrwt beam="1">  1        2 0.15608304E+00 0.43543091E+03</pdfrwt>
<pdfrwt beam="2">  1       -2 0.71878020E-02 0.43543091E+03</pdfrwt>
<totfact> 0.28847314E+03</totfact>
</mgrwt>
</event>
<event>
 4    1  0.8404100E-005  0.3909152E+03  0.7818608E-02  0.1046972E+00
          2   -1    0    0  501    0  0.00000000000E+00  0.00000000000E+00  0.11015685243E+04  0.11015685243E+04  0.25500000000E-02 0.  1.
         -2   -1    0    0    0  501 -0.00000000000E+00 -0.00000000000E+00 -0.34681155462E+02  0.34681155555E+02  0.25500000000E-02 0. -1.
    5000001    1    1    2    0    0  0.89146801667E+02  0.54934829318E+02  0.54419494424E+03  0.57821978958E+03  0.16500000000E+03 0.  0.
   -5000001    1    1    2    0    0 -0.89146801667E+02 -0.54934829318E+02  0.52269242463E+03  0.55802989032E+03  0.16500000000E+03 0.  0.
<mgrwt>
<rscale>  0 0.39091518E+03</rscale>
<asrwt>0</asrwt>
<pdfrwt beam="1">  1        2 0.16947208E+00 0.39091518E+03</pdfrwt>
<pdfrwt beam="2">  1       -2 0.53355625E-02 0.39091518E+03</pdfrwt>
<totfact> 0.40573199E+03</totfact>
</mgrwt>
</event>
<event>
 4    1  0.8404100E-005  0.4899620E+03  0.7818608E-02  0.1016433E+00
          2   -1    0    0  501    0  0.00000000000E+00  0.00000000000E+00  0.70858184811E+03  0.70858184811E+03  0.25500000000E-02 0.  1.
         -2   -1    0    0    0  501 -0.00000000000E+00 -0.00000000000E+00 -0.84698321670E+02  0.84698321709E+02  0.25500000000E-02 0. -1.
    5000001    1    1    2    0    0  0.13079426583E+02 -0.17661238515E+03  0.37311771590E+03  0.44475255582E+03  0.16500000000E+03 0.  0.
   -5000001    1    1    2    0    0 -0.13079426583E+02  0.17661238515E+03  0.25076581054E+03  0.34852761400E+03  0.16500000000E+03 0.  0.
<mgrwt>
<rscale>  0 0.48996201E+03</rscale>
<asrwt>0</asrwt>
<pdfrwt beam="1">  1        2 0.10901259E+00 0.48996201E+03</pdfrwt>
<pdfrwt beam="2">  1       -2 0.13030512E-01 0.48996201E+03</pdfrwt>
<totfact> 0.17913999E+03</totfact>
</mgrwt>
</event>
<event>
 4    1  0.8404100E-005  0.9592180E+03  0.7818608E-02  0.9354441E-01
         -2   -1    0    0    0  501 -0.00000000000E+00  0.00000000000E+00  0.21408182649E+03  0.21408182651E+03  0.25500000000E-02 0. -1.
          2   -1    0    0  501    0  0.00000000000E+00 -0.00000000000E+00 -0.10744712909E+04  0.10744712909E+04  0.25500000000E-02 0.  1.
    5000001    1    1    2    0    0  0.32968930349E+03  0.27816211667E+03 -0.60395099804E+03  0.76029665791E+03  0.16500000000E+03 0.  0.
   -5000001    1    1    2    0    0 -0.32968930349E+03 -0.27816211667E+03 -0.25643846640E+03  0.52825645953E+03  0.16500000000E+03 0.  0.
<mgrwt>
<rscale>  0 0.95921797E+03</rscale>
<asrwt>0</asrwt>
<pdfrwt beam="1">  1        2 0.16530327E+00 0.95921797E+03</pdfrwt>
<pdfrwt beam="2">  1       -2 0.32935666E-01 0.95921797E+03</pdfrwt>
<totfact> 0.19415282E+02</totfact>
</mgrwt>
</event>
<event>
 4    1  0.8404100E-005  0.1247340E+04  0.7818608E-02  0.9072400E-01
          2   -1    0    0  501    0  0.00000000000E+00  0.00000000000E+00  0.56028532869E+03  0.56028532870E+03  0.25500000000E-02 0.  1.
         -2   -1    0    0    0  501 -0.00000000000E+00 -0.00000000000E+00 -0.69422572410E+03  0.69422572410E+03  0.25500000000E-02 0. -1.
    5000001    1    1    2    0    0  0.22505737129E+03  0.54682151200E+03  0.43547370794E+02  0.61545589595E+03  0.16500000000E+03 0.  0.
   -5000001    1    1    2    0    0 -0.22505737129E+03 -0.54682151200E+03 -0.17748776620E+03  0.63905515686E+03  0.16500000000E+03 0.  0.
<mgrwt>
<rscale>  0 0.12473404E+04</rscale>
<asrwt>0</asrwt>
<pdfrwt beam="1">  1        2 0.86197743E-01 0.12473404E+04</pdfrwt>
<pdfrwt beam="2">  1       -2 0.10680396E+00 0.12473404E+04</pdfrwt>
<totfact> 0.37378366E+01</totfact>
</mgrwt>
</event>
<event>
 4    1  0.8404100E-005  0.4925698E+03  0.7818608E-02  0.1015737E+00
          2   -1    0    0  501    0  0.00000000000E+00  0.00000000000E+00  0.21386093096E+04  0.21386093096E+04  0.25500000000E-02 0.  1.
         -2   -1    0    0    0  501 -0.00000000000E+00 -0.00000000000E+00 -0.28362479864E+02  0.28362479978E+02  0.25500000000E-02 0. -1.
    5000001    1    1    2    0    0  0.10010259344E+03  0.78924380647E+02  0.47846557082E+03  0.52192326020E+03  0.16500000000E+03 0.  0.
   -5000001    1    1    2    0    0 -0.10010259344E+03 -0.78924380647E+02  0.16317812589E+04  0.16450485293E+04  0.16500000000E+03 0.  0.
<mgrwt>
<rscale>  0 0.49256985E+03</rscale>
<asrwt>0</asrwt>
<pdfrwt beam="1">  1        2 0.32901690E+00 0.49256985E+03</pdfrwt>
<pdfrwt beam="2">  1       -2 0.43634573E-02 0.49256985E+03</pdfrwt>
<totfact> 0.14860271E+03</totfact>
</mgrwt>
</event>
<event>
 4    1  0.8404100E-005  0.4673357E+03  0.7818608E-02  0.1022675E+00
          2   -1    0    0  501    0  0.00000000000E+00  0.00000000000E+00  0.77620083597E+03  0.77620083597E+03  0.25500000000E-02 0.  1.
         -2   -1    0    0    0  501 -0.00000000000E+00 -0.00000000000E+00 -0.70343467616E+02  0.70343467662E+02  0.25500000000E-02 0. -1.
    5000001    1    1    2    0    0  0.13905240563E+03  0.39355559937E+02  0.49887197919E+03  0.54496117590E+03  0.16500000000E+03 0.  0.
   -5000001    1    1    2    0    0 -0.13905240563E+03 -0.39355559937E+02  0.20698538916E+03  0.30158312774E+03  0.16500000000E+03 0.  0.
<mgrwt>
<rscale>  0 0.46733568E+03</rscale>
<asrwt>0</asrwt>
<pdfrwt beam="1">  1        2 0.11941551E+00 0.46733568E+03</pdfrwt>
<pdfrwt beam="2">  1       -2 0.10822072E-01 0.46733568E+03</pdfrwt>
<totfact> 0.21629152E+03</totfact>
</mgrwt>
</event>
<event>
 4    1  0.8404100E-005  0.5408283E+03  0.7818608E-02  0.1003639E+00
          2   -1    0    0  501    0  0.00000000000E+00  0.00000000000E+00  0.31127253398E+03  0.31127253399E+03  0.25500000000E-02 0.  1.
         -2   -1    0    0    0  501 -0.00000000000E+00 -0.00000000000E+00 -0.23491892276E+03  0.23491892277E+03  0.25500000000E-02 0. -1.
    5000001    1    1    2    0    0  0.30289268557E+02  0.21186889402E+03  0.47912963664E+02  0.27445677279E+03  0.16500000000E+03 0.  0.
   -5000001    1    1    2    0    0 -0.30289268557E+02 -0.21186889402E+03  0.28440647561E+02  0.27173468398E+03  0.16500000000E+03 0.  0.
<mgrwt>
<rscale>  0 0.54082828E+03</rscale>
<asrwt>0</asrwt>
<pdfrwt beam="1">  1        2 0.47888082E-01 0.54082828E+03</pdfrwt>
<pdfrwt beam="2">  1       -2 0.36141373E-01 0.54082828E+03</pdfrwt>
<totfact> 0.76254143E+02</totfact>
</mgrwt>
</event>
<event>
 4    1  0.8404100E-005  0.5350767E+03  0.7818608E-02  0.1005008E+00
          2   -1    0    0  501    0  0.00000000000E+00  0.00000000000E+00  0.24002762391E+04  0.24002762392E+04  0.25500000000E-02 0.  1.
         -2   -1    0    0    0  501 -0.00000000000E+00 -0.00000000000E+00 -0.29820218411E+02  0.29820218520E+02  0.25500000000E-02 0. -1.
    5000001    1    1    2    0    0  0.16099695210E+03  0.13678645213E+02  0.17986722852E+04  0.18134370994E+04  0.16500000000E+03 0.  0.
   -5000001    1    1    2    0    0 -0.16099695210E+03 -0.13678645213E+02  0.57178373554E+03  0.61665935827E+03  0.16500000000E+03 0.  0.
<mgrwt>
<rscale>  0 0.53507667E+03</rscale>
<asrwt>0</asrwt>
<pdfrwt beam="1">  1        2 0.36927327E+00 0.53507667E+03</pdfrwt>
<pdfrwt beam="2">  1       -2 0.45877259E-02 0.53507667E+03</pdfrwt>
<totfact> 0.98610372E+02</totfact>
</mgrwt>
</event>
<event>
 4    1  0.8404100E-005  0.5092607E+03  0.7818608E-02  0.1011390E+00
          2   -1    0    0  501    0  0.00000000000E+00  0.00000000000E+00  0.26241317301E+03  0.26241317302E+03  0.25500000000E-02 0.  1.
         -2   -1    0    0    0  501 -0.00000000000E+00 -0.00000000000E+00 -0.24707833712E+03  0.24707833713E+03  0.25500000000E-02 0. -1.
    5000001    1    1    2    0    0 -0.16470453816E+03 -0.92062378603E+02 -0.37169678224E+02  0.25339623404E+03  0.16500000000E+03 0.  0.
   -5000001    1    1    2    0    0  0.16470453816E+03  0.92062378603E+02  0.52504514117E+02  0.25609527612E+03  0.16500000000E+03 0.  0.
<mgrwt>
<rscale>  0 0.50926068E+03</rscale>
<asrwt>0</asrwt>
<pdfrwt beam="1">  1        2 0.40371257E-01 0.50926068E+03</pdfrwt>
<pdfrwt beam="2">  1       -2 0.38012052E-01 0.50926068E+03</pdfrwt>
<totfact> 0.83576676E+02</totfact>
</mgrwt>
</event>
<event>
 4    1  0.8404100E-005  0.4424633E+03  0.7818608E-02  0.1029994E+00
          2   -1    0    0  501    0  0.00000000000E+00  0.00000000000E+00  0.10560507189E+04  0.10560507189E+04  0.25500000000E-02 0.  1.
         -2   -1    0    0    0  501 -0.00000000000E+00 -0.00000000000E+00 -0.46345724505E+02  0.46345724575E+02  0.25500000000E-02 0. -1.
    5000001    1    1    2    0    0 -0.37436238717E+02  0.10649106479E+03  0.26879547391E+03  0.33498929184E+03  0.16500000000E+03 0.  0.
   -5000001    1    1    2    0    0  0.37436238717E+02 -0.10649106479E+03  0.74090952051E+03  0.76740715166E+03  0.16500000000E+03 0.  0.
<mgrwt>
<rscale>  0 0.44246327E+03</rscale>
<asrwt>0</asrwt>
<pdfrwt beam="1">  1        2 0.16246934E+00 0.44246327E+03</pdfrwt>
<pdfrwt beam="2">  1       -2 0.71301117E-02 0.44246327E+03</pdfrwt>
<totfact> 0.27546484E+03</totfact>
</mgrwt>
</event>
<event>
 4    1  0.8404100E-005  0.5949669E+03  0.7818608E-02  0.9915903E-01
         -2   -1    0    0    0  501 -0.00000000000E+00  0.00000000000E+00  0.11881222777E+03  0.11881222780E+03  0.25500000000E-02 0. -1.
          2   -1    0    0  501    0  0.00000000000E+00 -0.00000000000E+00 -0.74484256558E+03  0.74484256558E+03  0.25500000000E-02 0.  1.
    5000001    1    1    2    0    0  0.21321024020E+03 -0.28688039252E+01 -0.49550501024E+03  0.56410730516E+03  0.16500000000E+03 0.  0.
   -5000001    1    1    2    0    0 -0.21321024020E+03  0.28688039252E+01 -0.13052532757E+03  0.29954748822E+03  0.16500000000E+03 0.  0.
<mgrwt>
<rscale>  0 0.59496691E+03</rscale>
<asrwt>0</asrwt>
<pdfrwt beam="1">  1        2 0.11459116E+00 0.59496691E+03</pdfrwt>
<pdfrwt beam="2">  1       -2 0.18278805E-01 0.59496691E+03</pdfrwt>
<totfact> 0.94940196E+02</totfact>
</mgrwt>
</event>
<event>
 4    1  0.8404100E-005  0.5617747E+03  0.7818608E-02  0.9988047E-01
          2   -1    0    0  501    0  0.00000000000E+00  0.00000000000E+00  0.40191475498E+03  0.40191475499E+03  0.25500000000E-02 0.  1.
         -2   -1    0    0    0  501 -0.00000000000E+00 -0.00000000000E+00 -0.19630457200E+03  0.19630457202E+03  0.25500000000E-02 0. -1.
    5000001    1    1    2    0    0  0.18017490467E+03 -0.41420119459E+02 -0.38040686584E+02  0.25070045154E+03  0.16500000000E+03 0.  0.
   -5000001    1    1    2    0    0 -0.18017490467E+03  0.41420119459E+02  0.24365086956E+03  0.34751887547E+03  0.16500000000E+03 0.  0.
<mgrwt>
<rscale>  0 0.56177470E+03</rscale>
<asrwt>0</asrwt>
<pdfrwt beam="1">  1        2 0.61833038E-01 0.56177470E+03</pdfrwt>
<pdfrwt beam="2">  1       -2 0.30200704E-01 0.56177470E+03</pdfrwt>
<totfact> 0.80434147E+02</totfact>
</mgrwt>
</event>
<event>
 4    1  0.8404100E-005  0.7359367E+03  0.7818608E-02  0.9657675E-01
         -2   -1    0    0    0  501 -0.00000000000E+00  0.00000000000E+00  0.84867852212E+02  0.84867852251E+02  0.25500000000E-02 0. -1.
          2   -1    0    0  501    0  0.00000000000E+00 -0.00000000000E+00 -0.15954298561E+04  0.15954298561E+04  0.25500000000E-02 0.  1.
    5000001    1    1    2    0    0 -0.29583935848E+03 -0.82124253577E+02 -0.10245679910E+04  0.10822337489E+04  0.16500000000E+03 0.  0.
   -5000001    1    1    2    0    0  0.29583935848E+03  0.82124253577E+02 -0.48599401290E+03  0.59806395947E+03  0.16500000000E+03 0.  0.
<mgrwt>
<rscale>  0 0.73593670E+03</rscale>
<asrwt>0</asrwt>
<pdfrwt beam="1">  1        2 0.24545072E+00 0.73593670E+03</pdfrwt>
<pdfrwt beam="2">  1       -2 0.13056594E-01 0.73593670E+03</pdfrwt>
<totfact> 0.50372152E+02</totfact>
</mgrwt>
</event>
<event>
 4    1  0.8404100E-005  0.4844896E+03  0.7818608E-02  0.1017909E+00
          2   -1    0    0  501    0  0.00000000000E+00  0.00000000000E+00  0.55381386330E+03  0.55381386330E+03  0.25500000000E-02 0.  1.
         -2   -1    0    0    0  501 -0.00000000000E+00 -0.00000000000E+00 -0.10596077205E+03  0.10596077208E+03  0.25500000000E-02 0. -1.
    5000001    1    1    2    0    0  0.51205017087E+02 -0.16619086350E+03  0.27141756006E+03  0.36212407928E+03  0.16500000000E+03 0.  0.
   -5000001    1    1    2    0    0 -0.51205017087E+02  0.16619086350E+03  0.17643553118E+03  0.29765055610E+03  0.16500000000E+03 0.  0.
<mgrwt>
<rscale>  0 0.48448961E+03</rscale>
<asrwt>0</asrwt>
<pdfrwt beam="1">  1        2 0.85202133E-01 0.48448961E+03</pdfrwt>
<pdfrwt beam="2">  1       -2 0.16301657E-01 0.48448961E+03</pdfrwt>
<totfact> 0.16576261E+03</totfact>
</mgrwt>
</event>
<event>
 4    1  0.8404100E-005  0.7255817E+03  0.7818608E-02  0.9674457E-01
          2   -1    0    0  501    0  0.00000000000E+00  0.00000000000E+00  0.12497133556E+04  0.12497133556E+04  0.25500000000E-02 0.  1.
         -2   -1    0    0    0  501 -0.00000000000E+00 -0.00000000000E+00 -0.10531789807E+03  0.10531789810E+03  0.25500000000E-02 0. -1.
    5000001    1    1    2    0    0 -0.27254793250E+03  0.16816044450E+03  0.65212789695E+03  0.74502087527E+03  0.16500000000E+03 0.  0.
   -5000001    1    1    2    0    0  0.27254793250E+03 -0.16816044450E+03  0.49226756060E+03  0.61001037846E+03  0.16500000000E+03 0.  0.
<mgrwt>
<rscale>  0 0.72558165E+03</rscale>
<asrwt>0</asrwt>
<pdfrwt beam="1">  1        2 0.19226359E+00 0.72558165E+03</pdfrwt>
<pdfrwt beam="2">  1       -2 0.16202754E-01 0.72558165E+03</pdfrwt>
<totfact> 0.54878820E+02</totfact>
</mgrwt>
</event>
<event>
 4    1  0.8404100E-005  0.5132933E+03  0.7818608E-02  0.1010366E+00
          2   -1    0    0  501    0  0.00000000000E+00  0.00000000000E+00  0.81740602946E+03  0.81740602946E+03  0.25500000000E-02 0.  1.
         -2   -1    0    0    0  501 -0.00000000000E+00 -0.00000000000E+00 -0.80581130725E+02  0.80581130765E+02  0.25500000000E-02 0. -1.
    5000001    1    1    2    0    0 -0.92191442725E+02 -0.17294410814E+03  0.39514978711E+03  0.47093235279E+03  0.16500000000E+03 0.  0.
   -5000001    1    1    2    0    0  0.92191442725E+02  0.17294410814E+03  0.34167511162E+03  0.42705480744E+03  0.16500000000E+03 0.  0.
<mgrwt>
<rscale>  0 0.51329330E+03</rscale>
<asrwt>0</asrwt>
<pdfrwt beam="1">  1        2 0.12575477E+00 0.51329330E+03</pdfrwt>
<pdfrwt beam="2">  1       -2 0.12397098E-01 0.51329330E+03</pdfrwt>
<totfact> 0.16191838E+03</totfact>
</mgrwt>
</event>
<event>
 4    1  0.8404100E-005  0.7130160E+03  0.7818608E-02  0.9695228E-01
         -2   -1    0    0    0  501 -0.00000000000E+00  0.00000000000E+00  0.54856164464E+02  0.54856164523E+02  0.25500000000E-02 0. -1.
          2   -1    0    0  501    0  0.00000000000E+00 -0.00000000000E+00 -0.23169313896E+04  0.23169313896E+04  0.25500000000E-02 0.  1.
    5000001    1    1    2    0    0 -0.31273192793E+03 -0.40021598434E+02 -0.10589239997E+04  0.11171159403E+04  0.16500000000E+03 0.  0.
   -5000001    1    1    2    0    0  0.31273192793E+03  0.40021598434E+02 -0.12031512255E+04  0.12546716138E+04  0.16500000000E+03 0.  0.
<mgrwt>
<rscale>  0 0.71301604E+03</rscale>
<asrwt>0</asrwt>
<pdfrwt beam="1">  1        2 0.35645091E+00 0.71301604E+03</pdfrwt>
<pdfrwt beam="2">  1       -2 0.84394117E-02 0.71301604E+03</pdfrwt>
<totfact> 0.41467380E+02</totfact>
</mgrwt>
</event>
<event>
 4    1  0.8404100E-005  0.7664981E+03  0.7818608E-02  0.9609817E-01
          2   -1    0    0  501    0  0.00000000000E+00  0.00000000000E+00  0.15529471431E+04  0.15529471431E+04  0.25500000000E-02 0.  1.
         -2   -1    0    0    0  501 -0.00000000000E+00 -0.00000000000E+00 -0.94581355292E+02  0.94581355326E+02  0.25500000000E-02 0. -1.
    5000001    1    1    2    0    0  0.11194199915E+03 -0.31031253677E+03  0.95286711015E+03  0.10217659278E+04  0.16500000000E+03 0.  0.
   -5000001    1    1    2    0    0 -0.11194199915E+03  0.31031253677E+03  0.50549867762E+03  0.62576257057E+03  0.16500000000E+03 0.  0.
<mgrwt>
<rscale>  0 0.76649813E+03</rscale>
<asrwt>0</asrwt>
<pdfrwt beam="1">  1        2 0.23891493E+00 0.76649813E+03</pdfrwt>
<pdfrwt beam="2">  1       -2 0.14550978E-01 0.76649813E+03</pdfrwt>
<totfact> 0.44255660E+02</totfact>
</mgrwt>
</event>
<event>
 4    1  0.8404100E-005  0.6181682E+03  0.7818608E-02  0.9868414E-01
          2   -1    0    0  501    0  0.00000000000E+00  0.00000000000E+00  0.38606235832E+03  0.38606235833E+03  0.25500000000E-02 0. -1.
         -2   -1    0    0    0  501 -0.00000000000E+00 -0.00000000000E+00 -0.24745477625E+03  0.24745477626E+03  0.25500000000E-02 0.  1.
    5000001    1    1    2    0    0 -0.46846506541E+02 -0.25200625404E+03  0.16984980623E+02  0.30531170436E+03  0.16500000000E+03 0.  0.
   -5000001    1    1    2    0    0  0.46846506541E+02  0.25200625404E+03  0.12162260145E+03  0.32820543023E+03  0.16500000000E+03 0.  0.
<mgrwt>
<rscale>  0 0.61816818E+03</rscale>
<asrwt>0</asrwt>
<pdfrwt beam="1">  1        2 0.59394209E-01 0.61816818E+03</pdfrwt>
<pdfrwt beam="2">  1       -2 0.38069966E-01 0.61816818E+03</pdfrwt>
<totfact> 0.54314946E+02</totfact>
</mgrwt>
</event>
<event>
 4    1  0.8404100E-005  0.4740056E+03  0.7818608E-02  0.1020796E+00
         -2   -1    0    0    0  501 -0.00000000000E+00  0.00000000000E+00  0.11249087018E+03  0.11249087021E+03  0.25500000000E-02 0. -1.
          2   -1    0    0  501    0  0.00000000000E+00 -0.00000000000E+00 -0.49933225766E+03  0.49933225766E+03  0.25500000000E-02 0.  1.
    5000001    1    1    2    0    0  0.58549287715E+01 -0.16212451480E+03 -0.25957317955E+03  0.34773822630E+03  0.16500000000E+03 0.  0.
   -5000001    1    1    2    0    0 -0.58549287715E+01  0.16212451480E+03 -0.12726820792E+03  0.26408490157E+03  0.16500000000E+03 0.  0.
<mgrwt>
<rscale>  0 0.47400557E+03</rscale>
<asrwt>0</asrwt>
<pdfrwt beam="1">  1        2 0.76820346E-01 0.47400557E+03</pdfrwt>
<pdfrwt beam="2">  1       -2 0.17306288E-01 0.47400557E+03</pdfrwt>
<totfact> 0.16877599E+03</totfact>
</mgrwt>
</event>
<event>
 4    1  0.8404100E-005  0.5909144E+03  0.7818608E-02  0.9924437E-01
         -2   -1    0    0    0  501 -0.00000000000E+00  0.00000000000E+00  0.55925185805E+02  0.55925185863E+02  0.25500000000E-02 0. -1.
          2   -1    0    0  501    0  0.00000000000E+00 -0.00000000000E+00 -0.15609236551E+04  0.15609236551E+04  0.25500000000E-02 0.  1.
    5000001    1    1    2    0    0 -0.21376402808E+03 -0.11986288136E+03 -0.74486952779E+03  0.80132252149E+03  0.16500000000E+03 0.  0.
   -5000001    1    1    2    0    0  0.21376402808E+03  0.11986288136E+03 -0.76012894147E+03  0.81552631943E+03  0.16500000000E+03 0.  0.
<mgrwt>
<rscale>  0 0.59091436E+03</rscale>
<asrwt>0</asrwt>
<pdfrwt beam="1">  1        2 0.24014207E+00 0.59091436E+03</pdfrwt>
<pdfrwt beam="2">  1       -2 0.86038759E-02 0.59091436E+03</pdfrwt>
<totfact> 0.10479831E+03</totfact>
</mgrwt>
</event>
<event>
 4    1  0.8404100E-005  0.8741063E+03  0.7818608E-02  0.9458542E-01
          2   -1    0    0  501    0  0.00000000000E+00  0.00000000000E+00  0.26806911097E+04  0.26806911097E+04  0.25500000000E-02 0. -1.
         -2   -1    0    0    0  501 -0.00000000000E+00 -0.00000000000E+00 -0.71256042840E+02  0.71256042885E+02  0.25500000000E-02 0.  1.
    5000001    1    1    2    0    0 -0.19820855243E+02  0.32546510939E+03  0.20594561902E+04  0.20916274055E+04  0.16500000000E+03 0.  0.
   -5000001    1    1    2    0    0  0.19820855243E+02 -0.32546510939E+03  0.54997887667E+03  0.66031974718E+03  0.16500000000E+03 0.  0.
<mgrwt>
<rscale>  0 0.87410626E+03</rscale>
<asrwt>0</asrwt>
<pdfrwt beam="1">  1        2 0.41241400E+00 0.87410626E+03</pdfrwt>
<pdfrwt beam="2">  1       -2 0.10962468E-01 0.87410626E+03</pdfrwt>
<totfact> 0.16599540E+02</totfact>
</mgrwt>
</event>
<event>
 4    1  0.8404100E-005  0.1124994E+04  0.7818608E-02  0.9181168E-01
         -2   -1    0    0    0  501 -0.00000000000E+00  0.00000000000E+00  0.81830384510E+03  0.81830384511E+03  0.25500000000E-02 0. -1.
          2   -1    0    0  501    0  0.00000000000E+00 -0.00000000000E+00 -0.38665709247E+03  0.38665709248E+03  0.25500000000E-02 0.  1.
    5000001    1    1    2    0    0  0.41565113884E+03 -0.19353304381E+03  0.51678991802E+03  0.71029411347E+03  0.16500000000E+03 0.  0.
   -5000001    1    1    2    0    0 -0.41565113884E+03  0.19353304381E+03 -0.85143165383E+02  0.49466682411E+03  0.16500000000E+03 0.  0.
<mgrwt>
<rscale>  0 0.11249942E+04</rscale>
<asrwt>0</asrwt>
<pdfrwt beam="1">  1        2 0.59485707E-01 0.11249942E+04</pdfrwt>
<pdfrwt beam="2">  1       -2 0.12589290E+00 0.11249942E+04</pdfrwt>
<totfact> 0.38556643E+01</totfact>
</mgrwt>
</event>
<event>
 4    1  0.8404100E-005  0.6288596E+03  0.7818608E-02  0.9847277E-01
         -2   -1    0    0    0  501 -0.00000000000E+00  0.00000000000E+00  0.22001640128E+03  0.22001640130E+03  0.25500000000E-02 0. -1.
          2   -1    0    0  501    0  0.00000000000E+00 -0.00000000000E+00 -0.44935781529E+03  0.44935781530E+03  0.25500000000E-02 0.  1.
    5000001    1    1    2    0    0 -0.23288562999E+03 -0.30753995829E+02 -0.25123101140E+03  0.38147548546E+03  0.16500000000E+03 0.  0.
   -5000001    1    1    2    0    0  0.23288562999E+03  0.30753995829E+02  0.21889597394E+02  0.28789873114E+03  0.16500000000E+03 0.  0.
<mgrwt>
<rscale>  0 0.62885957E+03</rscale>
<asrwt>0</asrwt>
<pdfrwt beam="1">  1        2 0.69131971E-01 0.62885957E+03</pdfrwt>
<pdfrwt beam="2">  1       -2 0.33848677E-01 0.62885957E+03</pdfrwt>
<totfact> 0.57271793E+02</totfact>
</mgrwt>
</event>
<event>
 4    1  0.8404100E-005  0.4946488E+03  0.7818608E-02  0.1015185E+00
         -2   -1    0    0    0  501 -0.00000000000E+00  0.00000000000E+00  0.14387680380E+03  0.14387680382E+03  0.25500000000E-02 0. -1.
          2   -1    0    0  501    0  0.00000000000E+00 -0.00000000000E+00 -0.42515088199E+03  0.42515088200E+03  0.25500000000E-02 0.  1.
    5000001    1    1    2    0    0  0.20732577029E+02  0.18145775535E+03 -0.16852231150E+03  0.29829771404E+03  0.16500000000E+03 0.  0.
   -5000001    1    1    2    0    0 -0.20732577029E+02 -0.18145775535E+03 -0.11275176669E+03  0.27072997178E+03  0.16500000000E+03 0.  0.
<mgrwt>
<rscale>  0 0.49464876E+03</rscale>
<asrwt>0</asrwt>
<pdfrwt beam="1">  1        2 0.65407828E-01 0.49464876E+03</pdfrwt>
<pdfrwt beam="2">  1       -2 0.22134893E-01 0.49464876E+03</pdfrwt>
<totfact> 0.13225668E+03</totfact>
</mgrwt>
</event>
<event>
 4    1  0.8404100E-005  0.4528112E+03  0.7818608E-02  0.1026887E+00
         -2   -1    0    0    0  501 -0.00000000000E+00  0.00000000000E+00  0.50745086178E+02  0.50745086243E+02  0.25500000000E-02 0. -1.
          2   -1    0    0  501    0  0.00000000000E+00 -0.00000000000E+00 -0.10101370497E+04  0.10101370497E+04  0.25500000000E-02 0.  1.
    5000001    1    1    2    0    0 -0.13912533658E+03  0.86768728200E+00 -0.31945466350E+03  0.38552936878E+03  0.16500000000E+03 0.  0.
   -5000001    1    1    2    0    0  0.13912533658E+03 -0.86768728200E+00 -0.63993730005E+03  0.67535276719E+03  0.16500000000E+03 0.  0.
<mgrwt>
<rscale>  0 0.45281118E+03</rscale>
<asrwt>0</asrwt>
<pdfrwt beam="1">  1        2 0.15540569E+00 0.45281118E+03</pdfrwt>
<pdfrwt beam="2">  1       -2 0.78069371E-02 0.45281118E+03</pdfrwt>
<totfact> 0.25485733E+03</totfact>
</mgrwt>
</event>
<event>
 4    1  0.8404100E-005  0.1070339E+04  0.7818608E-02  0.9234594E-01
         -2   -1    0    0    0  501 -0.00000000000E+00  0.00000000000E+00  0.58506848021E+03  0.58506848021E+03  0.25500000000E-02 0. -1.
          2   -1    0    0  501    0  0.00000000000E+00 -0.00000000000E+00 -0.48952617480E+03  0.48952617481E+03  0.25500000000E-02 0.  1.
    5000001    1    1    2    0    0  0.21623491069E+02  0.31023795668E+03  0.45244472353E+03  0.57327689033E+03  0.16500000000E+03 0.  0.
   -5000001    1    1    2    0    0 -0.21623491069E+02 -0.31023795668E+03 -0.35690241813E+03  0.50131776469E+03  0.16500000000E+03 0.  0.
<mgrwt>
<rscale>  0 0.10703389E+04</rscale>
<asrwt>0</asrwt>
<pdfrwt beam="1">  1        2 0.75311719E-01 0.10703389E+04</pdfrwt>
<pdfrwt beam="2">  1       -2 0.90010535E-01 0.10703389E+04</pdfrwt>
<totfact> 0.66353917E+01</totfact>
</mgrwt>
</event>
<event>
 4    1  0.8404100E-005  0.3983176E+03  0.7818608E-02  0.1044364E+00
         -2   -1    0    0    0  501 -0.00000000000E+00  0.00000000000E+00  0.13778224893E+04  0.13778224893E+04  0.25500000000E-02 0. -1.
          2   -1    0    0  501    0  0.00000000000E+00 -0.00000000000E+00 -0.28787619491E+02  0.28787619604E+02  0.25500000000E-02 0.  1.
    5000001    1    1    2    0    0  0.85241172732E+02  0.59356846264E+02  0.53107491871E+03  0.56573391449E+03  0.16500000000E+03 0.  0.
   -5000001    1    1    2    0    0 -0.85241172732E+02 -0.59356846264E+02  0.81795995111E+03  0.84087619442E+03  0.16500000000E+03 0.  0.
<mgrwt>
<rscale>  0 0.39831761E+03</rscale>
<asrwt>0</asrwt>
<pdfrwt beam="1">  1        2 0.44288655E-02 0.39831761E+03</pdfrwt>
<pdfrwt beam="2">  1       -2 0.21197265E+00 0.39831761E+03</pdfrwt>
<totfact> 0.22387774E+02</totfact>
</mgrwt>
</event>
<event>
 4    1  0.8404100E-005  0.5914912E+03  0.7818608E-02  0.9923218E-01
          2   -1    0    0  501    0  0.00000000000E+00  0.00000000000E+00  0.20798864193E+03  0.20798864194E+03  0.25500000000E-02 0.  1.
         -2   -1    0    0    0  501 -0.00000000000E+00 -0.00000000000E+00 -0.42052996105E+03  0.42052996106E+03  0.25500000000E-02 0. -1.
    5000001    1    1    2    0    0  0.20384679838E+03  0.12958520395E+03 -0.60018699771E+02  0.29861863072E+03  0.16500000000E+03 0.  0.
   -5000001    1    1    2    0    0 -0.20384679838E+03 -0.12958520395E+03 -0.15252261935E+03  0.32989997227E+03  0.16500000000E+03 0.  0.
<mgrwt>
<rscale>  0 0.59149119E+03</rscale>
<asrwt>0</asrwt>
<pdfrwt beam="1">  1        2 0.31998253E-01 0.59149119E+03</pdfrwt>
<pdfrwt beam="2">  1       -2 0.64696917E-01 0.59149119E+03</pdfrwt>
<totfact> 0.36852262E+02</totfact>
</mgrwt>
</event>
<event>
 4    1  0.8404100E-005  0.4515669E+03  0.7818608E-02  0.1027256E+00
         -2   -1    0    0    0  501 -0.00000000000E+00  0.00000000000E+00  0.38357199135E+02  0.38357199220E+02  0.25500000000E-02 0. -1.
          2   -1    0    0  501    0  0.00000000000E+00 -0.00000000000E+00 -0.13290375092E+04  0.13290375092E+04  0.25500000000E-02 0.  1.
    5000001    1    1    2    0    0 -0.12207218324E+02 -0.13464925975E+03 -0.42130663048E+03  0.47223269288E+03  0.16500000000E+03 0.  0.
   -5000001    1    1    2    0    0  0.12207218324E+02  0.13464925975E+03 -0.86937367963E+03  0.89516201559E+03  0.16500000000E+03 0.  0.
<mgrwt>
<rscale>  0 0.45156686E+03</rscale>
<asrwt>0</asrwt>
<pdfrwt beam="1">  1        2 0.20446727E+00 0.45156686E+03</pdfrwt>
<pdfrwt beam="2">  1       -2 0.59011086E-02 0.45156686E+03</pdfrwt>
<totfact> 0.25658472E+03</totfact>
</mgrwt>
</event>
<event>
 4    1  0.8404100E-005  0.5082307E+03  0.7818608E-02  0.1011653E+00
          2   -1    0    0  501    0  0.00000000000E+00  0.00000000000E+00  0.14920786944E+03  0.14920786947E+03  0.25500000000E-02 0.  1.
         -2   -1    0    0    0  501 -0.00000000000E+00 -0.00000000000E+00 -0.43278279510E+03  0.43278279511E+03  0.25500000000E-02 0. -1.
    5000001    1    1    2    0    0  0.44710354537E+02  0.14086549415E+03 -0.28438958778E+03  0.36047821138E+03  0.16500000000E+03 0.  0.
   -5000001    1    1    2    0    0 -0.44710354537E+02 -0.14086549415E+03  0.81466212137E+00  0.22151245319E+03  0.16500000000E+03 0.  0.
<mgrwt>
<rscale>  0 0.50823065E+03</rscale>
<asrwt>0</asrwt>
<pdfrwt beam="1">  1        2 0.22955057E-01 0.50823065E+03</pdfrwt>
<pdfrwt beam="2">  1       -2 0.66581968E-01 0.50823065E+03</pdfrwt>
<totfact> 0.50557182E+02</totfact>
</mgrwt>
</event>
<event>
 4    1  0.8404100E-005  0.6075780E+03  0.7818608E-02  0.9889808E-01
         -2   -1    0    0    0  501 -0.00000000000E+00  0.00000000000E+00  0.81756807214E+02  0.81756807254E+02  0.25500000000E-02 0. -1.
          2   -1    0    0  501    0  0.00000000000E+00 -0.00000000000E+00 -0.11288083661E+04  0.11288083661E+04  0.25500000000E-02 0.  1.
    5000001    1    1    2    0    0 -0.23595201280E+03 -0.78115802018E+02 -0.63776315851E+03  0.70408967981E+03  0.16500000000E+03 0.  0.
   -5000001    1    1    2    0    0  0.23595201280E+03  0.78115802018E+02 -0.40928840034E+03  0.50647549351E+03  0.16500000000E+03 0.  0.
<mgrwt>
<rscale>  0 0.60757804E+03</rscale>
<asrwt>0</asrwt>
<pdfrwt beam="1">  1        2 0.17366281E+00 0.60757804E+03</pdfrwt>
<pdfrwt beam="2">  1       -2 0.12577971E-01 0.60757804E+03</pdfrwt>
<totfact> 0.99468799E+02</totfact>
</mgrwt>
</event>
<event>
 4    1  0.8404100E-005  0.4255686E+03  0.7818608E-02  0.1035269E+00
         -2   -1    0    0    0  501 -0.00000000000E+00  0.00000000000E+00  0.44056961360E+02  0.44056961434E+02  0.25500000000E-02 0. -1.
          2   -1    0    0  501    0  0.00000000000E+00 -0.00000000000E+00 -0.10276957155E+04  0.10276957155E+04  0.25500000000E-02 0.  1.
    5000001    1    1    2    0    0  0.18770702990E+02  0.12118926581E+03 -0.35358289911E+03  0.40900494371E+03  0.16500000000E+03 0.  0.
   -5000001    1    1    2    0    0 -0.18770702990E+02 -0.12118926581E+03 -0.63005585501E+03  0.66274773320E+03  0.16500000000E+03 0.  0.
<mgrwt>
<rscale>  0 0.42556856E+03</rscale>
<asrwt>0</asrwt>
<pdfrwt beam="1">  1        2 0.15810702E+00 0.42556856E+03</pdfrwt>
<pdfrwt beam="2">  1       -2 0.67779948E-02 0.42556856E+03</pdfrwt>
<totfact> 0.31039585E+03</totfact>
</mgrwt>
</event>
<event>
 4    1  0.8404100E-005  0.6342967E+03  0.7818608E-02  0.9836700E-01
          2   -1    0    0  501    0  0.00000000000E+00  0.00000000000E+00  0.35655946302E+04  0.35655946302E+04  0.25500000000E-02 0. -1.
         -2   -1    0    0    0  501 -0.00000000000E+00 -0.00000000000E+00 -0.28209336920E+02  0.28209337036E+02  0.25500000000E-02 0.  1.
    5000001    1    1    2    0    0  0.23779636795E+03 -0.12408372584E+03  0.19817584850E+04  0.20066229283E+04  0.16500000000E+03 0.  0.
   -5000001    1    1    2    0    0 -0.23779636795E+03  0.12408372584E+03  0.15556268083E+04  0.15871810389E+04  0.16500000000E+03 0.  0.
<mgrwt>
<rscale>  0 0.63429665E+03</rscale>
<asrwt>0</asrwt>
<pdfrwt beam="1">  1        2 0.54855314E+00 0.63429665E+03</pdfrwt>
<pdfrwt beam="2">  1       -2 0.43398971E-02 0.63429665E+03</pdfrwt>
<totfact> 0.20607037E+02</totfact>
</mgrwt>
</event>
<event>
 4    1  0.8404100E-005  0.3752057E+03  0.7818608E-02  0.1052720E+00
          2   -1    0    0  501    0  0.00000000000E+00  0.00000000000E+00  0.11182597704E+04  0.11182597704E+04  0.25500000000E-02 0.  1.
         -2   -1    0    0    0  501 -0.00000000000E+00 -0.00000000000E+00 -0.31472853642E+02  0.31472853745E+02  0.25500000000E-02 0. -1.
    5000001    1    1    2    0    0  0.80298677471E+02  0.38294921630E+02  0.52057593438E+03  0.55329800477E+03  0.16500000000E+03 0.  0.
   -5000001    1    1    2    0    0 -0.80298677471E+02 -0.38294921630E+02  0.56621098236E+03  0.59643461936E+03  0.16500000000E+03 0.  0.
<mgrwt>
<rscale>  0 0.37520568E+03</rscale>
<asrwt>0</asrwt>
<pdfrwt beam="1">  1        2 0.17203993E+00 0.37520568E+03</pdfrwt>
<pdfrwt beam="2">  1       -2 0.48419785E-02 0.37520568E+03</pdfrwt>
<totfact> 0.46016955E+03</totfact>
</mgrwt>
</event>
<event>
 4    1  0.8404100E-005  0.5624970E+03  0.7818608E-02  0.9986421E-01
          2   -1    0    0  501    0  0.00000000000E+00  0.00000000000E+00  0.12370104366E+04  0.12370104366E+04  0.25500000000E-02 0.  1.
         -2   -1    0    0    0  501 -0.00000000000E+00 -0.00000000000E+00 -0.63945064191E+02  0.63945064242E+02  0.25500000000E-02 0. -1.
    5000001    1    1    2    0    0 -0.16039486856E+03  0.16126106664E+03  0.61429294414E+03  0.67550904265E+03  0.16500000000E+03 0.  0.
   -5000001    1    1    2    0    0  0.16039486856E+03 -0.16126106664E+03  0.55877242822E+03  0.62544645815E+03  0.16500000000E+03 0.  0.
<mgrwt>
<rscale>  0 0.56249698E+03</rscale>
<asrwt>0</asrwt>
<pdfrwt beam="1">  1        2 0.19030929E+00 0.56249698E+03</pdfrwt>
<pdfrwt beam="2">  1       -2 0.98377024E-02 0.56249698E+03</pdfrwt>
<totfact> 0.12853315E+03</totfact>
</mgrwt>
</event>
<event>
 4    1  0.8404100E-005  0.4609334E+03  0.7818608E-02  0.1024511E+00
         -2   -1    0    0    0  501 -0.00000000000E+00  0.00000000000E+00  0.52501331124E+03  0.52501331125E+03  0.25500000000E-02 0. -1.
          2   -1    0    0  501    0  0.00000000000E+00 -0.00000000000E+00 -0.10116867187E+03  0.10116867190E+03  0.25500000000E-02 0.  1.
    5000001    1    1    2    0    0 -0.46112078375E+02 -0.15262702637E+03  0.18251550423E+03  0.29318636093E+03  0.16500000000E+03 0.  0.
   -5000001    1    1    2    0    0  0.46112078375E+02  0.15262702637E+03  0.24132913515E+03  0.33299562222E+03  0.16500000000E+03 0.  0.
<mgrwt>
<rscale>  0 0.46093340E+03</rscale>
<asrwt>0</asrwt>
<pdfrwt beam="1">  1        2 0.15564411E-01 0.46093340E+03</pdfrwt>
<pdfrwt beam="2">  1       -2 0.80771278E-01 0.46093340E+03</pdfrwt>
<totfact> 0.52280759E+02</totfact>
</mgrwt>
</event>
<event>
 4    1  0.8404100E-005  0.4683082E+03  0.7818608E-02  0.1022399E+00
         -2   -1    0    0    0  501 -0.00000000000E+00  0.00000000000E+00  0.67165781941E+02  0.67165781989E+02  0.25500000000E-02 0. -1.
          2   -1    0    0  501    0  0.00000000000E+00 -0.00000000000E+00 -0.81631051546E+03  0.81631051546E+03  0.25500000000E-02 0.  1.
    5000001    1    1    2    0    0  0.46311115744E+01 -0.16126343423E+03 -0.29968430748E+03  0.37823673350E+03  0.16500000000E+03 0.  0.
   -5000001    1    1    2    0    0 -0.46311115744E+01  0.16126343423E+03 -0.44946042604E+03  0.50523956396E+03  0.16500000000E+03 0.  0.
<mgrwt>
<rscale>  0 0.46830816E+03</rscale>
<asrwt>0</asrwt>
<pdfrwt beam="1">  1        2 0.12558623E+00 0.46830816E+03</pdfrwt>
<pdfrwt beam="2">  1       -2 0.10333198E-01 0.46830816E+03</pdfrwt>
<totfact> 0.21832902E+03</totfact>
</mgrwt>
</event>
<event>
 4    1  0.8404100E-005  0.6767832E+03  0.7818608E-02  0.9757781E-01
          2   -1    0    0  501    0  0.00000000000E+00  0.00000000000E+00  0.23470187678E+04  0.23470187678E+04  0.25500000000E-02 0.  1.
         -2   -1    0    0    0  501 -0.00000000000E+00 -0.00000000000E+00 -0.48789081864E+02  0.48789081930E+02  0.25500000000E-02 0. -1.
    5000001    1    1    2    0    0  0.78053724541E+02  0.25649312760E+03  0.70977359973E+03  0.77645648384E+03  0.16500000000E+03 0.  0.
   -5000001    1    1    2    0    0 -0.78053724541E+02 -0.25649312760E+03  0.15884560862E+04  0.16193513659E+04  0.16500000000E+03 0.  0.
<mgrwt>
<rscale>  0 0.67678325E+03</rscale>
<asrwt>0</asrwt>
<pdfrwt beam="1">  1        2 0.36107976E+00 0.67678325E+03</pdfrwt>
<pdfrwt beam="2">  1       -2 0.75060136E-02 0.67678325E+03</pdfrwt>
<totfact> 0.48271507E+02</totfact>
</mgrwt>
</event>
<event>
 4    1  0.8404100E-005  0.7716803E+03  0.7818608E-02  0.9601938E-01
         -2   -1    0    0    0  501 -0.00000000000E+00  0.00000000000E+00  0.10301484361E+03  0.10301484364E+03  0.25500000000E-02 0. -1.
          2   -1    0    0  501    0  0.00000000000E+00 -0.00000000000E+00 -0.14451571428E+04  0.14451571428E+04  0.25500000000E-02 0.  1.
    5000001    1    1    2    0    0  0.67670735308E+02  0.32693724718E+03 -0.46864667626E+03  0.59860003273E+03  0.16500000000E+03 0.  0.
   -5000001    1    1    2    0    0 -0.67670735308E+02 -0.32693724718E+03 -0.87349562288E+03  0.94957195368E+03  0.16500000000E+03 0.  0.
<mgrwt>
<rscale>  0 0.77168034E+03</rscale>
<asrwt>0</asrwt>
<pdfrwt beam="1">  1        2 0.22233185E+00 0.77168034E+03</pdfrwt>
<pdfrwt beam="2">  1       -2 0.15848439E-01 0.77168034E+03</pdfrwt>
<totfact> 0.43962862E+02</totfact>
</mgrwt>
</event>
<event>
 4    1  0.8404100E-005  0.3449909E+03  0.7818608E-02  0.1064690E+00
         -2   -1    0    0    0  501 -0.00000000000E+00  0.00000000000E+00  0.55756217472E+02  0.55756217530E+02  0.25500000000E-02 0. -1.
          2   -1    0    0  501    0  0.00000000000E+00 -0.00000000000E+00 -0.53365657865E+03  0.53365657865E+03  0.25500000000E-02 0.  1.
    5000001    1    1    2    0    0  0.19353801379E+01 -0.34436799220E+02 -0.17640846411E+03  0.24399710049E+03  0.16500000000E+03 0.  0.
   -5000001    1    1    2    0    0 -0.19353801379E+01  0.34436799220E+02 -0.30149189707E+03  0.34541569570E+03  0.16500000000E+03 0.  0.
<mgrwt>
<rscale>  0 0.34499085E+03</rscale>
<asrwt>0</asrwt>
<pdfrwt beam="1">  1        2 0.82101009E-01 0.34499085E+03</pdfrwt>
<pdfrwt beam="2">  1       -2 0.85778800E-02 0.34499085E+03</pdfrwt>
<totfact> 0.49128931E+03</totfact>
</mgrwt>
</event>
<event>
 4    1  0.8404100E-005  0.3504577E+03  0.7818608E-02  0.1062427E+00
         -2   -1    0    0    0  501 -0.00000000000E+00  0.00000000000E+00  0.12356743960E+03  0.12356743963E+03  0.25500000000E-02 0. -1.
          2   -1    0    0  501    0  0.00000000000E+00 -0.00000000000E+00 -0.24848898073E+03  0.24848898074E+03  0.25500000000E-02 0.  1.
    5000001    1    1    2    0    0 -0.53299462457E+02  0.25238968728E+02 -0.60847622297E+02  0.18548658005E+03  0.16500000000E+03 0.  0.
   -5000001    1    1    2    0    0  0.53299462457E+02 -0.25238968728E+02 -0.64073918828E+02  0.18656984031E+03  0.16500000000E+03 0.  0.
<mgrwt>
<rscale>  0 0.35045768E+03</rscale>
<asrwt>0</asrwt>
<pdfrwt beam="1">  1        2 0.38229074E-01 0.35045768E+03</pdfrwt>
<pdfrwt beam="2">  1       -2 0.19010375E-01 0.35045768E+03</pdfrwt>
<totfact> 0.30912475E+03</totfact>
</mgrwt>
</event>
<event>
 4    1  0.8404100E-005  0.6222060E+03  0.7818608E-02  0.9860377E-01
         -2   -1    0    0    0  501 -0.00000000000E+00  0.00000000000E+00  0.59502121687E+03  0.59502121687E+03  0.25500000000E-02 0. -1.
          2   -1    0    0  501    0  0.00000000000E+00 -0.00000000000E+00 -0.16265819521E+03  0.16265819523E+03  0.25500000000E-02 0.  1.
    5000001    1    1    2    0    0  0.51549412360E+01 -0.25970008838E+03  0.16051951772E+03  0.34707668446E+03  0.16500000000E+03 0.  0.
   -5000001    1    1    2    0    0 -0.51549412360E+01  0.25970008838E+03  0.27184350393E+03  0.41060272765E+03  0.16500000000E+03 0.  0.
<mgrwt>
<rscale>  0 0.62220600E+03</rscale>
<asrwt>0</asrwt>
<pdfrwt beam="1">  1        2 0.25024338E-01 0.62220600E+03</pdfrwt>
<pdfrwt beam="2">  1       -2 0.91541724E-01 0.62220600E+03</pdfrwt>
<totfact> 0.22497216E+02</totfact>
</mgrwt>
</event>
<event>
 4    1  0.8404100E-005  0.4088645E+03  0.7818608E-02  0.1040753E+00
          2   -1    0    0  501    0  0.00000000000E+00  0.00000000000E+00  0.38940205921E+04  0.38940205921E+04  0.25500000000E-02 0.  1.
         -2   -1    0    0    0  501 -0.00000000000E+00 -0.00000000000E+00 -0.10732493401E+02  0.10732493704E+02  0.25500000000E-02 0. -1.
    5000001    1    1    2    0    0 -0.33185093714E+02 -0.20315229707E+02  0.85050736637E+03  0.86723799459E+03  0.16500000000E+03 0.  0.
   -5000001    1    1    2    0    0  0.33185093714E+02  0.20315229707E+02  0.30327807323E+04  0.30375150912E+04  0.16500000000E+03 0.  0.
<mgrwt>
<rscale>  0 0.40886453E+03</rscale>
<asrwt>0</asrwt>
<pdfrwt beam="1">  1        2 0.59908046E+00 0.40886453E+03</pdfrwt>
<pdfrwt beam="2">  1       -2 0.16511518E-02 0.40886453E+03</pdfrwt>
<totfact> 0.53403025E+02</totfact>
</mgrwt>
</event>
<event>
 4    1  0.8404100E-005  0.1085867E+04  0.7818608E-02  0.9219077E-01
         -2   -1    0    0    0  501 -0.00000000000E+00  0.00000000000E+00  0.30489450793E+03  0.30489450794E+03  0.25500000000E-02 0. -1.
          2   -1    0    0  501    0  0.00000000000E+00 -0.00000000000E+00 -0.96681642604E+03  0.96681642604E+03  0.25500000000E-02 0.  1.
    5000001    1    1    2    0    0 -0.48357870954E+03  0.10261743236E+03 -0.50924220483E+03  0.72865034751E+03  0.16500000000E+03 0.  0.
   -5000001    1    1    2    0    0  0.48357870954E+03 -0.10261743236E+03 -0.15267971328E+03  0.54306058648E+03  0.16500000000E+03 0.  0.
<mgrwt>
<rscale>  0 0.10858674E+04</rscale>
<asrwt>0</asrwt>
<pdfrwt beam="1">  1        2 0.14874099E+00 0.10858674E+04</pdfrwt>
<pdfrwt beam="2">  1       -2 0.46906848E-01 0.10858674E+04</pdfrwt>
<totfact> 0.11327416E+02</totfact>
</mgrwt>
</event>
<event>
 4    1  0.8404100E-005  0.3977939E+03  0.7818608E-02  0.1044546E+00
         -2   -1    0    0    0  501 -0.00000000000E+00  0.00000000000E+00  0.25925430807E+03  0.25925430809E+03  0.25500000000E-02 0.  1.
          2   -1    0    0  501    0  0.00000000000E+00 -0.00000000000E+00 -0.15259151076E+03  0.15259151078E+03  0.25500000000E-02 0. -1.
    5000001    1    1    2    0    0 -0.10733297978E+03  0.27901070161E+02  0.59557847465E+02  0.20753548000E+03  0.16500000000E+03 0.  0.
   -5000001    1    1    2    0    0  0.10733297978E+03 -0.27901070161E+02  0.47104949852E+02  0.20431033886E+03  0.16500000000E+03 0.  0.
<mgrwt>
<rscale>  0 0.39779395E+03</rscale>
<asrwt>0</asrwt>
<pdfrwt beam="1">  1        2 0.23475617E-01 0.39779395E+03</pdfrwt>
<pdfrwt beam="2">  1       -2 0.39885278E-01 0.39779395E+03</pdfrwt>
<totfact> 0.13938953E+03</totfact>
</mgrwt>
</event>
<event>
 4    1  0.8404100E-005  0.5444328E+03  0.7818608E-02  0.1002791E+00
         -2   -1    0    0    0  501 -0.00000000000E+00  0.00000000000E+00  0.24899976430E+03  0.24899976431E+03  0.25500000000E-02 0. -1.
          2   -1    0    0  501    0  0.00000000000E+00 -0.00000000000E+00 -0.29759774639E+03  0.29759774640E+03  0.25500000000E-02 0.  1.
    5000001    1    1    2    0    0  0.10473609244E+03  0.16827445536E+03  0.63172780652E+02  0.26552164055E+03  0.16500000000E+03 0.  0.
   -5000001    1    1    2    0    0 -0.10473609244E+03 -0.16827445536E+03 -0.11177076275E+03  0.28107587017E+03  0.16500000000E+03 0.  0.
<mgrwt>
<rscale>  0 0.54443280E+03</rscale>
<asrwt>0</asrwt>
<pdfrwt beam="1">  1        2 0.45784269E-01 0.54443280E+03</pdfrwt>
<pdfrwt beam="2">  1       -2 0.38307656E-01 0.54443280E+03</pdfrwt>
<totfact> 0.71676373E+02</totfact>
</mgrwt>
</event>
<event>
 4    1  0.8404100E-005  0.6406535E+03  0.7818608E-02  0.9824477E-01
         -2   -1    0    0    0  501 -0.00000000000E+00  0.00000000000E+00  0.35775350781E+03  0.35775350782E+03  0.25500000000E-02 0. -1.
          2   -1    0    0  501    0  0.00000000000E+00 -0.00000000000E+00 -0.28681538936E+03  0.28681538937E+03  0.25500000000E-02 0.  1.
    5000001    1    1    2    0    0 -0.17444026533E+03  0.21188286456E+03  0.27646117141E+02  0.32142349363E+03  0.16500000000E+03 0.  0.
   -5000001    1    1    2    0    0  0.17444026533E+03 -0.21188286456E+03  0.43292001315E+02  0.32314540356E+03  0.16500000000E+03 0.  0.
<mgrwt>
<rscale>  0 0.64065345E+03</rscale>
<asrwt>0</asrwt>
<pdfrwt beam="1">  1        2 0.44125445E-01 0.64065345E+03</pdfrwt>
<pdfrwt beam="2">  1       -2 0.55039001E-01 0.64065345E+03</pdfrwt>
<totfact> 0.36183096E+02</totfact>
</mgrwt>
</event>
<event>
 4    1  0.8404100E-005  0.1118787E+04  0.7818608E-02  0.9187072E-01
         -2   -1    0    0    0  501 -0.00000000000E+00  0.00000000000E+00  0.76379376686E+03  0.76379376687E+03  0.25500000000E-02 0. -1.
          2   -1    0    0  501    0  0.00000000000E+00 -0.00000000000E+00 -0.40969330232E+03  0.40969330233E+03  0.25500000000E-02 0.  1.
    5000001    1    1    2    0    0 -0.36291683683E+03 -0.33564664276E+03 -0.36184381417E+02  0.52239985520E+03  0.16500000000E+03 0.  0.
   -5000001    1    1    2    0    0  0.36291683683E+03  0.33564664276E+03  0.39028484596E+03  0.65108721400E+03  0.16500000000E+03 0.  0.
<mgrwt>
<rscale>  0 0.11187872E+04</rscale>
<asrwt>0</asrwt>
<pdfrwt beam="1">  1        2 0.63029739E-01 0.11187872E+04</pdfrwt>
<pdfrwt beam="2">  1       -2 0.11750673E+00 0.11187872E+04</pdfrwt>
<totfact> 0.42917309E+01</totfact>
</mgrwt>
</event>
<event>
 4    1  0.8404100E-005  0.4342685E+03  0.7818608E-02  0.1032520E+00
         -2   -1    0    0    0  501 -0.00000000000E+00  0.00000000000E+00  0.37157067878E+02  0.37157067965E+02  0.25500000000E-02 0. -1.
          2   -1    0    0  501    0  0.00000000000E+00 -0.00000000000E+00 -0.12688643150E+04  0.12688643150E+04  0.25500000000E-02 0.  1.
    5000001    1    1    2    0    0 -0.10509561575E+03 -0.53570729086E+02 -0.84894919935E+03  0.87284285787E+03  0.16500000000E+03 0.  0.
   -5000001    1    1    2    0    0  0.10509561575E+03  0.53570729086E+02 -0.38275804774E+03  0.43317852506E+03  0.16500000000E+03 0.  0.
<mgrwt>
<rscale>  0 0.43426848E+03</rscale>
<asrwt>0</asrwt>
<pdfrwt beam="1">  1        2 0.19520986E+00 0.43426848E+03</pdfrwt>
<pdfrwt beam="2">  1       -2 0.57164730E-02 0.43426848E+03</pdfrwt>
<totfact> 0.29158712E+03</totfact>
</mgrwt>
</event>
<event>
 4    1  0.8404100E-005  0.4930538E+03  0.7818608E-02  0.1015608E+00
          2   -1    0    0  501    0  0.00000000000E+00  0.00000000000E+00  0.26845933813E+03  0.26845933814E+03  0.25500000000E-02 0.  1.
         -2   -1    0    0    0  501 -0.00000000000E+00 -0.00000000000E+00 -0.22638627441E+03  0.22638627442E+03  0.25500000000E-02 0. -1.
    5000001    1    1    2    0    0 -0.17815921637E+03 -0.11889890641E+01  0.63716235180E+02  0.25105154590E+03  0.16500000000E+03 0.  0.
   -5000001    1    1    2    0    0  0.17815921637E+03  0.11889890641E+01 -0.21643171461E+02  0.24379406667E+03  0.16500000000E+03 0.  0.
<mgrwt>
<rscale>  0 0.49305379E+03</rscale>
<asrwt>0</asrwt>
<pdfrwt beam="1">  1        2 0.41301437E-01 0.49305379E+03</pdfrwt>
<pdfrwt beam="2">  1       -2 0.34828658E-01 0.49305379E+03</pdfrwt>
<totfact> 0.96270006E+02</totfact>
</mgrwt>
</event>
<event>
 4    1  0.8404100E-005  0.3673982E+03  0.7818608E-02  0.1055692E+00
         -2   -1    0    0    0  501 -0.00000000000E+00  0.00000000000E+00  0.10834814344E+03  0.10834814347E+03  0.25500000000E-02 0. -1.
          2   -1    0    0  501    0  0.00000000000E+00 -0.00000000000E+00 -0.31145298055E+03  0.31145298056E+03  0.25500000000E-02 0.  1.
    5000001    1    1    2    0    0 -0.16260230976E+02  0.77861234914E+02 -0.85654410913E+02  0.20220891455E+03  0.16500000000E+03 0.  0.
   -5000001    1    1    2    0    0  0.16260230976E+02 -0.77861234914E+02 -0.11745042619E+03  0.21759220948E+03  0.16500000000E+03 0.  0.
<mgrwt>
<rscale>  0 0.36739816E+03</rscale>
<asrwt>0</asrwt>
<pdfrwt beam="1">  1        2 0.47915843E-01 0.36739816E+03</pdfrwt>
<pdfrwt beam="2">  1       -2 0.16668945E-01 0.36739816E+03</pdfrwt>
<totfact> 0.30250104E+03</totfact>
</mgrwt>
</event>
<event>
 4    1  0.8404100E-005  0.4715286E+03  0.7818608E-02  0.1021490E+00
          2   -1    0    0  501    0  0.00000000000E+00  0.00000000000E+00  0.61655617128E+03  0.61655617128E+03  0.25500000000E-02 0.  1.
         -2   -1    0    0    0  501 -0.00000000000E+00 -0.00000000000E+00 -0.90153660466E+02  0.90153660502E+02  0.25500000000E-02 0. -1.
    5000001    1    1    2    0    0 -0.60623609625E+02 -0.14206654812E+03  0.36376002225E+03  0.42825749255E+03  0.16500000000E+03 0.  0.
   -5000001    1    1    2    0    0  0.60623609625E+02  0.14206654812E+03  0.16264248857E+03  0.27845233924E+03  0.16500000000E+03 0.  0.
<mgrwt>
<rscale>  0 0.47152856E+03</rscale>
<asrwt>0</asrwt>
<pdfrwt beam="1">  1        2 0.94854796E-01 0.47152856E+03</pdfrwt>
<pdfrwt beam="2">  1       -2 0.13869794E-01 0.47152856E+03</pdfrwt>
<totfact> 0.19143125E+03</totfact>
</mgrwt>
</event>
<event>
 4    1  0.8404100E-005  0.4546658E+03  0.7818608E-02  0.1026340E+00
         -2   -1    0    0    0  501 -0.00000000000E+00  0.00000000000E+00  0.38525952210E+02  0.38525952294E+02  0.25500000000E-02 0.  1.
          2   -1    0    0  501    0  0.00000000000E+00 -0.00000000000E+00 -0.13414398752E+04  0.13414398752E+04  0.25500000000E-02 0. -1.
    5000001    1    1    2    0    0  0.15401929484E+03 -0.17226961530E+02 -0.71487118337E+03  0.74985633304E+03  0.16500000000E+03 0.  0.
   -5000001    1    1    2    0    0 -0.15401929484E+03  0.17226961530E+02 -0.58804273967E+03  0.63010949450E+03  0.16500000000E+03 0.  0.
<mgrwt>
<rscale>  0 0.45466581E+03</rscale>
<asrwt>0</asrwt>
<pdfrwt beam="1">  1        2 0.20637533E+00 0.45466581E+03</pdfrwt>
<pdfrwt beam="2">  1       -2 0.59270706E-02 0.45466581E+03</pdfrwt>
<totfact> 0.25077355E+03</totfact>
</mgrwt>
</event>
<event>
 4    1  0.8404100E-005  0.5215618E+03  0.7818608E-02  0.1008299E+00
         -2   -1    0    0    0  501 -0.00000000000E+00  0.00000000000E+00  0.26672154918E+02  0.26672155039E+02  0.25500000000E-02 0. -1.
          2   -1    0    0  501    0  0.00000000000E+00 -0.00000000000E+00 -0.25497258552E+04  0.25497258552E+04  0.25500000000E-02 0.  1.
    5000001    1    1    2    0    0  0.40349039708E+02  0.15591702165E+03 -0.65969437179E+03  0.69882746570E+03  0.16500000000E+03 0.  0.
   -5000001    1    1    2    0    0 -0.40349039708E+02 -0.15591702165E+03 -0.18633593285E+04  0.18775705446E+04  0.16500000000E+03 0.  0.
<mgrwt>
<rscale>  0 0.52156182E+03</rscale>
<asrwt>0</asrwt>
<pdfrwt beam="1">  1        2 0.39226532E+00 0.52156182E+03</pdfrwt>
<pdfrwt beam="2">  1       -2 0.41034105E-02 0.52156182E+03</pdfrwt>
<totfact> 0.96679611E+02</totfact>
</mgrwt>
</event>
<event>
 4    1  0.8404100E-005  0.4500910E+03  0.7818608E-02  0.1027695E+00
         -2   -1    0    0    0  501 -0.00000000000E+00  0.00000000000E+00  0.34945631513E+02  0.34945631606E+02  0.25500000000E-02 0. -1.
          2   -1    0    0  501    0  0.00000000000E+00 -0.00000000000E+00 -0.14492647753E+04  0.14492647753E+04  0.25500000000E-02 0.  1.
    5000001    1    1    2    0    0 -0.12507930550E+03  0.33943419825E+02 -0.97553232561E+03  0.99784032125E+03  0.16500000000E+03 0.  0.
   -5000001    1    1    2    0    0  0.12507930550E+03 -0.33943419825E+02 -0.43878681818E+03  0.48637008566E+03  0.16500000000E+03 0.  0.
<mgrwt>
<rscale>  0 0.45009098E+03</rscale>
<asrwt>0</asrwt>
<pdfrwt beam="1">  1        2 0.22296377E+00 0.45009098E+03</pdfrwt>
<pdfrwt beam="2">  1       -2 0.53762521E-02 0.45009098E+03</pdfrwt>
<totfact> 0.25417344E+03</totfact>
</mgrwt>
</event>
<event>
 4    1  0.8404100E-005  0.5262710E+03  0.7818608E-02  0.1007141E+00
         -2   -1    0    0    0  501 -0.00000000000E+00  0.00000000000E+00  0.29867166514E+02  0.29867166623E+02  0.25500000000E-02 0. -1.
          2   -1    0    0  501    0  0.00000000000E+00 -0.00000000000E+00 -0.23182742504E+04  0.23182742504E+04  0.25500000000E-02 0.  1.
    5000001    1    1    2    0    0  0.81792566767E+02 -0.17401937999E+03 -0.14610423842E+04  0.14828494923E+04  0.16500000000E+03 0.  0.
   -5000001    1    1    2    0    0 -0.81792566767E+02  0.17401937999E+03 -0.82736469971E+03  0.86529192468E+03  0.16500000000E+03 0.  0.
<mgrwt>
<rscale>  0 0.52627097E+03</rscale>
<asrwt>0</asrwt>
<pdfrwt beam="1">  1        2 0.35665744E+00 0.52627097E+03</pdfrwt>
<pdfrwt beam="2">  1       -2 0.45949505E-02 0.52627097E+03</pdfrwt>
<totfact> 0.10926143E+03</totfact>
</mgrwt>
</event>
<event>
 4    1  0.8404100E-005  0.6016493E+03  0.7818608E-02  0.9901990E-01
          2   -1    0    0  501    0  0.00000000000E+00  0.00000000000E+00  0.11235104826E+04  0.11235104826E+04  0.25500000000E-02 0.  1.
         -2   -1    0    0    0  501 -0.00000000000E+00 -0.00000000000E+00 -0.80547073008E+02  0.80547073049E+02  0.25500000000E-02 0. -1.
    5000001    1    1    2    0    0  0.22668180135E+02 -0.23784530826E+03  0.36407714006E+03  0.46568379934E+03  0.16500000000E+03 0.  0.
   -5000001    1    1    2    0    0 -0.22668180135E+02  0.23784530826E+03  0.67888626954E+03  0.73837375632E+03  0.16500000000E+03 0.  0.
<mgrwt>
<rscale>  0 0.60164934E+03</rscale>
<asrwt>0</asrwt>
<pdfrwt beam="1">  1        2 0.17284776E+00 0.60164934E+03</pdfrwt>
<pdfrwt beam="2">  1       -2 0.12391858E-01 0.60164934E+03</pdfrwt>
<totfact> 0.10272159E+03</totfact>
</mgrwt>
</event>
<event>
 4    1  0.8404100E-005  0.4770275E+03  0.7818608E-02  0.1019955E+00
          2   -1    0    0  501    0  0.00000000000E+00  0.00000000000E+00  0.30124656729E+04  0.30124656729E+04  0.25500000000E-02 0.  1.
         -2   -1    0    0    0  501 -0.00000000000E+00 -0.00000000000E+00 -0.18884465072E+02  0.18884465244E+02  0.25500000000E-02 0. -1.
    5000001    1    1    2    0    0  0.48224907416E+02 -0.16401939345E+03  0.13641317375E+04  0.13846690580E+04  0.16500000000E+03 0.  0.
   -5000001    1    1    2    0    0 -0.48224907416E+02  0.16401939345E+03  0.16294494704E+04  0.16466810801E+04  0.16500000000E+03 0.  0.
<mgrwt>
<rscale>  0 0.47702748E+03</rscale>
<asrwt>0</asrwt>
<pdfrwt beam="1">  1        2 0.46345578E+00 0.47702748E+03</pdfrwt>
<pdfrwt beam="2">  1       -2 0.29053053E-02 0.47702748E+03</pdfrwt>
<totfact> 0.88249146E+02</totfact>
</mgrwt>
</event>
<event>
 4    1  0.8404100E-005  0.7157289E+03  0.7818608E-02  0.9690705E-01
         -2   -1    0    0    0  501 -0.00000000000E+00  0.00000000000E+00  0.11520153775E+03  0.11520153778E+03  0.25500000000E-02 0. -1.
          2   -1    0    0  501    0  0.00000000000E+00 -0.00000000000E+00 -0.11116775829E+04  0.11116775829E+04  0.25500000000E-02 0.  1.
    5000001    1    1    2    0    0 -0.13481874310E+03  0.28716911121E+03 -0.52246637726E+03  0.63311792527E+03  0.16500000000E+03 0.  0.
   -5000001    1    1    2    0    0  0.13481874310E+03 -0.28716911121E+03 -0.47400966789E+03  0.59376119541E+03  0.16500000000E+03 0.  0.
<mgrwt>
<rscale>  0 0.71572891E+03</rscale>
<asrwt>0</asrwt>
<pdfrwt beam="1">  1        2 0.17102731E+00 0.71572891E+03</pdfrwt>
<pdfrwt beam="2">  1       -2 0.17723314E-01 0.71572891E+03</pdfrwt>
<totfact> 0.56880830E+02</totfact>
</mgrwt>
</event>
<event>
 4    1  0.8404100E-005  0.4238067E+03  0.7818608E-02  0.1035834E+00
          2   -1    0    0  501    0  0.00000000000E+00  0.00000000000E+00  0.40144810865E+03  0.40144810865E+03  0.25500000000E-02 0.  1.
         -2   -1    0    0    0  501 -0.00000000000E+00 -0.00000000000E+00 -0.11185266299E+03  0.11185266302E+03  0.25500000000E-02 0. -1.
    5000001    1    1    2    0    0  0.15030021321E+02 -0.13151022110E+03  0.12961216936E+03  0.24808295839E+03  0.16500000000E+03 0.  0.
   -5000001    1    1    2    0    0 -0.15030021321E+02  0.13151022110E+03  0.15998327629E+03  0.26521781329E+03  0.16500000000E+03 0.  0.
<mgrwt>
<rscale>  0 0.42380675E+03</rscale>
<asrwt>0</asrwt>
<pdfrwt beam="1">  1        2 0.61761248E-01 0.42380675E+03</pdfrwt>
<pdfrwt beam="2">  1       -2 0.17208102E-01 0.42380675E+03</pdfrwt>
<totfact> 0.21754313E+03</totfact>
</mgrwt>
</event>
<event>
 4    1  0.8404100E-005  0.4796933E+03  0.7818608E-02  0.1019219E+00
         -2   -1    0    0    0  501 -0.00000000000E+00  0.00000000000E+00  0.12807590005E+03  0.12807590008E+03  0.25500000000E-02 0.  1.
          2   -1    0    0  501    0  0.00000000000E+00 -0.00000000000E+00 -0.44915876829E+03  0.44915876829E+03  0.25500000000E-02 0. -1.
    5000001    1    1    2    0    0 -0.22683066020E+02 -0.11586235356E+03 -0.66134199945E+01  0.20299592060E+03  0.16500000000E+03 0.  0.
   -5000001    1    1    2    0    0  0.22683066020E+02  0.11586235356E+03 -0.31446944824E+03  0.37423874777E+03  0.16500000000E+03 0.  0.
<mgrwt>
<rscale>  0 0.47969329E+03</rscale>
<asrwt>0</asrwt>
<pdfrwt beam="1">  1        2 0.69101348E-01 0.47969329E+03</pdfrwt>
<pdfrwt beam="2">  1       -2 0.19703985E-01 0.47969329E+03</pdfrwt>
<totfact> 0.15232156E+03</totfact>
</mgrwt>
</event>
<event>
 4    1  0.8404100E-005  0.6864734E+03  0.7818608E-02  0.9740648E-01
          2   -1    0    0  501    0  0.00000000000E+00  0.00000000000E+00  0.16063829400E+04  0.16063829400E+04  0.25500000000E-02 0.  1.
         -2   -1    0    0    0  501 -0.00000000000E+00 -0.00000000000E+00 -0.73339571780E+02  0.73339571824E+02  0.25500000000E-02 0. -1.
    5000001    1    1    2    0    0  0.15000031449E+03  0.16122466989E+03  0.26450460309E+03  0.38168203204E+03  0.16500000000E+03 0.  0.
   -5000001    1    1    2    0    0 -0.15000031449E+03 -0.16122466989E+03  0.12685387651E+04  0.12980404798E+04  0.16500000000E+03 0.  0.
<mgrwt>
<rscale>  0 0.68647341E+03</rscale>
<asrwt>0</asrwt>
<pdfrwt beam="1">  1        2 0.24713584E+00 0.68647341E+03</pdfrwt>
<pdfrwt beam="2">  1       -2 0.11283011E-01 0.68647341E+03</pdfrwt>
<totfact> 0.63429330E+02</totfact>
</mgrwt>
</event>
<event>
 4    1  0.8404100E-005  0.4481713E+03  0.7818608E-02  0.1028269E+00
          2   -1    0    0  501    0  0.00000000000E+00  0.00000000000E+00  0.20975509769E+03  0.20975509771E+03  0.25500000000E-02 0.  1.
         -2   -1    0    0    0  501 -0.00000000000E+00 -0.00000000000E+00 -0.23939523824E+03  0.23939523825E+03  0.25500000000E-02 0. -1.
    5000001    1    1    2    0    0  0.12446160464E+03  0.52574802568E+02  0.54138463706E+02  0.22002448533E+03  0.16500000000E+03 0.  0.
   -5000001    1    1    2    0    0 -0.12446160464E+03 -0.52574802568E+02 -0.83778604251E+02  0.22912585062E+03  0.16500000000E+03 0.  0.
<mgrwt>
<rscale>  0 0.44817127E+03</rscale>
<asrwt>0</asrwt>
<pdfrwt beam="1">  1        2 0.32270015E-01 0.44817127E+03</pdfrwt>
<pdfrwt beam="2">  1       -2 0.36830037E-01 0.44817127E+03</pdfrwt>
<totfact> 0.11367731E+03</totfact>
</mgrwt>
</event>
<event>
 4    1  0.8404100E-005  0.8296486E+03  0.7818608E-02  0.9518066E-01
         -2   -1    0    0    0  501 -0.00000000000E+00  0.00000000000E+00  0.70047594128E+02  0.70047594175E+02  0.25500000000E-02 0. -1.
          2   -1    0    0  501    0  0.00000000000E+00 -0.00000000000E+00 -0.24566042654E+04  0.24566042654E+04  0.25500000000E-02 0.  1.
    5000001    1    1    2    0    0 -0.37536975033E+03  0.52586174635E+02 -0.10883776417E+04  0.11642416614E+04  0.16500000000E+03 0.  0.
   -5000001    1    1    2    0    0  0.37536975033E+03 -0.52586174635E+02 -0.12981790295E+04  0.13624101981E+04  0.16500000000E+03 0.  0.
<mgrwt>
<rscale>  0 0.82964865E+03</rscale>
<asrwt>0</asrwt>
<pdfrwt beam="1">  1        2 0.37793905E+00 0.82964865E+03</pdfrwt>
<pdfrwt beam="2">  1       -2 0.10776555E-01 0.82964865E+03</pdfrwt>
<totfact> 0.23053206E+02</totfact>
</mgrwt>
</event>
<event>
 4    1  0.8404100E-005  0.7389372E+03  0.7818608E-02  0.9652868E-01
         -2   -1    0    0    0  501 -0.00000000000E+00  0.00000000000E+00  0.19388295734E+03  0.19388295736E+03  0.25500000000E-02 0. -1.
          2   -1    0    0  501    0  0.00000000000E+00 -0.00000000000E+00 -0.70406939324E+03  0.70406939325E+03  0.25500000000E-02 0.  1.
    5000001    1    1    2    0    0  0.25783470394E+03 -0.19516968422E+03 -0.17167637871E+03  0.40158152248E+03  0.16500000000E+03 0.  0.
   -5000001    1    1    2    0    0 -0.25783470394E+03  0.19516968422E+03 -0.33851005719E+03  0.49637082812E+03  0.16500000000E+03 0.  0.
<mgrwt>
<rscale>  0 0.73893723E+03</rscale>
<asrwt>0</asrwt>
<pdfrwt beam="1">  1        2 0.10831837E+00 0.73893723E+03</pdfrwt>
<pdfrwt beam="2">  1       -2 0.29828148E-01 0.73893723E+03</pdfrwt>
<totfact> 0.42390247E+02</totfact>
</mgrwt>
</event>
<event>
 4    1  0.8404100E-005  0.6090199E+03  0.7818608E-02  0.9886867E-01
         -2   -1    0    0    0  501 -0.00000000000E+00  0.00000000000E+00  0.34107727506E+03  0.34107727507E+03  0.25500000000E-02 0. -1.
          2   -1    0    0  501    0  0.00000000000E+00 -0.00000000000E+00 -0.27186301349E+03  0.27186301350E+03  0.25500000000E-02 0.  1.
    5000001    1    1    2    0    0 -0.25144817750E+03 -0.40976299071E+02  0.59178484193E+02  0.30924478337E+03  0.16500000000E+03 0.  0.
   -5000001    1    1    2    0    0  0.25144817750E+03  0.40976299071E+02  0.10035777374E+02  0.30369550520E+03  0.16500000000E+03 0.  0.
<mgrwt>
<rscale>  0 0.60901985E+03</rscale>
<asrwt>0</asrwt>
<pdfrwt beam="1">  1        2 0.41825079E-01 0.60901985E+03</pdfrwt>
<pdfrwt beam="2">  1       -2 0.52473427E-01 0.60901985E+03</pdfrwt>
<totfact> 0.42384807E+02</totfact>
</mgrwt>
</event>
<event>
 4    1  0.8404100E-005  0.4041224E+03  0.7818608E-02  0.1042362E+00
         -2   -1    0    0    0  501 -0.00000000000E+00  0.00000000000E+00  0.23878832649E+02  0.23878832785E+02  0.25500000000E-02 0.  1.
          2   -1    0    0  501    0  0.00000000000E+00 -0.00000000000E+00 -0.17098293530E+04  0.17098293530E+04  0.25500000000E-02 0. -1.
    5000001    1    1    2    0    0 -0.64903426306E+01 -0.68228382581E+02 -0.43810449061E+03  0.47313611300E+03  0.16500000000E+03 0.  0.
   -5000001    1    1    2    0    0  0.64903426306E+01  0.68228382581E+02 -0.12478460297E+04  0.12605720728E+04  0.16500000000E+03 0.  0.
<mgrwt>
<rscale>  0 0.40412240E+03</rscale>
<asrwt>0</asrwt>
<pdfrwt beam="1">  1        2 0.26305057E+00 0.40412240E+03</pdfrwt>
<pdfrwt beam="2">  1       -2 0.36736679E-02 0.40412240E+03</pdfrwt>
<totfact> 0.32936290E+03</totfact>
</mgrwt>
</event>
<event>
 4    1  0.8404100E-005  0.4702940E+03  0.7818608E-02  0.1021837E+00
         -2   -1    0    0    0  501 -0.00000000000E+00  0.00000000000E+00  0.27147823574E+02  0.27147823694E+02  0.25500000000E-02 0.  1.
          2   -1    0    0  501    0  0.00000000000E+00 -0.00000000000E+00 -0.20367784973E+04  0.20367784973E+04  0.25500000000E-02 0. -1.
    5000001    1    1    2    0    0  0.15669820795E+03  0.59136083513E+02 -0.10232780391E+04  0.10499401650E+04  0.16500000000E+03 0.  0.
   -5000001    1    1    2    0    0 -0.15669820795E+03 -0.59136083513E+02 -0.98635263469E+03  0.10139861561E+04  0.16500000000E+03 0.  0.
<mgrwt>
<rscale>  0 0.47029397E+03</rscale>
<asrwt>0</asrwt>
<pdfrwt beam="1">  1        2 0.31335042E+00 0.47029397E+03</pdfrwt>
<pdfrwt beam="2">  1       -2 0.41765899E-02 0.47029397E+03</pdfrwt>
<totfact> 0.18059052E+03</totfact>
</mgrwt>
</event>
<event>
 4    1  0.8404100E-005  0.5644196E+03  0.7818608E-02  0.9982104E-01
         -2   -1    0    0    0  501 -0.00000000000E+00  0.00000000000E+00  0.40048124839E+02  0.40048124920E+02  0.25500000000E-02 0. -1.
          2   -1    0    0  501    0  0.00000000000E+00 -0.00000000000E+00 -0.19886669123E+04  0.19886669123E+04  0.25500000000E-02 0.  1.
    5000001    1    1    2    0    0  0.17241329609E+03  0.47325912655E+02 -0.46029020333E+03  0.52063245957E+03  0.16500000000E+03 0.  0.
   -5000001    1    1    2    0    0 -0.17241329609E+03 -0.47325912655E+02 -0.14883285841E+04  0.15080825777E+04  0.16500000000E+03 0.  0.
<mgrwt>
<rscale>  0 0.56441963E+03</rscale>
<asrwt>0</asrwt>
<pdfrwt beam="1">  1        2 0.30594868E+00 0.56441963E+03</pdfrwt>
<pdfrwt beam="2">  1       -2 0.61612515E-02 0.56441963E+03</pdfrwt>
<totfact> 0.10443083E+03</totfact>
</mgrwt>
</event>
<event>
 4    1  0.8404100E-005  0.7457547E+03  0.7818608E-02  0.9642034E-01
          2   -1    0    0  501    0  0.00000000000E+00  0.00000000000E+00  0.16336846331E+03  0.16336846333E+03  0.25500000000E-02 0.  1.
         -2   -1    0    0    0  501 -0.00000000000E+00 -0.00000000000E+00 -0.85106713217E+03  0.85106713217E+03  0.25500000000E-02 0. -1.
    5000001    1    1    2    0    0  0.31071530063E+03 -0.67031099957E+02 -0.20264617285E+03  0.41149439580E+03  0.16500000000E+03 0.  0.
   -5000001    1    1    2    0    0 -0.31071530063E+03  0.67031099957E+02 -0.48505249601E+03  0.60294119969E+03  0.16500000000E+03 0.  0.
<mgrwt>
<rscale>  0 0.74575473E+03</rscale>
<asrwt>0</asrwt>
<pdfrwt beam="1">  1        2 0.25133610E-01 0.74575473E+03</pdfrwt>
<pdfrwt beam="2">  1       -2 0.13093340E+00 0.74575473E+03</pdfrwt>
<totfact> 0.93809122E+01</totfact>
</mgrwt>
</event>
<event>
 4    1  0.8404100E-005  0.4415310E+03  0.7818608E-02  0.1030278E+00
         -2   -1    0    0    0  501 -0.00000000000E+00  0.00000000000E+00  0.45945360915E+02  0.45945360985E+02  0.25500000000E-02 0. -1.
          2   -1    0    0  501    0  0.00000000000E+00 -0.00000000000E+00 -0.10607688903E+04  0.10607688903E+04  0.25500000000E-02 0.  1.
    5000001    1    1    2    0    0  0.82519738648E+00  0.12706038509E+03 -0.69104688616E+03  0.72174498355E+03  0.16500000000E+03 0.  0.
   -5000001    1    1    2    0    0 -0.82519738648E+00 -0.12706038509E+03 -0.32377664327E+03  0.38496926778E+03  0.16500000000E+03 0.  0.
<mgrwt>
<rscale>  0 0.44153102E+03</rscale>
<asrwt>0</asrwt>
<pdfrwt beam="1">  1        2 0.16319520E+00 0.44153102E+03</pdfrwt>
<pdfrwt beam="2">  1       -2 0.70685179E-02 0.44153102E+03</pdfrwt>
<totfact> 0.27740114E+03</totfact>
</mgrwt>
</event>
<event>
 4    1  0.8404100E-005  0.6804568E+03  0.7818608E-02  0.9751250E-01
          2   -1    0    0  501    0  0.00000000000E+00  0.00000000000E+00  0.17555127592E+04  0.17555127592E+04  0.25500000000E-02 0.  1.
         -2   -1    0    0    0  501 -0.00000000000E+00 -0.00000000000E+00 -0.65938198400E+02  0.65938198449E+02  0.25500000000E-02 0. -1.
    5000001    1    1    2    0    0  0.27711559954E+03 -0.89972701113E+01  0.11337874508E+04  0.11788015058E+04  0.16500000000E+03 0.  0.
   -5000001    1    1    2    0    0 -0.27711559954E+03  0.89972701113E+01  0.55578710998E+03  0.64264945187E+03  0.16500000000E+03 0.  0.
<mgrwt>
<rscale>  0 0.68045675E+03</rscale>
<asrwt>0</asrwt>
<pdfrwt beam="1">  1        2 0.27007884E+00 0.68045675E+03</pdfrwt>
<pdfrwt beam="2">  1       -2 0.10144340E-01 0.68045675E+03</pdfrwt>
<totfact> 0.62589435E+02</totfact>
</mgrwt>
</event>
<event>
 4    1  0.8404100E-005  0.4349587E+03  0.7818608E-02  0.1032305E+00
          2   -1    0    0  501    0  0.00000000000E+00  0.00000000000E+00  0.27141040323E+04  0.27141040323E+04  0.25500000000E-02 0.  1.
         -2   -1    0    0    0  501 -0.00000000000E+00 -0.00000000000E+00 -0.17426472582E+02  0.17426472769E+02  0.25500000000E-02 0. -1.
    5000001    1    1    2    0    0 -0.77479783963E+02  0.18913987884E+01  0.20931336338E+04  0.21010569015E+04  0.16500000000E+03 0.  0.
   -5000001    1    1    2    0    0  0.77479783963E+02 -0.18913987884E+01  0.60354392593E+03  0.63047360360E+03  0.16500000000E+03 0.  0.
<mgrwt>
<rscale>  0 0.43495866E+03</rscale>
<asrwt>0</asrwt>
<pdfrwt beam="1">  1        2 0.41755422E+00 0.43495866E+03</pdfrwt>
<pdfrwt beam="2">  1       -2 0.26809974E-02 0.43495866E+03</pdfrwt>
<totfact> 0.14990575E+03</totfact>
</mgrwt>
</event>
<event>
 4    1  0.8404100E-005  0.4204422E+03  0.7818608E-02  0.1036922E+00
         -2   -1    0    0    0  501 -0.00000000000E+00  0.00000000000E+00  0.50839740382E+02  0.50839740446E+02  0.25500000000E-02 0. -1.
          2   -1    0    0  501    0  0.00000000000E+00 -0.00000000000E+00 -0.86925912343E+03  0.86925912344E+03  0.25500000000E-02 0.  1.
    5000001    1    1    2    0    0  0.36536641041E+01  0.13005826079E+03 -0.42294754641E+03  0.47226912611E+03  0.16500000000E+03 0.  0.
   -5000001    1    1    2    0    0 -0.36536641041E+01 -0.13005826079E+03 -0.39547183664E+03  0.44782973778E+03  0.16500000000E+03 0.  0.
<mgrwt>
<rscale>  0 0.42044219E+03</rscale>
<asrwt>0</asrwt>
<pdfrwt beam="1">  1        2 0.13373216E+00 0.42044219E+03</pdfrwt>
<pdfrwt beam="2">  1       -2 0.78214992E-02 0.42044219E+03</pdfrwt>
<totfact> 0.31320630E+03</totfact>
</mgrwt>
</event>
<event>
 4    1  0.8404100E-005  0.9949483E+03  0.7818608E-02  0.9314103E-01
          2   -1    0    0  501    0  0.00000000000E+00  0.00000000000E+00  0.68060984123E+03  0.68060984123E+03  0.25500000000E-02 0.  1.
         -2   -1    0    0    0  501 -0.00000000000E+00 -0.00000000000E+00 -0.36361584075E+03  0.36361584076E+03  0.25500000000E-02 0. -1.
    5000001    1    1    2    0    0 -0.11428428585E+03  0.42903062376E+03 -0.11117729145E+01  0.47366064873E+03  0.16500000000E+03 0.  0.
   -5000001    1    1    2    0    0  0.11428428585E+03 -0.42903062376E+03  0.31810577340E+03  0.57056503326E+03  0.16500000000E+03 0.  0.
<mgrwt>
<rscale>  0 0.99494828E+03</rscale>
<asrwt>0</asrwt>
<pdfrwt beam="1">  1        2 0.10470921E+00 0.99494828E+03</pdfrwt>
<pdfrwt beam="2">  1       -2 0.55940899E-01 0.99494828E+03</pdfrwt>
<totfact> 0.12727745E+02</totfact>
</mgrwt>
</event>
<event>
 4    1  0.8404100E-005  0.7199258E+03  0.7818608E-02  0.9683750E-01
         -2   -1    0    0    0  501 -0.00000000000E+00  0.00000000000E+00  0.36159357410E+03  0.36159357410E+03  0.25500000000E-02 0.  1.
          2   -1    0    0  501    0  0.00000000000E+00 -0.00000000000E+00 -0.35833958745E+03  0.35833958746E+03  0.25500000000E-02 0. -1.
    5000001    1    1    2    0    0 -0.25811838239E+03  0.16802052980E+03 -0.84931931527E+02  0.35957534782E+03  0.16500000000E+03 0.  0.
   -5000001    1    1    2    0    0  0.25811838239E+03 -0.16802052980E+03  0.88185918171E+02  0.36035781375E+03  0.16500000000E+03 0.  0.
<mgrwt>
<rscale>  0 0.71992581E+03</rscale>
<asrwt>0</asrwt>
<pdfrwt beam="1">  1        2 0.55129167E-01 0.71992581E+03</pdfrwt>
<pdfrwt beam="2">  1       -2 0.55629781E-01 0.71992581E+03</pdfrwt>
<totfact> 0.27579366E+02</totfact>
</mgrwt>
</event>
<event>
 4    1  0.8404100E-005  0.4816675E+03  0.7818608E-02  0.1018678E+00
         -2   -1    0    0    0  501 -0.00000000000E+00  0.00000000000E+00  0.49130818167E+03  0.49130818167E+03  0.25500000000E-02 0. -1.
          2   -1    0    0  501    0  0.00000000000E+00 -0.00000000000E+00 -0.11805401764E+03  0.11805401767E+03  0.25500000000E-02 0.  1.
    5000001    1    1    2    0    0  0.94639880618E+02  0.14454153516E+03  0.22514426323E+03  0.32827412578E+03  0.16500000000E+03 0.  0.
   -5000001    1    1    2    0    0 -0.94639880618E+02 -0.14454153516E+03  0.14810990079E+03  0.28108807357E+03  0.16500000000E+03 0.  0.
<mgrwt>
<rscale>  0 0.48166754E+03</rscale>
<asrwt>0</asrwt>
<pdfrwt beam="1">  1        2 0.18162157E-01 0.48166754E+03</pdfrwt>
<pdfrwt beam="2">  1       -2 0.75585872E-01 0.48166754E+03</pdfrwt>
<totfact> 0.50409862E+02</totfact>
</mgrwt>
</event>
<event>
 4    1  0.8404100E-005  0.4154816E+03  0.7818608E-02  0.1038547E+00
          2   -1    0    0  501    0  0.00000000000E+00  0.00000000000E+00  0.78240201566E+03  0.78240201566E+03  0.25500000000E-02 0.  1.
         -2   -1    0    0    0  501 -0.00000000000E+00 -0.00000000000E+00 -0.55158639176E+02  0.55158639235E+02  0.25500000000E-02 0. -1.
    5000001    1    1    2    0    0  0.35648674691E+02 -0.11824306013E+03  0.31109338146E+03  0.37317065970E+03  0.16500000000E+03 0.  0.
   -5000001    1    1    2    0    0 -0.35648674691E+02  0.11824306013E+03  0.41614999502E+03  0.46438999519E+03  0.16500000000E+03 0.  0.
<mgrwt>
<rscale>  0 0.41548155E+03</rscale>
<asrwt>0</asrwt>
<pdfrwt beam="1">  1        2 0.12036954E+00 0.41548155E+03</pdfrwt>
<pdfrwt beam="2">  1       -2 0.84859444E-02 0.41548155E+03</pdfrwt>
<totfact> 0.31606647E+03</totfact>
</mgrwt>
</event>
<event>
 4    1  0.8404100E-005  0.3622262E+03  0.7818608E-02  0.1057706E+00
          2   -1    0    0  501    0  0.00000000000E+00  0.00000000000E+00  0.22979771363E+04  0.22979771363E+04  0.25500000000E-02 0.  1.
         -2   -1    0    0    0  501 -0.00000000000E+00 -0.00000000000E+00 -0.14274274321E+02  0.14274274548E+02  0.25500000000E-02 0. -1.
    5000001    1    1    2    0    0  0.53566324780E+02 -0.51308146335E+02  0.10865399639E+04  0.11014971494E+04  0.16500000000E+03 0.  0.
   -5000001    1    1    2    0    0 -0.53566324780E+02  0.51308146335E+02  0.11971628981E+04  0.12107542615E+04  0.16500000000E+03 0.  0.
<mgrwt>
<rscale>  0 0.36222621E+03</rscale>
<asrwt>0</asrwt>
<pdfrwt beam="1">  1        2 0.35353499E+00 0.36222621E+03</pdfrwt>
<pdfrwt beam="2">  1       -2 0.21960419E-02 0.36222621E+03</pdfrwt>
<totfact> 0.34609460E+03</totfact>
</mgrwt>
</event>
<event>
 4    1  0.8404100E-005  0.4012316E+03  0.7818608E-02  0.1043354E+00
          2   -1    0    0  501    0  0.00000000000E+00  0.00000000000E+00  0.50541952854E+04  0.50541952854E+04  0.25500000000E-02 0.  1.
         -2   -1    0    0    0  501 -0.00000000000E+00 -0.00000000000E+00 -0.79630279421E+01  0.79630283504E+01  0.25500000000E-02 0. -1.
    5000001    1    1    2    0    0 -0.77337999549E+02  0.60226403205E+02  0.17860122744E+04  0.17962943050E+04  0.16500000000E+03 0.  0.
   -5000001    1    1    2    0    0  0.77337999549E+02 -0.60226403205E+02  0.32602199830E+04  0.32658640087E+04  0.16500000000E+03 0.  0.
<mgrwt>
<rscale>  0 0.40123160E+03</rscale>
<asrwt>0</asrwt>
<pdfrwt beam="1">  1        2 0.77756784E+00 0.40123160E+03</pdfrwt>
<pdfrwt beam="2">  1       -2 0.12250823E-02 0.40123160E+03</pdfrwt>
<totfact> 0.65443967E+01</totfact>
</mgrwt>
</event>
<event>
 4    1  0.8404100E-005  0.1156309E+04  0.7818608E-02  0.9151983E-01
          2   -1    0    0  501    0  0.00000000000E+00  0.00000000000E+00  0.31258145578E+04  0.31258145578E+04  0.25500000000E-02 0. -1.
         -2   -1    0    0    0  501 -0.00000000000E+00 -0.00000000000E+00 -0.10693607873E+03  0.10693607876E+03  0.25500000000E-02 0.  1.
    5000001    1    1    2    0    0 -0.11710705562E+03 -0.33008188668E+03  0.30899302173E+03  0.49534816228E+03  0.16500000000E+03 0.  0.
   -5000001    1    1    2    0    0  0.11710705562E+03  0.33008188668E+03  0.27098854574E+04  0.27374024743E+04  0.16500000000E+03 0.  0.
<mgrwt>
<rscale>  0 0.11563085E+04</rscale>
<asrwt>0</asrwt>
<pdfrwt beam="1">  1        2 0.48089452E+00 0.11563085E+04</pdfrwt>
<pdfrwt beam="2">  1       -2 0.16451705E-01 0.11563085E+04</pdfrwt>
<totfact> 0.43824580E+01</totfact>
</mgrwt>
</event>
<event>
 4    1  0.8404100E-005  0.5611026E+03  0.7818608E-02  0.9989563E-01
         -2   -1    0    0    0  501 -0.00000000000E+00  0.00000000000E+00  0.42060656483E+02  0.42060656561E+02  0.25500000000E-02 0.  1.
          2   -1    0    0  501    0  0.00000000000E+00 -0.00000000000E+00 -0.18713217254E+04  0.18713217254E+04  0.25500000000E-02 0. -1.
    5000001    1    1    2    0    0 -0.13255879314E+03  0.15817686955E+03 -0.12361932675E+04  0.12641165098E+04  0.16500000000E+03 0.  0.
   -5000001    1    1    2    0    0  0.13255879314E+03 -0.15817686955E+03 -0.59306780140E+03  0.64926587216E+03  0.16500000000E+03 0.  0.
<mgrwt>
<rscale>  0 0.56110256E+03</rscale>
<asrwt>0</asrwt>
<pdfrwt beam="1">  1        2 0.28789559E+00 0.56110256E+03</pdfrwt>
<pdfrwt beam="2">  1       -2 0.64708717E-02 0.56110256E+03</pdfrwt>
<totfact> 0.11190664E+03</totfact>
</mgrwt>
</event>
<event>
 4    1  0.8404100E-005  0.3614030E+03  0.7818608E-02  0.1058030E+00
          2   -1    0    0  501    0  0.00000000000E+00  0.00000000000E+00  0.30582239453E+03  0.30582239455E+03  0.25500000000E-02 0.  1.
         -2   -1    0    0    0  501 -0.00000000000E+00 -0.00000000000E+00 -0.10677122979E+03  0.10677122982E+03  0.25500000000E-02 0. -1.
    5000001    1    1    2    0    0 -0.44513804740E+02  0.35551382797E+02  0.15286191547E+03  0.23202832765E+03  0.16500000000E+03 0.  0.
   -5000001    1    1    2    0    0  0.44513804740E+02 -0.35551382797E+02  0.46189249270E+02  0.18056529672E+03  0.16500000000E+03 0.  0.
<mgrwt>
<rscale>  0 0.36140301E+03</rscale>
<asrwt>0</asrwt>
<pdfrwt beam="1">  1        2 0.47049599E-01 0.36140301E+03</pdfrwt>
<pdfrwt beam="2">  1       -2 0.16426343E-01 0.36140301E+03</pdfrwt>
<totfact> 0.31616753E+03</totfact>
</mgrwt>
</event>
<event>
 4    1  0.8404100E-005  0.4096092E+03  0.7818608E-02  0.1040502E+00
          2   -1    0    0  501    0  0.00000000000E+00  0.00000000000E+00  0.17184714200E+04  0.17184714200E+04  0.25500000000E-02 0.  1.
         -2   -1    0    0    0  501 -0.00000000000E+00 -0.00000000000E+00 -0.24408280927E+02  0.24408281061E+02  0.25500000000E-02 0. -1.
    5000001    1    1    2    0    0  0.85787591239E+02 -0.21405534174E+02  0.49352927499E+03  0.52783885133E+03  0.16500000000E+03 0.  0.
   -5000001    1    1    2    0    0 -0.85787591239E+02  0.21405534174E+02  0.12005338641E+04  0.12150408498E+04  0.16500000000E+03 0.  0.
<mgrwt>
<rscale>  0 0.40960924E+03</rscale>
<asrwt>0</asrwt>
<pdfrwt beam="1">  1        2 0.26438028E+00 0.40960924E+03</pdfrwt>
<pdfrwt beam="2">  1       -2 0.37551193E-02 0.40960924E+03</pdfrwt>
<totfact> 0.31517128E+03</totfact>
</mgrwt>
</event>
<event>
 4    1  0.8404100E-005  0.8871044E+03  0.7818608E-02  0.9441847E-01
          2   -1    0    0  501    0  0.00000000000E+00  0.00000000000E+00  0.84967344395E+03  0.84967344395E+03  0.25500000000E-02 0.  1.
         -2   -1    0    0    0  501 -0.00000000000E+00 -0.00000000000E+00 -0.23154610401E+03  0.23154610402E+03  0.25500000000E-02 0. -1.
    5000001    1    1    2    0    0 -0.31410491191E+03  0.26614944508E+03  0.30416516631E+03  0.53780932606E+03  0.16500000000E+03 0.  0.
   -5000001    1    1    2    0    0  0.31410491191E+03 -0.26614944508E+03  0.31396217363E+03  0.54341022191E+03  0.16500000000E+03 0.  0.
<mgrwt>
<rscale>  0 0.88710445E+03</rscale>
<asrwt>0</asrwt>
<pdfrwt beam="1">  1        2 0.13071899E+00 0.88710445E+03</pdfrwt>
<pdfrwt beam="2">  1       -2 0.35622477E-01 0.88710445E+03</pdfrwt>
<totfact> 0.23570719E+02</totfact>
</mgrwt>
</event>
<event>
 4    1  0.8404100E-005  0.3837873E+03  0.7818608E-02  0.1049543E+00
          2   -1    0    0  501    0  0.00000000000E+00  0.00000000000E+00  0.61768320256E+03  0.61768320256E+03  0.25500000000E-02 0.  1.
         -2   -1    0    0    0  501 -0.00000000000E+00 -0.00000000000E+00 -0.59614995629E+02  0.59614995684E+02  0.25500000000E-02 0. -1.
    5000001    1    1    2    0    0 -0.57458492098E+02  0.66489041387E+02  0.20259856523E+03  0.27566909433E+03  0.16500000000E+03 0.  0.
   -5000001    1    1    2    0    0  0.57458492098E+02 -0.66489041387E+02  0.35546964170E+03  0.40162910391E+03  0.16500000000E+03 0.  0.
<mgrwt>
<rscale>  0 0.38378734E+03</rscale>
<asrwt>0</asrwt>
<pdfrwt beam="1">  1        2 0.95028179E-01 0.38378734E+03</pdfrwt>
<pdfrwt beam="2">  1       -2 0.91715384E-02 0.38378734E+03</pdfrwt>
<totfact> 0.37343010E+03</totfact>
</mgrwt>
</event>
<event>
 4    1  0.8404100E-005  0.1432689E+04  0.7818608E-02  0.8930491E-01
         -2   -1    0    0    0  501 -0.00000000000E+00  0.00000000000E+00  0.25037543518E+03  0.25037543519E+03  0.25500000000E-02 0. -1.
          2   -1    0    0  501    0  0.00000000000E+00 -0.00000000000E+00 -0.20495200626E+04  0.20495200626E+04  0.25500000000E-02 0.  1.
    5000001    1    1    2    0    0 -0.31505623093E+03 -0.61060827569E+03 -0.10882997536E+04  0.12975840044E+04  0.16500000000E+03 0.  0.
   -5000001    1    1    2    0    0  0.31505623093E+03  0.61060827569E+03 -0.71084487384E+03  0.10023114933E+04  0.16500000000E+03 0.  0.
<mgrwt>
<rscale>  0 0.14326890E+04</rscale>
<asrwt>0</asrwt>
<pdfrwt beam="1">  1        2 0.31531077E+00 0.14326890E+04</pdfrwt>
<pdfrwt beam="2">  1       -2 0.38519299E-01 0.14326890E+04</pdfrwt>
<totfact> 0.38788500E+01</totfact>
</mgrwt>
</event>
<event>
 4    1  0.8404100E-005  0.6201464E+03  0.7818608E-02  0.9864468E-01
         -2   -1    0    0    0  501 -0.00000000000E+00  0.00000000000E+00  0.13241795229E+03  0.13241795231E+03  0.25500000000E-02 0. -1.
          2   -1    0    0  501    0  0.00000000000E+00 -0.00000000000E+00 -0.72607513294E+03  0.72607513295E+03  0.25500000000E-02 0.  1.
    5000001    1    1    2    0    0 -0.19048940593E+03  0.17165480364E+03 -0.21890126051E+03  0.37535895785E+03  0.16500000000E+03 0.  0.
   -5000001    1    1    2    0    0  0.19048940593E+03 -0.17165480364E+03 -0.37475592014E+03  0.48313412741E+03  0.16500000000E+03 0.  0.
<mgrwt>
<rscale>  0 0.62014638E+03</rscale>
<asrwt>0</asrwt>
<pdfrwt beam="1">  1        2 0.11170386E+00 0.62014638E+03</pdfrwt>
<pdfrwt beam="2">  1       -2 0.20371993E-01 0.62014638E+03</pdfrwt>
<totfact> 0.81213835E+02</totfact>
</mgrwt>
</event>
<event>
 4    1  0.8404100E-005  0.3980456E+03  0.7818608E-02  0.1044459E+00
          2   -1    0    0  501    0  0.00000000000E+00  0.00000000000E+00  0.11958888013E+04  0.11958888013E+04  0.25500000000E-02 0.  1.
         -2   -1    0    0    0  501 -0.00000000000E+00 -0.00000000000E+00 -0.33121866433E+02  0.33121866531E+02  0.25500000000E-02 0. -1.
    5000001    1    1    2    0    0  0.10104881641E+03  0.45348594122E+02  0.54788451459E+03  0.58281197621E+03  0.16500000000E+03 0.  0.
   -5000001    1    1    2    0    0 -0.10104881641E+03 -0.45348594122E+02  0.61488242024E+03  0.64619869159E+03  0.16500000000E+03 0.  0.
<mgrwt>
<rscale>  0 0.39804557E+03</rscale>
<asrwt>0</asrwt>
<pdfrwt beam="1">  1        2 0.18398291E+00 0.39804557E+03</pdfrwt>
<pdfrwt beam="2">  1       -2 0.50956712E-02 0.39804557E+03</pdfrwt>
<totfact> 0.38341814E+03</totfact>
</mgrwt>
</event>
<event>
 4    1  0.8404100E-005  0.7281481E+03  0.7818608E-02  0.9670270E-01
         -2   -1    0    0    0  501 -0.00000000000E+00  0.00000000000E+00  0.50371544416E+02  0.50371544481E+02  0.25500000000E-02 0. -1.
          2   -1    0    0  501    0  0.00000000000E+00 -0.00000000000E+00 -0.26314441979E+04  0.26314441979E+04  0.25500000000E-02 0.  1.
    5000001    1    1    2    0    0 -0.18460325683E+03  0.20601100234E+03 -0.19156381985E+04  0.19425276325E+04  0.16500000000E+03 0.  0.
   -5000001    1    1    2    0    0  0.18460325683E+03 -0.20601100234E+03 -0.66543445500E+03  0.73928810989E+03  0.16500000000E+03 0.  0.
<mgrwt>
<rscale>  0 0.72814808E+03</rscale>
<asrwt>0</asrwt>
<pdfrwt beam="1">  1        2 0.40483746E+00 0.72814808E+03</pdfrwt>
<pdfrwt beam="2">  1       -2 0.77494704E-02 0.72814808E+03</pdfrwt>
<totfact> 0.31530963E+02</totfact>
</mgrwt>
</event>
<event>
 4    1  0.8404100E-005  0.3488620E+03  0.7818608E-02  0.1063083E+00
         -2   -1    0    0    0  501 -0.00000000000E+00  0.00000000000E+00  0.22988294924E+03  0.22988294926E+03  0.25500000000E-02 0. -1.
          2   -1    0    0  501    0  0.00000000000E+00 -0.00000000000E+00 -0.13235503416E+03  0.13235503419E+03  0.25500000000E-02 0.  1.
    5000001    1    1    2    0    0  0.27235533655E+02 -0.26981770458E+02  0.91969155351E+02  0.19275143519E+03  0.16500000000E+03 0.  0.
   -5000001    1    1    2    0    0 -0.27235533655E+02  0.26981770458E+02  0.55587597289E+01  0.16948654826E+03  0.16500000000E+03 0.  0.
<mgrwt>
<rscale>  0 0.34886195E+03</rscale>
<asrwt>0</asrwt>
<pdfrwt beam="1">  1        2 0.20362313E-01 0.34886195E+03</pdfrwt>
<pdfrwt beam="2">  1       -2 0.35366608E-01 0.34886195E+03</pdfrwt>
<totfact> 0.20581297E+03</totfact>
</mgrwt>
</event>
<event>
 4    1  0.8404100E-005  0.4442934E+03  0.7818608E-02  0.1029438E+00
          2   -1    0    0  501    0  0.00000000000E+00  0.00000000000E+00  0.57928486179E+03  0.57928486180E+03  0.25500000000E-02 0.  1.
         -2   -1    0    0    0  501 -0.00000000000E+00 -0.00000000000E+00 -0.85189785477E+02  0.85189785515E+02  0.25500000000E-02 0. -1.
    5000001    1    1    2    0    0  0.83210683794E+02 -0.91676182811E+02  0.12375895033E+03  0.24056146445E+03  0.16500000000E+03 0.  0.
   -5000001    1    1    2    0    0 -0.83210683794E+02  0.91676182811E+02  0.37033612599E+03  0.42391318286E+03  0.16500000000E+03 0.  0.
<mgrwt>
<rscale>  0 0.44429339E+03</rscale>
<asrwt>0</asrwt>
<pdfrwt beam="1">  1        2 0.89120747E-01 0.44429339E+03</pdfrwt>
<pdfrwt beam="2">  1       -2 0.13106121E-01 0.44429339E+03</pdfrwt>
<totfact> 0.22630560E+03</totfact>
</mgrwt>
</event>
<event>
 4    1  0.8404100E-005  0.5633361E+03  0.7818608E-02  0.9984534E-01
         -2   -1    0    0    0  501 -0.00000000000E+00  0.00000000000E+00  0.10523877781E+03  0.10523877784E+03  0.25500000000E-02 0. -1.
          2   -1    0    0  501    0  0.00000000000E+00 -0.00000000000E+00 -0.75387501394E+03  0.75387501394E+03  0.25500000000E-02 0.  1.
    5000001    1    1    2    0    0  0.14950829268E+03 -0.72663124319E+02 -0.85711787103E+02  0.24940763754E+03  0.16500000000E+03 0.  0.
   -5000001    1    1    2    0    0 -0.14950829268E+03  0.72663124319E+02 -0.56292444902E+03  0.60970615425E+03  0.16500000000E+03 0.  0.
<mgrwt>
<rscale>  0 0.56333608E+03</rscale>
<asrwt>0</asrwt>
<pdfrwt beam="1">  1        2 0.11598077E+00 0.56333608E+03</pdfrwt>
<pdfrwt beam="2">  1       -2 0.16190582E-01 0.56333608E+03</pdfrwt>
<totfact> 0.11508455E+03</totfact>
</mgrwt>
</event>
<event>
 4    1  0.8404100E-005  0.8729217E+03  0.7818608E-02  0.9460078E-01
          2   -1    0    0  501    0  0.00000000000E+00  0.00000000000E+00  0.12668104680E+04  0.12668104680E+04  0.25500000000E-02 0.  1.
         -2   -1    0    0    0  501 -0.00000000000E+00 -0.00000000000E+00 -0.15037614407E+03  0.15037614409E+03  0.25500000000E-02 0. -1.
    5000001    1    1    2    0    0 -0.37403483733E+02  0.26937095800E+03  0.10434050115E+04  0.10908156360E+04  0.16500000000E+03 0.  0.
   -5000001    1    1    2    0    0  0.37403483733E+02 -0.26937095800E+03  0.73029312466E+02  0.32637097617E+03  0.16500000000E+03 0.  0.
<mgrwt>
<rscale>  0 0.87292170E+03</rscale>
<asrwt>0</asrwt>
<pdfrwt beam="1">  1        2 0.19489390E+00 0.87292170E+03</pdfrwt>
<pdfrwt beam="2">  1       -2 0.23134793E-01 0.87292170E+03</pdfrwt>
<totfact> 0.28594677E+02</totfact>
</mgrwt>
</event>
<event>
 4    1  0.8404100E-005  0.5149433E+03  0.7818608E-02  0.1009950E+00
         -2   -1    0    0    0  501 -0.00000000000E+00  0.00000000000E+00  0.56699555362E+02  0.56699555420E+02  0.25500000000E-02 0. -1.
          2   -1    0    0  501    0  0.00000000000E+00 -0.00000000000E+00 -0.11691740039E+04  0.11691740039E+04  0.25500000000E-02 0.  1.
    5000001    1    1    2    0    0 -0.19396646427E+03  0.37985526096E+02 -0.55830813518E+03  0.61481612151E+03  0.16500000000E+03 0.  0.
   -5000001    1    1    2    0    0  0.19396646427E+03 -0.37985526096E+02 -0.55416631338E+03  0.61105743784E+03  0.16500000000E+03 0.  0.
<mgrwt>
<rscale>  0 0.51494328E+03</rscale>
<asrwt>0</asrwt>
<pdfrwt beam="1">  1        2 0.17987291E+00 0.51494328E+03</pdfrwt>
<pdfrwt beam="2">  1       -2 0.87230094E-02 0.51494328E+03</pdfrwt>
<totfact> 0.17107369E+03</totfact>
</mgrwt>
</event>
<event>
 4    1  0.8404100E-005  0.5906642E+03  0.7818608E-02  0.9924966E-01
         -2   -1    0    0    0  501 -0.00000000000E+00  0.00000000000E+00  0.20435867266E+03  0.20435867268E+03  0.25500000000E-02 0. -1.
          2   -1    0    0  501    0  0.00000000000E+00 -0.00000000000E+00 -0.42680378458E+03  0.42680378459E+03  0.25500000000E-02 0.  1.
    5000001    1    1    2    0    0 -0.88674704409E+02 -0.11158959354E+03 -0.32408041455E+03  0.39060025049E+03  0.16500000000E+03 0.  0.
   -5000001    1    1    2    0    0  0.88674704409E+02  0.11158959354E+03  0.10163530263E+03  0.24056220678E+03  0.16500000000E+03 0.  0.
<mgrwt>
<rscale>  0 0.59066422E+03</rscale>
<asrwt>0</asrwt>
<pdfrwt beam="1">  1        2 0.65662121E-01 0.59066422E+03</pdfrwt>
<pdfrwt beam="2">  1       -2 0.31439796E-01 0.59066422E+03</pdfrwt>
<totfact> 0.69764500E+02</totfact>
</mgrwt>
</event>
<event>
 4    1  0.8404100E-005  0.4334565E+03  0.7818608E-02  0.1032774E+00
         -2   -1    0    0    0  501 -0.00000000000E+00  0.00000000000E+00  0.34088916063E+02  0.34088916159E+02  0.25500000000E-02 0. -1.
          2   -1    0    0  501    0  0.00000000000E+00 -0.00000000000E+00 -0.13779007218E+04  0.13779007218E+04  0.25500000000E-02 0.  1.
    5000001    1    1    2    0    0  0.73618018534E+02 -0.47696514200E+02 -0.10295143787E+04  0.10463361917E+04  0.16500000000E+03 0.  0.
   -5000001    1    1    2    0    0 -0.73618018534E+02  0.47696514200E+02 -0.31429742706E+03  0.36565344628E+03  0.16500000000E+03 0.  0.
<mgrwt>
<rscale>  0 0.43345654E+03</rscale>
<asrwt>0</asrwt>
<pdfrwt beam="1">  1        2 0.21198468E+00 0.43345654E+03</pdfrwt>
<pdfrwt beam="2">  1       -2 0.52444497E-02 0.43345654E+03</pdfrwt>
<totfact> 0.28930959E+03</totfact>
</mgrwt>
</event>
<event>
 4    1  0.8404100E-005  0.3464800E+03  0.7818608E-02  0.1064069E+00
          2   -1    0    0  501    0  0.00000000000E+00  0.00000000000E+00  0.19003448193E+04  0.19003448193E+04  0.25500000000E-02 0.  1.
         -2   -1    0    0    0  501 -0.00000000000E+00 -0.00000000000E+00 -0.15792970653E+02  0.15792970859E+02  0.25500000000E-02 0. -1.
    5000001    1    1    2    0    0 -0.11354685833E+02  0.37294033620E+02  0.11391511796E+04  0.11516988252E+04  0.16500000000E+03 0.  0.
   -5000001    1    1    2    0    0  0.11354685833E+02 -0.37294033620E+02  0.74540066906E+03  0.76443896504E+03  0.16500000000E+03 0.  0.
<mgrwt>
<rscale>  0 0.34647996E+03</rscale>
<asrwt>0</asrwt>
<pdfrwt beam="1">  1        2 0.29236065E+00 0.34647996E+03</pdfrwt>
<pdfrwt beam="2">  1       -2 0.24296886E-02 0.34647996E+03</pdfrwt>
<totfact> 0.48587059E+03</totfact>
</mgrwt>
</event>
<event>
 4    1  0.8404100E-005  0.3955930E+03  0.7818608E-02  0.1045316E+00
          2   -1    0    0  501    0  0.00000000000E+00  0.00000000000E+00  0.57439254342E+03  0.57439254342E+03  0.25500000000E-02 0.  1.
         -2   -1    0    0    0  501 -0.00000000000E+00 -0.00000000000E+00 -0.68112740976E+02  0.68112741024E+02  0.25500000000E-02 0. -1.
    5000001    1    1    2    0    0  0.10092634697E+03 -0.21523719340E+02  0.19573902976E+03  0.27602203858E+03  0.16500000000E+03 0.  0.
   -5000001    1    1    2    0    0 -0.10092634697E+03  0.21523719340E+02  0.31054077268E+03  0.36648324587E+03  0.16500000000E+03 0.  0.
<mgrwt>
<rscale>  0 0.39559298E+03</rscale>
<asrwt>0</asrwt>
<pdfrwt beam="1">  1        2 0.88368084E-01 0.39559298E+03</pdfrwt>
<pdfrwt beam="2">  1       -2 0.10478883E-01 0.39559298E+03</pdfrwt>
<totfact> 0.32872133E+03</totfact>
</mgrwt>
</event>
<event>
 4    1  0.8404100E-005  0.4463365E+03  0.7818608E-02  0.1028820E+00
          2   -1    0    0  501    0  0.00000000000E+00  0.00000000000E+00  0.86633097942E+03  0.86633097942E+03  0.25500000000E-02 0. -1.
         -2   -1    0    0    0  501 -0.00000000000E+00 -0.00000000000E+00 -0.57488505780E+02  0.57488505837E+02  0.25500000000E-02 0.  1.
    5000001    1    1    2    0    0  0.13448192186E+02 -0.13544085743E+03  0.27263616113E+03  0.34652641471E+03  0.16500000000E+03 0.  0.
   -5000001    1    1    2    0    0 -0.13448192186E+02  0.13544085743E+03  0.53620631250E+03  0.57729307055E+03  0.16500000000E+03 0.  0.
<mgrwt>
<rscale>  0 0.44633653E+03</rscale>
<asrwt>0</asrwt>
<pdfrwt beam="1">  1        2 0.13328168E+00 0.44633653E+03</pdfrwt>
<pdfrwt beam="2">  1       -2 0.88443861E-02 0.44633653E+03</pdfrwt>
<totfact> 0.25896721E+03</totfact>
</mgrwt>
</event>
<event>
 4    1  0.8404100E-005  0.9543038E+03  0.7818608E-02  0.9360134E-01
          2   -1    0    0  501    0  0.00000000000E+00  0.00000000000E+00  0.11137358035E+04  0.11137358035E+04  0.25500000000E-02 0.  1.
         -2   -1    0    0    0  501 -0.00000000000E+00 -0.00000000000E+00 -0.20442366048E+03  0.20442366049E+03  0.25500000000E-02 0. -1.
    5000001    1    1    2    0    0  0.33121092964E+03 -0.50972611742E+02  0.44553400112E+02  0.37617667727E+03  0.16500000000E+03 0.  0.
   -5000001    1    1    2    0    0 -0.33121092964E+03  0.50972611742E+02  0.86475874293E+03  0.94198278675E+03  0.16500000000E+03 0.  0.
<mgrwt>
<rscale>  0 0.95430383E+03</rscale>
<asrwt>0</asrwt>
<pdfrwt beam="1">  1        2 0.17134397E+00 0.95430383E+03</pdfrwt>
<pdfrwt beam="2">  1       -2 0.31449794E-01 0.95430383E+03</pdfrwt>
<totfact> 0.20033664E+02</totfact>
</mgrwt>
</event>
<event>
 4    1  0.8404100E-005  0.7600312E+03  0.7818608E-02  0.9619743E-01
          2   -1    0    0  501    0  0.00000000000E+00  0.00000000000E+00  0.23067401630E+04  0.23067401630E+04  0.25500000000E-02 0.  1.
         -2   -1    0    0    0  501 -0.00000000000E+00 -0.00000000000E+00 -0.62604308199E+02  0.62604308251E+02  0.25500000000E-02 0. -1.
    5000001    1    1    2    0    0  0.93331708334E+02  0.22423024158E+03  0.18741176397E+04  0.18969796879E+04  0.16500000000E+03 0.  0.
   -5000001    1    1    2    0    0 -0.93331708334E+02 -0.22423024158E+03  0.37001821516E+03  0.47236478337E+03  0.16500000000E+03 0.  0.
<mgrwt>
<rscale>  0 0.76003124E+03</rscale>
<asrwt>0</asrwt>
<pdfrwt beam="1">  1        2 0.35488314E+00 0.76003124E+03</pdfrwt>
<pdfrwt beam="2">  1       -2 0.96314311E-02 0.76003124E+03</pdfrwt>
<totfact> 0.33808220E+02</totfact>
</mgrwt>
</event>
<event>
 4    1  0.8404100E-005  0.3955283E+03  0.7818608E-02  0.1045339E+00
          2   -1    0    0  501    0  0.00000000000E+00  0.00000000000E+00  0.41460640307E+03  0.41460640308E+03  0.25500000000E-02 0.  1.
         -2   -1    0    0    0  501 -0.00000000000E+00 -0.00000000000E+00 -0.94331997278E+02  0.94331997312E+02  0.25500000000E-02 0. -1.
    5000001    1    1    2    0    0 -0.10631733173E+03  0.23972929816E+02  0.15659607232E+03  0.25224077041E+03  0.16500000000E+03 0.  0.
   -5000001    1    1    2    0    0  0.10631733173E+03 -0.23972929816E+02  0.16367833348E+03  0.25669762999E+03  0.16500000000E+03 0.  0.
<mgrwt>
<rscale>  0 0.39552825E+03</rscale>
<asrwt>0</asrwt>
<pdfrwt beam="1">  1        2 0.63785601E-01 0.39552825E+03</pdfrwt>
<pdfrwt beam="2">  1       -2 0.14512615E-01 0.39552825E+03</pdfrwt>
<totfact> 0.27918525E+03</totfact>
</mgrwt>
</event>
<event>
 4    1  0.8404100E-005  0.1028804E+04  0.7818608E-02  0.9277505E-01
          2   -1    0    0  501    0  0.00000000000E+00  0.00000000000E+00  0.69776588117E+03  0.69776588118E+03  0.25500000000E-02 0.  1.
         -2   -1    0    0    0  501 -0.00000000000E+00 -0.00000000000E+00 -0.37922372798E+03  0.37922372798E+03  0.25500000000E-02 0. -1.
    5000001    1    1    2    0    0  0.37161869525E+03 -0.45743913988E+01 -0.17054558933E+03  0.44094464251E+03  0.16500000000E+03 0.  0.
   -5000001    1    1    2    0    0 -0.37161869525E+03  0.45743913988E+01  0.48908774252E+03  0.63604496665E+03  0.16500000000E+03 0.  0.
<mgrwt>
<rscale>  0 0.10288039E+04</rscale>
<asrwt>0</asrwt>
<pdfrwt beam="1">  1        2 0.10734860E+00 0.10288039E+04</pdfrwt>
<pdfrwt beam="2">  1       -2 0.58342112E-01 0.10288039E+04</pdfrwt>
<totfact> 0.11273918E+02</totfact>
</mgrwt>
</event>
<event>
 4    1  0.8404100E-005  0.3681687E+03  0.7818608E-02  0.1055395E+00
         -2   -1    0    0    0  501 -0.00000000000E+00  0.00000000000E+00  0.24514379454E+02  0.24514379586E+02  0.25500000000E-02 0. -1.
          2   -1    0    0  501    0  0.00000000000E+00 -0.00000000000E+00 -0.13823333865E+04  0.13823333865E+04  0.25500000000E-02 0.  1.
    5000001    1    1    2    0    0  0.79776317549E+02  0.16629046054E+02 -0.66129078943E+03  0.68641918257E+03  0.16500000000E+03 0.  0.
   -5000001    1    1    2    0    0 -0.79776317549E+02 -0.16629046054E+02 -0.69652821759E+03  0.72042858349E+03  0.16500000000E+03 0.  0.
<mgrwt>
<rscale>  0 0.36816869E+03</rscale>
<asrwt>0</asrwt>
<pdfrwt beam="1">  1        2 0.21266661E+00 0.36816869E+03</pdfrwt>
<pdfrwt beam="2">  1       -2 0.37714441E-02 0.36816869E+03</pdfrwt>
<totfact> 0.47614242E+03</totfact>
</mgrwt>
</event>
<event>
 4    1  0.8404100E-005  0.9514705E+03  0.7818608E-02  0.9363433E-01
          2   -1    0    0  501    0  0.00000000000E+00  0.00000000000E+00  0.88427589883E+03  0.88427589883E+03  0.25500000000E-02 0.  1.
         -2   -1    0    0    0  501 -0.00000000000E+00 -0.00000000000E+00 -0.25594275568E+03  0.25594275569E+03  0.25500000000E-02 0. -1.
    5000001    1    1    2    0    0  0.64574243736E+02  0.23776058903E+03  0.75998645342E+03  0.81578449362E+03  0.16500000000E+03 0.  0.
   -5000001    1    1    2    0    0 -0.64574243736E+02 -0.23776058903E+03 -0.13165331027E+03  0.32443416090E+03  0.16500000000E+03 0.  0.
<mgrwt>
<rscale>  0 0.95147046E+03</rscale>
<asrwt>0</asrwt>
<pdfrwt beam="1">  1        2 0.13604244E+00 0.95147046E+03</pdfrwt>
<pdfrwt beam="2">  1       -2 0.39375809E-01 0.95147046E+03</pdfrwt>
<totfact> 0.18327741E+02</totfact>
</mgrwt>
</event>
<event>
 4    1  0.8404100E-005  0.3967108E+03  0.7818608E-02  0.1044925E+00
          2   -1    0    0  501    0  0.00000000000E+00  0.00000000000E+00  0.91710818730E+03  0.91710818730E+03  0.25500000000E-02 0.  1.
         -2   -1    0    0    0  501 -0.00000000000E+00 -0.00000000000E+00 -0.42901001885E+02  0.42901001961E+02  0.25500000000E-02 0. -1.
    5000001    1    1    2    0    0  0.51223098903E+02  0.94901030066E+02  0.49066258411E+03  0.52877668520E+03  0.16500000000E+03 0.  0.
   -5000001    1    1    2    0    0 -0.51223098903E+02 -0.94901030066E+02  0.38354460131E+03  0.43123250406E+03  0.16500000000E+03 0.  0.
<mgrwt>
<rscale>  0 0.39671078E+03</rscale>
<asrwt>0</asrwt>
<pdfrwt beam="1">  1        2 0.14109356E+00 0.39671078E+03</pdfrwt>
<pdfrwt beam="2">  1       -2 0.66001543E-02 0.39671078E+03</pdfrwt>
<totfact> 0.37992634E+03</totfact>
</mgrwt>
</event>
<event>
 4    1  0.8404100E-005  0.6518413E+03  0.7818608E-02  0.9803330E-01
          2   -1    0    0  501    0  0.00000000000E+00  0.00000000000E+00  0.26609002750E+04  0.26609002750E+04  0.25500000000E-02 0.  1.
         -2   -1    0    0    0  501 -0.00000000000E+00 -0.00000000000E+00 -0.39920426180E+02  0.39920426261E+02  0.25500000000E-02 0. -1.
    5000001    1    1    2    0    0  0.20307195723E+03  0.19087826807E+03  0.11595812996E+04  0.12039628414E+04  0.16500000000E+03 0.  0.
   -5000001    1    1    2    0    0 -0.20307195723E+03 -0.19087826807E+03  0.14613985492E+04  0.14968578599E+04  0.16500000000E+03 0.  0.
<mgrwt>
<rscale>  0 0.65184131E+03</rscale>
<asrwt>0</asrwt>
<pdfrwt beam="1">  1        2 0.40936940E+00 0.65184131E+03</pdfrwt>
<pdfrwt beam="2">  1       -2 0.61416022E-02 0.65184131E+03</pdfrwt>
<totfact> 0.44150708E+02</totfact>
</mgrwt>
</event>
<event>
 4    1  0.8404100E-005  0.4069351E+03  0.7818608E-02  0.1041404E+00
         -2   -1    0    0    0  501 -0.00000000000E+00  0.00000000000E+00  0.38689610884E+02  0.38689610968E+02  0.25500000000E-02 0. -1.
          2   -1    0    0  501    0  0.00000000000E+00 -0.00000000000E+00 -0.10700297435E+04  0.10700297435E+04  0.25500000000E-02 0.  1.
    5000001    1    1    2    0    0 -0.19931603702E+02  0.96869184639E+02 -0.33508435196E+03  0.38637731648E+03  0.16500000000E+03 0.  0.
   -5000001    1    1    2    0    0  0.19931603702E+02 -0.96869184639E+02 -0.69625578066E+03  0.72234203800E+03  0.16500000000E+03 0.  0.
<mgrwt>
<rscale>  0 0.40693505E+03</rscale>
<asrwt>0</asrwt>
<pdfrwt beam="1">  1        2 0.16461994E+00 0.40693505E+03</pdfrwt>
<pdfrwt beam="2">  1       -2 0.59522486E-02 0.40693505E+03</pdfrwt>
<totfact> 0.35799823E+03</totfact>
</mgrwt>
</event>
<event>
 4    1  0.8404100E-005  0.5850877E+03  0.7818608E-02  0.9936837E-01
         -2   -1    0    0    0  501 -0.00000000000E+00  0.00000000000E+00  0.53900478002E+02  0.53900478062E+02  0.25500000000E-02 0. -1.
          2   -1    0    0  501    0  0.00000000000E+00 -0.00000000000E+00 -0.15877765406E+04  0.15877765406E+04  0.25500000000E-02 0.  1.
    5000001    1    1    2    0    0  0.14109722875E+03 -0.11491837563E+03 -0.12127285078E+04  0.12373560905E+04  0.16500000000E+03 0.  0.
   -5000001    1    1    2    0    0 -0.14109722875E+03  0.11491837563E+03 -0.32114755483E+03  0.40432092821E+03  0.16500000000E+03 0.  0.
<mgrwt>
<rscale>  0 0.58508774E+03</rscale>
<asrwt>0</asrwt>
<pdfrwt beam="1">  1        2 0.24427328E+00 0.58508774E+03</pdfrwt>
<pdfrwt beam="2">  1       -2 0.82923824E-02 0.58508774E+03</pdfrwt>
<totfact> 0.10749506E+03</totfact>
</mgrwt>
</event>
<event>
 4    1  0.8404100E-005  0.8141296E+03  0.7818608E-02  0.9539787E-01
          2   -1    0    0  501    0  0.00000000000E+00  0.00000000000E+00  0.21465344212E+04  0.21465344212E+04  0.25500000000E-02 0. -1.
         -2   -1    0    0    0  501 -0.00000000000E+00 -0.00000000000E+00 -0.77195015175E+02  0.77195015217E+02  0.25500000000E-02 0.  1.
    5000001    1    1    2    0    0  0.32018987650E+03  0.14297671043E+02  0.15511230949E+04  0.15924615650E+04  0.16500000000E+03 0.  0.
   -5000001    1    1    2    0    0 -0.32018987650E+03 -0.14297671043E+02  0.51821631120E+03  0.63126787151E+03  0.16500000000E+03 0.  0.
<mgrwt>
<rscale>  0 0.81412961E+03</rscale>
<asrwt>0</asrwt>
<pdfrwt beam="1">  1        2 0.33023603E+00 0.81412961E+03</pdfrwt>
<pdfrwt beam="2">  1       -2 0.11876157E-01 0.81412961E+03</pdfrwt>
<totfact> 0.29283777E+02</totfact>
</mgrwt>
</event>
<event>
 4    1  0.8404100E-005  0.4251844E+03  0.7818608E-02  0.1035392E+00
          2   -1    0    0  501    0  0.00000000000E+00  0.00000000000E+00  0.11051156390E+04  0.11051156390E+04  0.25500000000E-02 0.  1.
         -2   -1    0    0    0  501 -0.00000000000E+00 -0.00000000000E+00 -0.40896571153E+02  0.40896571232E+02  0.25500000000E-02 0. -1.
    5000001    1    1    2    0    0  0.11815245202E+03  0.52297387191E+02  0.62836798141E+03  0.66239439814E+03  0.16500000000E+03 0.  0.
   -5000001    1    1    2    0    0 -0.11815245202E+03 -0.52297387191E+02  0.43585108641E+03  0.48361781207E+03  0.16500000000E+03 0.  0.
<mgrwt>
<rscale>  0 0.42518439E+03</rscale>
<asrwt>0</asrwt>
<pdfrwt beam="1">  1        2 0.17001777E+00 0.42518439E+03</pdfrwt>
<pdfrwt beam="2">  1       -2 0.62917808E-02 0.42518439E+03</pdfrwt>
<totfact> 0.31290235E+03</totfact>
</mgrwt>
</event>
<event>
 4    1  0.8404100E-005  0.5332963E+03  0.7818608E-02  0.1005436E+00
         -2   -1    0    0    0  501 -0.00000000000E+00  0.00000000000E+00  0.58003554043E+03  0.58003554044E+03  0.25500000000E-02 0. -1.
          2   -1    0    0  501    0  0.00000000000E+00 -0.00000000000E+00 -0.12258082013E+03  0.12258082015E+03  0.25500000000E-02 0.  1.
    5000001    1    1    2    0    0  0.15797819598E+03  0.58572484431E+02  0.64761746237E+02  0.24455455447E+03  0.16500000000E+03 0.  0.
   -5000001    1    1    2    0    0 -0.15797819598E+03 -0.58572484431E+02  0.39269297407E+03  0.45806180612E+03  0.16500000000E+03 0.  0.
<mgrwt>
<rscale>  0 0.53329629E+03</rscale>
<asrwt>0</asrwt>
<pdfrwt beam="1">  1        2 0.18858588E-01 0.53329629E+03</pdfrwt>
<pdfrwt beam="2">  1       -2 0.89236237E-01 0.53329629E+03</pdfrwt>
<totfact> 0.33194692E+02</totfact>
</mgrwt>
</event>
<event>
 4    1  0.8404100E-005  0.7966956E+03  0.7818608E-02  0.9564812E-01
         -2   -1    0    0    0  501 -0.00000000000E+00  0.00000000000E+00  0.37967449803E+03  0.37967449804E+03  0.25500000000E-02 0. -1.
          2   -1    0    0  501    0  0.00000000000E+00 -0.00000000000E+00 -0.41793949399E+03  0.41793949399E+03  0.25500000000E-02 0.  1.
    5000001    1    1    2    0    0  0.15391774871E+03  0.28004518698E+03 -0.19061914554E+03  0.40703395284E+03  0.16500000000E+03 0.  0.
   -5000001    1    1    2    0    0 -0.15391774871E+03 -0.28004518698E+03  0.15235414958E+03  0.39058003919E+03  0.16500000000E+03 0.  0.
<mgrwt>
<rscale>  0 0.79669559E+03</rscale>
<asrwt>0</asrwt>
<pdfrwt beam="1">  1        2 0.64298384E-01 0.79669559E+03</pdfrwt>
<pdfrwt beam="2">  1       -2 0.58411461E-01 0.79669559E+03</pdfrwt>
<totfact> 0.20898030E+02</totfact>
</mgrwt>
</event>
<event>
 4    1  0.8404100E-005  0.6884820E+03  0.7818608E-02  0.9737135E-01
          2   -1    0    0  501    0  0.00000000000E+00  0.00000000000E+00  0.34392048746E+04  0.34392048746E+04  0.25500000000E-02 0.  1.
         -2   -1    0    0    0  501 -0.00000000000E+00 -0.00000000000E+00 -0.34456182516E+02  0.34456182611E+02  0.25500000000E-02 0. -1.
    5000001    1    1    2    0    0  0.23308714263E+03  0.18459825170E+03  0.14320458649E+04  0.14718649699E+04  0.16500000000E+03 0.  0.
   -5000001    1    1    2    0    0 -0.23308714263E+03 -0.18459825170E+03  0.19727028272E+04  0.20017960873E+04  0.16500000000E+03 0.  0.
<mgrwt>
<rscale>  0 0.68848201E+03</rscale>
<asrwt>0</asrwt>
<pdfrwt beam="1">  1        2 0.52910844E+00 0.68848201E+03</pdfrwt>
<pdfrwt beam="2">  1       -2 0.53009511E-02 0.68848201E+03</pdfrwt>
<totfact> 0.18280434E+02</totfact>
</mgrwt>
</event>
<event>
 4    1  0.8404100E-005  0.4832513E+03  0.7818608E-02  0.1018245E+00
          2   -1    0    0  501    0  0.00000000000E+00  0.00000000000E+00  0.16441895252E+04  0.16441895252E+04  0.25500000000E-02 0.  1.
         -2   -1    0    0    0  501 -0.00000000000E+00 -0.00000000000E+00 -0.35508651863E+02  0.35508651955E+02  0.25500000000E-02 0. -1.
    5000001    1    1    2    0    0 -0.53191396487E+02 -0.14075864076E+03  0.48359039909E+03  0.53266029860E+03  0.16500000000E+03 0.  0.
   -5000001    1    1    2    0    0  0.53191396487E+02  0.14075864076E+03  0.11250904742E+04  0.11470378785E+04  0.16500000000E+03 0.  0.
<mgrwt>
<rscale>  0 0.48325129E+03</rscale>
<asrwt>0</asrwt>
<pdfrwt beam="1">  1        2 0.25295228E+00 0.48325129E+03</pdfrwt>
<pdfrwt beam="2">  1       -2 0.54628685E-02 0.48325129E+03</pdfrwt>
<totfact> 0.19399086E+03</totfact>
</mgrwt>
</event>
<event>
 4    1  0.8404100E-005  0.5844632E+03  0.7818608E-02  0.9938175E-01
         -2   -1    0    0    0  501 -0.00000000000E+00  0.00000000000E+00  0.53759080587E+02  0.53759080648E+02  0.25500000000E-02 0. -1.
          2   -1    0    0  501    0  0.00000000000E+00 -0.00000000000E+00 -0.15885557369E+04  0.15885557369E+04  0.25500000000E-02 0.  1.
    5000001    1    1    2    0    0  0.12996630354E+03 -0.17065088856E+03 -0.45752099546E+03  0.53156695449E+03  0.16500000000E+03 0.  0.
   -5000001    1    1    2    0    0 -0.12996630354E+03  0.17065088856E+03 -0.10772756609E+04  0.11107478631E+04  0.16500000000E+03 0.  0.
<mgrwt>
<rscale>  0 0.58446316E+03</rscale>
<asrwt>0</asrwt>
<pdfrwt beam="1">  1        2 0.24439315E+00 0.58446316E+03</pdfrwt>
<pdfrwt beam="2">  1       -2 0.82706290E-02 0.58446316E+03</pdfrwt>
<totfact> 0.10784443E+03</totfact>
</mgrwt>
</event>
<event>
 4    1  0.8404100E-005  0.4552248E+03  0.7818608E-02  0.1026175E+00
          2   -1    0    0  501    0  0.00000000000E+00  0.00000000000E+00  0.29457704419E+04  0.29457704419E+04  0.25500000000E-02 0.  1.
         -2   -1    0    0    0  501 -0.00000000000E+00 -0.00000000000E+00 -0.17587043531E+02  0.17587043716E+02  0.25500000000E-02 0. -1.
    5000001    1    1    2    0    0  0.11327395365E+03  0.10814521214E+03  0.14153701433E+04  0.14335354959E+04  0.16500000000E+03 0.  0.
   -5000001    1    1    2    0    0 -0.11327395365E+03 -0.10814521214E+03  0.15128132550E+04  0.15298219897E+04  0.16500000000E+03 0.  0.
<mgrwt>
<rscale>  0 0.45522475E+03</rscale>
<asrwt>0</asrwt>
<pdfrwt beam="1">  1        2 0.45319562E+00 0.45522475E+03</pdfrwt>
<pdfrwt beam="2">  1       -2 0.27056980E-02 0.45522475E+03</pdfrwt>
<totfact> 0.10801269E+03</totfact>
</mgrwt>
</event>
<event>
 4    1  0.8404100E-005  0.3930464E+03  0.7818608E-02  0.1046214E+00
         -2   -1    0    0    0  501 -0.00000000000E+00  0.00000000000E+00  0.26851025727E+02  0.26851025848E+02  0.25500000000E-02 0. -1.
          2   -1    0    0  501    0  0.00000000000E+00 -0.00000000000E+00 -0.14383571016E+04  0.14383571016E+04  0.25500000000E-02 0.  1.
    5000001    1    1    2    0    0 -0.95701783801E+02 -0.55160480240E+01 -0.88088566422E+03  0.90131781944E+03  0.16500000000E+03 0.  0.
   -5000001    1    1    2    0    0  0.95701783801E+02  0.55160480240E+01 -0.53062041167E+03  0.56389030803E+03  0.16500000000E+03 0.  0.
<mgrwt>
<rscale>  0 0.39304638E+03</rscale>
<asrwt>0</asrwt>
<pdfrwt beam="1">  1        2 0.22128565E+00 0.39304638E+03</pdfrwt>
<pdfrwt beam="2">  1       -2 0.41309282E-02 0.39304638E+03</pdfrwt>
<totfact> 0.38634174E+03</totfact>
</mgrwt>
</event>
<event>
 4    1  0.8404100E-005  0.7218747E+03  0.7818608E-02  0.9680538E-01
          2   -1    0    0  501    0  0.00000000000E+00  0.00000000000E+00  0.26498050587E+03  0.26498050588E+03  0.25500000000E-02 0.  1.
         -2   -1    0    0    0  501 -0.00000000000E+00 -0.00000000000E+00 -0.49164284163E+03  0.49164284164E+03  0.25500000000E-02 0. -1.
    5000001    1    1    2    0    0  0.31587564303E+03  0.36600653015E+02 -0.67240088970E+02  0.36450412785E+03  0.16500000000E+03 0.  0.
   -5000001    1    1    2    0    0 -0.31587564303E+03 -0.36600653015E+02 -0.15942224680E+03  0.39211921967E+03  0.16500000000E+03 0.  0.
<mgrwt>
<rscale>  0 0.72187470E+03</rscale>
<asrwt>0</asrwt>
<pdfrwt beam="1">  1        2 0.40766232E-01 0.72187470E+03</pdfrwt>
<pdfrwt beam="2">  1       -2 0.75637360E-01 0.72187470E+03</pdfrwt>
<totfact> 0.19949742E+02</totfact>
</mgrwt>
</event>
<event>
 4    1  0.8404100E-005  0.4118758E+03  0.7818608E-02  0.1039743E+00
         -2   -1    0    0    0  501 -0.00000000000E+00  0.00000000000E+00  0.51676145140E+02  0.51676145203E+02  0.25500000000E-02 0. -1.
          2   -1    0    0  501    0  0.00000000000E+00 -0.00000000000E+00 -0.82069633911E+03  0.82069633912E+03  0.25500000000E-02 0.  1.
    5000001    1    1    2    0    0  0.11503793450E+03 -0.36841267960E+02 -0.33287065374E+03  0.39066466121E+03  0.16500000000E+03 0.  0.
   -5000001    1    1    2    0    0 -0.11503793450E+03  0.36841267960E+02 -0.43614954024E+03  0.48170782311E+03  0.16500000000E+03 0.  0.
<mgrwt>
<rscale>  0 0.41187582E+03</rscale>
<asrwt>0</asrwt>
<pdfrwt beam="1">  1        2 0.12626097E+00 0.41187582E+03</pdfrwt>
<pdfrwt beam="2">  1       -2 0.79501768E-02 0.41187582E+03</pdfrwt>
<totfact> 0.32936094E+03</totfact>
</mgrwt>
</event>
<event>
 4    1  0.8404100E-005  0.3810724E+03  0.7818608E-02  0.1050538E+00
         -2   -1    0    0    0  501 -0.00000000000E+00  0.00000000000E+00  0.43261231270E+02  0.43261231345E+02  0.25500000000E-02 0. -1.
          2   -1    0    0  501    0  0.00000000000E+00 -0.00000000000E+00 -0.83918207088E+03  0.83918207088E+03  0.25500000000E-02 0.  1.
    5000001    1    1    2    0    0 -0.19705204056E+02 -0.91456715926E+02 -0.35612249473E+03  0.40348588229E+03  0.16500000000E+03 0.  0.
   -5000001    1    1    2    0    0  0.19705204056E+02  0.91456715926E+02 -0.43979834488E+03  0.47895741994E+03  0.16500000000E+03 0.  0.
<mgrwt>
<rscale>  0 0.38107243E+03</rscale>
<asrwt>0</asrwt>
<pdfrwt beam="1">  1        2 0.12910492E+00 0.38107243E+03</pdfrwt>
<pdfrwt beam="2">  1       -2 0.66555747E-02 0.38107243E+03</pdfrwt>
<totfact> 0.42234617E+03</totfact>
</mgrwt>
</event>
<event>
 4    1  0.8404100E-005  0.5368206E+03  0.7818608E-02  0.1004591E+00
         -2   -1    0    0    0  501 -0.00000000000E+00  0.00000000000E+00  0.13833363606E+03  0.13833363608E+03  0.25500000000E-02 0. -1.
          2   -1    0    0  501    0  0.00000000000E+00 -0.00000000000E+00 -0.52079941021E+03  0.52079941022E+03  0.25500000000E-02 0.  1.
    5000001    1    1    2    0    0 -0.15504564358E+03 -0.23225721735E+02 -0.16548348569E+02  0.22820480623E+03  0.16500000000E+03 0.  0.
   -5000001    1    1    2    0    0  0.15504564358E+03  0.23225721735E+02 -0.36591742559E+03  0.43092824007E+03  0.16500000000E+03 0.  0.
<mgrwt>
<rscale>  0 0.53682055E+03</rscale>
<asrwt>0</asrwt>
<pdfrwt beam="1">  1        2 0.80122985E-01 0.53682055E+03</pdfrwt>
<pdfrwt beam="2">  1       -2 0.21282098E-01 0.53682055E+03</pdfrwt>
<totfact> 0.11250827E+03</totfact>
</mgrwt>
</event>
<event>
 4    1  0.8404100E-005  0.4977216E+03  0.7818608E-02  0.1014375E+00
          2   -1    0    0  501    0  0.00000000000E+00  0.00000000000E+00  0.18954694774E+03  0.18954694776E+03  0.25500000000E-02 0. -1.
         -2   -1    0    0    0  501 -0.00000000000E+00 -0.00000000000E+00 -0.32673543855E+03  0.32673543856E+03  0.25500000000E-02 0.  1.
    5000001    1    1    2    0    0 -0.17145982908E+03 -0.30433725076E+02  0.71161288691E-01  0.23989516392E+03  0.16500000000E+03 0.  0.
   -5000001    1    1    2    0    0  0.17145982908E+03  0.30433725076E+02 -0.13725965210E+03  0.27638722239E+03  0.16500000000E+03 0.  0.
<mgrwt>
<rscale>  0 0.49772163E+03</rscale>
<asrwt>0</asrwt>
<pdfrwt beam="1">  1        2 0.29161069E-01 0.49772163E+03</pdfrwt>
<pdfrwt beam="2">  1       -2 0.50266991E-01 0.49772163E+03</pdfrwt>
<totfact> 0.69182295E+02</totfact>
</mgrwt>
</event>
<event>
 4    1  0.8404100E-005  0.5257726E+03  0.7818608E-02  0.1007263E+00
          2   -1    0    0  501    0  0.00000000000E+00  0.00000000000E+00  0.81059982979E+03  0.81059982979E+03  0.25500000000E-02 0.  1.
         -2   -1    0    0    0  501 -0.00000000000E+00 -0.00000000000E+00 -0.85256876277E+02  0.85256876315E+02  0.25500000000E-02 0. -1.
    5000001    1    1    2    0    0 -0.10613915867E+03 -0.17223222565E+03  0.41531987533E+03  0.49055586777E+03  0.16500000000E+03 0.  0.
   -5000001    1    1    2    0    0  0.10613915867E+03  0.17223222565E+03  0.31002307818E+03  0.40530083834E+03  0.16500000000E+03 0.  0.
<mgrwt>
<rscale>  0 0.52577261E+03</rscale>
<asrwt>0</asrwt>
<pdfrwt beam="1">  1        2 0.12470767E+00 0.52577261E+03</pdfrwt>
<pdfrwt beam="2">  1       -2 0.13116442E-01 0.52577261E+03</pdfrwt>
<totfact> 0.14913391E+03</totfact>
</mgrwt>
</event>
<event>
 4    1  0.8404100E-005  0.5361560E+03  0.7818608E-02  0.1004750E+00
          2   -1    0    0  501    0  0.00000000000E+00  0.00000000000E+00  0.29473334112E+04  0.29473334112E+04  0.25500000000E-02 0.  1.
         -2   -1    0    0    0  501 -0.00000000000E+00 -0.00000000000E+00 -0.24383335719E+02  0.24383335852E+02  0.25500000000E-02 0. -1.
    5000001    1    1    2    0    0 -0.18036290734E+03 -0.17541160499E+02  0.20636191716E+04  0.20781211601E+04  0.16500000000E+03 0.  0.
   -5000001    1    1    2    0    0  0.18036290734E+03  0.17541160499E+02  0.85933090386E+03  0.89359558693E+03  0.16500000000E+03 0.  0.
<mgrwt>
<rscale>  0 0.53615602E+03</rscale>
<asrwt>0</asrwt>
<pdfrwt beam="1">  1        2 0.45343605E+00 0.53615602E+03</pdfrwt>
<pdfrwt beam="2">  1       -2 0.37512812E-02 0.53615602E+03</pdfrwt>
<totfact> 0.65076030E+02</totfact>
</mgrwt>
</event>
<event>
 4    1  0.8404100E-005  0.3594154E+03  0.7818608E-02  0.1058816E+00
         -2   -1    0    0    0  501 -0.00000000000E+00  0.00000000000E+00  0.28219351045E+02  0.28219351160E+02  0.25500000000E-02 0. -1.
          2   -1    0    0  501    0  0.00000000000E+00 -0.00000000000E+00 -0.11444227138E+04  0.11444227138E+04  0.25500000000E-02 0.  1.
    5000001    1    1    2    0    0 -0.41236182049E+02 -0.19604760362E+02 -0.37984412286E+03  0.41664292507E+03  0.16500000000E+03 0.  0.
   -5000001    1    1    2    0    0  0.41236182049E+02  0.19604760362E+02 -0.73635923986E+03  0.75599913986E+03  0.16500000000E+03 0.  0.
<mgrwt>
<rscale>  0 0.35941545E+03</rscale>
<asrwt>0</asrwt>
<pdfrwt beam="1">  1        2 0.17606500E+00 0.35941545E+03</pdfrwt>
<pdfrwt beam="2">  1       -2 0.43414395E-02 0.35941545E+03</pdfrwt>
<totfact> 0.52441339E+03</totfact>
</mgrwt>
</event>
<event>
 4    1  0.8404100E-005  0.3999202E+03  0.7818608E-02  0.1043807E+00
         -2   -1    0    0    0  501 -0.00000000000E+00  0.00000000000E+00  0.11948439542E+02  0.11948439814E+02  0.25500000000E-02 0. -1.
          2   -1    0    0  501    0  0.00000000000E+00 -0.00000000000E+00 -0.33463819134E+04  0.33463819134E+04  0.25500000000E-02 0.  1.
    5000001    1    1    2    0    0  0.35063972243E+02  0.77096518118E+02 -0.10396088767E+04  0.10560231871E+04  0.16500000000E+03 0.  0.
   -5000001    1    1    2    0    0 -0.35063972243E+02 -0.77096518118E+02 -0.22948245971E+04  0.23023071660E+04  0.16500000000E+03 0.  0.
<mgrwt>
<rscale>  0 0.39992020E+03</rscale>
<asrwt>0</asrwt>
<pdfrwt beam="1">  1        2 0.51482724E+00 0.39992020E+03</pdfrwt>
<pdfrwt beam="2">  1       -2 0.18382242E-02 0.39992020E+03</pdfrwt>
<totfact> 0.10940979E+03</totfact>
</mgrwt>
</event>
<event>
 4    1  0.8404100E-005  0.1129310E+04  0.7818608E-02  0.9177086E-01
          2   -1    0    0  501    0  0.00000000000E+00  0.00000000000E+00  0.83143833548E+03  0.83143833548E+03  0.25500000000E-02 0.  1.
         -2   -1    0    0    0  501 -0.00000000000E+00 -0.00000000000E+00 -0.38347401163E+03  0.38347401164E+03  0.25500000000E-02 0. -1.
    5000001    1    1    2    0    0 -0.51187368824E+03  0.16954859026E+03  0.19264334148E+03  0.59590087614E+03  0.16500000000E+03 0.  0.
   -5000001    1    1    2    0    0  0.51187368824E+03 -0.16954859026E+03  0.25532098236E+03  0.61901147098E+03  0.16500000000E+03 0.  0.
<mgrwt>
<rscale>  0 0.11293095E+04</rscale>
<asrwt>0</asrwt>
<pdfrwt beam="1">  1        2 0.12791359E+00 0.11293095E+04</pdfrwt>
<pdfrwt beam="2">  1       -2 0.58996002E-01 0.11293095E+04</pdfrwt>
<totfact> 0.87030603E+01</totfact>
</mgrwt>
</event>
<event>
 4    1  0.8404100E-005  0.4891079E+03  0.7818608E-02  0.1016662E+00
         -2   -1    0    0    0  501 -0.00000000000E+00  0.00000000000E+00  0.23615562750E+02  0.23615562888E+02  0.25500000000E-02 0. -1.
          2   -1    0    0  501    0  0.00000000000E+00 -0.00000000000E+00 -0.25325095899E+04  0.25325095899E+04  0.25500000000E-02 0.  1.
    5000001    1    1    2    0    0  0.15708224513E+03  0.88111827381E+02 -0.13169668240E+04  0.13394271691E+04  0.16500000000E+03 0.  0.
   -5000001    1    1    2    0    0 -0.15708224513E+03 -0.88111827381E+02 -0.11919272032E+04  0.12166979837E+04  0.16500000000E+03 0.  0.
<mgrwt>
<rscale>  0 0.48910792E+03</rscale>
<asrwt>0</asrwt>
<pdfrwt beam="1">  1        2 0.38961665E+00 0.48910792E+03</pdfrwt>
<pdfrwt beam="2">  1       -2 0.36331655E-02 0.48910792E+03</pdfrwt>
<totfact> 0.11940393E+03</totfact>
</mgrwt>
</event>
<event>
 4    1  0.8404100E-005  0.4802534E+03  0.7818608E-02  0.1019066E+00
         -2   -1    0    0    0  501 -0.00000000000E+00  0.00000000000E+00  0.27297572349E+03  0.27297572350E+03  0.25500000000E-02 0. -1.
          2   -1    0    0  501    0  0.00000000000E+00 -0.00000000000E+00 -0.21123063472E+03  0.21123063473E+03  0.25500000000E-02 0.  1.
    5000001    1    1    2    0    0 -0.16828274252E+03 -0.45770376793E+02  0.26162204119E+02  0.24150252534E+03  0.16500000000E+03 0.  0.
   -5000001    1    1    2    0    0  0.16828274252E+03  0.45770376793E+02  0.35582884654E+02  0.24270383290E+03  0.16500000000E+03 0.  0.
<mgrwt>
<rscale>  0 0.48025341E+03</rscale>
<asrwt>0</asrwt>
<pdfrwt beam="1">  1        2 0.32497021E-01 0.48025341E+03</pdfrwt>
<pdfrwt beam="2">  1       -2 0.41996265E-01 0.48025341E+03</pdfrwt>
<totfact> 0.87611146E+02</totfact>
</mgrwt>
</event>
<event>
 4    1  0.8404100E-005  0.5836878E+03  0.7818608E-02  0.9939839E-01
          2   -1    0    0  501    0  0.00000000000E+00  0.00000000000E+00  0.24130913320E+04  0.24130913320E+04  0.25500000000E-02 0.  1.
         -2   -1    0    0    0  501 -0.00000000000E+00 -0.00000000000E+00 -0.35296163203E+02  0.35296163295E+02  0.25500000000E-02 0. -1.
    5000001    1    1    2    0    0  0.85391103837E+02 -0.22483761154E+03  0.12317313573E+04  0.12657925299E+04  0.16500000000E+03 0.  0.
   -5000001    1    1    2    0    0 -0.85391103837E+02  0.22483761154E+03  0.11460638115E+04  0.11825949654E+04  0.16500000000E+03 0.  0.
<mgrwt>
<rscale>  0 0.58368781E+03</rscale>
<asrwt>0</asrwt>
<pdfrwt beam="1">  1        2 0.37124482E+00 0.58368781E+03</pdfrwt>
<pdfrwt beam="2">  1       -2 0.54301789E-02 0.58368781E+03</pdfrwt>
<totfact> 0.74403537E+02</totfact>
</mgrwt>
</event>
<event>
 4    1  0.8404100E-005  0.9425338E+03  0.7818608E-02  0.9373920E-01
          2   -1    0    0  501    0  0.00000000000E+00  0.00000000000E+00  0.10734418385E+04  0.10734418385E+04  0.25500000000E-02 0.  1.
         -2   -1    0    0    0  501 -0.00000000000E+00 -0.00000000000E+00 -0.20689755764E+03  0.20689755765E+03  0.25500000000E-02 0. -1.
    5000001    1    1    2    0    0 -0.20494908020E+03 -0.29483395113E+03  0.78208339814E+03  0.87624803900E+03  0.16500000000E+03 0.  0.
   -5000001    1    1    2    0    0  0.20494908020E+03  0.29483395113E+03  0.84460882721E+02  0.40409135715E+03  0.16500000000E+03 0.  0.
<mgrwt>
<rscale>  0 0.94253381E+03</rscale>
<asrwt>0</asrwt>
<pdfrwt beam="1">  1        2 0.16514490E+00 0.94253381E+03</pdfrwt>
<pdfrwt beam="2">  1       -2 0.31830393E-01 0.94253381E+03</pdfrwt>
<totfact> 0.20754214E+02</totfact>
</mgrwt>
</event>
<event>
 4    1  0.8404100E-005  0.6296676E+03  0.7818608E-02  0.9845698E-01
         -2   -1    0    0    0  501 -0.00000000000E+00  0.00000000000E+00  0.41412901206E+03  0.41412901207E+03  0.25500000000E-02 0. -1.
          2   -1    0    0  501    0  0.00000000000E+00 -0.00000000000E+00 -0.23934647430E+03  0.23934647431E+03  0.25500000000E-02 0.  1.
    5000001    1    1    2    0    0 -0.16049803524E+03 -0.12483003479E+03 -0.94012389519E+02  0.27821841471E+03  0.16500000000E+03 0.  0.
   -5000001    1    1    2    0    0  0.16049803524E+03  0.12483003479E+03  0.26879492728E+03  0.37525707167E+03  0.16500000000E+03 0.  0.
<mgrwt>
<rscale>  0 0.62966759E+03</rscale>
<asrwt>0</asrwt>
<pdfrwt beam="1">  1        2 0.36822535E-01 0.62966759E+03</pdfrwt>
<pdfrwt beam="2">  1       -2 0.63712155E-01 0.62966759E+03</pdfrwt>
<totfact> 0.32528512E+02</totfact>
</mgrwt>
</event>
<event>
 4    1  0.8404100E-005  0.4326750E+03  0.7818608E-02  0.1033018E+00
          2   -1    0    0  501    0  0.00000000000E+00  0.00000000000E+00  0.59012191366E+03  0.59012191366E+03  0.25500000000E-02 0. -1.
         -2   -1    0    0    0  501 -0.00000000000E+00 -0.00000000000E+00 -0.79308877437E+02  0.79308877478E+02  0.25500000000E-02 0.  1.
    5000001    1    1    2    0    0 -0.12279339359E+03 -0.10786498531E+02  0.35782939595E+03  0.41286976478E+03  0.16500000000E+03 0.  0.
   -5000001    1    1    2    0    0  0.12279339359E+03  0.10786498531E+02  0.15298364027E+03  0.25656102636E+03  0.16500000000E+03 0.  0.
<mgrwt>
<rscale>  0 0.43267497E+03</rscale>
<asrwt>0</asrwt>
<pdfrwt beam="1">  1        2 0.90787988E-01 0.43267497E+03</pdfrwt>
<pdfrwt beam="2">  1       -2 0.12201366E-01 0.43267497E+03</pdfrwt>
<totfact> 0.24898643E+03</totfact>
</mgrwt>
</event>
<event>
 4    1  0.8404100E-005  0.4659682E+03  0.7818608E-02  0.1023064E+00
          2   -1    0    0  501    0  0.00000000000E+00  0.00000000000E+00  0.13476362210E+04  0.13476362210E+04  0.25500000000E-02 0.  1.
         -2   -1    0    0    0  501 -0.00000000000E+00 -0.00000000000E+00 -0.40279104163E+02  0.40279104244E+02  0.25500000000E-02 0. -1.
    5000001    1    1    2    0    0 -0.15606417140E+03 -0.44074674228E+02  0.57167459774E+03  0.61671342470E+03  0.16500000000E+03 0.  0.
   -5000001    1    1    2    0    0  0.15606417140E+03  0.44074674228E+02  0.73568251906E+03  0.77120190051E+03  0.16500000000E+03 0.  0.
<mgrwt>
<rscale>  0 0.46596815E+03</rscale>
<asrwt>0</asrwt>
<pdfrwt beam="1">  1        2 0.20732865E+00 0.46596815E+03</pdfrwt>
<pdfrwt beam="2">  1       -2 0.61967853E-02 0.46596815E+03</pdfrwt>
<totfact> 0.23207169E+03</totfact>
</mgrwt>
</event>
<event>
 4    1  0.8404100E-005  0.4067508E+03  0.7818608E-02  0.1041467E+00
         -2   -1    0    0    0  501 -0.00000000000E+00  0.00000000000E+00  0.17998028115E+02  0.17998028295E+02  0.25500000000E-02 0. -1.
          2   -1    0    0  501    0  0.00000000000E+00 -0.00000000000E+00 -0.22981161455E+04  0.22981161455E+04  0.25500000000E-02 0.  1.
    5000001    1    1    2    0    0 -0.89210884513E+01 -0.10719487518E+03 -0.14285149985E+04  0.14420299678E+04  0.16500000000E+03 0.  0.
   -5000001    1    1    2    0    0  0.89210884513E+01  0.10719487518E+03 -0.85160311886E+03  0.87408420598E+03  0.16500000000E+03 0.  0.
<mgrwt>
<rscale>  0 0.40675083E+03</rscale>
<asrwt>0</asrwt>
<pdfrwt beam="1">  1        2 0.35355610E+00 0.40675083E+03</pdfrwt>
<pdfrwt beam="2">  1       -2 0.27689292E-02 0.40675083E+03</pdfrwt>
<totfact> 0.24412156E+03</totfact>
</mgrwt>
</event>
<event>
 4    1  0.8404100E-005  0.4912427E+03  0.7818608E-02  0.1016090E+00
         -2   -1    0    0    0  501 -0.00000000000E+00  0.00000000000E+00  0.93537217556E+02  0.93537217591E+02  0.25500000000E-02 0. -1.
          2   -1    0    0  501    0  0.00000000000E+00 -0.00000000000E+00 -0.64498230316E+03  0.64498230316E+03  0.25500000000E-02 0.  1.
    5000001    1    1    2    0    0 -0.16775666750E+03  0.56290643934E+02 -0.33939720696E+03  0.41680499059E+03  0.16500000000E+03 0.  0.
   -5000001    1    1    2    0    0  0.16775666750E+03 -0.56290643934E+02 -0.21204787864E+03  0.32171453017E+03  0.16500000000E+03 0.  0.
<mgrwt>
<rscale>  0 0.49124271E+03</rscale>
<asrwt>0</asrwt>
<pdfrwt beam="1">  1        2 0.99228044E-01 0.49124271E+03</pdfrwt>
<pdfrwt beam="2">  1       -2 0.14390342E-01 0.49124271E+03</pdfrwt>
<totfact> 0.17054138E+03</totfact>
</mgrwt>
</event>
<event>
 4    1  0.8404100E-005  0.5375717E+03  0.7818608E-02  0.1004412E+00
         -2   -1    0    0    0  501 -0.00000000000E+00  0.00000000000E+00  0.61714121966E+02  0.61714122018E+02  0.25500000000E-02 0. -1.
          2   -1    0    0  501    0  0.00000000000E+00 -0.00000000000E+00 -0.11706530503E+04  0.11706530503E+04  0.25500000000E-02 0.  1.
    5000001    1    1    2    0    0 -0.18390931436E+03  0.49396949538E+02 -0.76901004731E+03  0.80923676844E+03  0.16500000000E+03 0.  0.
   -5000001    1    1    2    0    0  0.18390931436E+03 -0.49396949538E+02 -0.33992888102E+03  0.42313040388E+03  0.16500000000E+03 0.  0.
<mgrwt>
<rscale>  0 0.53757167E+03</rscale>
<asrwt>0</asrwt>
<pdfrwt beam="1">  1        2 0.18010045E+00 0.53757167E+03</pdfrwt>
<pdfrwt beam="2">  1       -2 0.94944811E-02 0.53757167E+03</pdfrwt>
<totfact> 0.14893986E+03</totfact>
</mgrwt>
</event>
<event>
 4    1  0.8404100E-005  0.5140067E+03  0.7818608E-02  0.1010186E+00
         -2   -1    0    0    0  501 -0.00000000000E+00  0.00000000000E+00  0.38653737830E+02  0.38653737914E+02  0.25500000000E-02 0. -1.
          2   -1    0    0  501    0  0.00000000000E+00 -0.00000000000E+00 -0.17087795427E+04  0.17087795427E+04  0.25500000000E-02 0.  1.
    5000001    1    1    2    0    0  0.10061803267E+03 -0.31964319782E+02 -0.26945565705E+03  0.33313219201E+03  0.16500000000E+03 0.  0.
   -5000001    1    1    2    0    0 -0.10061803267E+03  0.31964319782E+02 -0.14006701479E+04  0.14143010886E+04  0.16500000000E+03 0.  0.
<mgrwt>
<rscale>  0 0.51400668E+03</rscale>
<asrwt>0</asrwt>
<pdfrwt beam="1">  1        2 0.26288910E+00 0.51400668E+03</pdfrwt>
<pdfrwt beam="2">  1       -2 0.59467302E-02 0.51400668E+03</pdfrwt>
<totfact> 0.15668139E+03</totfact>
</mgrwt>
</event>
<event>
 4    1  0.8404100E-005  0.5092443E+03  0.7818608E-02  0.1011394E+00
         -2   -1    0    0    0  501 -0.00000000000E+00  0.00000000000E+00  0.53264043107E+02  0.53264043168E+02  0.25500000000E-02 0. -1.
          2   -1    0    0  501    0  0.00000000000E+00 -0.00000000000E+00 -0.12171896862E+04  0.12171896862E+04  0.25500000000E-02 0.  1.
    5000001    1    1    2    0    0  0.14269851903E+03 -0.93127600812E+02 -0.35098549600E+03  0.42361708626E+03  0.16500000000E+03 0.  0.
   -5000001    1    1    2    0    0 -0.14269851903E+03  0.93127600812E+02 -0.81294014713E+03  0.84683664316E+03  0.16500000000E+03 0.  0.
<mgrwt>
<rscale>  0 0.50924432E+03</rscale>
<asrwt>0</asrwt>
<pdfrwt beam="1">  1        2 0.18725993E+00 0.50924432E+03</pdfrwt>
<pdfrwt beam="2">  1       -2 0.81944690E-02 0.50924432E+03</pdfrwt>
<totfact> 0.17719483E+03</totfact>
</mgrwt>
</event>
<event>
 4    1  0.8404100E-005  0.5147385E+03  0.7818608E-02  0.1010002E+00
         -2   -1    0    0    0  501 -0.00000000000E+00  0.00000000000E+00  0.58322353956E+02  0.58322354012E+02  0.25500000000E-02 0. -1.
          2   -1    0    0  501    0  0.00000000000E+00 -0.00000000000E+00 -0.11357384944E+04  0.11357384944E+04  0.25500000000E-02 0.  1.
    5000001    1    1    2    0    0 -0.90066454376E+02  0.12601513857E+03 -0.25438900921E+03  0.34048575500E+03  0.16500000000E+03 0.  0.
   -5000001    1    1    2    0    0  0.90066454376E+02 -0.12601513857E+03 -0.82302713126E+03  0.85357509344E+03  0.16500000000E+03 0.  0.
<mgrwt>
<rscale>  0 0.51473855E+03</rscale>
<asrwt>0</asrwt>
<pdfrwt beam="1">  1        2 0.17472898E+00 0.51473855E+03</pdfrwt>
<pdfrwt beam="2">  1       -2 0.89726707E-02 0.51473855E+03</pdfrwt>
<totfact> 0.17115068E+03</totfact>
</mgrwt>
</event>
<event>
 4    1  0.8404100E-005  0.3422303E+03  0.7818608E-02  0.1065850E+00
         -2   -1    0    0    0  501 -0.00000000000E+00  0.00000000000E+00  0.56925285399E+02  0.56925285456E+02  0.25500000000E-02 0. -1.
          2   -1    0    0  501    0  0.00000000000E+00 -0.00000000000E+00 -0.51436524606E+03  0.51436524607E+03  0.25500000000E-02 0.  1.
    5000001    1    1    2    0    0  0.77122168647E+01  0.43798268742E+02 -0.24342719776E+03  0.29742153124E+03  0.16500000000E+03 0.  0.
   -5000001    1    1    2    0    0 -0.77122168647E+01 -0.43798268742E+02 -0.21401276290E+03  0.27386900029E+03  0.16500000000E+03 0.  0.
<mgrwt>
<rscale>  0 0.34223026E+03</rscale>
<asrwt>0</asrwt>
<pdfrwt beam="1">  1        2 0.79133112E-01 0.34223026E+03</pdfrwt>
<pdfrwt beam="2">  1       -2 0.87577365E-02 0.34223026E+03</pdfrwt>
<totfact> 0.49570239E+03</totfact>
</mgrwt>
</event>
<event>
 4    1  0.8404100E-005  0.9549900E+03  0.7818608E-02  0.9359337E-01
          2   -1    0    0  501    0  0.00000000000E+00  0.00000000000E+00  0.14675879054E+04  0.14675879054E+04  0.25500000000E-02 0.  1.
         -2   -1    0    0    0  501 -0.00000000000E+00 -0.00000000000E+00 -0.15535795941E+03  0.15535795943E+03  0.25500000000E-02 0. -1.
    5000001    1    1    2    0    0  0.22609941036E+03  0.34409949215E+03  0.95654102252E+03  0.10543818718E+04  0.16500000000E+03 0.  0.
   -5000001    1    1    2    0    0 -0.22609941036E+03 -0.34409949215E+03  0.35568892346E+03  0.56856399300E+03  0.16500000000E+03 0.  0.
<mgrwt>
<rscale>  0 0.95498997E+03</rscale>
<asrwt>0</asrwt>
<pdfrwt beam="1">  1        2 0.22578275E+00 0.95498997E+03</pdfrwt>
<pdfrwt beam="2">  1       -2 0.23901225E-01 0.95498997E+03</pdfrwt>
<totfact> 0.20600190E+02</totfact>
</mgrwt>
</event>
<event>
 4    1  0.8404100E-005  0.5897819E+03  0.7818608E-02  0.9926835E-01
         -2   -1    0    0    0  501 -0.00000000000E+00  0.00000000000E+00  0.20123757870E+03  0.20123757872E+03  0.25500000000E-02 0. -1.
          2   -1    0    0  501    0  0.00000000000E+00 -0.00000000000E+00 -0.43212942724E+03  0.43212942725E+03  0.25500000000E-02 0.  1.
    5000001    1    1    2    0    0 -0.14125637955E+03 -0.19382801470E+03 -0.16596509509E+03  0.33510009972E+03  0.16500000000E+03 0.  0.
   -5000001    1    1    2    0    0  0.14125637955E+03  0.19382801470E+03 -0.64926753452E+02  0.29826690624E+03  0.16500000000E+03 0.  0.
<mgrwt>
<rscale>  0 0.58978192E+03</rscale>
<asrwt>0</asrwt>
<pdfrwt beam="1">  1        2 0.66481450E-01 0.58978192E+03</pdfrwt>
<pdfrwt beam="2">  1       -2 0.30959628E-01 0.58978192E+03</pdfrwt>
<totfact> 0.70794813E+02</totfact>
</mgrwt>
</event>
<event>
 4    1  0.8404100E-005  0.5554326E+03  0.7818608E-02  0.1000244E+00
         -2   -1    0    0    0  501 -0.00000000000E+00  0.00000000000E+00  0.28216434639E+02  0.28216434755E+02  0.25500000000E-02 0. -1.
          2   -1    0    0  501    0  0.00000000000E+00 -0.00000000000E+00 -0.27333841535E+04  0.27333841535E+04  0.25500000000E-02 0.  1.
    5000001    1    1    2    0    0 -0.45805902940E+02 -0.13200693667E+03 -0.22191552789E+04  0.22296634643E+04  0.16500000000E+03 0.  0.
   -5000001    1    1    2    0    0  0.45805902940E+02  0.13200693667E+03 -0.48601244002E+03  0.53193712404E+03  0.16500000000E+03 0.  0.
<mgrwt>
<rscale>  0 0.55543264E+03</rscale>
<asrwt>0</asrwt>
<pdfrwt beam="1">  1        2 0.42052043E+00 0.55543264E+03</pdfrwt>
<pdfrwt beam="2">  1       -2 0.43409921E-02 0.55543264E+03</pdfrwt>
<totfact> 0.69409374E+02</totfact>
</mgrwt>
</event>
<event>
 4    1  0.8404100E-005  0.5282208E+03  0.7818608E-02  0.1006665E+00
         -2   -1    0    0    0  501 -0.00000000000E+00  0.00000000000E+00  0.34770959010E+02  0.34770959103E+02  0.25500000000E-02 0. -1.
          2   -1    0    0  501    0  0.00000000000E+00 -0.00000000000E+00 -0.20061079412E+04  0.20061079412E+04  0.25500000000E-02 0.  1.
    5000001    1    1    2    0    0  0.76834173554E+02 -0.19125642146E+03 -0.95924017276E+03  0.99491166342E+03  0.16500000000E+03 0.  0.
   -5000001    1    1    2    0    0 -0.76834173554E+02  0.19125642146E+03 -0.10120968094E+04  0.10459672369E+04  0.16500000000E+03 0.  0.
<mgrwt>
<rscale>  0 0.52822078E+03</rscale>
<asrwt>0</asrwt>
<pdfrwt beam="1">  1        2 0.30863190E+00 0.52822078E+03</pdfrwt>
<pdfrwt beam="2">  1       -2 0.53493799E-02 0.52822078E+03</pdfrwt>
<totfact> 0.12766909E+03</totfact>
</mgrwt>
</event>
<event>
 4    1  0.8404100E-005  0.3678341E+03  0.7818608E-02  0.1055524E+00
          2   -1    0    0  501    0  0.00000000000E+00  0.00000000000E+00  0.52334581636E+03  0.52334581637E+03  0.25500000000E-02 0. -1.
         -2   -1    0    0    0  501 -0.00000000000E+00 -0.00000000000E+00 -0.64633137796E+02  0.64633137847E+02  0.25500000000E-02 0.  1.
    5000001    1    1    2    0    0  0.22938726489E+02  0.63023660894E+02  0.15606397863E+03  0.23681033007E+03  0.16500000000E+03 0.  0.
   -5000001    1    1    2    0    0 -0.22938726489E+02 -0.63023660894E+02  0.30264869994E+03  0.35116862414E+03  0.16500000000E+03 0.  0.
<mgrwt>
<rscale>  0 0.36783411E+03</rscale>
<asrwt>0</asrwt>
<pdfrwt beam="1">  1        2 0.80514745E-01 0.36783411E+03</pdfrwt>
<pdfrwt beam="2">  1       -2 0.99435591E-02 0.36783411E+03</pdfrwt>
<totfact> 0.39766756E+03</totfact>
</mgrwt>
</event>
<event>
 4    1  0.8404100E-005  0.4259511E+03  0.7818608E-02  0.1035147E+00
         -2   -1    0    0    0  501 -0.00000000000E+00  0.00000000000E+00  0.47330623891E+03  0.47330623892E+03  0.25500000000E-02 0. -1.
          2   -1    0    0  501    0  0.00000000000E+00 -0.00000000000E+00 -0.95833468347E+02  0.95833468381E+02  0.25500000000E-02 0.  1.
    5000001    1    1    2    0    0 -0.58757076692E+02  0.11514088534E+03  0.23915346766E+03  0.31800817384E+03  0.16500000000E+03 0.  0.
   -5000001    1    1    2    0    0  0.58757076692E+02 -0.11514088534E+03  0.13831930291E+03  0.25113153346E+03  0.16500000000E+03 0.  0.
<mgrwt>
<rscale>  0 0.42595107E+03</rscale>
<asrwt>0</asrwt>
<pdfrwt beam="1">  1        2 0.14743611E-01 0.42595107E+03</pdfrwt>
<pdfrwt beam="2">  1       -2 0.72816344E-01 0.42595107E+03</pdfrwt>
<totfact> 0.70140373E+02</totfact>
</mgrwt>
</event>
<event>
 4    1  0.8404100E-005  0.5822141E+03  0.7818608E-02  0.9943009E-01
         -2   -1    0    0    0  501 -0.00000000000E+00  0.00000000000E+00  0.11034173894E+03  0.11034173897E+03  0.25500000000E-02 0. -1.
          2   -1    0    0  501    0  0.00000000000E+00 -0.00000000000E+00 -0.76800766914E+03  0.76800766915E+03  0.25500000000E-02 0.  1.
    5000001    1    1    2    0    0 -0.19300510831E+03  0.13314251318E+03 -0.25279407438E+03  0.38224042786E+03  0.16500000000E+03 0.  0.
   -5000001    1    1    2    0    0  0.19300510831E+03 -0.13314251318E+03 -0.40487185582E+03  0.49610898025E+03  0.16500000000E+03 0.  0.
<mgrwt>
<rscale>  0 0.58221406E+03</rscale>
<asrwt>0</asrwt>
<pdfrwt beam="1">  1        2 0.11815502E+00 0.58221406E+03</pdfrwt>
<pdfrwt beam="2">  1       -2 0.16975653E-01 0.58221406E+03</pdfrwt>
<totfact> 0.10363624E+03</totfact>
</mgrwt>
</event>
<event>
 4    1  0.8404100E-005  0.5114129E+03  0.7818608E-02  0.1010842E+00
         -2   -1    0    0    0  501 -0.00000000000E+00  0.00000000000E+00  0.49448810328E+02  0.49448810394E+02  0.25500000000E-02 0. -1.
          2   -1    0    0  501    0  0.00000000000E+00 -0.00000000000E+00 -0.13222924851E+04  0.13222924851E+04  0.25500000000E-02 0.  1.
    5000001    1    1    2    0    0  0.61821249479E+01  0.18700791805E+03 -0.48586590598E+03  0.54616925826E+03  0.16500000000E+03 0.  0.
   -5000001    1    1    2    0    0 -0.61821249479E+01 -0.18700791805E+03 -0.78697776874E+03  0.82557203718E+03  0.16500000000E+03 0.  0.
<mgrwt>
<rscale>  0 0.51141291E+03</rscale>
<asrwt>0</asrwt>
<pdfrwt beam="1">  1        2 0.20342959E+00 0.51141291E+03</pdfrwt>
<pdfrwt beam="2">  1       -2 0.76075103E-02 0.51141291E+03</pdfrwt>
<totfact> 0.17356181E+03</totfact>
</mgrwt>
</event>
<event>
 4    1  0.8404100E-005  0.1045807E+04  0.7818608E-02  0.9259683E-01
         -2   -1    0    0    0  501 -0.00000000000E+00  0.00000000000E+00  0.22401725376E+04  0.22401725376E+04  0.25500000000E-02 0. -1.
          2   -1    0    0  501    0  0.00000000000E+00 -0.00000000000E+00 -0.12205680342E+03  0.12205680344E+03  0.25500000000E-02 0.  1.
    5000001    1    1    2    0    0  0.17917771324E+03  0.45420076218E+03  0.12585502740E+04  0.13599914622E+04  0.16500000000E+03 0.  0.
   -5000001    1    1    2    0    0 -0.17917771324E+03 -0.45420076218E+03  0.85956546021E+03  0.10022378788E+04  0.16500000000E+03 0.  0.
<mgrwt>
<rscale>  0 0.10458074E+04</rscale>
<asrwt>0</asrwt>
<pdfrwt beam="1">  1        2 0.18777968E-01 0.10458074E+04</pdfrwt>
<pdfrwt beam="2">  1       -2 0.34464195E+00 0.10458074E+04</pdfrwt>
<totfact> 0.52400876E+00</totfact>
</mgrwt>
</event>
<event>
 4    1  0.8404100E-005  0.1037443E+04  0.7818608E-02  0.9268405E-01
         -2   -1    0    0    0  501 -0.00000000000E+00  0.00000000000E+00  0.34130481306E+03  0.34130481307E+03  0.25500000000E-02 0. -1.
          2   -1    0    0  501    0  0.00000000000E+00 -0.00000000000E+00 -0.78836255893E+03  0.78836255894E+03  0.25500000000E-02 0.  1.
    5000001    1    1    2    0    0  0.16308855967E+02  0.36033941130E+03 -0.58751418015E+03  0.70887825612E+03  0.16500000000E+03 0.  0.
   -5000001    1    1    2    0    0 -0.16308855967E+02 -0.36033941130E+03  0.14045643427E+03  0.42078911589E+03  0.16500000000E+03 0.  0.
<mgrwt>
<rscale>  0 0.10374429E+04</rscale>
<asrwt>0</asrwt>
<pdfrwt beam="1">  1        2 0.12128655E+00 0.10374429E+04</pdfrwt>
<pdfrwt beam="2">  1       -2 0.52508433E-01 0.10374429E+04</pdfrwt>
<totfact> 0.11979158E+02</totfact>
</mgrwt>
</event>
<event>
 4    1  0.8404100E-005  0.5533214E+03  0.7818608E-02  0.1000728E+00
         -2   -1    0    0    0  501 -0.00000000000E+00  0.00000000000E+00  0.28212022341E+03  0.28212022342E+03  0.25500000000E-02 0. -1.
          2   -1    0    0  501    0  0.00000000000E+00 -0.00000000000E+00 -0.27130680819E+03  0.27130680820E+03  0.25500000000E-02 0.  1.
    5000001    1    1    2    0    0 -0.13255607018E+03 -0.24128929642E+02 -0.17115694102E+03  0.27326363726E+03  0.16500000000E+03 0.  0.
   -5000001    1    1    2    0    0  0.13255607018E+03  0.24128929642E+02  0.18197035625E+03  0.28016339436E+03  0.16500000000E+03 0.  0.
<mgrwt>
<rscale>  0 0.55332138E+03</rscale>
<asrwt>0</asrwt>
<pdfrwt beam="1">  1        2 0.41739509E-01 0.55332138E+03</pdfrwt>
<pdfrwt beam="2">  1       -2 0.43403111E-01 0.55332138E+03</pdfrwt>
<totfact> 0.62237582E+02</totfact>
</mgrwt>
</event>
<event>
 4    1  0.8404100E-005  0.4354696E+03  0.7818608E-02  0.1032146E+00
         -2   -1    0    0    0  501 -0.00000000000E+00  0.00000000000E+00  0.39932341887E+02  0.39932341968E+02  0.25500000000E-02 0. -1.
          2   -1    0    0  501    0  0.00000000000E+00 -0.00000000000E+00 -0.11872191758E+04  0.11872191758E+04  0.25500000000E-02 0.  1.
    5000001    1    1    2    0    0 -0.70771442512E+01  0.14010324164E+03 -0.51035209655E+03  0.55440352338E+03  0.16500000000E+03 0.  0.
   -5000001    1    1    2    0    0  0.70771442512E+01 -0.14010324164E+03 -0.63693473733E+03  0.67274799435E+03  0.16500000000E+03 0.  0.
<mgrwt>
<rscale>  0 0.43546960E+03</rscale>
<asrwt>0</asrwt>
<pdfrwt beam="1">  1        2 0.18264908E+00 0.43546960E+03</pdfrwt>
<pdfrwt beam="2">  1       -2 0.61434381E-02 0.43546960E+03</pdfrwt>
<totfact> 0.29050083E+03</totfact>
</mgrwt>
</event>
<event>
 4    1  0.8404100E-005  0.9222214E+03  0.7818608E-02  0.9398222E-01
         -2   -1    0    0    0  501 -0.00000000000E+00  0.00000000000E+00  0.14082070788E+03  0.14082070790E+03  0.25500000000E-02 0. -1.
          2   -1    0    0  501    0  0.00000000000E+00 -0.00000000000E+00 -0.15098848682E+04  0.15098848682E+04  0.25500000000E-02 0.  1.
    5000001    1    1    2    0    0 -0.26634966775E+03  0.32563440227E+03 -0.84875837126E+03  0.96155898531E+03  0.16500000000E+03 0.  0.
   -5000001    1    1    2    0    0  0.26634966775E+03 -0.32563440227E+03 -0.52030578902E+03  0.68914659075E+03  0.16500000000E+03 0.  0.
<mgrwt>
<rscale>  0 0.92222135E+03</rscale>
<asrwt>0</asrwt>
<pdfrwt beam="1">  1        2 0.23228997E+00 0.92222135E+03</pdfrwt>
<pdfrwt beam="2">  1       -2 0.21664725E-01 0.92222135E+03</pdfrwt>
<totfact> 0.23290759E+02</totfact>
</mgrwt>
</event>
<event>
 4    1  0.8404100E-005  0.4226038E+03  0.7818608E-02  0.1036222E+00
          2   -1    0    0  501    0  0.00000000000E+00  0.00000000000E+00  0.21523156547E+04  0.21523156547E+04  0.25500000000E-02 0.  1.
         -2   -1    0    0    0  501 -0.00000000000E+00 -0.00000000000E+00 -0.20744398571E+02  0.20744398728E+02  0.25500000000E-02 0. -1.
    5000001    1    1    2    0    0  0.10955551911E+03 -0.38347867350E+02  0.13889813753E+04  0.14035552114E+04  0.16500000000E+03 0.  0.
   -5000001    1    1    2    0    0 -0.10955551911E+03  0.38347867350E+02  0.74258988084E+03  0.76950484198E+03  0.16500000000E+03 0.  0.
<mgrwt>
<rscale>  0 0.42260380E+03</rscale>
<asrwt>0</asrwt>
<pdfrwt beam="1">  1        2 0.33112565E+00 0.42260380E+03</pdfrwt>
<pdfrwt beam="2">  1       -2 0.31914444E-02 0.42260380E+03</pdfrwt>
<totfact> 0.23618355E+03</totfact>
</mgrwt>
</event>
<event>
 4    1  0.8404100E-005  0.6838286E+03  0.7818608E-02  0.9745294E-01
         -2   -1    0    0    0  501 -0.00000000000E+00  0.00000000000E+00  0.11459880170E+03  0.11459880173E+03  0.25500000000E-02 0. -1.
          2   -1    0    0  501    0  0.00000000000E+00 -0.00000000000E+00 -0.10201276345E+04  0.10201276345E+04  0.25500000000E-02 0.  1.
    5000001    1    1    2    0    0  0.83065283709E+02  0.14385237905E+03 -0.86623480967E+03  0.89731883620E+03  0.16500000000E+03 0.  0.
   -5000001    1    1    2    0    0 -0.83065283709E+02 -0.14385237905E+03 -0.39294023170E+02  0.23740760007E+03  0.16500000000E+03 0.  0.
<mgrwt>
<rscale>  0 0.68382865E+03</rscale>
<asrwt>0</asrwt>
<pdfrwt beam="1">  1        2 0.15694271E+00 0.68382865E+03</pdfrwt>
<pdfrwt beam="2">  1       -2 0.17630586E-01 0.68382865E+03</pdfrwt>
<totfact> 0.65474866E+02</totfact>
</mgrwt>
</event>
<event>
 4    1  0.8404100E-005  0.6281106E+03  0.7818608E-02  0.9848743E-01
         -2   -1    0    0    0  501 -0.00000000000E+00  0.00000000000E+00  0.14264567639E+03  0.14264567641E+03  0.25500000000E-02 0. -1.
          2   -1    0    0  501    0  0.00000000000E+00 -0.00000000000E+00 -0.69143868775E+03  0.69143868776E+03  0.25500000000E-02 0.  1.
    5000001    1    1    2    0    0 -0.12409742139E+03  0.16747237000E+03 -0.49643657442E+03  0.56313536306E+03  0.16500000000E+03 0.  0.
   -5000001    1    1    2    0    0  0.12409742139E+03 -0.16747237000E+03 -0.52356436941E+02  0.27094900110E+03  0.16500000000E+03 0.  0.
<mgrwt>
<rscale>  0 0.62811062E+03</rscale>
<asrwt>0</asrwt>
<pdfrwt beam="1">  1        2 0.10637518E+00 0.62811062E+03</pdfrwt>
<pdfrwt beam="2">  1       -2 0.21945489E-01 0.62811062E+03</pdfrwt>
<totfact> 0.75774509E+02</totfact>
</mgrwt>
</event>
<event>
 4    1  0.8404100E-005  0.5150062E+03  0.7818608E-02  0.1009935E+00
         -2   -1    0    0    0  501 -0.00000000000E+00  0.00000000000E+00  0.83575160854E+02  0.83575160893E+02  0.25500000000E-02 0. -1.
          2   -1    0    0  501    0  0.00000000000E+00 -0.00000000000E+00 -0.79339165683E+03  0.79339165684E+03  0.25500000000E-02 0.  1.
    5000001    1    1    2    0    0 -0.10203724752E+03 -0.31104101306E+02 -0.63833456897E+03  0.66788852883E+03  0.16500000000E+03 0.  0.
   -5000001    1    1    2    0    0  0.10203724752E+03  0.31104101306E+02 -0.71481927008E+02  0.20907828890E+03  0.16500000000E+03 0.  0.
<mgrwt>
<rscale>  0 0.51500616E+03</rscale>
<asrwt>0</asrwt>
<pdfrwt beam="1">  1        2 0.12206025E+00 0.51500616E+03</pdfrwt>
<pdfrwt beam="2">  1       -2 0.12857718E-01 0.51500616E+03</pdfrwt>
<totfact> 0.15853951E+03</totfact>
</mgrwt>
</event>
<event>
 4    1  0.8404100E-005  0.4881916E+03  0.7818608E-02  0.1016908E+00
         -2   -1    0    0    0  501 -0.00000000000E+00  0.00000000000E+00  0.10362512857E+04  0.10362512857E+04  0.25500000000E-02 0. -1.
          2   -1    0    0  501    0  0.00000000000E+00 -0.00000000000E+00 -0.57498366701E+02  0.57498366758E+02  0.25500000000E-02 0.  1.
    5000001    1    1    2    0    0 -0.18027552111E+02 -0.17895300959E+03  0.49594058572E+03  0.55274880085E+03  0.16500000000E+03 0.  0.
   -5000001    1    1    2    0    0  0.18027552111E+02  0.17895300959E+03  0.48281233326E+03  0.54100085159E+03  0.16500000000E+03 0.  0.
<mgrwt>
<rscale>  0 0.48819159E+03</rscale>
<asrwt>0</asrwt>
<pdfrwt beam="1">  1        2 0.88459036E-02 0.48819159E+03</pdfrwt>
<pdfrwt beam="2">  1       -2 0.15942326E+00 0.48819159E+03</pdfrwt>
<totfact> 0.20168482E+02</totfact>
</mgrwt>
</event>
<event>
 4    1  0.8404100E-005  0.4185952E+03  0.7818608E-02  0.1037524E+00
         -2   -1    0    0    0  501 -0.00000000000E+00  0.00000000000E+00  0.61138609394E+02  0.61138609447E+02  0.25500000000E-02 0. -1.
          2   -1    0    0  501    0  0.00000000000E+00 -0.00000000000E+00 -0.71649457632E+03  0.71649457633E+03  0.25500000000E-02 0.  1.
    5000001    1    1    2    0    0  0.10240343355E+03 -0.63467766198E+02 -0.24324130121E+03  0.31765697091E+03  0.16500000000E+03 0.  0.
   -5000001    1    1    2    0    0 -0.10240343355E+03  0.63467766198E+02 -0.41211466572E+03  0.45997621487E+03  0.16500000000E+03 0.  0.
<mgrwt>
<rscale>  0 0.41859518E+03</rscale>
<asrwt>0</asrwt>
<pdfrwt beam="1">  1        2 0.11022993E+00 0.41859518E+03</pdfrwt>
<pdfrwt beam="2">  1       -2 0.94059404E-02 0.41859518E+03</pdfrwt>
<totfact> 0.29984897E+03</totfact>
</mgrwt>
</event>
<event>
 4    1  0.8404100E-005  0.8545650E+03  0.7818608E-02  0.9484230E-01
         -2   -1    0    0    0  501 -0.00000000000E+00  0.00000000000E+00  0.18803515431E+03  0.18803515432E+03  0.25500000000E-02 0.  1.
          2   -1    0    0  501    0  0.00000000000E+00 -0.00000000000E+00 -0.97093726895E+03  0.97093726895E+03  0.25500000000E-02 0. -1.
    5000001    1    1    2    0    0  0.36747044531E+03  0.10550514706E+03 -0.26151283629E+03  0.49171112228E+03  0.16500000000E+03 0.  0.
   -5000001    1    1    2    0    0 -0.36747044531E+03 -0.10550514706E+03 -0.52138927834E+03  0.66726130099E+03  0.16500000000E+03 0.  0.
<mgrwt>
<rscale>  0 0.85456501E+03</rscale>
<asrwt>0</asrwt>
<pdfrwt beam="1">  1        2 0.14937496E+00 0.85456501E+03</pdfrwt>
<pdfrwt beam="2">  1       -2 0.28928486E-01 0.85456501E+03</pdfrwt>
<totfact> 0.28940018E+02</totfact>
</mgrwt>
</event>
<event>
 4    1  0.8404100E-005  0.3660197E+03  0.7818608E-02  0.1056225E+00
         -2   -1    0    0    0  501 -0.00000000000E+00  0.00000000000E+00  0.26450975592E+03  0.26450975593E+03  0.25500000000E-02 0. -1.
          2   -1    0    0  501    0  0.00000000000E+00 -0.00000000000E+00 -0.12662141318E+03  0.12662141320E+03  0.25500000000E-02 0.  1.
    5000001    1    1    2    0    0 -0.19502488390E+02  0.64983170325E+02  0.11254071183E+03  0.21093499306E+03  0.16500000000E+03 0.  0.
   -5000001    1    1    2    0    0  0.19502488390E+02 -0.64983170325E+02  0.25347630920E+02  0.18019617608E+03  0.16500000000E+03 0.  0.
<mgrwt>
<rscale>  0 0.36601967E+03</rscale>
<asrwt>0</asrwt>
<pdfrwt beam="1">  1        2 0.19480217E-01 0.36601967E+03</pdfrwt>
<pdfrwt beam="2">  1       -2 0.40693809E-01 0.36601967E+03</pdfrwt>
<totfact> 0.16597770E+03</totfact>
</mgrwt>
</event>
<event>
 4    1  0.8404100E-005  0.3673580E+03  0.7818608E-02  0.1055708E+00
         -2   -1    0    0    0  501 -0.00000000000E+00  0.00000000000E+00  0.24086781967E+02  0.24086782102E+02  0.25500000000E-02 0. -1.
          2   -1    0    0  501    0  0.00000000000E+00 -0.00000000000E+00 -0.14006845260E+04  0.14006845260E+04  0.25500000000E-02 0.  1.
    5000001    1    1    2    0    0  0.37666604530E+02 -0.71262660114E+02 -0.67286143924E+03  0.69747018305E+03  0.16500000000E+03 0.  0.
   -5000001    1    1    2    0    0 -0.37666604530E+02  0.71262660114E+02 -0.70373630476E+03  0.72730112502E+03  0.16500000000E+03 0.  0.
<mgrwt>
<rscale>  0 0.36735804E+03</rscale>
<asrwt>0</asrwt>
<pdfrwt beam="1">  1        2 0.21548986E+00 0.36735804E+03</pdfrwt>
<pdfrwt beam="2">  1       -2 0.37056599E-02 0.36735804E+03</pdfrwt>
<totfact> 0.47773805E+03</totfact>
</mgrwt>
</event>
<event>
 4    1  0.8404100E-005  0.3723605E+03  0.7818608E-02  0.1053794E+00
         -2   -1    0    0    0  501 -0.00000000000E+00  0.00000000000E+00  0.31635095053E+02  0.31635095156E+02  0.25500000000E-02 0. -1.
          2   -1    0    0  501    0  0.00000000000E+00 -0.00000000000E+00 -0.10957164150E+04  0.10957164150E+04  0.25500000000E-02 0.  1.
    5000001    1    1    2    0    0 -0.36659624149E+02 -0.73370028520E+02 -0.61277005204E+03  0.63987438284E+03  0.16500000000E+03 0.  0.
   -5000001    1    1    2    0    0  0.36659624149E+02  0.73370028520E+02 -0.45131126792E+03  0.48747712734E+03  0.16500000000E+03 0.  0.
<mgrwt>
<rscale>  0 0.37236054E+03</rscale>
<asrwt>0</asrwt>
<pdfrwt beam="1">  1        2 0.16857173E+00 0.37236054E+03</pdfrwt>
<pdfrwt beam="2">  1       -2 0.48669385E-02 0.37236054E+03</pdfrwt>
<totfact> 0.47082170E+03</totfact>
</mgrwt>
</event>
<event>
 4    1  0.8404100E-005  0.6656689E+03  0.7818608E-02  0.9777814E-01
          2   -1    0    0  501    0  0.00000000000E+00  0.00000000000E+00  0.26297066251E+03  0.26297066252E+03  0.25500000000E-02 0.  1.
         -2   -1    0    0    0  501 -0.00000000000E+00 -0.00000000000E+00 -0.42125911073E+03  0.42125911074E+03  0.25500000000E-02 0. -1.
    5000001    1    1    2    0    0 -0.21054820913E+03  0.27891608070E+02 -0.28068609253E+03  0.38873920912E+03  0.16500000000E+03 0.  0.
   -5000001    1    1    2    0    0  0.21054820913E+03 -0.27891608070E+02  0.12239764430E+03  0.29549056414E+03  0.16500000000E+03 0.  0.
<mgrwt>
<rscale>  0 0.66566895E+03</rscale>
<asrwt>0</asrwt>
<pdfrwt beam="1">  1        2 0.40457025E-01 0.66566895E+03</pdfrwt>
<pdfrwt beam="2">  1       -2 0.64809094E-01 0.66566895E+03</pdfrwt>
<totfact> 0.28222787E+02</totfact>
</mgrwt>
</event>
<event>
 4    1  0.8404100E-005  0.4458939E+03  0.7818608E-02  0.1028954E+00
          2   -1    0    0  501    0  0.00000000000E+00  0.00000000000E+00  0.15371876077E+04  0.15371876077E+04  0.25500000000E-02 0.  1.
         -2   -1    0    0    0  501 -0.00000000000E+00 -0.00000000000E+00 -0.32335247478E+02  0.32335247578E+02  0.25500000000E-02 0. -1.
    5000001    1    1    2    0    0  0.44865092635E+02 -0.13101899175E+03  0.95467735237E+03  0.97867905866E+03  0.16500000000E+03 0.  0.
   -5000001    1    1    2    0    0 -0.44865092635E+02  0.13101899175E+03  0.55017500786E+03  0.59084379662E+03  0.16500000000E+03 0.  0.
<mgrwt>
<rscale>  0 0.44589390E+03</rscale>
<asrwt>0</asrwt>
<pdfrwt beam="1">  1        2 0.23649040E+00 0.44589390E+03</pdfrwt>
<pdfrwt beam="2">  1       -2 0.49746534E-02 0.44589390E+03</pdfrwt>
<totfact> 0.25651973E+03</totfact>
</mgrwt>
</event>
<event>
 4    1  0.8404100E-005  0.4358193E+03  0.7818608E-02  0.1032037E+00
         -2   -1    0    0    0  501 -0.00000000000E+00  0.00000000000E+00  0.20065650317E+03  0.20065650319E+03  0.25500000000E-02 0. -1.
          2   -1    0    0  501    0  0.00000000000E+00 -0.00000000000E+00 -0.23664632801E+03  0.23664632803E+03  0.25500000000E-02 0.  1.
    5000001    1    1    2    0    0  0.78051093339E+01  0.86637280036E+02  0.95050402462E+02  0.20934783742E+03  0.16500000000E+03 0.  0.
   -5000001    1    1    2    0    0 -0.78051093339E+01 -0.86637280036E+02 -0.13104022730E+03  0.22795499379E+03  0.16500000000E+03 0.  0.
<mgrwt>
<rscale>  0 0.43581934E+03</rscale>
<asrwt>0</asrwt>
<pdfrwt beam="1">  1        2 0.36407127E-01 0.43581934E+03</pdfrwt>
<pdfrwt beam="2">  1       -2 0.30870231E-01 0.43581934E+03</pdfrwt>
<totfact> 0.13844600E+03</totfact>
</mgrwt>
</event>
<event>
 4    1  0.8404100E-005  0.7226746E+03  0.7818608E-02  0.9679223E-01
          2   -1    0    0  501    0  0.00000000000E+00  0.00000000000E+00  0.83805890897E+03  0.83805890897E+03  0.25500000000E-02 0.  1.
         -2   -1    0    0    0  501 -0.00000000000E+00 -0.00000000000E+00 -0.15579411506E+03  0.15579411508E+03  0.25500000000E-02 0. -1.
    5000001    1    1    2    0    0  0.20916191397E+03 -0.18497830559E+03  0.12206711782E+03  0.34654157189E+03  0.16500000000E+03 0.  0.
   -5000001    1    1    2    0    0 -0.20916191397E+03  0.18497830559E+03  0.56019767609E+03  0.64731145216E+03  0.16500000000E+03 0.  0.
<mgrwt>
<rscale>  0 0.72267460E+03</rscale>
<asrwt>0</asrwt>
<pdfrwt beam="1">  1        2 0.12893214E+00 0.72267460E+03</pdfrwt>
<pdfrwt beam="2">  1       -2 0.23968326E-01 0.72267460E+03</pdfrwt>
<totfact> 0.50338730E+02</totfact>
</mgrwt>
</event>
<event>
 4    1  0.8404100E-005  0.9015866E+03  0.7818608E-02  0.9423600E-01
         -2   -1    0    0    0  501 -0.00000000000E+00  0.00000000000E+00  0.16288389518E+03  0.16288389520E+03  0.25500000000E-02 0. -1.
          2   -1    0    0  501    0  0.00000000000E+00 -0.00000000000E+00 -0.12476038656E+04  0.12476038656E+04  0.25500000000E-02 0.  1.
    5000001    1    1    2    0    0 -0.18326221919E+03 -0.36386049272E+03 -0.38583609573E+03  0.58487091902E+03  0.16500000000E+03 0.  0.
   -5000001    1    1    2    0    0  0.18326221919E+03  0.36386049272E+03 -0.69888387470E+03  0.82561684180E+03  0.16500000000E+03 0.  0.
<mgrwt>
<rscale>  0 0.90158655E+03</rscale>
<asrwt>0</asrwt>
<pdfrwt beam="1">  1        2 0.19193905E+00 0.90158655E+03</pdfrwt>
<pdfrwt beam="2">  1       -2 0.25059062E-01 0.90158655E+03</pdfrwt>
<totfact> 0.25377479E+02</totfact>
</mgrwt>
</event>
<event>
 4    1  0.8404100E-005  0.1204151E+04  0.7818608E-02  0.9109231E-01
         -2   -1    0    0    0  501 -0.00000000000E+00  0.00000000000E+00  0.22113658763E+03  0.22113658764E+03  0.25500000000E-02 0. -1.
          2   -1    0    0  501    0  0.00000000000E+00 -0.00000000000E+00 -0.16392362846E+04  0.16392362846E+04  0.25500000000E-02 0.  1.
    5000001    1    1    2    0    0  0.12372039318E+03 -0.55029496492E+03 -0.50679005475E+03  0.77601059510E+03  0.16500000000E+03 0.  0.
   -5000001    1    1    2    0    0 -0.12372039318E+03  0.55029496492E+03 -0.91130964226E+03  0.10843622772E+04  0.16500000000E+03 0.  0.
<mgrwt>
<rscale>  0 0.12041513E+04</rscale>
<asrwt>0</asrwt>
<pdfrwt beam="1">  1        2 0.25219019E+00 0.12041513E+04</pdfrwt>
<pdfrwt beam="2">  1       -2 0.34021015E-01 0.12041513E+04</pdfrwt>
<totfact> 0.84562448E+01</totfact>
</mgrwt>
</event>
<event>
 4    1  0.8404100E-005  0.4833682E+03  0.7818608E-02  0.1018214E+00
          2   -1    0    0  501    0  0.00000000000E+00  0.00000000000E+00  0.29263487908E+03  0.29263487909E+03  0.25500000000E-02 0.  1.
         -2   -1    0    0    0  501 -0.00000000000E+00 -0.00000000000E+00 -0.19960439863E+03  0.19960439865E+03  0.25500000000E-02 0. -1.
    5000001    1    1    2    0    0  0.67765237519E+02 -0.15071247781E+03 -0.16916197888E+02  0.23413145055E+03  0.16500000000E+03 0.  0.
   -5000001    1    1    2    0    0 -0.67765237519E+02  0.15071247781E+03  0.10994667833E+03  0.25810782720E+03  0.16500000000E+03 0.  0.
<mgrwt>
<rscale>  0 0.48336822E+03</rscale>
<asrwt>0</asrwt>
<pdfrwt beam="1">  1        2 0.45020751E-01 0.48336822E+03</pdfrwt>
<pdfrwt beam="2">  1       -2 0.30708369E-01 0.48336822E+03</pdfrwt>
<totfact> 0.11077655E+03</totfact>
</mgrwt>
</event>
<event>
 4    1  0.8404100E-005  0.4237208E+03  0.7818608E-02  0.1035862E+00
         -2   -1    0    0    0  501 -0.00000000000E+00  0.00000000000E+00  0.14348767263E+03  0.14348767265E+03  0.25500000000E-02 0. -1.
          2   -1    0    0  501    0  0.00000000000E+00 -0.00000000000E+00 -0.31281314142E+03  0.31281314143E+03  0.25500000000E-02 0.  1.
    5000001    1    1    2    0    0  0.20766174943E+02  0.12996728062E+03 -0.10443479139E+03  0.23548748100E+03  0.16500000000E+03 0.  0.
   -5000001    1    1    2    0    0 -0.20766174943E+02 -0.12996728062E+03 -0.64890677394E+02  0.22081333308E+03  0.16500000000E+03 0.  0.
<mgrwt>
<rscale>  0 0.42372080E+03</rscale>
<asrwt>0</asrwt>
<pdfrwt beam="1">  1        2 0.48125099E-01 0.42372080E+03</pdfrwt>
<pdfrwt beam="2">  1       -2 0.22075027E-01 0.42372080E+03</pdfrwt>
<totfact> 0.18624645E+03</totfact>
</mgrwt>
</event>
<event>
 4    1  0.8404100E-005  0.5066841E+03  0.7818608E-02  0.1012049E+00
          2   -1    0    0  501    0  0.00000000000E+00  0.00000000000E+00  0.91322858630E+03  0.91322858630E+03  0.25500000000E-02 0.  1.
         -2   -1    0    0    0  501 -0.00000000000E+00 -0.00000000000E+00 -0.70280539144E+02  0.70280539190E+02  0.25500000000E-02 0. -1.
    5000001    1    1    2    0    0  0.14202061369E+03  0.11903577542E+03  0.52078827401E+03  0.57687502710E+03  0.16500000000E+03 0.  0.
   -5000001    1    1    2    0    0 -0.14202061369E+03 -0.11903577542E+03  0.32215977314E+03  0.40663409839E+03  0.16500000000E+03 0.  0.
<mgrwt>
<rscale>  0 0.50668411E+03</rscale>
<asrwt>0</asrwt>
<pdfrwt beam="1">  1        2 0.14049671E+00 0.50668411E+03</pdfrwt>
<pdfrwt beam="2">  1       -2 0.10812390E-01 0.50668411E+03</pdfrwt>
<totfact> 0.17437709E+03</totfact>
</mgrwt>
</event>
<event>
 4    1  0.8404100E-005  0.6803153E+03  0.7818608E-02  0.9751501E-01
         -2   -1    0    0    0  501 -0.00000000000E+00  0.00000000000E+00  0.11215962970E+03  0.11215962973E+03  0.25500000000E-02 0. -1.
          2   -1    0    0  501    0  0.00000000000E+00 -0.00000000000E+00 -0.10316298079E+04  0.10316298079E+04  0.25500000000E-02 0.  1.
    5000001    1    1    2    0    0 -0.23694048733E+03 -0.16842975868E+03 -0.56570592266E+03  0.65708261967E+03  0.16500000000E+03 0.  0.
   -5000001    1    1    2    0    0  0.23694048733E+03  0.16842975868E+03 -0.35376425553E+03  0.48670681795E+03  0.16500000000E+03 0.  0.
<mgrwt>
<rscale>  0 0.68031527E+03</rscale>
<asrwt>0</asrwt>
<pdfrwt beam="1">  1        2 0.15871227E+00 0.68031527E+03</pdfrwt>
<pdfrwt beam="2">  1       -2 0.17255328E-01 0.68031527E+03</pdfrwt>
<totfact> 0.66826127E+02</totfact>
</mgrwt>
</event>
<event>
 4    1  0.8404100E-005  0.4214922E+03  0.7818608E-02  0.1036582E+00
         -2   -1    0    0    0  501 -0.00000000000E+00  0.00000000000E+00  0.10087825769E+03  0.10087825772E+03  0.25500000000E-02 0. -1.
          2   -1    0    0  501    0  0.00000000000E+00 -0.00000000000E+00 -0.44027242420E+03  0.44027242421E+03  0.25500000000E-02 0.  1.
    5000001    1    1    2    0    0  0.67830522987E+02  0.97760483183E+02 -0.24037910829E+03  0.31490507716E+03  0.16500000000E+03 0.  0.
   -5000001    1    1    2    0    0 -0.67830522987E+02 -0.97760483183E+02 -0.99015058227E+02  0.22624560477E+03  0.16500000000E+03 0.  0.
<mgrwt>
<rscale>  0 0.42149218E+03</rscale>
<asrwt>0</asrwt>
<pdfrwt beam="1">  1        2 0.67734218E-01 0.42149218E+03</pdfrwt>
<pdfrwt beam="2">  1       -2 0.15519732E-01 0.42149218E+03</pdfrwt>
<totfact> 0.23367580E+03</totfact>
</mgrwt>
</event>
<event>
 4    1  0.8404100E-005  0.7367600E+03  0.7818608E-02  0.9656354E-01
          2   -1    0    0  501    0  0.00000000000E+00  0.00000000000E+00  0.49719326169E+03  0.49719326170E+03  0.25500000000E-02 0.  1.
         -2   -1    0    0    0  501 -0.00000000000E+00 -0.00000000000E+00 -0.27293978651E+03  0.27293978652E+03  0.25500000000E-02 0. -1.
    5000001    1    1    2    0    0  0.24945653059E+03  0.90024093905E+02  0.31628351260E+03  0.44451451999E+03  0.16500000000E+03 0.  0.
   -5000001    1    1    2    0    0 -0.24945653059E+03 -0.90024093905E+02 -0.92030037424E+02  0.32561852823E+03  0.16500000000E+03 0.  0.
<mgrwt>
<rscale>  0 0.73676000E+03</rscale>
<asrwt>0</asrwt>
<pdfrwt beam="1">  1        2 0.76491270E-01 0.73676000E+03</pdfrwt>
<pdfrwt beam="2">  1       -2 0.41990737E-01 0.73676000E+03</pdfrwt>
<totfact> 0.33574068E+02</totfact>
</mgrwt>
</event>
<event>
 4    1  0.8404100E-005  0.1381319E+04  0.7818608E-02  0.8967453E-01
          2   -1    0    0  501    0  0.00000000000E+00  0.00000000000E+00  0.65556879789E+03  0.65556879789E+03  0.25500000000E-02 0.  1.
         -2   -1    0    0    0  501 -0.00000000000E+00 -0.00000000000E+00 -0.72762817109E+03  0.72762817110E+03  0.25500000000E-02 0. -1.
    5000001    1    1    2    0    0 -0.45964890624E+03 -0.46495544467E+03  0.11358781672E+03  0.68380397384E+03  0.16500000000E+03 0.  0.
   -5000001    1    1    2    0    0  0.45964890624E+03  0.46495544467E+03 -0.18564718993E+03  0.69939299515E+03  0.16500000000E+03 0.  0.
<mgrwt>
<rscale>  0 0.13813187E+04</rscale>
<asrwt>0</asrwt>
<pdfrwt beam="1">  1        2 0.10085674E+00 0.13813187E+04</pdfrwt>
<pdfrwt beam="2">  1       -2 0.11194280E+00 0.13813187E+04</pdfrwt>
<totfact> 0.27302646E+01</totfact>
</mgrwt>
</event>
<event>
 4    1  0.8404100E-005  0.4571866E+03  0.7818608E-02  0.1025600E+00
         -2   -1    0    0    0  501 -0.00000000000E+00  0.00000000000E+00  0.57244837644E+02  0.57244837701E+02  0.25500000000E-02 0. -1.
          2   -1    0    0  501    0  0.00000000000E+00 -0.00000000000E+00 -0.91283176981E+03  0.91283176982E+03  0.25500000000E-02 0.  1.
    5000001    1    1    2    0    0 -0.84346684930E+02  0.10692834559E+03 -0.59862291072E+03  0.63570624001E+03  0.16500000000E+03 0.  0.
   -5000001    1    1    2    0    0  0.84346684930E+02 -0.10692834559E+03 -0.25696402145E+03  0.33437036751E+03  0.16500000000E+03 0.  0.
<mgrwt>
<rscale>  0 0.45718664E+03</rscale>
<asrwt>0</asrwt>
<pdfrwt beam="1">  1        2 0.14043565E+00 0.45718664E+03</pdfrwt>
<pdfrwt beam="2">  1       -2 0.88068987E-02 0.45718664E+03</pdfrwt>
<totfact> 0.24283647E+03</totfact>
</mgrwt>
</event>
<event>
 4    1  0.8404100E-005  0.3733791E+03  0.7818608E-02  0.1053408E+00
         -2   -1    0    0    0  501 -0.00000000000E+00  0.00000000000E+00  0.12869801832E+03  0.12869801834E+03  0.25500000000E-02 0. -1.
          2   -1    0    0  501    0  0.00000000000E+00 -0.00000000000E+00 -0.27081212056E+03  0.27081212057E+03  0.25500000000E-02 0.  1.
    5000001    1    1    2    0    0  0.18693377633E+02 -0.71507586779E+02 -0.21268735456E+02  0.18204432549E+03  0.16500000000E+03 0.  0.
   -5000001    1    1    2    0    0 -0.18693377633E+02  0.71507586779E+02 -0.12084536678E+03  0.21746581342E+03  0.16500000000E+03 0.  0.
<mgrwt>
<rscale>  0 0.37337907E+03</rscale>
<asrwt>0</asrwt>
<pdfrwt beam="1">  1        2 0.41663403E-01 0.37337907E+03</pdfrwt>
<pdfrwt beam="2">  1       -2 0.19799695E-01 0.37337907E+03</pdfrwt>
<totfact> 0.26280803E+03</totfact>
</mgrwt>
</event>
<event>
 4    1  0.8404100E-005  0.6166052E+03  0.7818608E-02  0.9871542E-01
          2   -1    0    0  501    0  0.00000000000E+00  0.00000000000E+00  0.44432387543E+03  0.44432387544E+03  0.25500000000E-02 0.  1.
         -2   -1    0    0    0  501 -0.00000000000E+00 -0.00000000000E+00 -0.21392166377E+03  0.21392166379E+03  0.25500000000E-02 0. -1.
    5000001    1    1    2    0    0 -0.69035720324E+02  0.10334152666E+03 -0.12912163137E+03  0.24360377153E+03  0.16500000000E+03 0.  0.
   -5000001    1    1    2    0    0  0.69035720324E+02 -0.10334152666E+03  0.35952384303E+03  0.41464176770E+03  0.16500000000E+03 0.  0.
<mgrwt>
<rscale>  0 0.61660523E+03</rscale>
<asrwt>0</asrwt>
<pdfrwt beam="1">  1        2 0.68357518E-01 0.61660523E+03</pdfrwt>
<pdfrwt beam="2">  1       -2 0.32911026E-01 0.61660523E+03</pdfrwt>
<totfact> 0.61173799E+02</totfact>
</mgrwt>
</event>
<event>
 4    1  0.8404100E-005  0.5473244E+03  0.7818608E-02  0.1002115E+00
         -2   -1    0    0    0  501 -0.00000000000E+00  0.00000000000E+00  0.43079783162E+02  0.43079783237E+02  0.25500000000E-02 0. -1.
          2   -1    0    0  501    0  0.00000000000E+00 -0.00000000000E+00 -0.17384256495E+04  0.17384256495E+04  0.25500000000E-02 0.  1.
    5000001    1    1    2    0    0  0.89225028082E+02 -0.19833456163E+03 -0.91013853251E+03  0.95019727022E+03  0.16500000000E+03 0.  0.
   -5000001    1    1    2    0    0 -0.89225028082E+02  0.19833456163E+03 -0.78520733384E+03  0.83130816253E+03  0.16500000000E+03 0.  0.
<mgrwt>
<rscale>  0 0.54732440E+03</rscale>
<asrwt>0</asrwt>
<pdfrwt beam="1">  1        2 0.26745004E+00 0.54732440E+03</pdfrwt>
<pdfrwt beam="2">  1       -2 0.66276603E-02 0.54732440E+03</pdfrwt>
<totfact> 0.12722426E+03</totfact>
</mgrwt>
</event>
<event>
 4    1  0.8404100E-005  0.5868196E+03  0.7818608E-02  0.9933135E-01
          2   -1    0    0  501    0  0.00000000000E+00  0.00000000000E+00  0.10208170261E+04  0.10208170261E+04  0.25500000000E-02 0.  1.
         -2   -1    0    0    0  501 -0.00000000000E+00 -0.00000000000E+00 -0.84333736904E+02  0.84333736942E+02  0.25500000000E-02 0. -1.
    5000001    1    1    2    0    0  0.15698795269E+03 -0.84192573614E+02  0.15803759061E+03  0.28971449185E+03  0.16500000000E+03 0.  0.
   -5000001    1    1    2    0    0 -0.15698795269E+03  0.84192573614E+02  0.77844569858E+03  0.81543627119E+03  0.16500000000E+03 0.  0.
<mgrwt>
<rscale>  0 0.58681961E+03</rscale>
<asrwt>0</asrwt>
<pdfrwt beam="1">  1        2 0.15704878E+00 0.58681961E+03</pdfrwt>
<pdfrwt beam="2">  1       -2 0.12974421E-01 0.58681961E+03</pdfrwt>
<totfact> 0.11011387E+03</totfact>
</mgrwt>
</event>
<event>
 4    1  0.8404100E-005  0.1015766E+04  0.7818608E-02  0.9291420E-01
         -2   -1    0    0    0  501 -0.00000000000E+00  0.00000000000E+00  0.12043483994E+03  0.12043483997E+03  0.25500000000E-02 0. -1.
          2   -1    0    0  501    0  0.00000000000E+00 -0.00000000000E+00 -0.21417808060E+04  0.21417808060E+04  0.25500000000E-02 0.  1.
    5000001    1    1    2    0    0 -0.23857036121E+03 -0.35557556767E+03 -0.52595050680E+03  0.69799623005E+03  0.16500000000E+03 0.  0.
   -5000001    1    1    2    0    0  0.23857036121E+03  0.35557556767E+03 -0.14953954593E+04  0.15642194160E+04  0.16500000000E+03 0.  0.
<mgrwt>
<rscale>  0 0.10157658E+04</rscale>
<asrwt>0</asrwt>
<pdfrwt beam="1">  1        2 0.32950471E+00 0.10157658E+04</pdfrwt>
<pdfrwt beam="2">  1       -2 0.18528439E-01 0.10157658E+04</pdfrwt>
<totfact> 0.13643576E+02</totfact>
</mgrwt>
</event>
<event>
 4    1  0.8404100E-005  0.5409216E+03  0.7818608E-02  0.1003617E+00
         -2   -1    0    0    0  501 -0.00000000000E+00  0.00000000000E+00  0.78387308564E+02  0.78387308606E+02  0.25500000000E-02 0. -1.
          2   -1    0    0  501    0  0.00000000000E+00 -0.00000000000E+00 -0.93317449646E+03  0.93317449647E+03  0.25500000000E-02 0.  1.
    5000001    1    1    2    0    0 -0.73398441741E+02 -0.18738391894E+03 -0.56511989228E+03  0.62216200219E+03  0.16500000000E+03 0.  0.
   -5000001    1    1    2    0    0  0.73398441741E+02  0.18738391894E+03 -0.28966729562E+03  0.38939980288E+03  0.16500000000E+03 0.  0.
<mgrwt>
<rscale>  0 0.54092157E+03</rscale>
<asrwt>0</asrwt>
<pdfrwt beam="1">  1        2 0.14356530E+00 0.54092157E+03</pdfrwt>
<pdfrwt beam="2">  1       -2 0.12059587E-01 0.54092157E+03</pdfrwt>
<totfact> 0.14148359E+03</totfact>
</mgrwt>
</event>
<event>
 4    1  0.8404100E-005  0.5060093E+03  0.7818608E-02  0.1012222E+00
         -2   -1    0    0    0  501 -0.00000000000E+00  0.00000000000E+00  0.29160396921E+03  0.29160396922E+03  0.25500000000E-02 0. -1.
          2   -1    0    0  501    0  0.00000000000E+00 -0.00000000000E+00 -0.21951467881E+03  0.21951467883E+03  0.25500000000E-02 0.  1.
    5000001    1    1    2    0    0 -0.17058944489E+03  0.82648160073E+02  0.65111782020E+01  0.25139385934E+03  0.16500000000E+03 0.  0.
   -5000001    1    1    2    0    0  0.17058944489E+03 -0.82648160073E+02  0.65578112193E+02  0.25972478871E+03  0.16500000000E+03 0.  0.
<mgrwt>
<rscale>  0 0.50600929E+03</rscale>
<asrwt>0</asrwt>
<pdfrwt beam="1">  1        2 0.33771489E-01 0.50600929E+03</pdfrwt>
<pdfrwt beam="2">  1       -2 0.44862149E-01 0.50600929E+03</pdfrwt>
<totfact> 0.73731478E+02</totfact>
</mgrwt>
</event>
<event>
 4    1  0.8404100E-005  0.4893003E+03  0.7818608E-02  0.1016610E+00
         -2   -1    0    0    0  501 -0.00000000000E+00  0.00000000000E+00  0.44431535136E+02  0.44431535209E+02  0.25500000000E-02 0. -1.
          2   -1    0    0  501    0  0.00000000000E+00 -0.00000000000E+00 -0.13470996284E+04  0.13470996284E+04  0.25500000000E-02 0.  1.
    5000001    1    1    2    0    0 -0.15270638619E+03  0.48324746840E+02 -0.41383378496E+03  0.47343206811E+03  0.16500000000E+03 0.  0.
   -5000001    1    1    2    0    0  0.15270638619E+03 -0.48324746840E+02 -0.88883430830E+03  0.91809909550E+03  0.16500000000E+03 0.  0.
<mgrwt>
<rscale>  0 0.48930034E+03</rscale>
<asrwt>0</asrwt>
<pdfrwt beam="1">  1        2 0.20724606E+00 0.48930034E+03</pdfrwt>
<pdfrwt beam="2">  1       -2 0.68356219E-02 0.48930034E+03</pdfrwt>
<totfact> 0.19906522E+03</totfact>
</mgrwt>
</event>
<event>
 4    1  0.8404100E-005  0.1065977E+04  0.7818608E-02  0.9239002E-01
          2   -1    0    0  501    0  0.00000000000E+00  0.00000000000E+00  0.25363474886E+03  0.25363474887E+03  0.25500000000E-02 0.  1.
         -2   -1    0    0    0  501 -0.00000000000E+00 -0.00000000000E+00 -0.11200232978E+04  0.11200232978E+04  0.25500000000E-02 0. -1.
    5000001    1    1    2    0    0  0.42275866712E+03  0.25244975493E+03 -0.27857895041E+03  0.58931061504E+03  0.16500000000E+03 0.  0.
   -5000001    1    1    2    0    0 -0.42275866712E+03 -0.25244975493E+03 -0.58780959855E+03  0.78434743165E+03  0.16500000000E+03 0.  0.
<mgrwt>
<rscale>  0 0.10659772E+04</rscale>
<asrwt>0</asrwt>
<pdfrwt beam="1">  1        2 0.39020731E-01 0.10659772E+04</pdfrwt>
<pdfrwt beam="2">  1       -2 0.17231127E+00 0.10659772E+04</pdfrwt>
<totfact> 0.27015113E+01</totfact>
</mgrwt>
</event>
<event>
 4    1  0.8404100E-005  0.3849103E+03  0.7818608E-02  0.1049134E+00
          2   -1    0    0  501    0  0.00000000000E+00  0.00000000000E+00  0.74899274057E+03  0.74899274058E+03  0.25500000000E-02 0.  1.
         -2   -1    0    0    0  501 -0.00000000000E+00 -0.00000000000E+00 -0.49451723607E+02  0.49451723673E+02  0.25500000000E-02 0. -1.
    5000001    1    1    2    0    0  0.79301964984E+02 -0.41407645683E+02  0.26150420763E+03  0.32188949250E+03  0.16500000000E+03 0.  0.
   -5000001    1    1    2    0    0 -0.79301964984E+02  0.41407645683E+02  0.43803680933E+03  0.47655497175E+03  0.16500000000E+03 0.  0.
<mgrwt>
<rscale>  0 0.38491029E+03</rscale>
<asrwt>0</asrwt>
<pdfrwt beam="1">  1        2 0.11522964E+00 0.38491029E+03</pdfrwt>
<pdfrwt beam="2">  1       -2 0.76079581E-02 0.38491029E+03</pdfrwt>
<totfact> 0.39665220E+03</totfact>
</mgrwt>
</event>
<event>
 4    1  0.8404100E-005  0.3945441E+03  0.7818608E-02  0.1045685E+00
          2   -1    0    0  501    0  0.00000000000E+00  0.00000000000E+00  0.42759004993E+03  0.42759004994E+03  0.25500000000E-02 0.  1.
         -2   -1    0    0    0  501 -0.00000000000E+00 -0.00000000000E+00 -0.91012997666E+02  0.91012997702E+02  0.25500000000E-02 0. -1.
    5000001    1    1    2    0    0  0.78015015552E+02  0.65319050840E+02  0.12020222617E+03  0.22809317445E+03  0.16500000000E+03 0.  0.
   -5000001    1    1    2    0    0 -0.78015015552E+02 -0.65319050840E+02  0.21637482610E+03  0.29050987319E+03  0.16500000000E+03 0.  0.
<mgrwt>
<rscale>  0 0.39454405E+03</rscale>
<asrwt>0</asrwt>
<pdfrwt beam="1">  1        2 0.65783086E-01 0.39454405E+03</pdfrwt>
<pdfrwt beam="2">  1       -2 0.14001999E-01 0.39454405E+03</pdfrwt>
<totfact> 0.28631203E+03</totfact>
</mgrwt>
</event>
<event>
 4    1  0.8404100E-005  0.4871632E+03  0.7818608E-02  0.1017185E+00
          2   -1    0    0  501    0  0.00000000000E+00  0.00000000000E+00  0.23320495157E+03  0.23320495159E+03  0.25500000000E-02 0.  1.
         -2   -1    0    0    0  501 -0.00000000000E+00 -0.00000000000E+00 -0.25441991951E+03  0.25441991952E+03  0.25500000000E-02 0. -1.
    5000001    1    1    2    0    0 -0.84639717253E+02  0.14981256365E+03  0.39432887604E+02  0.24163534217E+03  0.16500000000E+03 0.  0.
   -5000001    1    1    2    0    0  0.84639717253E+02 -0.14981256365E+03 -0.60647855541E+02  0.24598952893E+03  0.16500000000E+03 0.  0.
<mgrwt>
<rscale>  0 0.48716316E+03</rscale>
<asrwt>0</asrwt>
<pdfrwt beam="1">  1        2 0.35877685E-01 0.48716316E+03</pdfrwt>
<pdfrwt beam="2">  1       -2 0.39141526E-01 0.48716316E+03</pdfrwt>
<totfact> 0.89992056E+02</totfact>
</mgrwt>
</event>
<event>
 4    1  0.8404100E-005  0.5515262E+03  0.7818608E-02  0.1001141E+00
         -2   -1    0    0    0  501 -0.00000000000E+00  0.00000000000E+00  0.56456565345E+02  0.56456565403E+02  0.25500000000E-02 0. -1.
          2   -1    0    0  501    0  0.00000000000E+00 -0.00000000000E+00 -0.13469698525E+04  0.13469698525E+04  0.25500000000E-02 0.  1.
    5000001    1    1    2    0    0  0.18572130968E+03 -0.11637071176E+03 -0.71658530185E+03  0.76730309674E+03  0.16500000000E+03 0.  0.
   -5000001    1    1    2    0    0 -0.18572130968E+03  0.11637071176E+03 -0.57392798531E+03  0.63612332118E+03  0.16500000000E+03 0.  0.
<mgrwt>
<rscale>  0 0.55152622E+03</rscale>
<asrwt>0</asrwt>
<pdfrwt beam="1">  1        2 0.20722611E+00 0.55152622E+03</pdfrwt>
<pdfrwt beam="2">  1       -2 0.86856264E-02 0.55152622E+03</pdfrwt>
<totfact> 0.13593754E+03</totfact>
</mgrwt>
</event>
<event>
 4    1  0.8404100E-005  0.4401655E+03  0.7818608E-02  0.1030696E+00
         -2   -1    0    0    0  501 -0.00000000000E+00  0.00000000000E+00  0.28873463356E+02  0.28873463468E+02  0.25500000000E-02 0. -1.
          2   -1    0    0  501    0  0.00000000000E+00 -0.00000000000E+00 -0.16775412518E+04  0.16775412518E+04  0.25500000000E-02 0.  1.
    5000001    1    1    2    0    0 -0.54850667967E+02  0.13003449727E+03 -0.96378184627E+03  0.98793623957E+03  0.16500000000E+03 0.  0.
   -5000001    1    1    2    0    0  0.54850667967E+02 -0.13003449727E+03 -0.68488594221E+03  0.71847847574E+03  0.16500000000E+03 0.  0.
<mgrwt>
<rscale>  0 0.44016554E+03</rscale>
<asrwt>0</asrwt>
<pdfrwt beam="1">  1        2 0.25808319E+00 0.44016554E+03</pdfrwt>
<pdfrwt beam="2">  1       -2 0.44420726E-02 0.44016554E+03</pdfrwt>
<totfact> 0.25637943E+03</totfact>
</mgrwt>
</event>
<event>
 4    1  0.8404100E-005  0.4767984E+03  0.7818608E-02  0.1020019E+00
         -2   -1    0    0    0  501 -0.00000000000E+00  0.00000000000E+00  0.21211131417E+03  0.21211131419E+03  0.25500000000E-02 0. -1.
          2   -1    0    0  501    0  0.00000000000E+00 -0.00000000000E+00 -0.26794500442E+03  0.26794500444E+03  0.25500000000E-02 0.  1.
    5000001    1    1    2    0    0 -0.92088494064E+02  0.13231722540E+03  0.32669310386E+02  0.23298159309E+03  0.16500000000E+03 0.  0.
   -5000001    1    1    2    0    0  0.92088494064E+02 -0.13231722540E+03 -0.88503000637E+02  0.24707472554E+03  0.16500000000E+03 0.  0.
<mgrwt>
<rscale>  0 0.47679835E+03</rscale>
<asrwt>0</asrwt>
<pdfrwt beam="1">  1        2 0.41222308E-01 0.47679835E+03</pdfrwt>
<pdfrwt beam="2">  1       -2 0.32632510E-01 0.47679835E+03</pdfrwt>
<totfact> 0.10900500E+03</totfact>
</mgrwt>
</event>
<event>
 4    1  0.8404100E-005  0.4347064E+03  0.7818608E-02  0.1032383E+00
         -2   -1    0    0    0  501 -0.00000000000E+00  0.00000000000E+00  0.16594024022E+03  0.16594024023E+03  0.25500000000E-02 0. -1.
          2   -1    0    0  501    0  0.00000000000E+00 -0.00000000000E+00 -0.28469534766E+03  0.28469534767E+03  0.25500000000E-02 0.  1.
    5000001    1    1    2    0    0  0.39187974388E+02  0.12163330083E+03  0.35686270326E+01  0.20872971112E+03  0.16500000000E+03 0.  0.
   -5000001    1    1    2    0    0 -0.39187974388E+02 -0.12163330083E+03 -0.12232373448E+03  0.24190587679E+03  0.16500000000E+03 0.  0.
<mgrwt>
<rscale>  0 0.43470640E+03</rscale>
<asrwt>0</asrwt>
<pdfrwt beam="1">  1        2 0.43799284E-01 0.43470640E+03</pdfrwt>
<pdfrwt beam="2">  1       -2 0.25529268E-01 0.43470640E+03</pdfrwt>
<totfact> 0.15963124E+03</totfact>
</mgrwt>
</event>
<event>
 4    1  0.8404100E-005  0.7229773E+03  0.7818608E-02  0.9678725E-01
         -2   -1    0    0    0  501 -0.00000000000E+00  0.00000000000E+00  0.31720711381E+03  0.31720711382E+03  0.25500000000E-02 0. -1.
          2   -1    0    0  501    0  0.00000000000E+00 -0.00000000000E+00 -0.41195186021E+03  0.41195186022E+03  0.25500000000E-02 0.  1.
    5000001    1    1    2    0    0 -0.22041941312E+03  0.19698470138E+03 -0.17518943632E+03  0.38118765569E+03  0.16500000000E+03 0.  0.
   -5000001    1    1    2    0    0  0.22041941312E+03 -0.19698470138E+03  0.80444689913E+02  0.34797131834E+03  0.16500000000E+03 0.  0.
<mgrwt>
<rscale>  0 0.72297735E+03</rscale>
<asrwt>0</asrwt>
<pdfrwt beam="1">  1        2 0.63377210E-01 0.72297735E+03</pdfrwt>
<pdfrwt beam="2">  1       -2 0.48801094E-01 0.72297735E+03</pdfrwt>
<totfact> 0.30850980E+02</totfact>
</mgrwt>
</event>
<event>
 4    1  0.8404100E-005  0.7175235E+03  0.7818608E-02  0.9687725E-01
         -2   -1    0    0    0  501 -0.00000000000E+00  0.00000000000E+00  0.10094755144E+03  0.10094755147E+03  0.25500000000E-02 0.  1.
          2   -1    0    0  501    0  0.00000000000E+00 -0.00000000000E+00 -0.12750183953E+04  0.12750183953E+04  0.25500000000E-02 0. -1.
    5000001    1    1    2    0    0 -0.23265697107E+03  0.11004017342E+03 -0.22701104721E+03  0.38078487562E+03  0.16500000000E+03 0.  0.
   -5000001    1    1    2    0    0  0.23265697107E+03 -0.11004017342E+03 -0.94705979668E+03  0.99518107118E+03  0.16500000000E+03 0.  0.
<mgrwt>
<rscale>  0 0.71752348E+03</rscale>
<asrwt>0</asrwt>
<pdfrwt beam="1">  1        2 0.19615667E+00 0.71752348E+03</pdfrwt>
<pdfrwt beam="2">  1       -2 0.15530393E-01 0.71752348E+03</pdfrwt>
<totfact> 0.57038249E+02</totfact>
</mgrwt>
</event>
<event>
 4    1  0.8404100E-005  0.5154788E+03  0.7818608E-02  0.1009816E+00
         -2   -1    0    0    0  501 -0.00000000000E+00  0.00000000000E+00  0.56337702043E+02  0.56337702101E+02  0.25500000000E-02 0. -1.
          2   -1    0    0  501    0  0.00000000000E+00 -0.00000000000E+00 -0.11791321093E+04  0.11791321093E+04  0.25500000000E-02 0.  1.
    5000001    1    1    2    0    0 -0.39346531009E+02 -0.18006413310E+03 -0.38801228616E+03  0.46016277092E+03  0.16500000000E+03 0.  0.
   -5000001    1    1    2    0    0  0.39346531009E+02  0.18006413310E+03 -0.73478212110E+03  0.77530704048E+03  0.16500000000E+03 0.  0.
<mgrwt>
<rscale>  0 0.51547878E+03</rscale>
<asrwt>0</asrwt>
<pdfrwt beam="1">  1        2 0.18140492E+00 0.51547878E+03</pdfrwt>
<pdfrwt beam="2">  1       -2 0.86673396E-02 0.51547878E+03</pdfrwt>
<totfact> 0.17051548E+03</totfact>
</mgrwt>
</event>
<event>
 4    1  0.8404100E-005  0.6286161E+03  0.7818608E-02  0.9847753E-01
         -2   -1    0    0    0  501 -0.00000000000E+00  0.00000000000E+00  0.15480626004E+03  0.15480626006E+03  0.25500000000E-02 0. -1.
          2   -1    0    0  501    0  0.00000000000E+00 -0.00000000000E+00 -0.63814950457E+03  0.63814950458E+03  0.25500000000E-02 0.  1.
    5000001    1    1    2    0    0  0.10724169587E+03 -0.13483791400E+03  0.16482909812E+02  0.23912074502E+03  0.16500000000E+03 0.  0.
   -5000001    1    1    2    0    0 -0.10724169587E+03  0.13483791400E+03 -0.49982615435E+03  0.55383501962E+03  0.16500000000E+03 0.  0.
<mgrwt>
<rscale>  0 0.62861606E+03</rscale>
<asrwt>0</asrwt>
<pdfrwt beam="1">  1        2 0.98176845E-01 0.62861606E+03</pdfrwt>
<pdfrwt beam="2">  1       -2 0.23816348E-01 0.62861606E+03</pdfrwt>
<totfact> 0.72349961E+02</totfact>
</mgrwt>
</event>
<event>
 4    1  0.8404100E-005  0.4377501E+03  0.7818608E-02  0.1031439E+00
         -2   -1    0    0    0  501 -0.00000000000E+00  0.00000000000E+00  0.11365320358E+03  0.11365320361E+03  0.25500000000E-02 0. -1.
          2   -1    0    0  501    0  0.00000000000E+00 -0.00000000000E+00 -0.42151289983E+03  0.42151289983E+03  0.25500000000E-02 0.  1.
    5000001    1    1    2    0    0 -0.10557268472E+01  0.13972487318E+03 -0.19551656700E+03  0.29150623101E+03  0.16500000000E+03 0.  0.
   -5000001    1    1    2    0    0  0.10557268472E+01 -0.13972487318E+03 -0.11234312925E+03  0.24365987243E+03  0.16500000000E+03 0.  0.
<mgrwt>
<rscale>  0 0.43775012E+03</rscale>
<asrwt>0</asrwt>
<pdfrwt beam="1">  1        2 0.64848138E-01 0.43775012E+03</pdfrwt>
<pdfrwt beam="2">  1       -2 0.17485108E-01 0.43775012E+03</pdfrwt>
<totfact> 0.20063173E+03</totfact>
</mgrwt>
</event>
<event>
 4    1  0.8404100E-005  0.5071906E+03  0.7818608E-02  0.1011919E+00
          2   -1    0    0  501    0  0.00000000000E+00  0.00000000000E+00  0.94545347826E+03  0.94545347826E+03  0.25500000000E-02 0.  1.
         -2   -1    0    0    0  501 -0.00000000000E+00 -0.00000000000E+00 -0.68020878901E+02  0.68020878948E+02  0.25500000000E-02 0. -1.
    5000001    1    1    2    0    0  0.18303137919E+03  0.19512785362E+02  0.32560369593E+03  0.40880802508E+03  0.16500000000E+03 0.  0.
   -5000001    1    1    2    0    0 -0.18303137919E+03 -0.19512785362E+02  0.55182890342E+03  0.60466633213E+03  0.16500000000E+03 0.  0.
<mgrwt>
<rscale>  0 0.50719060E+03</rscale>
<asrwt>0</asrwt>
<pdfrwt beam="1">  1        2 0.14545439E+00 0.50719060E+03</pdfrwt>
<pdfrwt beam="2">  1       -2 0.10464750E-01 0.50719060E+03</pdfrwt>
<totfact> 0.17519174E+03</totfact>
</mgrwt>
</event>
<event>
 4    1  0.8404100E-005  0.5899703E+03  0.7818608E-02  0.9926436E-01
          2   -1    0    0  501    0  0.00000000000E+00  0.00000000000E+00  0.26019161914E+04  0.26019161914E+04  0.25500000000E-02 0.  1.
         -2   -1    0    0    0  501 -0.00000000000E+00 -0.00000000000E+00 -0.33443135174E+02  0.33443135271E+02  0.25500000000E-02 0. -1.
    5000001    1    1    2    0    0  0.18183651333E+03  0.15372403136E+03  0.10357030498E+04  0.10754540449E+04  0.16500000000E+03 0.  0.
   -5000001    1    1    2    0    0 -0.18183651333E+03 -0.15372403136E+03  0.15327700064E+04  0.15599052817E+04  0.16500000000E+03 0.  0.
<mgrwt>
<rscale>  0 0.58997029E+03</rscale>
<asrwt>0</asrwt>
<pdfrwt beam="1">  1        2 0.40029484E+00 0.58997029E+03</pdfrwt>
<pdfrwt beam="2">  1       -2 0.51450972E-02 0.58997029E+03</pdfrwt>
<totfact> 0.63298812E+02</totfact>
</mgrwt>
</event>
<event>
 4    1  0.8404100E-005  0.3561600E+03  0.7818608E-02  0.1060115E+00
          2   -1    0    0  501    0  0.00000000000E+00  0.00000000000E+00  0.22517097814E+04  0.22517097814E+04  0.25500000000E-02 0.  1.
         -2   -1    0    0    0  501 -0.00000000000E+00 -0.00000000000E+00 -0.14083736708E+02  0.14083736939E+02  0.25500000000E-02 0. -1.
    5000001    1    1    2    0    0  0.61141087864E+02  0.44968228589E+01  0.94704233782E+03  0.96326146174E+03  0.16500000000E+03 0.  0.
   -5000001    1    1    2    0    0 -0.61141087864E+02 -0.44968228589E+01  0.12905837068E+04  0.13025320566E+04  0.16500000000E+03 0.  0.
<mgrwt>
<rscale>  0 0.35616001E+03</rscale>
<asrwt>0</asrwt>
<pdfrwt beam="1">  1        2 0.34641653E+00 0.35616001E+03</pdfrwt>
<pdfrwt beam="2">  1       -2 0.21667310E-02 0.35616001E+03</pdfrwt>
<totfact> 0.37410849E+03</totfact>
</mgrwt>
</event>
<event>
 4    1  0.8404100E-005  0.3743017E+03  0.7818608E-02  0.1053060E+00
          2   -1    0    0  501    0  0.00000000000E+00  0.00000000000E+00  0.13712195963E+04  0.13712195963E+04  0.25500000000E-02 0.  1.
         -2   -1    0    0    0  501 -0.00000000000E+00 -0.00000000000E+00 -0.25543270641E+02  0.25543270769E+02  0.25500000000E-02 0. -1.
    5000001    1    1    2    0    0  0.41724582874E+02 -0.33964028733E+02  0.41146444072E+03  0.44656744400E+03  0.16500000000E+03 0.  0.
   -5000001    1    1    2    0    0 -0.41724582874E+02  0.33964028733E+02  0.93421188489E+03  0.95019542303E+03  0.16500000000E+03 0.  0.
<mgrwt>
<rscale>  0 0.37430166E+03</rscale>
<asrwt>0</asrwt>
<pdfrwt beam="1">  1        2 0.21095689E+00 0.37430166E+03</pdfrwt>
<pdfrwt beam="2">  1       -2 0.39297334E-02 0.37430166E+03</pdfrwt>
<totfact> 0.45378377E+03</totfact>
</mgrwt>
</event>
<event>
 4    1  0.8404100E-005  0.7924825E+03  0.7818608E-02  0.9570963E-01
          2   -1    0    0  501    0  0.00000000000E+00  0.00000000000E+00  0.30601638338E+04  0.30601638338E+04  0.25500000000E-02 0.  1.
         -2   -1    0    0    0  501 -0.00000000000E+00 -0.00000000000E+00 -0.51306769834E+02  0.51306769898E+02  0.25500000000E-02 0. -1.
    5000001    1    1    2    0    0 -0.71756074443E+02 -0.34505015054E+03  0.12113100600E+04  0.12722836170E+04  0.16500000000E+03 0.  0.
   -5000001    1    1    2    0    0  0.71756074443E+02  0.34505015054E+03  0.17975470039E+04  0.18391869867E+04  0.16500000000E+03 0.  0.
<mgrwt>
<rscale>  0 0.79248248E+03</rscale>
<asrwt>0</asrwt>
<pdfrwt beam="1">  1        2 0.47079455E+00 0.79248248E+03</pdfrwt>
<pdfrwt beam="2">  1       -2 0.78933474E-02 0.79248248E+03</pdfrwt>
<totfact> 0.16880666E+02</totfact>
</mgrwt>
</event>
<event>
 4    1  0.8404100E-005  0.6957788E+03  0.7818608E-02  0.9724478E-01
          2   -1    0    0  501    0  0.00000000000E+00  0.00000000000E+00  0.37682901644E+03  0.37682901645E+03  0.25500000000E-02 0.  1.
         -2   -1    0    0    0  501 -0.00000000000E+00 -0.00000000000E+00 -0.32117225911E+03  0.32117225912E+03  0.25500000000E-02 0. -1.
    5000001    1    1    2    0    0 -0.21008445926E+03  0.22130403224E+03  0.54200594798E+02  0.35110348786E+03  0.16500000000E+03 0.  0.
   -5000001    1    1    2    0    0  0.21008445926E+03 -0.22130403224E+03  0.14561625281E+01  0.34689778771E+03  0.16500000000E+03 0.  0.
<mgrwt>
<rscale>  0 0.69577878E+03</rscale>
<asrwt>0</asrwt>
<pdfrwt beam="1">  1        2 0.57973695E-01 0.69577878E+03</pdfrwt>
<pdfrwt beam="2">  1       -2 0.49411117E-01 0.69577878E+03</pdfrwt>
<totfact> 0.33276317E+02</totfact>
</mgrwt>
</event>
<event>
 4    1  0.8404100E-005  0.3675024E+03  0.7818608E-02  0.1055652E+00
         -2   -1    0    0    0  501 -0.00000000000E+00  0.00000000000E+00  0.10747505525E+02  0.10747505827E+02  0.25500000000E-02 0. -1.
          2   -1    0    0  501    0  0.00000000000E+00 -0.00000000000E+00 -0.31416133504E+04  0.31416133504E+04  0.25500000000E-02 0.  1.
    5000001    1    1    2    0    0  0.41704314520E+02  0.61578629345E+02 -0.12930517783E+04  0.13056565700E+04  0.16500000000E+03 0.  0.
   -5000001    1    1    2    0    0 -0.41704314520E+02 -0.61578629345E+02 -0.18378140665E+04  0.18467042861E+04  0.16500000000E+03 0.  0.
<mgrwt>
<rscale>  0 0.36750242E+03</rscale>
<asrwt>0</asrwt>
<pdfrwt beam="1">  1        2 0.48332440E+00 0.36750242E+03</pdfrwt>
<pdfrwt beam="2">  1       -2 0.16534649E-02 0.36750242E+03</pdfrwt>
<totfact> 0.17301820E+03</totfact>
</mgrwt>
</event>
<event>
 4    1  0.8404100E-005  0.5900608E+03  0.7818608E-02  0.9926244E-01
         -2   -1    0    0    0  501 -0.00000000000E+00  0.00000000000E+00  0.42038523352E+02  0.42038523429E+02  0.25500000000E-02 0. -1.
          2   -1    0    0  501    0  0.00000000000E+00 -0.00000000000E+00 -0.20705516609E+04  0.20705516609E+04  0.25500000000E-02 0.  1.
    5000001    1    1    2    0    0  0.18966411596E+03  0.13077746620E+03 -0.13082487642E+04  0.13385869608E+04  0.16500000000E+03 0.  0.
   -5000001    1    1    2    0    0 -0.18966411596E+03 -0.13077746620E+03 -0.72026437336E+03  0.77400322356E+03  0.16500000000E+03 0.  0.
<mgrwt>
<rscale>  0 0.59006079E+03</rscale>
<asrwt>0</asrwt>
<pdfrwt beam="1">  1        2 0.31854633E+00 0.59006079E+03</pdfrwt>
<pdfrwt beam="2">  1       -2 0.64674667E-02 0.59006079E+03</pdfrwt>
<totfact> 0.87228429E+02</totfact>
</mgrwt>
</event>
<event>
 4    1  0.8404100E-005  0.6463552E+03  0.7818608E-02  0.9813643E-01
         -2   -1    0    0    0  501 -0.00000000000E+00  0.00000000000E+00  0.10883875057E+03  0.10883875060E+03  0.25500000000E-02 0. -1.
          2   -1    0    0  501    0  0.00000000000E+00 -0.00000000000E+00 -0.95961916993E+03  0.95961916994E+03  0.25500000000E-02 0.  1.
    5000001    1    1    2    0    0 -0.72417505782E+02 -0.25767047711E+03 -0.30190408993E+03  0.43590073347E+03  0.16500000000E+03 0.  0.
   -5000001    1    1    2    0    0  0.72417505782E+02  0.25767047711E+03 -0.54887632943E+03  0.63255718708E+03  0.16500000000E+03 0.  0.
<mgrwt>
<rscale>  0 0.64635517E+03</rscale>
<asrwt>0</asrwt>
<pdfrwt beam="1">  1        2 0.14763371E+00 0.64635517E+03</pdfrwt>
<pdfrwt beam="2">  1       -2 0.16744424E-01 0.64635517E+03</pdfrwt>
<totfact> 0.78279668E+02</totfact>
</mgrwt>
</event>
<event>
 4    1  0.8404100E-005  0.5599657E+03  0.7818608E-02  0.9992132E-01
          2   -1    0    0  501    0  0.00000000000E+00  0.00000000000E+00  0.25655589795E+04  0.25655589795E+04  0.25500000000E-02 0.  1.
         -2   -1    0    0    0  501 -0.00000000000E+00 -0.00000000000E+00 -0.30554904339E+02  0.30554904446E+02  0.25500000000E-02 0. -1.
    5000001    1    1    2    0    0  0.17803107647E+03  0.32315454020E+02  0.18968321002E+04  0.19125732323E+04  0.16500000000E+03 0.  0.
   -5000001    1    1    2    0    0 -0.17803107647E+03 -0.32315454020E+02  0.63817197494E+03  0.68354065158E+03  0.16500000000E+03 0.  0.
<mgrwt>
<rscale>  0 0.55996575E+03</rscale>
<asrwt>0</asrwt>
<pdfrwt beam="1">  1        2 0.39470139E+00 0.55996575E+03</pdfrwt>
<pdfrwt beam="2">  1       -2 0.47007544E-02 0.55996575E+03</pdfrwt>
<totfact> 0.76567733E+02</totfact>
</mgrwt>
</event>
<event>
 4    1  0.8404100E-005  0.4004597E+03  0.7818608E-02  0.1043621E+00
         -2   -1    0    0    0  501 -0.00000000000E+00  0.00000000000E+00  0.56492601850E+02  0.56492601908E+02  0.25500000000E-02 0. -1.
          2   -1    0    0  501    0  0.00000000000E+00 -0.00000000000E+00 -0.70968587291E+03  0.70968587292E+03  0.25500000000E-02 0.  1.
    5000001    1    1    2    0    0  0.82903735959E+02  0.52158941178E+02 -0.21713252757E+03  0.28976735342E+03  0.16500000000E+03 0.  0.
   -5000001    1    1    2    0    0 -0.82903735959E+02 -0.52158941178E+02 -0.43606074349E+03  0.47641112140E+03  0.16500000000E+03 0.  0.
<mgrwt>
<rscale>  0 0.40045974E+03</rscale>
<asrwt>0</asrwt>
<pdfrwt beam="1">  1        2 0.10918244E+00 0.40045974E+03</pdfrwt>
<pdfrwt beam="2">  1       -2 0.86911700E-02 0.40045974E+03</pdfrwt>
<totfact> 0.34400208E+03</totfact>
</mgrwt>
</event>
<event>
 4    1  0.8404100E-005  0.4011143E+03  0.7818608E-02  0.1043395E+00
          2   -1    0    0  501    0  0.00000000000E+00  0.00000000000E+00  0.11335398042E+04  0.11335398042E+04  0.25500000000E-02 0.  1.
         -2   -1    0    0    0  501 -0.00000000000E+00 -0.00000000000E+00 -0.35484571912E+02  0.35484572003E+02  0.25500000000E-02 0. -1.
    5000001    1    1    2    0    0  0.61350424468E+02  0.89124423285E+02  0.65375050638E+03  0.68287756003E+03  0.16500000000E+03 0.  0.
   -5000001    1    1    2    0    0 -0.61350424468E+02 -0.89124423285E+02  0.44430472591E+03  0.48614681617E+03  0.16500000000E+03 0.  0.
<mgrwt>
<rscale>  0 0.40111432E+03</rscale>
<asrwt>0</asrwt>
<pdfrwt beam="1">  1        2 0.17439076E+00 0.40111432E+03</pdfrwt>
<pdfrwt beam="2">  1       -2 0.54591642E-02 0.40111432E+03</pdfrwt>
<totfact> 0.37498308E+03</totfact>
</mgrwt>
</event>
<event>
 4    1  0.8404100E-005  0.5028608E+03  0.7818608E-02  0.1013035E+00
          2   -1    0    0  501    0  0.00000000000E+00  0.00000000000E+00  0.64636114333E+03  0.64636114333E+03  0.25500000000E-02 0.  1.
         -2   -1    0    0    0  501 -0.00000000000E+00 -0.00000000000E+00 -0.97804831990E+02  0.97804832023E+02  0.25500000000E-02 0. -1.
    5000001    1    1    2    0    0  0.10678913155E+03  0.15607023188E+03  0.25181503918E+03  0.35552447153E+03  0.16500000000E+03 0.  0.
   -5000001    1    1    2    0    0 -0.10678913155E+03 -0.15607023188E+03  0.29674127216E+03  0.38864150383E+03  0.16500000000E+03 0.  0.
<mgrwt>
<rscale>  0 0.50286079E+03</rscale>
<asrwt>0</asrwt>
<pdfrwt beam="1">  1        2 0.99440179E-01 0.50286079E+03</pdfrwt>
<pdfrwt beam="2">  1       -2 0.15046897E-01 0.50286079E+03</pdfrwt>
<totfact> 0.15785825E+03</totfact>
</mgrwt>
</event>
<event>
 4    1  0.8404100E-005  0.4889929E+03  0.7818608E-02  0.1016693E+00
         -2   -1    0    0    0  501 -0.00000000000E+00  0.00000000000E+00  0.28428706157E+02  0.28428706271E+02  0.25500000000E-02 0. -1.
          2   -1    0    0  501    0  0.00000000000E+00 -0.00000000000E+00 -0.21027517555E+04  0.21027517555E+04  0.25500000000E-02 0.  1.
    5000001    1    1    2    0    0  0.16659371336E+03 -0.36976638740E+02 -0.12925141543E+04  0.13141303498E+04  0.16500000000E+03 0.  0.
   -5000001    1    1    2    0    0 -0.16659371336E+03  0.36976638740E+02 -0.78180889504E+03  0.81705011199E+03  0.16500000000E+03 0.  0.
<mgrwt>
<rscale>  0 0.48899289E+03</rscale>
<asrwt>0</asrwt>
<pdfrwt beam="1">  1        2 0.32350015E+00 0.48899289E+03</pdfrwt>
<pdfrwt beam="2">  1       -2 0.43736488E-02 0.48899289E+03</pdfrwt>
<totfact> 0.15486871E+03</totfact>
</mgrwt>
</event>
<event>
 4    1  0.8404100E-005  0.9474325E+03  0.7818608E-02  0.9368157E-01
         -2   -1    0    0    0  501 -0.00000000000E+00  0.00000000000E+00  0.48694132023E+03  0.48694132024E+03  0.25500000000E-02 0. -1.
          2   -1    0    0  501    0  0.00000000000E+00 -0.00000000000E+00 -0.46085036783E+03  0.46085036784E+03  0.25500000000E-02 0.  1.
    5000001    1    1    2    0    0  0.26503875176E+03 -0.18534032423E+03  0.31743950580E+03  0.48227524875E+03  0.16500000000E+03 0.  0.
   -5000001    1    1    2    0    0 -0.26503875176E+03  0.18534032423E+03 -0.29134855340E+03  0.46551643933E+03  0.16500000000E+03 0.  0.
<mgrwt>
<rscale>  0 0.94743250E+03</rscale>
<asrwt>0</asrwt>
<pdfrwt beam="1">  1        2 0.70900057E-01 0.94743250E+03</pdfrwt>
<pdfrwt beam="2">  1       -2 0.74914049E-01 0.94743250E+03</pdfrwt>
<totfact> 0.10853419E+02</totfact>
</mgrwt>
</event>
<event>
 4    1  0.8404100E-005  0.9028600E+03  0.7818608E-02  0.9422013E-01
         -2   -1    0    0    0  501 -0.00000000000E+00  0.00000000000E+00  0.40778733359E+03  0.40778733360E+03  0.25500000000E-02 0. -1.
          2   -1    0    0  501    0  0.00000000000E+00 -0.00000000000E+00 -0.49974344991E+03  0.49974344992E+03  0.25500000000E-02 0.  1.
    5000001    1    1    2    0    0  0.19857699233E+03  0.37011645605E+03 -0.58083450103E+02  0.45499197806E+03  0.16500000000E+03 0.  0.
   -5000001    1    1    2    0    0 -0.19857699233E+03 -0.37011645605E+03 -0.33872666215E+02  0.45253880545E+03  0.16500000000E+03 0.  0.
<mgrwt>
<rscale>  0 0.90286001E+03</rscale>
<asrwt>0</asrwt>
<pdfrwt beam="1">  1        2 0.76883607E-01 0.90286001E+03</pdfrwt>
<pdfrwt beam="2">  1       -2 0.62736513E-01 0.90286001E+03</pdfrwt>
<totfact> 0.14569773E+02</totfact>
</mgrwt>
</event>
<event>
 4    1  0.8404100E-005  0.5505126E+03  0.7818608E-02  0.1001375E+00
          2   -1    0    0  501    0  0.00000000000E+00  0.00000000000E+00  0.46941349348E+03  0.46941349349E+03  0.25500000000E-02 0.  1.
         -2   -1    0    0    0  501 -0.00000000000E+00 -0.00000000000E+00 -0.16140576063E+03  0.16140576065E+03  0.25500000000E-02 0. -1.
    5000001    1    1    2    0    0  0.54922100471E+02 -0.15325113751E+03 -0.16106417452E+02  0.23235052174E+03  0.16500000000E+03 0.  0.
   -5000001    1    1    2    0    0 -0.54922100471E+02  0.15325113751E+03  0.32411415031E+03  0.39846873240E+03  0.16500000000E+03 0.  0.
<mgrwt>
<rscale>  0 0.55051264E+03</rscale>
<asrwt>0</asrwt>
<pdfrwt beam="1">  1        2 0.72217461E-01 0.55051264E+03</pdfrwt>
<pdfrwt beam="2">  1       -2 0.24831655E-01 0.55051264E+03</pdfrwt>
<totfact> 0.96424843E+02</totfact>
</mgrwt>
</event>
<event>
 4    1  0.8404100E-005  0.6370691E+03  0.7818608E-02  0.9831350E-01
         -2   -1    0    0    0  501 -0.00000000000E+00  0.00000000000E+00  0.12303873093E+03  0.12303873096E+03  0.25500000000E-02 0. -1.
          2   -1    0    0  501    0  0.00000000000E+00 -0.00000000000E+00 -0.82465291698E+03  0.82465291698E+03  0.25500000000E-02 0.  1.
    5000001    1    1    2    0    0 -0.19253893307E+03  0.13277634701E+03 -0.14287305746E+03  0.31990390686E+03  0.16500000000E+03 0.  0.
   -5000001    1    1    2    0    0  0.19253893307E+03 -0.13277634701E+03 -0.55874112859E+03  0.62778774108E+03  0.16500000000E+03 0.  0.
<mgrwt>
<rscale>  0 0.63706906E+03</rscale>
<asrwt>0</asrwt>
<pdfrwt beam="1">  1        2 0.12686968E+00 0.63706906E+03</pdfrwt>
<pdfrwt beam="2">  1       -2 0.18929036E-01 0.63706906E+03</pdfrwt>
<totfact> 0.78172677E+02</totfact>
</mgrwt>
</event>
<event>
 4    1  0.8404100E-005  0.7006775E+03  0.7818608E-02  0.9716074E-01
         -2   -1    0    0    0  501 -0.00000000000E+00  0.00000000000E+00  0.36455700545E+03  0.36455700546E+03  0.25500000000E-02 0. -1.
          2   -1    0    0  501    0  0.00000000000E+00 -0.00000000000E+00 -0.33667502187E+03  0.33667502188E+03  0.25500000000E-02 0.  1.
    5000001    1    1    2    0    0 -0.13786036296E+03  0.12558508844E+03 -0.23269906216E+03  0.34080925404E+03  0.16500000000E+03 0.  0.
   -5000001    1    1    2    0    0  0.13786036296E+03 -0.12558508844E+03  0.26058104574E+03  0.36042277330E+03  0.16500000000E+03 0.  0.
<mgrwt>
<rscale>  0 0.70067749E+03</rscale>
<asrwt>0</asrwt>
<pdfrwt beam="1">  1        2 0.51796157E-01 0.70067749E+03</pdfrwt>
<pdfrwt beam="2">  1       -2 0.56085693E-01 0.70067749E+03</pdfrwt>
<totfact> 0.29083577E+02</totfact>
</mgrwt>
</event>
<event>
 4    1  0.8404100E-005  0.1230981E+04  0.7818608E-02  0.9086163E-01
         -2   -1    0    0    0  501 -0.00000000000E+00  0.00000000000E+00  0.47351212791E+03  0.47351212792E+03  0.25500000000E-02 0. -1.
          2   -1    0    0  501    0  0.00000000000E+00 -0.00000000000E+00 -0.80004001809E+03  0.80004001809E+03  0.25500000000E-02 0.  1.
    5000001    1    1    2    0    0  0.36620671177E+03 -0.40794449102E+03 -0.39708333190E+03  0.69672536625E+03  0.16500000000E+03 0.  0.
   -5000001    1    1    2    0    0 -0.36620671177E+03  0.40794449102E+03  0.70555441722E+02  0.57682677977E+03  0.16500000000E+03 0.  0.
<mgrwt>
<rscale>  0 0.12309812E+04</rscale>
<asrwt>0</asrwt>
<pdfrwt beam="1">  1        2 0.12308308E+00 0.12309812E+04</pdfrwt>
<pdfrwt beam="2">  1       -2 0.72848020E-01 0.12309812E+04</pdfrwt>
<totfact> 0.57790406E+01</totfact>
</mgrwt>
</event>
<event>
 4    1  0.8404100E-005  0.5349430E+03  0.7818608E-02  0.1005040E+00
          2   -1    0    0  501    0  0.00000000000E+00  0.00000000000E+00  0.42514172183E+04  0.42514172183E+04  0.25500000000E-02 0.  1.
         -2   -1    0    0    0  501 -0.00000000000E+00 -0.00000000000E+00 -0.16827564417E+02  0.16827564610E+02  0.25500000000E-02 0. -1.
    5000001    1    1    2    0    0 -0.51658656479E+02 -0.19936614659E+03  0.24651336764E+04  0.24792185300E+04  0.16500000000E+03 0.  0.
   -5000001    1    1    2    0    0  0.51658656479E+02  0.19936614659E+03  0.17694559775E+04  0.17890262529E+04  0.16500000000E+03 0.  0.
<mgrwt>
<rscale>  0 0.53494298E+03</rscale>
<asrwt>0</asrwt>
<pdfrwt beam="1">  1        2 0.65406493E+00 0.53494298E+03</pdfrwt>
<pdfrwt beam="2">  1       -2 0.25888531E-02 0.53494298E+03</pdfrwt>
<totfact> 0.13778518E+02</totfact>
</mgrwt>
</event>
<event>
 4    1  0.8404100E-005  0.5377204E+03  0.7818608E-02  0.1004377E+00
         -2   -1    0    0    0  501 -0.00000000000E+00  0.00000000000E+00  0.27793466163E+03  0.27793466165E+03  0.25500000000E-02 0. -1.
          2   -1    0    0  501    0  0.00000000000E+00 -0.00000000000E+00 -0.26008200793E+03  0.26008200795E+03  0.25500000000E-02 0.  1.
    5000001    1    1    2    0    0 -0.14278254399E+03 -0.10879290740E+03 -0.10444123667E+03  0.26524653341E+03  0.16500000000E+03 0.  0.
   -5000001    1    1    2    0    0  0.14278254399E+03  0.10879290740E+03  0.12229389037E+03  0.27277013618E+03  0.16500000000E+03 0.  0.
<mgrwt>
<rscale>  0 0.53772039E+03</rscale>
<asrwt>0</asrwt>
<pdfrwt beam="1">  1        2 0.40012616E-01 0.53772039E+03</pdfrwt>
<pdfrwt beam="2">  1       -2 0.42759179E-01 0.53772039E+03</pdfrwt>
<totfact> 0.67160972E+02</totfact>
</mgrwt>
</event>
<event>
 4    1  0.8404100E-005  0.6857710E+03  0.7818608E-02  0.9741880E-01
         -2   -1    0    0    0  501 -0.00000000000E+00  0.00000000000E+00  0.28844687259E+03  0.28844687260E+03  0.25500000000E-02 0. -1.
          2   -1    0    0  501    0  0.00000000000E+00 -0.00000000000E+00 -0.40759837712E+03  0.40759837713E+03  0.25500000000E-02 0.  1.
    5000001    1    1    2    0    0 -0.28409904750E+03  0.61262436963E+01  0.39849375950E+02  0.33100267735E+03  0.16500000000E+03 0.  0.
   -5000001    1    1    2    0    0  0.28409904750E+03 -0.61262436963E+01 -0.15900088048E+03  0.36504257237E+03  0.16500000000E+03 0.  0.
<mgrwt>
<rscale>  0 0.68577103E+03</rscale>
<asrwt>0</asrwt>
<pdfrwt beam="1">  1        2 0.62707443E-01 0.68577103E+03</pdfrwt>
<pdfrwt beam="2">  1       -2 0.44376442E-01 0.68577103E+03</pdfrwt>
<totfact> 0.37814516E+02</totfact>
</mgrwt>
</event>
<event>
 4    1  0.8404100E-005  0.5128621E+03  0.7818608E-02  0.1010475E+00
          2   -1    0    0  501    0  0.00000000000E+00  0.00000000000E+00  0.41444651531E+03  0.41444651531E+03  0.25500000000E-02 0.  1.
         -2   -1    0    0    0  501 -0.00000000000E+00 -0.00000000000E+00 -0.15866192763E+03  0.15866192765E+03  0.25500000000E-02 0. -1.
    5000001    1    1    2    0    0  0.18638892415E+03  0.96222962936E+00  0.19668826899E+03  0.31725862019E+03  0.16500000000E+03 0.  0.
   -5000001    1    1    2    0    0 -0.18638892415E+03 -0.96222962936E+00  0.59096318687E+02  0.25584982277E+03  0.16500000000E+03 0.  0.
<mgrwt>
<rscale>  0 0.51286210E+03</rscale>
<asrwt>0</asrwt>
<pdfrwt beam="1">  1        2 0.63761002E-01 0.51286210E+03</pdfrwt>
<pdfrwt beam="2">  1       -2 0.24409528E-01 0.51286210E+03</pdfrwt>
<totfact> 0.11442893E+03</totfact>
</mgrwt>
</event>
<event>
 4    1  0.8404100E-005  0.6614620E+03  0.7818608E-02  0.9785506E-01
          2   -1    0    0  501    0  0.00000000000E+00  0.00000000000E+00  0.19486270291E+04  0.19486270291E+04  0.25500000000E-02 0.  1.
         -2   -1    0    0    0  501 -0.00000000000E+00 -0.00000000000E+00 -0.56133358120E+02  0.56133358178E+02  0.25500000000E-02 0. -1.
    5000001    1    1    2    0    0  0.13804735702E+03 -0.23614075546E+03  0.68661391053E+03  0.75728672992E+03  0.16500000000E+03 0.  0.
   -5000001    1    1    2    0    0 -0.13804735702E+03  0.23614075546E+03  0.12058797605E+04  0.12474736574E+04  0.16500000000E+03 0.  0.
<mgrwt>
<rscale>  0 0.66146195E+03</rscale>
<asrwt>0</asrwt>
<pdfrwt beam="1">  1        2 0.29978875E+00 0.66146195E+03</pdfrwt>
<pdfrwt beam="2">  1       -2 0.86359018E-02 0.66146195E+03</pdfrwt>
<totfact> 0.63854335E+02</totfact>
</mgrwt>
</event>
<event>
 4    1  0.8404100E-005  0.6357463E+03  0.7818608E-02  0.9833899E-01
          2   -1    0    0  501    0  0.00000000000E+00  0.00000000000E+00  0.63731754217E+03  0.63731754218E+03  0.25500000000E-02 0.  1.
         -2   -1    0    0    0  501 -0.00000000000E+00 -0.00000000000E+00 -0.15854471384E+03  0.15854471386E+03  0.25500000000E-02 0. -1.
    5000001    1    1    2    0    0  0.31942080366E+02  0.21188822762E+03  0.30280089967E+02  0.27213746774E+03  0.16500000000E+03 0.  0.
   -5000001    1    1    2    0    0 -0.31942080366E+02 -0.21188822762E+03  0.44849273837E+03  0.52372478829E+03  0.16500000000E+03 0.  0.
<mgrwt>
<rscale>  0 0.63574626E+03</rscale>
<asrwt>0</asrwt>
<pdfrwt beam="1">  1        2 0.98048853E-01 0.63574626E+03</pdfrwt>
<pdfrwt beam="2">  1       -2 0.24391494E-01 0.63574626E+03</pdfrwt>
<totfact> 0.69425381E+02</totfact>
</mgrwt>
</event>
<event>
 4    1  0.8404100E-005  0.3795666E+03  0.7818608E-02  0.1051094E+00
          2   -1    0    0  501    0  0.00000000000E+00  0.00000000000E+00  0.86589157315E+03  0.86589157316E+03  0.25500000000E-02 0.  1.
         -2   -1    0    0    0  501 -0.00000000000E+00 -0.00000000000E+00 -0.41596088481E+02  0.41596088559E+02  0.25500000000E-02 0. -1.
    5000001    1    1    2    0    0 -0.90423630716E+00 -0.73484537811E+02  0.55139117968E+03  0.58022239527E+03  0.16500000000E+03 0.  0.
   -5000001    1    1    2    0    0  0.90423630716E+00  0.73484537811E+02  0.27290430499E+03  0.32726526645E+03  0.16500000000E+03 0.  0.
<mgrwt>
<rscale>  0 0.37956661E+03</rscale>
<asrwt>0</asrwt>
<pdfrwt beam="1">  1        2 0.13321409E+00 0.37956661E+03</pdfrwt>
<pdfrwt beam="2">  1       -2 0.63993983E-02 0.37956661E+03</pdfrwt>
<totfact> 0.43066373E+03</totfact>
</mgrwt>
</event>
<event>
 4    1  0.8404100E-005  0.4809165E+03  0.7818608E-02  0.1018884E+00
         -2   -1    0    0    0  501 -0.00000000000E+00  0.00000000000E+00  0.10507872321E+03  0.10507872324E+03  0.25500000000E-02 0.  1.
          2   -1    0    0  501    0  0.00000000000E+00 -0.00000000000E+00 -0.55025579398E+03  0.55025579398E+03  0.25500000000E-02 0. -1.
    5000001    1    1    2    0    0  0.16880646129E+03 -0.19482893642E+02 -0.16607480168E+03  0.28927676068E+03  0.16500000000E+03 0.  0.
   -5000001    1    1    2    0    0 -0.16880646129E+03  0.19482893642E+02 -0.27910226909E+03  0.36605775655E+03  0.16500000000E+03 0.  0.
<mgrwt>
<rscale>  0 0.48091653E+03</rscale>
<asrwt>0</asrwt>
<pdfrwt beam="1">  1        2 0.84654736E-01 0.48091653E+03</pdfrwt>
<pdfrwt beam="2">  1       -2 0.16165958E-01 0.48091653E+03</pdfrwt>
<totfact> 0.16938601E+03</totfact>
</mgrwt>
</event>
<event>
 4    1  0.8404100E-005  0.4617928E+03  0.7818608E-02  0.1024263E+00
          2   -1    0    0  501    0  0.00000000000E+00  0.00000000000E+00  0.43503296877E+03  0.43503296878E+03  0.25500000000E-02 0.  1.
         -2   -1    0    0    0  501 -0.00000000000E+00 -0.00000000000E+00 -0.12254969330E+03  0.12254969332E+03  0.25500000000E-02 0. -1.
    5000001    1    1    2    0    0  0.13576870126E+03 -0.81627042847E+02  0.19427171549E+03  0.30010433820E+03  0.16500000000E+03 0.  0.
   -5000001    1    1    2    0    0 -0.13576870126E+03  0.81627042847E+02  0.11821155998E+03  0.25747832390E+03  0.16500000000E+03 0.  0.
<mgrwt>
<rscale>  0 0.46179284E+03</rscale>
<asrwt>0</asrwt>
<pdfrwt beam="1">  1        2 0.66928150E-01 0.46179284E+03</pdfrwt>
<pdfrwt beam="2">  1       -2 0.18853799E-01 0.46179284E+03</pdfrwt>
<totfact> 0.17033338E+03</totfact>
</mgrwt>
</event>
<event>
 4    1  0.8404100E-005  0.4633958E+03  0.7818608E-02  0.1023801E+00
          2   -1    0    0  501    0  0.00000000000E+00  0.00000000000E+00  0.18848609642E+03  0.18848609644E+03  0.25500000000E-02 0.  1.
         -2   -1    0    0    0  501 -0.00000000000E+00 -0.00000000000E+00 -0.28481638118E+03  0.28481638119E+03  0.25500000000E-02 0. -1.
    5000001    1    1    2    0    0  0.12735275718E+03  0.68120762809E+02 -0.12459649288E+03  0.25220715518E+03  0.16500000000E+03 0.  0.
   -5000001    1    1    2    0    0 -0.12735275718E+03 -0.68120762809E+02  0.28266208125E+02  0.22109532245E+03  0.16500000000E+03 0.  0.
<mgrwt>
<rscale>  0 0.46339585E+03</rscale>
<asrwt>0</asrwt>
<pdfrwt beam="1">  1        2 0.28997861E-01 0.46339585E+03</pdfrwt>
<pdfrwt beam="2">  1       -2 0.43817905E-01 0.46339585E+03</pdfrwt>
<totfact> 0.91538335E+02</totfact>
</mgrwt>
</event>
<event>
 4    1  0.8404100E-005  0.3681753E+03  0.7818608E-02  0.1055393E+00
          2   -1    0    0  501    0  0.00000000000E+00  0.00000000000E+00  0.65630727853E+03  0.65630727853E+03  0.25500000000E-02 0.  1.
         -2   -1    0    0    0  501 -0.00000000000E+00 -0.00000000000E+00 -0.51634761715E+02  0.51634761778E+02  0.25500000000E-02 0. -1.
    5000001    1    1    2    0    0 -0.32716427641E+02 -0.71761832158E+02  0.26185855884E+03  0.31939791801E+03  0.16500000000E+03 0.  0.
   -5000001    1    1    2    0    0  0.32716427641E+02  0.71761832158E+02  0.34281395797E+03  0.38854412229E+03  0.16500000000E+03 0.  0.
<mgrwt>
<rscale>  0 0.36817534E+03</rscale>
<asrwt>0</asrwt>
<pdfrwt beam="1">  1        2 0.10097035E+00 0.36817534E+03</pdfrwt>
<pdfrwt beam="2">  1       -2 0.79438098E-02 0.36817534E+03</pdfrwt>
<totfact> 0.43574819E+03</totfact>
</mgrwt>
</event>
<event>
 4    1  0.8404100E-005  0.5347840E+03  0.7818608E-02  0.1005078E+00
         -2   -1    0    0    0  501 -0.00000000000E+00  0.00000000000E+00  0.78976537857E+02  0.78976537898E+02  0.25500000000E-02 0. -1.
          2   -1    0    0  501    0  0.00000000000E+00 -0.00000000000E+00 -0.90531281821E+03  0.90531281822E+03  0.25500000000E-02 0.  1.
    5000001    1    1    2    0    0 -0.19322125268E+03  0.83283102044E+02 -0.41000985805E+03  0.48949321882E+03  0.16500000000E+03 0.  0.
   -5000001    1    1    2    0    0  0.19322125268E+03 -0.83283102044E+02 -0.41632642231E+03  0.49479613730E+03  0.16500000000E+03 0.  0.
<mgrwt>
<rscale>  0 0.53478396E+03</rscale>
<asrwt>0</asrwt>
<pdfrwt beam="1">  1        2 0.13927889E+00 0.53478396E+03</pdfrwt>
<pdfrwt beam="2">  1       -2 0.12150237E-01 0.53478396E+03</pdfrwt>
<totfact> 0.14578673E+03</totfact>
</mgrwt>
</event>
<event>
 4    1  0.8404100E-005  0.6304659E+03  0.7818608E-02  0.9844140E-01
         -2   -1    0    0    0  501 -0.00000000000E+00  0.00000000000E+00  0.28953447715E+02  0.28953447828E+02  0.25500000000E-02 0. -1.
          2   -1    0    0  501    0  0.00000000000E+00 -0.00000000000E+00 -0.34321231709E+04  0.34321231709E+04  0.25500000000E-02 0.  1.
    5000001    1    1    2    0    0 -0.13703829395E+03  0.22397913985E+03 -0.20121614583E+04  0.20359186829E+04  0.16500000000E+03 0.  0.
   -5000001    1    1    2    0    0  0.13703829395E+03 -0.22397913985E+03 -0.13910082649E+04  0.14251579359E+04  0.16500000000E+03 0.  0.
<mgrwt>
<rscale>  0 0.63046586E+03</rscale>
<asrwt>0</asrwt>
<pdfrwt beam="1">  1        2 0.52801863E+00 0.63046586E+03</pdfrwt>
<pdfrwt beam="2">  1       -2 0.44543793E-02 0.63046586E+03</pdfrwt>
<totfact> 0.24401708E+02</totfact>
</mgrwt>
</event>
<event>
 4    1  0.8404100E-005  0.6030385E+03  0.7818608E-02  0.9899122E-01
         -2   -1    0    0    0  501 -0.00000000000E+00  0.00000000000E+00  0.34141750482E+02  0.34141750577E+02  0.25500000000E-02 0. -1.
          2   -1    0    0  501    0  0.00000000000E+00 -0.00000000000E+00 -0.26628348912E+04  0.26628348912E+04  0.25500000000E-02 0.  1.
    5000001    1    1    2    0    0 -0.50531654268E+02 -0.24679041066E+03 -0.13821562848E+04  0.14145811927E+04  0.16500000000E+03 0.  0.
   -5000001    1    1    2    0    0  0.50531654268E+02  0.24679041066E+03 -0.12465368558E+04  0.12823954491E+04  0.16500000000E+03 0.  0.
<mgrwt>
<rscale>  0 0.60303846E+03</rscale>
<asrwt>0</asrwt>
<pdfrwt beam="1">  1        2 0.40966674E+00 0.60303846E+03</pdfrwt>
<pdfrwt beam="2">  1       -2 0.52525791E-02 0.60303846E+03</pdfrwt>
<totfact> 0.56495185E+02</totfact>
</mgrwt>
</event>
<event>
 4    1  0.8404100E-005  0.4620436E+03  0.7818608E-02  0.1024190E+00
         -2   -1    0    0    0  501 -0.00000000000E+00  0.00000000000E+00  0.41236411446E+02  0.41236411525E+02  0.25500000000E-02 0. -1.
          2   -1    0    0  501    0  0.00000000000E+00 -0.00000000000E+00 -0.12942706830E+04  0.12942706830E+04  0.25500000000E-02 0.  1.
    5000001    1    1    2    0    0 -0.13547261362E+03  0.85684948055E+02 -0.68792368480E+03  0.72536800004E+03  0.16500000000E+03 0.  0.
   -5000001    1    1    2    0    0  0.13547261362E+03 -0.85684948055E+02 -0.56511058670E+03  0.61013909444E+03  0.16500000000E+03 0.  0.
<mgrwt>
<rscale>  0 0.46204363E+03</rscale>
<asrwt>0</asrwt>
<pdfrwt beam="1">  1        2 0.19911854E+00 0.46204363E+03</pdfrwt>
<pdfrwt beam="2">  1       -2 0.63440643E-02 0.46204363E+03</pdfrwt>
<totfact> 0.23978201E+03</totfact>
</mgrwt>
</event>
<event>
 4    1  0.8404100E-005  0.5472991E+03  0.7818608E-02  0.1002121E+00
          2   -1    0    0  501    0  0.00000000000E+00  0.00000000000E+00  0.71120641651E+03  0.71120641651E+03  0.25500000000E-02 0.  1.
         -2   -1    0    0    0  501 -0.00000000000E+00 -0.00000000000E+00 -0.10529160744E+03  0.10529160747E+03  0.25500000000E-02 0. -1.
    5000001    1    1    2    0    0  0.16370375645E+03  0.13027893242E+03  0.39597567110E+03  0.47727691355E+03  0.16500000000E+03 0.  0.
   -5000001    1    1    2    0    0 -0.16370375645E+03 -0.13027893242E+03  0.20993913797E+03  0.33922111043E+03  0.16500000000E+03 0.  0.
<mgrwt>
<rscale>  0 0.54729907E+03</rscale>
<asrwt>0</asrwt>
<pdfrwt beam="1">  1        2 0.10941638E+00 0.54729907E+03</pdfrwt>
<pdfrwt beam="2">  1       -2 0.16198708E-01 0.54729907E+03</pdfrwt>
<totfact> 0.12383372E+03</totfact>
</mgrwt>
</event>
<event>
 4    1  0.8404100E-005  0.3838953E+03  0.7818608E-02  0.1049503E+00
         -2   -1    0    0    0  501 -0.00000000000E+00  0.00000000000E+00  0.53209584391E+02  0.53209584452E+02  0.25500000000E-02 0. -1.
          2   -1    0    0  501    0  0.00000000000E+00 -0.00000000000E+00 -0.69242965120E+03  0.69242965120E+03  0.25500000000E-02 0.  1.
    5000001    1    1    2    0    0 -0.46066203970E+02  0.51659366441E+02 -0.18465020595E+03  0.25712153517E+03  0.16500000000E+03 0.  0.
   -5000001    1    1    2    0    0  0.46066203970E+02 -0.51659366441E+02 -0.45456986085E+03  0.48851770048E+03  0.16500000000E+03 0.  0.
<mgrwt>
<rscale>  0 0.38389527E+03</rscale>
<asrwt>0</asrwt>
<pdfrwt beam="1">  1        2 0.10652763E+00 0.38389527E+03</pdfrwt>
<pdfrwt beam="2">  1       -2 0.81860905E-02 0.38389527E+03</pdfrwt>
<totfact> 0.38964236E+03</totfact>
</mgrwt>
</event>
<event>
 4    1  0.8404100E-005  0.4674336E+03  0.7818608E-02  0.1022647E+00
         -2   -1    0    0    0  501 -0.00000000000E+00  0.00000000000E+00  0.31728794871E+02  0.31728794974E+02  0.25500000000E-02 0. -1.
          2   -1    0    0  501    0  0.00000000000E+00 -0.00000000000E+00 -0.17215760951E+04  0.17215760951E+04  0.25500000000E-02 0.  1.
    5000001    1    1    2    0    0  0.15763380073E+03  0.38924093297E+02 -0.72424929070E+03  0.76034566827E+03  0.16500000000E+03 0.  0.
   -5000001    1    1    2    0    0 -0.15763380073E+03 -0.38924093297E+02 -0.96559800953E+03  0.99295922181E+03  0.16500000000E+03 0.  0.
<mgrwt>
<rscale>  0 0.46743357E+03</rscale>
<asrwt>0</asrwt>
<pdfrwt beam="1">  1        2 0.26485779E+00 0.46743357E+03</pdfrwt>
<pdfrwt beam="2">  1       -2 0.48813544E-02 0.46743357E+03</pdfrwt>
<totfact> 0.20983895E+03</totfact>
</mgrwt>
</event>
<event>
 4    1  0.8404100E-005  0.6256780E+03  0.7818608E-02  0.9853519E-01
         -2   -1    0    0    0  501 -0.00000000000E+00  0.00000000000E+00  0.10940648827E+03  0.10940648830E+03  0.25500000000E-02 0. -1.
          2   -1    0    0  501    0  0.00000000000E+00 -0.00000000000E+00 -0.89453793365E+03  0.89453793366E+03  0.25500000000E-02 0.  1.
    5000001    1    1    2    0    0  0.94384707069E+01 -0.24806126376E+03 -0.24017564330E+03  0.38279604875E+03  0.16500000000E+03 0.  0.
   -5000001    1    1    2    0    0 -0.94384707069E+01  0.24806126376E+03 -0.54495580209E+03  0.62114837321E+03  0.16500000000E+03 0.  0.
<mgrwt>
<rscale>  0 0.62567804E+03</rscale>
<asrwt>0</asrwt>
<pdfrwt beam="1">  1        2 0.13762122E+00 0.62567804E+03</pdfrwt>
<pdfrwt beam="2">  1       -2 0.16831768E-01 0.62567804E+03</pdfrwt>
<totfact> 0.85691024E+02</totfact>
</mgrwt>
</event>
<event>
 4    1  0.8404100E-005  0.8124726E+03  0.7818608E-02  0.9542137E-01
         -2   -1    0    0    0  501 -0.00000000000E+00  0.00000000000E+00  0.19935811816E+03  0.19935811817E+03  0.25500000000E-02 0. -1.
          2   -1    0    0  501    0  0.00000000000E+00 -0.00000000000E+00 -0.82779643669E+03  0.82779643670E+03  0.25500000000E-02 0.  1.
    5000001    1    1    2    0    0  0.26390283474E+03  0.17740377422E+03 -0.55636557163E+03  0.66172838430E+03  0.16500000000E+03 0.  0.
   -5000001    1    1    2    0    0 -0.26390283474E+03 -0.17740377422E+03 -0.72072746911E+02  0.36542617057E+03  0.16500000000E+03 0.  0.
<mgrwt>
<rscale>  0 0.81247262E+03</rscale>
<asrwt>0</asrwt>
<pdfrwt beam="1">  1        2 0.12735330E+00 0.81247262E+03</pdfrwt>
<pdfrwt beam="2">  1       -2 0.30670480E-01 0.81247262E+03</pdfrwt>
<totfact> 0.32503759E+02</totfact>
</mgrwt>
</event>
<event>
 4    1  0.8404100E-005  0.1197454E+04  0.7818608E-02  0.9115088E-01
         -2   -1    0    0    0  501 -0.00000000000E+00  0.00000000000E+00  0.81139261973E+03  0.81139261973E+03  0.25500000000E-02 0. -1.
          2   -1    0    0  501    0  0.00000000000E+00 -0.00000000000E+00 -0.44180095856E+03  0.44180095856E+03  0.25500000000E-02 0.  1.
    5000001    1    1    2    0    0  0.31780666937E+03  0.53160476776E+02 -0.31429026903E+03  0.47940639189E+03  0.16500000000E+03 0.  0.
   -5000001    1    1    2    0    0 -0.31780666937E+03 -0.53160476776E+02  0.68388193020E+03  0.77378718640E+03  0.16500000000E+03 0.  0.
<mgrwt>
<rscale>  0 0.11974540E+04</rscale>
<asrwt>0</asrwt>
<pdfrwt beam="1">  1        2 0.67969379E-01 0.11974540E+04</pdfrwt>
<pdfrwt beam="2">  1       -2 0.12482963E+00 0.11974540E+04</pdfrwt>
<totfact> 0.33709386E+01</totfact>
</mgrwt>
</event>
<event>
 4    1  0.8404100E-005  0.7690661E+03  0.7818608E-02  0.9605904E-01
         -2   -1    0    0    0  501 -0.00000000000E+00  0.00000000000E+00  0.61749427932E+03  0.61749427933E+03  0.25500000000E-02 0. -1.
          2   -1    0    0  501    0  0.00000000000E+00 -0.00000000000E+00 -0.23946080427E+03  0.23946080429E+03  0.25500000000E-02 0.  1.
    5000001    1    1    2    0    0  0.22063599541E+03  0.25927480265E+03  0.11232535390E+03  0.39464623511E+03  0.16500000000E+03 0.  0.
   -5000001    1    1    2    0    0 -0.22063599541E+03 -0.25927480265E+03  0.26570812115E+03  0.46230884850E+03  0.16500000000E+03 0.  0.
<mgrwt>
<rscale>  0 0.76906613E+03</rscale>
<asrwt>0</asrwt>
<pdfrwt beam="1">  1        2 0.36840124E-01 0.76906613E+03</pdfrwt>
<pdfrwt beam="2">  1       -2 0.94999118E-01 0.76906613E+03</pdfrwt>
<totfact> 0.13271605E+02</totfact>
</mgrwt>
</event>
<event>
 4    1  0.8404100E-005  0.8492969E+03  0.7818608E-02  0.9491281E-01
         -2   -1    0    0    0  501 -0.00000000000E+00  0.00000000000E+00  0.14217447813E+04  0.14217447813E+04  0.25500000000E-02 0. -1.
          2   -1    0    0  501    0  0.00000000000E+00 -0.00000000000E+00 -0.12683451257E+03  0.12683451259E+03  0.25500000000E-02 0.  1.
    5000001    1    1    2    0    0  0.31999857767E+02  0.31913993895E+03  0.10560967498E+04  0.11159926687E+04  0.16500000000E+03 0.  0.
   -5000001    1    1    2    0    0 -0.31999857767E+02 -0.31913993895E+03  0.23881351895E+03  0.43258662527E+03  0.16500000000E+03 0.  0.
<mgrwt>
<rscale>  0 0.84929690E+03</rscale>
<asrwt>0</asrwt>
<pdfrwt beam="1">  1        2 0.19513001E-01 0.84929690E+03</pdfrwt>
<pdfrwt beam="2">  1       -2 0.21872998E+00 0.84929690E+03</pdfrwt>
<totfact> 0.29848404E+01</totfact>
</mgrwt>
</event>
<event>
 4    1  0.8404100E-005  0.4151863E+03  0.7818608E-02  0.1038644E+00
          2   -1    0    0  501    0  0.00000000000E+00  0.00000000000E+00  0.38383844568E+04  0.38383844568E+04  0.25500000000E-02 0.  1.
         -2   -1    0    0    0  501 -0.00000000000E+00 -0.00000000000E+00 -0.11227356319E+02  0.11227356608E+02  0.25500000000E-02 0. -1.
    5000001    1    1    2    0    0  0.20684582559E+02 -0.81589019360E+02  0.10445140412E+04  0.10608106345E+04  0.16500000000E+03 0.  0.
   -5000001    1    1    2    0    0 -0.20684582559E+02  0.81589019360E+02  0.27826430593E+04  0.27888011789E+04  0.16500000000E+03 0.  0.
<mgrwt>
<rscale>  0 0.41518627E+03</rscale>
<asrwt>0</asrwt>
<pdfrwt beam="1">  1        2 0.59052064E+00 0.41518627E+03</pdfrwt>
<pdfrwt beam="2">  1       -2 0.17272857E-02 0.41518627E+03</pdfrwt>
<totfact> 0.54878508E+02</totfact>
</mgrwt>
</event>
<event>
 4    1  0.8404100E-005  0.5324574E+03  0.7818608E-02  0.1005638E+00
          2   -1    0    0  501    0  0.00000000000E+00  0.00000000000E+00  0.10505301535E+04  0.10505301535E+04  0.25500000000E-02 0.  1.
         -2   -1    0    0    0  501 -0.00000000000E+00 -0.00000000000E+00 -0.67468522323E+02  0.67468522371E+02  0.25500000000E-02 0. -1.
    5000001    1    1    2    0    0  0.18636266520E+02 -0.17420631680E+03  0.25251967408E+03  0.34883568774E+03  0.16500000000E+03 0.  0.
   -5000001    1    1    2    0    0 -0.18636266520E+02  0.17420631680E+03  0.73054195710E+03  0.76916298814E+03  0.16500000000E+03 0.  0.
<mgrwt>
<rscale>  0 0.53245739E+03</rscale>
<asrwt>0</asrwt>
<pdfrwt beam="1">  1        2 0.16162002E+00 0.53245739E+03</pdfrwt>
<pdfrwt beam="2">  1       -2 0.10379773E-01 0.53245739E+03</pdfrwt>
<totfact> 0.15234423E+03</totfact>
</mgrwt>
</event>
<event>
 4    1  0.8404100E-005  0.4328668E+03  0.7818608E-02  0.1032958E+00
         -2   -1    0    0    0  501 -0.00000000000E+00  0.00000000000E+00  0.13763026038E+03  0.13763026040E+03  0.25500000000E-02 0. -1.
          2   -1    0    0  501    0  0.00000000000E+00 -0.00000000000E+00 -0.34035702164E+03  0.34035702165E+03  0.25500000000E-02 0.  1.
    5000001    1    1    2    0    0  0.22976457458E+02 -0.13755473345E+03 -0.86999680109E+02  0.23290162436E+03  0.16500000000E+03 0.  0.
   -5000001    1    1    2    0    0 -0.22976457458E+02  0.13755473345E+03 -0.11572708115E+03  0.24508565769E+03  0.16500000000E+03 0.  0.
<mgrwt>
<rscale>  0 0.43286684E+03</rscale>
<asrwt>0</asrwt>
<pdfrwt beam="1">  1        2 0.52362618E-01 0.43286684E+03</pdfrwt>
<pdfrwt beam="2">  1       -2 0.21173886E-01 0.43286684E+03</pdfrwt>
<totfact> 0.18267659E+03</totfact>
</mgrwt>
</event>
<event>
 4    1  0.8404100E-005  0.7195228E+03  0.7818608E-02  0.9684416E-01
          2   -1    0    0  501    0  0.00000000000E+00  0.00000000000E+00  0.25979774912E+04  0.25979774912E+04  0.25500000000E-02 0.  1.
         -2   -1    0    0    0  501 -0.00000000000E+00 -0.00000000000E+00 -0.49818848788E+02  0.49818848854E+02  0.25500000000E-02 0. -1.
    5000001    1    1    2    0    0  0.47142136024E+02 -0.29551940288E+03  0.86020287903E+03  0.92559607365E+03  0.16500000000E+03 0.  0.
   -5000001    1    1    2    0    0 -0.47142136024E+02  0.29551940288E+03  0.16879557634E+04  0.17222002664E+04  0.16500000000E+03 0.  0.
<mgrwt>
<rscale>  0 0.71952275E+03</rscale>
<asrwt>0</asrwt>
<pdfrwt beam="1">  1        2 0.39968881E+00 0.71952275E+03</pdfrwt>
<pdfrwt beam="2">  1       -2 0.76644390E-02 0.71952275E+03</pdfrwt>
<totfact> 0.33571180E+02</totfact>
</mgrwt>
</event>
<event>
 4    1  0.8404100E-005  0.4783739E+03  0.7818608E-02  0.1019583E+00
          2   -1    0    0  501    0  0.00000000000E+00  0.00000000000E+00  0.77545188972E+03  0.77545188973E+03  0.25500000000E-02 0.  1.
         -2   -1    0    0    0  501 -0.00000000000E+00 -0.00000000000E+00 -0.73776849513E+02  0.73776849557E+02  0.25500000000E-02 0. -1.
    5000001    1    1    2    0    0  0.84275301197E+02 -0.18314630980E+02  0.84269649880E+02  0.20436273141E+03  0.16500000000E+03 0.  0.
   -5000001    1    1    2    0    0 -0.84275301197E+02  0.18314630980E+02  0.61740539033E+03  0.64486600787E+03  0.16500000000E+03 0.  0.
<mgrwt>
<rscale>  0 0.47837390E+03</rscale>
<asrwt>0</asrwt>
<pdfrwt beam="1">  1        2 0.11930029E+00 0.47837390E+03</pdfrwt>
<pdfrwt beam="2">  1       -2 0.11350285E-01 0.47837390E+03</pdfrwt>
<totfact> 0.20041647E+03</totfact>
</mgrwt>
</event>
<event>
 4    1  0.8404100E-005  0.9756895E+03  0.7818608E-02  0.9335617E-01
          2   -1    0    0  501    0  0.00000000000E+00  0.00000000000E+00  0.17113208227E+04  0.17113208227E+04  0.25500000000E-02 0.  1.
         -2   -1    0    0    0  501 -0.00000000000E+00 -0.00000000000E+00 -0.13906947043E+03  0.13906947046E+03  0.25500000000E-02 0. -1.
    5000001    1    1    2    0    0  0.33295980867E+02  0.34292360610E+03  0.13615557301E+04  0.14141302020E+04  0.16500000000E+03 0.  0.
   -5000001    1    1    2    0    0 -0.33295980867E+02 -0.34292360610E+03  0.21069562218E+03  0.43626009120E+03  0.16500000000E+03 0.  0.
<mgrwt>
<rscale>  0 0.97568946E+03</rscale>
<asrwt>0</asrwt>
<pdfrwt beam="1">  1        2 0.26328011E+00 0.97568946E+03</pdfrwt>
<pdfrwt beam="2">  1       -2 0.21395304E-01 0.97568946E+03</pdfrwt>
<totfact> 0.18345896E+02</totfact>
</mgrwt>
</event>
<event>
 4    1  0.8404100E-005  0.6920820E+03  0.7818608E-02  0.9730870E-01
         -2   -1    0    0    0  501 -0.00000000000E+00  0.00000000000E+00  0.17080987034E+03  0.17080987036E+03  0.25500000000E-02 0. -1.
          2   -1    0    0  501    0  0.00000000000E+00 -0.00000000000E+00 -0.70103888244E+03  0.70103888244E+03  0.25500000000E-02 0.  1.
    5000001    1    1    2    0    0 -0.30066046095E+03  0.43197990307E+02 -0.24493566254E+03  0.42365228422E+03  0.16500000000E+03 0.  0.
   -5000001    1    1    2    0    0  0.30066046095E+03 -0.43197990307E+02 -0.28529334956E+03  0.44819646858E+03  0.16500000000E+03 0.  0.
<mgrwt>
<rscale>  0 0.69208196E+03</rscale>
<asrwt>0</asrwt>
<pdfrwt beam="1">  1        2 0.10785213E+00 0.69208196E+03</pdfrwt>
<pdfrwt beam="2">  1       -2 0.26278442E-01 0.69208196E+03</pdfrwt>
<totfact> 0.53852846E+02</totfact>
</mgrwt>
</event>
<event>
 4    1  0.8404100E-005  0.2516713E+04  0.7818608E-02  0.8397056E-01
         -2   -1    0    0    0  501 -0.00000000000E+00  0.00000000000E+00  0.79913875572E+03  0.79913875572E+03  0.25500000000E-02 0.  1.
          2   -1    0    0  501    0  0.00000000000E+00 -0.00000000000E+00 -0.19814589308E+04  0.19814589308E+04  0.25500000000E-02 0. -1.
    5000001    1    1    2    0    0  0.52713750882E+03  0.10852355942E+04 -0.94163608961E+03  0.15393225047E+04  0.16500000000E+03 0.  0.
   -5000001    1    1    2    0    0 -0.52713750882E+03 -0.10852355942E+04 -0.24068408551E+03  0.12412751819E+04  0.16500000000E+03 0.  0.
<mgrwt>
<rscale>  0 0.25167126E+04</rscale>
<asrwt>0</asrwt>
<pdfrwt beam="1">  1        2 0.30483983E+00 0.25167126E+04</pdfrwt>
<pdfrwt beam="2">  1       -2 0.12294442E+00 0.25167126E+04</pdfrwt>
<totfact> 0.30459063E+00</totfact>
</mgrwt>
</event>
<event>
 4    1  0.8404100E-005  0.4820045E+03  0.7818608E-02  0.1018586E+00
         -2   -1    0    0    0  501 -0.00000000000E+00  0.00000000000E+00  0.79314519231E+03  0.79314519231E+03  0.25500000000E-02 0. -1.
          2   -1    0    0  501    0  0.00000000000E+00 -0.00000000000E+00 -0.73230068653E+02  0.73230068697E+02  0.25500000000E-02 0.  1.
    5000001    1    1    2    0    0 -0.17517789266E+03 -0.12984264517E+02  0.35799538092E+03  0.43155715492E+03  0.16500000000E+03 0.  0.
   -5000001    1    1    2    0    0  0.17517789266E+03  0.12984264517E+02  0.36191974273E+03  0.43481810608E+03  0.16500000000E+03 0.  0.
<mgrwt>
<rscale>  0 0.48200447E+03</rscale>
<asrwt>0</asrwt>
<pdfrwt beam="1">  1        2 0.11266164E-01 0.48200447E+03</pdfrwt>
<pdfrwt beam="2">  1       -2 0.12202234E+00 0.48200447E+03</pdfrwt>
<totfact> 0.29498481E+02</totfact>
</mgrwt>
</event>
<event>
 4    1  0.8404100E-005  0.4758267E+03  0.7818608E-02  0.1020288E+00
          2   -1    0    0  501    0  0.00000000000E+00  0.00000000000E+00  0.12946460312E+04  0.12946460312E+04  0.25500000000E-02 0.  1.
         -2   -1    0    0    0  501 -0.00000000000E+00 -0.00000000000E+00 -0.43720647464E+02  0.43720647539E+02  0.25500000000E-02 0. -1.
    5000001    1    1    2    0    0  0.61236020555E+02  0.13972994872E+03  0.40572015067E+03  0.46379753066E+03  0.16500000000E+03 0.  0.
   -5000001    1    1    2    0    0 -0.61236020555E+02 -0.13972994872E+03  0.84520523303E+03  0.87456914805E+03  0.16500000000E+03 0.  0.
<mgrwt>
<rscale>  0 0.47582670E+03</rscale>
<asrwt>0</asrwt>
<pdfrwt beam="1">  1        2 0.19917628E+00 0.47582670E+03</pdfrwt>
<pdfrwt beam="2">  1       -2 0.67262545E-02 0.47582670E+03</pdfrwt>
<totfact> 0.21864412E+03</totfact>
</mgrwt>
</event>
<event>
 4    1  0.8404100E-005  0.5336412E+03  0.7818608E-02  0.1005353E+00
         -2   -1    0    0    0  501 -0.00000000000E+00  0.00000000000E+00  0.27069948686E+03  0.27069948688E+03  0.25500000000E-02 0. -1.
          2   -1    0    0  501    0  0.00000000000E+00 -0.00000000000E+00 -0.26299727890E+03  0.26299727892E+03  0.25500000000E-02 0.  1.
    5000001    1    1    2    0    0  0.19273791785E+03 -0.63211638755E+02  0.57003720321E+02  0.26761547112E+03  0.16500000000E+03 0.  0.
   -5000001    1    1    2    0    0 -0.19273791785E+03  0.63211638755E+02 -0.49301512361E+02  0.26608129467E+03  0.16500000000E+03 0.  0.
<mgrwt>
<rscale>  0 0.53364118E+03</rscale>
<asrwt>0</asrwt>
<pdfrwt beam="1">  1        2 0.40461120E-01 0.53364118E+03</pdfrwt>
<pdfrwt beam="2">  1       -2 0.41646075E-01 0.53364118E+03</pdfrwt>
<totfact> 0.69858588E+02</totfact>
</mgrwt>
</event>
<event>
 4    1  0.8404100E-005  0.7952815E+03  0.7818608E-02  0.9566872E-01
         -2   -1    0    0    0  501 -0.00000000000E+00  0.00000000000E+00  0.40526671874E+03  0.40526671874E+03  0.25500000000E-02 0. -1.
          2   -1    0    0  501    0  0.00000000000E+00 -0.00000000000E+00 -0.39015831977E+03  0.39015831978E+03  0.25500000000E-02 0.  1.
    5000001    1    1    2    0    0 -0.12280337417E+03  0.32680638646E+03 -0.87384469756E+02  0.39590924275E+03  0.16500000000E+03 0.  0.
   -5000001    1    1    2    0    0  0.12280337417E+03 -0.32680638646E+03  0.10249286872E+03  0.39951579578E+03  0.16500000000E+03 0.  0.
<mgrwt>
<rscale>  0 0.79528154E+03</rscale>
<asrwt>0</asrwt>
<pdfrwt beam="1">  1        2 0.60024357E-01 0.79528154E+03</pdfrwt>
<pdfrwt beam="2">  1       -2 0.62348726E-01 0.79528154E+03</pdfrwt>
<totfact> 0.19675084E+02</totfact>
</mgrwt>
</event>
<event>
 4    1  0.8404100E-005  0.6035434E+03  0.7818608E-02  0.9898082E-01
          2   -1    0    0  501    0  0.00000000000E+00  0.00000000000E+00  0.84834895011E+03  0.84834895011E+03  0.25500000000E-02 0.  1.
         -2   -1    0    0    0  501 -0.00000000000E+00 -0.00000000000E+00 -0.10734517025E+03  0.10734517028E+03  0.25500000000E-02 0. -1.
    5000001    1    1    2    0    0  0.30744076394E+02  0.16920611481E+03  0.77387334942E+02  0.25057874437E+03  0.16500000000E+03 0.  0.
   -5000001    1    1    2    0    0 -0.30744076394E+02 -0.16920611481E+03  0.66361644492E+03  0.70511537601E+03  0.16500000000E+03 0.  0.
<mgrwt>
<rscale>  0 0.60354341E+03</rscale>
<asrwt>0</asrwt>
<pdfrwt beam="1">  1        2 0.13051522E+00 0.60354341E+03</pdfrwt>
<pdfrwt beam="2">  1       -2 0.16514642E-01 0.60354341E+03</pdfrwt>
<totfact> 0.95209973E+02</totfact>
</mgrwt>
</event>
<event>
 4    1  0.8404100E-005  0.5577926E+03  0.7818608E-02  0.9997062E-01
          2   -1    0    0  501    0  0.00000000000E+00  0.00000000000E+00  0.24104250118E+03  0.24104250119E+03  0.25500000000E-02 0.  1.
         -2   -1    0    0    0  501 -0.00000000000E+00 -0.00000000000E+00 -0.32269471987E+03  0.32269471988E+03  0.25500000000E-02 0. -1.
    5000001    1    1    2    0    0 -0.20617854456E+03 -0.84454627102E+02 -0.10238630750E+02  0.27743829194E+03  0.16500000000E+03 0.  0.
   -5000001    1    1    2    0    0  0.20617854456E+03  0.84454627102E+02 -0.71413587940E+02  0.28629892912E+03  0.16500000000E+03 0.  0.
<mgrwt>
<rscale>  0 0.55779259E+03</rscale>
<asrwt>0</asrwt>
<pdfrwt beam="1">  1        2 0.37083462E-01 0.55779259E+03</pdfrwt>
<pdfrwt beam="2">  1       -2 0.49645341E-01 0.55779259E+03</pdfrwt>
<totfact> 0.54246792E+02</totfact>
</mgrwt>
</event>
<event>
 4    1  0.8404100E-005  0.3791368E+03  0.7818608E-02  0.1051253E+00
         -2   -1    0    0    0  501 -0.00000000000E+00  0.00000000000E+00  0.20513870082E+02  0.20513870241E+02  0.25500000000E-02 0. -1.
          2   -1    0    0  501    0  0.00000000000E+00 -0.00000000000E+00 -0.17517994532E+04  0.17517994532E+04  0.25500000000E-02 0.  1.
    5000001    1    1    2    0    0  0.73564535087E+02  0.51977648082E+02 -0.97993365191E+03  0.99780177334E+03  0.16500000000E+03 0.  0.
   -5000001    1    1    2    0    0 -0.73564535087E+02 -0.51977648082E+02 -0.75135193122E+03  0.77451155012E+03  0.16500000000E+03 0.  0.
<mgrwt>
<rscale>  0 0.37913684E+03</rscale>
<asrwt>0</asrwt>
<pdfrwt beam="1">  1        2 0.26950749E+00 0.37913684E+03</pdfrwt>
<pdfrwt beam="2">  1       -2 0.31559814E-02 0.37913684E+03</pdfrwt>
<totfact> 0.39368070E+03</totfact>
</mgrwt>
</event>
<event>
 4    1  0.8404100E-005  0.4473578E+03  0.7818608E-02  0.1028513E+00
          2   -1    0    0  501    0  0.00000000000E+00  0.00000000000E+00  0.89112251552E+03  0.89112251552E+03  0.25500000000E-02 0.  1.
         -2   -1    0    0    0  501 -0.00000000000E+00 -0.00000000000E+00 -0.56145208853E+02  0.56145208910E+02  0.25500000000E-02 0. -1.
    5000001    1    1    2    0    0 -0.93241254480E+02  0.50787374873E+02  0.64489737072E+03  0.67408523774E+03  0.16500000000E+03 0.  0.
   -5000001    1    1    2    0    0  0.93241254480E+02 -0.50787374873E+02  0.19007993594E+03  0.27318248669E+03  0.16500000000E+03 0.  0.
<mgrwt>
<rscale>  0 0.44735784E+03</rscale>
<asrwt>0</asrwt>
<pdfrwt beam="1">  1        2 0.13709576E+00 0.44735784E+03</pdfrwt>
<pdfrwt beam="2">  1       -2 0.86377252E-02 0.44735784E+03</pdfrwt>
<totfact> 0.25884188E+03</totfact>
</mgrwt>
</event>
<event>
 4    1  0.8404100E-005  0.5327440E+03  0.7818608E-02  0.1005569E+00
          2   -1    0    0  501    0  0.00000000000E+00  0.00000000000E+00  0.53008405702E+03  0.53008405703E+03  0.25500000000E-02 0.  1.
         -2   -1    0    0    0  501 -0.00000000000E+00 -0.00000000000E+00 -0.13385434432E+03  0.13385434435E+03  0.25500000000E-02 0. -1.
    5000001    1    1    2    0    0 -0.18642906495E+03  0.82608036682E+02  0.14033924330E+03  0.29748947409E+03  0.16500000000E+03 0.  0.
   -5000001    1    1    2    0    0  0.18642906495E+03 -0.82608036682E+02  0.25589046939E+03  0.36644892729E+03  0.16500000000E+03 0.  0.
<mgrwt>
<rscale>  0 0.53274404E+03</rscale>
<asrwt>0</asrwt>
<pdfrwt beam="1">  1        2 0.81551394E-01 0.53274404E+03</pdfrwt>
<pdfrwt beam="2">  1       -2 0.20592976E-01 0.53274404E+03</pdfrwt>
<totfact> 0.11676199E+03</totfact>
</mgrwt>
</event>
<event>
 4    1  0.8404100E-005  0.2365958E+04  0.7818608E-02  0.8452360E-01
          2   -1    0    0  501    0  0.00000000000E+00  0.00000000000E+00  0.16976132748E+04  0.16976132748E+04  0.25500000000E-02 0.  1.
         -2   -1    0    0    0  501 -0.00000000000E+00 -0.00000000000E+00 -0.82435666488E+03  0.82435666488E+03  0.25500000000E-02 0. -1.
    5000001    1    1    2    0    0 -0.56754880507E+03 -0.95737109789E+03  0.47096329517E+02  0.11261057364E+04  0.16500000000E+03 0.  0.
   -5000001    1    1    2    0    0  0.56754880507E+03  0.95737109789E+03  0.82616028039E+03  0.13958642033E+04  0.16500000000E+03 0.  0.
<mgrwt>
<rscale>  0 0.23659576E+04</rscale>
<asrwt>0</asrwt>
<pdfrwt beam="1">  1        2 0.26117127E+00 0.23659576E+04</pdfrwt>
<pdfrwt beam="2">  1       -2 0.12682410E+00 0.23659576E+04</pdfrwt>
<totfact> 0.41014680E+00</totfact>
</mgrwt>
</event>
<event>
 4    1  0.8404100E-005  0.4140755E+03  0.7818608E-02  0.1039012E+00
          2   -1    0    0  501    0  0.00000000000E+00  0.00000000000E+00  0.54573611188E+03  0.54573611188E+03  0.25500000000E-02 0.  1.
         -2   -1    0    0    0  501 -0.00000000000E+00 -0.00000000000E+00 -0.78544595806E+02  0.78544595848E+02  0.25500000000E-02 0. -1.
    5000001    1    1    2    0    0 -0.41331524008E+02  0.11289492412E+03  0.18167340078E+03  0.27328333890E+03  0.16500000000E+03 0.  0.
   -5000001    1    1    2    0    0  0.41331524008E+02 -0.11289492412E+03  0.28551811529E+03  0.35099736883E+03  0.16500000000E+03 0.  0.
<mgrwt>
<rscale>  0 0.41407546E+03</rscale>
<asrwt>0</asrwt>
<pdfrwt beam="1">  1        2 0.83959403E-01 0.41407546E+03</pdfrwt>
<pdfrwt beam="2">  1       -2 0.12083784E-01 0.41407546E+03</pdfrwt>
<totfact> 0.27701868E+03</totfact>
</mgrwt>
</event>
<event>
 4    1  0.8404100E-005  0.3825137E+03  0.7818608E-02  0.1050009E+00
         -2   -1    0    0    0  501 -0.00000000000E+00  0.00000000000E+00  0.55729451171E+03  0.55729451171E+03  0.25500000000E-02 0. -1.
          2   -1    0    0  501    0  0.00000000000E+00 -0.00000000000E+00 -0.65637091648E+02  0.65637091697E+02  0.25500000000E-02 0.  1.
    5000001    1    1    2    0    0  0.93795351506E+02  0.22455547537E+02  0.25761400131E+03  0.32076750654E+03  0.16500000000E+03 0.  0.
   -5000001    1    1    2    0    0 -0.93795351506E+02 -0.22455547537E+02  0.23404341875E+03  0.30216409688E+03  0.16500000000E+03 0.  0.
<mgrwt>
<rscale>  0 0.38251374E+03</rscale>
<asrwt>0</asrwt>
<pdfrwt beam="1">  1        2 0.10098014E-01 0.38251374E+03</pdfrwt>
<pdfrwt beam="2">  1       -2 0.85737617E-01 0.38251374E+03</pdfrwt>
<totfact> 0.77718683E+02</totfact>
</mgrwt>
</event>
<event>
 4    1  0.8404100E-005  0.5461291E+03  0.7818608E-02  0.1002394E+00
         -2   -1    0    0    0  501 -0.00000000000E+00  0.00000000000E+00  0.30900424837E+02  0.30900424943E+02  0.25500000000E-02 0. -1.
          2   -1    0    0  501    0  0.00000000000E+00 -0.00000000000E+00 -0.24130494646E+04  0.24130494646E+04  0.25500000000E-02 0.  1.
    5000001    1    1    2    0    0  0.19501977547E+03  0.34028871893E+02 -0.78711500235E+03  0.82823046543E+03  0.16500000000E+03 0.  0.
   -5000001    1    1    2    0    0 -0.19501977547E+03 -0.34028871893E+02 -0.15950340374E+04  0.16157194241E+04  0.16500000000E+03 0.  0.
<mgrwt>
<rscale>  0 0.54612912E+03</rscale>
<asrwt>0</asrwt>
<pdfrwt beam="1">  1        2 0.37123823E+00 0.54612912E+03</pdfrwt>
<pdfrwt beam="2">  1       -2 0.47539134E-02 0.54612912E+03</pdfrwt>
<totfact> 0.91745502E+02</totfact>
</mgrwt>
</event>
<event>
 4    1  0.8404100E-005  0.1499213E+04  0.7818608E-02  0.8884977E-01
         -2   -1    0    0    0  501 -0.00000000000E+00  0.00000000000E+00  0.65800855666E+03  0.65800855666E+03  0.25500000000E-02 0. -1.
          2   -1    0    0  501    0  0.00000000000E+00 -0.00000000000E+00 -0.85395487574E+03  0.85395487574E+03  0.25500000000E-02 0.  1.
    5000001    1    1    2    0    0 -0.55903892288E+03  0.28518785768E+03  0.28048906778E+03  0.70693404827E+03  0.16500000000E+03 0.  0.
   -5000001    1    1    2    0    0  0.55903892288E+03 -0.28518785768E+03 -0.47643538686E+03  0.80502938413E+03  0.16500000000E+03 0.  0.
<mgrwt>
<rscale>  0 0.14992126E+04</rscale>
<asrwt>0</asrwt>
<pdfrwt beam="1">  1        2 0.13137767E+00 0.14992126E+04</pdfrwt>
<pdfrwt beam="2">  1       -2 0.10123209E+00 0.14992126E+04</pdfrwt>
<totfact> 0.24453045E+01</totfact>
</mgrwt>
</event>
<event>
 4    1  0.8404100E-005  0.4604466E+03  0.7818608E-02  0.1024652E+00
          2   -1    0    0  501    0  0.00000000000E+00  0.00000000000E+00  0.17634500052E+03  0.17634500054E+03  0.25500000000E-02 0.  1.
         -2   -1    0    0    0  501 -0.00000000000E+00 -0.00000000000E+00 -0.30056288056E+03  0.30056288057E+03  0.25500000000E-02 0. -1.
    5000001    1    1    2    0    0  0.22082086889E+02  0.15432578600E+03 -0.10187009528E+03  0.24881033560E+03  0.16500000000E+03 0.  0.
   -5000001    1    1    2    0    0 -0.22082086889E+02 -0.15432578600E+03 -0.22347784754E+02  0.22809754552E+03  0.16500000000E+03 0.  0.
<mgrwt>
<rscale>  0 0.46044657E+03</rscale>
<asrwt>0</asrwt>
<pdfrwt beam="1">  1        2 0.27130000E-01 0.46044657E+03</pdfrwt>
<pdfrwt beam="2">  1       -2 0.46240443E-01 0.46044657E+03</pdfrwt>
<totfact> 0.88693277E+02</totfact>
</mgrwt>
</event>
<event>
 4    1  0.8404100E-005  0.3953144E+03  0.7818608E-02  0.1045414E+00
         -2   -1    0    0    0  501 -0.00000000000E+00  0.00000000000E+00  0.23069432457E+02  0.23069432598E+02  0.25500000000E-02 0. -1.
          2   -1    0    0  501    0  0.00000000000E+00 -0.00000000000E+00 -0.16935119266E+04  0.16935119266E+04  0.25500000000E-02 0.  1.
    5000001    1    1    2    0    0  0.10681161228E+03  0.13418051868E+01 -0.74488031087E+03  0.77037795820E+03  0.16500000000E+03 0.  0.
   -5000001    1    1    2    0    0 -0.10681161228E+03 -0.13418051868E+01 -0.92556218322E+03  0.94620340095E+03  0.16500000000E+03 0.  0.
<mgrwt>
<rscale>  0 0.39531435E+03</rscale>
<asrwt>0</asrwt>
<pdfrwt beam="1">  1        2 0.26054020E+00 0.39531435E+03</pdfrwt>
<pdfrwt beam="2">  1       -2 0.35491448E-02 0.39531435E+03</pdfrwt>
<totfact> 0.35413170E+03</totfact>
</mgrwt>
</event>
<event>
 4    1  0.8404100E-005  0.3959356E+03  0.7818608E-02  0.1045196E+00
         -2   -1    0    0    0  501 -0.00000000000E+00  0.00000000000E+00  0.15253214364E+03  0.15253214366E+03  0.25500000000E-02 0. -1.
          2   -1    0    0  501    0  0.00000000000E+00 -0.00000000000E+00 -0.25693758124E+03  0.25693758125E+03  0.25500000000E-02 0.  1.
    5000001    1    1    2    0    0  0.22918099207E+02 -0.10692654487E+03 -0.55075213159E+02  0.20546728298E+03  0.16500000000E+03 0.  0.
   -5000001    1    1    2    0    0 -0.22918099207E+02  0.10692654487E+03 -0.49330224439E+02  0.20400244193E+03  0.16500000000E+03 0.  0.
<mgrwt>
<rscale>  0 0.39593555E+03</rscale>
<asrwt>0</asrwt>
<pdfrwt beam="1">  1        2 0.39528858E-01 0.39593555E+03</pdfrwt>
<pdfrwt beam="2">  1       -2 0.23466484E-01 0.39593555E+03</pdfrwt>
<totfact> 0.20719134E+03</totfact>
</mgrwt>
</event>
<event>
 4    1  0.8404100E-005  0.7512295E+03  0.7818608E-02  0.9633424E-01
         -2   -1    0    0    0  501 -0.00000000000E+00  0.00000000000E+00  0.53812932301E+02  0.53812932361E+02  0.25500000000E-02 0. -1.
          2   -1    0    0  501    0  0.00000000000E+00 -0.00000000000E+00 -0.26217940010E+04  0.26217940010E+04  0.25500000000E-02 0.  1.
    5000001    1    1    2    0    0  0.22482193090E+03  0.24382408328E+03 -0.15054527642E+04  0.15503574135E+04  0.16500000000E+03 0.  0.
   -5000001    1    1    2    0    0 -0.22482193090E+03 -0.24382408328E+03 -0.10625283045E+04  0.11252495199E+04  0.16500000000E+03 0.  0.
<mgrwt>
<rscale>  0 0.75122945E+03</rscale>
<asrwt>0</asrwt>
<pdfrwt beam="1">  1        2 0.40335282E+00 0.75122945E+03</pdfrwt>
<pdfrwt beam="2">  1       -2 0.82789147E-02 0.75122945E+03</pdfrwt>
<totfact> 0.28668236E+02</totfact>
</mgrwt>
</event>
<event>
 4    1  0.8404100E-005  0.3729732E+03  0.7818608E-02  0.1053562E+00
         -2   -1    0    0    0  501 -0.00000000000E+00  0.00000000000E+00  0.11928888833E+03  0.11928888836E+03  0.25500000000E-02 0. -1.
          2   -1    0    0  501    0  0.00000000000E+00 -0.00000000000E+00 -0.29153799142E+03  0.29153799143E+03  0.25500000000E-02 0.  1.
    5000001    1    1    2    0    0  0.55167844205E+02  0.67085472435E+02 -0.89296248533E+02  0.20674325055E+03  0.16500000000E+03 0.  0.
   -5000001    1    1    2    0    0 -0.55167844205E+02 -0.67085472435E+02 -0.82952854550E+02  0.20408362924E+03  0.16500000000E+03 0.  0.
<mgrwt>
<rscale>  0 0.37297315E+03</rscale>
<asrwt>0</asrwt>
<pdfrwt beam="1">  1        2 0.44851998E-01 0.37297315E+03</pdfrwt>
<pdfrwt beam="2">  1       -2 0.18352137E-01 0.37297315E+03</pdfrwt>
<totfact> 0.27623006E+03</totfact>
</mgrwt>
</event>
<event>
 4    1  0.8404100E-005  0.5707745E+03  0.7818608E-02  0.9967966E-01
         -2   -1    0    0    0  501 -0.00000000000E+00  0.00000000000E+00  0.16494301124E+03  0.16494301126E+03  0.25500000000E-02 0. -1.
          2   -1    0    0  501    0  0.00000000000E+00 -0.00000000000E+00 -0.49378200017E+03  0.49378200018E+03  0.25500000000E-02 0.  1.
    5000001    1    1    2    0    0  0.19549382110E+03  0.11060537462E+03 -0.23527634586E+03  0.36473461846E+03  0.16500000000E+03 0.  0.
   -5000001    1    1    2    0    0 -0.19549382110E+03 -0.11060537462E+03 -0.93562643078E+02  0.29399039298E+03  0.16500000000E+03 0.  0.
<mgrwt>
<rscale>  0 0.57077453E+03</rscale>
<asrwt>0</asrwt>
<pdfrwt beam="1">  1        2 0.75966461E-01 0.57077453E+03</pdfrwt>
<pdfrwt beam="2">  1       -2 0.25375848E-01 0.57077453E+03</pdfrwt>
<totfact> 0.87513526E+02</totfact>
</mgrwt>
</event>
<event>
 4    1  0.8404100E-005  0.5737775E+03  0.7818608E-02  0.9961354E-01
         -2   -1    0    0    0  501 -0.00000000000E+00  0.00000000000E+00  0.72322462897E+02  0.72322462942E+02  0.25500000000E-02 0. -1.
          2   -1    0    0  501    0  0.00000000000E+00 -0.00000000000E+00 -0.11380304831E+04  0.11380304831E+04  0.25500000000E-02 0.  1.
    5000001    1    1    2    0    0  0.41779475815E+02 -0.22929515930E+03 -0.59094514230E+03  0.65632534302E+03  0.16500000000E+03 0.  0.
   -5000001    1    1    2    0    0 -0.41779475815E+02  0.22929515930E+03 -0.47476287789E+03  0.55402760301E+03  0.16500000000E+03 0.  0.
<mgrwt>
<rscale>  0 0.57377754E+03</rscale>
<asrwt>0</asrwt>
<pdfrwt beam="1">  1        2 0.17508160E+00 0.57377754E+03</pdfrwt>
<pdfrwt beam="2">  1       -2 0.11126534E-01 0.57377754E+03</pdfrwt>
<totfact> 0.12027622E+03</totfact>
</mgrwt>
</event>
<event>
 4    1  0.8404100E-005  0.5733515E+03  0.7818608E-02  0.9962290E-01
         -2   -1    0    0    0  501 -0.00000000000E+00  0.00000000000E+00  0.42009335963E+02  0.42009336041E+02  0.25500000000E-02 0. -1.
          2   -1    0    0  501    0  0.00000000000E+00 -0.00000000000E+00 -0.19563027208E+04  0.19563027208E+04  0.25500000000E-02 0.  1.
    5000001    1    1    2    0    0 -0.18947475096E+03 -0.71250047649E+02 -0.54504227976E+03  0.60437847187E+03  0.16500000000E+03 0.  0.
   -5000001    1    1    2    0    0  0.18947475096E+03  0.71250047649E+02 -0.13692511051E+04  0.13939335850E+04  0.16500000000E+03 0.  0.
<mgrwt>
<rscale>  0 0.57335147E+03</rscale>
<asrwt>0</asrwt>
<pdfrwt beam="1">  1        2 0.30096958E+00 0.57335147E+03</pdfrwt>
<pdfrwt beam="2">  1       -2 0.64629763E-02 0.57335147E+03</pdfrwt>
<totfact> 0.10080587E+03</totfact>
</mgrwt>
</event>
<event>
 4    1  0.8404100E-005  0.7080991E+03  0.7818608E-02  0.9703481E-01
          2   -1    0    0  501    0  0.00000000000E+00  0.00000000000E+00  0.17785402374E+03  0.17785402376E+03  0.25500000000E-02 0.  1.
         -2   -1    0    0    0  501 -0.00000000000E+00 -0.00000000000E+00 -0.70479761350E+03  0.70479761350E+03  0.25500000000E-02 0. -1.
    5000001    1    1    2    0    0 -0.95169559658E+02  0.20426327718E+03  0.77558713594E+01  0.27940272910E+03  0.16500000000E+03 0.  0.
   -5000001    1    1    2    0    0  0.95169559658E+02 -0.20426327718E+03 -0.53469946111E+03  0.60324890817E+03  0.16500000000E+03 0.  0.
<mgrwt>
<rscale>  0 0.70809912E+03</rscale>
<asrwt>0</asrwt>
<pdfrwt beam="1">  1        2 0.27362158E-01 0.70809912E+03</pdfrwt>
<pdfrwt beam="2">  1       -2 0.10843040E+00 0.70809912E+03</pdfrwt>
<totfact> 0.13581573E+02</totfact>
</mgrwt>
</event>
<event>
 4    1  0.8404100E-005  0.6592902E+03  0.7818608E-02  0.9789501E-01
          2   -1    0    0  501    0  0.00000000000E+00  0.00000000000E+00  0.21685660947E+03  0.21685660949E+03  0.25500000000E-02 0.  1.
         -2   -1    0    0    0  501 -0.00000000000E+00 -0.00000000000E+00 -0.50109554800E+03  0.50109554800E+03  0.25500000000E-02 0. -1.
    5000001    1    1    2    0    0 -0.10554912905E+02 -0.25749943165E+03 -0.86429946693E+01  0.30613243024E+03  0.16500000000E+03 0.  0.
   -5000001    1    1    2    0    0  0.10554912905E+02  0.25749943165E+03 -0.27559594385E+03  0.41181972725E+03  0.16500000000E+03 0.  0.
<mgrwt>
<rscale>  0 0.65929017E+03</rscale>
<asrwt>0</asrwt>
<pdfrwt beam="1">  1        2 0.33362555E-01 0.65929017E+03</pdfrwt>
<pdfrwt beam="2">  1       -2 0.77091623E-01 0.65929017E+03</pdfrwt>
<totfact> 0.23957941E+02</totfact>
</mgrwt>
</event>
<event>
 4    1  0.8404100E-005  0.4782879E+03  0.7818608E-02  0.1019607E+00
          2   -1    0    0  501    0  0.00000000000E+00  0.00000000000E+00  0.11604514123E+04  0.11604514123E+04  0.25500000000E-02 0.  1.
         -2   -1    0    0    0  501 -0.00000000000E+00 -0.00000000000E+00 -0.49282396901E+02  0.49282396967E+02  0.25500000000E-02 0. -1.
    5000001    1    1    2    0    0  0.44324391565E+02 -0.13075497478E+03  0.81969134879E+03  0.84745526277E+03  0.16500000000E+03 0.  0.
   -5000001    1    1    2    0    0 -0.44324391565E+02  0.13075497478E+03  0.29147766658E+03  0.36227854647E+03  0.16500000000E+03 0.  0.
<mgrwt>
<rscale>  0 0.47828789E+03</rscale>
<asrwt>0</asrwt>
<pdfrwt beam="1">  1        2 0.17853098E+00 0.47828789E+03</pdfrwt>
<pdfrwt beam="2">  1       -2 0.75819074E-02 0.47828789E+03</pdfrwt>
<totfact> 0.21645862E+03</totfact>
</mgrwt>
</event>
<event>
 4    1  0.8404100E-005  0.7211836E+03  0.7818608E-02  0.9681676E-01
         -2   -1    0    0    0  501 -0.00000000000E+00  0.00000000000E+00  0.17276463006E+03  0.17276463007E+03  0.25500000000E-02 0. -1.
          2   -1    0    0  501    0  0.00000000000E+00 -0.00000000000E+00 -0.75262197648E+03  0.75262197649E+03  0.25500000000E-02 0.  1.
    5000001    1    1    2    0    0 -0.10315839773E+03  0.21558128499E+03 -0.56418827644E+03  0.63454736366E+03  0.16500000000E+03 0.  0.
   -5000001    1    1    2    0    0  0.10315839773E+03 -0.21558128499E+03 -0.15669069990E+02  0.29083924290E+03  0.16500000000E+03 0.  0.
<mgrwt>
<rscale>  0 0.72118363E+03</rscale>
<asrwt>0</asrwt>
<pdfrwt beam="1">  1        2 0.11578799E+00 0.72118363E+03</pdfrwt>
<pdfrwt beam="2">  1       -2 0.26579174E-01 0.72118363E+03</pdfrwt>
<totfact> 0.48138839E+02</totfact>
</mgrwt>
</event>
<event>
 4    1  0.8404100E-005  0.3815743E+03  0.7818608E-02  0.1050353E+00
          2   -1    0    0  501    0  0.00000000000E+00  0.00000000000E+00  0.50586892595E+03  0.50586892595E+03  0.25500000000E-02 0.  1.
         -2   -1    0    0    0  501 -0.00000000000E+00 -0.00000000000E+00 -0.71954872306E+02  0.71954872352E+02  0.25500000000E-02 0. -1.
    5000001    1    1    2    0    0 -0.79425432434E+02  0.35559815197E+02  0.27756435049E+03  0.33442468276E+03  0.16500000000E+03 0.  0.
   -5000001    1    1    2    0    0  0.79425432434E+02 -0.35559815197E+02  0.15634970315E+03  0.24339911555E+03  0.16500000000E+03 0.  0.
<mgrwt>
<rscale>  0 0.38157429E+03</rscale>
<asrwt>0</asrwt>
<pdfrwt beam="1">  1        2 0.77825986E-01 0.38157429E+03</pdfrwt>
<pdfrwt beam="2">  1       -2 0.11069981E-01 0.38157429E+03</pdfrwt>
<totfact> 0.34802006E+03</totfact>
</mgrwt>
</event>
<event>
 4    1  0.8404100E-005  0.5051493E+03  0.7818608E-02  0.1012444E+00
         -2   -1    0    0    0  501 -0.00000000000E+00  0.00000000000E+00  0.14538601863E+03  0.14538601866E+03  0.25500000000E-02 0. -1.
          2   -1    0    0  501    0  0.00000000000E+00 -0.00000000000E+00 -0.43879017106E+03  0.43879017106E+03  0.25500000000E-02 0.  1.
    5000001    1    1    2    0    0  0.16861650796E+03 -0.89898668996E+02 -0.15532967679E+03  0.29642133178E+03  0.16500000000E+03 0.  0.
   -5000001    1    1    2    0    0 -0.16861650796E+03  0.89898668996E+02 -0.13807447563E+03  0.28775485793E+03  0.16500000000E+03 0.  0.
<mgrwt>
<rscale>  0 0.50514931E+03</rscale>
<asrwt>0</asrwt>
<pdfrwt beam="1">  1        2 0.67506180E-01 0.50514931E+03</pdfrwt>
<pdfrwt beam="2">  1       -2 0.22367080E-01 0.50514931E+03</pdfrwt>
<totfact> 0.12533290E+03</totfact>
</mgrwt>
</event>
<event>
 4    1  0.8404100E-005  0.5607078E+03  0.7818608E-02  0.9990454E-01
         -2   -1    0    0    0  501 -0.00000000000E+00  0.00000000000E+00  0.42019349251E+02  0.42019349328E+02  0.25500000000E-02 0. -1.
          2   -1    0    0  501    0  0.00000000000E+00 -0.00000000000E+00 -0.18705263569E+04  0.18705263569E+04  0.25500000000E-02 0.  1.
    5000001    1    1    2    0    0 -0.46266997610E+02  0.19244274665E+03 -0.12909812921E+04  0.13164469387E+04  0.16500000000E+03 0.  0.
   -5000001    1    1    2    0    0  0.46266997610E+02 -0.19244274665E+03 -0.53752571559E+03  0.59609876759E+03  0.16500000000E+03 0.  0.
<mgrwt>
<rscale>  0 0.56070777E+03</rscale>
<asrwt>0</asrwt>
<pdfrwt beam="1">  1        2 0.28777322E+00 0.56070777E+03</pdfrwt>
<pdfrwt beam="2">  1       -2 0.64645167E-02 0.56070777E+03</pdfrwt>
<totfact> 0.11219290E+03</totfact>
</mgrwt>
</event>
<event>
 4    1  0.8404100E-005  0.3516028E+03  0.7818608E-02  0.1061959E+00
          2   -1    0    0  501    0  0.00000000000E+00  0.00000000000E+00  0.26221066660E+03  0.26221066661E+03  0.25500000000E-02 0.  1.
         -2   -1    0    0    0  501 -0.00000000000E+00 -0.00000000000E+00 -0.11786759400E+03  0.11786759403E+03  0.25500000000E-02 0. -1.
    5000001    1    1    2    0    0  0.55246466310E+02  0.25027591643E+02  0.70432517581E+02  0.18937869974E+03  0.16500000000E+03 0.  0.
   -5000001    1    1    2    0    0 -0.55246466310E+02 -0.25027591643E+02  0.73910555018E+02  0.19069956090E+03  0.16500000000E+03 0.  0.
<mgrwt>
<rscale>  0 0.35160285E+03</rscale>
<asrwt>0</asrwt>
<pdfrwt beam="1">  1        2 0.40340103E-01 0.35160285E+03</pdfrwt>
<pdfrwt beam="2">  1       -2 0.18133476E-01 0.35160285E+03</pdfrwt>
<totfact> 0.31600887E+03</totfact>
</mgrwt>
</event>
<event>
 4    1  0.8404100E-005  0.4410854E+03  0.7818608E-02  0.1030414E+00
          2   -1    0    0  501    0  0.00000000000E+00  0.00000000000E+00  0.55961854078E+02  0.55961854136E+02  0.25500000000E-02 0.  1.
         -2   -1    0    0    0  501 -0.00000000000E+00 -0.00000000000E+00 -0.86914693541E+03  0.86914693542E+03  0.25500000000E-02 0. -1.
    5000001    1    1    2    0    0 -0.73881456559E+02 -0.43699065505E+02 -0.15802384495E+03  0.24405862722E+03  0.16500000000E+03 0.  0.
   -5000001    1    1    2    0    0  0.73881456559E+02  0.43699065505E+02 -0.65516123638E+03  0.68105016233E+03  0.16500000000E+03 0.  0.
<mgrwt>
<rscale>  0 0.44108536E+03</rscale>
<asrwt>0</asrwt>
<pdfrwt beam="1">  1        2 0.86095166E-02 0.44108536E+03</pdfrwt>
<pdfrwt beam="2">  1       -2 0.13371490E+00 0.44108536E+03</pdfrwt>
<totfact> 0.33002802E+02</totfact>
</mgrwt>
</event>
<event>
 4    1  0.8404100E-005  0.4927186E+03  0.7818608E-02  0.1015697E+00
          2   -1    0    0  501    0  0.00000000000E+00  0.00000000000E+00  0.37751301898E+03  0.37751301899E+03  0.25500000000E-02 0.  1.
         -2   -1    0    0    0  501 -0.00000000000E+00 -0.00000000000E+00 -0.16077035942E+03  0.16077035944E+03  0.25500000000E-02 0. -1.
    5000001    1    1    2    0    0 -0.12952751381E+03  0.10592028025E+03  0.18918076815E+03  0.30168003852E+03  0.16500000000E+03 0.  0.
   -5000001    1    1    2    0    0  0.12952751381E+03 -0.10592028025E+03  0.27561891417E+02  0.23660333992E+03  0.16500000000E+03 0.  0.
<mgrwt>
<rscale>  0 0.49271860E+03</rscale>
<asrwt>0</asrwt>
<pdfrwt beam="1">  1        2 0.58078925E-01 0.49271860E+03</pdfrwt>
<pdfrwt beam="2">  1       -2 0.24733902E-01 0.49271860E+03</pdfrwt>
<totfact> 0.12397893E+03</totfact>
</mgrwt>
</event>
<event>
 4    1  0.8404100E-005  0.7012768E+03  0.7818608E-02  0.9715051E-01
          2   -1    0    0  501    0  0.00000000000E+00  0.00000000000E+00  0.90969028264E+03  0.90969028265E+03  0.25500000000E-02 0.  1.
         -2   -1    0    0    0  501 -0.00000000000E+00 -0.00000000000E+00 -0.13515291429E+03  0.13515291431E+03  0.25500000000E-02 0. -1.
    5000001    1    1    2    0    0 -0.22409466770E+03 -0.18652947024E+03  0.54146327393E+03  0.63672532569E+03  0.16500000000E+03 0.  0.
   -5000001    1    1    2    0    0  0.22409466770E+03  0.18652947024E+03  0.23307409443E+03  0.40811787127E+03  0.16500000000E+03 0.  0.
<mgrwt>
<rscale>  0 0.70127681E+03</rscale>
<asrwt>0</asrwt>
<pdfrwt beam="1">  1        2 0.13995235E+00 0.70127681E+03</pdfrwt>
<pdfrwt beam="2">  1       -2 0.20792756E-01 0.70127681E+03</pdfrwt>
<totfact> 0.57921170E+02</totfact>
</mgrwt>
</event>
<event>
 4    1  0.8404100E-005  0.6312807E+03  0.7818608E-02  0.9842553E-01
         -2   -1    0    0    0  501 -0.00000000000E+00  0.00000000000E+00  0.28836694533E+03  0.28836694534E+03  0.25500000000E-02 0. -1.
          2   -1    0    0  501    0  0.00000000000E+00 -0.00000000000E+00 -0.34549325194E+03  0.34549325195E+03  0.25500000000E-02 0.  1.
    5000001    1    1    2    0    0 -0.20178890959E+03 -0.14041306509E+03  0.81287910033E+02  0.30702983112E+03  0.16500000000E+03 0.  0.
   -5000001    1    1    2    0    0  0.20178890959E+03  0.14041306509E+03 -0.13841421664E+03  0.32683036617E+03  0.16500000000E+03 0.  0.
<mgrwt>
<rscale>  0 0.63128071E+03</rscale>
<asrwt>0</asrwt>
<pdfrwt beam="1">  1        2 0.53152808E-01 0.63128071E+03</pdfrwt>
<pdfrwt beam="2">  1       -2 0.44364145E-01 0.63128071E+03</pdfrwt>
<totfact> 0.45569036E+02</totfact>
</mgrwt>
</event>
<event>
 4    1  0.8404100E-005  0.6903130E+03  0.7818608E-02  0.9733943E-01
         -2   -1    0    0    0  501 -0.00000000000E+00  0.00000000000E+00  0.82114749544E+02  0.82114749583E+02  0.25500000000E-02 0. -1.
          2   -1    0    0  501    0  0.00000000000E+00 -0.00000000000E+00 -0.14508111837E+04  0.14508111838E+04  0.25500000000E-02 0.  1.
    5000001    1    1    2    0    0  0.18777475632E+03 -0.23792045662E+03 -0.69882393563E+03  0.77938783401E+03  0.16500000000E+03 0.  0.
   -5000001    1    1    2    0    0 -0.18777475632E+03  0.23792045662E+03 -0.66987249857E+03  0.75353809932E+03  0.16500000000E+03 0.  0.
<mgrwt>
<rscale>  0 0.69031296E+03</rscale>
<asrwt>0</asrwt>
<pdfrwt beam="1">  1        2 0.22320170E+00 0.69031296E+03</pdfrwt>
<pdfrwt beam="2">  1       -2 0.12633039E-01 0.69031296E+03</pdfrwt>
<totfact> 0.64166119E+02</totfact>
</mgrwt>
</event>
<event>
 4    1  0.8404100E-005  0.5499669E+03  0.7818608E-02  0.1001502E+00
          2   -1    0    0  501    0  0.00000000000E+00  0.00000000000E+00  0.65655872297E+03  0.65655872298E+03  0.25500000000E-02 0.  1.
         -2   -1    0    0    0  501 -0.00000000000E+00 -0.00000000000E+00 -0.11517003292E+03  0.11517003295E+03  0.25500000000E-02 0. -1.
    5000001    1    1    2    0    0 -0.66962232537E+02 -0.17760408354E+03  0.11466615788E+03  0.27640636541E+03  0.16500000000E+03 0.  0.
   -5000001    1    1    2    0    0  0.66962232537E+02  0.17760408354E+03  0.42672253217E+03  0.49532239051E+03  0.16500000000E+03 0.  0.
<mgrwt>
<rscale>  0 0.54996687E+03</rscale>
<asrwt>0</asrwt>
<pdfrwt beam="1">  1        2 0.10100903E+00 0.54996687E+03</pdfrwt>
<pdfrwt beam="2">  1       -2 0.17718467E-01 0.54996687E+03</pdfrwt>
<totfact> 0.11735632E+03</totfact>
</mgrwt>
</event>
<event>
 4    1  0.8404100E-005  0.1136525E+04  0.7818608E-02  0.9170306E-01
         -2   -1    0    0    0  501 -0.00000000000E+00  0.00000000000E+00  0.31873026039E+03  0.31873026040E+03  0.25500000000E-02 0. -1.
          2   -1    0    0  501    0  0.00000000000E+00 -0.00000000000E+00 -0.10131518443E+04  0.10131518443E+04  0.25500000000E-02 0.  1.
    5000001    1    1    2    0    0 -0.40839536113E+03  0.15895614008E+03 -0.72448536797E+03  0.86264585658E+03  0.16500000000E+03 0.  0.
   -5000001    1    1    2    0    0  0.40839536113E+03 -0.15895614008E+03  0.30063784033E+02  0.46923624815E+03  0.16500000000E+03 0.  0.
<mgrwt>
<rscale>  0 0.11365248E+04</rscale>
<asrwt>0</asrwt>
<pdfrwt beam="1">  1        2 0.15586951E+00 0.11365248E+04</pdfrwt>
<pdfrwt beam="2">  1       -2 0.49035425E-01 0.11365248E+04</pdfrwt>
<totfact> 0.96344356E+01</totfact>
</mgrwt>
</event>
<event>
 4    1  0.8404100E-005  0.5055854E+03  0.7818608E-02  0.1012331E+00
          2   -1    0    0  501    0  0.00000000000E+00  0.00000000000E+00  0.77173954669E+03  0.77173954670E+03  0.25500000000E-02 0.  1.
         -2   -1    0    0    0  501 -0.00000000000E+00 -0.00000000000E+00 -0.82805316299E+02  0.82805316339E+02  0.25500000000E-02 0. -1.
    5000001    1    1    2    0    0  0.16369325392E+03 -0.92326238795E+02  0.28214625639E+03  0.37702934335E+03  0.16500000000E+03 0.  0.
   -5000001    1    1    2    0    0 -0.16369325392E+03  0.92326238795E+02  0.40678797400E+03  0.47751551969E+03  0.16500000000E+03 0.  0.
<mgrwt>
<rscale>  0 0.50558535E+03</rscale>
<asrwt>0</asrwt>
<pdfrwt beam="1">  1        2 0.11872917E+00 0.50558535E+03</pdfrwt>
<pdfrwt beam="2">  1       -2 0.12739279E-01 0.50558535E+03</pdfrwt>
<totfact> 0.16686805E+03</totfact>
</mgrwt>
</event>
<event>
 4    1  0.8404100E-005  0.5074757E+03  0.7818608E-02  0.1011846E+00
         -2   -1    0    0    0  501 -0.00000000000E+00  0.00000000000E+00  0.38482878799E+03  0.38482878800E+03  0.25500000000E-02 0. -1.
          2   -1    0    0  501    0  0.00000000000E+00 -0.00000000000E+00 -0.16730269003E+03  0.16730269005E+03  0.25500000000E-02 0.  1.
    5000001    1    1    2    0    0  0.11078691701E+03  0.14911982143E+03  0.16474389538E+03  0.29812080301E+03  0.16500000000E+03 0.  0.
   -5000001    1    1    2    0    0 -0.11078691701E+03 -0.14911982143E+03  0.52782202582E+02  0.25401067504E+03  0.16500000000E+03 0.  0.
<mgrwt>
<rscale>  0 0.50747568E+03</rscale>
<asrwt>0</asrwt>
<pdfrwt beam="1">  1        2 0.25738876E-01 0.50747568E+03</pdfrwt>
<pdfrwt beam="2">  1       -2 0.59204428E-01 0.50747568E+03</pdfrwt>
<totfact> 0.56882702E+02</totfact>
</mgrwt>
</event>
<event>
 4    1  0.8404100E-005  0.5639903E+03  0.7818608E-02  0.9983066E-01
          2   -1    0    0  501    0  0.00000000000E+00  0.00000000000E+00  0.31637751787E+03  0.31637751788E+03  0.25500000000E-02 0.  1.
         -2   -1    0    0    0  501 -0.00000000000E+00 -0.00000000000E+00 -0.25134929472E+03  0.25134929473E+03  0.25500000000E-02 0. -1.
    5000001    1    1    2    0    0 -0.12014516554E+03  0.16493548168E+03  0.13643416257E+03  0.29576655429E+03  0.16500000000E+03 0.  0.
   -5000001    1    1    2    0    0  0.12014516554E+03 -0.16493548168E+03 -0.71405939421E+02  0.27196025832E+03  0.16500000000E+03 0.  0.
<mgrwt>
<rscale>  0 0.56399030E+03</rscale>
<asrwt>0</asrwt>
<pdfrwt beam="1">  1        2 0.48673464E-01 0.56399030E+03</pdfrwt>
<pdfrwt beam="2">  1       -2 0.38669122E-01 0.56399030E+03</pdfrwt>
<totfact> 0.65786165E+02</totfact>
</mgrwt>
</event>
<event>
 4    1  0.8404100E-005  0.7010418E+03  0.7818608E-02  0.9715452E-01
         -2   -1    0    0    0  501 -0.00000000000E+00  0.00000000000E+00  0.25214106647E+03  0.25214106649E+03  0.25500000000E-02 0. -1.
          2   -1    0    0  501    0  0.00000000000E+00 -0.00000000000E+00 -0.48728628911E+03  0.48728628912E+03  0.25500000000E-02 0.  1.
    5000001    1    1    2    0    0  0.86139917096E+02 -0.29677433437E+03 -0.13026450896E+03  0.37374982696E+03  0.16500000000E+03 0.  0.
   -5000001    1    1    2    0    0 -0.86139917096E+02  0.29677433437E+03 -0.10488071368E+03  0.36567752865E+03  0.16500000000E+03 0.  0.
<mgrwt>
<rscale>  0 0.70104175E+03</rscale>
<asrwt>0</asrwt>
<pdfrwt beam="1">  1        2 0.74967121E-01 0.70104175E+03</pdfrwt>
<pdfrwt beam="2">  1       -2 0.38790934E-01 0.70104175E+03</pdfrwt>
<totfact> 0.40156661E+02</totfact>
</mgrwt>
</event>
<event>
 4    1  0.8404100E-005  0.3731302E+03  0.7818608E-02  0.1053502E+00
         -2   -1    0    0    0  501 -0.00000000000E+00  0.00000000000E+00  0.53039950692E+03  0.53039950692E+03  0.25500000000E-02 0. -1.
          2   -1    0    0  501    0  0.00000000000E+00 -0.00000000000E+00 -0.65623253806E+02  0.65623253855E+02  0.25500000000E-02 0.  1.
    5000001    1    1    2    0    0  0.65685910033E+02  0.28970535723E+02  0.15368500824E+03  0.23663899187E+03  0.16500000000E+03 0.  0.
   -5000001    1    1    2    0    0 -0.65685910033E+02 -0.28970535723E+02  0.31109124487E+03  0.35938376890E+03  0.16500000000E+03 0.  0.
<mgrwt>
<rscale>  0 0.37313023E+03</rscale>
<asrwt>0</asrwt>
<pdfrwt beam="1">  1        2 0.10095885E-01 0.37313023E+03</pdfrwt>
<pdfrwt beam="2">  1       -2 0.81599927E-01 0.37313023E+03</pdfrwt>
<totfact> 0.86835293E+02</totfact>
</mgrwt>
</event>
<event>
 4    1  0.8404100E-005  0.5119176E+03  0.7818608E-02  0.1010714E+00
          2   -1    0    0  501    0  0.00000000000E+00  0.00000000000E+00  0.61542233096E+03  0.61542233096E+03  0.25500000000E-02 0.  1.
         -2   -1    0    0    0  501 -0.00000000000E+00 -0.00000000000E+00 -0.10645518774E+03  0.10645518777E+03  0.25500000000E-02 0. -1.
    5000001    1    1    2    0    0  0.11618492577E+03 -0.89963790510E+02  0.43670059019E+03  0.48941273589E+03  0.16500000000E+03 0.  0.
   -5000001    1    1    2    0    0 -0.11618492577E+03  0.89963790510E+02  0.72266553028E+02  0.23246478285E+03  0.16500000000E+03 0.  0.
<mgrwt>
<rscale>  0 0.51191757E+03</rscale>
<asrwt>0</asrwt>
<pdfrwt beam="1">  1        2 0.94680357E-01 0.51191757E+03</pdfrwt>
<pdfrwt beam="2">  1       -2 0.16377721E-01 0.51191757E+03</pdfrwt>
<totfact> 0.14517668E+03</totfact>
</mgrwt>
</event>
<event>
 4    1  0.8404100E-005  0.3904681E+03  0.7818608E-02  0.1047131E+00
          2   -1    0    0  501    0  0.00000000000E+00  0.00000000000E+00  0.87360636280E+02  0.87360636317E+02  0.25500000000E-02 0.  1.
         -2   -1    0    0    0  501 -0.00000000000E+00 -0.00000000000E+00 -0.43631022527E+03  0.43631022528E+03  0.25500000000E-02 0. -1.
    5000001    1    1    2    0    0 -0.73242621066E+02 -0.72993523921E+02 -0.15556511765E+03  0.24923491310E+03  0.16500000000E+03 0.  0.
   -5000001    1    1    2    0    0  0.73242621066E+02  0.72993523921E+02 -0.19338447134E+03  0.27443594850E+03  0.16500000000E+03 0.  0.
<mgrwt>
<rscale>  0 0.39046812E+03</rscale>
<asrwt>0</asrwt>
<pdfrwt beam="1">  1        2 0.13440098E-01 0.39046812E+03</pdfrwt>
<pdfrwt beam="2">  1       -2 0.67124649E-01 0.39046812E+03</pdfrwt>
<totfact> 0.93470414E+02</totfact>
</mgrwt>
</event>
<event>
 4    1  0.8404100E-005  0.4089266E+03  0.7818608E-02  0.1040732E+00
         -2   -1    0    0    0  501 -0.00000000000E+00  0.00000000000E+00  0.11594968806E+04  0.11594968806E+04  0.25500000000E-02 0. -1.
          2   -1    0    0  501    0  0.00000000000E+00 -0.00000000000E+00 -0.36054644810E+02  0.36054644900E+02  0.25500000000E-02 0.  1.
    5000001    1    1    2    0    0  0.98372243463E+02 -0.65800381772E+02  0.63173341991E+03  0.66356529622E+03  0.16500000000E+03 0.  0.
   -5000001    1    1    2    0    0 -0.98372243463E+02  0.65800381772E+02  0.49170881588E+03  0.53198622927E+03  0.16500000000E+03 0.  0.
<mgrwt>
<rscale>  0 0.40892664E+03</rscale>
<asrwt>0</asrwt>
<pdfrwt beam="1">  1        2 0.55468682E-02 0.40892664E+03</pdfrwt>
<pdfrwt beam="2">  1       -2 0.17838414E+00 0.40892664E+03</pdfrwt>
<totfact> 0.27345657E+02</totfact>
</mgrwt>
</event>
<event>
 4    1  0.8404100E-005  0.4845786E+03  0.7818608E-02  0.1017884E+00
         -2   -1    0    0    0  501 -0.00000000000E+00  0.00000000000E+00  0.88425258939E+02  0.88425258976E+02  0.25500000000E-02 0. -1.
          2   -1    0    0  501    0  0.00000000000E+00 -0.00000000000E+00 -0.66388388390E+03  0.66388388390E+03  0.25500000000E-02 0.  1.
    5000001    1    1    2    0    0  0.34431530171E+02  0.13858619684E+03 -0.45120296072E+03  0.50119933757E+03  0.16500000000E+03 0.  0.
   -5000001    1    1    2    0    0 -0.34431530171E+02 -0.13858619684E+03 -0.12425566424E+03  0.25110980531E+03  0.16500000000E+03 0.  0.
<mgrwt>
<rscale>  0 0.48457860E+03</rscale>
<asrwt>0</asrwt>
<pdfrwt beam="1">  1        2 0.10213598E+00 0.48457860E+03</pdfrwt>
<pdfrwt beam="2">  1       -2 0.13603886E-01 0.48457860E+03</pdfrwt>
<totfact> 0.18078807E+03</totfact>
</mgrwt>
</event>
<event>
 4    1  0.8404100E-005  0.4163409E+03  0.7818608E-02  0.1038264E+00
         -2   -1    0    0    0  501 -0.00000000000E+00  0.00000000000E+00  0.20212142581E+02  0.20212142741E+02  0.25500000000E-02 0. -1.
          2   -1    0    0  501    0  0.00000000000E+00 -0.00000000000E+00 -0.21440047166E+04  0.21440047166E+04  0.25500000000E-02 0.  1.
    5000001    1    1    2    0    0  0.42249271154E+00 -0.11596373828E+03 -0.13301025920E+04  0.13453050481E+04  0.16500000000E+03 0.  0.
   -5000001    1    1    2    0    0 -0.42249271154E+00  0.11596373828E+03 -0.79368998198E+03  0.81891181124E+03  0.16500000000E+03 0.  0.
<mgrwt>
<rscale>  0 0.41634087E+03</rscale>
<asrwt>0</asrwt>
<pdfrwt beam="1">  1        2 0.32984670E+00 0.41634087E+03</pdfrwt>
<pdfrwt beam="2">  1       -2 0.31095621E-02 0.41634087E+03</pdfrwt>
<totfact> 0.24826102E+03</totfact>
</mgrwt>
</event>
<event>
 4    1  0.8404100E-005  0.4839371E+03  0.7818608E-02  0.1018059E+00
         -2   -1    0    0    0  501 -0.00000000000E+00  0.00000000000E+00  0.22434846334E+03  0.22434846335E+03  0.25500000000E-02 0. -1.
          2   -1    0    0  501    0  0.00000000000E+00 -0.00000000000E+00 -0.26097246257E+03  0.26097246258E+03  0.25500000000E-02 0.  1.
    5000001    1    1    2    0    0  0.10314204596E+03 -0.13448268279E+03 -0.69446996101E+02  0.24651928704E+03  0.16500000000E+03 0.  0.
   -5000001    1    1    2    0    0 -0.10314204596E+03  0.13448268279E+03  0.32822996867E+02  0.23880163889E+03  0.16500000000E+03 0.  0.
<mgrwt>
<rscale>  0 0.48393707E+03</rscale>
<asrwt>0</asrwt>
<pdfrwt beam="1">  1        2 0.40149610E-01 0.48393707E+03</pdfrwt>
<pdfrwt beam="2">  1       -2 0.34515148E-01 0.48393707E+03</pdfrwt>
<totfact> 0.10101380E+03</totfact>
</mgrwt>
</event>
<event>
 4    1  0.8404100E-005  0.6801185E+03  0.7818608E-02  0.9751850E-01
         -2   -1    0    0    0  501 -0.00000000000E+00  0.00000000000E+00  0.57369564817E+02  0.57369564873E+02  0.25500000000E-02 0. -1.
          2   -1    0    0  501    0  0.00000000000E+00 -0.00000000000E+00 -0.20157079174E+04  0.20157079174E+04  0.25500000000E-02 0.  1.
    5000001    1    1    2    0    0  0.87422314420E+02 -0.28410907087E+03 -0.10017047823E+04  0.10578270634E+04  0.16500000000E+03 0.  0.
   -5000001    1    1    2    0    0 -0.87422314420E+02  0.28410907087E+03 -0.95663357031E+03  0.10152504189E+04  0.16500000000E+03 0.  0.
<mgrwt>
<rscale>  0 0.68011848E+03</rscale>
<asrwt>0</asrwt>
<pdfrwt beam="1">  1        2 0.31010886E+00 0.68011848E+03</pdfrwt>
<pdfrwt beam="2">  1       -2 0.88260884E-02 0.68011848E+03</pdfrwt>
<totfact> 0.56617385E+02</totfact>
</mgrwt>
</event>
<event>
 4    1  0.8404100E-005  0.1315566E+04  0.7818608E-02  0.9017311E-01
          2   -1    0    0  501    0  0.00000000000E+00  0.00000000000E+00  0.18376841736E+04  0.18376841736E+04  0.25500000000E-02 0.  1.
         -2   -1    0    0    0  501 -0.00000000000E+00 -0.00000000000E+00 -0.23544779118E+03  0.23544779119E+03  0.25500000000E-02 0. -1.
    5000001    1    1    2    0    0  0.27813327440E+03  0.23910290773E+03  0.16213545843E+04  0.16704921451E+04  0.16500000000E+03 0.  0.
   -5000001    1    1    2    0    0 -0.27813327440E+03 -0.23910290773E+03 -0.19118201817E+02  0.40263981975E+03  0.16500000000E+03 0.  0.
<mgrwt>
<rscale>  0 0.13155663E+04</rscale>
<asrwt>0</asrwt>
<pdfrwt beam="1">  1        2 0.28272064E+00 0.13155663E+04</pdfrwt>
<pdfrwt beam="2">  1       -2 0.36222737E-01 0.13155663E+04</pdfrwt>
<totfact> 0.57753163E+01</totfact>
</mgrwt>
</event>
<event>
 4    1  0.8404100E-005  0.6981128E+03  0.7818608E-02  0.9720465E-01
         -2   -1    0    0    0  501 -0.00000000000E+00  0.00000000000E+00  0.21234101194E+03  0.21234101195E+03  0.25500000000E-02 0. -1.
          2   -1    0    0  501    0  0.00000000000E+00 -0.00000000000E+00 -0.57379582940E+03  0.57379582940E+03  0.25500000000E-02 0.  1.
    5000001    1    1    2    0    0  0.30130280172E+03 -0.31414349840E+02 -0.12066193564E+03  0.36545114915E+03  0.16500000000E+03 0.  0.
   -5000001    1    1    2    0    0 -0.30130280172E+03  0.31414349840E+02 -0.24079288181E+03  0.42068569221E+03  0.16500000000E+03 0.  0.
<mgrwt>
<rscale>  0 0.69811285E+03</rscale>
<asrwt>0</asrwt>
<pdfrwt beam="1">  1        2 0.88276281E-01 0.69811285E+03</pdfrwt>
<pdfrwt beam="2">  1       -2 0.32667848E-01 0.69811285E+03</pdfrwt>
<totfact> 0.46024759E+02</totfact>
</mgrwt>
</event>
<event>
 4    1  0.8404100E-005  0.4331018E+03  0.7818608E-02  0.1032885E+00
          2   -1    0    0  501    0  0.00000000000E+00  0.00000000000E+00  0.74295892968E+03  0.74295892968E+03  0.25500000000E-02 0.  1.
         -2   -1    0    0    0  501 -0.00000000000E+00 -0.00000000000E+00 -0.63118269863E+02  0.63118269915E+02  0.25500000000E-02 0. -1.
    5000001    1    1    2    0    0  0.26631058232E+02  0.10493625040E+03  0.50585150237E+03  0.54298395221E+03  0.16500000000E+03 0.  0.
   -5000001    1    1    2    0    0 -0.26631058232E+02 -0.10493625040E+03  0.17398915745E+03  0.26309324738E+03  0.16500000000E+03 0.  0.
<mgrwt>
<rscale>  0 0.43310175E+03</rscale>
<asrwt>0</asrwt>
<pdfrwt beam="1">  1        2 0.11430138E+00 0.43310175E+03</pdfrwt>
<pdfrwt beam="2">  1       -2 0.97105028E-02 0.43310175E+03</pdfrwt>
<totfact> 0.27232511E+03</totfact>
</mgrwt>
</event>
<event>
 4    1  0.8404100E-005  0.4731933E+03  0.7818608E-02  0.1021023E+00
          2   -1    0    0  501    0  0.00000000000E+00  0.00000000000E+00  0.25051329405E+04  0.25051329406E+04  0.25500000000E-02 0.  1.
         -2   -1    0    0    0  501 -0.00000000000E+00 -0.00000000000E+00 -0.22345306361E+02  0.22345306506E+02  0.25500000000E-02 0. -1.
    5000001    1    1    2    0    0  0.13591076957E+03 -0.79132564737E+02  0.90276641083E+03  0.93109929257E+03  0.16500000000E+03 0.  0.
   -5000001    1    1    2    0    0 -0.13591076957E+03  0.79132564737E+02  0.15800212234E+04  0.15963789545E+04  0.16500000000E+03 0.  0.
<mgrwt>
<rscale>  0 0.47319325E+03</rscale>
<asrwt>0</asrwt>
<pdfrwt beam="1">  1        2 0.38540501E+00 0.47319325E+03</pdfrwt>
<pdfrwt beam="2">  1       -2 0.34377400E-02 0.47319325E+03</pdfrwt>
<totfact> 0.13473525E+03</totfact>
</mgrwt>
</event>
<event>
 4    1  0.8404100E-005  0.5109578E+03  0.7818608E-02  0.1010958E+00
         -2   -1    0    0    0  501 -0.00000000000E+00  0.00000000000E+00  0.33791472666E+02  0.33791472762E+02  0.25500000000E-02 0. -1.
          2   -1    0    0  501    0  0.00000000000E+00 -0.00000000000E+00 -0.19315367033E+04  0.19315367033E+04  0.25500000000E-02 0.  1.
    5000001    1    1    2    0    0  0.16782438924E+03  0.77018817731E+02 -0.11905375485E+04  0.12160187409E+04  0.16500000000E+03 0.  0.
   -5000001    1    1    2    0    0 -0.16782438924E+03 -0.77018817731E+02 -0.70720768218E+03  0.74930943517E+03  0.16500000000E+03 0.  0.
<mgrwt>
<rscale>  0 0.51095781E+03</rscale>
<asrwt>0</asrwt>
<pdfrwt beam="1">  1        2 0.29715941E+00 0.51095781E+03</pdfrwt>
<pdfrwt beam="2">  1       -2 0.51986896E-02 0.51095781E+03</pdfrwt>
<totfact> 0.14653208E+03</totfact>
</mgrwt>
</event>
<event>
 4    1  0.8404100E-005  0.5839901E+03  0.7818608E-02  0.9939190E-01
          2   -1    0    0  501    0  0.00000000000E+00  0.00000000000E+00  0.10211353610E+04  0.10211353610E+04  0.25500000000E-02 0.  1.
         -2   -1    0    0    0  501 -0.00000000000E+00 -0.00000000000E+00 -0.83496380865E+02  0.83496380904E+02  0.25500000000E-02 0. -1.
    5000001    1    1    2    0    0  0.18118974083E+03  0.89716931940E+02  0.22105676594E+03  0.34200868969E+03  0.16500000000E+03 0.  0.
   -5000001    1    1    2    0    0 -0.18118974083E+03 -0.89716931940E+02  0.71658221418E+03  0.76262305219E+03  0.16500000000E+03 0.  0.
<mgrwt>
<rscale>  0 0.58399009E+03</rscale>
<asrwt>0</asrwt>
<pdfrwt beam="1">  1        2 0.15709776E+00 0.58399009E+03</pdfrwt>
<pdfrwt beam="2">  1       -2 0.12845596E-01 0.58399009E+03</pdfrwt>
<totfact> 0.11190745E+03</totfact>
</mgrwt>
</event>
<event>
 4    1  0.8404100E-005  0.6478474E+03  0.7818608E-02  0.9810827E-01
         -2   -1    0    0    0  501 -0.00000000000E+00  0.00000000000E+00  0.11219524918E+03  0.11219524921E+03  0.25500000000E-02 0.  1.
          2   -1    0    0  501    0  0.00000000000E+00 -0.00000000000E+00 -0.93521406097E+03  0.93521406097E+03  0.25500000000E-02 0. -1.
    5000001    1    1    2    0    0 -0.19779518420E+03 -0.17388050830E+03 -0.26382444853E+03  0.40765881040E+03  0.16500000000E+03 0.  0.
   -5000001    1    1    2    0    0  0.19779518420E+03  0.17388050830E+03 -0.55919436326E+03  0.63975049978E+03  0.16500000000E+03 0.  0.
<mgrwt>
<rscale>  0 0.64784743E+03</rscale>
<asrwt>0</asrwt>
<pdfrwt beam="1">  1        2 0.14387908E+00 0.64784743E+03</pdfrwt>
<pdfrwt beam="2">  1       -2 0.17260808E-01 0.64784743E+03</pdfrwt>
<totfact> 0.77085608E+02</totfact>
</mgrwt>
</event>
<event>
 4    1  0.8404100E-005  0.6652991E+03  0.7818608E-02  0.9778488E-01
         -2   -1    0    0    0  501 -0.00000000000E+00  0.00000000000E+00  0.14995971691E+03  0.14995971694E+03  0.25500000000E-02 0. -1.
          2   -1    0    0  501    0  0.00000000000E+00 -0.00000000000E+00 -0.73790302546E+03  0.73790302547E+03  0.25500000000E-02 0.  1.
    5000001    1    1    2    0    0 -0.16842472625E+03  0.18605353974E+03 -0.10313866137E+03  0.31756163423E+03  0.16500000000E+03 0.  0.
   -5000001    1    1    2    0    0  0.16842472625E+03 -0.18605353974E+03 -0.48480464717E+03  0.57030110817E+03  0.16500000000E+03 0.  0.
<mgrwt>
<rscale>  0 0.66529912E+03</rscale>
<asrwt>0</asrwt>
<pdfrwt beam="1">  1        2 0.11352354E+00 0.66529912E+03</pdfrwt>
<pdfrwt beam="2">  1       -2 0.23070726E-01 0.66529912E+03</pdfrwt>
<totfact> 0.63809490E+02</totfact>
</mgrwt>
</event>
<event>
 4    1  0.8404100E-005  0.8070514E+03  0.7818608E-02  0.9549866E-01
          2   -1    0    0  501    0  0.00000000000E+00  0.00000000000E+00  0.22695415237E+04  0.22695415237E+04  0.25500000000E-02 0.  1.
         -2   -1    0    0    0  501 -0.00000000000E+00 -0.00000000000E+00 -0.71747089616E+02  0.71747089662E+02  0.25500000000E-02 0. -1.
    5000001    1    1    2    0    0  0.25355513034E+03  0.26192116491E+03  0.12500605756E+04  0.13125430825E+04  0.16500000000E+03 0.  0.
   -5000001    1    1    2    0    0 -0.25355513034E+03 -0.26192116491E+03  0.94773385846E+03  0.10287455308E+04  0.16500000000E+03 0.  0.
<mgrwt>
<rscale>  0 0.80705142E+03</rscale>
<asrwt>0</asrwt>
<pdfrwt beam="1">  1        2 0.34916024E+00 0.80705142E+03</pdfrwt>
<pdfrwt beam="2">  1       -2 0.11038014E-01 0.80705142E+03</pdfrwt>
<totfact> 0.28267324E+02</totfact>
</mgrwt>
</event>
<event>
 4    1  0.8404100E-005  0.4947724E+03  0.7818608E-02  0.1015152E+00
          2   -1    0    0  501    0  0.00000000000E+00  0.00000000000E+00  0.78981986527E+03  0.78981986527E+03  0.25500000000E-02 0.  1.
         -2   -1    0    0    0  501 -0.00000000000E+00 -0.00000000000E+00 -0.77485947857E+02  0.77485947899E+02  0.25500000000E-02 0. -1.
    5000001    1    1    2    0    0 -0.15320764521E+03 -0.31783491121E+02  0.18538205879E+03  0.29338418597E+03  0.16500000000E+03 0.  0.
   -5000001    1    1    2    0    0  0.15320764521E+03  0.31783491121E+02  0.52695185862E+03  0.57392162719E+03  0.16500000000E+03 0.  0.
<mgrwt>
<rscale>  0 0.49477244E+03</rscale>
<asrwt>0</asrwt>
<pdfrwt beam="1">  1        2 0.12151075E+00 0.49477244E+03</pdfrwt>
<pdfrwt beam="2">  1       -2 0.11920915E-01 0.49477244E+03</pdfrwt>
<totfact> 0.18063449E+03</totfact>
</mgrwt>
</event>
<event>
 4    1  0.8404100E-005  0.1131566E+04  0.7818608E-02  0.9174960E-01
         -2   -1    0    0    0  501 -0.00000000000E+00  0.00000000000E+00  0.17732876238E+03  0.17732876240E+03  0.25500000000E-02 0. -1.
          2   -1    0    0  501    0  0.00000000000E+00 -0.00000000000E+00 -0.18051807881E+04  0.18051807881E+04  0.25500000000E-02 0.  1.
    5000001    1    1    2    0    0 -0.19973527444E+03  0.12350371087E+03  0.40323558227E+02  0.28982466390E+03  0.16500000000E+03 0.  0.
   -5000001    1    1    2    0    0  0.19973527444E+03 -0.12350371087E+03 -0.16681755839E+04  0.16926848866E+04  0.16500000000E+03 0.  0.
<mgrwt>
<rscale>  0 0.11315661E+04</rscale>
<asrwt>0</asrwt>
<pdfrwt beam="1">  1        2 0.27772011E+00 0.11315661E+04</pdfrwt>
<pdfrwt beam="2">  1       -2 0.27281349E-01 0.11315661E+04</pdfrwt>
<totfact> 0.10393407E+02</totfact>
</mgrwt>
</event>
<event>
 4    1  0.8404100E-005  0.4035004E+03  0.7818608E-02  0.1042574E+00
         -2   -1    0    0    0  501 -0.00000000000E+00  0.00000000000E+00  0.42133662881E+02  0.42133662959E+02  0.25500000000E-02 0. -1.
          2   -1    0    0  501    0  0.00000000000E+00 -0.00000000000E+00 -0.96604828498E+03  0.96604828498E+03  0.25500000000E-02 0.  1.
    5000001    1    1    2    0    0 -0.85742798295E+02  0.40438966007E+02 -0.62940037681E+03  0.65753857055E+03  0.16500000000E+03 0.  0.
   -5000001    1    1    2    0    0  0.85742798295E+02 -0.40438966007E+02 -0.29451424528E+03  0.35064337739E+03  0.16500000000E+03 0.  0.
<mgrwt>
<rscale>  0 0.40350045E+03</rscale>
<asrwt>0</asrwt>
<pdfrwt beam="1">  1        2 0.14862280E+00 0.40350045E+03</pdfrwt>
<pdfrwt beam="2">  1       -2 0.64821027E-02 0.40350045E+03</pdfrwt>
<totfact> 0.36356603E+03</totfact>
</mgrwt>
</event>
<event>
 4    1  0.8404100E-005  0.5185074E+03  0.7818608E-02  0.1009058E+00
          2   -1    0    0  501    0  0.00000000000E+00  0.00000000000E+00  0.22072153367E+04  0.22072153367E+04  0.25500000000E-02 0.  1.
         -2   -1    0    0    0  501 -0.00000000000E+00 -0.00000000000E+00 -0.30451255924E+02  0.30451256031E+02  0.25500000000E-02 0. -1.
    5000001    1    1    2    0    0 -0.19947128101E+03 -0.31399201279E+01  0.10290794286E+04  0.10611447222E+04  0.16500000000E+03 0.  0.
   -5000001    1    1    2    0    0  0.19947128101E+03  0.31399201279E+01  0.11476846521E+04  0.11765218705E+04  0.16500000000E+03 0.  0.
<mgrwt>
<rscale>  0 0.51850739E+03</rscale>
<asrwt>0</asrwt>
<pdfrwt beam="1">  1        2 0.33957173E+00 0.51850739E+03</pdfrwt>
<pdfrwt beam="2">  1       -2 0.46848067E-02 0.51850739E+03</pdfrwt>
<totfact> 0.12204908E+03</totfact>
</mgrwt>
</event>
<event>
 4    1  0.8404100E-005  0.5589919E+03  0.7818608E-02  0.9994338E-01
         -2   -1    0    0    0  501 -0.00000000000E+00  0.00000000000E+00  0.77513864301E+02  0.77513864343E+02  0.25500000000E-02 0. -1.
          2   -1    0    0  501    0  0.00000000000E+00 -0.00000000000E+00 -0.10077936078E+04  0.10077936078E+04  0.25500000000E-02 0.  1.
    5000001    1    1    2    0    0 -0.15829831306E+03 -0.15485823079E+03 -0.38155082190E+03  0.47100473167E+03  0.16500000000E+03 0.  0.
   -5000001    1    1    2    0    0  0.15829831306E+03  0.15485823079E+03 -0.54872892164E+03  0.61430274052E+03  0.16500000000E+03 0.  0.
<mgrwt>
<rscale>  0 0.55899187E+03</rscale>
<asrwt>0</asrwt>
<pdfrwt beam="1">  1        2 0.15504516E+00 0.55899187E+03</pdfrwt>
<pdfrwt beam="2">  1       -2 0.11925211E-01 0.55899187E+03</pdfrwt>
<totfact> 0.12905363E+03</totfact>
</mgrwt>
</event>
<event>
 4    1  0.8404100E-005  0.6317758E+03  0.7818608E-02  0.9841590E-01
         -2   -1    0    0    0  501 -0.00000000000E+00  0.00000000000E+00  0.11340083285E+04  0.11340083285E+04  0.25500000000E-02 0. -1.
          2   -1    0    0  501    0  0.00000000000E+00 -0.00000000000E+00 -0.87993314403E+02  0.87993314440E+02  0.25500000000E-02 0.  1.
    5000001    1    1    2    0    0 -0.81655266164E+02 -0.16474993682E+03  0.14225318673E+03  0.28508085399E+03  0.16500000000E+03 0.  0.
   -5000001    1    1    2    0    0  0.81655266164E+02  0.16474993682E+03  0.90376182738E+03  0.93692078897E+03  0.16500000000E+03 0.  0.
<mgrwt>
<rscale>  0 0.63177576E+03</rscale>
<asrwt>0</asrwt>
<pdfrwt beam="1">  1        2 0.13537433E-01 0.63177576E+03</pdfrwt>
<pdfrwt beam="2">  1       -2 0.17446281E+00 0.63177576E+03</pdfrwt>
<totfact> 0.91851748E+01</totfact>
</mgrwt>
</event>
<event>
 4    1  0.8404100E-005  0.3926054E+03  0.7818608E-02  0.1046371E+00
         -2   -1    0    0    0  501 -0.00000000000E+00  0.00000000000E+00  0.17262289661E+02  0.17262289850E+02  0.25500000000E-02 0. -1.
          2   -1    0    0  501    0  0.00000000000E+00 -0.00000000000E+00 -0.22323082298E+04  0.22323082298E+04  0.25500000000E-02 0.  1.
    5000001    1    1    2    0    0  0.92380107691E+02  0.24744661740E+01 -0.80598119567E+03  0.82787130344E+03  0.16500000000E+03 0.  0.
   -5000001    1    1    2    0    0 -0.92380107691E+02 -0.24744661740E+01 -0.14090647444E+04  0.14216992162E+04  0.16500000000E+03 0.  0.
<mgrwt>
<rscale>  0 0.39260541E+03</rscale>
<asrwt>0</asrwt>
<pdfrwt beam="1">  1        2 0.34343181E+00 0.39260541E+03</pdfrwt>
<pdfrwt beam="2">  1       -2 0.26557387E-02 0.39260541E+03</pdfrwt>
<totfact> 0.28238316E+03</totfact>
</mgrwt>
</event>
<event>
 4    1  0.8404100E-005  0.5318944E+03  0.7818608E-02  0.1005774E+00
          2   -1    0    0  501    0  0.00000000000E+00  0.00000000000E+00  0.56310359428E+03  0.56310359429E+03  0.25500000000E-02 0.  1.
         -2   -1    0    0    0  501 -0.00000000000E+00 -0.00000000000E+00 -0.12560372649E+03  0.12560372652E+03  0.25500000000E-02 0. -1.
    5000001    1    1    2    0    0  0.83721374127E+02 -0.15987977443E+03  0.35413197943E+03  0.43035481827E+03  0.16500000000E+03 0.  0.
   -5000001    1    1    2    0    0 -0.83721374127E+02  0.15987977443E+03  0.83367888368E+02  0.25835250254E+03  0.16500000000E+03 0.  0.
<mgrwt>
<rscale>  0 0.53189439E+03</rscale>
<asrwt>0</asrwt>
<pdfrwt beam="1">  1        2 0.86631320E-01 0.53189439E+03</pdfrwt>
<pdfrwt beam="2">  1       -2 0.19323651E-01 0.53189439E+03</pdfrwt>
<totfact> 0.12152641E+03</totfact>
</mgrwt>
</event>
<event>
 4    1  0.8404100E-005  0.1059709E+04  0.7818608E-02  0.9245378E-01
         -2   -1    0    0    0  501 -0.00000000000E+00  0.00000000000E+00  0.13444280216E+03  0.13444280219E+03  0.25500000000E-02 0. -1.
          2   -1    0    0  501    0  0.00000000000E+00 -0.00000000000E+00 -0.20882153808E+04  0.20882153808E+04  0.25500000000E-02 0.  1.
    5000001    1    1    2    0    0  0.17384508749E+03  0.31568972260E+03 -0.23938468537E+03  0.46304658835E+03  0.16500000000E+03 0.  0.
   -5000001    1    1    2    0    0 -0.17384508749E+03 -0.31568972260E+03 -0.17143878933E+04  0.17596115947E+04  0.16500000000E+03 0.  0.
<mgrwt>
<rscale>  0 0.10597085E+04</rscale>
<asrwt>0</asrwt>
<pdfrwt beam="1">  1        2 0.32126388E+00 0.10597085E+04</pdfrwt>
<pdfrwt beam="2">  1       -2 0.20683510E-01 0.10597085E+04</pdfrwt>
<totfact> 0.12004262E+02</totfact>
</mgrwt>
</event>
<event>
 4    1  0.8404100E-005  0.5499778E+03  0.7818608E-02  0.1001499E+00
          2   -1    0    0  501    0  0.00000000000E+00  0.00000000000E+00  0.19467662730E+04  0.19467662730E+04  0.25500000000E-02 0.  1.
         -2   -1    0    0    0  501 -0.00000000000E+00 -0.00000000000E+00 -0.38843338371E+02  0.38843338455E+02  0.25500000000E-02 0. -1.
    5000001    1    1    2    0    0  0.20999436069E+03  0.98456879885E+01  0.11879199513E+04  0.12176096993E+04  0.16500000000E+03 0.  0.
   -5000001    1    1    2    0    0 -0.20999436069E+03 -0.98456879885E+01  0.72000298333E+03  0.76799991217E+03  0.16500000000E+03 0.  0.
<mgrwt>
<rscale>  0 0.54997782E+03</rscale>
<asrwt>0</asrwt>
<pdfrwt beam="1">  1        2 0.29950246E+00 0.54997782E+03</pdfrwt>
<pdfrwt beam="2">  1       -2 0.59758990E-02 0.54997782E+03</pdfrwt>
<totfact> 0.11550532E+03</totfact>
</mgrwt>
</event>
<event>
 4    1  0.8404100E-005  0.5048802E+03  0.7818608E-02  0.1012513E+00
         -2   -1    0    0    0  501 -0.00000000000E+00  0.00000000000E+00  0.38906372475E+02  0.38906372559E+02  0.25500000000E-02 0. -1.
          2   -1    0    0  501    0  0.00000000000E+00 -0.00000000000E+00 -0.16379323021E+04  0.16379323021E+04  0.25500000000E-02 0.  1.
    5000001    1    1    2    0    0  0.11238471500E+03  0.13936428715E+03 -0.10210257439E+04  0.10496529419E+04  0.16500000000E+03 0.  0.
   -5000001    1    1    2    0    0 -0.11238471500E+03 -0.13936428715E+03 -0.57800018573E+03  0.62718573278E+03  0.16500000000E+03 0.  0.
<mgrwt>
<rscale>  0 0.50488020E+03</rscale>
<asrwt>0</asrwt>
<pdfrwt beam="1">  1        2 0.25198953E+00 0.50488020E+03</pdfrwt>
<pdfrwt beam="2">  1       -2 0.59855971E-02 0.50488020E+03</pdfrwt>
<totfact> 0.16946543E+03</totfact>
</mgrwt>
</event>
<event>
 4    1  0.8404100E-005  0.8537595E+03  0.7818608E-02  0.9485305E-01
         -2   -1    0    0    0  501 -0.00000000000E+00  0.00000000000E+00  0.20987158418E+03  0.20987158419E+03  0.25500000000E-02 0.  1.
          2   -1    0    0  501    0  0.00000000000E+00 -0.00000000000E+00 -0.86827542545E+03  0.86827542546E+03  0.25500000000E-02 0. -1.
    5000001    1    1    2    0    0  0.29649797492E+03 -0.24825814706E+03 -0.42249865271E+03  0.59604804190E+03  0.16500000000E+03 0.  0.
   -5000001    1    1    2    0    0 -0.29649797492E+03  0.24825814706E+03 -0.23590518857E+03  0.48209896775E+03  0.16500000000E+03 0.  0.
<mgrwt>
<rscale>  0 0.85375954E+03</rscale>
<asrwt>0</asrwt>
<pdfrwt beam="1">  1        2 0.13358083E+00 0.85375954E+03</pdfrwt>
<pdfrwt beam="2">  1       -2 0.32287936E-01 0.85375954E+03</pdfrwt>
<totfact> 0.27614087E+02</totfact>
</mgrwt>
</event>
<event>
 4    1  0.8404100E-005  0.5266145E+03  0.7818608E-02  0.1007056E+00
          2   -1    0    0  501    0  0.00000000000E+00  0.00000000000E+00  0.25690497637E+03  0.25690497638E+03  0.25500000000E-02 0.  1.
         -2   -1    0    0    0  501 -0.00000000000E+00 -0.00000000000E+00 -0.26986910634E+03  0.26986910635E+03  0.25500000000E-02 0. -1.
    5000001    1    1    2    0    0  0.17855669031E+03  0.95444435618E+02  0.26898458155E+02  0.26256553276E+03  0.16500000000E+03 0.  0.
   -5000001    1    1    2    0    0 -0.17855669031E+03 -0.95444435618E+02 -0.39862588122E+02  0.26420854997E+03  0.16500000000E+03 0.  0.
<mgrwt>
<rscale>  0 0.52661453E+03</rscale>
<asrwt>0</asrwt>
<pdfrwt beam="1">  1        2 0.39523842E-01 0.52661453E+03</pdfrwt>
<pdfrwt beam="2">  1       -2 0.41518324E-01 0.52661453E+03</pdfrwt>
<totfact> 0.72122027E+02</totfact>
</mgrwt>
</event>
<event>
 4    1  0.8404100E-005  0.6047795E+03  0.7818608E-02  0.9895540E-01
         -2   -1    0    0    0  501 -0.00000000000E+00  0.00000000000E+00  0.39698765987E+03  0.39698765987E+03  0.25500000000E-02 0. -1.
          2   -1    0    0  501    0  0.00000000000E+00 -0.00000000000E+00 -0.23033347946E+03  0.23033347947E+03  0.25500000000E-02 0.  1.
    5000001    1    1    2    0    0 -0.10121548965E+03  0.23229959774E+03  0.86045961251E+02  0.31438286516E+03  0.16500000000E+03 0.  0.
   -5000001    1    1    2    0    0  0.10121548965E+03 -0.23229959774E+03  0.80608219157E+02  0.31293827419E+03  0.16500000000E+03 0.  0.
<mgrwt>
<rscale>  0 0.60477946E+03</rscale>
<asrwt>0</asrwt>
<pdfrwt beam="1">  1        2 0.35435920E-01 0.60477946E+03</pdfrwt>
<pdfrwt beam="2">  1       -2 0.61075024E-01 0.60477946E+03</pdfrwt>
<totfact> 0.37155524E+02</totfact>
</mgrwt>
</event>
<event>
 4    1  0.8404100E-005  0.3841102E+03  0.7818608E-02  0.1049425E+00
         -2   -1    0    0    0  501 -0.00000000000E+00  0.00000000000E+00  0.27684071016E+03  0.27684071018E+03  0.25500000000E-02 0. -1.
          2   -1    0    0  501    0  0.00000000000E+00 -0.00000000000E+00 -0.13323605742E+03  0.13323605744E+03  0.25500000000E-02 0.  1.
    5000001    1    1    2    0    0  0.42099384076E+02 -0.34581246536E+02  0.15913674939E+03  0.23562199761E+03  0.16500000000E+03 0.  0.
   -5000001    1    1    2    0    0 -0.42099384076E+02  0.34581246536E+02 -0.15532096648E+02  0.17445477001E+03  0.16500000000E+03 0.  0.
<mgrwt>
<rscale>  0 0.38411022E+03</rscale>
<asrwt>0</asrwt>
<pdfrwt beam="1">  1        2 0.20497855E-01 0.38411022E+03</pdfrwt>
<pdfrwt beam="2">  1       -2 0.42590878E-01 0.38411022E+03</pdfrwt>
<totfact> 0.14334668E+03</totfact>
</mgrwt>
</event>
<event>
 4    1  0.8404100E-005  0.4465527E+03  0.7818608E-02  0.1028755E+00
          2   -1    0    0  501    0  0.00000000000E+00  0.00000000000E+00  0.68647148189E+03  0.68647148189E+03  0.25500000000E-02 0. -1.
         -2   -1    0    0    0  501 -0.00000000000E+00 -0.00000000000E+00 -0.72621105896E+02  0.72621105941E+02  0.25500000000E-02 0.  1.
    5000001    1    1    2    0    0 -0.14438302697E+03 -0.17626986204E+02  0.24174692769E+03  0.32683902179E+03  0.16500000000E+03 0.  0.
   -5000001    1    1    2    0    0  0.14438302697E+03  0.17626986204E+02  0.37210344830E+03  0.43225356604E+03  0.16500000000E+03 0.  0.
<mgrwt>
<rscale>  0 0.44655265E+03</rscale>
<asrwt>0</asrwt>
<pdfrwt beam="1">  1        2 0.10561099E+00 0.44655265E+03</pdfrwt>
<pdfrwt beam="2">  1       -2 0.11172479E-01 0.44655265E+03</pdfrwt>
<totfact> 0.23966356E+03</totfact>
</mgrwt>
</event>
<event>
 4    1  0.8404100E-005  0.6525282E+03  0.7818608E-02  0.9802047E-01
         -2   -1    0    0    0  501 -0.00000000000E+00  0.00000000000E+00  0.83649219482E+02  0.83649219521E+02  0.25500000000E-02 0. -1.
          2   -1    0    0  501    0  0.00000000000E+00 -0.00000000000E+00 -0.12725554996E+04  0.12725554996E+04  0.25500000000E-02 0.  1.
    5000001    1    1    2    0    0  0.21855133047E+03  0.49369641318E+02 -0.24038745251E+03  0.36771343850E+03  0.16500000000E+03 0.  0.
   -5000001    1    1    2    0    0 -0.21855133047E+03 -0.49369641318E+02 -0.94851882763E+03  0.98849128064E+03  0.16500000000E+03 0.  0.
<mgrwt>
<rscale>  0 0.65252823E+03</rscale>
<asrwt>0</asrwt>
<pdfrwt beam="1">  1        2 0.19577776E+00 0.65252823E+03</pdfrwt>
<pdfrwt beam="2">  1       -2 0.12869112E-01 0.65252823E+03</pdfrwt>
<totfact> 0.78683000E+02</totfact>
</mgrwt>
</event>
<event>
 4    1  0.8404100E-005  0.4410883E+03  0.7818608E-02  0.1030413E+00
         -2   -1    0    0    0  501 -0.00000000000E+00  0.00000000000E+00  0.10206888929E+03  0.10206888932E+03  0.25500000000E-02 0. -1.
          2   -1    0    0  501    0  0.00000000000E+00 -0.00000000000E+00 -0.47653810408E+03  0.47653810409E+03  0.25500000000E-02 0.  1.
    5000001    1    1    2    0    0 -0.98533060537E+02  0.10045317086E+03 -0.23995266732E+03  0.32342214845E+03  0.16500000000E+03 0.  0.
   -5000001    1    1    2    0    0  0.98533060537E+02 -0.10045317086E+03 -0.13451654747E+03  0.25518484496E+03  0.16500000000E+03 0.  0.
<mgrwt>
<rscale>  0 0.44108827E+03</rscale>
<asrwt>0</asrwt>
<pdfrwt beam="1">  1        2 0.73313553E-01 0.44108827E+03</pdfrwt>
<pdfrwt beam="2">  1       -2 0.15702906E-01 0.44108827E+03</pdfrwt>
<totfact> 0.20970429E+03</totfact>
</mgrwt>
</event>
<event>
 4    1  0.8404100E-005  0.5843400E+03  0.7818608E-02  0.9938439E-01
          2   -1    0    0  501    0  0.00000000000E+00  0.00000000000E+00  0.12722728808E+04  0.12722728809E+04  0.25500000000E-02 0.  1.
         -2   -1    0    0    0  501 -0.00000000000E+00 -0.00000000000E+00 -0.67095116130E+02  0.67095116178E+02  0.25500000000E-02 0. -1.
    5000001    1    1    2    0    0 -0.23967277605E+02  0.22206549621E+03  0.81078943659E+03  0.85702510202E+03  0.16500000000E+03 0.  0.
   -5000001    1    1    2    0    0  0.23967277605E+02 -0.22206549621E+03  0.39438832813E+03  0.48234289501E+03  0.16500000000E+03 0.  0.
<mgrwt>
<rscale>  0 0.58433996E+03</rscale>
<asrwt>0</asrwt>
<pdfrwt beam="1">  1        2 0.19573428E+00 0.58433996E+03</pdfrwt>
<pdfrwt beam="2">  1       -2 0.10322326E-01 0.58433996E+03</pdfrwt>
<totfact> 0.11336635E+03</totfact>
</mgrwt>
</event>
<event>
 4    1  0.8404100E-005  0.4985928E+03  0.7818608E-02  0.1014147E+00
          2   -1    0    0  501    0  0.00000000000E+00  0.00000000000E+00  0.45497915256E+03  0.45497915257E+03  0.25500000000E-02 0.  1.
         -2   -1    0    0    0  501 -0.00000000000E+00 -0.00000000000E+00 -0.13659681275E+03  0.13659681277E+03  0.25500000000E-02 0. -1.
    5000001    1    1    2    0    0 -0.18405504228E+03  0.28947532907E+02  0.17636391743E+03  0.30503024378E+03  0.16500000000E+03 0.  0.
   -5000001    1    1    2    0    0  0.18405504228E+03 -0.28947532907E+02  0.14201842239E+03  0.28654572156E+03  0.16500000000E+03 0.  0.
<mgrwt>
<rscale>  0 0.49859283E+03</rscale>
<asrwt>0</asrwt>
<pdfrwt beam="1">  1        2 0.69996793E-01 0.49859283E+03</pdfrwt>
<pdfrwt beam="2">  1       -2 0.21014894E-01 0.49859283E+03</pdfrwt>
<totfact> 0.13423365E+03</totfact>
</mgrwt>
</event>
<event>
 4    1  0.8404100E-005  0.6165663E+03  0.7818608E-02  0.9871620E-01
          2   -1    0    0  501    0  0.00000000000E+00  0.00000000000E+00  0.94530339588E+02  0.94530339623E+02  0.25500000000E-02 0.  1.
         -2   -1    0    0    0  501 -0.00000000000E+00 -0.00000000000E+00 -0.10053756239E+04  0.10053756239E+04  0.25500000000E-02 0. -1.
    5000001    1    1    2    0    0  0.24971435189E+03  0.14586848632E+02 -0.32624570515E+03  0.44298001515E+03  0.16500000000E+03 0.  0.
   -5000001    1    1    2    0    0 -0.24971435189E+03 -0.14586848632E+02 -0.58459957912E+03  0.65692594833E+03  0.16500000000E+03 0.  0.
<mgrwt>
<rscale>  0 0.61656630E+03</rscale>
<asrwt>0</asrwt>
<pdfrwt beam="1">  1        2 0.14543130E-01 0.61656630E+03</pdfrwt>
<pdfrwt beam="2">  1       -2 0.15467316E+00 0.61656630E+03</pdfrwt>
<totfact> 0.11689897E+02</totfact>
</mgrwt>
</event>
<event>
 4    1  0.8404100E-005  0.4575094E+03  0.7818608E-02  0.1025506E+00
          2   -1    0    0  501    0  0.00000000000E+00  0.00000000000E+00  0.18103163850E+03  0.18103163852E+03  0.25500000000E-02 0.  1.
         -2   -1    0    0    0  501 -0.00000000000E+00 -0.00000000000E+00 -0.28905838756E+03  0.28905838757E+03  0.25500000000E-02 0. -1.
    5000001    1    1    2    0    0  0.76003850653E+02  0.11131835145E+03 -0.13958214522E+03  0.25470872766E+03  0.16500000000E+03 0.  0.
   -5000001    1    1    2    0    0 -0.76003850653E+02 -0.11131835145E+03  0.31555396162E+02  0.21538129843E+03  0.16500000000E+03 0.  0.
<mgrwt>
<rscale>  0 0.45750940E+03</rscale>
<asrwt>0</asrwt>
<pdfrwt beam="1">  1        2 0.27851021E-01 0.45750940E+03</pdfrwt>
<pdfrwt beam="2">  1       -2 0.44470521E-01 0.45750940E+03</pdfrwt>
<totfact> 0.93026127E+02</totfact>
</mgrwt>
</event>
<event>
 4    1  0.8404100E-005  0.6425119E+03  0.7818608E-02  0.9820932E-01
          2   -1    0    0  501    0  0.00000000000E+00  0.00000000000E+00  0.32327696898E+03  0.32327696899E+03  0.25500000000E-02 0.  1.
         -2   -1    0    0    0  501 -0.00000000000E+00 -0.00000000000E+00 -0.31924753518E+03  0.31924753519E+03  0.25500000000E-02 0. -1.
    5000001    1    1    2    0    0 -0.25163321381E+03  0.49764526969E+02  0.10293544647E+03  0.32189515153E+03  0.16500000000E+03 0.  0.
   -5000001    1    1    2    0    0  0.25163321381E+03 -0.49764526969E+02 -0.98906012675E+02  0.32062935265E+03  0.16500000000E+03 0.  0.
<mgrwt>
<rscale>  0 0.64251187E+03</rscale>
<asrwt>0</asrwt>
<pdfrwt beam="1">  1        2 0.49734918E-01 0.64251187E+03</pdfrwt>
<pdfrwt beam="2">  1       -2 0.49115005E-01 0.64251187E+03</pdfrwt>
<totfact> 0.40005871E+02</totfact>
</mgrwt>
</event>
<event>
 4    1  0.8404100E-005  0.4466455E+03  0.7818608E-02  0.1028727E+00
         -2   -1    0    0    0  501 -0.00000000000E+00  0.00000000000E+00  0.13160287734E+03  0.13160287737E+03  0.25500000000E-02 0. -1.
          2   -1    0    0  501    0  0.00000000000E+00 -0.00000000000E+00 -0.37896627600E+03  0.37896627601E+03  0.25500000000E-02 0.  1.
    5000001    1    1    2    0    0 -0.10456653968E+03 -0.12245083797E+02 -0.75543396628E+00  0.19572857221E+03  0.16500000000E+03 0.  0.
   -5000001    1    1    2    0    0  0.10456653968E+03  0.12245083797E+02 -0.24660796469E+03  0.31484058116E+03  0.16500000000E+03 0.  0.
<mgrwt>
<rscale>  0 0.44664551E+03</rscale>
<asrwt>0</asrwt>
<pdfrwt beam="1">  1        2 0.58302504E-01 0.44664551E+03</pdfrwt>
<pdfrwt beam="2">  1       -2 0.20246597E-01 0.44664551E+03</pdfrwt>
<totfact> 0.17549920E+03</totfact>
</mgrwt>
</event>
<event>
 4    1  0.8404100E-005  0.4023783E+03  0.7818608E-02  0.1042959E+00
          2   -1    0    0  501    0  0.00000000000E+00  0.00000000000E+00  0.21095296371E+03  0.21095296372E+03  0.25500000000E-02 0.  1.
         -2   -1    0    0    0  501 -0.00000000000E+00 -0.00000000000E+00 -0.19187729101E+03  0.19187729103E+03  0.25500000000E-02 0. -1.
    5000001    1    1    2    0    0 -0.11487128447E+03 -0.57023936603E+01  0.14458020172E+02  0.20164811836E+03  0.16500000000E+03 0.  0.
   -5000001    1    1    2    0    0  0.11487128447E+03  0.57023936603E+01  0.46176525227E+01  0.20118213639E+03  0.16500000000E+03 0.  0.
<mgrwt>
<rscale>  0 0.40237835E+03</rscale>
<asrwt>0</asrwt>
<pdfrwt beam="1">  1        2 0.32454302E-01 0.40237835E+03</pdfrwt>
<pdfrwt beam="2">  1       -2 0.29519583E-01 0.40237835E+03</pdfrwt>
<totfact> 0.17049207E+03</totfact>
</mgrwt>
</event>
<event>
 4    1  0.8404100E-005  0.6833751E+03  0.7818608E-02  0.9746093E-01
          2   -1    0    0  501    0  0.00000000000E+00  0.00000000000E+00  0.74524310995E+03  0.74524310996E+03  0.25500000000E-02 0.  1.
         -2   -1    0    0    0  501 -0.00000000000E+00 -0.00000000000E+00 -0.15666080039E+03  0.15666080041E+03  0.25500000000E-02 0. -1.
    5000001    1    1    2    0    0 -0.10423820995E+03  0.27995106091E+03  0.31665668040E+03  0.46554769268E+03  0.16500000000E+03 0.  0.
   -5000001    1    1    2    0    0  0.10423820995E+03 -0.27995106091E+03  0.27192562917E+03  0.43635621769E+03  0.16500000000E+03 0.  0.
<mgrwt>
<rscale>  0 0.68337510E+03</rscale>
<asrwt>0</asrwt>
<pdfrwt beam="1">  1        2 0.11465279E+00 0.68337510E+03</pdfrwt>
<pdfrwt beam="2">  1       -2 0.24101662E-01 0.68337510E+03</pdfrwt>
<totfact> 0.58242576E+02</totfact>
</mgrwt>
</event>
<event>
 4    1  0.8404100E-005  0.6591803E+03  0.7818608E-02  0.9789704E-01
          2   -1    0    0  501    0  0.00000000000E+00  0.00000000000E+00  0.33381654648E+03  0.33381654649E+03  0.25500000000E-02 0.  1.
         -2   -1    0    0    0  501 -0.00000000000E+00 -0.00000000000E+00 -0.32541723924E+03  0.32541723925E+03  0.25500000000E-02 0. -1.
    5000001    1    1    2    0    0  0.23297937291E+03  0.15650358217E+03 -0.47106553177E+02  0.32896319974E+03  0.16500000000E+03 0.  0.
   -5000001    1    1    2    0    0 -0.23297937291E+03 -0.15650358217E+03  0.55505860412E+02  0.33027058600E+03  0.16500000000E+03 0.  0.
<mgrwt>
<rscale>  0 0.65918028E+03</rscale>
<asrwt>0</asrwt>
<pdfrwt beam="1">  1        2 0.51356391E-01 0.65918028E+03</pdfrwt>
<pdfrwt beam="2">  1       -2 0.50064191E-01 0.65918028E+03</pdfrwt>
<totfact> 0.37122917E+02</totfact>
</mgrwt>
</event>
<event>
 4    1  0.8404100E-005  0.6001157E+03  0.7818608E-02  0.9905166E-01
         -2   -1    0    0    0  501 -0.00000000000E+00  0.00000000000E+00  0.17103135623E+03  0.17103135625E+03  0.25500000000E-02 0. -1.
          2   -1    0    0  501    0  0.00000000000E+00 -0.00000000000E+00 -0.52642221794E+03  0.52642221794E+03  0.25500000000E-02 0.  1.
    5000001    1    1    2    0    0 -0.21363651900E+03  0.58402914114E+02 -0.41374725204E+02  0.27926390836E+03  0.16500000000E+03 0.  0.
   -5000001    1    1    2    0    0  0.21363651900E+03 -0.58402914114E+02 -0.31401613650E+03  0.41818966583E+03  0.16500000000E+03 0.  0.
<mgrwt>
<rscale>  0 0.60011568E+03</rscale>
<asrwt>0</asrwt>
<pdfrwt beam="1">  1        2 0.80988033E-01 0.60011568E+03</pdfrwt>
<pdfrwt beam="2">  1       -2 0.26312516E-01 0.60011568E+03</pdfrwt>
<totfact> 0.76094209E+02</totfact>
</mgrwt>
</event>
<event>
 4    1  0.8404100E-005  0.9332811E+03  0.7818608E-02  0.9384909E-01
         -2   -1    0    0    0  501 -0.00000000000E+00  0.00000000000E+00  0.37887566857E+03  0.37887566858E+03  0.25500000000E-02 0. -1.
          2   -1    0    0  501    0  0.00000000000E+00 -0.00000000000E+00 -0.57473574499E+03  0.57473574500E+03  0.25500000000E-02 0.  1.
    5000001    1    1    2    0    0  0.31856822556E+03  0.11743862730E+03 -0.37822459929E+03  0.53437476833E+03  0.16500000000E+03 0.  0.
   -5000001    1    1    2    0    0 -0.31856822556E+03 -0.11743862730E+03  0.18236452288E+03  0.41923664525E+03  0.16500000000E+03 0.  0.
<mgrwt>
<rscale>  0 0.93328107E+03</rscale>
<asrwt>0</asrwt>
<pdfrwt beam="1">  1        2 0.88420884E-01 0.93328107E+03</pdfrwt>
<pdfrwt beam="2">  1       -2 0.58288564E-01 0.93328107E+03</pdfrwt>
<totfact> 0.14414025E+02</totfact>
</mgrwt>
</event>
<event>
 4    1  0.8404100E-005  0.4584443E+03  0.7818608E-02  0.1025233E+00
          2   -1    0    0  501    0  0.00000000000E+00  0.00000000000E+00  0.30215488439E+04  0.30215488439E+04  0.25500000000E-02 0.  1.
         -2   -1    0    0    0  501 -0.00000000000E+00 -0.00000000000E+00 -0.17389359723E+02  0.17389359910E+02  0.25500000000E-02 0. -1.
    5000001    1    1    2    0    0 -0.10290156261E+03  0.31760098268E+02  0.72562151990E+03  0.75189695143E+03  0.16500000000E+03 0.  0.
   -5000001    1    1    2    0    0  0.10290156261E+03 -0.31760098268E+02  0.22785379642E+04  0.22870412523E+04  0.16500000000E+03 0.  0.
<mgrwt>
<rscale>  0 0.45844433E+03</rscale>
<asrwt>0</asrwt>
<pdfrwt beam="1">  1        2 0.46485317E+00 0.45844433E+03</pdfrwt>
<pdfrwt beam="2">  1       -2 0.26752890E-02 0.45844433E+03</pdfrwt>
<totfact> 0.98892270E+02</totfact>
</mgrwt>
</event>
<event>
 4    1  0.8404100E-005  0.4032093E+03  0.7818608E-02  0.1042674E+00
         -2   -1    0    0    0  501 -0.00000000000E+00  0.00000000000E+00  0.12139271215E+04  0.12139271215E+04  0.25500000000E-02 0. -1.
          2   -1    0    0  501    0  0.00000000000E+00 -0.00000000000E+00 -0.33481773696E+02  0.33481773793E+02  0.25500000000E-02 0.  1.
    5000001    1    1    2    0    0  0.47718016353E+02  0.10510324529E+03  0.62049228269E+03  0.65234911983E+03  0.16500000000E+03 0.  0.
   -5000001    1    1    2    0    0 -0.47718016353E+02 -0.10510324529E+03  0.55995306510E+03  0.59505977546E+03  0.16500000000E+03 0.  0.
<mgrwt>
<rscale>  0 0.40320929E+03</rscale>
<asrwt>0</asrwt>
<pdfrwt beam="1">  1        2 0.51510422E-02 0.40320929E+03</pdfrwt>
<pdfrwt beam="2">  1       -2 0.18675802E+00 0.40320929E+03</pdfrwt>
<totfact> 0.26522736E+02</totfact>
</mgrwt>
</event>
<event>
 4    1  0.8404100E-005  0.7569358E+03  0.7818608E-02  0.9624532E-01
          2   -1    0    0  501    0  0.00000000000E+00  0.00000000000E+00  0.30120021840E+03  0.30120021841E+03  0.25500000000E-02 0.  1.
         -2   -1    0    0    0  501 -0.00000000000E+00 -0.00000000000E+00 -0.47555731863E+03  0.47555731864E+03  0.25500000000E-02 0. -1.
    5000001    1    1    2    0    0  0.25581206226E+03  0.20421318619E+03 -0.18382623083E+03  0.41007306636E+03  0.16500000000E+03 0.  0.
   -5000001    1    1    2    0    0 -0.25581206226E+03 -0.20421318619E+03  0.94691306039E+01  0.36668447069E+03  0.16500000000E+03 0.  0.
<mgrwt>
<rscale>  0 0.75693584E+03</rscale>
<asrwt>0</asrwt>
<pdfrwt beam="1">  1        2 0.46338495E-01 0.75693584E+03</pdfrwt>
<pdfrwt beam="2">  1       -2 0.73162664E-01 0.75693584E+03</pdfrwt>
<totfact> 0.18601660E+02</totfact>
</mgrwt>
</event>
<event>
 4    1  0.8404100E-005  0.3813608E+03  0.7818608E-02  0.1050432E+00
          2   -1    0    0  501    0  0.00000000000E+00  0.00000000000E+00  0.10336356370E+04  0.10336356370E+04  0.25500000000E-02 0.  1.
         -2   -1    0    0    0  501 -0.00000000000E+00 -0.00000000000E+00 -0.35175847754E+02  0.35175847847E+02  0.25500000000E-02 0. -1.
    5000001    1    1    2    0    0  0.51409624894E+02 -0.80515061946E+02  0.50734547846E+03  0.54198713937E+03  0.16500000000E+03 0.  0.
   -5000001    1    1    2    0    0 -0.51409624894E+02  0.80515061946E+02  0.49111431083E+03  0.52682434553E+03  0.16500000000E+03 0.  0.
<mgrwt>
<rscale>  0 0.38136077E+03</rscale>
<asrwt>0</asrwt>
<pdfrwt beam="1">  1        2 0.15902088E+00 0.38136077E+03</pdfrwt>
<pdfrwt beam="2">  1       -2 0.54116686E-02 0.38136077E+03</pdfrwt>
<totfact> 0.43621630E+03</totfact>
</mgrwt>
</event>
<event>
 4    1  0.8404100E-005  0.3805402E+03  0.7818608E-02  0.1050734E+00
         -2   -1    0    0    0  501 -0.00000000000E+00  0.00000000000E+00  0.19768990249E+02  0.19768990413E+02  0.25500000000E-02 0. -1.
          2   -1    0    0  501    0  0.00000000000E+00 -0.00000000000E+00 -0.18312874026E+04  0.18312874026E+04  0.25500000000E-02 0.  1.
    5000001    1    1    2    0    0 -0.58210921550E+02  0.69922209419E+02 -0.10344631374E+04  0.10514830524E+04  0.16500000000E+03 0.  0.
   -5000001    1    1    2    0    0  0.58210921550E+02 -0.69922209419E+02 -0.77705527491E+03  0.79957334062E+03  0.16500000000E+03 0.  0.
<mgrwt>
<rscale>  0 0.38054016E+03</rscale>
<asrwt>0</asrwt>
<pdfrwt beam="1">  1        2 0.28173639E+00 0.38054016E+03</pdfrwt>
<pdfrwt beam="2">  1       -2 0.30413846E-02 0.38054016E+03</pdfrwt>
<totfact> 0.37757855E+03</totfact>
</mgrwt>
</event>
<event>
 4    1  0.8404100E-005  0.4834998E+03  0.7818608E-02  0.1018178E+00
         -2   -1    0    0    0  501 -0.00000000000E+00  0.00000000000E+00  0.19410374064E+04  0.19410374064E+04  0.25500000000E-02 0. -1.
          2   -1    0    0  501    0  0.00000000000E+00 -0.00000000000E+00 -0.30109161642E+02  0.30109161750E+02  0.25500000000E-02 0.  1.
    5000001    1    1    2    0    0 -0.12877506068E+03  0.12035526437E+03  0.10053288104E+04  0.10339146110E+04  0.16500000000E+03 0.  0.
   -5000001    1    1    2    0    0  0.12877506068E+03 -0.12035526437E+03  0.90559943440E+03  0.93723195715E+03  0.16500000000E+03 0.  0.
<mgrwt>
<rscale>  0 0.48349978E+03</rscale>
<asrwt>0</asrwt>
<pdfrwt beam="1">  1        2 0.46321761E-02 0.48349978E+03</pdfrwt>
<pdfrwt beam="2">  1       -2 0.29862131E+00 0.48349978E+03</pdfrwt>
<totfact> 0.63364189E+01</totfact>
</mgrwt>
</event>
<event>
 4    1  0.8404100E-005  0.7217912E+03  0.7818608E-02  0.9680675E-01
          2   -1    0    0  501    0  0.00000000000E+00  0.00000000000E+00  0.76975204711E+03  0.76975204712E+03  0.25500000000E-02 0.  1.
         -2   -1    0    0    0  501 -0.00000000000E+00 -0.00000000000E+00 -0.16920467906E+03  0.16920467907E+03  0.25500000000E-02 0. -1.
    5000001    1    1    2    0    0 -0.28504651266E+03 -0.84887077037E+02  0.45726084500E+03  0.56988578733E+03  0.16500000000E+03 0.  0.
   -5000001    1    1    2    0    0  0.28504651266E+03  0.84887077037E+02  0.14328652306E+03  0.36907093887E+03  0.16500000000E+03 0.  0.
<mgrwt>
<rscale>  0 0.72179124E+03</rscale>
<asrwt>0</asrwt>
<pdfrwt beam="1">  1        2 0.11842339E+00 0.72179124E+03</pdfrwt>
<pdfrwt beam="2">  1       -2 0.26031489E-01 0.72179124E+03</pdfrwt>
<totfact> 0.48553937E+02</totfact>
</mgrwt>
</event>
<event>
 4    1  0.8404100E-005  0.5526860E+03  0.7818608E-02  0.1000874E+00
          2   -1    0    0  501    0  0.00000000000E+00  0.00000000000E+00  0.17523321862E+03  0.17523321863E+03  0.25500000000E-02 0.  1.
         -2   -1    0    0    0  501 -0.00000000000E+00 -0.00000000000E+00 -0.43579323628E+03  0.43579323628E+03  0.25500000000E-02 0. -1.
    5000001    1    1    2    0    0  0.12038736193E+03  0.16980048383E+03 -0.21458655137E+03  0.34146406729E+03  0.16500000000E+03 0.  0.
   -5000001    1    1    2    0    0 -0.12038736193E+03 -0.16980048383E+03 -0.45973466289E+02  0.26956238763E+03  0.16500000000E+03 0.  0.
<mgrwt>
<rscale>  0 0.55268599E+03</rscale>
<asrwt>0</asrwt>
<pdfrwt beam="1">  1        2 0.26958957E-01 0.55268599E+03</pdfrwt>
<pdfrwt beam="2">  1       -2 0.67045113E-01 0.55268599E+03</pdfrwt>
<totfact> 0.41433270E+02</totfact>
</mgrwt>
</event>
<event>
 4    1  0.8404100E-005  0.7173500E+03  0.7818608E-02  0.9688013E-01
          2   -1    0    0  501    0  0.00000000000E+00  0.00000000000E+00  0.20807568626E+04  0.20807568626E+04  0.25500000000E-02 0.  1.
         -2   -1    0    0    0  501 -0.00000000000E+00 -0.00000000000E+00 -0.61827376943E+02  0.61827376996E+02  0.25500000000E-02 0. -1.
    5000001    1    1    2    0    0  0.14907682028E+02  0.29957088523E+03  0.13291754341E+04  0.13725513793E+04  0.16500000000E+03 0.  0.
   -5000001    1    1    2    0    0 -0.14907682028E+02 -0.29957088523E+03  0.68975405151E+03  0.77003286023E+03  0.16500000000E+03 0.  0.
<mgrwt>
<rscale>  0 0.71734995E+03</rscale>
<asrwt>0</asrwt>
<pdfrwt beam="1">  1        2 0.32011647E+00 0.71734995E+03</pdfrwt>
<pdfrwt beam="2">  1       -2 0.95119033E-02 0.71734995E+03</pdfrwt>
<totfact> 0.46107946E+02</totfact>
</mgrwt>
</event>
<event>
 4    1  0.8404100E-005  0.4232582E+03  0.7818608E-02  0.1036011E+00
         -2   -1    0    0    0  501 -0.00000000000E+00  0.00000000000E+00  0.42814847145E+02  0.42814847221E+02  0.25500000000E-02 0. -1.
          2   -1    0    0  501    0  0.00000000000E+00 -0.00000000000E+00 -0.10460592416E+04  0.10460592416E+04  0.25500000000E-02 0.  1.
    5000001    1    1    2    0    0  0.25139344903E+02 -0.12359720893E+03 -0.60623596765E+03  0.64082392682E+03  0.16500000000E+03 0.  0.
   -5000001    1    1    2    0    0 -0.25139344903E+02  0.12359720893E+03 -0.39700842681E+03  0.44805016201E+03  0.16500000000E+03 0.  0.
<mgrwt>
<rscale>  0 0.42325816E+03</rscale>
<asrwt>0</asrwt>
<pdfrwt beam="1">  1        2 0.16093217E+00 0.42325816E+03</pdfrwt>
<pdfrwt beam="2">  1       -2 0.65869004E-02 0.42325816E+03</pdfrwt>
<totfact> 0.31626246E+03</totfact>
</mgrwt>
</event>
<event>
 4    1  0.8404100E-005  0.4080759E+03  0.7818608E-02  0.1041019E+00
          2   -1    0    0  501    0  0.00000000000E+00  0.00000000000E+00  0.32514703637E+03  0.32514703638E+03  0.25500000000E-02 0.  1.
         -2   -1    0    0    0  501 -0.00000000000E+00 -0.00000000000E+00 -0.12803896988E+03  0.12803896991E+03  0.25500000000E-02 0. -1.
    5000001    1    1    2    0    0 -0.10502414367E+03 -0.20613860222E+01  0.34064335865E+02  0.19854394739E+03  0.16500000000E+03 0.  0.
   -5000001    1    1    2    0    0  0.10502414367E+03  0.20613860222E+01  0.16304373062E+03  0.25464205890E+03  0.16500000000E+03 0.  0.
<mgrwt>
<rscale>  0 0.40807593E+03</rscale>
<asrwt>0</asrwt>
<pdfrwt beam="1">  1        2 0.50022621E-01 0.40807593E+03</pdfrwt>
<pdfrwt beam="2">  1       -2 0.19698303E-01 0.40807593E+03</pdfrwt>
<totfact> 0.21753970E+03</totfact>
</mgrwt>
</event>
<event>
 4    1  0.8404100E-005  0.5728643E+03  0.7818608E-02  0.9963360E-01
         -2   -1    0    0    0  501 -0.00000000000E+00  0.00000000000E+00  0.11958453099E+03  0.11958453102E+03  0.25500000000E-02 0. -1.
          2   -1    0    0  501    0  0.00000000000E+00 -0.00000000000E+00 -0.68607004877E+03  0.68607004877E+03  0.25500000000E-02 0.  1.
    5000001    1    1    2    0    0  0.70383455739E+02 -0.22203791193E+03 -0.31663311966E+03  0.42630528690E+03  0.16500000000E+03 0.  0.
   -5000001    1    1    2    0    0 -0.70383455739E+02  0.22203791193E+03 -0.24985239812E+03  0.37934929289E+03  0.16500000000E+03 0.  0.
<mgrwt>
<rscale>  0 0.57286426E+03</rscale>
<asrwt>0</asrwt>
<pdfrwt beam="1">  1        2 0.10554924E+00 0.57286426E+03</pdfrwt>
<pdfrwt beam="2">  1       -2 0.18397621E-01 0.57286426E+03</pdfrwt>
<totfact> 0.10417583E+03</totfact>
</mgrwt>
</event>
<event>
 4    1  0.8404100E-005  0.7718346E+03  0.7818608E-02  0.9601705E-01
         -2   -1    0    0    0  501 -0.00000000000E+00  0.00000000000E+00  0.33784690733E+03  0.33784690734E+03  0.25500000000E-02 0. -1.
          2   -1    0    0  501    0  0.00000000000E+00 -0.00000000000E+00 -0.44082740944E+03  0.44082740945E+03  0.25500000000E-02 0.  1.
    5000001    1    1    2    0    0 -0.16051368342E+03  0.24637061701E+03  0.13790736648E+03  0.36428912312E+03  0.16500000000E+03 0.  0.
   -5000001    1    1    2    0    0  0.16051368342E+03 -0.24637061701E+03 -0.24088786859E+03  0.41438519366E+03  0.16500000000E+03 0.  0.
<mgrwt>
<rscale>  0 0.77183464E+03</rscale>
<asrwt>0</asrwt>
<pdfrwt beam="1">  1        2 0.67819601E-01 0.77183464E+03</pdfrwt>
<pdfrwt beam="2">  1       -2 0.51976447E-01 0.77183464E+03</pdfrwt>
<totfact> 0.25086523E+02</totfact>
</mgrwt>
</event>
<event>
 4    1  0.8404100E-005  0.9161236E+03  0.7818608E-02  0.9405648E-01
         -2   -1    0    0    0  501 -0.00000000000E+00  0.00000000000E+00  0.57177513093E+03  0.57177513093E+03  0.25500000000E-02 0. -1.
          2   -1    0    0  501    0  0.00000000000E+00 -0.00000000000E+00 -0.36696352901E+03  0.36696352902E+03  0.25500000000E-02 0.  1.
    5000001    1    1    2    0    0  0.31537683153E+03  0.26344193862E+03  0.22247962287E+03  0.49556672960E+03  0.16500000000E+03 0.  0.
   -5000001    1    1    2    0    0 -0.31537683153E+03 -0.26344193862E+03 -0.17668020949E+02  0.44317193036E+03  0.16500000000E+03 0.  0.
<mgrwt>
<rscale>  0 0.91612362E+03</rscale>
<asrwt>0</asrwt>
<pdfrwt beam="1">  1        2 0.56455928E-01 0.91612362E+03</pdfrwt>
<pdfrwt beam="2">  1       -2 0.87965404E-01 0.91612362E+03</pdfrwt>
<totfact> 0.97912014E+01</totfact>
</mgrwt>
</event>
<event>
 4    1  0.8404100E-005  0.3871941E+03  0.7818608E-02  0.1048306E+00
         -2   -1    0    0    0  501 -0.00000000000E+00  0.00000000000E+00  0.25681432631E+02  0.25681432758E+02  0.25500000000E-02 0. -1.
          2   -1    0    0  501    0  0.00000000000E+00 -0.00000000000E+00 -0.14594130326E+04  0.14594130326E+04  0.25500000000E-02 0.  1.
    5000001    1    1    2    0    0 -0.89590259910E+02 -0.10084722261E+02 -0.89374574556E+03  0.91330968133E+03  0.16500000000E+03 0.  0.
   -5000001    1    1    2    0    0  0.89590259910E+02  0.10084722261E+02 -0.53998585441E+03  0.57178478403E+03  0.16500000000E+03 0.  0.
<mgrwt>
<rscale>  0 0.38719410E+03</rscale>
<asrwt>0</asrwt>
<pdfrwt beam="1">  1        2 0.22452502E+00 0.38719410E+03</pdfrwt>
<pdfrwt beam="2">  1       -2 0.39509908E-02 0.38719410E+03</pdfrwt>
<totfact> 0.40258863E+03</totfact>
</mgrwt>
</event>
<event>
 4    1  0.8404100E-005  0.3616316E+03  0.7818608E-02  0.1057940E+00
         -2   -1    0    0    0  501 -0.00000000000E+00  0.00000000000E+00  0.47545035012E+03  0.47545035013E+03  0.25500000000E-02 0. -1.
          2   -1    0    0  501    0  0.00000000000E+00 -0.00000000000E+00 -0.68765027485E+02  0.68765027532E+02  0.25500000000E-02 0.  1.
    5000001    1    1    2    0    0 -0.45927465819E+02  0.48742204429E+02  0.25055449921E+03  0.30738850285E+03  0.16500000000E+03 0.  0.
   -5000001    1    1    2    0    0  0.45927465819E+02 -0.48742204429E+02  0.15613082343E+03  0.23682687481E+03  0.16500000000E+03 0.  0.
<mgrwt>
<rscale>  0 0.36163162E+03</rscale>
<asrwt>0</asrwt>
<pdfrwt beam="1">  1        2 0.10579235E-01 0.36163162E+03</pdfrwt>
<pdfrwt beam="2">  1       -2 0.73146207E-01 0.36163162E+03</pdfrwt>
<totfact> 0.10418120E+03</totfact>
</mgrwt>
</event>
<event>
 4    1  0.8404100E-005  0.7592066E+03  0.7818608E-02  0.9621016E-01
          2   -1    0    0  501    0  0.00000000000E+00  0.00000000000E+00  0.14599346889E+04  0.14599346889E+04  0.25500000000E-02 0.  1.
         -2   -1    0    0    0  501 -0.00000000000E+00 -0.00000000000E+00 -0.98702143253E+02  0.98702143286E+02  0.25500000000E-02 0. -1.
    5000001    1    1    2    0    0 -0.12971935830E+03  0.22921322660E+03  0.11280901662E+04  0.11701188992E+04  0.16500000000E+03 0.  0.
   -5000001    1    1    2    0    0  0.12971935830E+03 -0.22921322660E+03  0.23314237945E+03  0.38851793300E+03  0.16500000000E+03 0.  0.
<mgrwt>
<rscale>  0 0.75920665E+03</rscale>
<asrwt>0</asrwt>
<pdfrwt beam="1">  1        2 0.22460532E+00 0.75920665E+03</pdfrwt>
<pdfrwt beam="2">  1       -2 0.15184947E-01 0.75920665E+03</pdfrwt>
<totfact> 0.46412470E+02</totfact>
</mgrwt>
</event>
<event>
 4    1  0.8404100E-005  0.6725874E+03  0.7818608E-02  0.9765295E-01
         -2   -1    0    0    0  501 -0.00000000000E+00  0.00000000000E+00  0.40454441794E+02  0.40454441875E+02  0.25500000000E-02 0. -1.
          2   -1    0    0  501    0  0.00000000000E+00 -0.00000000000E+00 -0.27955756581E+04  0.27955756581E+04  0.25500000000E-02 0.  1.
    5000001    1    1    2    0    0  0.12889247725E+03  0.17557332290E+03 -0.55096569900E+03  0.61500200315E+03  0.16500000000E+03 0.  0.
   -5000001    1    1    2    0    0 -0.12889247725E+03 -0.17557332290E+03 -0.22041555173E+04  0.22210280968E+04  0.16500000000E+03 0.  0.
<mgrwt>
<rscale>  0 0.67258740E+03</rscale>
<asrwt>0</asrwt>
<pdfrwt beam="1">  1        2 0.43008841E+00 0.67258740E+03</pdfrwt>
<pdfrwt beam="2">  1       -2 0.62237625E-02 0.67258740E+03</pdfrwt>
<totfact> 0.36017376E+02</totfact>
</mgrwt>
</event>
<event>
 4    1  0.8404100E-005  0.4274272E+03  0.7818608E-02  0.1034676E+00
         -2   -1    0    0    0  501 -0.00000000000E+00  0.00000000000E+00  0.20887596425E+02  0.20887596581E+02  0.25500000000E-02 0. -1.
          2   -1    0    0  501    0  0.00000000000E+00 -0.00000000000E+00 -0.21866326786E+04  0.21866326786E+04  0.25500000000E-02 0.  1.
    5000001    1    1    2    0    0 -0.91844236843E+02 -0.80187508971E+02 -0.77372054287E+03  0.80045854290E+03  0.16500000000E+03 0.  0.
   -5000001    1    1    2    0    0  0.91844236843E+02  0.80187508971E+02 -0.13920245393E+04  0.14070617323E+04  0.16500000000E+03 0.  0.
<mgrwt>
<rscale>  0 0.42742719E+03</rscale>
<asrwt>0</asrwt>
<pdfrwt beam="1">  1        2 0.33640485E+00 0.42742719E+03</pdfrwt>
<pdfrwt beam="2">  1       -2 0.32134781E-02 0.42742719E+03</pdfrwt>
<totfact> 0.22392605E+03</totfact>
</mgrwt>
</event>
<event>
 4    1  0.8404100E-005  0.4869668E+03  0.7818608E-02  0.1017238E+00
         -2   -1    0    0    0  501 -0.00000000000E+00  0.00000000000E+00  0.24973109030E+03  0.24973109031E+03  0.25500000000E-02 0. -1.
          2   -1    0    0  501    0  0.00000000000E+00 -0.00000000000E+00 -0.23739202912E+03  0.23739202913E+03  0.25500000000E-02 0.  1.
    5000001    1    1    2    0    0 -0.27728203434E+02 -0.14310116549E+03  0.11018546912E+03  0.24619633311E+03  0.16500000000E+03 0.  0.
   -5000001    1    1    2    0    0  0.27728203434E+02  0.14310116549E+03 -0.97846407934E+02  0.24092678634E+03  0.16500000000E+03 0.  0.
<mgrwt>
<rscale>  0 0.48696682E+03</rscale>
<asrwt>0</asrwt>
<pdfrwt beam="1">  1        2 0.36521850E-01 0.48696682E+03</pdfrwt>
<pdfrwt beam="2">  1       -2 0.38420168E-01 0.48696682E+03</pdfrwt>
<totfact> 0.91453198E+02</totfact>
</mgrwt>
</event>
<event>
 4    1  0.8404100E-005  0.5338560E+03  0.7818608E-02  0.1005301E+00
          2   -1    0    0  501    0  0.00000000000E+00  0.00000000000E+00  0.19904635571E+04  0.19904635571E+04  0.25500000000E-02 0.  1.
         -2   -1    0    0    0  501 -0.00000000000E+00 -0.00000000000E+00 -0.35795957216E+02  0.35795957307E+02  0.25500000000E-02 0. -1.
    5000001    1    1    2    0    0  0.14313347158E+03  0.15021439782E+03  0.85888006598E+03  0.89886123720E+03  0.16500000000E+03 0.  0.
   -5000001    1    1    2    0    0 -0.14313347158E+03 -0.15021439782E+03  0.10957875339E+04  0.11273982772E+04  0.16500000000E+03 0.  0.
<mgrwt>
<rscale>  0 0.53385597E+03</rscale>
<asrwt>0</asrwt>
<pdfrwt beam="1">  1        2 0.30622511E+00 0.53385597E+03</pdfrwt>
<pdfrwt beam="2">  1       -2 0.55070713E-02 0.53385597E+03</pdfrwt>
<totfact> 0.12438605E+03</totfact>
</mgrwt>
</event>
<event>
 4    1  0.8404100E-005  0.4735049E+03  0.7818608E-02  0.1020936E+00
         -2   -1    0    0    0  501 -0.00000000000E+00  0.00000000000E+00  0.34972176247E+02  0.34972176340E+02  0.25500000000E-02 0. -1.
          2   -1    0    0  501    0  0.00000000000E+00 -0.00000000000E+00 -0.16027521009E+04  0.16027521009E+04  0.25500000000E-02 0.  1.
    5000001    1    1    2    0    0  0.28274785188E+02 -0.16457186626E+03 -0.89012223774E+03  0.92055741851E+03  0.16500000000E+03 0.  0.
   -5000001    1    1    2    0    0 -0.28274785188E+02  0.16457186626E+03 -0.67765768689E+03  0.71716685871E+03  0.16500000000E+03 0.  0.
<mgrwt>
<rscale>  0 0.47350493E+03</rscale>
<asrwt>0</asrwt>
<pdfrwt beam="1">  1        2 0.24657719E+00 0.47350493E+03</pdfrwt>
<pdfrwt beam="2">  1       -2 0.53803361E-02 0.47350493E+03</pdfrwt>
<totfact> 0.20921925E+03</totfact>
</mgrwt>
</event>
<event>
 4    1  0.8404100E-005  0.3845201E+03  0.7818608E-02  0.1049276E+00
         -2   -1    0    0    0  501 -0.00000000000E+00  0.00000000000E+00  0.99053023489E+02  0.99053023522E+02  0.25500000000E-02 0. -1.
          2   -1    0    0  501    0  0.00000000000E+00 -0.00000000000E+00 -0.37317304429E+03  0.37317304429E+03  0.25500000000E-02 0.  1.
    5000001    1    1    2    0    0  0.94079317781E+02 -0.73070097557E+01 -0.10158094201E+03  0.21551797652E+03  0.16500000000E+03 0.  0.
   -5000001    1    1    2    0    0 -0.94079317781E+02  0.73070097557E+01 -0.17253907879E+03  0.25670809129E+03  0.16500000000E+03 0.  0.
<mgrwt>
<rscale>  0 0.38452006E+03</rscale>
<asrwt>0</asrwt>
<pdfrwt beam="1">  1        2 0.57411237E-01 0.38452006E+03</pdfrwt>
<pdfrwt beam="2">  1       -2 0.15238927E-01 0.38452006E+03</pdfrwt>
<totfact> 0.28886338E+03</totfact>
</mgrwt>
</event>
<event>
 4    1  0.8404100E-005  0.5271075E+03  0.7818608E-02  0.1006936E+00
         -2   -1    0    0    0  501 -0.00000000000E+00  0.00000000000E+00  0.85800988381E+02  0.85800988419E+02  0.25500000000E-02 0. -1.
          2   -1    0    0  501    0  0.00000000000E+00 -0.00000000000E+00 -0.80955442737E+03  0.80955442738E+03  0.25500000000E-02 0.  1.
    5000001    1    1    2    0    0 -0.16320109584E+02 -0.19208007586E+03 -0.24087498968E+03  0.34986692066E+03  0.16500000000E+03 0.  0.
   -5000001    1    1    2    0    0  0.16320109584E+02  0.19208007586E+03 -0.48287844931E+03  0.54548849514E+03  0.16500000000E+03 0.  0.
<mgrwt>
<rscale>  0 0.52710747E+03</rscale>
<asrwt>0</asrwt>
<pdfrwt beam="1">  1        2 0.12454683E+00 0.52710747E+03</pdfrwt>
<pdfrwt beam="2">  1       -2 0.13200153E-01 0.52710747E+03</pdfrwt>
<totfact> 0.14781831E+03</totfact>
</mgrwt>
</event>
<event>
 4    1  0.8404100E-005  0.4593185E+03  0.7818608E-02  0.1024979E+00
          2   -1    0    0  501    0  0.00000000000E+00  0.00000000000E+00  0.41339481231E+03  0.41339481232E+03  0.25500000000E-02 0.  1.
         -2   -1    0    0    0  501 -0.00000000000E+00 -0.00000000000E+00 -0.12758596875E+03  0.12758596877E+03  0.25500000000E-02 0. -1.
    5000001    1    1    2    0    0  0.14103778922E+03  0.10666231234E+02  0.55454395672E+02  0.22428913589E+03  0.16500000000E+03 0.  0.
   -5000001    1    1    2    0    0 -0.14103778922E+03 -0.10666231234E+02  0.23035444789E+03  0.31669164520E+03  0.16500000000E+03 0.  0.
<mgrwt>
<rscale>  0 0.45931853E+03</rscale>
<asrwt>0</asrwt>
<pdfrwt beam="1">  1        2 0.63599202E-01 0.45931853E+03</pdfrwt>
<pdfrwt beam="2">  1       -2 0.19628610E-01 0.45931853E+03</pdfrwt>
<totfact> 0.16820882E+03</totfact>
</mgrwt>
</event>
<event>
 4    1  0.8404100E-005  0.1153824E+04  0.7818608E-02  0.9154263E-01
          2   -1    0    0  501    0  0.00000000000E+00  0.00000000000E+00  0.10425086590E+04  0.10425086590E+04  0.25500000000E-02 0.  1.
         -2   -1    0    0    0  501 -0.00000000000E+00 -0.00000000000E+00 -0.31925629927E+03  0.31925629928E+03  0.25500000000E-02 0. -1.
    5000001    1    1    2    0    0 -0.38736778292E+03  0.39439526668E+03  0.36282444712E+03  0.68151889559E+03  0.16500000000E+03 0.  0.
   -5000001    1    1    2    0    0  0.38736778292E+03 -0.39439526668E+03  0.36042791263E+03  0.68024606270E+03  0.16500000000E+03 0.  0.
<mgrwt>
<rscale>  0 0.11538240E+04</rscale>
<asrwt>0</asrwt>
<pdfrwt beam="1">  1        2 0.16038595E+00 0.11538240E+04</pdfrwt>
<pdfrwt beam="2">  1       -2 0.49116353E-01 0.11538240E+04</pdfrwt>
<totfact> 0.91883292E+01</totfact>
</mgrwt>
</event>
<event>
 4    1  0.8404100E-005  0.4099043E+03  0.7818608E-02  0.1040403E+00
          2   -1    0    0  501    0  0.00000000000E+00  0.00000000000E+00  0.23239543176E+04  0.23239543176E+04  0.25500000000E-02 0.  1.
         -2   -1    0    0    0  501 -0.00000000000E+00 -0.00000000000E+00 -0.18074965126E+02  0.18074965306E+02  0.25500000000E-02 0. -1.
    5000001    1    1    2    0    0  0.33895587801E+02  0.11574988706E+03  0.10656418898E+04  0.10850643228E+04  0.16500000000E+03 0.  0.
   -5000001    1    1    2    0    0 -0.33895587801E+02 -0.11574988706E+03  0.12402374627E+04  0.12569649602E+04  0.16500000000E+03 0.  0.
<mgrwt>
<rscale>  0 0.40990435E+03</rscale>
<asrwt>0</asrwt>
<pdfrwt beam="1">  1        2 0.35753151E+00 0.40990435E+03</pdfrwt>
<pdfrwt beam="2">  1       -2 0.27807633E-02 0.40990435E+03</pdfrwt>
<totfact> 0.23477847E+03</totfact>
</mgrwt>
</event>
<event>
 4    1  0.8404100E-005  0.6730862E+03  0.7818608E-02  0.9764399E-01
         -2   -1    0    0    0  501 -0.00000000000E+00  0.00000000000E+00  0.14473691047E+03  0.14473691049E+03  0.25500000000E-02 0. -1.
          2   -1    0    0  501    0  0.00000000000E+00 -0.00000000000E+00 -0.78253186123E+03  0.78253186123E+03  0.25500000000E-02 0.  1.
    5000001    1    1    2    0    0 -0.10836889659E+03 -0.41105704216E+02 -0.69010049642E+03  0.71895562577E+03  0.16500000000E+03 0.  0.
   -5000001    1    1    2    0    0  0.10836889659E+03  0.41105704216E+02  0.52305545662E+02  0.20831314595E+03  0.16500000000E+03 0.  0.
<mgrwt>
<rscale>  0 0.67308616E+03</rscale>
<asrwt>0</asrwt>
<pdfrwt beam="1">  1        2 0.12038952E+00 0.67308616E+03</pdfrwt>
<pdfrwt beam="2">  1       -2 0.22267217E-01 0.67308616E+03</pdfrwt>
<totfact> 0.62968128E+02</totfact>
</mgrwt>
</event>
<event>
 4    1  0.8404100E-005  0.4322253E+03  0.7818608E-02  0.1033159E+00
          2   -1    0    0  501    0  0.00000000000E+00  0.00000000000E+00  0.27373035749E+04  0.27373035749E+04  0.25500000000E-02 0.  1.
         -2   -1    0    0    0  501 -0.00000000000E+00 -0.00000000000E+00 -0.17062291245E+02  0.17062291435E+02  0.25500000000E-02 0. -1.
    5000001    1    1    2    0    0 -0.13278678053E+03  0.22231098358E+01  0.16336496622E+04  0.16473231287E+04  0.16500000000E+03 0.  0.
   -5000001    1    1    2    0    0  0.13278678053E+03 -0.22231098358E+01  0.10865916214E+04  0.11070427377E+04  0.16500000000E+03 0.  0.
<mgrwt>
<rscale>  0 0.43222527E+03</rscale>
<asrwt>0</asrwt>
<pdfrwt beam="1">  1        2 0.42112369E+00 0.43222527E+03</pdfrwt>
<pdfrwt beam="2">  1       -2 0.26249675E-02 0.43222527E+03</pdfrwt>
<totfact> 0.15010017E+03</totfact>
</mgrwt>
</event>
<event>
 4    1  0.8404100E-005  0.5322577E+03  0.7818608E-02  0.1005686E+00
          2   -1    0    0  501    0  0.00000000000E+00  0.00000000000E+00  0.13650777488E+04  0.13650777488E+04  0.25500000000E-02 0.  1.
         -2   -1    0    0    0  501 -0.00000000000E+00 -0.00000000000E+00 -0.51883176706E+02  0.51883176769E+02  0.25500000000E-02 0. -1.
    5000001    1    1    2    0    0  0.19420481644E+03 -0.69495157834E+02  0.57014916157E+03  0.62836307508E+03  0.16500000000E+03 0.  0.
   -5000001    1    1    2    0    0 -0.19420481644E+03  0.69495157834E+02  0.74304541050E+03  0.78859785046E+03  0.16500000000E+03 0.  0.
<mgrwt>
<rscale>  0 0.53225772E+03</rscale>
<asrwt>0</asrwt>
<pdfrwt beam="1">  1        2 0.21001196E+00 0.53225772E+03</pdfrwt>
<pdfrwt beam="2">  1       -2 0.79820273E-02 0.53225772E+03</pdfrwt>
<totfact> 0.15203617E+03</totfact>
</mgrwt>
</event>
<event>
 4    1  0.8404100E-005  0.5714390E+03  0.7818608E-02  0.9966499E-01
          2   -1    0    0  501    0  0.00000000000E+00  0.00000000000E+00  0.38316889634E+04  0.38316889634E+04  0.25500000000E-02 0.  1.
         -2   -1    0    0    0  501 -0.00000000000E+00 -0.00000000000E+00 -0.21305392837E+02  0.21305392989E+02  0.25500000000E-02 0. -1.
    5000001    1    1    2    0    0 -0.21326310088E+03  0.85393205795E+02  0.16323457247E+04  0.16566685591E+04  0.16500000000E+03 0.  0.
   -5000001    1    1    2    0    0  0.21326310088E+03 -0.85393205795E+02  0.21780378459E+04  0.21963257973E+04  0.16500000000E+03 0.  0.
<mgrwt>
<rscale>  0 0.57143902E+03</rscale>
<asrwt>0</asrwt>
<pdfrwt beam="1">  1        2 0.58949068E+00 0.57143902E+03</pdfrwt>
<pdfrwt beam="2">  1       -2 0.32777524E-02 0.57143902E+03</pdfrwt>
<totfact> 0.20635351E+02</totfact>
</mgrwt>
</event>
<event>
 4    1  0.8404100E-005  0.3873849E+03  0.7818608E-02  0.1048238E+00
          2   -1    0    0  501    0  0.00000000000E+00  0.00000000000E+00  0.24530648617E+03  0.24530648618E+03  0.25500000000E-02 0.  1.
         -2   -1    0    0    0  501 -0.00000000000E+00 -0.00000000000E+00 -0.15293834106E+03  0.15293834108E+03  0.25500000000E-02 0. -1.
    5000001    1    1    2    0    0  0.67795338918E+02  0.32980585322E+01 -0.31326425549E+02  0.18114477665E+03  0.16500000000E+03 0.  0.
   -5000001    1    1    2    0    0 -0.67795338918E+02 -0.32980585322E+01  0.12369457065E+03  0.21710005062E+03  0.16500000000E+03 0.  0.
<mgrwt>
<rscale>  0 0.38738491E+03</rscale>
<asrwt>0</asrwt>
<pdfrwt beam="1">  1        2 0.37739459E-01 0.38738491E+03</pdfrwt>
<pdfrwt beam="2">  1       -2 0.23528976E-01 0.38738491E+03</pdfrwt>
<totfact> 0.21687683E+03</totfact>
</mgrwt>
</event>
<event>
 4    1  0.8404100E-005  0.5697930E+03  0.7818608E-02  0.9970137E-01
          2   -1    0    0  501    0  0.00000000000E+00  0.00000000000E+00  0.96838785023E+02  0.96838785057E+02  0.25500000000E-02 0.  1.
         -2   -1    0    0    0  501 -0.00000000000E+00 -0.00000000000E+00 -0.83815596537E+03  0.83815596537E+03  0.25500000000E-02 0. -1.
    5000001    1    1    2    0    0  0.14247851322E+03 -0.12462621749E+03 -0.14983699748E+03  0.29241741848E+03  0.16500000000E+03 0.  0.
   -5000001    1    1    2    0    0 -0.14247851322E+03  0.12462621749E+03 -0.59148018286E+03  0.64257733195E+03  0.16500000000E+03 0.  0.
<mgrwt>
<rscale>  0 0.56979296E+03</rscale>
<asrwt>0</asrwt>
<pdfrwt beam="1">  1        2 0.14898275E-01 0.56979296E+03</pdfrwt>
<pdfrwt beam="2">  1       -2 0.12894707E+00 0.56979296E+03</pdfrwt>
<totfact> 0.18190513E+02</totfact>
</mgrwt>
</event>
<event>
 4    1  0.8404100E-005  0.3886005E+03  0.7818608E-02  0.1047800E+00
         -2   -1    0    0    0  501 -0.00000000000E+00  0.00000000000E+00  0.58264090349E+02  0.58264090405E+02  0.25500000000E-02 0. -1.
          2   -1    0    0  501    0  0.00000000000E+00 -0.00000000000E+00 -0.64795637472E+03  0.64795637472E+03  0.25500000000E-02 0.  1.
    5000001    1    1    2    0    0 -0.47031269166E+02 -0.91151154784E+02 -0.29969387975E+03  0.35715808105E+03  0.16500000000E+03 0.  0.
   -5000001    1    1    2    0    0  0.47031269166E+02  0.91151154784E+02 -0.28999840462E+03  0.34906238408E+03  0.16500000000E+03 0.  0.
<mgrwt>
<rscale>  0 0.38860051E+03</rscale>
<asrwt>0</asrwt>
<pdfrwt beam="1">  1        2 0.99685591E-01 0.38860051E+03</pdfrwt>
<pdfrwt beam="2">  1       -2 0.89637067E-02 0.38860051E+03</pdfrwt>
<totfact> 0.36585510E+03</totfact>
</mgrwt>
</event>
<event>
 4    1  0.8404100E-005  0.7742597E+03  0.7818608E-02  0.9598041E-01
          2   -1    0    0  501    0  0.00000000000E+00  0.00000000000E+00  0.15011985368E+04  0.15011985368E+04  0.25500000000E-02 0.  1.
         -2   -1    0    0    0  501 -0.00000000000E+00 -0.00000000000E+00 -0.99833242210E+02  0.99833242243E+02  0.25500000000E-02 0. -1.
    5000001    1    1    2    0    0 -0.33140626517E+03  0.86381833731E+02  0.54939794234E+03  0.66809807127E+03  0.16500000000E+03 0.  0.
   -5000001    1    1    2    0    0  0.33140626517E+03 -0.86381833731E+02  0.85196735222E+03  0.93293370774E+03  0.16500000000E+03 0.  0.
<mgrwt>
<rscale>  0 0.77425969E+03</rscale>
<asrwt>0</asrwt>
<pdfrwt beam="1">  1        2 0.23095362E+00 0.77425969E+03</pdfrwt>
<pdfrwt beam="2">  1       -2 0.15358960E-01 0.77425969E+03</pdfrwt>
<totfact> 0.43134484E+02</totfact>
</mgrwt>
</event>
<event>
 4    1  0.8404100E-005  0.4401837E+03  0.7818608E-02  0.1030690E+00
         -2   -1    0    0    0  501 -0.00000000000E+00  0.00000000000E+00  0.23922831526E+02  0.23922831662E+02  0.25500000000E-02 0. -1.
          2   -1    0    0  501    0  0.00000000000E+00 -0.00000000000E+00 -0.20248614965E+04  0.20248614965E+04  0.25500000000E-02 0.  1.
    5000001    1    1    2    0    0  0.82728484381E+02 -0.11756658881E+03 -0.89136240418E+03  0.91783323132E+03  0.16500000000E+03 0.  0.
   -5000001    1    1    2    0    0 -0.82728484381E+02  0.11756658881E+03 -0.11095762608E+04  0.11309510969E+04  0.16500000000E+03 0.  0.
<mgrwt>
<rscale>  0 0.44018369E+03</rscale>
<asrwt>0</asrwt>
<pdfrwt beam="1">  1        2 0.31151702E+00 0.44018369E+03</pdfrwt>
<pdfrwt beam="2">  1       -2 0.36804372E-02 0.44018369E+03</pdfrwt>
<totfact> 0.22261015E+03</totfact>
</mgrwt>
</event>
<event>
 4    1  0.8404100E-005  0.4235696E+03  0.7818608E-02  0.1035911E+00
          2   -1    0    0  501    0  0.00000000000E+00  0.00000000000E+00  0.17575017248E+03  0.17575017249E+03  0.25500000000E-02 0.  1.
         -2   -1    0    0    0  501 -0.00000000000E+00 -0.00000000000E+00 -0.25520772902E+03  0.25520772903E+03  0.25500000000E-02 0. -1.
    5000001    1    1    2    0    0 -0.11886526628E+03  0.52318231656E+02 -0.11649316162E+02  0.21030181991E+03  0.16500000000E+03 0.  0.
   -5000001    1    1    2    0    0  0.11886526628E+03 -0.52318231656E+02 -0.67808240382E+02  0.22065608162E+03  0.16500000000E+03 0.  0.
<mgrwt>
<rscale>  0 0.42356960E+03</rscale>
<asrwt>0</asrwt>
<pdfrwt beam="1">  1        2 0.27038488E-01 0.42356960E+03</pdfrwt>
<pdfrwt beam="2">  1       -2 0.39262728E-01 0.42356960E+03</pdfrwt>
<totfact> 0.12251030E+03</totfact>
</mgrwt>
</event>
<event>
 4    1  0.8404100E-005  0.5753779E+03  0.7818608E-02  0.9957848E-01
         -2   -1    0    0    0  501 -0.00000000000E+00  0.00000000000E+00  0.19062370875E+03  0.19062370877E+03  0.25500000000E-02 0. -1.
          2   -1    0    0  501    0  0.00000000000E+00 -0.00000000000E+00 -0.43417961687E+03  0.43417961688E+03  0.25500000000E-02 0.  1.
    5000001    1    1    2    0    0  0.13895579224E+03  0.18429985286E+03 -0.17345566384E+03  0.33254626036E+03  0.16500000000E+03 0.  0.
   -5000001    1    1    2    0    0 -0.13895579224E+03 -0.18429985286E+03 -0.70100244283E+02  0.29225706529E+03  0.16500000000E+03 0.  0.
<mgrwt>
<rscale>  0 0.57537789E+03</rscale>
<asrwt>0</asrwt>
<pdfrwt beam="1">  1        2 0.66796864E-01 0.57537789E+03</pdfrwt>
<pdfrwt beam="2">  1       -2 0.29326724E-01 0.57537789E+03</pdfrwt>
<totfact> 0.77851927E+02</totfact>
</mgrwt>
</event>
<event>
 4    1  0.8404100E-005  0.3668561E+03  0.7818608E-02  0.1055902E+00
         -2   -1    0    0    0  501 -0.00000000000E+00  0.00000000000E+00  0.94518275096E+02  0.94518275131E+02  0.25500000000E-02 0. -1.
          2   -1    0    0  501    0  0.00000000000E+00 -0.00000000000E+00 -0.35597197333E+03  0.35597197334E+03  0.25500000000E-02 0.  1.
    5000001    1    1    2    0    0 -0.27943649233E+02 -0.56980631518E+02 -0.19080003195E+03  0.26011015377E+03  0.16500000000E+03 0.  0.
   -5000001    1    1    2    0    0  0.27943649233E+02  0.56980631518E+02 -0.70653666288E+02  0.19038009471E+03  0.16500000000E+03 0.  0.
<mgrwt>
<rscale>  0 0.36685614E+03</rscale>
<asrwt>0</asrwt>
<pdfrwt beam="1">  1        2 0.54764918E-01 0.36685614E+03</pdfrwt>
<pdfrwt beam="2">  1       -2 0.14541273E-01 0.36685614E+03</pdfrwt>
<totfact> 0.32857417E+03</totfact>
</mgrwt>
</event>
<event>
 4    1  0.8404100E-005  0.4497909E+03  0.7818608E-02  0.1027784E+00
         -2   -1    0    0    0  501 -0.00000000000E+00  0.00000000000E+00  0.48960604781E+02  0.48960604847E+02  0.25500000000E-02 0. -1.
          2   -1    0    0  501    0  0.00000000000E+00 -0.00000000000E+00 -0.10330340773E+04  0.10330340773E+04  0.25500000000E-02 0.  1.
    5000001    1    1    2    0    0  0.12907358282E+03  0.53288411162E+02 -0.34271176265E+03  0.40518637293E+03  0.16500000000E+03 0.  0.
   -5000001    1    1    2    0    0 -0.12907358282E+03 -0.53288411162E+02 -0.64136170984E+03  0.67680830920E+03  0.16500000000E+03 0.  0.
<mgrwt>
<rscale>  0 0.44979094E+03</rscale>
<asrwt>0</asrwt>
<pdfrwt beam="1">  1        2 0.15892830E+00 0.44979094E+03</pdfrwt>
<pdfrwt beam="2">  1       -2 0.75324015E-02 0.44979094E+03</pdfrwt>
<totfact> 0.26101129E+03</totfact>
</mgrwt>
</event>
<event>
 4    1  0.8404100E-005  0.4803748E+03  0.7818608E-02  0.1019032E+00
          2   -1    0    0  501    0  0.00000000000E+00  0.00000000000E+00  0.13730308061E+04  0.13730308061E+04  0.25500000000E-02 0.  1.
         -2   -1    0    0    0  501 -0.00000000000E+00 -0.00000000000E+00 -0.42016524802E+02  0.42016524879E+02  0.25500000000E-02 0. -1.
    5000001    1    1    2    0    0  0.11473881371E+03  0.11527395362E+03  0.85208752765E+03  0.88302391504E+03  0.16500000000E+03 0.  0.
   -5000001    1    1    2    0    0 -0.11473881371E+03 -0.11527395362E+03  0.47892675367E+03  0.53202341596E+03  0.16500000000E+03 0.  0.
<mgrwt>
<rscale>  0 0.48037478E+03</rscale>
<asrwt>0</asrwt>
<pdfrwt beam="1">  1        2 0.21123547E+00 0.48037478E+03</pdfrwt>
<pdfrwt beam="2">  1       -2 0.64640819E-02 0.48037478E+03</pdfrwt>
<totfact> 0.21019191E+03</totfact>
</mgrwt>
</event>
<event>
 4    1  0.8404100E-005  0.4465555E+03  0.7818608E-02  0.1028754E+00
         -2   -1    0    0    0  501 -0.00000000000E+00  0.00000000000E+00  0.49274209954E+02  0.49274210020E+02  0.25500000000E-02 0.  1.
          2   -1    0    0  501    0  0.00000000000E+00 -0.00000000000E+00 -0.10117454520E+04  0.10117454520E+04  0.25500000000E-02 0. -1.
    5000001    1    1    2    0    0 -0.89116102801E+02 -0.84560642027E+02 -0.27497707197E+03  0.34340875363E+03  0.16500000000E+03 0.  0.
   -5000001    1    1    2    0    0  0.89116102801E+02  0.84560642027E+02 -0.68749417008E+03  0.71761090840E+03  0.16500000000E+03 0.  0.
<mgrwt>
<rscale>  0 0.44655552E+03</rscale>
<asrwt>0</asrwt>
<pdfrwt beam="1">  1        2 0.15565313E+00 0.44655552E+03</pdfrwt>
<pdfrwt beam="2">  1       -2 0.75806485E-02 0.44655552E+03</pdfrwt>
<totfact> 0.26636096E+03</totfact>
</mgrwt>
</event>
<event>
 4    1  0.8404100E-005  0.4471024E+03  0.7818608E-02  0.1028590E+00
         -2   -1    0    0    0  501 -0.00000000000E+00  0.00000000000E+00  0.95429155073E+02  0.95429155107E+02  0.25500000000E-02 0. -1.
          2   -1    0    0  501    0  0.00000000000E+00 -0.00000000000E+00 -0.52368848897E+03  0.52368848898E+03  0.25500000000E-02 0.  1.
    5000001    1    1    2    0    0 -0.13735424534E+03  0.40556142637E+02 -0.27965492736E+03  0.35488430202E+03  0.16500000000E+03 0.  0.
   -5000001    1    1    2    0    0  0.13735424534E+03 -0.40556142637E+02 -0.14860440653E+03  0.26423334207E+03  0.16500000000E+03 0.  0.
<mgrwt>
<rscale>  0 0.44710245E+03</rscale>
<asrwt>0</asrwt>
<pdfrwt beam="1">  1        2 0.80567458E-01 0.44710245E+03</pdfrwt>
<pdfrwt beam="2">  1       -2 0.14681409E-01 0.44710245E+03</pdfrwt>
<totfact> 0.21078685E+03</totfact>
</mgrwt>
</event>
<event>
 4    1  0.8404100E-005  0.4990521E+03  0.7818608E-02  0.1014027E+00
         -2   -1    0    0    0  501 -0.00000000000E+00  0.00000000000E+00  0.39293103079E+02  0.39293103162E+02  0.25500000000E-02 0. -1.
          2   -1    0    0  501    0  0.00000000000E+00 -0.00000000000E+00 -0.15845848396E+04  0.15845848396E+04  0.25500000000E-02 0.  1.
    5000001    1    1    2    0    0  0.76837793496E+02  0.16947433440E+03 -0.70654561480E+03  0.74903758405E+03  0.16500000000E+03 0.  0.
   -5000001    1    1    2    0    0 -0.76837793496E+02 -0.16947433440E+03 -0.83874612172E+03  0.87484035871E+03  0.16500000000E+03 0.  0.
<mgrwt>
<rscale>  0 0.49905212E+03</rscale>
<asrwt>0</asrwt>
<pdfrwt beam="1">  1        2 0.24378223E+00 0.49905212E+03</pdfrwt>
<pdfrwt beam="2">  1       -2 0.60450940E-02 0.49905212E+03</pdfrwt>
<totfact> 0.17841458E+03</totfact>
</mgrwt>
</event>
<event>
 4    1  0.8404100E-005  0.6206323E+03  0.7818608E-02  0.9863502E-01
          2   -1    0    0  501    0  0.00000000000E+00  0.00000000000E+00  0.55725604797E+03  0.55725604798E+03  0.25500000000E-02 0.  1.
         -2   -1    0    0    0  501 -0.00000000000E+00 -0.00000000000E+00 -0.17280405000E+03  0.17280405002E+03  0.25500000000E-02 0. -1.
    5000001    1    1    2    0    0 -0.56613852567E+01 -0.26262411802E+03  0.18255274559E+03  0.35993608262E+03  0.16500000000E+03 0.  0.
   -5000001    1    1    2    0    0  0.56613852567E+01  0.26262411802E+03  0.20189925238E+03  0.37012401538E+03  0.16500000000E+03 0.  0.
<mgrwt>
<rscale>  0 0.62063226E+03</rscale>
<asrwt>0</asrwt>
<pdfrwt beam="1">  1        2 0.85731700E-01 0.62063226E+03</pdfrwt>
<pdfrwt beam="2">  1       -2 0.26585238E-01 0.62063226E+03</pdfrwt>
<totfact> 0.69840654E+02</totfact>
</mgrwt>
</event>
<event>
 4    1  0.8404100E-005  0.3551526E+03  0.7818608E-02  0.1060520E+00
         -2   -1    0    0    0  501 -0.00000000000E+00  0.00000000000E+00  0.61598265726E+02  0.61598265779E+02  0.25500000000E-02 0. -1.
          2   -1    0    0  501    0  0.00000000000E+00 -0.00000000000E+00 -0.51191920839E+03  0.51191920839E+03  0.25500000000E-02 0.  1.
    5000001    1    1    2    0    0  0.17457739247E+02  0.61567156221E+02 -0.20158987902E+03  0.26825131260E+03  0.16500000000E+03 0.  0.
   -5000001    1    1    2    0    0 -0.17457739247E+02 -0.61567156221E+02 -0.24873106363E+03  0.30526616157E+03  0.16500000000E+03 0.  0.
<mgrwt>
<rscale>  0 0.35515256E+03</rscale>
<asrwt>0</asrwt>
<pdfrwt beam="1">  1        2 0.78756798E-01 0.35515256E+03</pdfrwt>
<pdfrwt beam="2">  1       -2 0.94766566E-02 0.35515256E+03</pdfrwt>
<totfact> 0.44005202E+03</totfact>
</mgrwt>
</event>
<event>
 4    1  0.8404100E-005  0.6319629E+03  0.7818608E-02  0.9841226E-01
          2   -1    0    0  501    0  0.00000000000E+00  0.00000000000E+00  0.24557592865E+04  0.24557592865E+04  0.25500000000E-02 0.  1.
         -2   -1    0    0    0  501 -0.00000000000E+00 -0.00000000000E+00 -0.40657190179E+02  0.40657190259E+02  0.25500000000E-02 0. -1.
    5000001    1    1    2    0    0 -0.12613861340E+03 -0.23767543984E+03  0.12659705371E+04  0.13047248620E+04  0.16500000000E+03 0.  0.
   -5000001    1    1    2    0    0  0.12613861340E+03  0.23767543984E+03  0.11491315591E+04  0.11916916148E+04  0.16500000000E+03 0.  0.
<mgrwt>
<rscale>  0 0.63196289E+03</rscale>
<asrwt>0</asrwt>
<pdfrwt beam="1">  1        2 0.37780910E+00 0.63196289E+03</pdfrwt>
<pdfrwt beam="2">  1       -2 0.62549526E-02 0.63196289E+03</pdfrwt>
<totfact> 0.56217480E+02</totfact>
</mgrwt>
</event>
<event>
 4    1  0.8404100E-005  0.4166819E+03  0.7818608E-02  0.1038152E+00
          2   -1    0    0  501    0  0.00000000000E+00  0.00000000000E+00  0.24870331030E+04  0.24870331030E+04  0.25500000000E-02 0.  1.
         -2   -1    0    0    0  501 -0.00000000000E+00 -0.00000000000E+00 -0.17452908259E+02  0.17452908445E+02  0.25500000000E-02 0. -1.
    5000001    1    1    2    0    0  0.11776538648E+03  0.47040263251E+02  0.11748386442E+04  0.11931271150E+04  0.16500000000E+03 0.  0.
   -5000001    1    1    2    0    0 -0.11776538648E+03 -0.47040263251E+02  0.12947415506E+04  0.13113588965E+04  0.16500000000E+03 0.  0.
<mgrwt>
<rscale>  0 0.41668194E+03</rscale>
<asrwt>0</asrwt>
<pdfrwt beam="1">  1        2 0.38262048E+00 0.41668194E+03</pdfrwt>
<pdfrwt beam="2">  1       -2 0.26850628E-02 0.41668194E+03</pdfrwt>
<totfact> 0.20117105E+03</totfact>
</mgrwt>
</event>
<event>
 4    1  0.8404100E-005  0.8169461E+03  0.7818608E-02  0.9535807E-01
         -2   -1    0    0    0  501 -0.00000000000E+00  0.00000000000E+00  0.50656964999E+03  0.50656965000E+03  0.25500000000E-02 0. -1.
          2   -1    0    0  501    0  0.00000000000E+00 -0.00000000000E+00 -0.32937274888E+03  0.32937274889E+03  0.25500000000E-02 0.  1.
    5000001    1    1    2    0    0 -0.22049250630E+03  0.30068803658E+03  0.63638685460E+02  0.41268041262E+03  0.16500000000E+03 0.  0.
   -5000001    1    1    2    0    0  0.22049250630E+03 -0.30068803658E+03  0.11355821565E+03  0.42326198627E+03  0.16500000000E+03 0.  0.
<mgrwt>
<rscale>  0 0.81694611E+03</rscale>
<asrwt>0</asrwt>
<pdfrwt beam="1">  1        2 0.50672731E-01 0.81694611E+03</pdfrwt>
<pdfrwt beam="2">  1       -2 0.77933792E-01 0.81694611E+03</pdfrwt>
<totfact> 0.14603074E+02</totfact>
</mgrwt>
</event>
<event>
 4    1  0.8404100E-005  0.7967234E+03  0.7818608E-02  0.9564772E-01
         -2   -1    0    0    0  501 -0.00000000000E+00  0.00000000000E+00  0.10599882408E+03  0.10599882411E+03  0.25500000000E-02 0. -1.
          2   -1    0    0  501    0  0.00000000000E+00 -0.00000000000E+00 -0.14971113733E+04  0.14971113733E+04  0.25500000000E-02 0.  1.
    5000001    1    1    2    0    0 -0.14755890319E+03  0.24280731142E+03 -0.11487903776E+04  0.11948528579E+04  0.16500000000E+03 0.  0.
   -5000001    1    1    2    0    0  0.14755890319E+03 -0.24280731142E+03 -0.24232217159E+03  0.40825733947E+03  0.16500000000E+03 0.  0.
<mgrwt>
<rscale>  0 0.79672340E+03</rscale>
<asrwt>0</asrwt>
<pdfrwt beam="1">  1        2 0.23032481E+00 0.79672340E+03</pdfrwt>
<pdfrwt beam="2">  1       -2 0.16307512E-01 0.79672340E+03</pdfrwt>
<totfact> 0.39105359E+02</totfact>
</mgrwt>
</event>
<event>
 4    1  0.8404100E-005  0.4096212E+03  0.7818608E-02  0.1040498E+00
          2   -1    0    0  501    0  0.00000000000E+00  0.00000000000E+00  0.17492419814E+04  0.17492419814E+04  0.25500000000E-02 0.  1.
         -2   -1    0    0    0  501 -0.00000000000E+00 -0.00000000000E+00 -0.23980319960E+02  0.23980320096E+02  0.25500000000E-02 0. -1.
    5000001    1    1    2    0    0 -0.11646394460E+03 -0.34029961439E+02  0.85958868107E+03  0.88365128263E+03  0.16500000000E+03 0.  0.
   -5000001    1    1    2    0    0  0.11646394460E+03  0.34029961439E+02  0.86567298034E+03  0.88957101883E+03  0.16500000000E+03 0.  0.
<mgrwt>
<rscale>  0 0.40962120E+03</rscale>
<asrwt>0</asrwt>
<pdfrwt beam="1">  1        2 0.26911419E+00 0.40962120E+03</pdfrwt>
<pdfrwt beam="2">  1       -2 0.36892795E-02 0.40962120E+03</pdfrwt>
<totfact> 0.31171413E+03</totfact>
</mgrwt>
</event>
<event>
 4    1  0.8404100E-005  0.3682453E+03  0.7818608E-02  0.1055366E+00
          2   -1    0    0  501    0  0.00000000000E+00  0.00000000000E+00  0.24375582133E+03  0.24375582135E+03  0.25500000000E-02 0.  1.
         -2   -1    0    0    0  501 -0.00000000000E+00 -0.00000000000E+00 -0.13907829844E+03  0.13907829847E+03  0.25500000000E-02 0. -1.
    5000001    1    1    2    0    0 -0.13310296578E+02  0.77596246914E+02  0.29614067070E+02  0.18520349483E+03  0.16500000000E+03 0.  0.
   -5000001    1    1    2    0    0  0.13310296578E+02 -0.77596246914E+02  0.75063455822E+02  0.19763062498E+03  0.16500000000E+03 0.  0.
<mgrwt>
<rscale>  0 0.36824527E+03</rscale>
<asrwt>0</asrwt>
<pdfrwt beam="1">  1        2 0.37500896E-01 0.36824527E+03</pdfrwt>
<pdfrwt beam="2">  1       -2 0.21396661E-01 0.36824527E+03</pdfrwt>
<totfact> 0.25769918E+03</totfact>
</mgrwt>
</event>
<event>
 4    1  0.8404100E-005  0.3802951E+03  0.7818608E-02  0.1050825E+00
          2   -1    0    0  501    0  0.00000000000E+00  0.00000000000E+00  0.78900517012E+03  0.78900517012E+03  0.25500000000E-02 0.  1.
         -2   -1    0    0    0  501 -0.00000000000E+00 -0.00000000000E+00 -0.45824908236E+02  0.45824908307E+02  0.25500000000E-02 0. -1.
    5000001    1    1    2    0    0 -0.65085434008E+02 -0.66789845357E+02  0.40517711519E+03  0.44731475701E+03  0.16500000000E+03 0.  0.
   -5000001    1    1    2    0    0  0.65085434008E+02  0.66789845357E+02  0.33800314669E+03  0.38751532142E+03  0.16500000000E+03 0.  0.
<mgrwt>
<rscale>  0 0.38029509E+03</rscale>
<asrwt>0</asrwt>
<pdfrwt beam="1">  1        2 0.12138540E+00 0.38029509E+03</pdfrwt>
<pdfrwt beam="2">  1       -2 0.70499864E-02 0.38029509E+03</pdfrwt>
<totfact> 0.41825926E+03</totfact>
</mgrwt>
</event>
<event>
 4    1  0.8404100E-005  0.4110493E+03  0.7818608E-02  0.1040019E+00
         -2   -1    0    0    0  501 -0.00000000000E+00  0.00000000000E+00  0.37243470085E+02  0.37243470172E+02  0.25500000000E-02 0. -1.
          2   -1    0    0  501    0  0.00000000000E+00 -0.00000000000E+00 -0.11341687752E+04  0.11341687752E+04  0.25500000000E-02 0.  1.
    5000001    1    1    2    0    0  0.73444749360E+02 -0.46432401565E+02 -0.30223379303E+03  0.35513429118E+03  0.16500000000E+03 0.  0.
   -5000001    1    1    2    0    0 -0.73444749360E+02  0.46432401565E+02 -0.79469151211E+03  0.81627795421E+03  0.16500000000E+03 0.  0.
<mgrwt>
<rscale>  0 0.41104930E+03</rscale>
<asrwt>0</asrwt>
<pdfrwt beam="1">  1        2 0.17448748E+00 0.41104930E+03</pdfrwt>
<pdfrwt beam="2">  1       -2 0.57297655E-02 0.41104930E+03</pdfrwt>
<totfact> 0.34770792E+03</totfact>
</mgrwt>
</event>
<event>
 4    1  0.8404100E-005  0.1424814E+04  0.7818608E-02  0.8936050E-01
         -2   -1    0    0    0  501 -0.00000000000E+00  0.00000000000E+00  0.35732256107E+03  0.35732256108E+03  0.25500000000E-02 0. -1.
          2   -1    0    0  501    0  0.00000000000E+00 -0.00000000000E+00 -0.14203526455E+04  0.14203526455E+04  0.25500000000E-02 0.  1.
    5000001    1    1    2    0    0  0.43351770221E+03 -0.31007374183E+03  0.21148745400E+02  0.55835077947E+03  0.16500000000E+03 0.  0.
   -5000001    1    1    2    0    0 -0.43351770221E+03  0.31007374183E+03 -0.10841788298E+04  0.12193244271E+04  0.16500000000E+03 0.  0.
<mgrwt>
<rscale>  0 0.14248144E+04</rscale>
<asrwt>0</asrwt>
<pdfrwt beam="1">  1        2 0.21851579E+00 0.14248144E+04</pdfrwt>
<pdfrwt beam="2">  1       -2 0.54972703E-01 0.14248144E+04</pdfrwt>
<totfact> 0.42589947E+01</totfact>
</mgrwt>
</event>
<event>
 4    1  0.8404100E-005  0.4995731E+03  0.7818608E-02  0.1013890E+00
          2   -1    0    0  501    0  0.00000000000E+00  0.00000000000E+00  0.31068548053E+04  0.31068548053E+04  0.25500000000E-02 0.  1.
         -2   -1    0    0    0  501 -0.00000000000E+00 -0.00000000000E+00 -0.20082474004E+02  0.20082474166E+02  0.25500000000E-02 0. -1.
    5000001    1    1    2    0    0 -0.15483040713E+03  0.10154134427E+03  0.13571566431E+04  0.13796312020E+04  0.16500000000E+03 0.  0.
   -5000001    1    1    2    0    0  0.15483040713E+03 -0.10154134427E+03  0.17296156882E+04  0.17473060775E+04  0.16500000000E+03 0.  0.
<mgrwt>
<rscale>  0 0.49957314E+03</rscale>
<asrwt>0</asrwt>
<pdfrwt beam="1">  1        2 0.47797785E+00 0.49957314E+03</pdfrwt>
<pdfrwt beam="2">  1       -2 0.30896102E-02 0.49957314E+03</pdfrwt>
<totfact> 0.70216580E+02</totfact>
</mgrwt>
</event>
<event>
 4    1  0.8404100E-005  0.4895119E+03  0.7818608E-02  0.1016553E+00
         -2   -1    0    0    0  501 -0.00000000000E+00  0.00000000000E+00  0.22971979741E+02  0.22971979882E+02  0.25500000000E-02 0. -1.
          2   -1    0    0  501    0  0.00000000000E+00 -0.00000000000E+00 -0.26077630041E+04  0.26077630041E+04  0.25500000000E-02 0.  1.
    5000001    1    1    2    0    0 -0.57270524712E+02  0.10398386281E+03 -0.55969034117E+03  0.59545850797E+03  0.16500000000E+03 0.  0.
   -5000001    1    1    2    0    0  0.57270524712E+02 -0.10398386281E+03 -0.20251006832E+04  0.20352764760E+04  0.16500000000E+03 0.  0.
<mgrwt>
<rscale>  0 0.48951192E+03</rscale>
<asrwt>0</asrwt>
<pdfrwt beam="1">  1        2 0.40119407E+00 0.48951192E+03</pdfrwt>
<pdfrwt beam="2">  1       -2 0.35341528E-02 0.48951192E+03</pdfrwt>
<totfact> 0.11292981E+03</totfact>
</mgrwt>
</event>
<event>
 4    1  0.8404100E-005  0.6467529E+03  0.7818608E-02  0.9812891E-01
          2   -1    0    0  501    0  0.00000000000E+00  0.00000000000E+00  0.23667884164E+03  0.23667884166E+03  0.25500000000E-02 0.  1.
         -2   -1    0    0    0  501 -0.00000000000E+00 -0.00000000000E+00 -0.44183214633E+03  0.44183214634E+03  0.25500000000E-02 0. -1.
    5000001    1    1    2    0    0  0.13673877996E+03  0.24168507643E+03 -0.86386749051E+02  0.33436034532E+03  0.16500000000E+03 0.  0.
   -5000001    1    1    2    0    0 -0.13673877996E+03 -0.24168507643E+03 -0.11876655563E+03  0.34415064267E+03  0.16500000000E+03 0.  0.
<mgrwt>
<rscale>  0 0.64675288E+03</rscale>
<asrwt>0</asrwt>
<pdfrwt beam="1">  1        2 0.36412130E-01 0.64675288E+03</pdfrwt>
<pdfrwt beam="2">  1       -2 0.67974176E-01 0.64675288E+03</pdfrwt>
<totfact> 0.28648384E+02</totfact>
</mgrwt>
</event>
<event>
 4    1  0.8404100E-005  0.8456198E+03  0.7818608E-02  0.9496235E-01
          2   -1    0    0  501    0  0.00000000000E+00  0.00000000000E+00  0.17300542861E+04  0.17300542861E+04  0.25500000000E-02 0.  1.
         -2   -1    0    0    0  501 -0.00000000000E+00 -0.00000000000E+00 -0.10333099535E+03  0.10333099538E+03  0.25500000000E-02 0. -1.
    5000001    1    1    2    0    0  0.62010398699E+02  0.38039471842E+03  0.69465366765E+03  0.81136560768E+03  0.16500000000E+03 0.  0.
   -5000001    1    1    2    0    0 -0.62010398699E+02 -0.38039471842E+03  0.93206962310E+03  0.10220196738E+04  0.16500000000E+03 0.  0.
<mgrwt>
<rscale>  0 0.84561985E+03</rscale>
<asrwt>0</asrwt>
<pdfrwt beam="1">  1        2 0.26616221E+00 0.84561985E+03</pdfrwt>
<pdfrwt beam="2">  1       -2 0.15897076E-01 0.84561985E+03</pdfrwt>
<totfact> 0.30277129E+02</totfact>
</mgrwt>
</event>
<event>
 4    1  0.8404100E-005  0.1533394E+04  0.7818608E-02  0.8862545E-01
          2   -1    0    0  501    0  0.00000000000E+00  0.00000000000E+00  0.19899525399E+04  0.19899525399E+04  0.25500000000E-02 0.  1.
         -2   -1    0    0    0  501 -0.00000000000E+00 -0.00000000000E+00 -0.29539620641E+03  0.29539620642E+03  0.25500000000E-02 0. -1.
    5000001    1    1    2    0    0  0.21823916899E+03 -0.70202214462E+03  0.10587659692E+04  0.12994898245E+04  0.16500000000E+03 0.  0.
   -5000001    1    1    2    0    0 -0.21823916899E+03  0.70202214462E+03  0.63579036424E+03  0.98585892179E+03  0.16500000000E+03 0.  0.
<mgrwt>
<rscale>  0 0.15333942E+04</rscale>
<asrwt>0</asrwt>
<pdfrwt beam="1">  1        2 0.30614656E+00 0.15333942E+04</pdfrwt>
<pdfrwt beam="2">  1       -2 0.45445568E-01 0.15333942E+04</pdfrwt>
<totfact> 0.29957890E+01</totfact>
</mgrwt>
</event>
<event>
 4    1  0.8404100E-005  0.6296645E+03  0.7818608E-02  0.9845704E-01
         -2   -1    0    0    0  501 -0.00000000000E+00  0.00000000000E+00  0.36228641240E+02  0.36228641330E+02  0.25500000000E-02 0. -1.
          2   -1    0    0  501    0  0.00000000000E+00 -0.00000000000E+00 -0.27359387164E+04  0.27359387164E+04  0.25500000000E-02 0.  1.
    5000001    1    1    2    0    0 -0.11154626603E+03  0.21013997630E+03 -0.18943026103E+04  0.19163008007E+04  0.16500000000E+03 0.  0.
   -5000001    1    1    2    0    0  0.11154626603E+03 -0.21013997630E+03 -0.80540746478E+03  0.85586655702E+03  0.16500000000E+03 0.  0.
<mgrwt>
<rscale>  0 0.62966449E+03</rscale>
<asrwt>0</asrwt>
<pdfrwt beam="1">  1        2 0.42091349E+00 0.62966449E+03</pdfrwt>
<pdfrwt beam="2">  1       -2 0.55736393E-02 0.62966449E+03</pdfrwt>
<totfact> 0.46603760E+02</totfact>
</mgrwt>
</event>
<event>
 4    1  0.8404100E-005  0.4421837E+03  0.7818608E-02  0.1030079E+00
         -2   -1    0    0    0  501 -0.00000000000E+00  0.00000000000E+00  0.11354064835E+03  0.11354064838E+03  0.25500000000E-02 0. -1.
          2   -1    0    0  501    0  0.00000000000E+00 -0.00000000000E+00 -0.43052075634E+03  0.43052075635E+03  0.25500000000E-02 0.  1.
    5000001    1    1    2    0    0 -0.52679118488E+02  0.11494623671E+03 -0.25112903780E+03  0.32600386575E+03  0.16500000000E+03 0.  0.
   -5000001    1    1    2    0    0  0.52679118488E+02 -0.11494623671E+03 -0.65851070191E+02  0.21805753898E+03  0.16500000000E+03 0.  0.
<mgrwt>
<rscale>  0 0.44218370E+03</rscale>
<asrwt>0</asrwt>
<pdfrwt beam="1">  1        2 0.66233962E-01 0.44218370E+03</pdfrwt>
<pdfrwt beam="2">  1       -2 0.17467792E-01 0.44218370E+03</pdfrwt>
<totfact> 0.19630695E+03</totfact>
</mgrwt>
</event>
<event>
 4    1  0.8404100E-005  0.1031442E+04  0.7818608E-02  0.9274717E-01
          2   -1    0    0  501    0  0.00000000000E+00  0.00000000000E+00  0.27474266881E+04  0.27474266881E+04  0.25500000000E-02 0.  1.
         -2   -1    0    0    0  501 -0.00000000000E+00 -0.00000000000E+00 -0.96806188554E+02  0.96806188587E+02  0.25500000000E-02 0. -1.
    5000001    1    1    2    0    0 -0.44732719017E+03 -0.15148781004E+03  0.16707480439E+04  0.17440396205E+04  0.16500000000E+03 0.  0.
   -5000001    1    1    2    0    0  0.44732719017E+03  0.15148781004E+03  0.97987245572E+03  0.11001932563E+04  0.16500000000E+03 0.  0.
<mgrwt>
<rscale>  0 0.10314415E+04</rscale>
<asrwt>0</asrwt>
<pdfrwt beam="1">  1        2 0.42268106E+00 0.10314415E+04</pdfrwt>
<pdfrwt beam="2">  1       -2 0.14893259E-01 0.10314415E+04</pdfrwt>
<totfact> 0.89571350E+01</totfact>
</mgrwt>
</event>
<event>
 4    1  0.8404100E-005  0.1010903E+04  0.7818608E-02  0.9296666E-01
          2   -1    0    0  501    0  0.00000000000E+00  0.00000000000E+00  0.93722931020E+03  0.93722931021E+03  0.25500000000E-02 0.  1.
         -2   -1    0    0    0  501 -0.00000000000E+00 -0.00000000000E+00 -0.27259222422E+03  0.27259222423E+03  0.25500000000E-02 0. -1.
    5000001    1    1    2    0    0  0.38973345429E+03 -0.18085859996E+02  0.23104489130E+01  0.42361492171E+03  0.16500000000E+03 0.  0.
   -5000001    1    1    2    0    0 -0.38973345429E+03  0.18085859996E+02  0.66232663707E+03  0.78620661273E+03  0.16500000000E+03 0.  0.
<mgrwt>
<rscale>  0 0.10109034E+04</rscale>
<asrwt>0</asrwt>
<pdfrwt beam="1">  1        2 0.14418912E+00 0.10109034E+04</pdfrwt>
<pdfrwt beam="2">  1       -2 0.41937266E-01 0.10109034E+04</pdfrwt>
<totfact> 0.14874204E+02</totfact>
</mgrwt>
</event>
<event>
 4    1  0.8404100E-005  0.7582286E+03  0.7818608E-02  0.9622529E-01
          2   -1    0    0  501    0  0.00000000000E+00  0.00000000000E+00  0.28625903814E+04  0.28625903814E+04  0.25500000000E-02 0.  1.
         -2   -1    0    0    0  501 -0.00000000000E+00 -0.00000000000E+00 -0.50208942643E+02  0.50208942707E+02  0.25500000000E-02 0. -1.
    5000001    1    1    2    0    0  0.23892928067E+03 -0.17383656998E+03  0.20625992306E+04  0.20901786863E+04  0.16500000000E+03 0.  0.
   -5000001    1    1    2    0    0 -0.23892928067E+03  0.17383656998E+03  0.74978220814E+03  0.82262063788E+03  0.16500000000E+03 0.  0.
<mgrwt>
<rscale>  0 0.75822856E+03</rscale>
<asrwt>0</asrwt>
<pdfrwt beam="1">  1        2 0.44039855E+00 0.75822856E+03</pdfrwt>
<pdfrwt beam="2">  1       -2 0.77244522E-02 0.75822856E+03</pdfrwt>
<totfact> 0.23130034E+02</totfact>
</mgrwt>
</event>
<event>
 4    1  0.8404100E-005  0.4251046E+03  0.7818608E-02  0.1035418E+00
         -2   -1    0    0    0  501 -0.00000000000E+00  0.00000000000E+00  0.29629768148E+02  0.29629768258E+02  0.25500000000E-02 0. -1.
          2   -1    0    0  501    0  0.00000000000E+00 -0.00000000000E+00 -0.15247663495E+04  0.15247663495E+04  0.25500000000E-02 0.  1.
    5000001    1    1    2    0    0 -0.11339592970E+03  0.45281753564E+02 -0.94931977859E+03  0.97125800697E+03  0.16500000000E+03 0.  0.
   -5000001    1    1    2    0    0  0.11339592970E+03 -0.45281753564E+02 -0.54581680276E+03  0.58313811079E+03  0.16500000000E+03 0.  0.
<mgrwt>
<rscale>  0 0.42510457E+03</rscale>
<asrwt>0</asrwt>
<pdfrwt beam="1">  1        2 0.23457938E+00 0.42510457E+03</pdfrwt>
<pdfrwt beam="2">  1       -2 0.45584270E-02 0.42510457E+03</pdfrwt>
<totfact> 0.29809902E+03</totfact>
</mgrwt>
</event>
<event>
 4    1  0.8404100E-005  0.4913638E+03  0.7818608E-02  0.1016058E+00
          2   -1    0    0  501    0  0.00000000000E+00  0.00000000000E+00  0.53899039405E+03  0.53899039406E+03  0.25500000000E-02 0.  1.
         -2   -1    0    0    0  501 -0.00000000000E+00 -0.00000000000E+00 -0.11198640043E+03  0.11198640046E+03  0.25500000000E-02 0. -1.
    5000001    1    1    2    0    0 -0.98563833655E+02 -0.14158863661E+03  0.29043866305E+03  0.37595450299E+03  0.16500000000E+03 0.  0.
   -5000001    1    1    2    0    0  0.98563833655E+02  0.14158863661E+03  0.13656533057E+03  0.27502229153E+03  0.16500000000E+03 0.  0.
<mgrwt>
<rscale>  0 0.49136379E+03</rscale>
<asrwt>0</asrwt>
<pdfrwt beam="1">  1        2 0.82921600E-01 0.49136379E+03</pdfrwt>
<pdfrwt beam="2">  1       -2 0.17228677E-01 0.49136379E+03</pdfrwt>
<totfact> 0.15575823E+03</totfact>
</mgrwt>
</event>
<event>
 4    1  0.8404100E-005  0.6837021E+03  0.7818608E-02  0.9745517E-01
         -2   -1    0    0    0  501 -0.00000000000E+00  0.00000000000E+00  0.11935913975E+04  0.11935913975E+04  0.25500000000E-02 0. -1.
          2   -1    0    0  501    0  0.00000000000E+00 -0.00000000000E+00 -0.97907998933E+02  0.97907998966E+02  0.25500000000E-02 0.  1.
    5000001    1    1    2    0    0 -0.66046167483E+02  0.28553606083E+03  0.66342822544E+03  0.74381109738E+03  0.16500000000E+03 0.  0.
   -5000001    1    1    2    0    0  0.66046167483E+02 -0.28553606083E+03  0.43225517315E+03  0.54768829911E+03  0.16500000000E+03 0.  0.
<mgrwt>
<rscale>  0 0.68370211E+03</rscale>
<asrwt>0</asrwt>
<pdfrwt beam="1">  1        2 0.15062769E-01 0.68370211E+03</pdfrwt>
<pdfrwt beam="2">  1       -2 0.18362945E+00 0.68370211E+03</pdfrwt>
<totfact> 0.69556827E+01</totfact>
</mgrwt>
</event>
<event>
 4    1  0.8404100E-005  0.5735297E+03  0.7818608E-02  0.9961898E-01
         -2   -1    0    0    0  501 -0.00000000000E+00  0.00000000000E+00  0.76933044742E+02  0.76933044784E+02  0.25500000000E-02 0. -1.
          2   -1    0    0  501    0  0.00000000000E+00 -0.00000000000E+00 -0.10689045191E+04  0.10689045191E+04  0.25500000000E-02 0.  1.
    5000001    1    1    2    0    0 -0.20762704121E+03 -0.32530608385E+01 -0.71383148892E+03  0.76151163171E+03  0.16500000000E+03 0.  0.
   -5000001    1    1    2    0    0  0.20762704121E+03  0.32530608385E+01 -0.27813998543E+03  0.38432593218E+03  0.16500000000E+03 0.  0.
<mgrwt>
<rscale>  0 0.57352970E+03</rscale>
<asrwt>0</asrwt>
<pdfrwt beam="1">  1        2 0.16444684E+00 0.57352970E+03</pdfrwt>
<pdfrwt beam="2">  1       -2 0.11835854E-01 0.57352970E+03</pdfrwt>
<totfact> 0.11968463E+03</totfact>
</mgrwt>
</event>
<event>
 4    1  0.8404100E-005  0.3649657E+03  0.7818608E-02  0.1056635E+00
         -2   -1    0    0    0  501 -0.00000000000E+00  0.00000000000E+00  0.19411070458E+02  0.19411070626E+02  0.25500000000E-02 0. -1.
          2   -1    0    0  501    0  0.00000000000E+00 -0.00000000000E+00 -0.17155151199E+04  0.17155151199E+04  0.25500000000E-02 0.  1.
    5000001    1    1    2    0    0  0.64554020817E+02 -0.21325241686E+02 -0.10292533703E+04  0.10446097299E+04  0.16500000000E+03 0.  0.
   -5000001    1    1    2    0    0 -0.64554020817E+02  0.21325241686E+02 -0.66685067915E+03  0.69031646063E+03  0.16500000000E+03 0.  0.
<mgrwt>
<rscale>  0 0.36496567E+03</rscale>
<asrwt>0</asrwt>
<pdfrwt beam="1">  1        2 0.26392529E+00 0.36496567E+03</pdfrwt>
<pdfrwt beam="2">  1       -2 0.29863199E-02 0.36496567E+03</pdfrwt>
<totfact> 0.44731200E+03</totfact>
</mgrwt>
</event>
<event>
 4    1  0.8404100E-005  0.8369579E+03  0.7818608E-02  0.9508011E-01
          2   -1    0    0  501    0  0.00000000000E+00  0.00000000000E+00  0.16929355087E+03  0.16929355089E+03  0.25500000000E-02 0.  1.
         -2   -1    0    0    0  501 -0.00000000000E+00 -0.00000000000E+00 -0.10344436995E+04  0.10344436995E+04  0.25500000000E-02 0. -1.
    5000001    1    1    2    0    0 -0.18862224522E+03 -0.31654043308E+03 -0.59093350124E+03  0.71568400852E+03  0.16500000000E+03 0.  0.
   -5000001    1    1    2    0    0  0.18862224522E+03  0.31654043308E+03 -0.27421664735E+03  0.48805324182E+03  0.16500000000E+03 0.  0.
<mgrwt>
<rscale>  0 0.83695794E+03</rscale>
<asrwt>0</asrwt>
<pdfrwt beam="1">  1        2 0.26045162E-01 0.83695794E+03</pdfrwt>
<pdfrwt beam="2">  1       -2 0.15914518E+00 0.83695794E+03</pdfrwt>
<totfact> 0.53816633E+01</totfact>
</mgrwt>
</event>
<event>
 4    1  0.8404100E-005  0.6000411E+03  0.7818608E-02  0.9905321E-01
         -2   -1    0    0    0  501 -0.00000000000E+00  0.00000000000E+00  0.46324323182E+02  0.46324323252E+02  0.25500000000E-02 0. -1.
          2   -1    0    0  501    0  0.00000000000E+00 -0.00000000000E+00 -0.19430897339E+04  0.19430897339E+04  0.25500000000E-02 0.  1.
    5000001    1    1    2    0    0 -0.19094583788E+03  0.10854390848E+03 -0.13482394450E+04  0.13759421115E+04  0.16500000000E+03 0.  0.
   -5000001    1    1    2    0    0  0.19094583788E+03 -0.10854390848E+03 -0.54852596571E+03  0.61347194567E+03  0.16500000000E+03 0.  0.
<mgrwt>
<rscale>  0 0.60004105E+03</rscale>
<asrwt>0</asrwt>
<pdfrwt beam="1">  1        2 0.29893682E+00 0.60004105E+03</pdfrwt>
<pdfrwt beam="2">  1       -2 0.71268205E-02 0.60004105E+03</pdfrwt>
<totfact> 0.87683378E+02</totfact>
</mgrwt>
</event>
<event>
 4    1  0.8404100E-005  0.5758631E+03  0.7818608E-02  0.9956788E-01
         -2   -1    0    0    0  501 -0.00000000000E+00  0.00000000000E+00  0.53465125997E+02  0.53465126058E+02  0.25500000000E-02 0. -1.
          2   -1    0    0  501    0  0.00000000000E+00 -0.00000000000E+00 -0.15506289033E+04  0.15506289033E+04  0.25500000000E-02 0.  1.
    5000001    1    1    2    0    0  0.19742332278E+01  0.23237754447E+03 -0.63453254046E+03  0.69560029160E+03  0.16500000000E+03 0.  0.
   -5000001    1    1    2    0    0 -0.19742332278E+01 -0.23237754447E+03 -0.86263123684E+03  0.90849373776E+03  0.16500000000E+03 0.  0.
<mgrwt>
<rscale>  0 0.57586307E+03</rscale>
<asrwt>0</asrwt>
<pdfrwt beam="1">  1        2 0.23855826E+00 0.57586307E+03</pdfrwt>
<pdfrwt beam="2">  1       -2 0.82254052E-02 0.57586307E+03</pdfrwt>
<totfact> 0.11416890E+03</totfact>
</mgrwt>
</event>
<event>
 4    1  0.8404100E-005  0.4071534E+03  0.7818608E-02  0.1041330E+00
         -2   -1    0    0    0  501 -0.00000000000E+00  0.00000000000E+00  0.62633554659E+02  0.62633554711E+02  0.25500000000E-02 0. -1.
          2   -1    0    0  501    0  0.00000000000E+00 -0.00000000000E+00 -0.66168166534E+03  0.66168166534E+03  0.25500000000E-02 0.  1.
    5000001    1    1    2    0    0 -0.15061916075E+02  0.93735790284E+02 -0.17117612365E+03  0.25600688468E+03  0.16500000000E+03 0.  0.
   -5000001    1    1    2    0    0  0.15061916075E+02 -0.93735790284E+02 -0.42787198703E+03  0.46830833537E+03  0.16500000000E+03 0.  0.
<mgrwt>
<rscale>  0 0.40715341E+03</rscale>
<asrwt>0</asrwt>
<pdfrwt beam="1">  1        2 0.10179717E+00 0.40715341E+03</pdfrwt>
<pdfrwt beam="2">  1       -2 0.96359319E-02 0.40715341E+03</pdfrwt>
<totfact> 0.31802029E+03</totfact>
</mgrwt>
</event>
<event>
 4    1  0.8404100E-005  0.4786846E+03  0.7818608E-02  0.1019497E+00
          2   -1    0    0  501    0  0.00000000000E+00  0.00000000000E+00  0.10589859871E+04  0.10589859871E+04  0.25500000000E-02 0.  1.
         -2   -1    0    0    0  501 -0.00000000000E+00 -0.00000000000E+00 -0.54093947749E+02  0.54093947809E+02  0.25500000000E-02 0. -1.
    5000001    1    1    2    0    0  0.38073533421E+02  0.13366378020E+03  0.74347129783E+03  0.77413834086E+03  0.16500000000E+03 0.  0.
   -5000001    1    1    2    0    0 -0.38073533421E+02 -0.13366378020E+03  0.26142074151E+03  0.33894159405E+03  0.16500000000E+03 0.  0.
<mgrwt>
<rscale>  0 0.47868458E+03</rscale>
<asrwt>0</asrwt>
<pdfrwt beam="1">  1        2 0.16292092E+00 0.47868458E+03</pdfrwt>
<pdfrwt beam="2">  1       -2 0.83221457E-02 0.47868458E+03</pdfrwt>
<totfact> 0.21482634E+03</totfact>
</mgrwt>
</event>
<event>
 4    1  0.8404100E-005  0.4527304E+03  0.7818608E-02  0.1026911E+00
         -2   -1    0    0    0  501 -0.00000000000E+00  0.00000000000E+00  0.12398094035E+03  0.12398094038E+03  0.25500000000E-02 0. -1.
          2   -1    0    0  501    0  0.00000000000E+00 -0.00000000000E+00 -0.41329898885E+03  0.41329898886E+03  0.25500000000E-02 0.  1.
    5000001    1    1    2    0    0 -0.17918227649E+02 -0.14719005149E+03 -0.91186230441E+02  0.23984558108E+03  0.16500000000E+03 0.  0.
   -5000001    1    1    2    0    0  0.17918227649E+02  0.14719005149E+03 -0.19813181806E+03  0.29743434816E+03  0.16500000000E+03 0.  0.
<mgrwt>
<rscale>  0 0.45273037E+03</rscale>
<asrwt>0</asrwt>
<pdfrwt beam="1">  1        2 0.63584459E-01 0.45273037E+03</pdfrwt>
<pdfrwt beam="2">  1       -2 0.19073991E-01 0.45273037E+03</pdfrwt>
<totfact> 0.17676294E+03</totfact>
</mgrwt>
</event>
<event>
 4    1  0.8404100E-005  0.3721631E+03  0.7818608E-02  0.1053869E+00
         -2   -1    0    0    0  501 -0.00000000000E+00  0.00000000000E+00  0.96499109251E+01  0.96499112620E+01  0.25500000000E-02 0. -1.
          2   -1    0    0  501    0  0.00000000000E+00 -0.00000000000E+00 -0.35882557836E+04  0.35882557836E+04  0.25500000000E-02 0.  1.
    5000001    1    1    2    0    0 -0.15987256792E+01 -0.38690260898E+02 -0.10466074721E+04  0.10602413371E+04  0.16500000000E+03 0.  0.
   -5000001    1    1    2    0    0  0.15987256792E+01  0.38690260898E+02 -0.25319984006E+04  0.25376643579E+04  0.16500000000E+03 0.  0.
<mgrwt>
<rscale>  0 0.37216313E+03</rscale>
<asrwt>0</asrwt>
<pdfrwt beam="1">  1        2 0.55203829E+00 0.37216313E+03</pdfrwt>
<pdfrwt beam="2">  1       -2 0.14846046E-02 0.37216313E+03</pdfrwt>
<totfact> 0.10411657E+03</totfact>
</mgrwt>
</event>
<event>
 4    1  0.8404100E-005  0.4404236E+03  0.7818608E-02  0.1030617E+00
         -2   -1    0    0    0  501 -0.00000000000E+00  0.00000000000E+00  0.83092104332E+02  0.83092104371E+02  0.25500000000E-02 0. -1.
          2   -1    0    0  501    0  0.00000000000E+00 -0.00000000000E+00 -0.58360828840E+03  0.58360828841E+03  0.25500000000E-02 0.  1.
    5000001    1    1    2    0    0  0.45294823264E+02  0.13858238357E+03 -0.24511511263E+03  0.32948917507E+03  0.16500000000E+03 0.  0.
   -5000001    1    1    2    0    0 -0.45294823264E+02 -0.13858238357E+03 -0.25540107144E+03  0.33721121770E+03  0.16500000000E+03 0.  0.
<mgrwt>
<rscale>  0 0.44042362E+03</rscale>
<asrwt>0</asrwt>
<pdfrwt beam="1">  1        2 0.89785888E-01 0.44042362E+03</pdfrwt>
<pdfrwt beam="2">  1       -2 0.12783401E-01 0.44042362E+03</pdfrwt>
<totfact> 0.23372646E+03</totfact>
</mgrwt>
</event>
<event>
 4    1  0.8404100E-005  0.1129810E+04  0.7818608E-02  0.9176614E-01
          2   -1    0    0  501    0  0.00000000000E+00  0.00000000000E+00  0.10599441696E+04  0.10599441696E+04  0.25500000000E-02 0.  1.
         -2   -1    0    0    0  501 -0.00000000000E+00 -0.00000000000E+00 -0.30107034478E+03  0.30107034479E+03  0.25500000000E-02 0. -1.
    5000001    1    1    2    0    0 -0.97687090369E+02  0.49501340956E+03  0.14674575923E+03  0.55076343480E+03  0.16500000000E+03 0.  0.
   -5000001    1    1    2    0    0  0.97687090369E+02 -0.49501340956E+03  0.61212806556E+03  0.81025107955E+03  0.16500000000E+03 0.  0.
<mgrwt>
<rscale>  0 0.11298102E+04</rscale>
<asrwt>0</asrwt>
<pdfrwt beam="1">  1        2 0.16306833E+00 0.11298102E+04</pdfrwt>
<pdfrwt beam="2">  1       -2 0.46318515E-01 0.11298102E+04</pdfrwt>
<totfact> 0.10102121E+02</totfact>
</mgrwt>
</event>
<event>
 4    1  0.8404100E-005  0.4293336E+03  0.7818608E-02  0.1034071E+00
         -2   -1    0    0    0  501 -0.00000000000E+00  0.00000000000E+00  0.69750921522E+03  0.69750921522E+03  0.25500000000E-02 0. -1.
          2   -1    0    0  501    0  0.00000000000E+00 -0.00000000000E+00 -0.66066262769E+02  0.66066262818E+02  0.25500000000E-02 0.  1.
    5000001    1    1    2    0    0 -0.70527828814E+02  0.10392979704E+03  0.41444498532E+03  0.46342768930E+03  0.16500000000E+03 0.  0.
   -5000001    1    1    2    0    0  0.70527828814E+02 -0.10392979704E+03  0.21699796713E+03  0.30014778874E+03  0.16500000000E+03 0.  0.
<mgrwt>
<rscale>  0 0.42933356E+03</rscale>
<asrwt>0</asrwt>
<pdfrwt beam="1">  1        2 0.10164040E-01 0.42933356E+03</pdfrwt>
<pdfrwt beam="2">  1       -2 0.10730911E+00 0.42933356E+03</pdfrwt>
<totfact> 0.45830869E+02</totfact>
</mgrwt>
</event>
<event>
 4    1  0.8404100E-005  0.4848739E+03  0.7818608E-02  0.1017804E+00
          2   -1    0    0  501    0  0.00000000000E+00  0.00000000000E+00  0.26343515876E+04  0.26343515876E+04  0.25500000000E-02 0.  1.
         -2   -1    0    0    0  501 -0.00000000000E+00 -0.00000000000E+00 -0.22311247190E+02  0.22311247336E+02  0.25500000000E-02 0. -1.
    5000001    1    1    2    0    0  0.27975699941E+01 -0.85928751837E+02  0.21576443100E+04  0.21656512981E+04  0.16500000000E+03 0.  0.
   -5000001    1    1    2    0    0 -0.27975699941E+01  0.85928751837E+02  0.45439603046E+03  0.49101153681E+03  0.16500000000E+03 0.  0.
<mgrwt>
<rscale>  0 0.48487388E+03</rscale>
<asrwt>0</asrwt>
<pdfrwt beam="1">  1        2 0.40528491E+00 0.48487388E+03</pdfrwt>
<pdfrwt beam="2">  1       -2 0.34324991E-02 0.48487388E+03</pdfrwt>
<totfact> 0.11406933E+03</totfact>
</mgrwt>
</event>
<event>
 4    1  0.8404100E-005  0.5880164E+03  0.7818608E-02  0.9930585E-01
         -2   -1    0    0    0  501 -0.00000000000E+00  0.00000000000E+00  0.88415532309E+02  0.88415532346E+02  0.25500000000E-02 0. -1.
          2   -1    0    0  501    0  0.00000000000E+00 -0.00000000000E+00 -0.97766545429E+03  0.97766545429E+03  0.25500000000E-02 0.  1.
    5000001    1    1    2    0    0  0.21964680445E+03  0.27566197861E+02 -0.26141920056E+03  0.38022310870E+03  0.16500000000E+03 0.  0.
   -5000001    1    1    2    0    0 -0.21964680445E+03 -0.27566197861E+02 -0.62783072142E+03  0.68585787794E+03  0.16500000000E+03 0.  0.
<mgrwt>
<rscale>  0 0.58801637E+03</rscale>
<asrwt>0</asrwt>
<pdfrwt beam="1">  1        2 0.15041006E+00 0.58801637E+03</pdfrwt>
<pdfrwt beam="2">  1       -2 0.13602390E-01 0.58801637E+03</pdfrwt>
<totfact> 0.10839311E+03</totfact>
</mgrwt>
</event>
<event>
 4    1  0.8404100E-005  0.3795607E+03  0.7818608E-02  0.1051096E+00
          2   -1    0    0  501    0  0.00000000000E+00  0.00000000000E+00  0.28328961750E+03  0.28328961751E+03  0.25500000000E-02 0.  1.
         -2   -1    0    0    0  501 -0.00000000000E+00 -0.00000000000E+00 -0.12713696412E+03  0.12713696414E+03  0.25500000000E-02 0. -1.
    5000001    1    1    2    0    0 -0.60136899053E+02  0.55094656472E+02  0.12809499397E+03  0.22424360700E+03  0.16500000000E+03 0.  0.
   -5000001    1    1    2    0    0  0.60136899053E+02 -0.55094656472E+02  0.28057659413E+02  0.18618297465E+03  0.16500000000E+03 0.  0.
<mgrwt>
<rscale>  0 0.37956070E+03</rscale>
<asrwt>0</asrwt>
<pdfrwt beam="1">  1        2 0.43583018E-01 0.37956070E+03</pdfrwt>
<pdfrwt beam="2">  1       -2 0.19559533E-01 0.37956070E+03</pdfrwt>
<totfact> 0.25561540E+03</totfact>
</mgrwt>
</event>
<event>
 4    1  0.8404100E-005  0.4279638E+03  0.7818608E-02  0.1034505E+00
         -2   -1    0    0    0  501 -0.00000000000E+00  0.00000000000E+00  0.12914580510E+04  0.12914580510E+04  0.25500000000E-02 0. -1.
          2   -1    0    0  501    0  0.00000000000E+00 -0.00000000000E+00 -0.35454690801E+02  0.35454690893E+02  0.25500000000E-02 0.  1.
    5000001    1    1    2    0    0 -0.10969427966E+03  0.22494198150E+02  0.86865566555E+03  0.89124995889E+03  0.16500000000E+03 0.  0.
   -5000001    1    1    2    0    0  0.10969427966E+03 -0.22494198150E+02  0.38734769466E+03  0.43566278301E+03  0.16500000000E+03 0.  0.
<mgrwt>
<rscale>  0 0.42796376E+03</rscale>
<asrwt>0</asrwt>
<pdfrwt beam="1">  1        2 0.54545679E-02 0.42796376E+03</pdfrwt>
<pdfrwt beam="2">  1       -2 0.19868585E+00 0.42796376E+03</pdfrwt>
<totfact> 0.20529177E+02</totfact>
</mgrwt>
</event>
<event>
 4    1  0.8404100E-005  0.4852803E+03  0.7818608E-02  0.1017694E+00
          2   -1    0    0  501    0  0.00000000000E+00  0.00000000000E+00  0.10506683949E+04  0.10506683949E+04  0.25500000000E-02 0.  1.
         -2   -1    0    0    0  501 -0.00000000000E+00 -0.00000000000E+00 -0.56035026799E+02  0.56035026857E+02  0.25500000000E-02 0. -1.
    5000001    1    1    2    0    0  0.16179733715E+03 -0.70209457217E+02  0.55038460208E+03  0.60104571906E+03  0.16500000000E+03 0.  0.
   -5000001    1    1    2    0    0 -0.16179733715E+03  0.70209457217E+02  0.44424876604E+03  0.50565770272E+03  0.16500000000E+03 0.  0.
<mgrwt>
<rscale>  0 0.48528026E+03</rscale>
<asrwt>0</asrwt>
<pdfrwt beam="1">  1        2 0.16164129E+00 0.48528026E+03</pdfrwt>
<pdfrwt beam="2">  1       -2 0.86207732E-02 0.48528026E+03</pdfrwt>
<totfact> 0.20548095E+03</totfact>
</mgrwt>
</event>
<event>
 4    1  0.8404100E-005  0.3574200E+03  0.7818608E-02  0.1059610E+00
          2   -1    0    0  501    0  0.00000000000E+00  0.00000000000E+00  0.12227606632E+04  0.12227606632E+04  0.25500000000E-02 0.  1.
         -2   -1    0    0    0  501 -0.00000000000E+00 -0.00000000000E+00 -0.26118983956E+02  0.26118984080E+02  0.25500000000E-02 0. -1.
    5000001    1    1    2    0    0  0.89122046930E+01  0.55187948160E+02  0.45911807351E+03  0.49105961190E+03  0.16500000000E+03 0.  0.
   -5000001    1    1    2    0    0 -0.89122046930E+01 -0.55187948160E+02  0.73752360574E+03  0.75782003539E+03  0.16500000000E+03 0.  0.
<mgrwt>
<rscale>  0 0.35742001E+03</rscale>
<asrwt>0</asrwt>
<pdfrwt beam="1">  1        2 0.18811707E+00 0.35742001E+03</pdfrwt>
<pdfrwt beam="2">  1       -2 0.40183043E-02 0.35742001E+03</pdfrwt>
<totfact> 0.53137029E+03</totfact>
</mgrwt>
</event>
<event>
 4    1  0.8404100E-005  0.3795728E+03  0.7818608E-02  0.1051092E+00
          2   -1    0    0  501    0  0.00000000000E+00  0.00000000000E+00  0.33122106490E+03  0.33122106491E+03  0.25500000000E-02 0.  1.
         -2   -1    0    0    0  501 -0.00000000000E+00 -0.00000000000E+00 -0.10874575398E+03  0.10874575401E+03  0.25500000000E-02 0. -1.
    5000001    1    1    2    0    0  0.53816474286E+02 -0.59693995149E+02  0.16723958538E+03  0.24830156036E+03  0.16500000000E+03 0.  0.
   -5000001    1    1    2    0    0 -0.53816474286E+02  0.59693995149E+02  0.55235725540E+02  0.19166525856E+03  0.16500000000E+03 0.  0.
<mgrwt>
<rscale>  0 0.37957284E+03</rscale>
<asrwt>0</asrwt>
<pdfrwt beam="1">  1        2 0.50957086E-01 0.37957284E+03</pdfrwt>
<pdfrwt beam="2">  1       -2 0.16730116E-01 0.37957284E+03</pdfrwt>
<totfact> 0.28131934E+03</totfact>
</mgrwt>
</event>
<event>
 4    1  0.8404100E-005  0.7860706E+03  0.7818608E-02  0.9580401E-01
         -2   -1    0    0    0  501 -0.00000000000E+00  0.00000000000E+00  0.85928175606E+02  0.85928175644E+02  0.25500000000E-02 0. -1.
          2   -1    0    0  501    0  0.00000000000E+00 -0.00000000000E+00 -0.17977427366E+04  0.17977427366E+04  0.25500000000E-02 0.  1.
    5000001    1    1    2    0    0  0.30125275042E+03  0.11677000440E+03 -0.49357007826E+03  0.61255601844E+03  0.16500000000E+03 0.  0.
   -5000001    1    1    2    0    0 -0.30125275042E+03 -0.11677000440E+03 -0.12182444828E+04  0.12711148939E+04  0.16500000000E+03 0.  0.
<mgrwt>
<rscale>  0 0.78607062E+03</rscale>
<asrwt>0</asrwt>
<pdfrwt beam="1">  1        2 0.27657578E+00 0.78607062E+03</pdfrwt>
<pdfrwt beam="2">  1       -2 0.13219721E-01 0.78607062E+03</pdfrwt>
<totfact> 0.38104158E+02</totfact>
</mgrwt>
</event>
<event>
 4    1  0.8404100E-005  0.4482062E+03  0.7818608E-02  0.1028258E+00
          2   -1    0    0  501    0  0.00000000000E+00  0.00000000000E+00  0.70792707042E+03  0.70792707043E+03  0.25500000000E-02 0.  1.
         -2   -1    0    0    0  501 -0.00000000000E+00 -0.00000000000E+00 -0.70942607220E+02  0.70942607266E+02  0.25500000000E-02 0. -1.
    5000001    1    1    2    0    0  0.10289627072E+03  0.55459446041E+02  0.48637889602E+03  0.52673790748E+03  0.16500000000E+03 0.  0.
   -5000001    1    1    2    0    0 -0.10289627072E+03 -0.55459446041E+02  0.15060556718E+03  0.25213177021E+03  0.16500000000E+03 0.  0.
<mgrwt>
<rscale>  0 0.44820617E+03</rscale>
<asrwt>0</asrwt>
<pdfrwt beam="1">  1        2 0.10891185E+00 0.44820617E+03</pdfrwt>
<pdfrwt beam="2">  1       -2 0.10914248E-01 0.44820617E+03</pdfrwt>
<totfact> 0.23964170E+03</totfact>
</mgrwt>
</event>
<event>
 4    1  0.8404100E-005  0.1981403E+04  0.7818608E-02  0.8615365E-01
         -2   -1    0    0    0  501 -0.00000000000E+00  0.00000000000E+00  0.91451713736E+03  0.91451713737E+03  0.25500000000E-02 0. -1.
          2   -1    0    0  501    0  0.00000000000E+00 -0.00000000000E+00 -0.10732321060E+04  0.10732321060E+04  0.25500000000E-02 0.  1.
    5000001    1    1    2    0    0 -0.49991461031E+03  0.83424060128E+03  0.12544649094E+02  0.98653655110E+03  0.16500000000E+03 0.  0.
   -5000001    1    1    2    0    0  0.49991461031E+03 -0.83424060128E+03 -0.17125961768E+03  0.10012126922E+04  0.16500000000E+03 0.  0.
<mgrwt>
<rscale>  0 0.19814027E+04</rscale>
<asrwt>0</asrwt>
<pdfrwt beam="1">  1        2 0.16511263E+00 0.19814027E+04</pdfrwt>
<pdfrwt beam="2">  1       -2 0.14069494E+00 0.19814027E+04</pdfrwt>
<totfact> 0.74678940E+00</totfact>
</mgrwt>
</event>
<event>
 4    1  0.8404100E-005  0.6899415E+03  0.7818608E-02  0.9734590E-01
         -2   -1    0    0    0  501 -0.00000000000E+00  0.00000000000E+00  0.10550845281E+03  0.10550845284E+03  0.25500000000E-02 0. -1.
          2   -1    0    0  501    0  0.00000000000E+00 -0.00000000000E+00 -0.11279172934E+04  0.11279172934E+04  0.25500000000E-02 0.  1.
    5000001    1    1    2    0    0 -0.24770690960E+03 -0.44891243204E+02 -0.20990047390E+03  0.36695659924E+03  0.16500000000E+03 0.  0.
   -5000001    1    1    2    0    0  0.24770690960E+03  0.44891243204E+02 -0.81250836673E+03  0.86646914705E+03  0.16500000000E+03 0.  0.
<mgrwt>
<rscale>  0 0.68994147E+03</rscale>
<asrwt>0</asrwt>
<pdfrwt beam="1">  1        2 0.17352573E+00 0.68994147E+03</pdfrwt>
<pdfrwt beam="2">  1       -2 0.16232070E-01 0.68994147E+03</pdfrwt>
<totfact> 0.64707818E+02</totfact>
</mgrwt>
</event>
<event>
 4    1  0.8404100E-005  0.8571376E+03  0.7818608E-02  0.9480807E-01
         -2   -1    0    0    0  501 -0.00000000000E+00  0.00000000000E+00  0.40344578791E+03  0.40344578791E+03  0.25500000000E-02 0. -1.
          2   -1    0    0  501    0  0.00000000000E+00 -0.00000000000E+00 -0.45525624549E+03  0.45525624550E+03  0.25500000000E-02 0.  1.
    5000001    1    1    2    0    0  0.41112302649E+02  0.37004897985E+03  0.10782903716E+03  0.42128205536E+03  0.16500000000E+03 0.  0.
   -5000001    1    1    2    0    0 -0.41112302649E+02 -0.37004897985E+03 -0.15963949474E+03  0.43741997805E+03  0.16500000000E+03 0.  0.
<mgrwt>
<rscale>  0 0.85713760E+03</rscale>
<asrwt>0</asrwt>
<pdfrwt beam="1">  1        2 0.70039422E-01 0.85713760E+03</pdfrwt>
<pdfrwt beam="2">  1       -2 0.62068583E-01 0.85713760E+03</pdfrwt>
<totfact> 0.16633985E+02</totfact>
</mgrwt>
</event>
<event>
 4    1  0.8404100E-005  0.4791231E+03  0.7818608E-02  0.1019376E+00
         -2   -1    0    0    0  501 -0.00000000000E+00  0.00000000000E+00  0.43824319601E+02  0.43824319675E+02  0.25500000000E-02 0. -1.
          2   -1    0    0  501    0  0.00000000000E+00 -0.00000000000E+00 -0.13095406091E+04  0.13095406091E+04  0.25500000000E-02 0.  1.
    5000001    1    1    2    0    0 -0.17343397459E+02 -0.16342596535E+03 -0.47417582386E+03  0.52827696478E+03  0.16500000000E+03 0.  0.
   -5000001    1    1    2    0    0  0.17343397459E+02  0.16342596535E+03 -0.79154046563E+03  0.82508796398E+03  0.16500000000E+03 0.  0.
<mgrwt>
<rscale>  0 0.47912306E+03</rscale>
<asrwt>0</asrwt>
<pdfrwt beam="1">  1        2 0.20146776E+00 0.47912306E+03</pdfrwt>
<pdfrwt beam="2">  1       -2 0.67422040E-02 0.47912306E+03</pdfrwt>
<totfact> 0.21362624E+03</totfact>
</mgrwt>
</event>
<event>
 4    1  0.8404100E-005  0.4530183E+03  0.7818608E-02  0.1026826E+00
          2   -1    0    0  501    0  0.00000000000E+00  0.00000000000E+00  0.19930725925E+03  0.19930725926E+03  0.25500000000E-02 0.  1.
         -2   -1    0    0    0  501 -0.00000000000E+00 -0.00000000000E+00 -0.25742361018E+03  0.25742361020E+03  0.25500000000E-02 0. -1.
    5000001    1    1    2    0    0 -0.78462026989E+02 -0.56942948229E+02  0.93106651293E+02  0.21282066993E+03  0.16500000000E+03 0.  0.
   -5000001    1    1    2    0    0  0.78462026989E+02  0.56942948229E+02 -0.15122300223E+03  0.24391019953E+03  0.16500000000E+03 0.  0.
<mgrwt>
<rscale>  0 0.45301830E+03</rscale>
<asrwt>0</asrwt>
<pdfrwt beam="1">  1        2 0.30662655E-01 0.45301830E+03</pdfrwt>
<pdfrwt beam="2">  1       -2 0.39603632E-01 0.45301830E+03</pdfrwt>
<totfact> 0.10470937E+03</totfact>
</mgrwt>
</event>
<event>
 4    1  0.8404100E-005  0.5554777E+03  0.7818608E-02  0.1000234E+00
          2   -1    0    0  501    0  0.00000000000E+00  0.00000000000E+00  0.16262607007E+04  0.16262607007E+04  0.25500000000E-02 0.  1.
         -2   -1    0    0    0  501 -0.00000000000E+00 -0.00000000000E+00 -0.47433279990E+02  0.47433280058E+02  0.25500000000E-02 0. -1.
    5000001    1    1    2    0    0 -0.76392418853E+02 -0.14122258375E+03  0.12575004998E+04  0.12784021772E+04  0.16500000000E+03 0.  0.
   -5000001    1    1    2    0    0  0.76392418853E+02  0.14122258375E+03  0.32132692094E+03  0.39529180353E+03  0.16500000000E+03 0.  0.
<mgrwt>
<rscale>  0 0.55547774E+03</rscale>
<asrwt>0</asrwt>
<pdfrwt beam="1">  1        2 0.25019390E+00 0.55547774E+03</pdfrwt>
<pdfrwt beam="2">  1       -2 0.72974291E-02 0.55547774E+03</pdfrwt>
<totfact> 0.12567669E+03</totfact>
</mgrwt>
</event>
<event>
 4    1  0.8404100E-005  0.4556782E+03  0.7818608E-02  0.1026042E+00
         -2   -1    0    0    0  501 -0.00000000000E+00  0.00000000000E+00  0.14373020855E+03  0.14373020858E+03  0.25500000000E-02 0. -1.
          2   -1    0    0  501    0  0.00000000000E+00 -0.00000000000E+00 -0.36116727625E+03  0.36116727626E+03  0.25500000000E-02 0.  1.
    5000001    1    1    2    0    0  0.14832245573E+03  0.51063871464E+02 -0.98896628337E+02  0.24821888111E+03  0.16500000000E+03 0.  0.
   -5000001    1    1    2    0    0 -0.14832245573E+03 -0.51063871464E+02 -0.11854043936E+03  0.25667860372E+03  0.16500000000E+03 0.  0.
<mgrwt>
<rscale>  0 0.45567817E+03</rscale>
<asrwt>0</asrwt>
<pdfrwt beam="1">  1        2 0.55564196E-01 0.45567817E+03</pdfrwt>
<pdfrwt beam="2">  1       -2 0.22112340E-01 0.45567817E+03</pdfrwt>
<totfact> 0.15870089E+03</totfact>
</mgrwt>
</event>
<event>
 4    1  0.8404100E-005  0.5781894E+03  0.7818608E-02  0.9951719E-01
          2   -1    0    0  501    0  0.00000000000E+00  0.00000000000E+00  0.71688633188E+03  0.71688633188E+03  0.25500000000E-02 0.  1.
         -2   -1    0    0    0  501 -0.00000000000E+00 -0.00000000000E+00 -0.11658160578E+03  0.11658160581E+03  0.25500000000E-02 0. -1.
    5000001    1    1    2    0    0 -0.84613453043E+01 -0.19932517106E+03  0.48559086501E+03  0.55029592617E+03  0.16500000000E+03 0.  0.
   -5000001    1    1    2    0    0  0.84613453043E+01  0.19932517106E+03  0.11471386109E+03  0.28317201152E+03  0.16500000000E+03 0.  0.
<mgrwt>
<rscale>  0 0.57818945E+03</rscale>
<asrwt>0</asrwt>
<pdfrwt beam="1">  1        2 0.11029020E+00 0.57818945E+03</pdfrwt>
<pdfrwt beam="2">  1       -2 0.17935632E-01 0.57818945E+03</pdfrwt>
<totfact> 0.10299969E+03</totfact>
</mgrwt>
</event>
<event>
 4    1  0.8404100E-005  0.5718515E+03  0.7818608E-02  0.9965590E-01
         -2   -1    0    0    0  501 -0.00000000000E+00  0.00000000000E+00  0.12437313777E+03  0.12437313780E+03  0.25500000000E-02 0. -1.
          2   -1    0    0  501    0  0.00000000000E+00 -0.00000000000E+00 -0.65732469205E+03  0.65732469206E+03  0.25500000000E-02 0.  1.
    5000001    1    1    2    0    0  0.16981117984E+03  0.15688233868E+03 -0.31141174021E+03  0.42148567820E+03  0.16500000000E+03 0.  0.
   -5000001    1    1    2    0    0 -0.16981117984E+03 -0.15688233868E+03 -0.22153981407E+03  0.36021215166E+03  0.16500000000E+03 0.  0.
<mgrwt>
<rscale>  0 0.57185150E+03</rscale>
<asrwt>0</asrwt>
<pdfrwt beam="1">  1        2 0.10112687E+00 0.57185150E+03</pdfrwt>
<pdfrwt beam="2">  1       -2 0.19134329E-01 0.57185150E+03</pdfrwt>
<totfact> 0.10263172E+03</totfact>
</mgrwt>
</event>
<event>
 4    1  0.8404100E-005  0.4764116E+03  0.7818608E-02  0.1020126E+00
          2   -1    0    0  501    0  0.00000000000E+00  0.00000000000E+00  0.48877112015E+03  0.48877112015E+03  0.25500000000E-02 0.  1.
         -2   -1    0    0    0  501 -0.00000000000E+00 -0.00000000000E+00 -0.11609116012E+03  0.11609116015E+03  0.25500000000E-02 0. -1.
    5000001    1    1    2    0    0  0.11768895204E+03 -0.12018383567E+03  0.14195473142E+03  0.27508360467E+03  0.16500000000E+03 0.  0.
   -5000001    1    1    2    0    0 -0.11768895204E+03  0.12018383567E+03  0.23072522860E+03  0.32977867563E+03  0.16500000000E+03 0.  0.
<mgrwt>
<rscale>  0 0.47641161E+03</rscale>
<asrwt>0</asrwt>
<pdfrwt beam="1">  1        2 0.75195557E-01 0.47641161E+03</pdfrwt>
<pdfrwt beam="2">  1       -2 0.17860178E-01 0.47641161E+03</pdfrwt>
<totfact> 0.16390035E+03</totfact>
</mgrwt>
</event>
<event>
 4    1  0.8404100E-005  0.1088502E+04  0.7818608E-02  0.9216471E-01
          2   -1    0    0  501    0  0.00000000000E+00  0.00000000000E+00  0.99465283422E+03  0.99465283423E+03  0.25500000000E-02 0. -1.
         -2   -1    0    0    0  501 -0.00000000000E+00 -0.00000000000E+00 -0.29780164884E+03  0.29780164885E+03  0.25500000000E-02 0.  1.
    5000001    1    1    2    0    0 -0.27720758975E+03  0.39824669824E+03  0.56587889816E+03  0.76347128817E+03  0.16500000000E+03 0.  0.
   -5000001    1    1    2    0    0  0.27720758975E+03 -0.39824669824E+03  0.13097228723E+03  0.52898319491E+03  0.16500000000E+03 0.  0.
<mgrwt>
<rscale>  0 0.10885022E+04</rscale>
<asrwt>0</asrwt>
<pdfrwt beam="1">  1        2 0.15302351E+00 0.10885022E+04</pdfrwt>
<pdfrwt beam="2">  1       -2 0.45815639E-01 0.10885022E+04</pdfrwt>
<totfact> 0.11390408E+02</totfact>
</mgrwt>
</event>
<event>
 4    1  0.8404100E-005  0.5023950E+03  0.7818608E-02  0.1013156E+00
         -2   -1    0    0    0  501 -0.00000000000E+00  0.00000000000E+00  0.88831580026E+02  0.88831580063E+02  0.25500000000E-02 0. -1.
          2   -1    0    0  501    0  0.00000000000E+00 -0.00000000000E+00 -0.71033503971E+03  0.71033503971E+03  0.25500000000E-02 0.  1.
    5000001    1    1    2    0    0 -0.24955058194E+01  0.18533820878E+03 -0.37274273872E+03  0.44779306432E+03  0.16500000000E+03 0.  0.
   -5000001    1    1    2    0    0  0.24955058194E+01 -0.18533820878E+03 -0.24876072096E+03  0.35137355545E+03  0.16500000000E+03 0.  0.
<mgrwt>
<rscale>  0 0.50239500E+03</rscale>
<asrwt>0</asrwt>
<pdfrwt beam="1">  1        2 0.10928231E+00 0.50239500E+03</pdfrwt>
<pdfrwt beam="2">  1       -2 0.13666397E-01 0.50239500E+03</pdfrwt>
<totfact> 0.16502477E+03</totfact>
</mgrwt>
</event>
<event>
 4    1  0.8404100E-005  0.5261478E+03  0.7818608E-02  0.1007171E+00
         -2   -1    0    0    0  501 -0.00000000000E+00  0.00000000000E+00  0.27973316397E+02  0.27973316514E+02  0.25500000000E-02 0. -1.
          2   -1    0    0  501    0  0.00000000000E+00 -0.00000000000E+00 -0.24740678584E+04  0.24740678584E+04  0.25500000000E-02 0.  1.
    5000001    1    1    2    0    0  0.13772991156E+02 -0.58304288394E+02 -0.29125906178E+03  0.34006753211E+03  0.16500000000E+03 0.  0.
   -5000001    1    1    2    0    0 -0.13772991156E+02  0.58304288394E+02 -0.21548354803E+04  0.21619736428E+04  0.16500000000E+03 0.  0.
<mgrwt>
<rscale>  0 0.52614782E+03</rscale>
<asrwt>0</asrwt>
<pdfrwt beam="1">  1        2 0.38062565E+00 0.52614782E+03</pdfrwt>
<pdfrwt beam="2">  1       -2 0.43035891E-02 0.52614782E+03</pdfrwt>
<totfact> 0.99058586E+02</totfact>
</mgrwt>
</event>
<event>
 4    1  0.8404100E-005  0.4600550E+03  0.7818608E-02  0.1024765E+00
         -2   -1    0    0    0  501 -0.00000000000E+00  0.00000000000E+00  0.52718088580E+03  0.52718088580E+03  0.25500000000E-02 0. -1.
          2   -1    0    0  501    0  0.00000000000E+00 -0.00000000000E+00 -0.10036905892E+03  0.10036905895E+03  0.25500000000E-02 0.  1.
    5000001    1    1    2    0    0  0.54724297782E+02  0.44281649585E+02  0.16997754473E+02  0.18019305457E+03  0.16500000000E+03 0.  0.
   -5000001    1    1    2    0    0 -0.54724297782E+02 -0.44281649585E+02  0.40981407241E+03  0.44735689019E+03  0.16500000000E+03 0.  0.
<mgrwt>
<rscale>  0 0.46005499E+03</rscale>
<asrwt>0</asrwt>
<pdfrwt beam="1">  1        2 0.15441394E-01 0.46005499E+03</pdfrwt>
<pdfrwt beam="2">  1       -2 0.81104752E-01 0.46005499E+03</pdfrwt>
<totfact> 0.52297246E+02</totfact>
</mgrwt>
</event>
<event>
 4    1  0.8404100E-005  0.4397805E+03  0.7818608E-02  0.1030814E+00
          2   -1    0    0  501    0  0.00000000000E+00  0.00000000000E+00  0.17086719754E+04  0.17086719754E+04  0.25500000000E-02 0.  1.
         -2   -1    0    0    0  501 -0.00000000000E+00 -0.00000000000E+00 -0.28297838545E+02  0.28297838660E+02  0.25500000000E-02 0. -1.
    5000001    1    1    2    0    0  0.11522022811E+03 -0.83847755462E+02  0.72704714207E+03  0.75903141823E+03  0.16500000000E+03 0.  0.
   -5000001    1    1    2    0    0 -0.11522022811E+03  0.83847755462E+02  0.95332699474E+03  0.97793839579E+03  0.16500000000E+03 0.  0.
<mgrwt>
<rscale>  0 0.43978051E+03</rscale>
<asrwt>0</asrwt>
<pdfrwt beam="1">  1        2 0.26287250E+00 0.43978051E+03</pdfrwt>
<pdfrwt beam="2">  1       -2 0.43535155E-02 0.43978051E+03</pdfrwt>
<totfact> 0.25442583E+03</totfact>
</mgrwt>
</event>
<event>
 4    1  0.8404100E-005  0.5954179E+03  0.7818608E-02  0.9914958E-01
          2   -1    0    0  501    0  0.00000000000E+00  0.00000000000E+00  0.38710505096E+03  0.38710505097E+03  0.25500000000E-02 0.  1.
         -2   -1    0    0    0  501 -0.00000000000E+00 -0.00000000000E+00 -0.22895754941E+03  0.22895754943E+03  0.25500000000E-02 0. -1.
    5000001    1    1    2    0    0 -0.19087733988E+03  0.15496364014E+03  0.47053430682E+02  0.29981146407E+03  0.16500000000E+03 0.  0.
   -5000001    1    1    2    0    0  0.19087733988E+03 -0.15496364014E+03  0.11109407086E+03  0.31625113633E+03  0.16500000000E+03 0.  0.
<mgrwt>
<rscale>  0 0.59541792E+03</rscale>
<asrwt>0</asrwt>
<pdfrwt beam="1">  1        2 0.59554623E-01 0.59541792E+03</pdfrwt>
<pdfrwt beam="2">  1       -2 0.35224238E-01 0.59541792E+03</pdfrwt>
<totfact> 0.62850222E+02</totfact>
</mgrwt>
</event>
<event>
 4    1  0.8404100E-005  0.5967303E+03  0.7818608E-02  0.9912213E-01
          2   -1    0    0  501    0  0.00000000000E+00  0.00000000000E+00  0.12586401741E+04  0.12586401741E+04  0.25500000000E-02 0.  1.
         -2   -1    0    0    0  501 -0.00000000000E+00 -0.00000000000E+00 -0.70728514237E+02  0.70728514283E+02  0.25500000000E-02 0. -1.
    5000001    1    1    2    0    0  0.69663705662E+02  0.32515623392E+02  0.11206040928E+04  0.11352923987E+04  0.16500000000E+03 0.  0.
   -5000001    1    1    2    0    0 -0.69663705662E+02 -0.32515623392E+02  0.67307567065E+02  0.19407628973E+03  0.16500000000E+03 0.  0.
<mgrwt>
<rscale>  0 0.59673026E+03</rscale>
<asrwt>0</asrwt>
<pdfrwt beam="1">  1        2 0.19363692E+00 0.59673026E+03</pdfrwt>
<pdfrwt beam="2">  1       -2 0.10881311E-01 0.59673026E+03</pdfrwt>
<totfact> 0.10588783E+03</totfact>
</mgrwt>
</event>
<event>
 4    1  0.8404100E-005  0.4247628E+03  0.7818608E-02  0.1035527E+00
          2   -1    0    0  501    0  0.00000000000E+00  0.00000000000E+00  0.46138250026E+02  0.46138250097E+02  0.25500000000E-02 0.  1.
         -2   -1    0    0    0  501 -0.00000000000E+00 -0.00000000000E+00 -0.97762385838E+03  0.97762385838E+03  0.25500000000E-02 0. -1.
    5000001    1    1    2    0    0 -0.75349625254E+02 -0.10854469359E+03 -0.51521573797E+03  0.55689475952E+03  0.16500000000E+03 0.  0.
   -5000001    1    1    2    0    0  0.75349625254E+02  0.10854469359E+03 -0.41626987038E+03  0.46686734895E+03  0.16500000000E+03 0.  0.
<mgrwt>
<rscale>  0 0.42476278E+03</rscale>
<asrwt>0</asrwt>
<pdfrwt beam="1">  1        2 0.70981930E-02 0.42476278E+03</pdfrwt>
<pdfrwt beam="2">  1       -2 0.15040366E+00 0.42476278E+03</pdfrwt>
<totfact> 0.31312637E+02</totfact>
</mgrwt>
</event>
<event>
 4    1  0.8404100E-005  0.5704510E+03  0.7818608E-02  0.9968681E-01
         -2   -1    0    0    0  501 -0.00000000000E+00  0.00000000000E+00  0.30470706660E+03  0.30470706661E+03  0.25500000000E-02 0. -1.
          2   -1    0    0  501    0  0.00000000000E+00 -0.00000000000E+00 -0.26698947463E+03  0.26698947464E+03  0.25500000000E-02 0.  1.
    5000001    1    1    2    0    0  0.20946848623E+03 -0.97154560764E+02 -0.97082541323E+01  0.28396356386E+03  0.16500000000E+03 0.  0.
   -5000001    1    1    2    0    0 -0.20946848623E+03  0.97154560764E+02  0.47425846108E+02  0.28773297740E+03  0.16500000000E+03 0.  0.
<mgrwt>
<rscale>  0 0.57045098E+03</rscale>
<asrwt>0</asrwt>
<pdfrwt beam="1">  1        2 0.41075304E-01 0.57045098E+03</pdfrwt>
<pdfrwt beam="2">  1       -2 0.46878010E-01 0.57045098E+03</pdfrwt>
<totfact> 0.54358835E+02</totfact>
</mgrwt>
</event>
<event>
 4    1  0.8404100E-005  0.5798100E+03  0.7818608E-02  0.9948202E-01
         -2   -1    0    0    0  501 -0.00000000000E+00  0.00000000000E+00  0.31129849496E+02  0.31129849601E+02  0.25500000000E-02 0. -1.
          2   -1    0    0  501    0  0.00000000000E+00 -0.00000000000E+00 -0.26998174144E+04  0.26998174144E+04  0.25500000000E-02 0.  1.
    5000001    1    1    2    0    0 -0.14245391764E+03  0.16431770432E+03 -0.17940643305E+04  0.18147135445E+04  0.16500000000E+03 0.  0.
   -5000001    1    1    2    0    0  0.14245391764E+03 -0.16431770432E+03 -0.87462323445E+03  0.91623371955E+03  0.16500000000E+03 0.  0.
<mgrwt>
<rscale>  0 0.57981000E+03</rscale>
<asrwt>0</asrwt>
<pdfrwt beam="1">  1        2 0.41535634E+00 0.57981000E+03</pdfrwt>
<pdfrwt beam="2">  1       -2 0.47892097E-02 0.57981000E+03</pdfrwt>
<totfact> 0.62218185E+02</totfact>
</mgrwt>
</event>
<event>
 4    1  0.8404100E-005  0.3718255E+03  0.7818608E-02  0.1053997E+00
         -2   -1    0    0    0  501 -0.00000000000E+00  0.00000000000E+00  0.13374070399E+02  0.13374070643E+02  0.25500000000E-02 0.  1.
          2   -1    0    0  501    0  0.00000000000E+00 -0.00000000000E+00 -0.25843705030E+04  0.25843705030E+04  0.25500000000E-02 0. -1.
    5000001    1    1    2    0    0 -0.67328458940E+02  0.51024881375E+02 -0.13847682990E+04  0.13971202173E+04  0.16500000000E+03 0.  0.
   -5000001    1    1    2    0    0  0.67328458940E+02 -0.51024881375E+02 -0.11862281336E+04  0.12006243563E+04  0.16500000000E+03 0.  0.
<mgrwt>
<rscale>  0 0.37182551E+03</rscale>
<asrwt>0</asrwt>
<pdfrwt beam="1">  1        2 0.39759506E+00 0.37182551E+03</pdfrwt>
<pdfrwt beam="2">  1       -2 0.20575514E-02 0.37182551E+03</pdfrwt>
<totfact> 0.26509776E+03</totfact>
</mgrwt>
</event>
<event>
 4    1  0.8404100E-005  0.4080076E+03  0.7818608E-02  0.1041042E+00
         -2   -1    0    0    0  501 -0.00000000000E+00  0.00000000000E+00  0.78592033328E+02  0.78592033370E+02  0.25500000000E-02 0. -1.
          2   -1    0    0  501    0  0.00000000000E+00 -0.00000000000E+00 -0.52953906153E+03  0.52953906153E+03  0.25500000000E-02 0.  1.
    5000001    1    1    2    0    0 -0.19077377306E+01  0.11590402592E+03 -0.17940873025E+03  0.26990716029E+03  0.16500000000E+03 0.  0.
   -5000001    1    1    2    0    0  0.19077377306E+01 -0.11590402592E+03 -0.27153829795E+03  0.33822393461E+03  0.16500000000E+03 0.  0.
<mgrwt>
<rscale>  0 0.40800761E+03</rscale>
<asrwt>0</asrwt>
<pdfrwt beam="1">  1        2 0.81467546E-01 0.40800761E+03</pdfrwt>
<pdfrwt beam="2">  1       -2 0.12091082E-01 0.40800761E+03</pdfrwt>
<totfact> 0.28647545E+03</totfact>
</mgrwt>
</event>
<event>
 4    1  0.8404100E-005  0.6875154E+03  0.7818608E-02  0.9738824E-01
          2   -1    0    0  501    0  0.00000000000E+00  0.00000000000E+00  0.11014758599E+04  0.11014758599E+04  0.25500000000E-02 0.  1.
         -2   -1    0    0    0  501 -0.00000000000E+00 -0.00000000000E+00 -0.10728275227E+03  0.10728275230E+03  0.25500000000E-02 0. -1.
    5000001    1    1    2    0    0  0.99679304051E+02  0.25028729583E+03  0.25883790307E+03  0.40841370469E+03  0.16500000000E+03 0.  0.
   -5000001    1    1    2    0    0 -0.99679304051E+02 -0.25028729583E+03  0.73535520454E+03  0.80034490750E+03  0.16500000000E+03 0.  0.
<mgrwt>
<rscale>  0 0.68751542E+03</rscale>
<asrwt>0</asrwt>
<pdfrwt beam="1">  1        2 0.16945782E+00 0.68751542E+03</pdfrwt>
<pdfrwt beam="2">  1       -2 0.16505039E-01 0.68751542E+03</pdfrwt>
<totfact> 0.65266952E+02</totfact>
</mgrwt>
</event>
<event>
 4    1  0.8404100E-005  0.4062538E+03  0.7818608E-02  0.1041635E+00
         -2   -1    0    0    0  501 -0.00000000000E+00  0.00000000000E+00  0.36329970998E+02  0.36329971088E+02  0.25500000000E-02 0. -1.
          2   -1    0    0  501    0  0.00000000000E+00 -0.00000000000E+00 -0.11357163906E+04  0.11357163906E+04  0.25500000000E-02 0.  1.
    5000001    1    1    2    0    0 -0.44386000255E+02 -0.10921253192E+03 -0.58359047374E+03  0.61781901491E+03  0.16500000000E+03 0.  0.
   -5000001    1    1    2    0    0  0.44386000255E+02  0.10921253192E+03 -0.51579594584E+03  0.55422734676E+03  0.16500000000E+03 0.  0.
<mgrwt>
<rscale>  0 0.40625383E+03</rscale>
<asrwt>0</asrwt>
<pdfrwt beam="1">  1        2 0.17472557E+00 0.40625383E+03</pdfrwt>
<pdfrwt beam="2">  1       -2 0.55892272E-02 0.40625383E+03</pdfrwt>
<totfact> 0.36054800E+03</totfact>
</mgrwt>
</event>
<event>
 4    1  0.8404100E-005  0.3553438E+03  0.7818608E-02  0.1060443E+00
         -2   -1    0    0    0  501 -0.00000000000E+00  0.00000000000E+00  0.32236487220E+02  0.32236487321E+02  0.25500000000E-02 0. -1.
          2   -1    0    0  501    0  0.00000000000E+00 -0.00000000000E+00 -0.97924139537E+03  0.97924139537E+03  0.25500000000E-02 0.  1.
    5000001    1    1    2    0    0  0.26607387321E+02 -0.60207236034E+02 -0.48224741713E+03  0.51392648857E+03  0.16500000000E+03 0.  0.
   -5000001    1    1    2    0    0 -0.26607387321E+02  0.60207236034E+02 -0.46475749102E+03  0.49755139412E+03  0.16500000000E+03 0.  0.
<mgrwt>
<rscale>  0 0.35534379E+03</rscale>
<asrwt>0</asrwt>
<pdfrwt beam="1">  1        2 0.15065250E+00 0.35534379E+03</pdfrwt>
<pdfrwt beam="2">  1       -2 0.49594603E-02 0.35534379E+03</pdfrwt>
<totfact> 0.53847880E+03</totfact>
</mgrwt>
</event>
<event>
 4    1  0.8404100E-005  0.4155081E+03  0.7818608E-02  0.1038538E+00
          2   -1    0    0  501    0  0.00000000000E+00  0.00000000000E+00  0.45313304192E+02  0.45313304263E+02  0.25500000000E-02 0.  1.
         -2   -1    0    0    0  501 -0.00000000000E+00 -0.00000000000E+00 -0.95251827564E+03  0.95251827565E+03  0.25500000000E-02 0. -1.
    5000001    1    1    2    0    0  0.34789189544E+02 -0.95084239948E+02 -0.63467817508E+03  0.66354554201E+03  0.16500000000E+03 0.  0.
   -5000001    1    1    2    0    0 -0.34789189544E+02  0.95084239948E+02 -0.27252679637E+03  0.33428603790E+03  0.16500000000E+03 0.  0.
<mgrwt>
<rscale>  0 0.41550812E+03</rscale>
<asrwt>0</asrwt>
<pdfrwt beam="1">  1        2 0.69712783E-02 0.41550812E+03</pdfrwt>
<pdfrwt beam="2">  1       -2 0.14654126E+00 0.41550812E+03</pdfrwt>
<totfact> 0.34307304E+02</totfact>
</mgrwt>
</event>
<event>
 4    1  0.8404100E-005  0.3569781E+03  0.7818608E-02  0.1059787E+00
         -2   -1    0    0    0  501 -0.00000000000E+00  0.00000000000E+00  0.26744729463E+02  0.26744729584E+02  0.25500000000E-02 0. -1.
          2   -1    0    0  501    0  0.00000000000E+00 -0.00000000000E+00 -0.11912009082E+04  0.11912009082E+04  0.25500000000E-02 0.  1.
    5000001    1    1    2    0    0  0.54425093703E+02  0.22725666016E+02 -0.46628641529E+03  0.49812304485E+03  0.16500000000E+03 0.  0.
   -5000001    1    1    2    0    0 -0.54425093703E+02 -0.22725666016E+02 -0.69816976347E+03  0.71982259296E+03  0.16500000000E+03 0.  0.
<mgrwt>
<rscale>  0 0.35697813E+03</rscale>
<asrwt>0</asrwt>
<pdfrwt beam="1">  1        2 0.18326164E+00 0.35697813E+03</pdfrwt>
<pdfrwt beam="2">  1       -2 0.41145747E-02 0.35697813E+03</pdfrwt>
<totfact> 0.53444417E+03</totfact>
</mgrwt>
</event>
<event>
 4    1  0.8404100E-005  0.7564402E+03  0.7818608E-02  0.9625301E-01
          2   -1    0    0  501    0  0.00000000000E+00  0.00000000000E+00  0.24795393149E+04  0.24795393149E+04  0.25500000000E-02 0.  1.
         -2   -1    0    0    0  501 -0.00000000000E+00 -0.00000000000E+00 -0.57692344792E+02  0.57692344848E+02  0.25500000000E-02 0. -1.
    5000001    1    1    2    0    0 -0.16591778198E+03  0.26550435803E+03  0.76336859354E+03  0.84141421673E+03  0.16500000000E+03 0.  0.
   -5000001    1    1    2    0    0  0.16591778198E+03 -0.26550435803E+03  0.16584783766E+04  0.16958174431E+04  0.16500000000E+03 0.  0.
<mgrwt>
<rscale>  0 0.75644018E+03</rscale>
<asrwt>0</asrwt>
<pdfrwt beam="1">  1        2 0.38146773E+00 0.75644018E+03</pdfrwt>
<pdfrwt beam="2">  1       -2 0.88757419E-02 0.75644018E+03</pdfrwt>
<totfact> 0.30883137E+02</totfact>
</mgrwt>
</event>
<event>
 4    1  0.8404100E-005  0.3672204E+03  0.7818608E-02  0.1055761E+00
          2   -1    0    0  501    0  0.00000000000E+00  0.00000000000E+00  0.50829991648E+03  0.50829991649E+03  0.25500000000E-02 0.  1.
         -2   -1    0    0    0  501 -0.00000000000E+00 -0.00000000000E+00 -0.66324429563E+02  0.66324429612E+02  0.25500000000E-02 0. -1.
    5000001    1    1    2    0    0 -0.58845633370E+02  0.51501897496E+02  0.19078891636E+03  0.26408457853E+03  0.16500000000E+03 0.  0.
   -5000001    1    1    2    0    0  0.58845633370E+02 -0.51501897496E+02  0.25118657056E+03  0.31053976757E+03  0.16500000000E+03 0.  0.
<mgrwt>
<rscale>  0 0.36722038E+03</rscale>
<asrwt>0</asrwt>
<pdfrwt beam="1">  1        2 0.78199984E-01 0.36722038E+03</pdfrwt>
<pdfrwt beam="2">  1       -2 0.10203759E-01 0.36722038E+03</pdfrwt>
<totfact> 0.39440905E+03</totfact>
</mgrwt>
</event>
<event>
 4    1  0.8404100E-005  0.6892761E+03  0.7818608E-02  0.9735749E-01
          2   -1    0    0  501    0  0.00000000000E+00  0.00000000000E+00  0.42313371271E+03  0.42313371271E+03  0.25500000000E-02 0.  1.
         -2   -1    0    0    0  501 -0.00000000000E+00 -0.00000000000E+00 -0.28070413792E+03  0.28070413793E+03  0.25500000000E-02 0. -1.
    5000001    1    1    2    0    0  0.20896723827E+03 -0.20376792239E+03  0.15266015268E+03  0.36840031906E+03  0.16500000000E+03 0.  0.
   -5000001    1    1    2    0    0 -0.20896723827E+03  0.20376792239E+03 -0.10230577894E+02  0.33543753158E+03  0.16500000000E+03 0.  0.
<mgrwt>
<rscale>  0 0.68927610E+03</rscale>
<asrwt>0</asrwt>
<pdfrwt beam="1">  1        2 0.65097494E-01 0.68927610E+03</pdfrwt>
<pdfrwt beam="2">  1       -2 0.43185252E-01 0.68927610E+03</pdfrwt>
<totfact> 0.38255927E+02</totfact>
</mgrwt>
</event>
<event>
 4    1  0.8404100E-005  0.5960717E+03  0.7818608E-02  0.9913590E-01
         -2   -1    0    0    0  501 -0.00000000000E+00  0.00000000000E+00  0.14148487940E+03  0.14148487942E+03  0.25500000000E-02 0. -1.
          2   -1    0    0  501    0  0.00000000000E+00 -0.00000000000E+00 -0.62780819732E+03  0.62780819732E+03  0.25500000000E-02 0.  1.
    5000001    1    1    2    0    0  0.24103953203E+02  0.22052451152E+03 -0.99513755750E+02  0.29383677157E+03  0.16500000000E+03 0.  0.
   -5000001    1    1    2    0    0 -0.24103953203E+02 -0.22052451152E+03 -0.38680956217E+03  0.47545630517E+03  0.16500000000E+03 0.  0.
<mgrwt>
<rscale>  0 0.59607170E+03</rscale>
<asrwt>0</asrwt>
<pdfrwt beam="1">  1        2 0.96585875E-01 0.59607170E+03</pdfrwt>
<pdfrwt beam="2">  1       -2 0.21766905E-01 0.59607170E+03</pdfrwt>
<totfact> 0.86632314E+02</totfact>
</mgrwt>
</event>
<event>
 4    1  0.8404100E-005  0.4326791E+03  0.7818608E-02  0.1033017E+00
         -2   -1    0    0    0  501 -0.00000000000E+00  0.00000000000E+00  0.22293684186E+03  0.22293684187E+03  0.25500000000E-02 0. -1.
          2   -1    0    0  501    0  0.00000000000E+00 -0.00000000000E+00 -0.20993746068E+03  0.20993746069E+03  0.25500000000E-02 0.  1.
    5000001    1    1    2    0    0 -0.13543575803E+03  0.34140168148E+02  0.14834046290E+02  0.21668743518E+03  0.16500000000E+03 0.  0.
   -5000001    1    1    2    0    0  0.13543575803E+03 -0.34140168148E+02 -0.18346651109E+01  0.21618686739E+03  0.16500000000E+03 0.  0.
<mgrwt>
<rscale>  0 0.43267907E+03</rscale>
<asrwt>0</asrwt>
<pdfrwt beam="1">  1        2 0.32298071E-01 0.43267907E+03</pdfrwt>
<pdfrwt beam="2">  1       -2 0.34297975E-01 0.43267907E+03</pdfrwt>
<totfact> 0.12990309E+03</totfact>
</mgrwt>
</event>
<event>
 4    1  0.8404100E-005  0.3812343E+03  0.7818608E-02  0.1050478E+00
         -2   -1    0    0    0  501 -0.00000000000E+00  0.00000000000E+00  0.28464870661E+02  0.28464870776E+02  0.25500000000E-02 0. -1.
          2   -1    0    0  501    0  0.00000000000E+00 -0.00000000000E+00 -0.12764820717E+04  0.12764820717E+04  0.25500000000E-02 0.  1.
    5000001    1    1    2    0    0  0.42715689502E+02  0.81076649171E+02 -0.71533436138E+03  0.73981504563E+03  0.16500000000E+03 0.  0.
   -5000001    1    1    2    0    0 -0.42715689502E+02 -0.81076649171E+02 -0.53268283970E+03  0.56513189689E+03  0.16500000000E+03 0.  0.
<mgrwt>
<rscale>  0 0.38123430E+03</rscale>
<asrwt>0</asrwt>
<pdfrwt beam="1">  1        2 0.19638181E+00 0.38123430E+03</pdfrwt>
<pdfrwt beam="2">  1       -2 0.43792119E-02 0.38123430E+03</pdfrwt>
<totfact> 0.43480439E+03</totfact>
</mgrwt>
</event>
<event>
 4    1  0.8404100E-005  0.4722207E+03  0.7818608E-02  0.1021295E+00
         -2   -1    0    0    0  501 -0.00000000000E+00  0.00000000000E+00  0.40637624516E+02  0.40637624596E+02  0.25500000000E-02 0. -1.
          2   -1    0    0  501    0  0.00000000000E+00 -0.00000000000E+00 -0.13718343087E+04  0.13718343087E+04  0.25500000000E-02 0.  1.
    5000001    1    1    2    0    0  0.10256098835E+03 -0.13084157658E+03 -0.75457183001E+03  0.79008981840E+03  0.16500000000E+03 0.  0.
   -5000001    1    1    2    0    0 -0.10256098835E+03  0.13084157658E+03 -0.57662485416E+03  0.62238211489E+03  0.16500000000E+03 0.  0.
<mgrwt>
<rscale>  0 0.47222066E+03</rscale>
<asrwt>0</asrwt>
<pdfrwt beam="1">  1        2 0.21105140E+00 0.47222066E+03</pdfrwt>
<pdfrwt beam="2">  1       -2 0.62519433E-02 0.47222066E+03</pdfrwt>
<totfact> 0.22182920E+03</totfact>
</mgrwt>
</event>
<event>
 4    1  0.8404100E-005  0.7907746E+03  0.7818608E-02  0.9573467E-01
          2   -1    0    0  501    0  0.00000000000E+00  0.00000000000E+00  0.66536912869E+03  0.66536912869E+03  0.25500000000E-02 0.  1.
         -2   -1    0    0    0  501 -0.00000000000E+00 -0.00000000000E+00 -0.23495395789E+03  0.23495395790E+03  0.25500000000E-02 0. -1.
    5000001    1    1    2    0    0  0.28121030941E+03  0.18762483392E+03  0.35382741735E+03  0.51643117420E+03  0.16500000000E+03 0.  0.
   -5000001    1    1    2    0    0 -0.28121030941E+03 -0.18762483392E+03  0.76587753454E+02  0.38389191239E+03  0.16500000000E+03 0.  0.
<mgrwt>
<rscale>  0 0.79077458E+03</rscale>
<asrwt>0</asrwt>
<pdfrwt beam="1">  1        2 0.10236448E+00 0.79077458E+03</pdfrwt>
<pdfrwt beam="2">  1       -2 0.36146763E-01 0.79077458E+03</pdfrwt>
<totfact> 0.31624226E+02</totfact>
</mgrwt>
</event>
<event>
 4    1  0.8404100E-005  0.4092867E+03  0.7818608E-02  0.1040611E+00
          2   -1    0    0  501    0  0.00000000000E+00  0.00000000000E+00  0.24506457940E+02  0.24506458072E+02  0.25500000000E-02 0.  1.
         -2   -1    0    0    0  501 -0.00000000000E+00 -0.00000000000E+00 -0.17088926326E+04  0.17088926326E+04  0.25500000000E-02 0. -1.
    5000001    1    1    2    0    0  0.35156583712E+02  0.44664856709E+02 -0.12948409137E+04  0.13065484785E+04  0.16500000000E+03 0.  0.
   -5000001    1    1    2    0    0 -0.35156583712E+02 -0.44664856709E+02 -0.38954526098E+03  0.42685061222E+03  0.16500000000E+03 0.  0.
<mgrwt>
<rscale>  0 0.40928672E+03</rscale>
<asrwt>0</asrwt>
<pdfrwt beam="1">  1        2 0.37702256E-02 0.40928672E+03</pdfrwt>
<pdfrwt beam="2">  1       -2 0.26290647E+00 0.40928672E+03</pdfrwt>
<totfact> 0.13714594E+02</totfact>
</mgrwt>
</event>
<event>
 4    1  0.8404100E-005  0.6170880E+03  0.7818608E-02  0.9870575E-01
         -2   -1    0    0    0  501 -0.00000000000E+00  0.00000000000E+00  0.45248620288E+02  0.45248620360E+02  0.25500000000E-02 0. -1.
          2   -1    0    0  501    0  0.00000000000E+00 -0.00000000000E+00 -0.21039184886E+04  0.21039184886E+04  0.25500000000E-02 0.  1.
    5000001    1    1    2    0    0 -0.32213054006E+02  0.25870963086E+03 -0.10207649920E+04  0.10663744759E+04  0.16500000000E+03 0.  0.
   -5000001    1    1    2    0    0  0.32213054006E+02 -0.25870963086E+03 -0.10379048763E+04  0.10827926331E+04  0.16500000000E+03 0.  0.
<mgrwt>
<rscale>  0 0.61708803E+03</rscale>
<asrwt>0</asrwt>
<pdfrwt beam="1">  1        2 0.32367969E+00 0.61708803E+03</pdfrwt>
<pdfrwt beam="2">  1       -2 0.69613278E-02 0.61708803E+03</pdfrwt>
<totfact> 0.74351929E+02</totfact>
</mgrwt>
</event>
<event>
 4    1  0.8404100E-005  0.5400039E+03  0.7818608E-02  0.1003834E+00
          2   -1    0    0  501    0  0.00000000000E+00  0.00000000000E+00  0.28124560823E+04  0.28124560823E+04  0.25500000000E-02 0.  1.
         -2   -1    0    0    0  501 -0.00000000000E+00 -0.00000000000E+00 -0.25920783049E+02  0.25920783175E+02  0.25500000000E-02 0. -1.
    5000001    1    1    2    0    0  0.99218954303E+02  0.77630713203E+02  0.48582605993E+03  0.52832082018E+03  0.16500000000E+03 0.  0.
   -5000001    1    1    2    0    0 -0.99218954303E+02 -0.77630713203E+02  0.23007092393E+04  0.23100560453E+04  0.16500000000E+03 0.  0.
<mgrwt>
<rscale>  0 0.54000394E+03</rscale>
<asrwt>0</asrwt>
<pdfrwt beam="1">  1        2 0.43268572E+00 0.54000394E+03</pdfrwt>
<pdfrwt beam="2">  1       -2 0.39878112E-02 0.54000394E+03</pdfrwt>
<totfact> 0.71219002E+02</totfact>
</mgrwt>
</event>
<event>
 4    1  0.8404100E-005  0.5085799E+03  0.7818608E-02  0.1011563E+00
         -2   -1    0    0    0  501 -0.00000000000E+00  0.00000000000E+00  0.93903684617E+02  0.93903684651E+02  0.25500000000E-02 0. -1.
          2   -1    0    0  501    0  0.00000000000E+00 -0.00000000000E+00 -0.68861395702E+03  0.68861395702E+03  0.25500000000E-02 0.  1.
    5000001    1    1    2    0    0 -0.18840430103E+03  0.91920521902E+00 -0.36514865985E+03  0.44278162719E+03  0.16500000000E+03 0.  0.
   -5000001    1    1    2    0    0  0.18840430103E+03 -0.91920521902E+00 -0.22956161255E+03  0.33973601449E+03  0.16500000000E+03 0.  0.
<mgrwt>
<rscale>  0 0.50857994E+03</rscale>
<asrwt>0</asrwt>
<pdfrwt beam="1">  1        2 0.10594061E+00 0.50857994E+03</pdfrwt>
<pdfrwt beam="2">  1       -2 0.14446721E-01 0.50857994E+03</pdfrwt>
<totfact> 0.15636305E+03</totfact>
</mgrwt>
</event>
<event>
 4    1  0.8404100E-005  0.8176450E+03  0.7818608E-02  0.9534822E-01
          2   -1    0    0  501    0  0.00000000000E+00  0.00000000000E+00  0.41565565643E+03  0.41565565643E+03  0.25500000000E-02 0.  1.
         -2   -1    0    0    0  501 -0.00000000000E+00 -0.00000000000E+00 -0.40210165886E+03  0.40210165887E+03  0.25500000000E-02 0. -1.
    5000001    1    1    2    0    0 -0.37377706671E+03 -0.53480806520E+01  0.19929144205E+02  0.40909664916E+03  0.16500000000E+03 0.  0.
   -5000001    1    1    2    0    0  0.37377706671E+03  0.53480806520E+01 -0.63751466402E+01  0.40866066615E+03  0.16500000000E+03 0.  0.
<mgrwt>
<rscale>  0 0.81764498E+03</rscale>
<asrwt>0</asrwt>
<pdfrwt beam="1">  1        2 0.63947023E-01 0.81764498E+03</pdfrwt>
<pdfrwt beam="2">  1       -2 0.61861794E-01 0.81764498E+03</pdfrwt>
<totfact> 0.18611355E+02</totfact>
</mgrwt>
</event>
<event>
 4    1  0.8404100E-005  0.5891187E+03  0.7818608E-02  0.9928242E-01
         -2   -1    0    0    0  501 -0.00000000000E+00  0.00000000000E+00  0.48726484009E+02  0.48726484076E+02  0.25500000000E-02 0. -1.
          2   -1    0    0  501    0  0.00000000000E+00 -0.00000000000E+00 -0.17806583028E+04  0.17806583028E+04  0.25500000000E-02 0.  1.
    5000001    1    1    2    0    0  0.19954290856E+03  0.13855790158E+03 -0.79484499869E+03  0.84736015742E+03  0.16500000000E+03 0.  0.
   -5000001    1    1    2    0    0 -0.19954290856E+03 -0.13855790158E+03 -0.93708682008E+03  0.98202462943E+03  0.16500000000E+03 0.  0.
<mgrwt>
<rscale>  0 0.58911873E+03</rscale>
<asrwt>0</asrwt>
<pdfrwt beam="1">  1        2 0.27394738E+00 0.58911873E+03</pdfrwt>
<pdfrwt beam="2">  1       -2 0.74963836E-02 0.58911873E+03</pdfrwt>
<totfact> 0.99141375E+02</totfact>
</mgrwt>
</event>
<event>
 4    1  0.8404100E-005  0.5629048E+03  0.7818608E-02  0.9985503E-01
         -2   -1    0    0    0  501 -0.00000000000E+00  0.00000000000E+00  0.20567850451E+03  0.20567850453E+03  0.25500000000E-02 0. -1.
          2   -1    0    0  501    0  0.00000000000E+00 -0.00000000000E+00 -0.38514209422E+03  0.38514209423E+03  0.25500000000E-02 0.  1.
    5000001    1    1    2    0    0 -0.17481055442E+03  0.10954795467E+03  0.12197440866E+02  0.26444897783E+03  0.16500000000E+03 0.  0.
   -5000001    1    1    2    0    0  0.17481055442E+03 -0.10954795467E+03 -0.19166103057E+03  0.32637162093E+03  0.16500000000E+03 0.  0.
<mgrwt>
<rscale>  0 0.56290479E+03</rscale>
<asrwt>0</asrwt>
<pdfrwt beam="1">  1        2 0.59252630E-01 0.56290479E+03</pdfrwt>
<pdfrwt beam="2">  1       -2 0.31642847E-01 0.56290479E+03</pdfrwt>
<totfact> 0.77355995E+02</totfact>
</mgrwt>
</event>
<event>
 4    1  0.8404100E-005  0.1415372E+04  0.7818608E-02  0.8942766E-01
          2   -1    0    0  501    0  0.00000000000E+00  0.00000000000E+00  0.11475069482E+04  0.11475069482E+04  0.25500000000E-02 0.  1.
         -2   -1    0    0    0  501 -0.00000000000E+00 -0.00000000000E+00 -0.43644133723E+03  0.43644133724E+03  0.25500000000E-02 0. -1.
    5000001    1    1    2    0    0  0.56865783646E+03  0.30153347343E+03  0.83012520970E+02  0.66963441459E+03  0.16500000000E+03 0.  0.
   -5000001    1    1    2    0    0 -0.56865783646E+03 -0.30153347343E+03  0.62805309002E+03  0.91431387086E+03  0.16500000000E+03 0.  0.
<mgrwt>
<rscale>  0 0.14153720E+04</rscale>
<asrwt>0</asrwt>
<pdfrwt beam="1">  1        2 0.17653953E+00 0.14153720E+04</pdfrwt>
<pdfrwt beam="2">  1       -2 0.67144821E-01 0.14153720E+04</pdfrwt>
<totfact> 0.40318727E+01</totfact>
</mgrwt>
</event>
<event>
 4    1  0.8404100E-005  0.4848109E+03  0.7818608E-02  0.1017821E+00
          2   -1    0    0  501    0  0.00000000000E+00  0.00000000000E+00  0.77043539313E+03  0.77043539313E+03  0.25500000000E-02 0.  1.
         -2   -1    0    0    0  501 -0.00000000000E+00 -0.00000000000E+00 -0.76269080323E+02  0.76269080366E+02  0.25500000000E-02 0. -1.
    5000001    1    1    2    0    0 -0.93304397667E+02  0.14945916400E+03  0.38580767251E+03  0.45510033234E+03  0.16500000000E+03 0.  0.
   -5000001    1    1    2    0    0  0.93304397667E+02 -0.14945916400E+03  0.30835864029E+03  0.39160414116E+03  0.16500000000E+03 0.  0.
<mgrwt>
<rscale>  0 0.48481089E+03</rscale>
<asrwt>0</asrwt>
<pdfrwt beam="1">  1        2 0.11852852E+00 0.48481089E+03</pdfrwt>
<pdfrwt beam="2">  1       -2 0.11733705E-01 0.48481089E+03</pdfrwt>
<totfact> 0.19142698E+03</totfact>
</mgrwt>
</event>
<event>
 4    1  0.8404100E-005  0.1577582E+04  0.7818608E-02  0.8834440E-01
          2   -1    0    0  501    0  0.00000000000E+00  0.00000000000E+00  0.76269417115E+03  0.76269417116E+03  0.25500000000E-02 0.  1.
         -2   -1    0    0    0  501 -0.00000000000E+00 -0.00000000000E+00 -0.81578122489E+03  0.81578122489E+03  0.25500000000E-02 0. -1.
    5000001    1    1    2    0    0 -0.15489846733E+03 -0.72988984687E+03  0.16910196061E+03  0.78265777759E+03  0.16500000000E+03 0.  0.
   -5000001    1    1    2    0    0  0.15489846733E+03  0.72988984687E+03 -0.22218901435E+03  0.79581761845E+03  0.16500000000E+03 0.  0.
<mgrwt>
<rscale>  0 0.15775824E+04</rscale>
<asrwt>0</asrwt>
<pdfrwt beam="1">  1        2 0.11733756E+00 0.15775824E+04</pdfrwt>
<pdfrwt beam="2">  1       -2 0.12550480E+00 0.15775824E+04</pdfrwt>
<totfact> 0.16724711E+01</totfact>
</mgrwt>
</event>
<event>
 4    1  0.8404100E-005  0.5913087E+03  0.7818608E-02  0.9923604E-01
          2   -1    0    0  501    0  0.00000000000E+00  0.00000000000E+00  0.46030595198E+03  0.46030595198E+03  0.25500000000E-02 0.  1.
         -2   -1    0    0    0  501 -0.00000000000E+00 -0.00000000000E+00 -0.18989871478E+03  0.18989871480E+03  0.25500000000E-02 0. -1.
    5000001    1    1    2    0    0 -0.23375213812E+03 -0.14237130569E+02  0.54821606285E+02  0.29167304723E+03  0.16500000000E+03 0.  0.
   -5000001    1    1    2    0    0  0.23375213812E+03  0.14237130569E+02  0.21558563091E+03  0.35853161955E+03  0.16500000000E+03 0.  0.
<mgrwt>
<rscale>  0 0.59130875E+03</rscale>
<asrwt>0</asrwt>
<pdfrwt beam="1">  1        2 0.70816300E-01 0.59130875E+03</pdfrwt>
<pdfrwt beam="2">  1       -2 0.29215187E-01 0.59130875E+03</pdfrwt>
<totfact> 0.73365757E+02</totfact>
</mgrwt>
</event>
<event>
 4    1  0.8404100E-005  0.7302899E+03  0.7818608E-02  0.9666790E-01
         -2   -1    0    0    0  501 -0.00000000000E+00  0.00000000000E+00  0.12420809317E+03  0.12420809319E+03  0.25500000000E-02 0. -1.
          2   -1    0    0  501    0  0.00000000000E+00 -0.00000000000E+00 -0.10734471190E+04  0.10734471190E+04  0.25500000000E-02 0.  1.
    5000001    1    1    2    0    0  0.17094412667E+03  0.22534951426E+03 -0.20966613997E+03  0.38883053928E+03  0.16500000000E+03 0.  0.
   -5000001    1    1    2    0    0 -0.17094412667E+03 -0.22534951426E+03 -0.73957288582E+03  0.80882467288E+03  0.16500000000E+03 0.  0.
<mgrwt>
<rscale>  0 0.73028986E+03</rscale>
<asrwt>0</asrwt>
<pdfrwt beam="1">  1        2 0.16514570E+00 0.73028986E+03</pdfrwt>
<pdfrwt beam="2">  1       -2 0.19108938E-01 0.73028986E+03</pdfrwt>
<totfact> 0.52669927E+02</totfact>
</mgrwt>
</event>
<event>
 4    1  0.8404100E-005  0.4768145E+03  0.7818608E-02  0.1020014E+00
         -2   -1    0    0    0  501 -0.00000000000E+00  0.00000000000E+00  0.17253768766E+02  0.17253768955E+02  0.25500000000E-02 0. -1.
          2   -1    0    0  501    0  0.00000000000E+00 -0.00000000000E+00 -0.32942374350E+04  0.32942374350E+04  0.25500000000E-02 0.  1.
    5000001    1    1    2    0    0 -0.15368190149E+03  0.67990931650E+02 -0.18957504011E+04  0.19103233959E+04  0.16500000000E+03 0.  0.
   -5000001    1    1    2    0    0  0.15368190149E+03 -0.67990931650E+02 -0.13812332651E+04  0.14011678080E+04  0.16500000000E+03 0.  0.
<mgrwt>
<rscale>  0 0.47681448E+03</rscale>
<asrwt>0</asrwt>
<pdfrwt beam="1">  1        2 0.50680526E+00 0.47681448E+03</pdfrwt>
<pdfrwt beam="2">  1       -2 0.26544286E-02 0.47681448E+03</pdfrwt>
<totfact> 0.67524857E+02</totfact>
</mgrwt>
</event>
<event>
 4    1  0.8404100E-005  0.4416447E+03  0.7818608E-02  0.1030243E+00
         -2   -1    0    0    0  501 -0.00000000000E+00  0.00000000000E+00  0.36113527938E+02  0.36113528028E+02  0.25500000000E-02 0. -1.
          2   -1    0    0  501    0  0.00000000000E+00 -0.00000000000E+00 -0.13502562850E+04  0.13502562850E+04  0.25500000000E-02 0.  1.
    5000001    1    1    2    0    0 -0.13739374104E+03  0.45949676774E+02 -0.73063004346E+03  0.76291131417E+03  0.16500000000E+03 0.  0.
   -5000001    1    1    2    0    0  0.13739374104E+03 -0.45949676774E+02 -0.58351271356E+03  0.62345849883E+03  0.16500000000E+03 0.  0.
<mgrwt>
<rscale>  0 0.44164474E+03</rscale>
<asrwt>0</asrwt>
<pdfrwt beam="1">  1        2 0.20773170E+00 0.44164474E+03</pdfrwt>
<pdfrwt beam="2">  1       -2 0.55559284E-02 0.44164474E+03</pdfrwt>
<totfact> 0.27415767E+03</totfact>
</mgrwt>
</event>
<event>
 4    1  0.8404100E-005  0.3815252E+03  0.7818608E-02  0.1050371E+00
         -2   -1    0    0    0  501 -0.00000000000E+00  0.00000000000E+00  0.69811550746E+02  0.69811550793E+02  0.25500000000E-02 0. -1.
          2   -1    0    0  501    0  0.00000000000E+00 -0.00000000000E+00 -0.52126577596E+03  0.52126577596E+03  0.25500000000E-02 0.  1.
    5000001    1    1    2    0    0  0.38258306165E+02 -0.87235173762E+02 -0.24056262453E+03  0.30686976041E+03  0.16500000000E+03 0.  0.
   -5000001    1    1    2    0    0 -0.38258306165E+02  0.87235173762E+02 -0.21089160068E+03  0.28420756635E+03  0.16500000000E+03 0.  0.
<mgrwt>
<rscale>  0 0.38152521E+03</rscale>
<asrwt>0</asrwt>
<pdfrwt beam="1">  1        2 0.80194733E-01 0.38152521E+03</pdfrwt>
<pdfrwt beam="2">  1       -2 0.10740239E-01 0.38152521E+03</pdfrwt>
<totfact> 0.35316793E+03</totfact>
</mgrwt>
</event>
<event>
 4    1  0.8404100E-005  0.5268288E+03  0.7818608E-02  0.1007004E+00
          2   -1    0    0  501    0  0.00000000000E+00  0.00000000000E+00  0.12474279297E+04  0.12474279297E+04  0.25500000000E-02 0.  1.
         -2   -1    0    0    0  501 -0.00000000000E+00 -0.00000000000E+00 -0.55624173652E+02  0.55624173711E+02  0.25500000000E-02 0. -1.
    5000001    1    1    2    0    0  0.68840011453E+02 -0.12804279990E+03  0.23723295271E+03  0.32347856132E+03  0.16500000000E+03 0.  0.
   -5000001    1    1    2    0    0 -0.68840011453E+02  0.12804279990E+03  0.95457080334E+03  0.97957354209E+03  0.16500000000E+03 0.  0.
<mgrwt>
<rscale>  0 0.52682881E+03</rscale>
<asrwt>0</asrwt>
<pdfrwt beam="1">  1        2 0.19191198E+00 0.52682881E+03</pdfrwt>
<pdfrwt beam="2">  1       -2 0.85575654E-02 0.52682881E+03</pdfrwt>
<totfact> 0.15876307E+03</totfact>
</mgrwt>
</event>
<event>
 4    1  0.8404100E-005  0.4761435E+03  0.7818608E-02  0.1020200E+00
         -2   -1    0    0    0  501 -0.00000000000E+00  0.00000000000E+00  0.75640621410E+02  0.75640621453E+02  0.25500000000E-02 0. -1.
          2   -1    0    0  501    0  0.00000000000E+00 -0.00000000000E+00 -0.74930847973E+03  0.74930847973E+03  0.25500000000E-02 0.  1.
    5000001    1    1    2    0    0 -0.38249894023E+02 -0.15693291959E+03 -0.23637265111E+03  0.33043611461E+03  0.16500000000E+03 0.  0.
   -5000001    1    1    2    0    0  0.38249894023E+02  0.15693291959E+03 -0.43729520721E+03  0.49451298658E+03  0.16500000000E+03 0.  0.
<mgrwt>
<rscale>  0 0.47614350E+03</rscale>
<asrwt>0</asrwt>
<pdfrwt beam="1">  1        2 0.11527822E+00 0.47614350E+03</pdfrwt>
<pdfrwt beam="2">  1       -2 0.11637019E-01 0.47614350E+03</pdfrwt>
<totfact> 0.20104961E+03</totfact>
</mgrwt>
</event>
<event>
 4    1  0.8404100E-005  0.4889889E+03  0.7818608E-02  0.1016694E+00
         -2   -1    0    0    0  501 -0.00000000000E+00  0.00000000000E+00  0.86649824862E+02  0.86649824900E+02  0.25500000000E-02 0. -1.
          2   -1    0    0  501    0  0.00000000000E+00 -0.00000000000E+00 -0.68987480751E+03  0.68987480752E+03  0.25500000000E-02 0.  1.
    5000001    1    1    2    0    0 -0.17250271001E+03 -0.99140030887E+01 -0.38408353006E+03  0.45232801204E+03  0.16500000000E+03 0.  0.
   -5000001    1    1    2    0    0  0.17250271001E+03  0.99140030887E+01 -0.21914145260E+03  0.32419662038E+03  0.16500000000E+03 0.  0.
<mgrwt>
<rscale>  0 0.48898888E+03</rscale>
<asrwt>0</asrwt>
<pdfrwt beam="1">  1        2 0.10613458E+00 0.48898888E+03</pdfrwt>
<pdfrwt beam="2">  1       -2 0.13330743E-01 0.48898888E+03</pdfrwt>
<totfact> 0.17834666E+03</totfact>
</mgrwt>
</event>
<event>
 4    1  0.8404100E-005  0.5951791E+03  0.7818608E-02  0.9915459E-01
          2   -1    0    0  501    0  0.00000000000E+00  0.00000000000E+00  0.21744727522E+03  0.21744727523E+03  0.25500000000E-02 0.  1.
         -2   -1    0    0    0  501 -0.00000000000E+00 -0.00000000000E+00 -0.40726898813E+03  0.40726898814E+03  0.25500000000E-02 0. -1.
    5000001    1    1    2    0    0 -0.13504701063E+03  0.19392389226E+03 -0.17268506476E+03  0.33599003357E+03  0.16500000000E+03 0.  0.
   -5000001    1    1    2    0    0  0.13504701063E+03 -0.19392389226E+03 -0.17136648151E+02  0.28872622980E+03  0.16500000000E+03 0.  0.
<mgrwt>
<rscale>  0 0.59517907E+03</rscale>
<asrwt>0</asrwt>
<pdfrwt beam="1">  1        2 0.33453427E-01 0.59517907E+03</pdfrwt>
<pdfrwt beam="2">  1       -2 0.62656767E-01 0.59517907E+03</pdfrwt>
<totfact> 0.37538660E+02</totfact>
</mgrwt>
</event>
<event>
 4    1  0.8404100E-005  0.7345354E+03  0.7818608E-02  0.9659929E-01
         -2   -1    0    0    0  501 -0.00000000000E+00  0.00000000000E+00  0.45499071395E+02  0.45499071467E+02  0.25500000000E-02 0. -1.
          2   -1    0    0  501    0  0.00000000000E+00 -0.00000000000E+00 -0.29645783505E+04  0.29645783505E+04  0.25500000000E-02 0.  1.
    5000001    1    1    2    0    0  0.56496107420E+02 -0.29356288546E+03 -0.20137400643E+04  0.20424850121E+04  0.16500000000E+03 0.  0.
   -5000001    1    1    2    0    0 -0.56496107420E+02  0.29356288546E+03 -0.90533921483E+03  0.96759240994E+03  0.16500000000E+03 0.  0.
<mgrwt>
<rscale>  0 0.73453540E+03</rscale>
<asrwt>0</asrwt>
<pdfrwt beam="1">  1        2 0.45608883E+00 0.73453540E+03</pdfrwt>
<pdfrwt beam="2">  1       -2 0.69998595E-02 0.73453540E+03</pdfrwt>
<totfact> 0.23547394E+02</totfact>
</mgrwt>
</event>
<event>
 4    1  0.8404100E-005  0.3656232E+03  0.7818608E-02  0.1056379E+00
          2   -1    0    0  501    0  0.00000000000E+00  0.00000000000E+00  0.80791026803E+03  0.80791026804E+03  0.25500000000E-02 0.  1.
         -2   -1    0    0    0  501 -0.00000000000E+00 -0.00000000000E+00 -0.41366089813E+02  0.41366089891E+02  0.25500000000E-02 0. -1.
    5000001    1    1    2    0    0 -0.11174665613E+02  0.74855174496E+02  0.43346423383E+03  0.46994086044E+03  0.16500000000E+03 0.  0.
   -5000001    1    1    2    0    0  0.11174665613E+02 -0.74855174496E+02  0.33307994439E+03  0.37933549749E+03  0.16500000000E+03 0.  0.
<mgrwt>
<rscale>  0 0.36562324E+03</rscale>
<asrwt>0</asrwt>
<pdfrwt beam="1">  1        2 0.12429388E+00 0.36562324E+03</pdfrwt>
<pdfrwt beam="2">  1       -2 0.63640141E-02 0.36562324E+03</pdfrwt>
<totfact> 0.47554548E+03</totfact>
</mgrwt>
</event>
<event>
 4    1  0.8404100E-005  0.4014336E+03  0.7818608E-02  0.1043284E+00
          2   -1    0    0  501    0  0.00000000000E+00  0.00000000000E+00  0.24985232116E+03  0.24985232117E+03  0.25500000000E-02 0.  1.
         -2   -1    0    0    0  501 -0.00000000000E+00 -0.00000000000E+00 -0.16124421936E+03  0.16124421938E+03  0.25500000000E-02 0. -1.
    5000001    1    1    2    0    0  0.89776115151E+01  0.10418015126E+03  0.91546266899E+02  0.21573089813E+03  0.16500000000E+03 0.  0.
   -5000001    1    1    2    0    0 -0.89776115151E+01 -0.10418015126E+03 -0.29381650938E+01  0.19536564242E+03  0.16500000000E+03 0.  0.
<mgrwt>
<rscale>  0 0.40143364E+03</rscale>
<asrwt>0</asrwt>
<pdfrwt beam="1">  1        2 0.38438818E-01 0.40143364E+03</pdfrwt>
<pdfrwt beam="2">  1       -2 0.24806803E-01 0.40143364E+03</pdfrwt>
<totfact> 0.19365043E+03</totfact>
</mgrwt>
</event>
<event>
 4    1  0.8404100E-005  0.5121048E+03  0.7818608E-02  0.1010667E+00
         -2   -1    0    0    0  501 -0.00000000000E+00  0.00000000000E+00  0.59114581514E+02  0.59114581569E+02  0.25500000000E-02 0. -1.
          2   -1    0    0  501    0  0.00000000000E+00 -0.00000000000E+00 -0.11090805525E+04  0.11090805525E+04  0.25500000000E-02 0.  1.
    5000001    1    1    2    0    0 -0.81082632530E+02  0.15593841418E+03 -0.72183371403E+03  0.76102568486E+03  0.16500000000E+03 0.  0.
   -5000001    1    1    2    0    0  0.81082632530E+02 -0.15593841418E+03 -0.32813225698E+03  0.40716944923E+03  0.16500000000E+03 0.  0.
<mgrwt>
<rscale>  0 0.51210480E+03</rscale>
<asrwt>0</asrwt>
<pdfrwt beam="1">  1        2 0.17062776E+00 0.51210480E+03</pdfrwt>
<pdfrwt beam="2">  1       -2 0.90945518E-02 0.51210480E+03</pdfrwt>
<totfact> 0.17376435E+03</totfact>
</mgrwt>
</event>
<event>
 4    1  0.8404100E-005  0.3826084E+03  0.7818608E-02  0.1049974E+00
         -2   -1    0    0    0  501 -0.00000000000E+00  0.00000000000E+00  0.18725813312E+03  0.18725813314E+03  0.25500000000E-02 0. -1.
          2   -1    0    0  501    0  0.00000000000E+00 -0.00000000000E+00 -0.19543766397E+03  0.19543766399E+03  0.25500000000E-02 0.  1.
    5000001    1    1    2    0    0  0.59857458437E+02 -0.48220919312E+02 -0.62959986525E+02  0.19260615850E+03  0.16500000000E+03 0.  0.
   -5000001    1    1    2    0    0 -0.59857458437E+02  0.48220919312E+02  0.54780455677E+02  0.19008963863E+03  0.16500000000E+03 0.  0.
<mgrwt>
<rscale>  0 0.38260837E+03</rscale>
<asrwt>0</asrwt>
<pdfrwt beam="1">  1        2 0.30067333E-01 0.38260837E+03</pdfrwt>
<pdfrwt beam="2">  1       -2 0.28808943E-01 0.38260837E+03</pdfrwt>
<totfact> 0.19384436E+03</totfact>
</mgrwt>
</event>
<event>
 4    1  0.8404100E-005  0.4337357E+03  0.7818608E-02  0.1032686E+00
         -2   -1    0    0    0  501 -0.00000000000E+00  0.00000000000E+00  0.58465457122E+02  0.58465457177E+02  0.25500000000E-02 0. -1.
          2   -1    0    0  501    0  0.00000000000E+00 -0.00000000000E+00 -0.80443511243E+03  0.80443511243E+03  0.25500000000E-02 0.  1.
    5000001    1    1    2    0    0  0.13759003400E+03 -0.23093997566E+02 -0.40979343967E+03  0.46327099346E+03  0.16500000000E+03 0.  0.
   -5000001    1    1    2    0    0 -0.13759003400E+03  0.23093997566E+02 -0.33617621563E+03  0.39962957615E+03  0.16500000000E+03 0.  0.
<mgrwt>
<rscale>  0 0.43373571E+03</rscale>
<asrwt>0</asrwt>
<pdfrwt beam="1">  1        2 0.12375924E+00 0.43373571E+03</pdfrwt>
<pdfrwt beam="2">  1       -2 0.89946863E-02 0.43373571E+03</pdfrwt>
<totfact> 0.27802107E+03</totfact>
</mgrwt>
</event>
<event>
 4    1  0.8404100E-005  0.4405141E+03  0.7818608E-02  0.1030589E+00
          2   -1    0    0  501    0  0.00000000000E+00  0.00000000000E+00  0.95168261667E+03  0.95168261667E+03  0.25500000000E-02 0.  1.
         -2   -1    0    0    0  501 -0.00000000000E+00 -0.00000000000E+00 -0.50976207869E+02  0.50976207933E+02  0.25500000000E-02 0. -1.
    5000001    1    1    2    0    0  0.10286039953E+03 -0.98287133806E+02  0.37668494380E+03  0.43515189227E+03  0.16500000000E+03 0.  0.
   -5000001    1    1    2    0    0 -0.10286039953E+03  0.98287133806E+02  0.52402146500E+03  0.56750693233E+03  0.16500000000E+03 0.  0.
<mgrwt>
<rscale>  0 0.44051411E+03</rscale>
<asrwt>0</asrwt>
<pdfrwt beam="1">  1        2 0.14641270E+00 0.44051411E+03</pdfrwt>
<pdfrwt beam="2">  1       -2 0.78424940E-02 0.44051411E+03</pdfrwt>
<totfact> 0.27547632E+03</totfact>
</mgrwt>
</event>
<event>
 4    1  0.8404100E-005  0.4699794E+03  0.7818608E-02  0.1021926E+00
         -2   -1    0    0    0  501 -0.00000000000E+00  0.00000000000E+00  0.17291437231E+03  0.17291437232E+03  0.25500000000E-02 0. -1.
          2   -1    0    0  501    0  0.00000000000E+00 -0.00000000000E+00 -0.31934972158E+03  0.31934972159E+03  0.25500000000E-02 0.  1.
    5000001    1    1    2    0    0  0.10314630658E+03  0.77708196284E+02 -0.18464540883E+03  0.27927880574E+03  0.16500000000E+03 0.  0.
   -5000001    1    1    2    0    0 -0.10314630658E+03 -0.77708196284E+02  0.38210059553E+02  0.21298528818E+03  0.16500000000E+03 0.  0.
<mgrwt>
<rscale>  0 0.46997939E+03</rscale>
<asrwt>0</asrwt>
<pdfrwt beam="1">  1        2 0.49130726E-01 0.46997939E+03</pdfrwt>
<pdfrwt beam="2">  1       -2 0.26602211E-01 0.46997939E+03</pdfrwt>
<totfact> 0.13078968E+03</totfact>
</mgrwt>
</event>
<event>
 4    1  0.8404100E-005  0.5175426E+03  0.7818608E-02  0.1009299E+00
         -2   -1    0    0    0  501 -0.00000000000E+00  0.00000000000E+00  0.41088713062E+02  0.41088713141E+02  0.25500000000E-02 0. -1.
          2   -1    0    0  501    0  0.00000000000E+00 -0.00000000000E+00 -0.16297072573E+04  0.16297072573E+04  0.25500000000E-02 0.  1.
    5000001    1    1    2    0    0 -0.16166554111E+03  0.38160109698E+02 -0.43852444164E+03  0.49711228819E+03  0.16500000000E+03 0.  0.
   -5000001    1    1    2    0    0  0.16166554111E+03 -0.38160109698E+02 -0.11500941026E+04  0.11736836822E+04  0.16500000000E+03 0.  0.
<mgrwt>
<rscale>  0 0.51754255E+03</rscale>
<asrwt>0</asrwt>
<pdfrwt beam="1">  1        2 0.25072414E+00 0.51754255E+03</pdfrwt>
<pdfrwt beam="2">  1       -2 0.63213417E-02 0.51754255E+03</pdfrwt>
<totfact> 0.15713388E+03</totfact>
</mgrwt>
</event>
<event>
 4    1  0.8404100E-005  0.6945863E+03  0.7818608E-02  0.9726535E-01
         -2   -1    0    0    0  501 -0.00000000000E+00  0.00000000000E+00  0.10672039768E+03  0.10672039771E+03  0.25500000000E-02 0. -1.
          2   -1    0    0  501    0  0.00000000000E+00 -0.00000000000E+00 -0.11301732448E+04  0.11301732448E+04  0.25500000000E-02 0.  1.
    5000001    1    1    2    0    0  0.30168776920E+03 -0.12785761377E+02 -0.59541380599E+03  0.68769294466E+03  0.16500000000E+03 0.  0.
   -5000001    1    1    2    0    0 -0.30168776920E+03  0.12785761377E+02 -0.42803904111E+03  0.54920069783E+03  0.16500000000E+03 0.  0.
<mgrwt>
<rscale>  0 0.69458632E+03</rscale>
<asrwt>0</asrwt>
<pdfrwt beam="1">  1        2 0.17387280E+00 0.69458632E+03</pdfrwt>
<pdfrwt beam="2">  1       -2 0.16418524E-01 0.69458632E+03</pdfrwt>
<totfact> 0.63249481E+02</totfact>
</mgrwt>
</event>
<event>
 4    1  0.8404100E-005  0.3931439E+03  0.7818608E-02  0.1046180E+00
         -2   -1    0    0    0  501 -0.00000000000E+00  0.00000000000E+00  0.87550373029E+02  0.87550373067E+02  0.25500000000E-02 0. -1.
          2   -1    0    0  501    0  0.00000000000E+00 -0.00000000000E+00 -0.44135192461E+03  0.44135192462E+03  0.25500000000E-02 0.  1.
    5000001    1    1    2    0    0 -0.84259781563E+02 -0.28276419985E+02 -0.97126224628E+02  0.21108711526E+03  0.16500000000E+03 0.  0.
   -5000001    1    1    2    0    0  0.84259781563E+02  0.28276419985E+02 -0.25667532695E+03  0.31781518243E+03  0.16500000000E+03 0.  0.
<mgrwt>
<rscale>  0 0.39314387E+03</rscale>
<asrwt>0</asrwt>
<pdfrwt beam="1">  1        2 0.67900295E-01 0.39314387E+03</pdfrwt>
<pdfrwt beam="2">  1       -2 0.13469288E-01 0.39314387E+03</pdfrwt>
<totfact> 0.29468077E+03</totfact>
</mgrwt>
</event>
<event>
 4    1  0.8404100E-005  0.9297620E+03  0.7818608E-02  0.9389124E-01
         -2   -1    0    0    0  501 -0.00000000000E+00  0.00000000000E+00  0.21019674780E+03  0.21019674781E+03  0.25500000000E-02 0. -1.
          2   -1    0    0  501    0  0.00000000000E+00 -0.00000000000E+00 -0.10281526087E+04  0.10281526087E+04  0.25500000000E-02 0.  1.
    5000001    1    1    2    0    0  0.35753798978E+03 -0.14490978072E+02 -0.80438746513E+02  0.40216761993E+03  0.16500000000E+03 0.  0.
   -5000001    1    1    2    0    0 -0.35753798978E+03  0.14490978072E+02 -0.73751711438E+03  0.83618173658E+03  0.16500000000E+03 0.  0.
<mgrwt>
<rscale>  0 0.92976198E+03</rscale>
<asrwt>0</asrwt>
<pdfrwt beam="1">  1        2 0.15817732E+00 0.92976198E+03</pdfrwt>
<pdfrwt beam="2">  1       -2 0.32337962E-01 0.92976198E+03</pdfrwt>
<totfact> 0.21523032E+02</totfact>
</mgrwt>
</event>
<event>
 4    1  0.8404100E-005  0.5999897E+03  0.7818608E-02  0.9905427E-01
          2   -1    0    0  501    0  0.00000000000E+00  0.00000000000E+00  0.78253219595E+03  0.78253219596E+03  0.25500000000E-02 0.  1.
         -2   -1    0    0    0  501 -0.00000000000E+00 -0.00000000000E+00 -0.11500729223E+03  0.11500729226E+03  0.25500000000E-02 0. -1.
    5000001    1    1    2    0    0  0.48507896707E+02 -0.22484060841E+03  0.48234622612E+03  0.55927560030E+03  0.16500000000E+03 0.  0.
   -5000001    1    1    2    0    0 -0.48507896707E+02  0.22484060841E+03  0.18517867760E+03  0.33826388792E+03  0.16500000000E+03 0.  0.
<mgrwt>
<rscale>  0 0.59998970E+03</rscale>
<asrwt>0</asrwt>
<pdfrwt beam="1">  1        2 0.12038957E+00 0.59998970E+03</pdfrwt>
<pdfrwt beam="2">  1       -2 0.17693429E-01 0.59998970E+03</pdfrwt>
<totfact> 0.94193438E+02</totfact>
</mgrwt>
</event>
<event>
 4    1  0.8404100E-005  0.4379858E+03  0.7818608E-02  0.1031367E+00
         -2   -1    0    0    0  501 -0.00000000000E+00  0.00000000000E+00  0.18396404292E+02  0.18396404469E+02  0.25500000000E-02 0. -1.
          2   -1    0    0  501    0  0.00000000000E+00 -0.00000000000E+00 -0.26069163298E+04  0.26069163298E+04  0.25500000000E-02 0.  1.
    5000001    1    1    2    0    0  0.12375293435E+03  0.56743375826E+02 -0.10132231070E+04  0.10355581413E+04  0.16500000000E+03 0.  0.
   -5000001    1    1    2    0    0 -0.12375293435E+03 -0.56743375826E+02 -0.15752968185E+04  0.15897545930E+04  0.16500000000E+03 0.  0.
<mgrwt>
<rscale>  0 0.43798579E+03</rscale>
<asrwt>0</asrwt>
<pdfrwt beam="1">  1        2 0.40106376E+00 0.43798579E+03</pdfrwt>
<pdfrwt beam="2">  1       -2 0.28302181E-02 0.43798579E+03</pdfrwt>
<totfact> 0.15896980E+03</totfact>
</mgrwt>
</event>
<event>
 4    1  0.8404100E-005  0.4719207E+03  0.7818608E-02  0.1021379E+00
          2   -1    0    0  501    0  0.00000000000E+00  0.00000000000E+00  0.31180044207E+03  0.31180044208E+03  0.25500000000E-02 0.  1.
         -2   -1    0    0    0  501 -0.00000000000E+00 -0.00000000000E+00 -0.17856708349E+03  0.17856708351E+03  0.25500000000E-02 0. -1.
    5000001    1    1    2    0    0  0.15794936422E+03  0.24431837209E+02  0.12264446812E+03  0.26040657036E+03  0.16500000000E+03 0.  0.
   -5000001    1    1    2    0    0 -0.15794936422E+03 -0.24431837209E+02  0.10588890462E+02  0.22996095523E+03  0.16500000000E+03 0.  0.
<mgrwt>
<rscale>  0 0.47192074E+03</rscale>
<asrwt>0</asrwt>
<pdfrwt beam="1">  1        2 0.47969299E-01 0.47192074E+03</pdfrwt>
<pdfrwt beam="2">  1       -2 0.27471859E-01 0.47192074E+03</pdfrwt>
<totfact> 0.12668193E+03</totfact>
</mgrwt>
</event>
<event>
 4    1  0.8404100E-005  0.7755881E+03  0.7818608E-02  0.9596040E-01
         -2   -1    0    0    0  501 -0.00000000000E+00  0.00000000000E+00  0.21650800680E+03  0.21650800682E+03  0.25500000000E-02 0. -1.
          2   -1    0    0  501    0  0.00000000000E+00 -0.00000000000E+00 -0.69458959065E+03  0.69458959066E+03  0.25500000000E-02 0.  1.
    5000001    1    1    2    0    0 -0.25427231372E+03  0.23879038660E+03 -0.28429337351E+03  0.47929425250E+03  0.16500000000E+03 0.  0.
   -5000001    1    1    2    0    0  0.25427231372E+03 -0.23879038660E+03 -0.19378821034E+03  0.43180334497E+03  0.16500000000E+03 0.  0.
<mgrwt>
<rscale>  0 0.77558806E+03</rscale>
<asrwt>0</asrwt>
<pdfrwt beam="1">  1        2 0.10685994E+00 0.77558806E+03</pdfrwt>
<pdfrwt beam="2">  1       -2 0.33308924E-01 0.77558806E+03</pdfrwt>
<totfact> 0.35030112E+02</totfact>
</mgrwt>
</event>
<event>
 4    1  0.8404100E-005  0.5643513E+03  0.7818608E-02  0.9982257E-01
          2   -1    0    0  501    0  0.00000000000E+00  0.00000000000E+00  0.68602787510E+03  0.68602787510E+03  0.25500000000E-02 0.  1.
         -2   -1    0    0    0  501 -0.00000000000E+00 -0.00000000000E+00 -0.11606394750E+03  0.11606394753E+03  0.25500000000E-02 0. -1.
    5000001    1    1    2    0    0  0.97928143236E+02 -0.20651388427E+03  0.30297078164E+03  0.41382870872E+03  0.16500000000E+03 0.  0.
   -5000001    1    1    2    0    0 -0.97928143236E+02  0.20651388427E+03  0.26699314597E+03  0.38826311391E+03  0.16500000000E+03 0.  0.
<mgrwt>
<rscale>  0 0.56435132E+03</rscale>
<asrwt>0</asrwt>
<pdfrwt beam="1">  1        2 0.10554275E+00 0.56435132E+03</pdfrwt>
<pdfrwt beam="2">  1       -2 0.17855992E-01 0.56435132E+03</pdfrwt>
<totfact> 0.10968770E+03</totfact>
</mgrwt>
</event>
<event>
 4    1  0.8404100E-005  0.6902682E+03  0.7818608E-02  0.9734021E-01
         -2   -1    0    0    0  501 -0.00000000000E+00  0.00000000000E+00  0.80168849179E+02  0.80168849219E+02  0.25500000000E-02 0. -1.
          2   -1    0    0  501    0  0.00000000000E+00 -0.00000000000E+00 -0.14858332233E+04  0.14858332233E+04  0.25500000000E-02 0.  1.
    5000001    1    1    2    0    0  0.76776332075E+02  0.10314212521E+03 -0.80038965693E+02  0.22397352341E+03  0.16500000000E+03 0.  0.
   -5000001    1    1    2    0    0 -0.76776332075E+02 -0.10314212521E+03 -0.13256254085E+04  0.13420285492E+04  0.16500000000E+03 0.  0.
<mgrwt>
<rscale>  0 0.69026818E+03</rscale>
<asrwt>0</asrwt>
<pdfrwt beam="1">  1        2 0.22858971E+00 0.69026818E+03</pdfrwt>
<pdfrwt beam="2">  1       -2 0.12333670E-01 0.69026818E+03</pdfrwt>
<totfact> 0.63832085E+02</totfact>
</mgrwt>
</event>
<event>
 4    1  0.8404100E-005  0.6261338E+03  0.7818608E-02  0.9852623E-01
          2   -1    0    0  501    0  0.00000000000E+00  0.00000000000E+00  0.26605716568E+03  0.26605716569E+03  0.25500000000E-02 0.  1.
         -2   -1    0    0    0  501 -0.00000000000E+00 -0.00000000000E+00 -0.36838276051E+03  0.36838276052E+03  0.25500000000E-02 0. -1.
    5000001    1    1    2    0    0 -0.46046304157E+02  0.25211463102E+03  0.21225976343E+02  0.30554474528E+03  0.16500000000E+03 0.  0.
   -5000001    1    1    2    0    0  0.46046304157E+02 -0.25211463102E+03 -0.12355157117E+03  0.32889518093E+03  0.16500000000E+03 0.  0.
<mgrwt>
<rscale>  0 0.62613377E+03</rscale>
<asrwt>0</asrwt>
<pdfrwt beam="1">  1        2 0.40931872E-01 0.62613377E+03</pdfrwt>
<pdfrwt beam="2">  1       -2 0.56674271E-01 0.62613377E+03</pdfrwt>
<totfact> 0.37014353E+02</totfact>
</mgrwt>
</event>
<event>
 4    1  0.8404100E-005  0.6734526E+03  0.7818608E-02  0.9763741E-01
          2   -1    0    0  501    0  0.00000000000E+00  0.00000000000E+00  0.90635261843E+03  0.90635261844E+03  0.25500000000E-02 0.  1.
         -2   -1    0    0    0  501 -0.00000000000E+00 -0.00000000000E+00 -0.12509986563E+03  0.12509986566E+03  0.25500000000E-02 0. -1.
    5000001    1    1    2    0    0  0.13574576535E+03 -0.21538920316E+03  0.16688766078E+03  0.34625989223E+03  0.16500000000E+03 0.  0.
   -5000001    1    1    2    0    0 -0.13574576535E+03  0.21538920316E+03  0.61436509202E+03  0.68519259186E+03  0.16500000000E+03 0.  0.
<mgrwt>
<rscale>  0 0.67345257E+03</rscale>
<asrwt>0</asrwt>
<pdfrwt beam="1">  1        2 0.13943887E+00 0.67345257E+03</pdfrwt>
<pdfrwt beam="2">  1       -2 0.19246133E-01 0.67345257E+03</pdfrwt>
<totfact> 0.66701630E+02</totfact>
</mgrwt>
</event>
<event>
 4    1  0.8404100E-005  0.4551194E+03  0.7818608E-02  0.1026206E+00
         -2   -1    0    0    0  501 -0.00000000000E+00  0.00000000000E+00  0.47147080258E+02  0.47147080327E+02  0.25500000000E-02 0.  1.
          2   -1    0    0  501    0  0.00000000000E+00 -0.00000000000E+00 -0.10983375203E+04  0.10983375203E+04  0.25500000000E-02 0. -1.
    5000001    1    1    2    0    0 -0.14731024918E+03 -0.49451089475E+02 -0.57672508001E+03  0.61966324539E+03  0.16500000000E+03 0.  0.
   -5000001    1    1    2    0    0  0.14731024918E+03  0.49451089475E+02 -0.47446536003E+03  0.52582135525E+03  0.16500000000E+03 0.  0.
<mgrwt>
<rscale>  0 0.45511936E+03</rscale>
<asrwt>0</asrwt>
<pdfrwt beam="1">  1        2 0.16897498E+00 0.45511936E+03</pdfrwt>
<pdfrwt beam="2">  1       -2 0.72533978E-02 0.45511936E+03</pdfrwt>
<totfact> 0.25278286E+03</totfact>
</mgrwt>
</event>
<event>
 4    1  0.8404100E-005  0.5472831E+03  0.7818608E-02  0.1002125E+00
          2   -1    0    0  501    0  0.00000000000E+00  0.00000000000E+00  0.27369315983E+04  0.27369315983E+04  0.25500000000E-02 0.  1.
         -2   -1    0    0    0  501 -0.00000000000E+00 -0.00000000000E+00 -0.27358993933E+02  0.27358994052E+02  0.25500000000E-02 0. -1.
    5000001    1    1    2    0    0  0.14990961977E+03  0.82801180568E+02  0.67102781614E+03  0.71192152632E+03  0.16500000000E+03 0.  0.
   -5000001    1    1    2    0    0 -0.14990961977E+03 -0.82801180568E+02  0.20385447882E+04  0.20523690660E+04  0.16500000000E+03 0.  0.
<mgrwt>
<rscale>  0 0.54728309E+03</rscale>
<asrwt>0</asrwt>
<pdfrwt beam="1">  1        2 0.42106642E+00 0.54728309E+03</pdfrwt>
<pdfrwt beam="2">  1       -2 0.42090758E-02 0.54728309E+03</pdfrwt>
<totfact> 0.72498217E+02</totfact>
</mgrwt>
</event>
<event>
 4    1  0.8404100E-005  0.4896480E+03  0.7818608E-02  0.1016517E+00
         -2   -1    0    0    0  501 -0.00000000000E+00  0.00000000000E+00  0.18094391207E+03  0.18094391209E+03  0.25500000000E-02 0. -1.
          2   -1    0    0  501    0  0.00000000000E+00 -0.00000000000E+00 -0.33125616934E+03  0.33125616935E+03  0.25500000000E-02 0.  1.
    5000001    1    1    2    0    0 -0.15317283135E+03 -0.69980880003E+02 -0.61278281723E+01  0.23584272325E+03  0.16500000000E+03 0.  0.
   -5000001    1    1    2    0    0  0.15317283135E+03  0.69980880003E+02 -0.14418442910E+03  0.27635735819E+03  0.16500000000E+03 0.  0.
<mgrwt>
<rscale>  0 0.48964798E+03</rscale>
<asrwt>0</asrwt>
<pdfrwt beam="1">  1        2 0.50962488E-01 0.48964798E+03</pdfrwt>
<pdfrwt beam="2">  1       -2 0.27837525E-01 0.48964798E+03</pdfrwt>
<totfact> 0.11573419E+03</totfact>
</mgrwt>
</event>
<event>
 4    1  0.8404100E-005  0.6672166E+03  0.7818608E-02  0.9774999E-01
         -2   -1    0    0    0  501 -0.00000000000E+00  0.00000000000E+00  0.77409293978E+02  0.77409294020E+02  0.25500000000E-02 0. -1.
          2   -1    0    0  501    0  0.00000000000E+00 -0.00000000000E+00 -0.14377409763E+04  0.14377409763E+04  0.25500000000E-02 0.  1.
    5000001    1    1    2    0    0 -0.25587336919E+03  0.13155699329E+03 -0.76176151943E+03  0.83083333830E+03  0.16500000000E+03 0.  0.
   -5000001    1    1    2    0    0  0.25587336919E+03 -0.13155699329E+03 -0.59857016287E+03  0.68431693200E+03  0.16500000000E+03 0.  0.
<mgrwt>
<rscale>  0 0.66721665E+03</rscale>
<asrwt>0</asrwt>
<pdfrwt beam="1">  1        2 0.22119090E+00 0.66721665E+03</pdfrwt>
<pdfrwt beam="2">  1       -2 0.11909123E-01 0.66721665E+03</pdfrwt>
<totfact> 0.72030644E+02</totfact>
</mgrwt>
</event>
<event>
 4    1  0.8404100E-005  0.4586563E+03  0.7818608E-02  0.1025172E+00
          2   -1    0    0  501    0  0.00000000000E+00  0.00000000000E+00  0.18254849429E+04  0.18254849429E+04  0.25500000000E-02 0.  1.
         -2   -1    0    0    0  501 -0.00000000000E+00 -0.00000000000E+00 -0.28809550436E+02  0.28809550549E+02  0.25500000000E-02 0. -1.
    5000001    1    1    2    0    0 -0.24098741227E+01  0.10814309145E+03  0.42572353763E+03  0.46921878289E+03  0.16500000000E+03 0.  0.
   -5000001    1    1    2    0    0  0.24098741227E+01 -0.10814309145E+03  0.13709518548E+04  0.13850757106E+04  0.16500000000E+03 0.  0.
<mgrwt>
<rscale>  0 0.45865630E+03</rscale>
<asrwt>0</asrwt>
<pdfrwt beam="1">  1        2 0.28084392E+00 0.45865630E+03</pdfrwt>
<pdfrwt beam="2">  1       -2 0.44322372E-02 0.45865630E+03</pdfrwt>
<totfact> 0.21415422E+03</totfact>
</mgrwt>
</event>
<event>
 4    1  0.8404100E-005  0.6859489E+03  0.7818608E-02  0.9741568E-01
         -2   -1    0    0    0  501 -0.00000000000E+00  0.00000000000E+00  0.11725527902E+03  0.11725527905E+03  0.25500000000E-02 0. -1.
          2   -1    0    0  501    0  0.00000000000E+00 -0.00000000000E+00 -0.10032081975E+04  0.10032081975E+04  0.25500000000E-02 0.  1.
    5000001    1    1    2    0    0 -0.14000294415E+03  0.73189958277E+02 -0.25091227911E+02  0.22980897302E+03  0.16500000000E+03 0.  0.
   -5000001    1    1    2    0    0  0.14000294415E+03 -0.73189958277E+02 -0.86086169056E+03  0.89065450351E+03  0.16500000000E+03 0.  0.
<mgrwt>
<rscale>  0 0.68594885E+03</rscale>
<asrwt>0</asrwt>
<pdfrwt beam="1">  1        2 0.15433972E+00 0.68594885E+03</pdfrwt>
<pdfrwt beam="2">  1       -2 0.18039274E-01 0.68594885E+03</pdfrwt>
<totfact> 0.64507271E+02</totfact>
</mgrwt>
</event>
<event>
 4    1  0.8404100E-005  0.4509848E+03  0.7818608E-02  0.1027429E+00
          2   -1    0    0  501    0  0.00000000000E+00  0.00000000000E+00  0.22829434246E+04  0.22829434246E+04  0.25500000000E-02 0.  1.
         -2   -1    0    0    0  501 -0.00000000000E+00 -0.00000000000E+00 -0.22272483680E+02  0.22272483826E+02  0.25500000000E-02 0. -1.
    5000001    1    1    2    0    0  0.14222543215E+03  0.56541016431E+02  0.10586173787E+04  0.10822757110E+04  0.16500000000E+03 0.  0.
   -5000001    1    1    2    0    0 -0.14222543215E+03 -0.56541016431E+02  0.12020535622E+04  0.12229401974E+04  0.16500000000E+03 0.  0.
<mgrwt>
<rscale>  0 0.45098479E+03</rscale>
<asrwt>0</asrwt>
<pdfrwt beam="1">  1        2 0.35122204E+00 0.45098479E+03</pdfrwt>
<pdfrwt beam="2">  1       -2 0.34265362E-02 0.45098479E+03</pdfrwt>
<totfact> 0.17987948E+03</totfact>
</mgrwt>
</event>
<event>
 4    1  0.8404100E-005  0.9562593E+03  0.7818608E-02  0.9357864E-01
          2   -1    0    0  501    0  0.00000000000E+00  0.00000000000E+00  0.26381008760E+04  0.26381008760E+04  0.25500000000E-02 0.  1.
         -2   -1    0    0    0  501 -0.00000000000E+00 -0.00000000000E+00 -0.86656257514E+02  0.86656257551E+02  0.25500000000E-02 0. -1.
    5000001    1    1    2    0    0 -0.12014122931E+03 -0.43229804400E+03  0.12991211899E+04  0.13842891244E+04  0.16500000000E+03 0.  0.
   -5000001    1    1    2    0    0  0.12014122931E+03  0.43229804400E+03  0.12523234286E+04  0.13404680092E+04  0.16500000000E+03 0.  0.
<mgrwt>
<rscale>  0 0.95625927E+03</rscale>
<asrwt>0</asrwt>
<pdfrwt beam="1">  1        2 0.40586163E+00 0.95625927E+03</pdfrwt>
<pdfrwt beam="2">  1       -2 0.13331733E-01 0.95625927E+03</pdfrwt>
<totfact> 0.12603017E+02</totfact>
</mgrwt>
</event>
<event>
 4    1  0.8404100E-005  0.6519348E+03  0.7818608E-02  0.9803156E-01
          2   -1    0    0  501    0  0.00000000000E+00  0.00000000000E+00  0.26380727657E+04  0.26380727657E+04  0.25500000000E-02 0.  1.
         -2   -1    0    0    0  501 -0.00000000000E+00 -0.00000000000E+00 -0.40277407161E+02  0.40277407242E+02  0.25500000000E-02 0. -1.
    5000001    1    1    2    0    0 -0.24625365146E+03  0.60380943621E+02  0.17977320043E+04  0.18230063298E+04  0.16500000000E+03 0.  0.
   -5000001    1    1    2    0    0  0.24625365146E+03 -0.60380943621E+02  0.80006335429E+03  0.85534384319E+03  0.16500000000E+03 0.  0.
<mgrwt>
<rscale>  0 0.65193475E+03</rscale>
<asrwt>0</asrwt>
<pdfrwt beam="1">  1        2 0.40585733E+00 0.65193475E+03</pdfrwt>
<pdfrwt beam="2">  1       -2 0.61965244E-02 0.65193475E+03</pdfrwt>
<totfact> 0.44874090E+02</totfact>
</mgrwt>
</event>
<event>
 4    1  0.8404100E-005  0.6432179E+03  0.7818608E-02  0.9819589E-01
          2   -1    0    0  501    0  0.00000000000E+00  0.00000000000E+00  0.17047078151E+04  0.17047078151E+04  0.25500000000E-02 0.  1.
         -2   -1    0    0    0  501 -0.00000000000E+00 -0.00000000000E+00 -0.60674522075E+02  0.60674522129E+02  0.25500000000E-02 0. -1.
    5000001    1    1    2    0    0  0.13162129679E+03 -0.24240987465E+03  0.79187351772E+03  0.85462002151E+03  0.16500000000E+03 0.  0.
   -5000001    1    1    2    0    0 -0.13162129679E+03  0.24240987465E+03  0.85215977532E+03  0.91076231573E+03  0.16500000000E+03 0.  0.
<mgrwt>
<rscale>  0 0.64321795E+03</rscale>
<asrwt>0</asrwt>
<pdfrwt beam="1">  1        2 0.26226273E+00 0.64321795E+03</pdfrwt>
<pdfrwt beam="2">  1       -2 0.93345424E-02 0.64321795E+03</pdfrwt>
<totfact> 0.76505786E+02</totfact>
</mgrwt>
</event>
<event>
 4    1  0.8404100E-005  0.4594668E+03  0.7818608E-02  0.1024936E+00
         -2   -1    0    0    0  501 -0.00000000000E+00  0.00000000000E+00  0.24054739447E+02  0.24054739582E+02  0.25500000000E-02 0. -1.
          2   -1    0    0  501    0  0.00000000000E+00 -0.00000000000E+00 -0.21940554665E+04  0.21940554665E+04  0.25500000000E-02 0.  1.
    5000001    1    1    2    0    0  0.13937697642E+03  0.34708105002E+02 -0.14236828027E+04  0.14403917234E+04  0.16500000000E+03 0.  0.
   -5000001    1    1    2    0    0 -0.13937697642E+03 -0.34708105002E+02 -0.74631792431E+03  0.77771848265E+03  0.16500000000E+03 0.  0.
<mgrwt>
<rscale>  0 0.45946679E+03</rscale>
<asrwt>0</asrwt>
<pdfrwt beam="1">  1        2 0.33754684E+00 0.45946679E+03</pdfrwt>
<pdfrwt beam="2">  1       -2 0.37007309E-02 0.45946679E+03</pdfrwt>
<totfact> 0.17875811E+03</totfact>
</mgrwt>
</event>
<event>
 4    1  0.8404100E-005  0.8567711E+03  0.7818608E-02  0.9481294E-01
          2   -1    0    0  501    0  0.00000000000E+00  0.00000000000E+00  0.51521373939E+03  0.51521373940E+03  0.25500000000E-02 0.  1.
         -2   -1    0    0    0  501 -0.00000000000E+00 -0.00000000000E+00 -0.35619036641E+03  0.35619036642E+03  0.25500000000E-02 0. -1.
    5000001    1    1    2    0    0 -0.10171928404E+03 -0.30161002005E+03 -0.15895762602E+03  0.39218355882E+03  0.16500000000E+03 0.  0.
   -5000001    1    1    2    0    0  0.10171928404E+03  0.30161002005E+03  0.31798099900E+03  0.47922054700E+03  0.16500000000E+03 0.  0.
<mgrwt>
<rscale>  0 0.85677108E+03</rscale>
<asrwt>0</asrwt>
<pdfrwt beam="1">  1        2 0.79263652E-01 0.85677108E+03</pdfrwt>
<pdfrwt beam="2">  1       -2 0.54798518E-01 0.85677108E+03</pdfrwt>
<totfact> 0.18729346E+02</totfact>
</mgrwt>
</event>
<event>
 4    1  0.8404100E-005  0.5036697E+03  0.7818608E-02  0.1012825E+00
         -2   -1    0    0    0  501 -0.00000000000E+00  0.00000000000E+00  0.40874532738E+03  0.40874532739E+03  0.25500000000E-02 0. -1.
          2   -1    0    0  501    0  0.00000000000E+00 -0.00000000000E+00 -0.15515966169E+03  0.15515966171E+03  0.25500000000E-02 0.  1.
    5000001    1    1    2    0    0 -0.50149132704E+02  0.17777030303E+03  0.17783657615E+03  0.30490664796E+03  0.16500000000E+03 0.  0.
   -5000001    1    1    2    0    0  0.50149132704E+02 -0.17777030303E+03  0.75749089543E+02  0.25899834115E+03  0.16500000000E+03 0.  0.
<mgrwt>
<rscale>  0 0.50366968E+03</rscale>
<asrwt>0</asrwt>
<pdfrwt beam="1">  1        2 0.23870717E-01 0.50366968E+03</pdfrwt>
<pdfrwt beam="2">  1       -2 0.62883897E-01 0.50366968E+03</pdfrwt>
<totfact> 0.54601715E+02</totfact>
</mgrwt>
</event>
<event>
 4    1  0.8404100E-005  0.5275446E+03  0.7818608E-02  0.1006829E+00
          2   -1    0    0  501    0  0.00000000000E+00  0.00000000000E+00  0.79321346287E+03  0.79321346287E+03  0.25500000000E-02 0.  1.
         -2   -1    0    0    0  501 -0.00000000000E+00 -0.00000000000E+00 -0.87713885857E+02  0.87713885894E+02  0.25500000000E-02 0. -1.
    5000001    1    1    2    0    0  0.16146559280E+03 -0.34570283253E+02  0.55784129822E+03  0.60471328424E+03  0.16500000000E+03 0.  0.
   -5000001    1    1    2    0    0 -0.16146559280E+03  0.34570283253E+02  0.14765827879E+03  0.27621406452E+03  0.16500000000E+03 0.  0.
<mgrwt>
<rscale>  0 0.52754463E+03</rscale>
<asrwt>0</asrwt>
<pdfrwt beam="1">  1        2 0.12203284E+00 0.52754463E+03</pdfrwt>
<pdfrwt beam="2">  1       -2 0.13494444E-01 0.52754463E+03</pdfrwt>
<totfact> 0.14636256E+03</totfact>
</mgrwt>
</event>
<event>
 4    1  0.8404100E-005  0.6635840E+03  0.7818608E-02  0.9781618E-01
          2   -1    0    0  501    0  0.00000000000E+00  0.00000000000E+00  0.19847377675E+04  0.19847377675E+04  0.25500000000E-02 0.  1.
         -2   -1    0    0    0  501 -0.00000000000E+00 -0.00000000000E+00 -0.55466229997E+02  0.55466230056E+02  0.25500000000E-02 0. -1.
    5000001    1    1    2    0    0 -0.26734298597E+03  0.10666140784E+03  0.95398819844E+03  0.10100333712E+04  0.16500000000E+03 0.  0.
   -5000001    1    1    2    0    0  0.26734298597E+03 -0.10666140784E+03  0.97528333909E+03  0.10301706264E+04  0.16500000000E+03 0.  0.
<mgrwt>
<rscale>  0 0.66358397E+03</rscale>
<asrwt>0</asrwt>
<pdfrwt beam="1">  1        2 0.30534426E+00 0.66358397E+03</pdfrwt>
<pdfrwt beam="2">  1       -2 0.85332666E-02 0.66358397E+03</pdfrwt>
<totfact> 0.62208513E+02</totfact>
</mgrwt>
</event>
<event>
 4    1  0.8404100E-005  0.4439317E+03  0.7818608E-02  0.1029547E+00
          2   -1    0    0  501    0  0.00000000000E+00  0.00000000000E+00  0.17307043827E+03  0.17307043829E+03  0.25500000000E-02 0.  1.
         -2   -1    0    0    0  501 -0.00000000000E+00 -0.00000000000E+00 -0.28467512451E+03  0.28467512452E+03  0.25500000000E-02 0. -1.
    5000001    1    1    2    0    0 -0.96693571721E+02 -0.92798665992E+02  0.10081185896E+02  0.21280946767E+03  0.16500000000E+03 0.  0.
   -5000001    1    1    2    0    0  0.96693571721E+02  0.92798665992E+02 -0.12168587213E+03  0.24493609513E+03  0.16500000000E+03 0.  0.
<mgrwt>
<rscale>  0 0.44393175E+03</rscale>
<asrwt>0</asrwt>
<pdfrwt beam="1">  1        2 0.26626221E-01 0.44393175E+03</pdfrwt>
<pdfrwt beam="2">  1       -2 0.43796173E-01 0.44393175E+03</pdfrwt>
<totfact> 0.10083245E+03</totfact>
</mgrwt>
</event>
<event>
 4    1  0.8404100E-005  0.3821697E+03  0.7818608E-02  0.1050135E+00
         -2   -1    0    0    0  501 -0.00000000000E+00  0.00000000000E+00  0.66238499923E+02  0.66238499972E+02  0.25500000000E-02 0. -1.
          2   -1    0    0  501    0  0.00000000000E+00 -0.00000000000E+00 -0.55124160808E+03  0.55124160808E+03  0.25500000000E-02 0.  1.
    5000001    1    1    2    0    0 -0.76011786411E+02  0.58725100362E+02 -0.25522254833E+03  0.31873182813E+03  0.16500000000E+03 0.  0.
   -5000001    1    1    2    0    0  0.76011786411E+02 -0.58725100362E+02 -0.22978055983E+03  0.29874827993E+03  0.16500000000E+03 0.  0.
<mgrwt>
<rscale>  0 0.38216969E+03</rscale>
<asrwt>0</asrwt>
<pdfrwt beam="1">  1        2 0.84806398E-01 0.38216969E+03</pdfrwt>
<pdfrwt beam="2">  1       -2 0.10190539E-01 0.38216969E+03</pdfrwt>
<totfact> 0.36043758E+03</totfact>
</mgrwt>
</event>
<event>
 4    1  0.8404100E-005  0.6664171E+03  0.7818608E-02  0.9776452E-01
          2   -1    0    0  501    0  0.00000000000E+00  0.00000000000E+00  0.54526784674E+03  0.54526784675E+03  0.25500000000E-02 0.  1.
         -2   -1    0    0    0  501 -0.00000000000E+00 -0.00000000000E+00 -0.20362088975E+03  0.20362088977E+03  0.25500000000E-02 0. -1.
    5000001    1    1    2    0    0 -0.34228437919E+02 -0.28598142304E+03  0.13813858381E+03  0.35953334842E+03  0.16500000000E+03 0.  0.
   -5000001    1    1    2    0    0  0.34228437919E+02  0.28598142304E+03  0.20350837318E+03  0.38935538809E+03  0.16500000000E+03 0.  0.
<mgrwt>
<rscale>  0 0.66641706E+03</rscale>
<asrwt>0</asrwt>
<pdfrwt beam="1">  1        2 0.83887359E-01 0.66641706E+03</pdfrwt>
<pdfrwt beam="2">  1       -2 0.31326291E-01 0.66641706E+03</pdfrwt>
<totfact> 0.52926171E+02</totfact>
</mgrwt>
</event>
<event>
 4    1  0.8404100E-005  0.3582009E+03  0.7818608E-02  0.1059299E+00
         -2   -1    0    0    0  501 -0.00000000000E+00  0.00000000000E+00  0.14592815367E+03  0.14592815369E+03  0.25500000000E-02 0. -1.
          2   -1    0    0  501    0  0.00000000000E+00 -0.00000000000E+00 -0.21981342630E+03  0.21981342631E+03  0.25500000000E-02 0.  1.
    5000001    1    1    2    0    0  0.49482399097E+02  0.27108094749E+02  0.47659259035E+01  0.17444503625E+03  0.16500000000E+03 0.  0.
   -5000001    1    1    2    0    0 -0.49482399097E+02 -0.27108094749E+02 -0.78651198533E+02  0.19129654375E+03  0.16500000000E+03 0.  0.
<mgrwt>
<rscale>  0 0.35820088E+03</rscale>
<asrwt>0</asrwt>
<pdfrwt beam="1">  1        2 0.33817450E-01 0.35820088E+03</pdfrwt>
<pdfrwt beam="2">  1       -2 0.22450485E-01 0.35820088E+03</pdfrwt>
<totfact> 0.26526940E+03</totfact>
</mgrwt>
</event>
<event>
 4    1  0.8404100E-005  0.3906269E+03  0.7818608E-02  0.1047074E+00
         -2   -1    0    0    0  501 -0.00000000000E+00  0.00000000000E+00  0.10407172374E+03  0.10407172377E+03  0.25500000000E-02 0. -1.
          2   -1    0    0  501    0  0.00000000000E+00 -0.00000000000E+00 -0.36654864939E+03  0.36654864940E+03  0.25500000000E-02 0.  1.
    5000001    1    1    2    0    0 -0.18469643584E+02 -0.21573112433E+02 -0.10064544795E+02  0.16772841732E+03  0.16500000000E+03 0.  0.
   -5000001    1    1    2    0    0  0.18469643584E+02  0.21573112433E+02 -0.25241238085E+03  0.30289195586E+03  0.16500000000E+03 0.  0.
<mgrwt>
<rscale>  0 0.39062693E+03</rscale>
<asrwt>0</asrwt>
<pdfrwt beam="1">  1        2 0.56392099E-01 0.39062693E+03</pdfrwt>
<pdfrwt beam="2">  1       -2 0.16011035E-01 0.39062693E+03</pdfrwt>
<totfact> 0.27126578E+03</totfact>
</mgrwt>
</event>
<event>
 4    1  0.8404100E-005  0.7525539E+03  0.7818608E-02  0.9631352E-01
          2   -1    0    0  501    0  0.00000000000E+00  0.00000000000E+00  0.43367491035E+03  0.43367491036E+03  0.25500000000E-02 0.  1.
         -2   -1    0    0    0  501 -0.00000000000E+00 -0.00000000000E+00 -0.32647577019E+03  0.32647577020E+03  0.25500000000E-02 0. -1.
    5000001    1    1    2    0    0 -0.19825994281E+03 -0.26688558299E+03  0.11606582718E+03  0.38888455301E+03  0.16500000000E+03 0.  0.
   -5000001    1    1    2    0    0  0.19825994281E+03  0.26688558299E+03 -0.88666870226E+01  0.37126612755E+03  0.16500000000E+03 0.  0.
<mgrwt>
<rscale>  0 0.75255392E+03</rscale>
<asrwt>0</asrwt>
<pdfrwt beam="1">  1        2 0.66719217E-01 0.75255392E+03</pdfrwt>
<pdfrwt beam="2">  1       -2 0.50227042E-01 0.75255392E+03</pdfrwt>
<totfact> 0.27428262E+02</totfact>
</mgrwt>
</event>
<event>
 4    1  0.8404100E-005  0.3605885E+03  0.7818608E-02  0.1058351E+00
         -2   -1    0    0    0  501 -0.00000000000E+00  0.00000000000E+00  0.12430683644E+02  0.12430683905E+02  0.25500000000E-02 0. -1.
          2   -1    0    0  501    0  0.00000000000E+00 -0.00000000000E+00 -0.26149823176E+04  0.26149823176E+04  0.25500000000E-02 0.  1.
    5000001    1    1    2    0    0 -0.26785468238E+02  0.46689059415E+02 -0.16570228032E+04  0.16660873026E+04  0.16500000000E+03 0.  0.
   -5000001    1    1    2    0    0  0.26785468238E+02 -0.46689059415E+02 -0.94552883078E+03  0.96132569893E+03  0.16500000000E+03 0.  0.
<mgrwt>
<rscale>  0 0.36058851E+03</rscale>
<asrwt>0</asrwt>
<pdfrwt beam="1">  1        2 0.40230453E+00 0.36058851E+03</pdfrwt>
<pdfrwt beam="2">  1       -2 0.19124150E-02 0.36058851E+03</pdfrwt>
<totfact> 0.28426813E+03</totfact>
</mgrwt>
</event>
<event>
 4    1  0.8404100E-005  0.1473603E+04  0.7818608E-02  0.8902199E-01
          2   -1    0    0  501    0  0.00000000000E+00  0.00000000000E+00  0.21681725715E+04  0.21681725715E+04  0.25500000000E-02 0.  1.
         -2   -1    0    0    0  501 -0.00000000000E+00 -0.00000000000E+00 -0.25038433607E+03  0.25038433609E+03  0.25500000000E-02 0. -1.
    5000001    1    1    2    0    0 -0.68359859715E+03  0.21986694678E+03  0.96170516993E+03  0.12115074701E+04  0.16500000000E+03 0.  0.
   -5000001    1    1    2    0    0  0.68359859715E+03 -0.21986694678E+03  0.95608306545E+03  0.12070494374E+04  0.16500000000E+03 0.  0.
<mgrwt>
<rscale>  0 0.14736030E+04</rscale>
<asrwt>0</asrwt>
<pdfrwt beam="1">  1        2 0.33356502E+00 0.14736030E+04</pdfrwt>
<pdfrwt beam="2">  1       -2 0.38520666E-01 0.14736030E+04</pdfrwt>
<totfact> 0.33198752E+01</totfact>
</mgrwt>
</event>
<event>
 4    1  0.8404100E-005  0.3749455E+03  0.7818608E-02  0.1052818E+00
          2   -1    0    0  501    0  0.00000000000E+00  0.00000000000E+00  0.44493874665E+04  0.44493874665E+04  0.25500000000E-02 0.  1.
         -2   -1    0    0    0  501 -0.00000000000E+00 -0.00000000000E+00 -0.78990732118E+01  0.78990736234E+01  0.25500000000E-02 0. -1.
    5000001    1    1    2    0    0  0.78734277110E+02 -0.46075880090E+01  0.17304925794E+04  0.17401292721E+04  0.16500000000E+03 0.  0.
   -5000001    1    1    2    0    0 -0.78734277110E+02  0.46075880090E+01  0.27109958139E+04  0.27171572680E+04  0.16500000000E+03 0.  0.
<mgrwt>
<rscale>  0 0.37494553E+03</rscale>
<asrwt>0</asrwt>
<pdfrwt beam="1">  1        2 0.68452164E+00 0.37494553E+03</pdfrwt>
<pdfrwt beam="2">  1       -2 0.12152412E-02 0.37494553E+03</pdfrwt>
<totfact> 0.29426484E+02</totfact>
</mgrwt>
</event>
<event>
 4    1  0.8404100E-005  0.3391668E+03  0.7818608E-02  0.1067151E+00
          2   -1    0    0  501    0  0.00000000000E+00  0.00000000000E+00  0.67371875752E+03  0.67371875752E+03  0.25500000000E-02 0.  1.
         -2   -1    0    0    0  501 -0.00000000000E+00 -0.00000000000E+00 -0.42686247855E+02  0.42686247931E+02  0.25500000000E-02 0. -1.
    5000001    1    1    2    0    0  0.22976222281E+02  0.99815954532E+00  0.38246567454E+03  0.41717369921E+03  0.16500000000E+03 0.  0.
   -5000001    1    1    2    0    0 -0.22976222281E+02 -0.99815954532E+00  0.24856683513E+03  0.29923130625E+03  0.16500000000E+03 0.  0.
<mgrwt>
<rscale>  0 0.33916678E+03</rscale>
<asrwt>0</asrwt>
<pdfrwt beam="1">  1        2 0.10364904E+00 0.33916678E+03</pdfrwt>
<pdfrwt beam="2">  1       -2 0.65671152E-02 0.33916678E+03</pdfrwt>
<totfact> 0.56752952E+03</totfact>
</mgrwt>
</event>
<event>
 4    1  0.8404100E-005  0.5581021E+03  0.7818608E-02  0.9996358E-01
         -2   -1    0    0    0  501 -0.00000000000E+00  0.00000000000E+00  0.72335500943E+02  0.72335500988E+02  0.25500000000E-02 0. -1.
          2   -1    0    0  501    0  0.00000000000E+00 -0.00000000000E+00 -0.10765045737E+04  0.10765045737E+04  0.25500000000E-02 0.  1.
    5000001    1    1    2    0    0  0.20483328165E+03 -0.38411354344E+02 -0.67690230094E+03  0.72722337039E+03  0.16500000000E+03 0.  0.
   -5000001    1    1    2    0    0 -0.20483328165E+03  0.38411354344E+02 -0.32726677182E+03  0.42161670431E+03  0.16500000000E+03 0.  0.
<mgrwt>
<rscale>  0 0.55810213E+03</rscale>
<asrwt>0</asrwt>
<pdfrwt beam="1">  1        2 0.16561608E+00 0.55810213E+03</pdfrwt>
<pdfrwt beam="2">  1       -2 0.11128539E-01 0.55810213E+03</pdfrwt>
<totfact> 0.13103967E+03</totfact>
</mgrwt>
</event>
<event>
 4    1  0.8404100E-005  0.4511472E+03  0.7818608E-02  0.1027381E+00
         -2   -1    0    0    0  501 -0.00000000000E+00  0.00000000000E+00  0.62198097851E+02  0.62198097903E+02  0.25500000000E-02 0. -1.
          2   -1    0    0  501    0  0.00000000000E+00 -0.00000000000E+00 -0.81808674798E+03  0.81808674799E+03  0.25500000000E-02 0.  1.
    5000001    1    1    2    0    0 -0.56739665021E+02  0.14275316591E+03 -0.36275694838E+03  0.42710122870E+03  0.16500000000E+03 0.  0.
   -5000001    1    1    2    0    0  0.56739665021E+02 -0.14275316591E+03 -0.39313170176E+03  0.45318361719E+03  0.16500000000E+03 0.  0.
<mgrwt>
<rscale>  0 0.45114716E+03</rscale>
<asrwt>0</asrwt>
<pdfrwt beam="1">  1        2 0.12585949E+00 0.45114716E+03</pdfrwt>
<pdfrwt beam="2">  1       -2 0.95689387E-02 0.45114716E+03</pdfrwt>
<totfact> 0.24636935E+03</totfact>
</mgrwt>
</event>
<event>
 4    1  0.8404100E-005  0.4394754E+03  0.7818608E-02  0.1030908E+00
          2   -1    0    0  501    0  0.00000000000E+00  0.00000000000E+00  0.86309001549E+03  0.86309001549E+03  0.25500000000E-02 0.  1.
         -2   -1    0    0    0  501 -0.00000000000E+00 -0.00000000000E+00 -0.55943934537E+02  0.55943934595E+02  0.25500000000E-02 0. -1.
    5000001    1    1    2    0    0 -0.13587491771E+02 -0.14341203642E+03  0.36687136202E+03  0.42728354566E+03  0.16500000000E+03 0.  0.
   -5000001    1    1    2    0    0  0.13587491771E+02  0.14341203642E+03  0.44027471893E+03  0.49175040442E+03  0.16500000000E+03 0.  0.
<mgrwt>
<rscale>  0 0.43947538E+03</rscale>
<asrwt>0</asrwt>
<pdfrwt beam="1">  1        2 0.13278307E+00 0.43947538E+03</pdfrwt>
<pdfrwt beam="2">  1       -2 0.86067599E-02 0.43947538E+03</pdfrwt>
<totfact> 0.27179626E+03</totfact>
</mgrwt>
</event>
<event>
 4    1  0.8404100E-005  0.6694592E+03  0.7818608E-02  0.9770935E-01
          2   -1    0    0  501    0  0.00000000000E+00  0.00000000000E+00  0.81120427870E+03  0.81120427871E+03  0.25500000000E-02 0.  1.
         -2   -1    0    0    0  501 -0.00000000000E+00 -0.00000000000E+00 -0.13812046049E+03  0.13812046052E+03  0.25500000000E-02 0. -1.
    5000001    1    1    2    0    0  0.12420896398E+03  0.25994901201E+03  0.39699718613E+03  0.51752596203E+03  0.16500000000E+03 0.  0.
   -5000001    1    1    2    0    0 -0.12420896398E+03 -0.25994901201E+03  0.27608663207E+03  0.43179877720E+03  0.16500000000E+03 0.  0.
<mgrwt>
<rscale>  0 0.66945921E+03</rscale>
<asrwt>0</asrwt>
<pdfrwt beam="1">  1        2 0.12480066E+00 0.66945921E+03</pdfrwt>
<pdfrwt beam="2">  1       -2 0.21249301E-01 0.66945921E+03</pdfrwt>
<totfact> 0.65231059E+02</totfact>
</mgrwt>
</event>
<event>
 4    1  0.8404100E-005  0.4556727E+03  0.7818608E-02  0.1026044E+00
          2   -1    0    0  501    0  0.00000000000E+00  0.00000000000E+00  0.98561369939E+02  0.98561369972E+02  0.25500000000E-02 0.  1.
         -2   -1    0    0    0  501 -0.00000000000E+00 -0.00000000000E+00 -0.52667084617E+03  0.52667084618E+03  0.25500000000E-02 0. -1.
    5000001    1    1    2    0    0 -0.12943475659E+03  0.85041178065E+02 -0.25033245631E+03  0.33745621473E+03  0.16500000000E+03 0.  0.
   -5000001    1    1    2    0    0  0.12943475659E+03 -0.85041178065E+02 -0.17777701993E+03  0.28777600142E+03  0.16500000000E+03 0.  0.
<mgrwt>
<rscale>  0 0.45567269E+03</rscale>
<asrwt>0</asrwt>
<pdfrwt beam="1">  1        2 0.15163288E-01 0.45567269E+03</pdfrwt>
<pdfrwt beam="2">  1       -2 0.81026283E-01 0.45567269E+03</pdfrwt>
<totfact> 0.53568236E+02</totfact>
</mgrwt>
</event>
<event>
 4    1  0.8404100E-005  0.4449423E+03  0.7818608E-02  0.1029241E+00
          2   -1    0    0  501    0  0.00000000000E+00  0.00000000000E+00  0.94752632914E+03  0.94752632915E+03  0.25500000000E-02 0.  1.
         -2   -1    0    0    0  501 -0.00000000000E+00 -0.00000000000E+00 -0.52234332786E+02  0.52234332849E+02  0.25500000000E-02 0. -1.
    5000001    1    1    2    0    0 -0.54872165131E+02 -0.80220152934E+02  0.70207890722E+03  0.72772661035E+03  0.16500000000E+03 0.  0.
   -5000001    1    1    2    0    0  0.54872165131E+02  0.80220152934E+02  0.19321308914E+03  0.27203405165E+03  0.16500000000E+03 0.  0.
<mgrwt>
<rscale>  0 0.44494227E+03</rscale>
<asrwt>0</asrwt>
<pdfrwt beam="1">  1        2 0.14577328E+00 0.44494227E+03</pdfrwt>
<pdfrwt beam="2">  1       -2 0.80360515E-02 0.44494227E+03</pdfrwt>
<totfact> 0.26669045E+03</totfact>
</mgrwt>
</event>
<event>
 4    1  0.8404100E-005  0.7941020E+03  0.7818608E-02  0.9568594E-01
         -2   -1    0    0    0  501 -0.00000000000E+00  0.00000000000E+00  0.17288648460E+04  0.17288648460E+04  0.25500000000E-02 0. -1.
          2   -1    0    0  501    0  0.00000000000E+00 -0.00000000000E+00 -0.91186718183E+02  0.91186718219E+02  0.25500000000E-02 0.  1.
    5000001    1    1    2    0    0 -0.44205460862E+02 -0.35125699991E+03  0.98233980073E+03  0.10571433615E+04  0.16500000000E+03 0.  0.
   -5000001    1    1    2    0    0  0.44205460862E+02  0.35125699991E+03  0.65533832705E+03  0.76290820264E+03  0.16500000000E+03 0.  0.
<mgrwt>
<rscale>  0 0.79410204E+03</rscale>
<asrwt>0</asrwt>
<pdfrwt beam="1">  1        2 0.14028726E-01 0.79410204E+03</pdfrwt>
<pdfrwt beam="2">  1       -2 0.26597920E+00 0.79410204E+03</pdfrwt>
<totfact> 0.22939219E+01</totfact>
</mgrwt>
</event>
<event>
 4    1  0.8404100E-005  0.7072170E+03  0.7818608E-02  0.9704969E-01
         -2   -1    0    0    0  501 -0.00000000000E+00  0.00000000000E+00  0.18778734880E+03  0.18778734882E+03  0.25500000000E-02 0. -1.
          2   -1    0    0  501    0  0.00000000000E+00 -0.00000000000E+00 -0.66585404001E+03  0.66585404001E+03  0.25500000000E-02 0.  1.
    5000001    1    1    2    0    0 -0.11045517761E+03  0.44067643862E+02  0.11011660052E+03  0.23128547124E+03  0.16500000000E+03 0.  0.
   -5000001    1    1    2    0    0  0.11045517761E+03 -0.44067643862E+02 -0.58818329172E+03  0.62235591759E+03  0.16500000000E+03 0.  0.
<mgrwt>
<rscale>  0 0.70721698E+03</rscale>
<asrwt>0</asrwt>
<pdfrwt beam="1">  1        2 0.10243908E+00 0.70721698E+03</pdfrwt>
<pdfrwt beam="2">  1       -2 0.28890362E-01 0.70721698E+03</pdfrwt>
<totfact> 0.48272617E+02</totfact>
</mgrwt>
</event>
<event>
 4    1  0.8404100E-005  0.6607721E+03  0.7818608E-02  0.9786773E-01
          2   -1    0    0  501    0  0.00000000000E+00  0.00000000000E+00  0.93279712789E+03  0.93279712790E+03  0.25500000000E-02 0.  1.
         -2   -1    0    0    0  501 -0.00000000000E+00 -0.00000000000E+00 -0.11701894478E+03  0.11701894481E+03  0.25500000000E-02 0. -1.
    5000001    1    1    2    0    0  0.23133815027E+03 -0.12307939020E+03  0.22491071735E+03  0.38272144811E+03  0.16500000000E+03 0.  0.
   -5000001    1    1    2    0    0 -0.23133815027E+03  0.12307939020E+03  0.59086746577E+03  0.66709462460E+03  0.16500000000E+03 0.  0.
<mgrwt>
<rscale>  0 0.66077208E+03</rscale>
<asrwt>0</asrwt>
<pdfrwt beam="1">  1        2 0.14350725E+00 0.66077208E+03</pdfrwt>
<pdfrwt beam="2">  1       -2 0.18002915E-01 0.66077208E+03</pdfrwt>
<totfact> 0.71940613E+02</totfact>
</mgrwt>
</event>
<event>
 4    1  0.8404100E-005  0.1300626E+04  0.7818608E-02  0.9029069E-01
          2   -1    0    0  501    0  0.00000000000E+00  0.00000000000E+00  0.29396838080E+04  0.29396838080E+04  0.25500000000E-02 0.  1.
         -2   -1    0    0    0  501 -0.00000000000E+00 -0.00000000000E+00 -0.14386140210E+03  0.14386140213E+03  0.25500000000E-02 0. -1.
    5000001    1    1    2    0    0  0.38092448355E+03  0.19810475893E+03  0.30802386256E+03  0.55358166298E+03  0.16500000000E+03 0.  0.
   -5000001    1    1    2    0    0 -0.38092448355E+03 -0.19810475893E+03  0.24877985433E+04  0.25299635471E+04  0.16500000000E+03 0.  0.
<mgrwt>
<rscale>  0 0.13006261E+04</rscale>
<asrwt>0</asrwt>
<pdfrwt beam="1">  1        2 0.45225899E+00 0.13006261E+04</pdfrwt>
<pdfrwt beam="2">  1       -2 0.22132526E-01 0.13006261E+04</pdfrwt>
<totfact> 0.33593033E+01</totfact>
</mgrwt>
</event>
<event>
 4    1  0.8404100E-005  0.4527489E+03  0.7818608E-02  0.1026905E+00
          2   -1    0    0  501    0  0.00000000000E+00  0.00000000000E+00  0.16786088063E+04  0.16786088063E+04  0.25500000000E-02 0.  1.
         -2   -1    0    0    0  501 -0.00000000000E+00 -0.00000000000E+00 -0.30528492050E+02  0.30528492156E+02  0.25500000000E-02 0. -1.
    5000001    1    1    2    0    0 -0.14007273040E+03  0.66332651695E+02  0.82431258088E+03  0.85483134096E+03  0.16500000000E+03 0.  0.
   -5000001    1    1    2    0    0  0.14007273040E+03 -0.66332651695E+02  0.82376773335E+03  0.85430595748E+03  0.16500000000E+03 0.  0.
<mgrwt>
<rscale>  0 0.45274892E+03</rscale>
<asrwt>0</asrwt>
<pdfrwt beam="1">  1        2 0.25824759E+00 0.45274892E+03</pdfrwt>
<pdfrwt beam="2">  1       -2 0.46966897E-02 0.45274892E+03</pdfrwt>
<totfact> 0.23496065E+03</totfact>
</mgrwt>
</event>
<event>
 4    1  0.8404100E-005  0.4812743E+03  0.7818608E-02  0.1018786E+00
          2   -1    0    0  501    0  0.00000000000E+00  0.00000000000E+00  0.14070125540E+04  0.14070125540E+04  0.25500000000E-02 0.  1.
         -2   -1    0    0    0  501 -0.00000000000E+00 -0.00000000000E+00 -0.41155454319E+02  0.41155454398E+02  0.25500000000E-02 0. -1.
    5000001    1    1    2    0    0 -0.12116866850E+03  0.12647913087E+03  0.68761353974E+03  0.72850270885E+03  0.16500000000E+03 0.  0.
   -5000001    1    1    2    0    0  0.12116866850E+03 -0.12647913087E+03  0.67824355997E+03  0.71966529958E+03  0.16500000000E+03 0.  0.
<mgrwt>
<rscale>  0 0.48127431E+03</rscale>
<asrwt>0</asrwt>
<pdfrwt beam="1">  1        2 0.21646345E+00 0.48127431E+03</pdfrwt>
<pdfrwt beam="2">  1       -2 0.63316089E-02 0.48127431E+03</pdfrwt>
<totfact> 0.20784727E+03</totfact>
</mgrwt>
</event>
<event>
 4    1  0.8404100E-005  0.4849887E+03  0.7818608E-02  0.1017773E+00
          2   -1    0    0  501    0  0.00000000000E+00  0.00000000000E+00  0.76225263827E+03  0.76225263827E+03  0.25500000000E-02 0. -1.
         -2   -1    0    0    0  501 -0.00000000000E+00 -0.00000000000E+00 -0.77144397547E+02  0.77144397589E+02  0.25500000000E-02 0.  1.
    5000001    1    1    2    0    0  0.12861208804E+03 -0.11697031551E+03  0.40627312449E+03  0.47170539067E+03  0.16500000000E+03 0.  0.
   -5000001    1    1    2    0    0 -0.12861208804E+03  0.11697031551E+03  0.27883511623E+03  0.36769164519E+03  0.16500000000E+03 0.  0.
<mgrwt>
<rscale>  0 0.48498874E+03</rscale>
<asrwt>0</asrwt>
<pdfrwt beam="1">  1        2 0.11726963E+00 0.48498874E+03</pdfrwt>
<pdfrwt beam="2">  1       -2 0.11868369E-01 0.48498874E+03</pdfrwt>
<totfact> 0.19047628E+03</totfact>
</mgrwt>
</event>
<event>
 4    1  0.8404100E-005  0.5154490E+03  0.7818608E-02  0.1009823E+00
          2   -1    0    0  501    0  0.00000000000E+00  0.00000000000E+00  0.13165256705E+04  0.13165256705E+04  0.25500000000E-02 0.  1.
         -2   -1    0    0    0  501 -0.00000000000E+00 -0.00000000000E+00 -0.50452422692E+02  0.50452422757E+02  0.25500000000E-02 0. -1.
    5000001    1    1    2    0    0  0.11526327233E+03  0.15876512554E+03  0.56262463614E+03  0.61827458967E+03  0.16500000000E+03 0.  0.
   -5000001    1    1    2    0    0 -0.11526327233E+03 -0.15876512554E+03  0.70344861171E+03  0.74870350363E+03  0.16500000000E+03 0.  0.
<mgrwt>
<rscale>  0 0.51544897E+03</rscale>
<asrwt>0</asrwt>
<pdfrwt beam="1">  1        2 0.20254241E+00 0.51544897E+03</pdfrwt>
<pdfrwt beam="2">  1       -2 0.77619111E-02 0.51544897E+03</pdfrwt>
<totfact> 0.16937299E+03</totfact>
</mgrwt>
</event>
<event>
 4    1  0.8404100E-005  0.5439372E+03  0.7818608E-02  0.1002907E+00
         -2   -1    0    0    0  501 -0.00000000000E+00  0.00000000000E+00  0.63373574772E+02  0.63373574823E+02  0.25500000000E-02 0. -1.
          2   -1    0    0  501    0  0.00000000000E+00 -0.00000000000E+00 -0.11671570713E+04  0.11671570713E+04  0.25500000000E-02 0.  1.
    5000001    1    1    2    0    0 -0.21468918106E+03  0.25499342609E+02 -0.55303419092E+03  0.61629009181E+03  0.16500000000E+03 0.  0.
   -5000001    1    1    2    0    0  0.21468918106E+03 -0.25499342609E+02 -0.55074930557E+03  0.61424055428E+03  0.16500000000E+03 0.  0.
<mgrwt>
<rscale>  0 0.54393719E+03</rscale>
<asrwt>0</asrwt>
<pdfrwt beam="1">  1        2 0.17956261E+00 0.54393719E+03</pdfrwt>
<pdfrwt beam="2">  1       -2 0.97497816E-02 0.54393719E+03</pdfrwt>
<totfact> 0.14335636E+03</totfact>
</mgrwt>
</event>
<event>
 4    1  0.8404100E-005  0.6120736E+03  0.7818608E-02  0.9880669E-01
          2   -1    0    0  501    0  0.00000000000E+00  0.00000000000E+00  0.95812482571E+03  0.95812482571E+03  0.25500000000E-02 0.  1.
         -2   -1    0    0    0  501 -0.00000000000E+00 -0.00000000000E+00 -0.97751898509E+02  0.97751898542E+02  0.25500000000E-02 0. -1.
    5000001    1    1    2    0    0 -0.18683772602E+03 -0.14781994381E+03  0.26050957362E+03  0.38967846951E+03  0.16500000000E+03 0.  0.
   -5000001    1    1    2    0    0  0.18683772602E+03  0.14781994381E+03  0.59986335358E+03  0.66619825474E+03  0.16500000000E+03 0.  0.
<mgrwt>
<rscale>  0 0.61207359E+03</rscale>
<asrwt>0</asrwt>
<pdfrwt beam="1">  1        2 0.14740382E+00 0.61207359E+03</pdfrwt>
<pdfrwt beam="2">  1       -2 0.15038753E-01 0.61207359E+03</pdfrwt>
<totfact> 0.94235394E+02</totfact>
</mgrwt>
</event>
<event>
 4    1  0.8404100E-005  0.6343691E+03  0.7818608E-02  0.9836560E-01
          2   -1    0    0  501    0  0.00000000000E+00  0.00000000000E+00  0.69523843843E+03  0.69523843844E+03  0.25500000000E-02 0.  1.
         -2   -1    0    0    0  501 -0.00000000000E+00 -0.00000000000E+00 -0.14470724014E+03  0.14470724016E+03  0.25500000000E-02 0. -1.
    5000001    1    1    2    0    0 -0.11523874348E+03 -0.21022899016E+03  0.44224920307E+03  0.52942001654E+03  0.16500000000E+03 0.  0.
   -5000001    1    1    2    0    0  0.11523874348E+03  0.21022899016E+03  0.10828199523E+03  0.31052566205E+03  0.16500000000E+03 0.  0.
<mgrwt>
<rscale>  0 0.63436909E+03</rscale>
<asrwt>0</asrwt>
<pdfrwt beam="1">  1        2 0.10695976E+00 0.63436909E+03</pdfrwt>
<pdfrwt beam="2">  1       -2 0.22262652E-01 0.63436909E+03</pdfrwt>
<totfact> 0.73360872E+02</totfact>
</mgrwt>
</event>
<event>
 4    1  0.8404100E-005  0.5052646E+03  0.7818608E-02  0.1012414E+00
          2   -1    0    0  501    0  0.00000000000E+00  0.00000000000E+00  0.24388265176E+04  0.24388265176E+04  0.25500000000E-02 0.  1.
         -2   -1    0    0    0  501 -0.00000000000E+00 -0.00000000000E+00 -0.26169583990E+02  0.26169584114E+02  0.25500000000E-02 0. -1.
    5000001    1    1    2    0    0 -0.15891582884E+03  0.97765952042E+02  0.14124844638E+04  0.14342767454E+04  0.16500000000E+03 0.  0.
   -5000001    1    1    2    0    0  0.15891582884E+03 -0.97765952042E+02  0.10001724699E+04  0.10307193563E+04  0.16500000000E+03 0.  0.
<mgrwt>
<rscale>  0 0.50526459E+03</rscale>
<asrwt>0</asrwt>
<pdfrwt beam="1">  1        2 0.37520415E+00 0.50526459E+03</pdfrwt>
<pdfrwt beam="2">  1       -2 0.40260891E-02 0.50526459E+03</pdfrwt>
<totfact> 0.11499477E+03</totfact>
</mgrwt>
</event>
<event>
 4    1  0.8404100E-005  0.4812553E+03  0.7818608E-02  0.1018791E+00
         -2   -1    0    0    0  501 -0.00000000000E+00  0.00000000000E+00  0.88309413405E+02  0.88309413442E+02  0.25500000000E-02 0. -1.
          2   -1    0    0  501    0  0.00000000000E+00 -0.00000000000E+00 -0.65566821798E+03  0.65566821798E+03  0.25500000000E-02 0.  1.
    5000001    1    1    2    0    0  0.14319159802E+03 -0.98227487928E+02 -0.24828505535E+03  0.34499701714E+03  0.16500000000E+03 0.  0.
   -5000001    1    1    2    0    0 -0.14319159802E+03  0.98227487928E+02 -0.31907374922E+03  0.39898061428E+03  0.16500000000E+03 0.  0.
<mgrwt>
<rscale>  0 0.48125534E+03</rscale>
<asrwt>0</asrwt>
<pdfrwt beam="1">  1        2 0.10087203E+00 0.48125534E+03</pdfrwt>
<pdfrwt beam="2">  1       -2 0.13586064E-01 0.48125534E+03</pdfrwt>
<totfact> 0.18395328E+03</totfact>
</mgrwt>
</event>
<event>
 4    1  0.8404100E-005  0.3754566E+03  0.7818608E-02  0.1052626E+00
         -2   -1    0    0    0  501 -0.00000000000E+00  0.00000000000E+00  0.20487414008E+02  0.20487414167E+02  0.25500000000E-02 0. -1.
          2   -1    0    0  501    0  0.00000000000E+00 -0.00000000000E+00 -0.17201737076E+04  0.17201737076E+04  0.25500000000E-02 0.  1.
    5000001    1    1    2    0    0 -0.47162714072E+02 -0.41456214887E+02 -0.55393050971E+03  0.58138365039E+03  0.16500000000E+03 0.  0.
   -5000001    1    1    2    0    0  0.47162714072E+02  0.41456214887E+02 -0.11457557839E+04  0.11592774714E+04  0.16500000000E+03 0.  0.
<mgrwt>
<rscale>  0 0.37545658E+03</rscale>
<asrwt>0</asrwt>
<pdfrwt beam="1">  1        2 0.26464199E+00 0.37545658E+03</pdfrwt>
<pdfrwt beam="2">  1       -2 0.31519112E-02 0.37545658E+03</pdfrwt>
<totfact> 0.41007000E+03</totfact>
</mgrwt>
</event>
<event>
 4    1  0.8404100E-005  0.5151120E+03  0.7818608E-02  0.1009908E+00
         -2   -1    0    0    0  501 -0.00000000000E+00  0.00000000000E+00  0.54372112224E+02  0.54372112284E+02  0.25500000000E-02 0. -1.
          2   -1    0    0  501    0  0.00000000000E+00 -0.00000000000E+00 -0.12200207527E+04  0.12200207527E+04  0.25500000000E-02 0.  1.
    5000001    1    1    2    0    0 -0.10112537755E+03 -0.99349875964E+02 -0.24168551637E+03  0.32516707807E+03  0.16500000000E+03 0.  0.
   -5000001    1    1    2    0    0  0.10112537755E+03  0.99349875964E+02 -0.92396312411E+03  0.94922578692E+03  0.16500000000E+03 0.  0.
<mgrwt>
<rscale>  0 0.51511205E+03</rscale>
<asrwt>0</asrwt>
<pdfrwt beam="1">  1        2 0.18769548E+00 0.51511205E+03</pdfrwt>
<pdfrwt beam="2">  1       -2 0.83649413E-02 0.51511205E+03</pdfrwt>
<totfact> 0.17080809E+03</totfact>
</mgrwt>
</event>
<event>
 4    1  0.8404100E-005  0.4471161E+03  0.7818608E-02  0.1028586E+00
         -2   -1    0    0    0  501 -0.00000000000E+00  0.00000000000E+00  0.57434509350E+02  0.57434509407E+02  0.25500000000E-02 0. -1.
          2   -1    0    0  501    0  0.00000000000E+00 -0.00000000000E+00 -0.87017730922E+03  0.87017730923E+03  0.25500000000E-02 0.  1.
    5000001    1    1    2    0    0  0.13497995875E+03  0.62782516323E+02 -0.35589400088E+03  0.41957928152E+03  0.16500000000E+03 0.  0.
   -5000001    1    1    2    0    0 -0.13497995875E+03 -0.62782516323E+02 -0.45684879899E+03  0.50803253711E+03  0.16500000000E+03 0.  0.
<mgrwt>
<rscale>  0 0.44711612E+03</rscale>
<asrwt>0</asrwt>
<pdfrwt beam="1">  1        2 0.13387342E+00 0.44711612E+03</pdfrwt>
<pdfrwt beam="2">  1       -2 0.88360790E-02 0.44711612E+03</pdfrwt>
<totfact> 0.25781588E+03</totfact>
</mgrwt>
</event>
<event>
 4    1  0.8404100E-005  0.5454522E+03  0.7818608E-02  0.1002552E+00
         -2   -1    0    0    0  501 -0.00000000000E+00  0.00000000000E+00  0.16119039779E+03  0.16119039781E+03  0.25500000000E-02 0. -1.
          2   -1    0    0  501    0  0.00000000000E+00 -0.00000000000E+00 -0.46143893300E+03  0.46143893301E+03  0.25500000000E-02 0.  1.
    5000001    1    1    2    0    0 -0.21001608077E+03  0.25909446781E+02 -0.94477596410E+02  0.28448035053E+03  0.16500000000E+03 0.  0.
   -5000001    1    1    2    0    0  0.21001608077E+03 -0.25909446781E+02 -0.20577093880E+03  0.33814898029E+03  0.16500000000E+03 0.  0.
<mgrwt>
<rscale>  0 0.54545220E+03</rscale>
<asrwt>0</asrwt>
<pdfrwt beam="1">  1        2 0.70990604E-01 0.54545220E+03</pdfrwt>
<pdfrwt beam="2">  1       -2 0.24798523E-01 0.54545220E+03</pdfrwt>
<totfact> 0.98559779E+02</totfact>
</mgrwt>
</event>
<event>
 4    1  0.8404100E-005  0.4566172E+03  0.7818608E-02  0.1025767E+00
         -2   -1    0    0    0  501 -0.00000000000E+00  0.00000000000E+00  0.37737116325E+02  0.37737116411E+02  0.25500000000E-02 0. -1.
          2   -1    0    0  501    0  0.00000000000E+00 -0.00000000000E+00 -0.13812610628E+04  0.13812610628E+04  0.25500000000E-02 0.  1.
    5000001    1    1    2    0    0  0.15276256613E+03 -0.21460770427E+02 -0.77496358595E+03  0.80721157439E+03  0.16500000000E+03 0.  0.
   -5000001    1    1    2    0    0 -0.15276256613E+03  0.21460770427E+02 -0.56856036048E+03  0.61178660478E+03  0.16500000000E+03 0.  0.
<mgrwt>
<rscale>  0 0.45661717E+03</rscale>
<asrwt>0</asrwt>
<pdfrwt beam="1">  1        2 0.21250166E+00 0.45661717E+03</pdfrwt>
<pdfrwt beam="2">  1       -2 0.58057113E-02 0.45661717E+03</pdfrwt>
<totfact> 0.24602447E+03</totfact>
</mgrwt>
</event>
<event>
 4    1  0.8404100E-005  0.4358639E+03  0.7818608E-02  0.1032023E+00
          2   -1    0    0  501    0  0.00000000000E+00  0.00000000000E+00  0.55869953405E+03  0.55869953406E+03  0.25500000000E-02 0.  1.
         -2   -1    0    0    0  501 -0.00000000000E+00 -0.00000000000E+00 -0.85008714063E+02  0.85008714101E+02  0.25500000000E-02 0. -1.
    5000001    1    1    2    0    0 -0.24216567883E+02 -0.11474307691E+03  0.35606816824E+03  0.40958754411E+03  0.16500000000E+03 0.  0.
   -5000001    1    1    2    0    0  0.24216567883E+02  0.11474307691E+03  0.11762265175E+03  0.23412070405E+03  0.16500000000E+03 0.  0.
<mgrwt>
<rscale>  0 0.43586387E+03</rscale>
<asrwt>0</asrwt>
<pdfrwt beam="1">  1        2 0.85953776E-01 0.43586387E+03</pdfrwt>
<pdfrwt beam="2">  1       -2 0.13078263E-01 0.43586387E+03</pdfrwt>
<totfact> 0.23688334E+03</totfact>
</mgrwt>
</event>
<event>
 4    1  0.8404100E-005  0.1074045E+04  0.7818608E-02  0.9230865E-01
         -2   -1    0    0    0  501 -0.00000000000E+00  0.00000000000E+00  0.61346822079E+03  0.61346822080E+03  0.25500000000E-02 0. -1.
          2   -1    0    0  501    0  0.00000000000E+00 -0.00000000000E+00 -0.47010287161E+03  0.47010287162E+03  0.25500000000E-02 0.  1.
    5000001    1    1    2    0    0 -0.45481136973E+03  0.12727081106E+03 -0.12528451570E+03  0.51572517028E+03  0.16500000000E+03 0.  0.
   -5000001    1    1    2    0    0  0.45481136973E+03 -0.12727081106E+03  0.26864986488E+03  0.56784592213E+03  0.16500000000E+03 0.  0.
<mgrwt>
<rscale>  0 0.10740450E+04</rscale>
<asrwt>0</asrwt>
<pdfrwt beam="1">  1        2 0.72323519E-01 0.10740450E+04</pdfrwt>
<pdfrwt beam="2">  1       -2 0.94379726E-01 0.10740450E+04</pdfrwt>
<totfact> 0.62267296E+01</totfact>
</mgrwt>
</event>
<event>
 4    1  0.8404100E-005  0.5010816E+03  0.7818608E-02  0.1013497E+00
          2   -1    0    0  501    0  0.00000000000E+00  0.00000000000E+00  0.37039730561E+04  0.37039730561E+04  0.25500000000E-02 0. -1.
         -2   -1    0    0    0  501 -0.00000000000E+00 -0.00000000000E+00 -0.16946857625E+02  0.16946857817E+02  0.25500000000E-02 0.  1.
    5000001    1    1    2    0    0  0.76521177034E+02  0.21718005994E+02  0.31128330229E+04  0.31182176946E+04  0.16500000000E+03 0.  0.
   -5000001    1    1    2    0    0 -0.76521177034E+02 -0.21718005994E+02  0.57419317556E+03  0.60270221932E+03  0.16500000000E+03 0.  0.
<mgrwt>
<rscale>  0 0.50108165E+03</rscale>
<asrwt>0</asrwt>
<pdfrwt beam="1">  1        2 0.56984267E+00 0.50108165E+03</pdfrwt>
<pdfrwt beam="2">  1       -2 0.26072059E-02 0.50108165E+03</pdfrwt>
<totfact> 0.36561774E+02</totfact>
</mgrwt>
</event>
<event>
 4    1  0.8404100E-005  0.4549172E+03  0.7818608E-02  0.1026266E+00
          2   -1    0    0  501    0  0.00000000000E+00  0.00000000000E+00  0.33005448537E+03  0.33005448538E+03  0.25500000000E-02 0.  1.
         -2   -1    0    0    0  501 -0.00000000000E+00 -0.00000000000E+00 -0.15675413958E+03  0.15675413960E+03  0.25500000000E-02 0. -1.
    5000001    1    1    2    0    0 -0.15286998580E+03  0.27709211256E+02  0.65917371202E+02  0.23602358520E+03  0.16500000000E+03 0.  0.
   -5000001    1    1    2    0    0  0.15286998580E+03 -0.27709211256E+02  0.10738297459E+03  0.25078503978E+03  0.16500000000E+03 0.  0.
<mgrwt>
<rscale>  0 0.45491717E+03</rscale>
<asrwt>0</asrwt>
<pdfrwt beam="1">  1        2 0.50777613E-01 0.45491717E+03</pdfrwt>
<pdfrwt beam="2">  1       -2 0.24116021E-01 0.45491717E+03</pdfrwt>
<totfact> 0.15033578E+03</totfact>
</mgrwt>
</event>
<event>
 4    1  0.8404100E-005  0.5243996E+03  0.7818608E-02  0.1007599E+00
          2   -1    0    0  501    0  0.00000000000E+00  0.00000000000E+00  0.89003822808E+03  0.89003822808E+03  0.25500000000E-02 0.  1.
         -2   -1    0    0    0  501 -0.00000000000E+00 -0.00000000000E+00 -0.77242443113E+02  0.77242443155E+02  0.25500000000E-02 0. -1.
    5000001    1    1    2    0    0  0.31128779468E+02 -0.17850932760E+03  0.23445717415E+03  0.33916035656E+03  0.16500000000E+03 0.  0.
   -5000001    1    1    2    0    0 -0.31128779468E+02  0.17850932760E+03  0.57833861081E+03  0.62812031468E+03  0.16500000000E+03 0.  0.
<mgrwt>
<rscale>  0 0.52439957E+03</rscale>
<asrwt>0</asrwt>
<pdfrwt beam="1">  1        2 0.13692896E+00 0.52439957E+03</pdfrwt>
<pdfrwt beam="2">  1       -2 0.11883452E-01 0.52439957E+03</pdfrwt>
<totfact> 0.15480418E+03</totfact>
</mgrwt>
</event>
<event>
 4    1  0.8404100E-005  0.8353206E+03  0.7818608E-02  0.9510254E-01
          2   -1    0    0  501    0  0.00000000000E+00  0.00000000000E+00  0.91350799525E+03  0.91350799525E+03  0.25500000000E-02 0.  1.
         -2   -1    0    0    0  501 -0.00000000000E+00 -0.00000000000E+00 -0.19095632259E+03  0.19095632260E+03  0.25500000000E-02 0. -1.
    5000001    1    1    2    0    0 -0.21992925505E+03  0.30251245319E+03  0.24805573961E+03  0.47816243215E+03  0.16500000000E+03 0.  0.
   -5000001    1    1    2    0    0  0.21992925505E+03 -0.30251245319E+03  0.47449593305E+03  0.62630188571E+03  0.16500000000E+03 0.  0.
<mgrwt>
<rscale>  0 0.83532060E+03</rscale>
<asrwt>0</asrwt>
<pdfrwt beam="1">  1        2 0.14053969E+00 0.83532060E+03</pdfrwt>
<pdfrwt beam="2">  1       -2 0.29377896E-01 0.83532060E+03</pdfrwt>
<totfact> 0.30715357E+02</totfact>
</mgrwt>
</event>
<event>
 4    1  0.8404100E-005  0.4759850E+03  0.7818608E-02  0.1020244E+00
         -2   -1    0    0    0  501 -0.00000000000E+00  0.00000000000E+00  0.62733772450E+02  0.62733772502E+02  0.25500000000E-02 0. -1.
          2   -1    0    0  501    0  0.00000000000E+00 -0.00000000000E+00 -0.90286972355E+03  0.90286972355E+03  0.25500000000E-02 0.  1.
    5000001    1    1    2    0    0 -0.11869104621E+03 -0.12275024796E+03 -0.38734225126E+03  0.45432830359E+03  0.16500000000E+03 0.  0.
   -5000001    1    1    2    0    0  0.11869104621E+03  0.12275024796E+03 -0.45279369983E+03  0.51127519247E+03  0.16500000000E+03 0.  0.
<mgrwt>
<rscale>  0 0.47598497E+03</rscale>
<asrwt>0</asrwt>
<pdfrwt beam="1">  1        2 0.13890303E+00 0.47598497E+03</pdfrwt>
<pdfrwt beam="2">  1       -2 0.96513503E-02 0.47598497E+03</pdfrwt>
<totfact> 0.21289867E+03</totfact>
</mgrwt>
</event>
<event>
 4    1  0.8404100E-005  0.7389570E+03  0.7818608E-02  0.9652836E-01
          2   -1    0    0  501    0  0.00000000000E+00  0.00000000000E+00  0.16521915822E+04  0.16521915822E+04  0.25500000000E-02 0. -1.
         -2   -1    0    0    0  501 -0.00000000000E+00 -0.00000000000E+00 -0.82626229152E+02  0.82626229191E+02  0.25500000000E-02 0.  1.
    5000001    1    1    2    0    0  0.11175898543E+03 -0.28036487606E+03  0.46811141072E+03  0.58090259717E+03  0.16500000000E+03 0.  0.
   -5000001    1    1    2    0    0 -0.11175898543E+03  0.28036487606E+03  0.11014539423E+04  0.11539152142E+04  0.16500000000E+03 0.  0.
<mgrwt>
<rscale>  0 0.73895700E+03</rscale>
<asrwt>0</asrwt>
<pdfrwt beam="1">  1        2 0.25418332E+00 0.73895700E+03</pdfrwt>
<pdfrwt beam="2">  1       -2 0.12711728E-01 0.73895700E+03</pdfrwt>
<totfact> 0.49007684E+02</totfact>
</mgrwt>
</event>
<event>
 4    1  0.8404100E-005  0.3429838E+03  0.7818608E-02  0.1065532E+00
          2   -1    0    0  501    0  0.00000000000E+00  0.00000000000E+00  0.66234226687E+03  0.66234226688E+03  0.25500000000E-02 0. -1.
         -2   -1    0    0    0  501 -0.00000000000E+00 -0.00000000000E+00 -0.44402232949E+02  0.44402233022E+02  0.25500000000E-02 0.  1.
    5000001    1    1    2    0    0  0.29957868859E+02  0.23369619451E+02  0.36505642748E+03  0.40241124272E+03  0.16500000000E+03 0.  0.
   -5000001    1    1    2    0    0 -0.29957868859E+02 -0.23369619451E+02  0.25288360644E+03  0.30433325718E+03  0.16500000000E+03 0.  0.
<mgrwt>
<rscale>  0 0.34298382E+03</rscale>
<asrwt>0</asrwt>
<pdfrwt beam="1">  1        2 0.10189880E+00 0.34298382E+03</pdfrwt>
<pdfrwt beam="2">  1       -2 0.68311134E-02 0.34298382E+03</pdfrwt>
<totfact> 0.54503377E+03</totfact>
</mgrwt>
</event>
<event>
 4    1  0.8404100E-005  0.3795967E+03  0.7818608E-02  0.1051083E+00
          2   -1    0    0  501    0  0.00000000000E+00  0.00000000000E+00  0.15726022826E+03  0.15726022828E+03  0.25500000000E-02 0.  1.
         -2   -1    0    0    0  501 -0.00000000000E+00 -0.00000000000E+00 -0.22906877235E+03  0.22906877236E+03  0.25500000000E-02 0. -1.
    5000001    1    1    2    0    0 -0.62469587898E+02  0.58382064077E+02 -0.75156320758E+02  0.20046043841E+03  0.16500000000E+03 0.  0.
   -5000001    1    1    2    0    0  0.62469587898E+02 -0.58382064077E+02  0.33477766748E+01  0.18586856223E+03  0.16500000000E+03 0.  0.
<mgrwt>
<rscale>  0 0.37959667E+03</rscale>
<asrwt>0</asrwt>
<pdfrwt beam="1">  1        2 0.24193881E-01 0.37959667E+03</pdfrwt>
<pdfrwt beam="2">  1       -2 0.35241349E-01 0.37959667E+03</pdfrwt>
<totfact> 0.17036975E+03</totfact>
</mgrwt>
</event>
<event>
 4    1  0.8404100E-005  0.4069064E+03  0.7818608E-02  0.1041414E+00
          2   -1    0    0  501    0  0.00000000000E+00  0.00000000000E+00  0.10876406024E+04  0.10876406025E+04  0.25500000000E-02 0.  1.
         -2   -1    0    0    0  501 -0.00000000000E+00 -0.00000000000E+00 -0.38057794826E+02  0.38057794911E+02  0.25500000000E-02 0. -1.
    5000001    1    1    2    0    0 -0.37418203240E+02 -0.50252608353E+02  0.24480563528E+03  0.30179503913E+03  0.16500000000E+03 0.  0.
   -5000001    1    1    2    0    0  0.37418203240E+02  0.50252608353E+02  0.80477717234E+03  0.82390335823E+03  0.16500000000E+03 0.  0.
<mgrwt>
<rscale>  0 0.40690639E+03</rscale>
<asrwt>0</asrwt>
<pdfrwt beam="1">  1        2 0.16732930E+00 0.40690639E+03</pdfrwt>
<pdfrwt beam="2">  1       -2 0.58550461E-02 0.40690639E+03</pdfrwt>
<totfact> 0.35838819E+03</totfact>
</mgrwt>
</event>
<event>
 4    1  0.8404100E-005  0.3960657E+03  0.7818608E-02  0.1045151E+00
         -2   -1    0    0    0  501 -0.00000000000E+00  0.00000000000E+00  0.21643567081E+02  0.21643567231E+02  0.25500000000E-02 0. -1.
          2   -1    0    0  501    0  0.00000000000E+00 -0.00000000000E+00 -0.18119476536E+04  0.18119476536E+04  0.25500000000E-02 0.  1.
    5000001    1    1    2    0    0  0.40306593310E+02  0.10043880540E+03 -0.81776358874E+03  0.84123413041E+03  0.16500000000E+03 0.  0.
   -5000001    1    1    2    0    0 -0.40306593310E+02 -0.10043880540E+03 -0.97254049777E+03  0.99235709042E+03  0.16500000000E+03 0.  0.
<mgrwt>
<rscale>  0 0.39606571E+03</rscale>
<asrwt>0</asrwt>
<pdfrwt beam="1">  1        2 0.27876106E+00 0.39606571E+03</pdfrwt>
<pdfrwt beam="2">  1       -2 0.33297810E-02 0.39606571E+03</pdfrwt>
<totfact> 0.33717321E+03</totfact>
</mgrwt>
</event>
<event>
 4    1  0.8404100E-005  0.5549983E+03  0.7818608E-02  0.1000344E+00
          2   -1    0    0  501    0  0.00000000000E+00  0.00000000000E+00  0.22506746585E+03  0.22506746586E+03  0.25500000000E-02 0.  1.
         -2   -1    0    0    0  501 -0.00000000000E+00 -0.00000000000E+00 -0.34214537207E+03  0.34214537208E+03  0.25500000000E-02 0. -1.
    5000001    1    1    2    0    0 -0.16015996623E+03 -0.64537250482E+02  0.85866569021E+02  0.25379980133E+03  0.16500000000E+03 0.  0.
   -5000001    1    1    2    0    0  0.16015996623E+03  0.64537250482E+02 -0.20294447524E+03  0.31341303660E+03  0.16500000000E+03 0.  0.
<mgrwt>
<rscale>  0 0.55499835E+03</rscale>
<asrwt>0</asrwt>
<pdfrwt beam="1">  1        2 0.34625764E-01 0.55499835E+03</pdfrwt>
<pdfrwt beam="2">  1       -2 0.52637749E-01 0.55499835E+03</pdfrwt>
<totfact> 0.51971039E+02</totfact>
</mgrwt>
</event>
<event>
 4    1  0.8404100E-005  0.3925659E+03  0.7818608E-02  0.1046385E+00
         -2   -1    0    0    0  501 -0.00000000000E+00  0.00000000000E+00  0.18946306026E+02  0.18946306198E+02  0.25500000000E-02 0. -1.
          2   -1    0    0  501    0  0.00000000000E+00 -0.00000000000E+00 -0.20334837818E+04  0.20334837818E+04  0.25500000000E-02 0.  1.
    5000001    1    1    2    0    0 -0.89842233723E+01 -0.10585692035E+03 -0.98661727676E+03  0.10059448567E+04  0.16500000000E+03 0.  0.
   -5000001    1    1    2    0    0  0.89842233723E+01  0.10585692035E+03 -0.10279201991E+04  0.10464852314E+04  0.16500000000E+03 0.  0.
<mgrwt>
<rscale>  0 0.39256595E+03</rscale>
<asrwt>0</asrwt>
<pdfrwt beam="1">  1        2 0.31284349E+00 0.39256595E+03</pdfrwt>
<pdfrwt beam="2">  1       -2 0.29148179E-02 0.39256595E+03</pdfrwt>
<totfact> 0.31400051E+03</totfact>
</mgrwt>
</event>
<event>
 4    1  0.8404100E-005  0.4135979E+03  0.7818608E-02  0.1039170E+00
          2   -1    0    0  501    0  0.00000000000E+00  0.00000000000E+00  0.13344633440E+04  0.13344633440E+04  0.25500000000E-02 0.  1.
         -2   -1    0    0    0  501 -0.00000000000E+00 -0.00000000000E+00 -0.32047191456E+02  0.32047191557E+02  0.25500000000E-02 0. -1.
    5000001    1    1    2    0    0 -0.12033927888E+03 -0.20691069465E+02  0.56820436486E+03  0.60414473650E+03  0.16500000000E+03 0.  0.
   -5000001    1    1    2    0    0  0.12033927888E+03  0.20691069465E+02  0.73421178770E+03  0.76236579907E+03  0.16500000000E+03 0.  0.
<mgrwt>
<rscale>  0 0.41359788E+03</rscale>
<asrwt>0</asrwt>
<pdfrwt beam="1">  1        2 0.20530203E+00 0.41359788E+03</pdfrwt>
<pdfrwt beam="2">  1       -2 0.49303378E-02 0.41359788E+03</pdfrwt>
<totfact> 0.33648230E+03</totfact>
</mgrwt>
</event>
<event>
 4    1  0.8404100E-005  0.5106042E+03  0.7818608E-02  0.1011048E+00
          2   -1    0    0  501    0  0.00000000000E+00  0.00000000000E+00  0.17379955895E+04  0.17379955895E+04  0.25500000000E-02 0.  1.
         -2   -1    0    0    0  501 -0.00000000000E+00 -0.00000000000E+00 -0.37502496903E+02  0.37502496989E+02  0.25500000000E-02 0. -1.
    5000001    1    1    2    0    0 -0.30258443919E+02 -0.11662646840E+03  0.31791087324E+03  0.37790161403E+03  0.16500000000E+03 0.  0.
   -5000001    1    1    2    0    0  0.30258443919E+02  0.11662646840E+03  0.13825822193E+04  0.13975964724E+04  0.16500000000E+03 0.  0.
<mgrwt>
<rscale>  0 0.51060425E+03</rscale>
<asrwt>0</asrwt>
<pdfrwt beam="1">  1        2 0.26738397E+00 0.51060425E+03</pdfrwt>
<pdfrwt beam="2">  1       -2 0.57696143E-02 0.51060425E+03</pdfrwt>
<totfact> 0.15841294E+03</totfact>
</mgrwt>
</event>
<event>
 4    1  0.8404100E-005  0.6171099E+03  0.7818608E-02  0.9870531E-01
          2   -1    0    0  501    0  0.00000000000E+00  0.00000000000E+00  0.39557953730E+03  0.39557953731E+03  0.25500000000E-02 0.  1.
         -2   -1    0    0    0  501 -0.00000000000E+00 -0.00000000000E+00 -0.24067514217E+03  0.24067514219E+03  0.25500000000E-02 0. -1.
    5000001    1    1    2    0    0 -0.23848274028E+03  0.49171540277E+02 -0.18656114985E+02  0.29472853342E+03  0.16500000000E+03 0.  0.
   -5000001    1    1    2    0    0  0.23848274028E+03 -0.49171540277E+02  0.17356051012E+03  0.34152614608E+03  0.16500000000E+03 0.  0.
<mgrwt>
<rscale>  0 0.61710991E+03</rscale>
<asrwt>0</asrwt>
<pdfrwt beam="1">  1        2 0.60858390E-01 0.61710991E+03</pdfrwt>
<pdfrwt beam="2">  1       -2 0.37026945E-01 0.61710991E+03</pdfrwt>
<totfact> 0.55755326E+02</totfact>
</mgrwt>
</event>
<event>
 4    1  0.8404100E-005  0.1060356E+04  0.7818608E-02  0.9244717E-01
         -2   -1    0    0    0  501 -0.00000000000E+00  0.00000000000E+00  0.31412059267E+03  0.31412059268E+03  0.25500000000E-02 0. -1.
          2   -1    0    0  501    0  0.00000000000E+00 -0.00000000000E+00 -0.89484361791E+03  0.89484361791E+03  0.25500000000E-02 0.  1.
    5000001    1    1    2    0    0  0.48635912967E+03 -0.47380324459E+02 -0.43034336690E+03  0.67172204936E+03  0.16500000000E+03 0.  0.
   -5000001    1    1    2    0    0 -0.48635912967E+03  0.47380324459E+02 -0.15037965835E+03  0.53724216123E+03  0.16500000000E+03 0.  0.
<mgrwt>
<rscale>  0 0.10603562E+04</rscale>
<asrwt>0</asrwt>
<pdfrwt beam="1">  1        2 0.13766825E+00 0.10603562E+04</pdfrwt>
<pdfrwt beam="2">  1       -2 0.48326245E-01 0.10603562E+04</pdfrwt>
<totfact> 0.11928221E+02</totfact>
</mgrwt>
</event>
<event>
 4    1  0.8404100E-005  0.6924201E+03  0.7818608E-02  0.9730283E-01
         -2   -1    0    0    0  501 -0.00000000000E+00  0.00000000000E+00  0.10503263559E+03  0.10503263562E+03  0.25500000000E-02 0. -1.
          2   -1    0    0  501    0  0.00000000000E+00 -0.00000000000E+00 -0.11411823172E+04  0.11411823172E+04  0.25500000000E-02 0.  1.
    5000001    1    1    2    0    0  0.25396855705E+03 -0.11421219014E+03 -0.29697126602E+03  0.43927370191E+03  0.16500000000E+03 0.  0.
   -5000001    1    1    2    0    0 -0.25396855705E+03  0.11421219014E+03 -0.73917841558E+03  0.80694125090E+03  0.16500000000E+03 0.  0.
<mgrwt>
<rscale>  0 0.69242006E+03</rscale>
<asrwt>0</asrwt>
<pdfrwt beam="1">  1        2 0.17556650E+00 0.69242006E+03</pdfrwt>
<pdfrwt beam="2">  1       -2 0.16158868E-01 0.69242006E+03</pdfrwt>
<totfact> 0.64012269E+02</totfact>
</mgrwt>
</event>
<event>
 4    1  0.8404100E-005  0.7230083E+03  0.7818608E-02  0.9678674E-01
          2   -1    0    0  501    0  0.00000000000E+00  0.00000000000E+00  0.30263374959E+03  0.30263374960E+03  0.25500000000E-02 0.  1.
         -2   -1    0    0    0  501 -0.00000000000E+00 -0.00000000000E+00 -0.43182639980E+03  0.43182639981E+03  0.25500000000E-02 0. -1.
    5000001    1    1    2    0    0 -0.20842132521E+03  0.22218992519E+03 -0.16944171271E+03  0.38567253683E+03  0.16500000000E+03 0.  0.
   -5000001    1    1    2    0    0  0.20842132521E+03 -0.22218992519E+03  0.40249062494E+02  0.34878761258E+03  0.16500000000E+03 0.  0.
<mgrwt>
<rscale>  0 0.72300828E+03</rscale>
<asrwt>0</asrwt>
<pdfrwt beam="1">  1        2 0.46559038E-01 0.72300828E+03</pdfrwt>
<pdfrwt beam="2">  1       -2 0.66434831E-01 0.72300828E+03</pdfrwt>
<totfact> 0.22859971E+02</totfact>
</mgrwt>
</event>
<event>
 4    1  0.8404100E-005  0.1384045E+04  0.7818608E-02  0.8965449E-01
         -2   -1    0    0    0  501 -0.00000000000E+00  0.00000000000E+00  0.17931241804E+03  0.17931241806E+03  0.25500000000E-02 0. -1.
          2   -1    0    0  501    0  0.00000000000E+00 -0.00000000000E+00 -0.26707294153E+04  0.26707294153E+04  0.25500000000E-02 0.  1.
    5000001    1    1    2    0    0  0.43662086670E+03  0.32846559021E+03 -0.43986814555E+03  0.72058060664E+03  0.16500000000E+03 0.  0.
   -5000001    1    1    2    0    0 -0.43662086670E+03 -0.32846559021E+03 -0.20515488517E+04  0.21294612267E+04  0.16500000000E+03 0.  0.
<mgrwt>
<rscale>  0 0.13840447E+04</rscale>
<asrwt>0</asrwt>
<pdfrwt beam="1">  1        2 0.41088142E+00 0.13840447E+04</pdfrwt>
<pdfrwt beam="2">  1       -2 0.27586528E-01 0.13840447E+04</pdfrwt>
<totfact> 0.32449212E+01</totfact>
</mgrwt>
</event>
<event>
 4    1  0.8404100E-005  0.6277780E+03  0.7818608E-02  0.9849395E-01
         -2   -1    0    0    0  501 -0.00000000000E+00  0.00000000000E+00  0.50546773820E+02  0.50546773884E+02  0.25500000000E-02 0. -1.
          2   -1    0    0  501    0  0.00000000000E+00 -0.00000000000E+00 -0.19492103966E+04  0.19492103966E+04  0.25500000000E-02 0.  1.
    5000001    1    1    2    0    0 -0.25405533165E+03  0.67166577118E+01 -0.12103071635E+04  0.12476608734E+04  0.16500000000E+03 0.  0.
   -5000001    1    1    2    0    0  0.25405533165E+03 -0.67166577118E+01 -0.68835645928E+03  0.75209629707E+03  0.16500000000E+03 0.  0.
<mgrwt>
<rscale>  0 0.62777798E+03</rscale>
<asrwt>0</asrwt>
<pdfrwt beam="1">  1        2 0.29987847E+00 0.62777798E+03</pdfrwt>
<pdfrwt beam="2">  1       -2 0.77764282E-02 0.62777798E+03</pdfrwt>
<totfact> 0.75626375E+02</totfact>
</mgrwt>
</event>
<event>
 4    1  0.8404100E-005  0.6375046E+03  0.7818608E-02  0.9830513E-01
          2   -1    0    0  501    0  0.00000000000E+00  0.00000000000E+00  0.74809388800E+03  0.74809388800E+03  0.25500000000E-02 0.  1.
         -2   -1    0    0    0  501 -0.00000000000E+00 -0.00000000000E+00 -0.13581587484E+03  0.13581587487E+03  0.25500000000E-02 0. -1.
    5000001    1    1    2    0    0  0.12733963628E+03  0.22035575809E+03  0.17024649793E+03  0.34782310612E+03  0.16500000000E+03 0.  0.
   -5000001    1    1    2    0    0 -0.12733963628E+03 -0.22035575809E+03  0.44203151523E+03  0.53608665675E+03  0.16500000000E+03 0.  0.
<mgrwt>
<rscale>  0 0.63750459E+03</rscale>
<asrwt>0</asrwt>
<pdfrwt beam="1">  1        2 0.11509137E+00 0.63750459E+03</pdfrwt>
<pdfrwt beam="2">  1       -2 0.20894750E-01 0.63750459E+03</pdfrwt>
<totfact> 0.74748723E+02</totfact>
</mgrwt>
</event>
<event>
 4    1  0.8404100E-005  0.3827711E+03  0.7818608E-02  0.1049914E+00
          2   -1    0    0  501    0  0.00000000000E+00  0.00000000000E+00  0.28172353068E+04  0.28172353068E+04  0.25500000000E-02 0.  1.
         -2   -1    0    0    0  501 -0.00000000000E+00 -0.00000000000E+00 -0.13001552235E+02  0.13001552485E+02  0.25500000000E-02 0. -1.
    5000001    1    1    2    0    0  0.51581107574E+02 -0.72829358429E+02  0.11216576805E+04  0.11372359818E+04  0.16500000000E+03 0.  0.
   -5000001    1    1    2    0    0 -0.51581107574E+02  0.72829358429E+02  0.16825760741E+04  0.16930008775E+04  0.16500000000E+03 0.  0.
<mgrwt>
<rscale>  0 0.38277112E+03</rscale>
<asrwt>0</asrwt>
<pdfrwt beam="1">  1        2 0.43342092E+00 0.38277112E+03</pdfrwt>
<pdfrwt beam="2">  1       -2 0.20002383E-02 0.38277112E+03</pdfrwt>
<totfact> 0.20349496E+03</totfact>
</mgrwt>
</event>
<event>
 4    1  0.8404100E-005  0.6615625E+03  0.7818608E-02  0.9785322E-01
         -2   -1    0    0    0  501 -0.00000000000E+00  0.00000000000E+00  0.24148018193E+02  0.24148018328E+02  0.25500000000E-02 0. -1.
          2   -1    0    0  501    0  0.00000000000E+00 -0.00000000000E+00 -0.45310652746E+04  0.45310652746E+04  0.25500000000E-02 0.  1.
    5000001    1    1    2    0    0 -0.55078078415E+02 -0.27875635409E+03 -0.25158822711E+04  0.25372479780E+04  0.16500000000E+03 0.  0.
   -5000001    1    1    2    0    0  0.55078078415E+02  0.27875635409E+03 -0.19910349852E+04  0.20179653149E+04  0.16500000000E+03 0.  0.
<mgrwt>
<rscale>  0 0.66156254E+03</rscale>
<asrwt>0</asrwt>
<pdfrwt beam="1">  1        2 0.69708629E+00 0.66156254E+03</pdfrwt>
<pdfrwt beam="2">  1       -2 0.37150833E-02 0.66156254E+03</pdfrwt>
<totfact> 0.43264337E+01</totfact>
</mgrwt>
</event>
