<event>
 4    1  0.3064919E-004  0.2669622E+03  0.7818608E-02  0.1103031E+00
         -1   -1    0    0    0  501 -0.00000000000E+00  0.00000000000E+00  0.57627542751E+02  0.57627542972E+02  0.50400000000E-02 0. -1.
          1   -1    0    0  501    0  0.00000000000E+00 -0.00000000000E+00 -0.30917869390E+03  0.30917869394E+03  0.50400000000E-02 0.  1.
    5000001    1    1    2    0    0  0.26994100815E+01 -0.67921366371E+02 -0.24290949649E+03  0.26373210330E+03  0.77000000000E+02 0.  0.
   -5000001    1    1    2    0    0 -0.26994100815E+01  0.67921366371E+02 -0.86416546537E+01  0.10307413361E+03  0.77000000000E+02 0.  0.
<mgrwt>
<rscale>  0 0.26696223E+03</rscale>
<asrwt>0</asrwt>
<pdfrwt beam="1">  1        1 0.47565952E-01 0.26696223E+03</pdfrwt>
<pdfrwt beam="2">  1       -1 0.88657760E-02 0.26696223E+03</pdfrwt>
<totfact> 0.61447767E+03</totfact>
</mgrwt>
</event>
<event>
 4    1  0.3064919E-004  0.2757297E+03  0.7818608E-02  0.1098044E+00
         -1   -1    0    0    0  501 -0.00000000000E+00  0.00000000000E+00  0.20525984051E+03  0.20525984057E+03  0.50400000000E-02 0. -1.
          1   -1    0    0  501    0  0.00000000000E+00 -0.00000000000E+00 -0.92598322737E+02  0.92598322874E+02  0.50400000000E-02 0.  1.
    5000001    1    1    2    0    0  0.92767093086E+02 -0.66314034242E+02  0.65650560005E+02  0.15245419222E+03  0.77000000000E+02 0.  0.
   -5000001    1    1    2    0    0 -0.92767093086E+02  0.66314034242E+02  0.47010957766E+02  0.14540397122E+03  0.77000000000E+02 0.  0.
<mgrwt>
<rscale>  0 0.27572970E+03</rscale>
<asrwt>0</asrwt>
<pdfrwt beam="1">  1        1 0.14245896E-01 0.27572970E+03</pdfrwt>
<pdfrwt beam="2">  1       -1 0.31578437E-01 0.27572970E+03</pdfrwt>
<totfact> 0.37132629E+03</totfact>
</mgrwt>
</event>
<event>
 4    1  0.3064919E-004  0.1972389E+03  0.7818608E-02  0.1152090E+00
          1   -1    0    0  501    0  0.00000000000E+00  0.00000000000E+00  0.69039811860E+03  0.69039811862E+03  0.50400000000E-02 0. -1.
         -1   -1    0    0    0  501 -0.00000000000E+00 -0.00000000000E+00 -0.14087226499E+02  0.14087227401E+02  0.50400000000E-02 0.  1.
    5000001    1    1    2    0    0  0.13398711110E+02 -0.46800205484E+02  0.47308061387E+03  0.48177178406E+03  0.77000000000E+02 0.  0.
   -5000001    1    1    2    0    0 -0.13398711110E+02  0.46800205484E+02  0.20323027823E+03  0.22271356196E+03  0.77000000000E+02 0.  0.
<mgrwt>
<rscale>  0 0.19723889E+03</rscale>
<asrwt>0</asrwt>
<pdfrwt beam="1">  1        1 0.10621512E+00 0.19723889E+03</pdfrwt>
<pdfrwt beam="2">  1       -1 0.21672652E-02 0.19723889E+03</pdfrwt>
<totfact> 0.17107434E+04</totfact>
</mgrwt>
</event>
<event>
 4    1  0.3064919E-004  0.2151369E+03  0.7818608E-02  0.1137561E+00
          1   -1    0    0  501    0  0.00000000000E+00  0.00000000000E+00  0.54727772424E+03  0.54727772426E+03  0.50400000000E-02 0.  1.
         -1   -1    0    0    0  501 -0.00000000000E+00 -0.00000000000E+00 -0.21142780918E+02  0.21142781519E+02  0.50400000000E-02 0. -1.
    5000001    1    1    2    0    0 -0.37327552678E+02 -0.64134334027E+02  0.29381335115E+03  0.31266890524E+03  0.77000000000E+02 0.  0.
   -5000001    1    1    2    0    0  0.37327552678E+02  0.64134334027E+02  0.23232159217E+03  0.25575160054E+03  0.77000000000E+02 0.  0.
<mgrwt>
<rscale>  0 0.21513692E+03</rscale>
<asrwt>0</asrwt>
<pdfrwt beam="1">  1        1 0.84196586E-01 0.21513692E+03</pdfrwt>
<pdfrwt beam="2">  1       -1 0.32527351E-02 0.21513692E+03</pdfrwt>
<totfact> 0.13109297E+04</totfact>
</mgrwt>
</event>
<event>
 4    1  0.3064919E-004  0.1745105E+03  0.7818608E-02  0.1173224E+00
         -1   -1    0    0    0  501 -0.00000000000E+00  0.00000000000E+00  0.24907982218E+03  0.24907982223E+03  0.50400000000E-02 0. -1.
          1   -1    0    0  501    0  0.00000000000E+00 -0.00000000000E+00 -0.30566409372E+02  0.30566409787E+02  0.50400000000E-02 0.  1.
    5000001    1    1    2    0    0 -0.10221143180E+02 -0.37258681858E+02  0.87064226862E+02  0.12248208335E+03  0.77000000000E+02 0.  0.
   -5000001    1    1    2    0    0  0.10221143180E+02  0.37258681858E+02  0.13144918594E+03  0.15716414867E+03  0.77000000000E+02 0.  0.
<mgrwt>
<rscale>  0 0.17451047E+03</rscale>
<asrwt>0</asrwt>
<pdfrwt beam="1">  1        1 0.47025244E-02 0.17451047E+03</pdfrwt>
<pdfrwt beam="2">  1       -1 0.38319974E-01 0.17451047E+03</pdfrwt>
<totfact> 0.11588143E+04</totfact>
</mgrwt>
</event>
<event>
 4    1  0.3064919E-004  0.1685846E+03  0.7818608E-02  0.1179332E+00
         -1   -1    0    0    0  501 -0.00000000000E+00  0.00000000000E+00  0.40629460005E+03  0.40629460009E+03  0.50400000000E-02 0. -1.
          1   -1    0    0  501    0  0.00000000000E+00 -0.00000000000E+00 -0.17487788476E+02  0.17487789202E+02  0.50400000000E-02 0.  1.
    5000001    1    1    2    0    0  0.33660458315E+02  0.58932673488E+00  0.21085281943E+03  0.22698300646E+03  0.77000000000E+02 0.  0.
   -5000001    1    1    2    0    0 -0.33660458315E+02 -0.58932673488E+00  0.17795399214E+03  0.19679938282E+03  0.77000000000E+02 0.  0.
<mgrwt>
<rscale>  0 0.16858463E+03</rscale>
<asrwt>0</asrwt>
<pdfrwt beam="1">  1        1 0.26904292E-02 0.16858463E+03</pdfrwt>
<pdfrwt beam="2">  1       -1 0.62506859E-01 0.16858463E+03</pdfrwt>
<totfact> 0.10237918E+04</totfact>
</mgrwt>
</event>
<event>
 4    1  0.3064919E-004  0.2370501E+03  0.7818608E-02  0.1121774E+00
          1   -1    0    0  501    0  0.00000000000E+00  0.00000000000E+00  0.23787189086E+03  0.23787189092E+03  0.50400000000E-02 0.  1.
         -1   -1    0    0    0  501 -0.00000000000E+00 -0.00000000000E+00 -0.59057790812E+02  0.59057791027E+02  0.50400000000E-02 0. -1.
    5000001    1    1    2    0    0 -0.28604585487E+02 -0.64862082042E+02  0.19733981742E+02  0.10650700462E+03  0.77000000000E+02 0.  0.
   -5000001    1    1    2    0    0  0.28604585487E+02  0.64862082042E+02  0.15908011831E+03  0.19042267732E+03  0.77000000000E+02 0.  0.
<mgrwt>
<rscale>  0 0.23705011E+03</rscale>
<asrwt>0</asrwt>
<pdfrwt beam="1">  1        1 0.36595676E-01 0.23705011E+03</pdfrwt>
<pdfrwt beam="2">  1       -1 0.90858140E-02 0.23705011E+03</pdfrwt>
<totfact> 0.81808788E+03</totfact>
</mgrwt>
</event>
<event>
 4    1  0.3064919E-004  0.7523336E+03  0.7818608E-02  0.9631696E-01
         -1   -1    0    0    0  501 -0.00000000000E+00  0.00000000000E+00  0.56946725961E+03  0.56946725964E+03  0.50400000000E-02 0. -1.
          1   -1    0    0  501    0  0.00000000000E+00 -0.00000000000E+00 -0.24848040706E+03  0.24848040711E+03  0.50400000000E-02 0.  1.
    5000001    1    1    2    0    0 -0.18511465038E+03  0.27792908396E+03 -0.81490276367E+01  0.34279354741E+03  0.77000000000E+02 0.  0.
   -5000001    1    1    2    0    0  0.18511465038E+03 -0.27792908396E+03  0.32913588019E+03  0.47515411934E+03  0.77000000000E+02 0.  0.
<mgrwt>
<rscale>  0 0.75233359E+03</rscale>
<asrwt>0</asrwt>
<pdfrwt beam="1">  1        1 0.38227755E-01 0.75233359E+03</pdfrwt>
<pdfrwt beam="2">  1       -1 0.87610347E-01 0.75233359E+03</pdfrwt>
<totfact> 0.14568437E+02</totfact>
</mgrwt>
</event>
<event>
 4    1  0.3064919E-004  0.1691933E+03  0.7818608E-02  0.1178692E+00
         -1   -1    0    0    0  501 -0.00000000000E+00  0.00000000000E+00  0.50911560728E+02  0.50911560978E+02  0.50400000000E-02 0. -1.
          1   -1    0    0  501    0  0.00000000000E+00 -0.00000000000E+00 -0.14056911850E+03  0.14056911859E+03  0.50400000000E-02 0.  1.
    5000001    1    1    2    0    0 -0.24427222932E+02  0.13841199386E+02 -0.21107676539E+02  0.84633338759E+02  0.77000000000E+02 0.  0.
   -5000001    1    1    2    0    0  0.24427222932E+02 -0.13841199386E+02 -0.68549881229E+02  0.10684734080E+03  0.77000000000E+02 0.  0.
<mgrwt>
<rscale>  0 0.16919330E+03</rscale>
<asrwt>0</asrwt>
<pdfrwt beam="1">  1        1 0.21626018E-01 0.16919330E+03</pdfrwt>
<pdfrwt beam="2">  1       -1 0.78325479E-02 0.16919330E+03</pdfrwt>
<totfact> 0.19446997E+04</totfact>
</mgrwt>
</event>
<event>
 4    1  0.3064919E-004  0.2585799E+03  0.7818608E-02  0.1107999E+00
          1   -1    0    0  501    0  0.00000000000E+00  0.00000000000E+00  0.25958770854E+04  0.25958770854E+04  0.50400000000E-02 0.  1.
         -1   -1    0    0    0  501 -0.00000000000E+00 -0.00000000000E+00 -0.64394010658E+01  0.64394030382E+01  0.50400000000E-02 0. -1.
    5000001    1    1    2    0    0  0.68011194927E+02 -0.49465984919E+02  0.19080780338E+04  0.19114819354E+04  0.77000000000E+02 0.  0.
   -5000001    1    1    2    0    0 -0.68011194927E+02  0.49465984919E+02  0.68135965056E+03  0.69083455307E+03  0.77000000000E+02 0.  0.
<mgrwt>
<rscale>  0 0.25857994E+03</rscale>
<asrwt>0</asrwt>
<pdfrwt beam="1">  1        1 0.39936498E+00 0.25857994E+03</pdfrwt>
<pdfrwt beam="2">  1       -1 0.99067903E-03 0.25857994E+03</pdfrwt>
<totfact> 0.26110655E+03</totfact>
</mgrwt>
</event>
<event>
 4    1  0.3064919E-004  0.1980694E+03  0.7818608E-02  0.1151378E+00
          1   -1    0    0  501    0  0.00000000000E+00  0.00000000000E+00  0.12365626772E+04  0.12365626772E+04  0.50400000000E-02 0.  1.
         -1   -1    0    0    0  501 -0.00000000000E+00 -0.00000000000E+00 -0.79315619794E+01  0.79315635807E+01  0.50400000000E-02 0. -1.
    5000001    1    1    2    0    0 -0.57033431577E+02  0.98908791921E+01  0.75872250593E+03  0.76481336469E+03  0.77000000000E+02 0.  0.
   -5000001    1    1    2    0    0  0.57033431577E+02 -0.98908791921E+01  0.46990860930E+03  0.47968087611E+03  0.77000000000E+02 0.  0.
<mgrwt>
<rscale>  0 0.19806943E+03</rscale>
<asrwt>0</asrwt>
<pdfrwt beam="1">  1        1 0.19024039E+00 0.19806943E+03</pdfrwt>
<pdfrwt beam="2">  1       -1 0.12202406E-02 0.19806943E+03</pdfrwt>
<totfact> 0.14981149E+04</totfact>
</mgrwt>
</event>
<event>
 4    1  0.3064919E-004  0.1742300E+03  0.7818608E-02  0.1173507E+00
          1   -1    0    0  501    0  0.00000000000E+00  0.00000000000E+00  0.16468911508E+02  0.16468912279E+02  0.50400000000E-02 0.  1.
         -1   -1    0    0    0  501 -0.00000000000E+00 -0.00000000000E+00 -0.46080911236E+03  0.46080911239E+03  0.50400000000E-02 0. -1.
    5000001    1    1    2    0    0  0.35945373198E+02  0.19131218998E+02 -0.22599666729E+03  0.24220150087E+03  0.77000000000E+02 0.  0.
   -5000001    1    1    2    0    0 -0.35945373198E+02 -0.19131218998E+02 -0.21834353356E+03  0.23507652380E+03  0.77000000000E+02 0.  0.
<mgrwt>
<rscale>  0 0.17423002E+03</rscale>
<asrwt>0</asrwt>
<pdfrwt beam="1">  1        1 0.25336791E-02 0.17423002E+03</pdfrwt>
<pdfrwt beam="2">  1       -1 0.70893700E-01 0.17423002E+03</pdfrwt>
<totfact> 0.87232654E+03</totfact>
</mgrwt>
</event>
<event>
 4    1  0.3064919E-004  0.2977727E+03  0.7818608E-02  0.1086359E+00
         -1   -1    0    0    0  501 -0.00000000000E+00  0.00000000000E+00  0.34901862770E+03  0.34901862774E+03  0.50400000000E-02 0. -1.
          1   -1    0    0  501    0  0.00000000000E+00 -0.00000000000E+00 -0.63512777515E+02  0.63512777715E+02  0.50400000000E-02 0.  1.
    5000001    1    1    2    0    0  0.11308503782E+03  0.55313459001E+02  0.11538180531E+03  0.18732262416E+03  0.77000000000E+02 0.  0.
   -5000001    1    1    2    0    0 -0.11308503782E+03 -0.55313459001E+02  0.17012404487E+03  0.22520878129E+03  0.77000000000E+02 0.  0.
<mgrwt>
<rscale>  0 0.29777268E+03</rscale>
<asrwt>0</asrwt>
<pdfrwt beam="1">  1        1 0.97711965E-02 0.29777268E+03</pdfrwt>
<pdfrwt beam="2">  1       -1 0.53695174E-01 0.29777268E+03</pdfrwt>
<totfact> 0.23784329E+03</totfact>
</mgrwt>
</event>
<event>
 4    1  0.3064919E-004  0.2365417E+03  0.7818608E-02  0.1122118E+00
          1   -1    0    0  501    0  0.00000000000E+00  0.00000000000E+00  0.17987943779E+02  0.17987944485E+02  0.50400000000E-02 0. -1.
         -1   -1    0    0    0  501 -0.00000000000E+00 -0.00000000000E+00 -0.77763164267E+03  0.77763164269E+03  0.50400000000E-02 0.  1.
    5000001    1    1    2    0    0 -0.41475169459E+02  0.72243755040E+02 -0.49236987075E+03  0.50526868045E+03  0.77000000000E+02 0.  0.
   -5000001    1    1    2    0    0  0.41475169459E+02 -0.72243755040E+02 -0.26727382814E+03  0.29035090672E+03  0.77000000000E+02 0.  0.
<mgrwt>
<rscale>  0 0.23654171E+03</rscale>
<asrwt>0</asrwt>
<pdfrwt beam="1">  1        1 0.27673766E-02 0.23654171E+03</pdfrwt>
<pdfrwt beam="2">  1       -1 0.11963561E+00 0.23654171E+03</pdfrwt>
<totfact> 0.25271891E+03</totfact>
</mgrwt>
</event>
<event>
 4    1  0.3064919E-004  0.5418852E+03  0.7818608E-02  0.1003390E+00
          1   -1    0    0  501    0  0.00000000000E+00  0.00000000000E+00  0.12417886199E+04  0.12417886199E+04  0.50400000000E-02 0.  1.
         -1   -1    0    0    0  501 -0.00000000000E+00 -0.00000000000E+00 -0.59116262303E+02  0.59116262518E+02  0.50400000000E-02 0. -1.
    5000001    1    1    2    0    0 -0.21354740015E+03  0.14658366976E+03  0.54382668496E+03  0.60726083985E+03  0.77000000000E+02 0.  0.
   -5000001    1    1    2    0    0  0.21354740015E+03 -0.14658366976E+03  0.63884567267E+03  0.69364404260E+03  0.77000000000E+02 0.  0.
<mgrwt>
<rscale>  0 0.54188523E+03</rscale>
<asrwt>0</asrwt>
<pdfrwt beam="1">  1        1 0.19104439E+00 0.54188523E+03</pdfrwt>
<pdfrwt beam="2">  1       -1 0.90948101E-02 0.54188523E+03</pdfrwt>
<totfact> 0.74569640E+02</totfact>
</mgrwt>
</event>
<event>
 4    1  0.3064919E-004  0.2738622E+03  0.7818608E-02  0.1099089E+00
          1   -1    0    0  501    0  0.00000000000E+00  0.00000000000E+00  0.19852887191E+03  0.19852887198E+03  0.50400000000E-02 0. -1.
         -1   -1    0    0    0  501 -0.00000000000E+00 -0.00000000000E+00 -0.94445318861E+02  0.94445318996E+02  0.50400000000E-02 0.  1.
    5000001    1    1    2    0    0 -0.48900347606E+02 -0.85719455437E+02 -0.73487814535E+01  0.12538769328E+03  0.77000000000E+02 0.  0.
   -5000001    1    1    2    0    0  0.48900347606E+02  0.85719455437E+02  0.11143233450E+03  0.16758649769E+03  0.77000000000E+02 0.  0.
<mgrwt>
<rscale>  0 0.27386217E+03</rscale>
<asrwt>0</asrwt>
<pdfrwt beam="1">  1        1 0.30542903E-01 0.27386217E+03</pdfrwt>
<pdfrwt beam="2">  1       -1 0.14530049E-01 0.27386217E+03</pdfrwt>
<totfact> 0.49714104E+03</totfact>
</mgrwt>
</event>
<event>
 4    1  0.3064919E-004  0.1732432E+03  0.7818608E-02  0.1174507E+00
          1   -1    0    0  501    0  0.00000000000E+00  0.00000000000E+00  0.15942801411E+03  0.15942801418E+03  0.50400000000E-02 0. -1.
         -1   -1    0    0    0  501 -0.00000000000E+00 -0.00000000000E+00 -0.47063910994E+02  0.47063911263E+02  0.50400000000E-02 0.  1.
    5000001    1    1    2    0    0  0.31136166291E+02  0.32525011453E+01  0.85238150016E+02  0.11905705285E+03  0.77000000000E+02 0.  0.
   -5000001    1    1    2    0    0 -0.31136166291E+02 -0.32525011453E+01  0.27125953095E+02  0.87434872599E+02  0.77000000000E+02 0.  0.
<mgrwt>
<rscale>  0 0.17324325E+03</rscale>
<asrwt>0</asrwt>
<pdfrwt beam="1">  1        1 0.24527387E-01 0.17324325E+03</pdfrwt>
<pdfrwt beam="2">  1       -1 0.72406016E-02 0.17324325E+03</pdfrwt>
<totfact> 0.18707299E+04</totfact>
</mgrwt>
</event>
<event>
 4    1  0.3064919E-004  0.1873794E+03  0.7818608E-02  0.1160846E+00
         -1   -1    0    0    0  501 -0.00000000000E+00  0.00000000000E+00  0.39520140767E+03  0.39520140770E+03  0.50400000000E-02 0. -1.
          1   -1    0    0  501    0  0.00000000000E+00 -0.00000000000E+00 -0.22210849965E+02  0.22210850537E+02  0.50400000000E-02 0.  1.
    5000001    1    1    2    0    0 -0.29125142301E+02  0.29759782798E+02  0.26087418368E+03  0.27516950830E+03  0.77000000000E+02 0.  0.
   -5000001    1    1    2    0    0  0.29125142301E+02 -0.29759782798E+02  0.11211637402E+03  0.14224274994E+03  0.77000000000E+02 0.  0.
<mgrwt>
<rscale>  0 0.18737939E+03</rscale>
<asrwt>0</asrwt>
<pdfrwt beam="1">  1        1 0.34170539E-02 0.18737939E+03</pdfrwt>
<pdfrwt beam="2">  1       -1 0.60800216E-01 0.18737939E+03</pdfrwt>
<totfact> 0.77997048E+03</totfact>
</mgrwt>
</event>
<event>
 4    1  0.3064919E-004  0.3109536E+03  0.7818608E-02  0.1079890E+00
         -1   -1    0    0    0  501 -0.00000000000E+00  0.00000000000E+00  0.11279477124E+03  0.11279477135E+03  0.50400000000E-02 0.  1.
          1   -1    0    0  501    0  0.00000000000E+00 -0.00000000000E+00 -0.21430996109E+03  0.21430996115E+03  0.50400000000E-02 0. -1.
    5000001    1    1    2    0    0 -0.10053097187E+03 -0.22088054776E+02 -0.14276291351E+03  0.19210572074E+03  0.77000000000E+02 0.  0.
   -5000001    1    1    2    0    0  0.10053097187E+03  0.22088054776E+02  0.41247723656E+02  0.13499901176E+03  0.77000000000E+02 0.  0.
<mgrwt>
<rscale>  0 0.31095365E+03</rscale>
<asrwt>0</asrwt>
<pdfrwt beam="1">  1        1 0.32970763E-01 0.31095365E+03</pdfrwt>
<pdfrwt beam="2">  1       -1 0.17353042E-01 0.31095365E+03</pdfrwt>
<totfact> 0.34113613E+03</totfact>
</mgrwt>
</event>
<event>
 4    1  0.3064919E-004  0.8140386E+03  0.7818608E-02  0.9539916E-01
          1   -1    0    0  501    0  0.00000000000E+00  0.00000000000E+00  0.62885509105E+03  0.62885509107E+03  0.50400000000E-02 0.  1.
         -1   -1    0    0    0  501 -0.00000000000E+00 -0.00000000000E+00 -0.26343859642E+03  0.26343859646E+03  0.50400000000E-02 0. -1.
    5000001    1    1    2    0    0 -0.15496902263E+03  0.20068966723E+03  0.52134731680E+03  0.58482797919E+03  0.77000000000E+02 0.  0.
   -5000001    1    1    2    0    0  0.15496902263E+03 -0.20068966723E+03 -0.15593082217E+03  0.30746570835E+03  0.77000000000E+02 0.  0.
<mgrwt>
<rscale>  0 0.81403858E+03</rscale>
<asrwt>0</asrwt>
<pdfrwt beam="1">  1        1 0.96746937E-01 0.81403858E+03</pdfrwt>
<pdfrwt beam="2">  1       -1 0.40529015E-01 0.81403858E+03</pdfrwt>
<totfact> 0.19209421E+02</totfact>
</mgrwt>
</event>
<event>
 4    1  0.3064919E-004  0.2699898E+03  0.7818608E-02  0.1101285E+00
         -1   -1    0    0    0  501 -0.00000000000E+00  0.00000000000E+00  0.12480139674E+02  0.12480140692E+02  0.50400000000E-02 0.  1.
          1   -1    0    0  501    0  0.00000000000E+00 -0.00000000000E+00 -0.14602102980E+04  0.14602102980E+04  0.50400000000E-02 0. -1.
    5000001    1    1    2    0    0  0.11078270126E+03  0.31560432205E+01 -0.70507892529E+03  0.71787746754E+03  0.77000000000E+02 0.  0.
   -5000001    1    1    2    0    0 -0.11078270126E+03 -0.31560432205E+01 -0.74265123299E+03  0.75481297112E+03  0.77000000000E+02 0.  0.
<mgrwt>
<rscale>  0 0.26998985E+03</rscale>
<asrwt>0</asrwt>
<pdfrwt beam="1">  1        1 0.22464760E+00 0.26998985E+03</pdfrwt>
<pdfrwt beam="2">  1       -1 0.19200227E-02 0.26998985E+03</pdfrwt>
<totfact> 0.55349486E+03</totfact>
</mgrwt>
</event>
<event>
 4    1  0.3064919E-004  0.2418317E+03  0.7818608E-02  0.1118579E+00
         -1   -1    0    0    0  501 -0.00000000000E+00  0.00000000000E+00  0.11377946680E+03  0.11377946692E+03  0.50400000000E-02 0.  1.
          1   -1    0    0  501    0  0.00000000000E+00 -0.00000000000E+00 -0.12849981960E+03  0.12849981970E+03  0.50400000000E-02 0. -1.
    5000001    1    1    2    0    0 -0.89110654049E+02  0.21289778080E+01 -0.34731060985E+02  0.12280263763E+03  0.77000000000E+02 0.  0.
   -5000001    1    1    2    0    0  0.89110654049E+02 -0.21289778080E+01  0.20010708185E+02  0.11947664899E+03  0.77000000000E+02 0.  0.
<mgrwt>
<rscale>  0 0.24183169E+03</rscale>
<asrwt>0</asrwt>
<pdfrwt beam="1">  1        1 0.19769203E-01 0.24183169E+03</pdfrwt>
<pdfrwt beam="2">  1       -1 0.17504533E-01 0.24183169E+03</pdfrwt>
<totfact> 0.63985639E+03</totfact>
</mgrwt>
</event>
<event>
 4    1  0.3064919E-004  0.4037747E+03  0.7818608E-02  0.1042480E+00
         -1   -1    0    0    0  501 -0.00000000000E+00  0.00000000000E+00  0.16428095871E+02  0.16428096644E+02  0.50400000000E-02 0. -1.
          1   -1    0    0  501    0  0.00000000000E+00 -0.00000000000E+00 -0.24810246241E+04  0.24810246241E+04  0.50400000000E-02 0.  1.
    5000001    1    1    2    0    0  0.91191511164E+02 -0.15944653105E+03 -0.10280512573E+04  0.10471664030E+04  0.77000000000E+02 0.  0.
   -5000001    1    1    2    0    0 -0.91191511164E+02  0.15944653105E+03 -0.14365452710E+04  0.14502863178E+04  0.77000000000E+02 0.  0.
<mgrwt>
<rscale>  0 0.40377475E+03</rscale>
<asrwt>0</asrwt>
<pdfrwt beam="1">  1        1 0.38169580E+00 0.40377475E+03</pdfrwt>
<pdfrwt beam="2">  1       -1 0.25274014E-02 0.40377475E+03</pdfrwt>
<totfact> 0.78140613E+02</totfact>
</mgrwt>
</event>
<event>
 4    1  0.3064919E-004  0.2485725E+03  0.7818608E-02  0.1114210E+00
         -1   -1    0    0    0  501 -0.00000000000E+00  0.00000000000E+00  0.40410501891E+02  0.40410502205E+02  0.50400000000E-02 0.  1.
          1   -1    0    0  501    0  0.00000000000E+00 -0.00000000000E+00 -0.38225400928E+03  0.38225400932E+03  0.50400000000E-02 0. -1.
    5000001    1    1    2    0    0  0.91308564274E+02 -0.33451851790E+02 -0.15755508092E+03  0.20052152957E+03  0.77000000000E+02 0.  0.
   -5000001    1    1    2    0    0 -0.91308564274E+02  0.33451851790E+02 -0.18428842648E+03  0.22214298195E+03  0.77000000000E+02 0.  0.
<mgrwt>
<rscale>  0 0.24857254E+03</rscale>
<asrwt>0</asrwt>
<pdfrwt beam="1">  1        1 0.58808307E-01 0.24857254E+03</pdfrwt>
<pdfrwt beam="2">  1       -1 0.62170006E-02 0.24857254E+03</pdfrwt>
<totfact> 0.80378659E+03</totfact>
</mgrwt>
</event>
<event>
 4    1  0.3064919E-004  0.1815139E+03  0.7818608E-02  0.1166346E+00
         -1   -1    0    0    0  501 -0.00000000000E+00  0.00000000000E+00  0.16930617728E+02  0.16930618478E+02  0.50400000000E-02 0.  1.
          1   -1    0    0  501    0  0.00000000000E+00 -0.00000000000E+00 -0.48650466269E+03  0.48650466272E+03  0.50400000000E-02 0. -1.
    5000001    1    1    2    0    0  0.36715123494E+02  0.60876560320E+01 -0.31903883537E+03  0.33030264655E+03  0.77000000000E+02 0.  0.
   -5000001    1    1    2    0    0 -0.36715123494E+02 -0.60876560320E+01 -0.15053520960E+03  0.17313263464E+03  0.77000000000E+02 0.  0.
<mgrwt>
<rscale>  0 0.18151391E+03</rscale>
<asrwt>0</asrwt>
<pdfrwt beam="1">  1        1 0.74846861E-01 0.18151391E+03</pdfrwt>
<pdfrwt beam="2">  1       -1 0.26047108E-02 0.18151391E+03</pdfrwt>
<totfact> 0.20986188E+04</totfact>
</mgrwt>
</event>
<event>
 4    1  0.3064919E-004  0.2001826E+03  0.7818608E-02  0.1149585E+00
         -1   -1    0    0    0  501 -0.00000000000E+00  0.00000000000E+00  0.68942463588E+01  0.68942482010E+01  0.50400000000E-02 0. -1.
          1   -1    0    0  501    0  0.00000000000E+00 -0.00000000000E+00 -0.14531338181E+04  0.14531338181E+04  0.50400000000E-02 0.  1.
    5000001    1    1    2    0    0 -0.56560748755E+02 -0.24568155598E+02 -0.59965696965E+03  0.60771719888E+03  0.77000000000E+02 0.  0.
   -5000001    1    1    2    0    0  0.56560748755E+02  0.24568155598E+02 -0.84658260212E+03  0.85231086745E+03  0.77000000000E+02 0.  0.
<mgrwt>
<rscale>  0 0.20018256E+03</rscale>
<asrwt>0</asrwt>
<pdfrwt beam="1">  1        1 0.22355881E+00 0.20018256E+03</pdfrwt>
<pdfrwt beam="2">  1       -1 0.10606546E-02 0.20018256E+03</pdfrwt>
<totfact> 0.13117382E+04</totfact>
</mgrwt>
</event>
<event>
 4    1  0.3064919E-004  0.1738866E+03  0.7818608E-02  0.1173854E+00
         -1   -1    0    0    0  501 -0.00000000000E+00  0.00000000000E+00  0.71348026958E+01  0.71348044759E+01  0.50400000000E-02 0. -1.
          1   -1    0    0  501    0  0.00000000000E+00 -0.00000000000E+00 -0.10594742264E+04  0.10594742264E+04  0.50400000000E-02 0.  1.
    5000001    1    1    2    0    0  0.18249746362E+02  0.35557622227E+02 -0.49107054265E+03  0.49867491976E+03  0.77000000000E+02 0.  0.
   -5000001    1    1    2    0    0 -0.18249746362E+02 -0.35557622227E+02 -0.56126888104E+03  0.56793411112E+03  0.77000000000E+02 0.  0.
<mgrwt>
<rscale>  0 0.17388664E+03</rscale>
<asrwt>0</asrwt>
<pdfrwt beam="1">  1        1 0.16299591E+00 0.17388664E+03</pdfrwt>
<pdfrwt beam="2">  1       -1 0.10976629E-02 0.17388664E+03</pdfrwt>
<totfact> 0.23051331E+04</totfact>
</mgrwt>
</event>
<event>
 4    1  0.3064919E-004  0.6874862E+03  0.7818608E-02  0.9738875E-01
          1   -1    0    0  501    0  0.00000000000E+00  0.00000000000E+00  0.27696247084E+03  0.27696247088E+03  0.50400000000E-02 0.  1.
         -1   -1    0    0    0  501 -0.00000000000E+00 -0.00000000000E+00 -0.42662570599E+03  0.42662570601E+03  0.50400000000E-02 0. -1.
    5000001    1    1    2    0    0  0.31222909231E+03 -0.73256493579E+01 -0.19887114936E+03  0.37817906509E+03  0.77000000000E+02 0.  0.
   -5000001    1    1    2    0    0 -0.31222909231E+03  0.73256493579E+01  0.49207914215E+02  0.32540911181E+03  0.77000000000E+02 0.  0.
<mgrwt>
<rscale>  0 0.68748617E+03</rscale>
<asrwt>0</asrwt>
<pdfrwt beam="1">  1        1 0.42609611E-01 0.68748617E+03</pdfrwt>
<pdfrwt beam="2">  1       -1 0.65634724E-01 0.68748617E+03</pdfrwt>
<totfact> 0.23231788E+02</totfact>
</mgrwt>
</event>
<event>
 4    1  0.3064919E-004  0.1807333E+03  0.7818608E-02  0.1167095E+00
          1   -1    0    0  501    0  0.00000000000E+00  0.00000000000E+00  0.39215299916E+03  0.39215299920E+03  0.50400000000E-02 0. -1.
         -1   -1    0    0    0  501 -0.00000000000E+00 -0.00000000000E+00 -0.20823843150E+02  0.20823843760E+02  0.50400000000E-02 0.  1.
    5000001    1    1    2    0    0 -0.43283666632E+02  0.18199545844E+02  0.17265138686E+03  0.19478757828E+03  0.77000000000E+02 0.  0.
   -5000001    1    1    2    0    0  0.43283666632E+02 -0.18199545844E+02  0.19867776915E+03  0.21818926468E+03  0.77000000000E+02 0.  0.
<mgrwt>
<rscale>  0 0.18073331E+03</rscale>
<asrwt>0</asrwt>
<pdfrwt beam="1">  1        1 0.60331232E-01 0.18073331E+03</pdfrwt>
<pdfrwt beam="2">  1       -1 0.32036682E-02 0.18073331E+03</pdfrwt>
<totfact> 0.20449593E+04</totfact>
</mgrwt>
</event>
<event>
 4    1  0.3064919E-004  0.2484015E+03  0.7818608E-02  0.1114319E+00
         -1   -1    0    0    0  501 -0.00000000000E+00  0.00000000000E+00  0.43535197560E+02  0.43535197852E+02  0.50400000000E-02 0. -1.
          1   -1    0    0  501    0  0.00000000000E+00 -0.00000000000E+00 -0.35432987763E+03  0.35432987766E+03  0.50400000000E-02 0.  1.
    5000001    1    1    2    0    0  0.29487016131E+02 -0.89851637530E+02 -0.19309761816E+03  0.22838233519E+03  0.77000000000E+02 0.  0.
   -5000001    1    1    2    0    0 -0.29487016131E+02  0.89851637530E+02 -0.11769706191E+03  0.16948274033E+03  0.77000000000E+02 0.  0.
<mgrwt>
<rscale>  0 0.24840146E+03</rscale>
<asrwt>0</asrwt>
<pdfrwt beam="1">  1        1 0.54512287E-01 0.24840146E+03</pdfrwt>
<pdfrwt beam="2">  1       -1 0.66977230E-02 0.24840146E+03</pdfrwt>
<totfact> 0.79088801E+03</totfact>
</mgrwt>
</event>
<event>
 4    1  0.3064919E-004  0.3483092E+03  0.7818608E-02  0.1063311E+00
          1   -1    0    0  501    0  0.00000000000E+00  0.00000000000E+00  0.20863085804E+03  0.20863085810E+03  0.50400000000E-02 0. -1.
         -1   -1    0    0    0  501 -0.00000000000E+00 -0.00000000000E+00 -0.14537550946E+03  0.14537550955E+03  0.50400000000E-02 0.  1.
    5000001    1    1    2    0    0 -0.71448939702E+02 -0.12275767049E+03 -0.34446621197E+02  0.16519675045E+03  0.77000000000E+02 0.  0.
   -5000001    1    1    2    0    0  0.71448939702E+02  0.12275767049E+03  0.97701969773E+02  0.18880961720E+03  0.77000000000E+02 0.  0.
<mgrwt>
<rscale>  0 0.34830916E+03</rscale>
<asrwt>0</asrwt>
<pdfrwt beam="1">  1        1 0.32097055E-01 0.34830916E+03</pdfrwt>
<pdfrwt beam="2">  1       -1 0.22365463E-01 0.34830916E+03</pdfrwt>
<totfact> 0.23377284E+03</totfact>
</mgrwt>
</event>
<event>
 4    1  0.3064919E-004  0.1739113E+03  0.7818608E-02  0.1173829E+00
         -1   -1    0    0    0  501 -0.00000000000E+00  0.00000000000E+00  0.13694855424E+02  0.13694856352E+02  0.50400000000E-02 0. -1.
          1   -1    0    0  501    0  0.00000000000E+00 -0.00000000000E+00 -0.55212623430E+03  0.55212623432E+03  0.50400000000E-02 0.  1.
    5000001    1    1    2    0    0 -0.18341026911E+02  0.35942432789E+02 -0.27575311014E+03  0.28913150899E+03  0.77000000000E+02 0.  0.
   -5000001    1    1    2    0    0  0.18341026911E+02 -0.35942432789E+02 -0.26267826874E+03  0.27668958168E+03  0.77000000000E+02 0.  0.
<mgrwt>
<rscale>  0 0.17391135E+03</rscale>
<asrwt>0</asrwt>
<pdfrwt beam="1">  1        1 0.84942480E-01 0.17391135E+03</pdfrwt>
<pdfrwt beam="2">  1       -1 0.21069013E-02 0.17391135E+03</pdfrwt>
<totfact> 0.24084549E+04</totfact>
</mgrwt>
</event>
<event>
 4    1  0.3064919E-004  0.1814728E+03  0.7818608E-02  0.1166385E+00
          1   -1    0    0  501    0  0.00000000000E+00  0.00000000000E+00  0.66927412809E+02  0.66927412999E+02  0.50400000000E-02 0.  1.
         -1   -1    0    0    0  501 -0.00000000000E+00 -0.00000000000E+00 -0.12301521428E+03  0.12301521439E+03  0.50400000000E-02 0. -1.
    5000001    1    1    2    0    0  0.44115557445E+02  0.18204344757E+02 -0.22654858218E+02  0.93379993455E+02  0.77000000000E+02 0.  0.
   -5000001    1    1    2    0    0 -0.44115557445E+02 -0.18204344757E+02 -0.33432943255E+02  0.96562633929E+02  0.77000000000E+02 0.  0.
<mgrwt>
<rscale>  0 0.18147275E+03</rscale>
<asrwt>0</asrwt>
<pdfrwt beam="1">  1        1 0.10296525E-01 0.18147275E+03</pdfrwt>
<pdfrwt beam="2">  1       -1 0.18925418E-01 0.18147275E+03</pdfrwt>
<totfact> 0.13039247E+04</totfact>
</mgrwt>
</event>
<event>
 4    1  0.3064919E-004  0.1812404E+03  0.7818608E-02  0.1166608E+00
         -1   -1    0    0    0  501 -0.00000000000E+00  0.00000000000E+00  0.62757140044E+02  0.62757140246E+02  0.50400000000E-02 0.  1.
          1   -1    0    0  501    0  0.00000000000E+00 -0.00000000000E+00 -0.13085392170E+03  0.13085392180E+03  0.50400000000E-02 0. -1.
    5000001    1    1    2    0    0  0.23093224765E+02 -0.39996471388E+02 -0.20964845649E+02  0.92203793342E+02  0.77000000000E+02 0.  0.
   -5000001    1    1    2    0    0 -0.23093224765E+02  0.39996471388E+02 -0.47131936006E+02  0.10140726870E+03  0.77000000000E+02 0.  0.
<mgrwt>
<rscale>  0 0.18124037E+03</rscale>
<asrwt>0</asrwt>
<pdfrwt beam="1">  1        1 0.20131373E-01 0.18124037E+03</pdfrwt>
<pdfrwt beam="2">  1       -1 0.96549446E-02 0.18124037E+03</pdfrwt>
<totfact> 0.15583402E+04</totfact>
</mgrwt>
</event>
<event>
 4    1  0.3064919E-004  0.2852166E+03  0.7818608E-02  0.1092873E+00
         -1   -1    0    0    0  501 -0.00000000000E+00  0.00000000000E+00  0.23485887117E+02  0.23485887658E+02  0.50400000000E-02 0. -1.
          1   -1    0    0  501    0  0.00000000000E+00 -0.00000000000E+00 -0.86592971002E+03  0.86592971004E+03  0.50400000000E-02 0.  1.
    5000001    1    1    2    0    0  0.53174576302E+02 -0.10454818138E+03 -0.34170184112E+03  0.36938733874E+03  0.77000000000E+02 0.  0.
   -5000001    1    1    2    0    0 -0.53174576302E+02  0.10454818138E+03 -0.50074198179E+03  0.52002825896E+03  0.77000000000E+02 0.  0.
<mgrwt>
<rscale>  0 0.28521660E+03</rscale>
<asrwt>0</asrwt>
<pdfrwt beam="1">  1        1 0.13321993E+00 0.28521660E+03</pdfrwt>
<pdfrwt beam="2">  1       -1 0.36132141E-02 0.28521660E+03</pdfrwt>
<totfact> 0.58173611E+03</totfact>
</mgrwt>
</event>
<event>
 4    1  0.3064919E-004  0.2111960E+03  0.7818608E-02  0.1140622E+00
         -1   -1    0    0    0  501 -0.00000000000E+00  0.00000000000E+00  0.11341952943E+03  0.11341952954E+03  0.50400000000E-02 0.  1.
          1   -1    0    0  501    0  0.00000000000E+00 -0.00000000000E+00 -0.98315872279E+02  0.98315872408E+02  0.50400000000E-02 0. -1.
    5000001    1    1    2    0    0 -0.61475685752E+02  0.24319863420E+02  0.36802089801E+02  0.10795420098E+03  0.77000000000E+02 0.  0.
   -5000001    1    1    2    0    0  0.61475685752E+02 -0.24319863420E+02 -0.21698432649E+02  0.10378120097E+03  0.77000000000E+02 0.  0.
<mgrwt>
<rscale>  0 0.21119602E+03</rscale>
<asrwt>0</asrwt>
<pdfrwt beam="1">  1        1 0.15125519E-01 0.21119602E+03</pdfrwt>
<pdfrwt beam="2">  1       -1 0.17449159E-01 0.21119602E+03</pdfrwt>
<totfact> 0.90354929E+03</totfact>
</mgrwt>
</event>
<event>
 4    1  0.3064919E-004  0.2532674E+03  0.7818608E-02  0.1111257E+00
         -1   -1    0    0    0  501 -0.00000000000E+00  0.00000000000E+00  0.46483188169E+02  0.46483188442E+02  0.50400000000E-02 0. -1.
          1   -1    0    0  501    0  0.00000000000E+00 -0.00000000000E+00 -0.34498699301E+03  0.34498699305E+03  0.50400000000E-02 0.  1.
    5000001    1    1    2    0    0 -0.29236623138E+02 -0.22429862822E+01 -0.61505681120E+00  0.82396537639E+02  0.77000000000E+02 0.  0.
   -5000001    1    1    2    0    0  0.29236623138E+02  0.22429862822E+01 -0.29788874803E+03  0.30907364385E+03  0.77000000000E+02 0.  0.
<mgrwt>
<rscale>  0 0.25326741E+03</rscale>
<asrwt>0</asrwt>
<pdfrwt beam="1">  1        1 0.53074920E-01 0.25326741E+03</pdfrwt>
<pdfrwt beam="2">  1       -1 0.71512600E-02 0.25326741E+03</pdfrwt>
<totfact> 0.74136534E+03</totfact>
</mgrwt>
</event>
<event>
 4    1  0.3064919E-004  0.1901777E+03  0.7818608E-02  0.1158301E+00
         -1   -1    0    0    0  501 -0.00000000000E+00  0.00000000000E+00  0.24767010156E+03  0.24767010161E+03  0.50400000000E-02 0.  1.
          1   -1    0    0  501    0  0.00000000000E+00 -0.00000000000E+00 -0.36507792468E+02  0.36507792816E+02  0.50400000000E-02 0. -1.
    5000001    1    1    2    0    0  0.20803315308E+02 -0.50946992153E+02  0.11931831811E+03  0.15229653632E+03  0.77000000000E+02 0.  0.
   -5000001    1    1    2    0    0 -0.20803315308E+02  0.50946992153E+02  0.91843990977E+02  0.13188135811E+03  0.77000000000E+02 0.  0.
<mgrwt>
<rscale>  0 0.19017769E+03</rscale>
<asrwt>0</asrwt>
<pdfrwt beam="1">  1        1 0.56165836E-02 0.19017769E+03</pdfrwt>
<pdfrwt beam="2">  1       -1 0.38103092E-01 0.19017769E+03</pdfrwt>
<totfact> 0.92280072E+03</totfact>
</mgrwt>
</event>
<event>
 4    1  0.3064919E-004  0.1690577E+03  0.7818608E-02  0.1178834E+00
         -1   -1    0    0    0  501 -0.00000000000E+00  0.00000000000E+00  0.57319016669E+02  0.57319016890E+02  0.50400000000E-02 0. -1.
          1   -1    0    0  501    0  0.00000000000E+00 -0.00000000000E+00 -0.12465538858E+03  0.12465538868E+03  0.50400000000E-02 0.  1.
    5000001    1    1    2    0    0 -0.31826608822E+02  0.14253250155E+02 -0.33463510423E+02  0.90911466267E+02  0.77000000000E+02 0.  0.
   -5000001    1    1    2    0    0  0.31826608822E+02 -0.14253250155E+02 -0.33872861486E+02  0.91062939302E+02  0.77000000000E+02 0.  0.
<mgrwt>
<rscale>  0 0.16905767E+03</rscale>
<asrwt>0</asrwt>
<pdfrwt beam="1">  1        1 0.19177752E-01 0.16905767E+03</pdfrwt>
<pdfrwt beam="2">  1       -1 0.88183103E-02 0.16905767E+03</pdfrwt>
<totfact> 0.18934429E+04</totfact>
</mgrwt>
</event>
<event>
 4    1  0.3064919E-004  0.2147864E+03  0.7818608E-02  0.1137831E+00
         -1   -1    0    0    0  501 -0.00000000000E+00  0.00000000000E+00  0.27893321574E+03  0.27893321578E+03  0.50400000000E-02 0. -1.
          1   -1    0    0  501    0  0.00000000000E+00 -0.00000000000E+00 -0.41347875281E+02  0.41347875588E+02  0.50400000000E-02 0.  1.
    5000001    1    1    2    0    0 -0.63018883320E+01 -0.70465275058E+02  0.15529497658E+03  0.18721805077E+03  0.77000000000E+02 0.  0.
   -5000001    1    1    2    0    0  0.63018883320E+01  0.70465275058E+02  0.82290363881E+02  0.13306304060E+03  0.77000000000E+02 0.  0.
<mgrwt>
<rscale>  0 0.21478637E+03</rscale>
<asrwt>0</asrwt>
<pdfrwt beam="1">  1        1 0.63612117E-02 0.21478637E+03</pdfrwt>
<pdfrwt beam="2">  1       -1 0.42912802E-01 0.21478637E+03</pdfrwt>
<totfact> 0.63522097E+03</totfact>
</mgrwt>
</event>
<event>
 4    1  0.3064919E-004  0.2195467E+03  0.7818608E-02  0.1134221E+00
         -1   -1    0    0    0  501 -0.00000000000E+00  0.00000000000E+00  0.30938911832E+02  0.30938912242E+02  0.50400000000E-02 0.  1.
          1   -1    0    0  501    0  0.00000000000E+00 -0.00000000000E+00 -0.38948314234E+03  0.38948314237E+03  0.50400000000E-02 0. -1.
    5000001    1    1    2    0    0 -0.70791052682E+02 -0.26262088353E+02 -0.14002187139E+03  0.17673764424E+03  0.77000000000E+02 0.  0.
   -5000001    1    1    2    0    0  0.70791052682E+02  0.26262088353E+02 -0.21852235912E+03  0.24368441037E+03  0.77000000000E+02 0.  0.
<mgrwt>
<rscale>  0 0.21954667E+03</rscale>
<asrwt>0</asrwt>
<pdfrwt beam="1">  1        1 0.59920480E-01 0.21954667E+03</pdfrwt>
<pdfrwt beam="2">  1       -1 0.47598329E-02 0.21954667E+03</pdfrwt>
<totfact> 0.11640714E+04</totfact>
</mgrwt>
</event>
<event>
 4    1  0.3064919E-004  0.1923634E+03  0.7818608E-02  0.1156347E+00
         -1   -1    0    0    0  501 -0.00000000000E+00  0.00000000000E+00  0.85722421560E+01  0.85722436376E+01  0.50400000000E-02 0.  1.
          1   -1    0    0  501    0  0.00000000000E+00 -0.00000000000E+00 -0.10791714166E+04  0.10791714166E+04  0.50400000000E-02 0. -1.
    5000001    1    1    2    0    0 -0.33331480388E+02  0.41981825725E+02 -0.41555245507E+03  0.42601209395E+03  0.77000000000E+02 0.  0.
   -5000001    1    1    2    0    0  0.33331480388E+02 -0.41981825725E+02 -0.65504671939E+03  0.66173156631E+03  0.77000000000E+02 0.  0.
<mgrwt>
<rscale>  0 0.19236340E+03</rscale>
<asrwt>0</asrwt>
<pdfrwt beam="1">  1        1 0.16602626E+00 0.19236340E+03</pdfrwt>
<pdfrwt beam="2">  1       -1 0.13188075E-02 0.19236340E+03</pdfrwt>
<totfact> 0.17242766E+04</totfact>
</mgrwt>
</event>
<event>
 4    1  0.3064919E-004  0.1769760E+03  0.7818608E-02  0.1170762E+00
         -1   -1    0    0    0  501 -0.00000000000E+00  0.00000000000E+00  0.48407867675E+01  0.48407893912E+01  0.50400000000E-02 0. -1.
          1   -1    0    0  501    0  0.00000000000E+00 -0.00000000000E+00 -0.16175305516E+04  0.16175305516E+04  0.50400000000E-02 0.  1.
    5000001    1    1    2    0    0  0.25745133328E+02 -0.28255008772E+02 -0.99862977271E+03  0.10023230918E+04  0.77000000000E+02 0.  0.
   -5000001    1    1    2    0    0 -0.25745133328E+02  0.28255008772E+02 -0.61405999214E+03  0.62004824921E+03  0.77000000000E+02 0.  0.
<mgrwt>
<rscale>  0 0.17697596E+03</rscale>
<asrwt>0</asrwt>
<pdfrwt beam="1">  1        1 0.24885042E+00 0.17697596E+03</pdfrwt>
<pdfrwt beam="2">  1       -1 0.74473792E-03 0.17697596E+03</pdfrwt>
<totfact> 0.16908457E+04</totfact>
</mgrwt>
</event>
<event>
 4    1  0.3064919E-004  0.2061261E+03  0.7818608E-02  0.1144671E+00
          1   -1    0    0  501    0  0.00000000000E+00  0.00000000000E+00  0.29875109167E+02  0.29875109592E+02  0.50400000000E-02 0.  1.
         -1   -1    0    0    0  501 -0.00000000000E+00 -0.00000000000E+00 -0.35554645326E+03  0.35554645329E+03  0.50400000000E-02 0. -1.
    5000001    1    1    2    0    0 -0.27228869908E+02  0.25373239778E+02 -0.55295391222E+02  0.10184199990E+03  0.77000000000E+02 0.  0.
   -5000001    1    1    2    0    0  0.27228869908E+02 -0.25373239778E+02 -0.27037595287E+03  0.28357956299E+03  0.77000000000E+02 0.  0.
<mgrwt>
<rscale>  0 0.20612607E+03</rscale>
<asrwt>0</asrwt>
<pdfrwt beam="1">  1        1 0.45961709E-02 0.20612607E+03</pdfrwt>
<pdfrwt beam="2">  1       -1 0.54699451E-01 0.20612607E+03</pdfrwt>
<totfact> 0.63554219E+03</totfact>
</mgrwt>
</event>
<event>
 4    1  0.3064919E-004  0.3678392E+03  0.7818608E-02  0.1055522E+00
         -1   -1    0    0    0  501 -0.00000000000E+00  0.00000000000E+00  0.12224356982E+03  0.12224356992E+03  0.50400000000E-02 0. -1.
          1   -1    0    0  501    0  0.00000000000E+00 -0.00000000000E+00 -0.27671328798E+03  0.27671328802E+03  0.50400000000E-02 0.  1.
    5000001    1    1    2    0    0  0.13108485441E+03  0.75636260696E+02 -0.15387624795E+03  0.22915274965E+03  0.77000000000E+02 0.  0.
   -5000001    1    1    2    0    0 -0.13108485441E+03 -0.75636260696E+02 -0.59347020555E+00  0.16980410829E+03  0.77000000000E+02 0.  0.
<mgrwt>
<rscale>  0 0.36783920E+03</rscale>
<asrwt>0</asrwt>
<pdfrwt beam="1">  1        1 0.42571275E-01 0.36783920E+03</pdfrwt>
<pdfrwt beam="2">  1       -1 0.18806703E-01 0.36783920E+03</pdfrwt>
<totfact> 0.21739000E+03</totfact>
</mgrwt>
</event>
<event>
 4    1  0.3064919E-004  0.4170180E+03  0.7818608E-02  0.1038041E+00
         -1   -1    0    0    0  501 -0.00000000000E+00  0.00000000000E+00  0.28069827020E+02  0.28069827472E+02  0.50400000000E-02 0.  1.
          1   -1    0    0  501    0  0.00000000000E+00 -0.00000000000E+00 -0.15488519471E+04  0.15488519471E+04  0.50400000000E-02 0. -1.
    5000001    1    1    2    0    0 -0.59311565882E+02 -0.83984250998E+02 -0.13931838803E+03  0.18949889052E+03  0.77000000000E+02 0.  0.
   -5000001    1    1    2    0    0  0.59311565882E+02  0.83984250998E+02 -0.13814637320E+04  0.13874228840E+04  0.77000000000E+02 0.  0.
<mgrwt>
<rscale>  0 0.41701802E+03</rscale>
<asrwt>0</asrwt>
<pdfrwt beam="1">  1        1 0.23828485E+00 0.41701802E+03</pdfrwt>
<pdfrwt beam="2">  1       -1 0.43184361E-02 0.41701802E+03</pdfrwt>
<totfact> 0.14487003E+03</totfact>
</mgrwt>
</event>
<event>
 4    1  0.3064919E-004  0.2382583E+03  0.7818608E-02  0.1120959E+00
          1   -1    0    0  501    0  0.00000000000E+00  0.00000000000E+00  0.26196437914E+03  0.26196437919E+03  0.50400000000E-02 0. -1.
         -1   -1    0    0    0  501 -0.00000000000E+00 -0.00000000000E+00 -0.54174353233E+02  0.54174353467E+02  0.50400000000E-02 0.  1.
    5000001    1    1    2    0    0  0.87345399727E+02  0.81952661711E+01  0.72317371041E+02  0.13731417769E+03  0.77000000000E+02 0.  0.
   -5000001    1    1    2    0    0 -0.87345399727E+02 -0.81952661711E+01  0.13547265486E+03  0.17882455496E+03  0.77000000000E+02 0.  0.
<mgrwt>
<rscale>  0 0.23825827E+03</rscale>
<asrwt>0</asrwt>
<pdfrwt beam="1">  1        1 0.40302211E-01 0.23825827E+03</pdfrwt>
<pdfrwt beam="2">  1       -1 0.83345161E-02 0.23825827E+03</pdfrwt>
<totfact> 0.82757692E+03</totfact>
</mgrwt>
</event>
<event>
 4    1  0.3064919E-004  0.3716594E+03  0.7818608E-02  0.1054060E+00
         -1   -1    0    0    0  501 -0.00000000000E+00  0.00000000000E+00  0.31492960685E+02  0.31492961089E+02  0.50400000000E-02 0. -1.
          1   -1    0    0  501    0  0.00000000000E+00 -0.00000000000E+00 -0.10965203175E+04  0.10965203175E+04  0.50400000000E-02 0.  1.
    5000001    1    1    2    0    0 -0.10019902032E+03 -0.47006289385E+01 -0.94579357139E+03  0.95420984027E+03  0.77000000000E+02 0.  0.
   -5000001    1    1    2    0    0  0.10019902032E+03  0.47006289385E+01 -0.11923378539E+03  0.17380343830E+03  0.77000000000E+02 0.  0.
<mgrwt>
<rscale>  0 0.37165937E+03</rscale>
<asrwt>0</asrwt>
<pdfrwt beam="1">  1        1 0.16869540E+00 0.37165937E+03</pdfrwt>
<pdfrwt beam="2">  1       -1 0.48450717E-02 0.37165937E+03</pdfrwt>
<totfact> 0.25087011E+03</totfact>
</mgrwt>
</event>
<event>
 4    1  0.3064919E-004  0.2029235E+03  0.7818608E-02  0.1147296E+00
         -1   -1    0    0    0  501 -0.00000000000E+00  0.00000000000E+00  0.36553447595E+02  0.36553447943E+02  0.50400000000E-02 0. -1.
          1   -1    0    0  501    0  0.00000000000E+00 -0.00000000000E+00 -0.28162833118E+03  0.28162833122E+03  0.50400000000E-02 0.  1.
    5000001    1    1    2    0    0 -0.18233041532E+02  0.63491689171E+02 -0.12040583597E+03  0.15744905123E+03  0.77000000000E+02 0.  0.
   -5000001    1    1    2    0    0  0.18233041532E+02 -0.63491689171E+02 -0.12466904761E+03  0.16073272794E+03  0.77000000000E+02 0.  0.
<mgrwt>
<rscale>  0 0.20292350E+03</rscale>
<asrwt>0</asrwt>
<pdfrwt beam="1">  1        1 0.43327434E-01 0.20292350E+03</pdfrwt>
<pdfrwt beam="2">  1       -1 0.56236075E-02 0.20292350E+03</pdfrwt>
<totfact> 0.13578370E+04</totfact>
</mgrwt>
</event>
<event>
 4    1  0.3064919E-004  0.2085726E+03  0.7818608E-02  0.1142701E+00
         -1   -1    0    0    0  501 -0.00000000000E+00  0.00000000000E+00  0.78616605210E+02  0.78616605372E+02  0.50400000000E-02 0. -1.
          1   -1    0    0  501    0  0.00000000000E+00 -0.00000000000E+00 -0.13833765061E+03  0.13833765071E+03  0.50400000000E-02 0.  1.
    5000001    1    1    2    0    0  0.41058796805E+02  0.54484138527E+02 -0.47644056806E+02  0.11337240535E+03  0.77000000000E+02 0.  0.
   -5000001    1    1    2    0    0 -0.41058796805E+02 -0.54484138527E+02 -0.12076988597E+02  0.10358185073E+03  0.77000000000E+02 0.  0.
<mgrwt>
<rscale>  0 0.20857264E+03</rscale>
<asrwt>0</asrwt>
<pdfrwt beam="1">  1        1 0.21282716E-01 0.20857264E+03</pdfrwt>
<pdfrwt beam="2">  1       -1 0.12094862E-01 0.20857264E+03</pdfrwt>
<totfact> 0.10351792E+04</totfact>
</mgrwt>
</event>
<event>
 4    1  0.3064919E-004  0.1698239E+03  0.7818608E-02  0.1178032E+00
         -1   -1    0    0    0  501 -0.00000000000E+00  0.00000000000E+00  0.62947132269E+02  0.62947132471E+02  0.50400000000E-02 0.  1.
          1   -1    0    0  501    0  0.00000000000E+00 -0.00000000000E+00 -0.11454114544E+03  0.11454114555E+03  0.50400000000E-02 0. -1.
    5000001    1    1    2    0    0 -0.34000669439E+02  0.53055529338E+01 -0.15512028510E+02  0.85754401885E+02  0.77000000000E+02 0.  0.
   -5000001    1    1    2    0    0  0.34000669439E+02 -0.53055529338E+01 -0.36081984664E+02  0.91733876139E+02  0.77000000000E+02 0.  0.
<mgrwt>
<rscale>  0 0.16982387E+03</rscale>
<asrwt>0</asrwt>
<pdfrwt beam="1">  1        1 0.17621715E-01 0.16982387E+03</pdfrwt>
<pdfrwt beam="2">  1       -1 0.96841743E-02 0.16982387E+03</pdfrwt>
<totfact> 0.18303227E+04</totfact>
</mgrwt>
</event>
<event>
 4    1  0.3064919E-004  0.2559847E+03  0.7818608E-02  0.1109580E+00
         -1   -1    0    0    0  501 -0.00000000000E+00  0.00000000000E+00  0.48908383225E+02  0.48908383485E+02  0.50400000000E-02 0. -1.
          1   -1    0    0  501    0  0.00000000000E+00 -0.00000000000E+00 -0.33495370531E+03  0.33495370535E+03  0.50400000000E-02 0.  1.
    5000001    1    1    2    0    0 -0.90908695940E+02  0.40091414011E+02 -0.10686725808E+03  0.16498885818E+03  0.77000000000E+02 0.  0.
   -5000001    1    1    2    0    0  0.90908695940E+02 -0.40091414011E+02 -0.17917806400E+03  0.21887323065E+03  0.77000000000E+02 0.  0.
<mgrwt>
<rscale>  0 0.25598472E+03</rscale>
<asrwt>0</asrwt>
<pdfrwt beam="1">  1        1 0.51531338E-01 0.25598472E+03</pdfrwt>
<pdfrwt beam="2">  1       -1 0.75243669E-02 0.25598472E+03</pdfrwt>
<totfact> 0.71260853E+03</totfact>
</mgrwt>
</event>
<event>
 4    1  0.3064919E-004  0.1853129E+03  0.7818608E-02  0.1162758E+00
         -1   -1    0    0    0  501 -0.00000000000E+00  0.00000000000E+00  0.14543281443E+02  0.14543282316E+02  0.50400000000E-02 0. -1.
          1   -1    0    0  501    0  0.00000000000E+00 -0.00000000000E+00 -0.59032195310E+03  0.59032195312E+03  0.50400000000E-02 0.  1.
    5000001    1    1    2    0    0  0.36120100581E+02 -0.30200825313E+02 -0.21946412963E+03  0.23729782070E+03  0.77000000000E+02 0.  0.
   -5000001    1    1    2    0    0 -0.36120100581E+02  0.30200825313E+02 -0.35631454203E+03  0.36756741474E+03  0.77000000000E+02 0.  0.
<mgrwt>
<rscale>  0 0.18531291E+03</rscale>
<asrwt>0</asrwt>
<pdfrwt beam="1">  1        1 0.90818744E-01 0.18531291E+03</pdfrwt>
<pdfrwt beam="2">  1       -1 0.22374284E-02 0.18531291E+03</pdfrwt>
<totfact> 0.20256029E+04</totfact>
</mgrwt>
</event>
<event>
 4    1  0.3064919E-004  0.1772849E+03  0.7818608E-02  0.1170457E+00
          1   -1    0    0  501    0  0.00000000000E+00  0.00000000000E+00  0.14157411825E+04  0.14157411825E+04  0.50400000000E-02 0. -1.
         -1   -1    0    0    0  501 -0.00000000000E+00 -0.00000000000E+00 -0.55500831398E+01  0.55500854282E+01  0.50400000000E-02 0.  1.
    5000001    1    1    2    0    0  0.12996323216E+02  0.40061980238E+02  0.60540846425E+03  0.61173709653E+03  0.77000000000E+02 0.  0.
   -5000001    1    1    2    0    0 -0.12996323216E+02 -0.40061980238E+02  0.80478263507E+03  0.80955417137E+03  0.77000000000E+02 0.  0.
<mgrwt>
<rscale>  0 0.17728489E+03</rscale>
<asrwt>0</asrwt>
<pdfrwt beam="1">  1        1 0.21780653E+00 0.17728489E+03</pdfrwt>
<pdfrwt beam="2">  1       -1 0.85385836E-03 0.17728489E+03</pdfrwt>
<totfact> 0.18840329E+04</totfact>
</mgrwt>
</event>
<event>
 4    1  0.3064919E-004  0.1941185E+03  0.7818608E-02  0.1154798E+00
          1   -1    0    0  501    0  0.00000000000E+00  0.00000000000E+00  0.45967326471E+02  0.45967326748E+02  0.50400000000E-02 0.  1.
         -1   -1    0    0    0  501 -0.00000000000E+00 -0.00000000000E+00 -0.20493899145E+03  0.20493899151E+03  0.50400000000E-02 0. -1.
    5000001    1    1    2    0    0  0.67716136005E+01 -0.23881184371E+02 -0.14879467864E+03  0.16936653185E+03  0.77000000000E+02 0.  0.
   -5000001    1    1    2    0    0 -0.67716136005E+01  0.23881184371E+02 -0.10176986340E+02  0.81539786416E+02  0.77000000000E+02 0.  0.
<mgrwt>
<rscale>  0 0.19411850E+03</rscale>
<asrwt>0</asrwt>
<pdfrwt beam="1">  1        1 0.70718965E-02 0.19411850E+03</pdfrwt>
<pdfrwt beam="2">  1       -1 0.31529075E-01 0.19411850E+03</pdfrwt>
<totfact> 0.93549507E+03</totfact>
</mgrwt>
</event>
<event>
 4    1  0.3064919E-004  0.1820380E+03  0.7818608E-02  0.1165845E+00
         -1   -1    0    0    0  501 -0.00000000000E+00  0.00000000000E+00  0.58095895179E+02  0.58095895398E+02  0.50400000000E-02 0. -1.
          1   -1    0    0  501    0  0.00000000000E+00 -0.00000000000E+00 -0.14259968895E+03  0.14259968904E+03  0.50400000000E-02 0.  1.
    5000001    1    1    2    0    0  0.10692987958E+02 -0.42754860118E+02 -0.64660958596E+02  0.10978323015E+03  0.77000000000E+02 0.  0.
   -5000001    1    1    2    0    0 -0.10692987958E+02  0.42754860118E+02 -0.19842835179E+02  0.90912354293E+02  0.77000000000E+02 0.  0.
<mgrwt>
<rscale>  0 0.18203798E+03</rscale>
<asrwt>0</asrwt>
<pdfrwt beam="1">  1        1 0.21938414E-01 0.18203798E+03</pdfrwt>
<pdfrwt beam="2">  1       -1 0.89378301E-02 0.18203798E+03</pdfrwt>
<totfact> 0.15719596E+04</totfact>
</mgrwt>
</event>
<event>
 4    1  0.3064919E-004  0.2187938E+03  0.7818608E-02  0.1134786E+00
          1   -1    0    0  501    0  0.00000000000E+00  0.00000000000E+00  0.12237646895E+04  0.12237646896E+04  0.50400000000E-02 0.  1.
         -1   -1    0    0    0  501 -0.00000000000E+00 -0.00000000000E+00 -0.97793985915E+01  0.97793998902E+01  0.50400000000E-02 0. -1.
    5000001    1    1    2    0    0 -0.81264464271E+01 -0.71228277908E+02  0.43793213496E+03  0.45039211975E+03  0.77000000000E+02 0.  0.
   -5000001    1    1    2    0    0  0.81264464271E+01  0.71228277908E+02  0.77605315600E+03  0.78315196970E+03  0.77000000000E+02 0.  0.
<mgrwt>
<rscale>  0 0.21879382E+03</rscale>
<asrwt>0</asrwt>
<pdfrwt beam="1">  1        1 0.18827137E+00 0.21879382E+03</pdfrwt>
<pdfrwt beam="2">  1       -1 0.15045239E-02 0.21879382E+03</pdfrwt>
<totfact> 0.11346535E+04</totfact>
</mgrwt>
</event>
<event>
 4    1  0.3064919E-004  0.3152538E+03  0.7818608E-02  0.1077855E+00
          1   -1    0    0  501    0  0.00000000000E+00  0.00000000000E+00  0.43072662339E+03  0.43072662342E+03  0.50400000000E-02 0. -1.
         -1   -1    0    0    0  501 -0.00000000000E+00 -0.00000000000E+00 -0.57684475339E+02  0.57684475559E+02  0.50400000000E-02 0.  1.
    5000001    1    1    2    0    0  0.80212864406E+02 -0.10550143299E+03  0.24349907626E+03  0.28772461855E+03  0.77000000000E+02 0.  0.
   -5000001    1    1    2    0    0 -0.80212864406E+02  0.10550143299E+03  0.12954307180E+03  0.20068648044E+03  0.77000000000E+02 0.  0.
<mgrwt>
<rscale>  0 0.31525380E+03</rscale>
<asrwt>0</asrwt>
<pdfrwt beam="1">  1        1 0.66265632E-01 0.31525380E+03</pdfrwt>
<pdfrwt beam="2">  1       -1 0.88745350E-02 0.31525380E+03</pdfrwt>
<totfact> 0.40372231E+03</totfact>
</mgrwt>
</event>
<event>
 4    1  0.3064919E-004  0.2204304E+03  0.7818608E-02  0.1133563E+00
          1   -1    0    0  501    0  0.00000000000E+00  0.00000000000E+00  0.77595576775E+02  0.77595576938E+02  0.50400000000E-02 0. -1.
         -1   -1    0    0    0  501 -0.00000000000E+00 -0.00000000000E+00 -0.15654747488E+03  0.15654747496E+03  0.50400000000E-02 0.  1.
    5000001    1    1    2    0    0 -0.55972684058E+02 -0.47949730888E+02 -0.69260880462E+02  0.12711485993E+03  0.77000000000E+02 0.  0.
   -5000001    1    1    2    0    0  0.55972684058E+02  0.47949730888E+02 -0.96910176423E+01  0.10702819197E+03  0.77000000000E+02 0.  0.
<mgrwt>
<rscale>  0 0.22043041E+03</rscale>
<asrwt>0</asrwt>
<pdfrwt beam="1">  1        1 0.11937781E-01 0.22043041E+03</pdfrwt>
<pdfrwt beam="2">  1       -1 0.24084227E-01 0.22043041E+03</pdfrwt>
<totfact> 0.73276117E+03</totfact>
</mgrwt>
</event>
<event>
 4    1  0.3064919E-004  0.2582632E+03  0.7818608E-02  0.1108191E+00
          1   -1    0    0  501    0  0.00000000000E+00  0.00000000000E+00  0.39797744390E+03  0.39797744393E+03  0.50400000000E-02 0.  1.
         -1   -1    0    0    0  501 -0.00000000000E+00 -0.00000000000E+00 -0.41899277401E+02  0.41899277704E+02  0.50400000000E-02 0. -1.
    5000001    1    1    2    0    0  0.10013022250E+03 -0.21977900936E+02  0.20425292510E+03  0.24115834424E+03  0.77000000000E+02 0.  0.
   -5000001    1    1    2    0    0 -0.10013022250E+03  0.21977900936E+02  0.15182524140E+03  0.19871837739E+03  0.77000000000E+02 0.  0.
<mgrwt>
<rscale>  0 0.25826318E+03</rscale>
<asrwt>0</asrwt>
<pdfrwt beam="1">  1        1 0.61227298E-01 0.25826318E+03</pdfrwt>
<pdfrwt beam="2">  1       -1 0.64460428E-02 0.25826318E+03</pdfrwt>
<totfact> 0.72397515E+03</totfact>
</mgrwt>
</event>
<event>
 4    1  0.3064919E-004  0.3299053E+03  0.7818608E-02  0.1071179E+00
         -1   -1    0    0    0  501 -0.00000000000E+00  0.00000000000E+00  0.13527246579E+02  0.13527247518E+02  0.50400000000E-02 0. -1.
          1   -1    0    0  501    0  0.00000000000E+00 -0.00000000000E+00 -0.20114493127E+04  0.20114493127E+04  0.50400000000E-02 0.  1.
    5000001    1    1    2    0    0 -0.11027905537E+03  0.90033869013E+02 -0.80361999674E+03  0.81975707791E+03  0.77000000000E+02 0.  0.
   -5000001    1    1    2    0    0  0.11027905537E+03 -0.90033869013E+02 -0.11943020694E+04  0.12052194823E+04  0.77000000000E+02 0.  0.
<mgrwt>
<rscale>  0 0.32990527E+03</rscale>
<asrwt>0</asrwt>
<pdfrwt beam="1">  1        1 0.30945350E+00 0.32990527E+03</pdfrwt>
<pdfrwt beam="2">  1       -1 0.20811165E-02 0.32990527E+03</pdfrwt>
<totfact> 0.21397022E+03</totfact>
</mgrwt>
</event>
<event>
 4    1  0.3064919E-004  0.2429409E+03  0.7818608E-02  0.1117849E+00
          1   -1    0    0  501    0  0.00000000000E+00  0.00000000000E+00  0.68043605458E+02  0.68043605645E+02  0.50400000000E-02 0.  1.
         -1   -1    0    0    0  501 -0.00000000000E+00 -0.00000000000E+00 -0.21684722281E+03  0.21684722287E+03  0.50400000000E-02 0. -1.
    5000001    1    1    2    0    0  0.69295341556E+02 -0.51533586193E+02 -0.31020545617E+02  0.11978659824E+03  0.77000000000E+02 0.  0.
   -5000001    1    1    2    0    0 -0.69295341556E+02  0.51533586193E+02 -0.11778307174E+03  0.16510423028E+03  0.77000000000E+02 0.  0.
<mgrwt>
<rscale>  0 0.24294087E+03</rscale>
<asrwt>0</asrwt>
<pdfrwt beam="1">  1        1 0.10468247E-01 0.24294087E+03</pdfrwt>
<pdfrwt beam="2">  1       -1 0.33361111E-01 0.24294087E+03</pdfrwt>
<totfact> 0.50642180E+03</totfact>
</mgrwt>
</event>
<event>
 4    1  0.3064919E-004  0.1870280E+03  0.7818608E-02  0.1161170E+00
          1   -1    0    0  501    0  0.00000000000E+00  0.00000000000E+00  0.16729593687E+03  0.16729593695E+03  0.50400000000E-02 0. -1.
         -1   -1    0    0    0  501 -0.00000000000E+00 -0.00000000000E+00 -0.52271825749E+02  0.52271825992E+02  0.50400000000E-02 0.  1.
    5000001    1    1    2    0    0  0.25564734437E+02 -0.43631337751E+02  0.38632631159E+02  0.99893590740E+02  0.77000000000E+02 0.  0.
   -5000001    1    1    2    0    0 -0.25564734437E+02  0.43631337751E+02  0.76391479965E+02  0.11967417220E+03  0.77000000000E+02 0.  0.
<mgrwt>
<rscale>  0 0.18702796E+03</rscale>
<asrwt>0</asrwt>
<pdfrwt beam="1">  1        1 0.25737837E-01 0.18702796E+03</pdfrwt>
<pdfrwt beam="2">  1       -1 0.80418193E-02 0.18702796E+03</pdfrwt>
<totfact> 0.15110397E+04</totfact>
</mgrwt>
</event>
<event>
 4    1  0.3064919E-004  0.1821816E+03  0.7818608E-02  0.1165708E+00
         -1   -1    0    0    0  501 -0.00000000000E+00  0.00000000000E+00  0.92783963535E+02  0.92783963672E+02  0.50400000000E-02 0.  1.
          1   -1    0    0  501    0  0.00000000000E+00 -0.00000000000E+00 -0.89428509111E+02  0.89428509253E+02  0.50400000000E-02 0. -1.
    5000001    1    1    2    0    0 -0.97932050217E+01 -0.44414925767E+02 -0.15643958805E+02  0.90787256499E+02  0.77000000000E+02 0.  0.
   -5000001    1    1    2    0    0  0.97932050217E+01  0.44414925767E+02  0.18999413229E+02  0.91425216426E+02  0.77000000000E+02 0.  0.
<mgrwt>
<rscale>  0 0.18218157E+03</rscale>
<asrwt>0</asrwt>
<pdfrwt beam="1">  1        1 0.13758232E-01 0.18218157E+03</pdfrwt>
<pdfrwt beam="2">  1       -1 0.14274456E-01 0.18218157E+03</pdfrwt>
<totfact> 0.13917514E+04</totfact>
</mgrwt>
</event>
<event>
 4    1  0.3064919E-004  0.1722527E+03  0.7818608E-02  0.1175519E+00
         -1   -1    0    0    0  501 -0.00000000000E+00  0.00000000000E+00  0.41601655571E+01  0.41601686101E+01  0.50400000000E-02 0.  1.
          1   -1    0    0  501    0  0.00000000000E+00 -0.00000000000E+00 -0.17830413591E+04  0.17830413591E+04  0.50400000000E-02 0. -1.
    5000001    1    1    2    0    0  0.37683255646E+02 -0.78908639938E+00 -0.97506146369E+03  0.97882302199E+03  0.77000000000E+02 0.  0.
   -5000001    1    1    2    0    0 -0.37683255646E+02  0.78908639938E+00 -0.80381972985E+03  0.80837850572E+03  0.77000000000E+02 0.  0.
<mgrwt>
<rscale>  0 0.17225272E+03</rscale>
<asrwt>0</asrwt>
<pdfrwt beam="1">  1        1 0.27431344E+00 0.17225272E+03</pdfrwt>
<pdfrwt beam="2">  1       -1 0.64002713E-03 0.17225272E+03</pdfrwt>
<totfact> 0.16400136E+04</totfact>
</mgrwt>
</event>
<event>
 4    1  0.3064919E-004  0.3260656E+03  0.7818608E-02  0.1072891E+00
          1   -1    0    0  501    0  0.00000000000E+00  0.00000000000E+00  0.52957870887E+03  0.52957870889E+03  0.50400000000E-02 0.  1.
         -1   -1    0    0    0  501 -0.00000000000E+00 -0.00000000000E+00 -0.50190256205E+02  0.50190256458E+02  0.50400000000E-02 0. -1.
    5000001    1    1    2    0    0 -0.80459733920E+02 -0.10205311896E+03  0.34875390314E+03  0.38006169608E+03  0.77000000000E+02 0.  0.
   -5000001    1    1    2    0    0  0.80459733920E+02  0.10205311896E+03  0.13063454952E+03  0.19970726927E+03  0.77000000000E+02 0.  0.
<mgrwt>
<rscale>  0 0.32606558E+03</rscale>
<asrwt>0</asrwt>
<pdfrwt beam="1">  1        1 0.81473643E-01 0.32606558E+03</pdfrwt>
<pdfrwt beam="2">  1       -1 0.77215783E-02 0.32606558E+03</pdfrwt>
<totfact> 0.38045761E+03</totfact>
</mgrwt>
</event>
<event>
 4    1  0.3064919E-004  0.2992319E+03  0.7818608E-02  0.1085625E+00
         -1   -1    0    0    0  501 -0.00000000000E+00  0.00000000000E+00  0.53215479617E+02  0.53215479855E+02  0.50400000000E-02 0.  1.
          1   -1    0    0  501    0  0.00000000000E+00 -0.00000000000E+00 -0.42064707210E+03  0.42064707213E+03  0.50400000000E-02 0. -1.
    5000001    1    1    2    0    0 -0.11059742397E+03 -0.58647790253E+02 -0.13935863850E+03  0.20253686977E+03  0.77000000000E+02 0.  0.
   -5000001    1    1    2    0    0  0.11059742397E+03  0.58647790253E+02 -0.22807295398E+03  0.27132568221E+03  0.77000000000E+02 0.  0.
<mgrwt>
<rscale>  0 0.29923192E+03</rscale>
<asrwt>0</asrwt>
<pdfrwt beam="1">  1        1 0.64714932E-01 0.29923192E+03</pdfrwt>
<pdfrwt beam="2">  1       -1 0.81869972E-02 0.29923192E+03</pdfrwt>
<totfact> 0.47069095E+03</totfact>
</mgrwt>
</event>
<event>
 4    1  0.3064919E-004  0.1616021E+03  0.7818608E-02  0.1186900E+00
         -1   -1    0    0    0  501 -0.00000000000E+00  0.00000000000E+00  0.50827392219E+03  0.50827392222E+03  0.50400000000E-02 0. -1.
          1   -1    0    0  501    0  0.00000000000E+00 -0.00000000000E+00 -0.12845053285E+02  0.12845054274E+02  0.50400000000E-02 0.  1.
    5000001    1    1    2    0    0  0.18957457499E+02 -0.11264948858E+02  0.21335632283E+03  0.22789516177E+03  0.77000000000E+02 0.  0.
   -5000001    1    1    2    0    0 -0.18957457499E+02  0.11264948858E+02  0.28207254608E+03  0.29322381472E+03  0.77000000000E+02 0.  0.
<mgrwt>
<rscale>  0 0.16160205E+03</rscale>
<asrwt>0</asrwt>
<pdfrwt beam="1">  1        1 0.19761621E-02 0.16160205E+03</pdfrwt>
<pdfrwt beam="2">  1       -1 0.78195987E-01 0.16160205E+03</pdfrwt>
<totfact> 0.10076335E+04</totfact>
</mgrwt>
</event>
<event>
 4    1  0.3064919E-004  0.1831532E+03  0.7818608E-02  0.1164786E+00
         -1   -1    0    0    0  501 -0.00000000000E+00  0.00000000000E+00  0.11253516959E+02  0.11253518088E+02  0.50400000000E-02 0.  1.
          1   -1    0    0  501    0  0.00000000000E+00 -0.00000000000E+00 -0.74521379368E+03  0.74521379370E+03  0.50400000000E-02 0. -1.
    5000001    1    1    2    0    0 -0.90614737471E+01 -0.45543655741E+02 -0.43863022255E+03  0.44775194809E+03  0.77000000000E+02 0.  0.
   -5000001    1    1    2    0    0  0.90614737471E+01  0.45543655741E+02 -0.29533005417E+03  0.30871536369E+03  0.77000000000E+02 0.  0.
<mgrwt>
<rscale>  0 0.18315323E+03</rscale>
<asrwt>0</asrwt>
<pdfrwt beam="1">  1        1 0.11464824E+00 0.18315323E+03</pdfrwt>
<pdfrwt beam="2">  1       -1 0.17313110E-02 0.18315323E+03</pdfrwt>
<totfact> 0.21096551E+04</totfact>
</mgrwt>
</event>
<event>
 4    1  0.3064919E-004  0.2385124E+03  0.7818608E-02  0.1120788E+00
         -1   -1    0    0    0  501 -0.00000000000E+00  0.00000000000E+00  0.58890744044E+02  0.58890744260E+02  0.50400000000E-02 0. -1.
          1   -1    0    0  501    0  0.00000000000E+00 -0.00000000000E+00 -0.24149868577E+03  0.24149868582E+03  0.50400000000E-02 0.  1.
    5000001    1    1    2    0    0  0.22551296037E+02 -0.87204741639E+02 -0.10819203839E+03  0.16046103916E+03  0.77000000000E+02 0.  0.
   -5000001    1    1    2    0    0 -0.22551296037E+02  0.87204741639E+02 -0.74415903339E+02  0.13992839093E+03  0.77000000000E+02 0.  0.
<mgrwt>
<rscale>  0 0.23851237E+03</rscale>
<asrwt>0</asrwt>
<pdfrwt beam="1">  1        1 0.37153643E-01 0.23851237E+03</pdfrwt>
<pdfrwt beam="2">  1       -1 0.90601146E-02 0.23851237E+03</pdfrwt>
<totfact> 0.80645371E+03</totfact>
</mgrwt>
</event>
<event>
 4    1  0.3064919E-004  0.1627259E+03  0.7818608E-02  0.1185653E+00
          1   -1    0    0  501    0  0.00000000000E+00  0.00000000000E+00  0.68420470325E+02  0.68420470511E+02  0.50400000000E-02 0.  1.
         -1   -1    0    0    0  501 -0.00000000000E+00 -0.00000000000E+00 -0.96753581434E+02  0.96753581565E+02  0.50400000000E-02 0. -1.
    5000001    1    1    2    0    0 -0.25561429346E+02 -0.12962047128E+01 -0.20244866138E+02  0.83629668311E+02  0.77000000000E+02 0.  0.
   -5000001    1    1    2    0    0  0.25561429346E+02  0.12962047128E+01 -0.80882449713E+01  0.81544383765E+02  0.77000000000E+02 0.  0.
<mgrwt>
<rscale>  0 0.16272585E+03</rscale>
<asrwt>0</asrwt>
<pdfrwt beam="1">  1        1 0.10526226E-01 0.16272585E+03</pdfrwt>
<pdfrwt beam="2">  1       -1 0.14885166E-01 0.16272585E+03</pdfrwt>
<totfact> 0.18375799E+04</totfact>
</mgrwt>
</event>
<event>
 4    1  0.3064919E-004  0.6039596E+03  0.7818608E-02  0.9897225E-01
          1   -1    0    0  501    0  0.00000000000E+00  0.00000000000E+00  0.38351886830E+02  0.38351887162E+02  0.50400000000E-02 0. -1.
         -1   -1    0    0    0  501 -0.00000000000E+00 -0.00000000000E+00 -0.23777655582E+04  0.23777655582E+04  0.50400000000E-02 0.  1.
    5000001    1    1    2    0    0 -0.77770227023E+01  0.24207124542E+03 -0.18222093820E+04  0.18398464614E+04  0.77000000000E+02 0.  0.
   -5000001    1    1    2    0    0  0.77770227023E+01 -0.24207124542E+03 -0.51720428940E+03  0.57627098392E+03  0.77000000000E+02 0.  0.
<mgrwt>
<rscale>  0 0.60395959E+03</rscale>
<asrwt>0</asrwt>
<pdfrwt beam="1">  1        1 0.59002922E-02 0.60395959E+03</pdfrwt>
<pdfrwt beam="2">  1       -1 0.36580997E+00 0.60395959E+03</pdfrwt>
<totfact> 0.18379023E+01</totfact>
</mgrwt>
</event>
<event>
 4    1  0.3064919E-004  0.3876674E+03  0.7818608E-02  0.1048136E+00
         -1   -1    0    0    0  501 -0.00000000000E+00  0.00000000000E+00  0.12064417009E+03  0.12064417020E+03  0.50400000000E-02 0. -1.
          1   -1    0    0  501    0  0.00000000000E+00 -0.00000000000E+00 -0.31142407147E+03  0.31142407151E+03  0.50400000000E-02 0.  1.
    5000001    1    1    2    0    0 -0.14319151478E+03  0.18306798951E+02  0.20454792554E+02  0.16488282910E+03  0.77000000000E+02 0.  0.
   -5000001    1    1    2    0    0  0.14319151478E+03 -0.18306798951E+02 -0.21123469393E+03  0.26718541261E+03  0.77000000000E+02 0.  0.
<mgrwt>
<rscale>  0 0.38766738E+03</rscale>
<asrwt>0</asrwt>
<pdfrwt beam="1">  1        1 0.47911396E-01 0.38766738E+03</pdfrwt>
<pdfrwt beam="2">  1       -1 0.18560642E-01 0.38766738E+03</pdfrwt>
<totfact> 0.19124445E+03</totfact>
</mgrwt>
</event>
<event>
 4    1  0.3064919E-004  0.2089143E+03  0.7818608E-02  0.1142429E+00
          1   -1    0    0  501    0  0.00000000000E+00  0.00000000000E+00  0.36500280180E+03  0.36500280184E+03  0.50400000000E-02 0. -1.
         -1   -1    0    0    0  501 -0.00000000000E+00 -0.00000000000E+00 -0.29893723821E+02  0.29893724246E+02  0.50400000000E-02 0.  1.
    5000001    1    1    2    0    0  0.24675116044E+02 -0.37530759994E+02  0.27047893091E+03  0.28478987229E+03  0.77000000000E+02 0.  0.
   -5000001    1    1    2    0    0 -0.24675116044E+02  0.37530759994E+02  0.64630147077E+02  0.11010665379E+03  0.77000000000E+02 0.  0.
<mgrwt>
<rscale>  0 0.20891427E+03</rscale>
<asrwt>0</asrwt>
<pdfrwt beam="1">  1        1 0.56154279E-01 0.20891427E+03</pdfrwt>
<pdfrwt beam="2">  1       -1 0.45990343E-02 0.20891427E+03</pdfrwt>
<totfact> 0.13264173E+04</totfact>
</mgrwt>
</event>
<event>
 4    1  0.3064919E-004  0.2056577E+03  0.7818608E-02  0.1145051E+00
          1   -1    0    0  501    0  0.00000000000E+00  0.00000000000E+00  0.17986670588E+04  0.17986670589E+04  0.50400000000E-02 0.  1.
         -1   -1    0    0    0  501 -0.00000000000E+00 -0.00000000000E+00 -0.58786712820E+01  0.58786734425E+01  0.50400000000E-02 0. -1.
    5000001    1    1    2    0    0 -0.33967917165E+02 -0.33865506648E+02  0.13212184597E+04  0.13243292303E+04  0.77000000000E+02 0.  0.
   -5000001    1    1    2    0    0  0.33967917165E+02  0.33865506648E+02  0.47156992788E+03  0.48021650202E+03  0.77000000000E+02 0.  0.
<mgrwt>
<rscale>  0 0.20565772E+03</rscale>
<asrwt>0</asrwt>
<pdfrwt beam="1">  1        1 0.27671810E+00 0.20565772E+03</pdfrwt>
<pdfrwt beam="2">  1       -1 0.90441084E-03 0.20565772E+03</pdfrwt>
<totfact> 0.98394205E+03</totfact>
</mgrwt>
</event>
<event>
 4    1  0.3064919E-004  0.1845951E+03  0.7818608E-02  0.1163429E+00
          1   -1    0    0  501    0  0.00000000000E+00  0.00000000000E+00  0.60810330253E+03  0.60810330255E+03  0.50400000000E-02 0.  1.
         -1   -1    0    0    0  501 -0.00000000000E+00 -0.00000000000E+00 -0.14008861404E+02  0.14008862311E+02  0.50400000000E-02 0. -1.
    5000001    1    1    2    0    0 -0.17922022597E+02 -0.32366710613E+02  0.41481111810E+03  0.42351631202E+03  0.77000000000E+02 0.  0.
   -5000001    1    1    2    0    0  0.17922022597E+02  0.32366710613E+02  0.17928332303E+03  0.19859585284E+03  0.77000000000E+02 0.  0.
<mgrwt>
<rscale>  0 0.18459507E+03</rscale>
<asrwt>0</asrwt>
<pdfrwt beam="1">  1        1 0.93554362E-01 0.18459507E+03</pdfrwt>
<pdfrwt beam="2">  1       -1 0.21552093E-02 0.18459507E+03</pdfrwt>
<totfact> 0.20529212E+04</totfact>
</mgrwt>
</event>
<event>
 4    1  0.3064919E-004  0.1925799E+03  0.7818608E-02  0.1156155E+00
         -1   -1    0    0    0  501 -0.00000000000E+00  0.00000000000E+00  0.10678898853E+02  0.10678900043E+02  0.50400000000E-02 0.  1.
          1   -1    0    0  501    0  0.00000000000E+00 -0.00000000000E+00 -0.86823089251E+03  0.86823089252E+03  0.50400000000E-02 0. -1.
    5000001    1    1    2    0    0  0.42429235055E+02 -0.32682999991E+02 -0.52817330527E+03  0.53643681722E+03  0.77000000000E+02 0.  0.
   -5000001    1    1    2    0    0 -0.42429235055E+02  0.32682999991E+02 -0.32937868838E+03  0.34247297534E+03  0.77000000000E+02 0.  0.
<mgrwt>
<rscale>  0 0.19257986E+03</rscale>
<asrwt>0</asrwt>
<pdfrwt beam="1">  1        1 0.13357393E+00 0.19257986E+03</pdfrwt>
<pdfrwt beam="2">  1       -1 0.16429083E-02 0.19257986E+03</pdfrwt>
<totfact> 0.18081649E+04</totfact>
</mgrwt>
</event>
<event>
 4    1  0.3064919E-004  0.1600954E+03  0.7818608E-02  0.1188589E+00
         -1   -1    0    0    0  501 -0.00000000000E+00  0.00000000000E+00  0.69773176437E+01  0.69773194640E+01  0.50400000000E-02 0.  1.
          1   -1    0    0  501    0  0.00000000000E+00 -0.00000000000E+00 -0.91835159104E+03  0.91835159105E+03  0.50400000000E-02 0. -1.
    5000001    1    1    2    0    0  0.48573981185E+01  0.11166002015E+02 -0.56074040752E+03  0.56613344588E+03  0.77000000000E+02 0.  0.
   -5000001    1    1    2    0    0 -0.48573981185E+01 -0.11166002015E+02 -0.35063386588E+03  0.35919546464E+03  0.77000000000E+02 0.  0.
<mgrwt>
<rscale>  0 0.16009537E+03</rscale>
<asrwt>0</asrwt>
<pdfrwt beam="1">  1        1 0.14128476E+00 0.16009537E+03</pdfrwt>
<pdfrwt beam="2">  1       -1 0.10734344E-02 0.16009537E+03</pdfrwt>
<totfact> 0.30100095E+04</totfact>
</mgrwt>
</event>
<event>
 4    1  0.3064919E-004  0.6832293E+03  0.7818608E-02  0.9746350E-01
          1   -1    0    0  501    0  0.00000000000E+00  0.00000000000E+00  0.17013753101E+03  0.17013753108E+03  0.50400000000E-02 0.  1.
         -1   -1    0    0    0  501 -0.00000000000E+00 -0.00000000000E+00 -0.68591911581E+03  0.68591911583E+03  0.50400000000E-02 0. -1.
    5000001    1    1    2    0    0 -0.59421152216E+02  0.32730456511E+03 -0.24460512790E+03  0.42002359490E+03  0.77000000000E+02 0.  0.
   -5000001    1    1    2    0    0  0.59421152216E+02 -0.32730456511E+03 -0.27117645690E+03  0.43603305202E+03  0.77000000000E+02 0.  0.
<mgrwt>
<rscale>  0 0.68322935E+03</rscale>
<asrwt>0</asrwt>
<pdfrwt beam="1">  1        1 0.26175005E-01 0.68322935E+03</pdfrwt>
<pdfrwt beam="2">  1       -1 0.10552602E+00 0.68322935E+03</pdfrwt>
<totfact> 0.15726796E+02</totfact>
</mgrwt>
</event>
<event>
 4    1  0.3064919E-004  0.2187215E+03  0.7818608E-02  0.1134840E+00
          1   -1    0    0  501    0  0.00000000000E+00  0.00000000000E+00  0.10437757309E+04  0.10437757309E+04  0.50400000000E-02 0. -1.
         -1   -1    0    0    0  501 -0.00000000000E+00 -0.00000000000E+00 -0.11458186687E+02  0.11458187796E+02  0.50400000000E-02 0.  1.
    5000001    1    1    2    0    0  0.55908971694E+02 -0.31566071660E+02  0.72692873068E+03  0.73380965480E+03  0.77000000000E+02 0.  0.
   -5000001    1    1    2    0    0 -0.55908971694E+02  0.31566071660E+02  0.30538881356E+03  0.32142426393E+03  0.77000000000E+02 0.  0.
<mgrwt>
<rscale>  0 0.21872154E+03</rscale>
<asrwt>0</asrwt>
<pdfrwt beam="1">  1        1 0.16058089E+00 0.21872154E+03</pdfrwt>
<pdfrwt beam="2">  1       -1 0.17627979E-02 0.21872154E+03</pdfrwt>
<totfact> 0.12096635E+04</totfact>
</mgrwt>
</event>
<event>
 4    1  0.3064919E-004  0.1882218E+03  0.7818608E-02  0.1160075E+00
         -1   -1    0    0    0  501 -0.00000000000E+00  0.00000000000E+00  0.87962473111E+01  0.87962487550E+01  0.50400000000E-02 0.  1.
          1   -1    0    0  501    0  0.00000000000E+00 -0.00000000000E+00 -0.10068906996E+04  0.10068906996E+04  0.50400000000E-02 0. -1.
    5000001    1    1    2    0    0 -0.28226587625E+02 -0.20002994017E+02 -0.72355870624E+03  0.72846623903E+03  0.77000000000E+02 0.  0.
   -5000001    1    1    2    0    0  0.28226587625E+02  0.20002994017E+02 -0.27453574605E+03  0.28722070934E+03  0.77000000000E+02 0.  0.
<mgrwt>
<rscale>  0 0.18822179E+03</rscale>
<asrwt>0</asrwt>
<pdfrwt beam="1">  1        1 0.15490617E+00 0.18822179E+03</pdfrwt>
<pdfrwt beam="2">  1       -1 0.13532697E-02 0.18822179E+03</pdfrwt>
<totfact> 0.18728271E+04</totfact>
</mgrwt>
</event>
<event>
 4    1  0.3064919E-004  0.2187849E+03  0.7818608E-02  0.1134792E+00
         -1   -1    0    0    0  501 -0.00000000000E+00  0.00000000000E+00  0.11054579499E+04  0.11054579499E+04  0.50400000000E-02 0.  1.
          1   -1    0    0  501    0  0.00000000000E+00 -0.00000000000E+00 -0.10825111571E+02  0.10825112744E+02  0.50400000000E-02 0. -1.
    5000001    1    1    2    0    0 -0.38756895164E+02  0.20731884587E+02  0.87424721447E+03  0.87873152895E+03  0.77000000000E+02 0.  0.
   -5000001    1    1    2    0    0  0.38756895164E+02 -0.20731884587E+02  0.22038562383E+03  0.23755153367E+03  0.77000000000E+02 0.  0.
<mgrwt>
<rscale>  0 0.21878488E+03</rscale>
<asrwt>0</asrwt>
<pdfrwt beam="1">  1        1 0.16654023E-02 0.21878488E+03</pdfrwt>
<pdfrwt beam="2">  1       -1 0.17007041E+00 0.21878488E+03</pdfrwt>
<totfact> 0.20905444E+03</totfact>
</mgrwt>
</event>
<event>
 4    1  0.3064919E-004  0.1636119E+03  0.7818608E-02  0.1184678E+00
         -1   -1    0    0    0  501 -0.00000000000E+00  0.00000000000E+00  0.67041925897E+01  0.67041944842E+01  0.50400000000E-02 0. -1.
          1   -1    0    0  501    0  0.00000000000E+00 -0.00000000000E+00 -0.99821297512E+03  0.99821297513E+03  0.50400000000E-02 0.  1.
    5000001    1    1    2    0    0  0.24814682036E+02 -0.26408198842E+01 -0.56855049501E+03  0.57428338627E+03  0.77000000000E+02 0.  0.
   -5000001    1    1    2    0    0 -0.24814682036E+02  0.26408198842E+01 -0.42295828752E+03  0.43063378335E+03  0.77000000000E+02 0.  0.
<mgrwt>
<rscale>  0 0.16361189E+03</rscale>
<asrwt>0</asrwt>
<pdfrwt beam="1">  1        1 0.15357111E+00 0.16361189E+03</pdfrwt>
<pdfrwt beam="2">  1       -1 0.10314152E-02 0.16361189E+03</pdfrwt>
<totfact> 0.27809417E+04</totfact>
</mgrwt>
</event>
<event>
 4    1  0.3064919E-004  0.2055811E+03  0.7818608E-02  0.1145114E+00
         -1   -1    0    0    0  501 -0.00000000000E+00  0.00000000000E+00  0.10171510770E+03  0.10171510783E+03  0.50400000000E-02 0. -1.
          1   -1    0    0  501    0  0.00000000000E+00 -0.00000000000E+00 -0.10387737397E+03  0.10387737409E+03  0.50400000000E-02 0.  1.
    5000001    1    1    2    0    0  0.26184138501E+02  0.54957924290E+02 -0.31593732792E+02  0.10311714941E+03  0.77000000000E+02 0.  0.
   -5000001    1    1    2    0    0 -0.26184138501E+02 -0.54957924290E+02  0.29431466522E+02  0.10247533251E+03  0.77000000000E+02 0.  0.
<mgrwt>
<rscale>  0 0.20558111E+03</rscale>
<asrwt>0</asrwt>
<pdfrwt beam="1">  1        1 0.15981135E-01 0.20558111E+03</pdfrwt>
<pdfrwt beam="2">  1       -1 0.15648478E-01 0.20558111E+03</pdfrwt>
<totfact> 0.99859579E+03</totfact>
</mgrwt>
</event>
<event>
 4    1  0.3064919E-004  0.3747358E+03  0.7818608E-02  0.1052897E+00
          1   -1    0    0  501    0  0.00000000000E+00  0.00000000000E+00  0.60736613879E+03  0.60736613881E+03  0.50400000000E-02 0.  1.
         -1   -1    0    0    0  501 -0.00000000000E+00 -0.00000000000E+00 -0.57801600596E+02  0.57801600815E+02  0.50400000000E-02 0. -1.
    5000001    1    1    2    0    0 -0.10408808866E+03 -0.13408170107E+03  0.24084702242E+03  0.30454641842E+03  0.77000000000E+02 0.  0.
   -5000001    1    1    2    0    0  0.10408808866E+03  0.13408170107E+03  0.30871751577E+03  0.36062132120E+03  0.77000000000E+02 0.  0.
<mgrwt>
<rscale>  0 0.37473583E+03</rscale>
<asrwt>0</asrwt>
<pdfrwt beam="1">  1        1 0.93440946E-01 0.37473583E+03</pdfrwt>
<pdfrwt beam="2">  1       -1 0.88925538E-02 0.37473583E+03</pdfrwt>
<totfact> 0.25376453E+03</totfact>
</mgrwt>
</event>
<event>
 4    1  0.3064919E-004  0.2920218E+03  0.7818608E-02  0.1089298E+00
          1   -1    0    0  501    0  0.00000000000E+00  0.00000000000E+00  0.55885332709E+03  0.55885332712E+03  0.50400000000E-02 0.  1.
         -1   -1    0    0    0  501 -0.00000000000E+00 -0.00000000000E+00 -0.38148075108E+02  0.38148075441E+02  0.50400000000E-02 0. -1.
    5000001    1    1    2    0    0 -0.65513277207E+02  0.10524557906E+03  0.26984463863E+03  0.30677964470E+03  0.77000000000E+02 0.  0.
   -5000001    1    1    2    0    0  0.65513277207E+02 -0.10524557906E+03  0.25086061335E+03  0.29022175786E+03  0.77000000000E+02 0.  0.
<mgrwt>
<rscale>  0 0.29202177E+03</rscale>
<asrwt>0</asrwt>
<pdfrwt beam="1">  1        1 0.85977426E-01 0.29202177E+03</pdfrwt>
<pdfrwt beam="2">  1       -1 0.58689353E-02 0.29202177E+03</pdfrwt>
<totfact> 0.53542486E+03</totfact>
</mgrwt>
</event>
<event>
 4    1  0.3064919E-004  0.5126129E+03  0.7818608E-02  0.1010538E+00
         -1   -1    0    0    0  501 -0.00000000000E+00  0.00000000000E+00  0.61077008128E+03  0.61077008130E+03  0.50400000000E-02 0. -1.
          1   -1    0    0  501    0  0.00000000000E+00 -0.00000000000E+00 -0.10755765249E+03  0.10755765261E+03  0.50400000000E-02 0.  1.
    5000001    1    1    2    0    0  0.53676755689E+02  0.18211676951E+03  0.46740869288E+03  0.51034066859E+03  0.77000000000E+02 0.  0.
   -5000001    1    1    2    0    0 -0.53676755689E+02 -0.18211676951E+03  0.35803735913E+02  0.20798706533E+03  0.77000000000E+02 0.  0.
<mgrwt>
<rscale>  0 0.51261290E+03</rscale>
<asrwt>0</asrwt>
<pdfrwt beam="1">  1        1 0.16547331E-01 0.51261290E+03</pdfrwt>
<pdfrwt beam="2">  1       -1 0.93964629E-01 0.51261290E+03</pdfrwt>
<totfact> 0.37687835E+02</totfact>
</mgrwt>
</event>
<event>
 4    1  0.3064919E-004  0.3826716E+03  0.7818608E-02  0.1049951E+00
          1   -1    0    0  501    0  0.00000000000E+00  0.00000000000E+00  0.53488012727E+03  0.53488012729E+03  0.50400000000E-02 0. -1.
         -1   -1    0    0    0  501 -0.00000000000E+00 -0.00000000000E+00 -0.68444098531E+02  0.68444098716E+02  0.50400000000E-02 0.  1.
    5000001    1    1    2    0    0  0.23849379765E+02  0.17349377134E+03  0.22786993594E+03  0.29752745977E+03  0.77000000000E+02 0.  0.
   -5000001    1    1    2    0    0 -0.23849379765E+02 -0.17349377134E+03  0.23856609280E+03  0.30579676624E+03  0.77000000000E+02 0.  0.
<mgrwt>
<rscale>  0 0.38267160E+03</rscale>
<asrwt>0</asrwt>
<pdfrwt beam="1">  1        1 0.82289250E-01 0.38267160E+03</pdfrwt>
<pdfrwt beam="2">  1       -1 0.10529861E-01 0.38267160E+03</pdfrwt>
<totfact> 0.23270824E+03</totfact>
</mgrwt>
</event>
<event>
 4    1  0.3064919E-004  0.3067082E+03  0.7818608E-02  0.1081935E+00
         -1   -1    0    0    0  501 -0.00000000000E+00  0.00000000000E+00  0.11730828410E+03  0.11730828421E+03  0.50400000000E-02 0.  1.
          1   -1    0    0  501    0  0.00000000000E+00 -0.00000000000E+00 -0.20047582010E+03  0.20047582016E+03  0.50400000000E-02 0. -1.
    5000001    1    1    2    0    0  0.76216951733E+01  0.10979513401E+03 -0.11825196794E+03  0.17895694905E+03  0.77000000000E+02 0.  0.
   -5000001    1    1    2    0    0 -0.76216951733E+01 -0.10979513401E+03  0.35084431939E+02  0.13882715532E+03  0.77000000000E+02 0.  0.
<mgrwt>
<rscale>  0 0.30670816E+03</rscale>
<asrwt>0</asrwt>
<pdfrwt beam="1">  1        1 0.30842434E-01 0.30670816E+03</pdfrwt>
<pdfrwt beam="2">  1       -1 0.18047428E-01 0.30670816E+03</pdfrwt>
<totfact> 0.34829307E+03</totfact>
</mgrwt>
</event>
<event>
 4    1  0.3064919E-004  0.2549790E+03  0.7818608E-02  0.1110198E+00
          1   -1    0    0  501    0  0.00000000000E+00  0.00000000000E+00  0.26706832420E+02  0.26706832896E+02  0.50400000000E-02 0.  1.
         -1   -1    0    0    0  501 -0.00000000000E+00 -0.00000000000E+00 -0.60859215490E+03  0.60859215492E+03  0.50400000000E-02 0. -1.
    5000001    1    1    2    0    0 -0.27836888753E+02  0.75121360406E+02 -0.44667017942E+03  0.46028399967E+03  0.77000000000E+02 0.  0.
   -5000001    1    1    2    0    0  0.27836888753E+02 -0.75121360406E+02 -0.13521514306E+03  0.17501498815E+03  0.77000000000E+02 0.  0.
<mgrwt>
<rscale>  0 0.25497897E+03</rscale>
<asrwt>0</asrwt>
<pdfrwt beam="1">  1        1 0.41087439E-02 0.25497897E+03</pdfrwt>
<pdfrwt beam="2">  1       -1 0.93629552E-01 0.25497897E+03</pdfrwt>
<totfact> 0.25422639E+03</totfact>
</mgrwt>
</event>
<event>
 4    1  0.3064919E-004  0.6092101E+03  0.7818608E-02  0.9886480E-01
         -1   -1    0    0    0  501 -0.00000000000E+00  0.00000000000E+00  0.30657031040E+03  0.30657031044E+03  0.50400000000E-02 0. -1.
          1   -1    0    0  501    0  0.00000000000E+00 -0.00000000000E+00 -0.30265235691E+03  0.30265235695E+03  0.50400000000E-02 0.  1.
    5000001    1    1    2    0    0 -0.22827000407E+03  0.13585055391E+03  0.12960431798E+03  0.30543222980E+03  0.77000000000E+02 0.  0.
   -5000001    1    1    2    0    0  0.22827000407E+03 -0.13585055391E+03 -0.12568636449E+03  0.30379043760E+03  0.77000000000E+02 0.  0.
<mgrwt>
<rscale>  0 0.60921007E+03</rscale>
<asrwt>0</asrwt>
<pdfrwt beam="1">  1        1 0.46561901E-01 0.60921007E+03</pdfrwt>
<pdfrwt beam="2">  1       -1 0.47164663E-01 0.60921007E+03</pdfrwt>
<totfact> 0.39365064E+02</totfact>
</mgrwt>
</event>
<event>
 4    1  0.3064919E-004  0.1794575E+03  0.7818608E-02  0.1168329E+00
         -1   -1    0    0    0  501 -0.00000000000E+00  0.00000000000E+00  0.54761828990E+02  0.54761829222E+02  0.50400000000E-02 0. -1.
          1   -1    0    0  501    0  0.00000000000E+00 -0.00000000000E+00 -0.14702303158E+03  0.14702303166E+03  0.50400000000E-02 0.  1.
    5000001    1    1    2    0    0  0.42218631815E+02 -0.24487336914E+01 -0.66675156575E+02  0.11028592691E+03  0.77000000000E+02 0.  0.
   -5000001    1    1    2    0    0 -0.42218631815E+02  0.24487336914E+01 -0.25586046014E+02  0.91498933981E+02  0.77000000000E+02 0.  0.
<mgrwt>
<rscale>  0 0.17945752E+03</rscale>
<asrwt>0</asrwt>
<pdfrwt beam="1">  1        1 0.22618928E-01 0.17945752E+03</pdfrwt>
<pdfrwt beam="2">  1       -1 0.84248968E-02 0.17945752E+03</pdfrwt>
<totfact> 0.16526380E+04</totfact>
</mgrwt>
</event>
<event>
 4    1  0.3064919E-004  0.2187261E+03  0.7818608E-02  0.1134836E+00
          1   -1    0    0  501    0  0.00000000000E+00  0.00000000000E+00  0.44038401373E+02  0.44038401661E+02  0.50400000000E-02 0.  1.
         -1   -1    0    0    0  501 -0.00000000000E+00 -0.00000000000E+00 -0.27158738352E+03  0.27158738357E+03  0.50400000000E-02 0. -1.
    5000001    1    1    2    0    0 -0.18594997816E+01 -0.22447324864E+02 -0.65247737010E+01  0.80491694011E+02  0.77000000000E+02 0.  0.
   -5000001    1    1    2    0    0  0.18594997816E+01  0.22447324864E+02 -0.22102420845E+03  0.23513409122E+03  0.77000000000E+02 0.  0.
<mgrwt>
<rscale>  0 0.21872608E+03</rscale>
<asrwt>0</asrwt>
<pdfrwt beam="1">  1        1 0.67751389E-02 0.21872608E+03</pdfrwt>
<pdfrwt beam="2">  1       -1 0.41782673E-01 0.21872608E+03</pdfrwt>
<totfact> 0.61185247E+03</totfact>
</mgrwt>
</event>
<event>
 4    1  0.3064919E-004  0.2297738E+03  0.7818608E-02  0.1126799E+00
         -1   -1    0    0    0  501 -0.00000000000E+00  0.00000000000E+00  0.60781687353E+02  0.60781687562E+02  0.50400000000E-02 0.  1.
          1   -1    0    0  501    0  0.00000000000E+00 -0.00000000000E+00 -0.21715418948E+03  0.21715418954E+03  0.50400000000E-02 0. -1.
    5000001    1    1    2    0    0  0.75038435308E+02  0.13155086406E+02 -0.31869611755E+02  0.11290923446E+03  0.77000000000E+02 0.  0.
   -5000001    1    1    2    0    0 -0.75038435308E+02 -0.13155086406E+02 -0.12450289037E+03  0.16502664265E+03  0.77000000000E+02 0.  0.
<mgrwt>
<rscale>  0 0.22977379E+03</rscale>
<asrwt>0</asrwt>
<pdfrwt beam="1">  1        1 0.33408336E-01 0.22977379E+03</pdfrwt>
<pdfrwt beam="2">  1       -1 0.93510289E-02 0.22977379E+03</pdfrwt>
<totfact> 0.87607605E+03</totfact>
</mgrwt>
</event>
<event>
 4    1  0.3064919E-004  0.2939647E+03  0.7818608E-02  0.1088297E+00
         -1   -1    0    0    0  501 -0.00000000000E+00  0.00000000000E+00  0.32892531145E+02  0.32892531531E+02  0.50400000000E-02 0. -1.
          1   -1    0    0  501    0  0.00000000000E+00 -0.00000000000E+00 -0.65679988436E+03  0.65679988438E+03  0.50400000000E-02 0.  1.
    5000001    1    1    2    0    0  0.11519101812E+03  0.13189622463E+02 -0.20111403616E+03  0.24457880599E+03  0.77000000000E+02 0.  0.
   -5000001    1    1    2    0    0 -0.11519101812E+03 -0.13189622463E+02 -0.42279331705E+03  0.44511360993E+03  0.77000000000E+02 0.  0.
<mgrwt>
<rscale>  0 0.29396470E+03</rscale>
<asrwt>0</asrwt>
<pdfrwt beam="1">  1        1 0.10104613E+00 0.29396470E+03</pdfrwt>
<pdfrwt beam="2">  1       -1 0.50603899E-02 0.29396470E+03</pdfrwt>
<totfact> 0.53420794E+03</totfact>
</mgrwt>
</event>
<event>
 4    1  0.3064919E-004  0.2346562E+03  0.7818608E-02  0.1123405E+00
         -1   -1    0    0    0  501 -0.00000000000E+00  0.00000000000E+00  0.15821122116E+02  0.15821122918E+02  0.50400000000E-02 0.  1.
          1   -1    0    0  501    0  0.00000000000E+00 -0.00000000000E+00 -0.87009531142E+03  0.87009531143E+03  0.50400000000E-02 0. -1.
    5000001    1    1    2    0    0 -0.20482230715E+02 -0.20902219863E+02 -0.74256689542E+03  0.74712182322E+03  0.77000000000E+02 0.  0.
   -5000001    1    1    2    0    0  0.20482230715E+02  0.20902219863E+02 -0.11170729388E+03  0.13879461112E+03  0.77000000000E+02 0.  0.
<mgrwt>
<rscale>  0 0.23465621E+03</rscale>
<asrwt>0</asrwt>
<pdfrwt beam="1">  1        1 0.13386078E+00 0.23465621E+03</pdfrwt>
<pdfrwt beam="2">  1       -1 0.24340195E-02 0.23465621E+03</pdfrwt>
<totfact> 0.10272917E+04</totfact>
</mgrwt>
</event>
<event>
 4    1  0.3064919E-004  0.1862302E+03  0.7818608E-02  0.1161906E+00
          1   -1    0    0  501    0  0.00000000000E+00  0.00000000000E+00  0.91340400537E+02  0.91340400676E+02  0.50400000000E-02 0.  1.
         -1   -1    0    0    0  501 -0.00000000000E+00 -0.00000000000E+00 -0.94924250646E+02  0.94924250780E+02  0.50400000000E-02 0. -1.
    5000001    1    1    2    0    0 -0.45955630031E+02  0.24615695078E+02 -0.66473809632E+01  0.93225747781E+02  0.77000000000E+02 0.  0.
   -5000001    1    1    2    0    0  0.45955630031E+02 -0.24615695078E+02  0.30635308545E+01  0.93038903675E+02  0.77000000000E+02 0.  0.
<mgrwt>
<rscale>  0 0.18623017E+03</rscale>
<asrwt>0</asrwt>
<pdfrwt beam="1">  1        1 0.14052369E-01 0.18623017E+03</pdfrwt>
<pdfrwt beam="2">  1       -1 0.14603731E-01 0.18623017E+03</pdfrwt>
<totfact> 0.13082788E+04</totfact>
</mgrwt>
</event>
<event>
 4    1  0.3064919E-004  0.3470080E+03  0.7818608E-02  0.1063850E+00
         -1   -1    0    0    0  501 -0.00000000000E+00  0.00000000000E+00  0.87810639787E+02  0.87810639931E+02  0.50400000000E-02 0. -1.
          1   -1    0    0  501    0  0.00000000000E+00 -0.00000000000E+00 -0.34282443180E+03  0.34282443184E+03  0.50400000000E-02 0.  1.
    5000001    1    1    2    0    0 -0.51719119602E+02  0.11459839956E+03 -0.13991671858E+02  0.14809600736E+03  0.77000000000E+02 0.  0.
   -5000001    1    1    2    0    0  0.51719119602E+02 -0.11459839956E+03 -0.24102212016E+03  0.28253906441E+03  0.77000000000E+02 0.  0.
<mgrwt>
<rscale>  0 0.34700797E+03</rscale>
<asrwt>0</asrwt>
<pdfrwt beam="1">  1        1 0.52742220E-01 0.34700797E+03</pdfrwt>
<pdfrwt beam="2">  1       -1 0.13509329E-01 0.34700797E+03</pdfrwt>
<totfact> 0.28146217E+03</totfact>
</mgrwt>
</event>
<event>
 4    1  0.3064919E-004  0.2866319E+03  0.7818608E-02  0.1092121E+00
         -1   -1    0    0    0  501 -0.00000000000E+00  0.00000000000E+00  0.99120458793E+02  0.99120458921E+02  0.50400000000E-02 0. -1.
          1   -1    0    0  501    0  0.00000000000E+00 -0.00000000000E+00 -0.20721722733E+03  0.20721722739E+03  0.50400000000E-02 0.  1.
    5000001    1    1    2    0    0  0.10638367973E+03  0.43011387586E+02 -0.13449976538E+02  0.13884296397E+03  0.77000000000E+02 0.  0.
   -5000001    1    1    2    0    0 -0.10638367973E+03 -0.43011387586E+02 -0.94646791995E+02  0.16749472234E+03  0.77000000000E+02 0.  0.
<mgrwt>
<rscale>  0 0.28663194E+03</rscale>
<asrwt>0</asrwt>
<pdfrwt beam="1">  1        1 0.31879573E-01 0.28663194E+03</pdfrwt>
<pdfrwt beam="2">  1       -1 0.15249301E-01 0.28663194E+03</pdfrwt>
<totfact> 0.43683968E+03</totfact>
</mgrwt>
</event>
<event>
 4    1  0.3064919E-004  0.3960060E+03  0.7818608E-02  0.1045171E+00
          1   -1    0    0  501    0  0.00000000000E+00  0.00000000000E+00  0.39618992560E+02  0.39618992880E+02  0.50400000000E-02 0.  1.
         -1   -1    0    0    0  501 -0.00000000000E+00 -0.00000000000E+00 -0.98955532570E+03  0.98955532571E+03  0.50400000000E-02 0. -1.
    5000001    1    1    2    0    0 -0.25104137824E+02 -0.18067205603E+03 -0.47988253045E+03  0.51912315744E+03  0.77000000000E+02 0.  0.
   -5000001    1    1    2    0    0  0.25104137824E+02  0.18067205603E+03 -0.47005380269E+03  0.51005116115E+03  0.77000000000E+02 0.  0.
<mgrwt>
<rscale>  0 0.39600599E+03</rscale>
<asrwt>0</asrwt>
<pdfrwt beam="1">  1        1 0.60952304E-02 0.39600599E+03</pdfrwt>
<pdfrwt beam="2">  1       -1 0.15223926E+00 0.39600599E+03</pdfrwt>
<totfact> 0.45929819E+02</totfact>
</mgrwt>
</event>
<event>
 4    1  0.3064919E-004  0.1910047E+03  0.7818608E-02  0.1157558E+00
         -1   -1    0    0    0  501 -0.00000000000E+00  0.00000000000E+00  0.40931042076E+02  0.40931042386E+02  0.50400000000E-02 0.  1.
          1   -1    0    0  501    0  0.00000000000E+00 -0.00000000000E+00 -0.22283087756E+03  0.22283087762E+03  0.50400000000E-02 0. -1.
    5000001    1    1    2    0    0 -0.51235095645E+02 -0.14341593187E+02 -0.11718677668E+03  0.14997485439E+03  0.77000000000E+02 0.  0.
   -5000001    1    1    2    0    0  0.51235095645E+02  0.14341593187E+02 -0.64713058805E+02  0.11378706561E+03  0.77000000000E+02 0.  0.
<mgrwt>
<rscale>  0 0.19100471E+03</rscale>
<asrwt>0</asrwt>
<pdfrwt beam="1">  1        1 0.34281673E-01 0.19100471E+03</pdfrwt>
<pdfrwt beam="2">  1       -1 0.62970836E-02 0.19100471E+03</pdfrwt>
<totfact> 0.15283817E+04</totfact>
</mgrwt>
</event>
<event>
 4    1  0.3064919E-004  0.3392254E+03  0.7818608E-02  0.1067126E+00
          1   -1    0    0  501    0  0.00000000000E+00  0.00000000000E+00  0.84427176501E+03  0.84427176503E+03  0.50400000000E-02 0. -1.
         -1   -1    0    0    0  501 -0.00000000000E+00 -0.00000000000E+00 -0.34074897418E+02  0.34074897790E+02  0.50400000000E-02 0.  1.
    5000001    1    1    2    0    0 -0.92033581349E+02 -0.93497623439E+02  0.21086014353E+03  0.26000574189E+03  0.77000000000E+02 0.  0.
   -5000001    1    1    2    0    0  0.92033581349E+02  0.93497623439E+02  0.59933672406E+03  0.61834092093E+03  0.77000000000E+02 0.  0.
<mgrwt>
<rscale>  0 0.33922544E+03</rscale>
<asrwt>0</asrwt>
<pdfrwt beam="1">  1        1 0.12988797E+00 0.33922544E+03</pdfrwt>
<pdfrwt beam="2">  1       -1 0.52422918E-02 0.33922544E+03</pdfrwt>
<totfact> 0.34793907E+03</totfact>
</mgrwt>
</event>
<event>
 4    1  0.3064919E-004  0.1993536E+03  0.7818608E-02  0.1150286E+00
         -1   -1    0    0    0  501 -0.00000000000E+00  0.00000000000E+00  0.15671437882E+03  0.15671437890E+03  0.50400000000E-02 0. -1.
          1   -1    0    0  501    0  0.00000000000E+00 -0.00000000000E+00 -0.63398537186E+02  0.63398537387E+02  0.50400000000E-02 0.  1.
    5000001    1    1    2    0    0 -0.11718471648E+02 -0.55059539865E+02  0.78612744618E+02  0.12360355628E+03  0.77000000000E+02 0.  0.
   -5000001    1    1    2    0    0  0.11718471648E+02  0.55059539865E+02  0.14703097016E+02  0.96509360011E+02  0.77000000000E+02 0.  0.
<mgrwt>
<rscale>  0 0.19935358E+03</rscale>
<asrwt>0</asrwt>
<pdfrwt beam="1">  1        1 0.97536212E-02 0.19935358E+03</pdfrwt>
<pdfrwt beam="2">  1       -1 0.24109904E-01 0.19935358E+03</pdfrwt>
<totfact> 0.95174843E+03</totfact>
</mgrwt>
</event>
<event>
 4    1  0.3064919E-004  0.2316009E+03  0.7818608E-02  0.1125518E+00
         -1   -1    0    0    0  501 -0.00000000000E+00  0.00000000000E+00  0.17629675829E+02  0.17629676549E+02  0.50400000000E-02 0. -1.
          1   -1    0    0  501    0  0.00000000000E+00 -0.00000000000E+00 -0.76063444515E+03  0.76063444516E+03  0.50400000000E-02 0.  1.
    5000001    1    1    2    0    0 -0.52585228415E+02  0.50054633095E+02 -0.21352696542E+03  0.23831373755E+03  0.77000000000E+02 0.  0.
   -5000001    1    1    2    0    0  0.52585228415E+02 -0.50054633095E+02 -0.52947780390E+03  0.53995038417E+03  0.77000000000E+02 0.  0.
<mgrwt>
<rscale>  0 0.23160085E+03</rscale>
<asrwt>0</asrwt>
<pdfrwt beam="1">  1        1 0.11702066E+00 0.23160085E+03</pdfrwt>
<pdfrwt beam="2">  1       -1 0.27122585E-02 0.23160085E+03</pdfrwt>
<totfact> 0.10784116E+04</totfact>
</mgrwt>
</event>
<event>
 4    1  0.3064919E-004  0.2911377E+03  0.7818608E-02  0.1089757E+00
          1   -1    0    0  501    0  0.00000000000E+00  0.00000000000E+00  0.51873482224E+03  0.51873482227E+03  0.50400000000E-02 0. -1.
         -1   -1    0    0    0  501 -0.00000000000E+00 -0.00000000000E+00 -0.40849934313E+02  0.40849934624E+02  0.50400000000E-02 0.  1.
    5000001    1    1    2    0    0 -0.10738346490E+03 -0.54465364579E+02  0.29205536445E+03  0.32515076561E+03  0.77000000000E+02 0.  0.
   -5000001    1    1    2    0    0  0.10738346490E+03  0.54465364579E+02  0.18582952348E+03  0.23443399128E+03  0.77000000000E+02 0.  0.
<mgrwt>
<rscale>  0 0.29113765E+03</rscale>
<asrwt>0</asrwt>
<pdfrwt beam="1">  1        1 0.79805360E-01 0.29113765E+03</pdfrwt>
<pdfrwt beam="2">  1       -1 0.62846051E-02 0.29113765E+03</pdfrwt>
<totfact> 0.53399239E+03</totfact>
</mgrwt>
</event>
<event>
 4    1  0.3064919E-004  0.2399461E+03  0.7818608E-02  0.1119829E+00
          1   -1    0    0  501    0  0.00000000000E+00  0.00000000000E+00  0.52979172457E+03  0.52979172460E+03  0.50400000000E-02 0.  1.
         -1   -1    0    0    0  501 -0.00000000000E+00 -0.00000000000E+00 -0.27168284223E+02  0.27168284690E+02  0.50400000000E-02 0. -1.
    5000001    1    1    2    0    0 -0.40363004784E+02  0.42607540344E+02  0.41577174464E+03  0.42689544187E+03  0.77000000000E+02 0.  0.
   -5000001    1    1    2    0    0  0.40363004784E+02 -0.42607540344E+02  0.86851695712E+02  0.13006456742E+03  0.77000000000E+02 0.  0.
<mgrwt>
<rscale>  0 0.23994610E+03</rscale>
<asrwt>0</asrwt>
<pdfrwt beam="1">  1        1 0.81506418E-01 0.23994610E+03</pdfrwt>
<pdfrwt beam="2">  1       -1 0.41797361E-02 0.23994610E+03</pdfrwt>
<totfact> 0.95035925E+03</totfact>
</mgrwt>
</event>
<event>
 4    1  0.3064919E-004  0.3199373E+03  0.7818608E-02  0.1075678E+00
         -1   -1    0    0    0  501 -0.00000000000E+00  0.00000000000E+00  0.38252143481E+02  0.38252143813E+02  0.50400000000E-02 0. -1.
          1   -1    0    0  501    0  0.00000000000E+00 -0.00000000000E+00 -0.66898124198E+03  0.66898124200E+03  0.50400000000E-02 0.  1.
    5000001    1    1    2    0    0  0.62763196045E+02 -0.58377541228E+02 -0.56066261941E+03  0.57237988163E+03  0.77000000000E+02 0.  0.
   -5000001    1    1    2    0    0 -0.62763196045E+02  0.58377541228E+02 -0.70066479095E+02  0.13485350418E+03  0.77000000000E+02 0.  0.
<mgrwt>
<rscale>  0 0.31993728E+03</rscale>
<asrwt>0</asrwt>
<pdfrwt beam="1">  1        1 0.10292018E+00 0.31993728E+03</pdfrwt>
<pdfrwt beam="2">  1       -1 0.58849457E-02 0.31993728E+03</pdfrwt>
<totfact> 0.41506486E+03</totfact>
</mgrwt>
</event>
<event>
 4    1  0.3064919E-004  0.1758098E+03  0.7818608E-02  0.1171921E+00
         -1   -1    0    0    0  501 -0.00000000000E+00  0.00000000000E+00  0.19920145637E+02  0.19920146275E+02  0.50400000000E-02 0.  1.
          1   -1    0    0  501    0  0.00000000000E+00 -0.00000000000E+00 -0.38791236689E+03  0.38791236693E+03  0.50400000000E-02 0. -1.
    5000001    1    1    2    0    0  0.15667825735E+02  0.38338379579E+02 -0.16286753662E+03  0.18485168811E+03  0.77000000000E+02 0.  0.
   -5000001    1    1    2    0    0 -0.15667825735E+02 -0.38338379579E+02 -0.20512468463E+03  0.22298082509E+03  0.77000000000E+02 0.  0.
<mgrwt>
<rscale>  0 0.17580979E+03</rscale>
<asrwt>0</asrwt>
<pdfrwt beam="1">  1        1 0.59678820E-01 0.17580979E+03</pdfrwt>
<pdfrwt beam="2">  1       -1 0.30646381E-02 0.17580979E+03</pdfrwt>
<totfact> 0.22077244E+04</totfact>
</mgrwt>
</event>
<event>
 4    1  0.3064919E-004  0.2053380E+03  0.7818608E-02  0.1145312E+00
         -1   -1    0    0    0  501 -0.00000000000E+00  0.00000000000E+00  0.10742708711E+02  0.10742709893E+02  0.50400000000E-02 0. -1.
          1   -1    0    0  501    0  0.00000000000E+00 -0.00000000000E+00 -0.98121645377E+03  0.98121645379E+03  0.50400000000E-02 0.  1.
    5000001    1    1    2    0    0  0.17672319835E+02 -0.65304106158E+02 -0.51381089784E+03  0.52393470577E+03  0.77000000000E+02 0.  0.
   -5000001    1    1    2    0    0 -0.17672319835E+02  0.65304106158E+02 -0.45666284722E+03  0.46802445791E+03  0.77000000000E+02 0.  0.
<mgrwt>
<rscale>  0 0.20533800E+03</rscale>
<asrwt>0</asrwt>
<pdfrwt beam="1">  1        1 0.15095631E+00 0.20533800E+03</pdfrwt>
<pdfrwt beam="2">  1       -1 0.16527253E-02 0.20533800E+03</pdfrwt>
<totfact> 0.14730386E+04</totfact>
</mgrwt>
</event>
<event>
 4    1  0.3064919E-004  0.3533986E+03  0.7818608E-02  0.1061229E+00
         -1   -1    0    0    0  501 -0.00000000000E+00  0.00000000000E+00  0.12717597759E+03  0.12717597769E+03  0.50400000000E-02 0.  1.
          1   -1    0    0  501    0  0.00000000000E+00 -0.00000000000E+00 -0.24550734831E+03  0.24550734837E+03  0.50400000000E-02 0. -1.
    5000001    1    1    2    0    0 -0.68745171224E+02  0.13015415880E+03  0.43508608495E+01  0.16617440720E+03  0.77000000000E+02 0.  0.
   -5000001    1    1    2    0    0  0.68745171224E+02 -0.13015415880E+03 -0.12268223158E+03  0.20650891885E+03  0.77000000000E+02 0.  0.
<mgrwt>
<rscale>  0 0.35339857E+03</rscale>
<asrwt>0</asrwt>
<pdfrwt beam="1">  1        1 0.37770361E-01 0.35339857E+03</pdfrwt>
<pdfrwt beam="2">  1       -1 0.19565535E-01 0.35339857E+03</pdfrwt>
<totfact> 0.23702562E+03</totfact>
</mgrwt>
</event>
<event>
 4    1  0.3064919E-004  0.3205612E+03  0.7818608E-02  0.1075391E+00
          1   -1    0    0  501    0  0.00000000000E+00  0.00000000000E+00  0.74126944037E+03  0.74126944039E+03  0.50400000000E-02 0.  1.
         -1   -1    0    0    0  501 -0.00000000000E+00 -0.00000000000E+00 -0.34656579961E+02  0.34656580328E+02  0.50400000000E-02 0. -1.
    5000001    1    1    2    0    0  0.12156408198E+03  0.70545278745E+02  0.35943059646E+03  0.39354010730E+03  0.77000000000E+02 0.  0.
   -5000001    1    1    2    0    0 -0.12156408198E+03 -0.70545278745E+02  0.34718226395E+03  0.38238591341E+03  0.77000000000E+02 0.  0.
<mgrwt>
<rscale>  0 0.32056116E+03</rscale>
<asrwt>0</asrwt>
<pdfrwt beam="1">  1        1 0.11404145E+00 0.32056116E+03</pdfrwt>
<pdfrwt beam="2">  1       -1 0.53317818E-02 0.32056116E+03</pdfrwt>
<totfact> 0.41430642E+03</totfact>
</mgrwt>
</event>
<event>
 4    1  0.3064919E-004  0.1769418E+03  0.7818608E-02  0.1170796E+00
          1   -1    0    0  501    0  0.00000000000E+00  0.00000000000E+00  0.94922973018E+02  0.94922973152E+02  0.50400000000E-02 0. -1.
         -1   -1    0    0    0  501 -0.00000000000E+00 -0.00000000000E+00 -0.82457416685E+02  0.82457416839E+02  0.50400000000E-02 0.  1.
    5000001    1    1    2    0    0 -0.30050065099E+02 -0.24443835637E+02 -0.13756443943E+02  0.87285435572E+02  0.77000000000E+02 0.  0.
   -5000001    1    1    2    0    0  0.30050065099E+02  0.24443835637E+02  0.26222000276E+02  0.90094954418E+02  0.77000000000E+02 0.  0.
<mgrwt>
<rscale>  0 0.17694183E+03</rscale>
<asrwt>0</asrwt>
<pdfrwt beam="1">  1        1 0.14603534E-01 0.17694183E+03</pdfrwt>
<pdfrwt beam="2">  1       -1 0.12685756E-01 0.17694183E+03</pdfrwt>
<totfact> 0.15446467E+04</totfact>
</mgrwt>
</event>
<event>
 4    1  0.3064919E-004  0.2275736E+03  0.7818608E-02  0.1128359E+00
         -1   -1    0    0    0  501 -0.00000000000E+00  0.00000000000E+00  0.52198552524E+02  0.52198552768E+02  0.50400000000E-02 0.  1.
          1   -1    0    0  501    0  0.00000000000E+00 -0.00000000000E+00 -0.24804207150E+03  0.24804207156E+03  0.50400000000E-02 0. -1.
    5000001    1    1    2    0    0 -0.41654467563E+02  0.67864111254E+02 -0.13226963642E+03  0.17252503871E+03  0.77000000000E+02 0.  0.
   -5000001    1    1    2    0    0  0.41654467563E+02 -0.67864111254E+02 -0.63573882565E+02  0.12771558561E+03  0.77000000000E+02 0.  0.
<mgrwt>
<rscale>  0 0.22757361E+03</rscale>
<asrwt>0</asrwt>
<pdfrwt beam="1">  1        1 0.38160318E-01 0.22757361E+03</pdfrwt>
<pdfrwt beam="2">  1       -1 0.80305467E-02 0.22757361E+03</pdfrwt>
<totfact> 0.93559702E+03</totfact>
</mgrwt>
</event>
<event>
 4    1  0.3064919E-004  0.3379664E+03  0.7818608E-02  0.1067665E+00
          1   -1    0    0  501    0  0.00000000000E+00  0.00000000000E+00  0.53975031883E+03  0.53975031885E+03  0.50400000000E-02 0.  1.
         -1   -1    0    0    0  501 -0.00000000000E+00 -0.00000000000E+00 -0.52904678851E+02  0.52904679091E+02  0.50400000000E-02 0. -1.
    5000001    1    1    2    0    0 -0.13448718940E+03 -0.57994995810E+02  0.18328475879E+03  0.24692615588E+03  0.77000000000E+02 0.  0.
   -5000001    1    1    2    0    0  0.13448718940E+03  0.57994995810E+02  0.30356088118E+03  0.34572884206E+03  0.77000000000E+02 0.  0.
<mgrwt>
<rscale>  0 0.33796637E+03</rscale>
<asrwt>0</asrwt>
<pdfrwt beam="1">  1        1 0.83038507E-01 0.33796637E+03</pdfrwt>
<pdfrwt beam="2">  1       -1 0.81391817E-02 0.33796637E+03</pdfrwt>
<totfact> 0.34217723E+03</totfact>
</mgrwt>
</event>
<event>
 4    1  0.3064919E-004  0.3067216E+03  0.7818608E-02  0.1081928E+00
          1   -1    0    0  501    0  0.00000000000E+00  0.00000000000E+00  0.30938702839E+03  0.30938702843E+03  0.50400000000E-02 0. -1.
         -1   -1    0    0    0  501 -0.00000000000E+00 -0.00000000000E+00 -0.76019797332E+02  0.76019797499E+02  0.50400000000E-02 0.  1.
    5000001    1    1    2    0    0  0.12530090623E+03 -0.23957310326E+02  0.16227128566E+03  0.22030714915E+03  0.77000000000E+02 0.  0.
   -5000001    1    1    2    0    0 -0.12530090623E+03  0.23957310326E+02  0.71095945398E+02  0.16509967677E+03  0.77000000000E+02 0.  0.
<mgrwt>
<rscale>  0 0.30672163E+03</rscale>
<asrwt>0</asrwt>
<pdfrwt beam="1">  1        1 0.47598004E-01 0.30672163E+03</pdfrwt>
<pdfrwt beam="2">  1       -1 0.11695354E-01 0.30672163E+03</pdfrwt>
<totfact> 0.40136483E+03</totfact>
</mgrwt>
</event>
<event>
 4    1  0.3064919E-004  0.1607996E+03  0.7818608E-02  0.1187797E+00
          1   -1    0    0  501    0  0.00000000000E+00  0.00000000000E+00  0.10150318162E+04  0.10150318162E+04  0.50400000000E-02 0.  1.
         -1   -1    0    0    0  501 -0.00000000000E+00 -0.00000000000E+00 -0.63684018352E+01  0.63684038296E+01  0.50400000000E-02 0. -1.
    5000001    1    1    2    0    0  0.15163639013E+02 -0.39544403900E+01  0.61241998897E+03  0.61744053676E+03  0.77000000000E+02 0.  0.
   -5000001    1    1    2    0    0 -0.15163639013E+02  0.39544403900E+01  0.39624342538E+03  0.40395968326E+03  0.77000000000E+02 0.  0.
<mgrwt>
<rscale>  0 0.16079965E+03</rscale>
<asrwt>0</asrwt>
<pdfrwt beam="1">  1        1 0.15615862E+00 0.16079965E+03</pdfrwt>
<pdfrwt beam="2">  1       -1 0.97975501E-03 0.16079965E+03</pdfrwt>
<totfact> 0.29053645E+04</totfact>
</mgrwt>
</event>
<event>
 4    1  0.3064919E-004  0.6598023E+03  0.7818608E-02  0.9788558E-01
          1   -1    0    0  501    0  0.00000000000E+00  0.00000000000E+00  0.22379992521E+04  0.22379992521E+04  0.50400000000E-02 0. -1.
         -1   -1    0    0    0  501 -0.00000000000E+00 -0.00000000000E+00 -0.48630382307E+02  0.48630382568E+02  0.50400000000E-02 0.  1.
    5000001    1    1    2    0    0 -0.26426695037E+03  0.66117855201E+02  0.50759868531E+03  0.58120049653E+03  0.77000000000E+02 0.  0.
   -5000001    1    1    2    0    0  0.26426695037E+03 -0.66117855201E+02  0.16817701845E+04  0.17054291382E+04  0.77000000000E+02 0.  0.
<mgrwt>
<rscale>  0 0.65980227E+03</rscale>
<asrwt>0</asrwt>
<pdfrwt beam="1">  1        1 0.34430762E+00 0.65980227E+03</pdfrwt>
<pdfrwt beam="2">  1       -1 0.74815963E-02 0.65980227E+03</pdfrwt>
<totfact> 0.21330951E+02</totfact>
</mgrwt>
</event>
<event>
 4    1  0.3064919E-004  0.2181870E+03  0.7818608E-02  0.1135242E+00
         -1   -1    0    0    0  501 -0.00000000000E+00  0.00000000000E+00  0.49606557795E+02  0.49606558051E+02  0.50400000000E-02 0. -1.
          1   -1    0    0  501    0  0.00000000000E+00 -0.00000000000E+00 -0.23991569395E+03  0.23991569400E+03  0.50400000000E-02 0.  1.
    5000001    1    1    2    0    0 -0.42352862114E+02 -0.63037041626E+02 -0.76157535645E+02  0.13227397243E+03  0.77000000000E+02 0.  0.
   -5000001    1    1    2    0    0  0.42352862114E+02  0.63037041626E+02 -0.11415160051E+03  0.15724827962E+03  0.77000000000E+02 0.  0.
<mgrwt>
<rscale>  0 0.21818700E+03</rscale>
<asrwt>0</asrwt>
<pdfrwt beam="1">  1        1 0.36910106E-01 0.21818700E+03</pdfrwt>
<pdfrwt beam="2">  1       -1 0.76317783E-02 0.21818700E+03</pdfrwt>
<totfact> 0.10514735E+04</totfact>
</mgrwt>
</event>
<event>
 4    1  0.3064919E-004  0.2102403E+03  0.7818608E-02  0.1141376E+00
          1   -1    0    0  501    0  0.00000000000E+00  0.00000000000E+00  0.52571785221E+02  0.52571785463E+02  0.50400000000E-02 0.  1.
         -1   -1    0    0    0  501 -0.00000000000E+00 -0.00000000000E+00 -0.21019351869E+03  0.21019351875E+03  0.50400000000E-02 0. -1.
    5000001    1    1    2    0    0 -0.30755362652E+02  0.62901749267E+02 -0.60326593849E+02  0.12029472274E+03  0.77000000000E+02 0.  0.
   -5000001    1    1    2    0    0  0.30755362652E+02 -0.62901749267E+02 -0.97295139620E+02  0.14247058148E+03  0.77000000000E+02 0.  0.
<mgrwt>
<rscale>  0 0.21024032E+03</rscale>
<asrwt>0</asrwt>
<pdfrwt beam="1">  1        1 0.80879671E-02 0.21024032E+03</pdfrwt>
<pdfrwt beam="2">  1       -1 0.32337464E-01 0.21024032E+03</pdfrwt>
<totfact> 0.75052048E+03</totfact>
</mgrwt>
</event>
<event>
 4    1  0.3064919E-004  0.3423087E+03  0.7818608E-02  0.1065817E+00
          1   -1    0    0  501    0  0.00000000000E+00  0.00000000000E+00  0.54360552508E+03  0.54360552511E+03  0.50400000000E-02 0. -1.
         -1   -1    0    0    0  501 -0.00000000000E+00 -0.00000000000E+00 -0.53887982129E+02  0.53887982365E+02  0.50400000000E-02 0.  1.
    5000001    1    1    2    0    0  0.12833053274E+03  0.41247463704E+02  0.37066340159E+03  0.40185872663E+03  0.77000000000E+02 0.  0.
   -5000001    1    1    2    0    0 -0.12833053274E+03 -0.41247463704E+02  0.11905414137E+03  0.19563478084E+03  0.77000000000E+02 0.  0.
<mgrwt>
<rscale>  0 0.34230866E+03</rscale>
<asrwt>0</asrwt>
<pdfrwt beam="1">  1        1 0.83631619E-01 0.34230866E+03</pdfrwt>
<pdfrwt beam="2">  1       -1 0.82904588E-02 0.34230866E+03</pdfrwt>
<totfact> 0.32946802E+03</totfact>
</mgrwt>
</event>
<event>
 4    1  0.3064919E-004  0.2096382E+03  0.7818608E-02  0.1141853E+00
          1   -1    0    0  501    0  0.00000000000E+00  0.00000000000E+00  0.22609231798E+04  0.22609231798E+04  0.50400000000E-02 0.  1.
         -1   -1    0    0    0  501 -0.00000000000E+00 -0.00000000000E+00 -0.48595393894E+01  0.48595420030E+01  0.50400000000E-02 0. -1.
    5000001    1    1    2    0    0  0.14466469270E+02 -0.64762906367E+02  0.85151959726E+03  0.85756523793E+03  0.77000000000E+02 0.  0.
   -5000001    1    1    2    0    0 -0.14466469270E+02  0.64762906367E+02  0.14045440431E+04  0.14082174839E+04  0.77000000000E+02 0.  0.
<mgrwt>
<rscale>  0 0.20963824E+03</rscale>
<asrwt>0</asrwt>
<pdfrwt beam="1">  1        1 0.34783374E+00 0.20963824E+03</pdfrwt>
<pdfrwt beam="2">  1       -1 0.74762293E-03 0.20963824E+03</pdfrwt>
<totfact> 0.65081753E+03</totfact>
</mgrwt>
</event>
<event>
 4    1  0.3064919E-004  0.2009112E+03  0.7818608E-02  0.1148973E+00
          1   -1    0    0  501    0  0.00000000000E+00  0.00000000000E+00  0.16823949974E+03  0.16823949982E+03  0.50400000000E-02 0.  1.
         -1   -1    0    0    0  501 -0.00000000000E+00 -0.00000000000E+00 -0.59981891978E+02  0.59981892190E+02  0.50400000000E-02 0. -1.
    5000001    1    1    2    0    0 -0.45298509524E+02  0.36915620668E+01  0.21142741290E+01  0.89437423658E+02  0.77000000000E+02 0.  0.
   -5000001    1    1    2    0    0  0.45298509524E+02 -0.36915620668E+01  0.10614333364E+03  0.13878396835E+03  0.77000000000E+02 0.  0.
<mgrwt>
<rscale>  0 0.20091116E+03</rscale>
<asrwt>0</asrwt>
<pdfrwt beam="1">  1        1 0.25882999E-01 0.20091116E+03</pdfrwt>
<pdfrwt beam="2">  1       -1 0.92279836E-02 0.20091116E+03</pdfrwt>
<totfact> 0.12226599E+04</totfact>
</mgrwt>
</event>
<event>
 4    1  0.3064919E-004  0.2262916E+03  0.7818608E-02  0.1129277E+00
         -1   -1    0    0    0  501 -0.00000000000E+00  0.00000000000E+00  0.15604318132E+02  0.15604318946E+02  0.50400000000E-02 0. -1.
          1   -1    0    0  501    0  0.00000000000E+00 -0.00000000000E+00 -0.82041209348E+03  0.82041209350E+03  0.50400000000E-02 0.  1.
    5000001    1    1    2    0    0  0.66744692892E+01  0.82507994927E+02 -0.41927485052E+03  0.43424937311E+03  0.77000000000E+02 0.  0.
   -5000001    1    1    2    0    0 -0.66744692892E+01 -0.82507994927E+02 -0.38553292483E+03  0.40176703934E+03  0.77000000000E+02 0.  0.
<mgrwt>
<rscale>  0 0.22629160E+03</rscale>
<asrwt>0</asrwt>
<pdfrwt beam="1">  1        1 0.12621721E+00 0.22629160E+03</pdfrwt>
<pdfrwt beam="2">  1       -1 0.24006650E-02 0.22629160E+03</pdfrwt>
<totfact> 0.11478676E+04</totfact>
</mgrwt>
</event>
<event>
 4    1  0.3064919E-004  0.2899780E+03  0.7818608E-02  0.1090361E+00
          1   -1    0    0  501    0  0.00000000000E+00  0.00000000000E+00  0.23397231815E+03  0.23397231820E+03  0.50400000000E-02 0.  1.
         -1   -1    0    0    0  501 -0.00000000000E+00 -0.00000000000E+00 -0.89847435643E+02  0.89847435784E+02  0.50400000000E-02 0. -1.
    5000001    1    1    2    0    0 -0.64806399595E+02  0.97247478408E+02  0.29747277640E+02  0.14307635029E+03  0.77000000000E+02 0.  0.
   -5000001    1    1    2    0    0  0.64806399595E+02 -0.97247478408E+02  0.11437760487E+03  0.18074340370E+03  0.77000000000E+02 0.  0.
<mgrwt>
<rscale>  0 0.28997802E+03</rscale>
<asrwt>0</asrwt>
<pdfrwt beam="1">  1        1 0.35995741E-01 0.28997802E+03</pdfrwt>
<pdfrwt beam="2">  1       -1 0.13822683E-01 0.28997802E+03</pdfrwt>
<totfact> 0.43816990E+03</totfact>
</mgrwt>
</event>
<event>
 4    1  0.3064919E-004  0.2179521E+03  0.7818608E-02  0.1135419E+00
          1   -1    0    0  501    0  0.00000000000E+00  0.00000000000E+00  0.67370961889E+02  0.67370962077E+02  0.50400000000E-02 0. -1.
         -1   -1    0    0    0  501 -0.00000000000E+00 -0.00000000000E+00 -0.17627451355E+03  0.17627451362E+03  0.50400000000E-02 0.  1.
    5000001    1    1    2    0    0 -0.29361159106E+02 -0.65628869190E+02 -0.85623688912E+02  0.13575581843E+03  0.77000000000E+02 0.  0.
   -5000001    1    1    2    0    0  0.29361159106E+02  0.65628869190E+02 -0.23279862747E+02  0.10788965727E+03  0.77000000000E+02 0.  0.
<mgrwt>
<rscale>  0 0.21795214E+03</rscale>
<asrwt>0</asrwt>
<pdfrwt beam="1">  1        1 0.10364763E-01 0.21795214E+03</pdfrwt>
<pdfrwt beam="2">  1       -1 0.27119156E-01 0.21795214E+03</pdfrwt>
<totfact> 0.72563310E+03</totfact>
</mgrwt>
</event>
<event>
 4    1  0.3064919E-004  0.2267966E+03  0.7818608E-02  0.1128915E+00
          1   -1    0    0  501    0  0.00000000000E+00  0.00000000000E+00  0.96256849083E+03  0.96256849085E+03  0.50400000000E-02 0.  1.
         -1   -1    0    0    0  501 -0.00000000000E+00 -0.00000000000E+00 -0.13359233621E+02  0.13359234571E+02  0.50400000000E-02 0. -1.
    5000001    1    1    2    0    0 -0.24653332359E+02  0.79170693653E+02  0.44286880943E+03  0.45709689115E+03  0.77000000000E+02 0.  0.
   -5000001    1    1    2    0    0  0.24653332359E+02 -0.79170693653E+02  0.50634044778E+03  0.51883083427E+03  0.77000000000E+02 0.  0.
<mgrwt>
<rscale>  0 0.22679663E+03</rscale>
<asrwt>0</asrwt>
<pdfrwt beam="1">  1        1 0.14808748E+00 0.22679663E+03</pdfrwt>
<pdfrwt beam="2">  1       -1 0.20552666E-02 0.22679663E+03</pdfrwt>
<totfact> 0.11135037E+04</totfact>
</mgrwt>
</event>
<event>
 4    1  0.3064919E-004  0.2324967E+03  0.7818608E-02  0.1124895E+00
         -1   -1    0    0    0  501 -0.00000000000E+00  0.00000000000E+00  0.41106620319E+03  0.41106620322E+03  0.50400000000E-02 0. -1.
          1   -1    0    0  501    0  0.00000000000E+00 -0.00000000000E+00 -0.32874693377E+02  0.32874693763E+02  0.50400000000E-02 0.  1.
    5000001    1    1    2    0    0 -0.59288935365E+02 -0.52562658014E+02  0.25811822233E+03  0.28077041791E+03  0.77000000000E+02 0.  0.
   -5000001    1    1    2    0    0  0.59288935365E+02  0.52562658014E+02  0.12007328748E+03  0.16317047907E+03  0.77000000000E+02 0.  0.
<mgrwt>
<rscale>  0 0.23249667E+03</rscale>
<asrwt>0</asrwt>
<pdfrwt beam="1">  1        1 0.50576450E-02 0.23249667E+03</pdfrwt>
<pdfrwt beam="2">  1       -1 0.63240956E-01 0.23249667E+03</pdfrwt>
<totfact> 0.42471733E+03</totfact>
</mgrwt>
</event>
<event>
 4    1  0.3064919E-004  0.2036202E+03  0.7818608E-02  0.1146720E+00
          1   -1    0    0  501    0  0.00000000000E+00  0.00000000000E+00  0.35243969932E+04  0.35243969932E+04  0.50400000000E-02 0.  1.
         -1   -1    0    0    0  501 -0.00000000000E+00 -0.00000000000E+00 -0.29410100616E+01  0.29410143801E+01  0.50400000000E-02 0. -1.
    5000001    1    1    2    0    0 -0.12551008827E+02  0.64399091758E+02  0.15620597586E+04  0.15653320607E+04  0.77000000000E+02 0.  0.
   -5000001    1    1    2    0    0  0.12551008827E+02 -0.64399091758E+02  0.19593962246E+04  0.19620059469E+04  0.77000000000E+02 0.  0.
<mgrwt>
<rscale>  0 0.20362018E+03</rscale>
<asrwt>0</asrwt>
<pdfrwt beam="1">  1        1 0.54221731E+00 0.20362018E+03</pdfrwt>
<pdfrwt beam="2">  1       -1 0.45246143E-03 0.20362018E+03</pdfrwt>
<totfact> 0.17855502E+03</totfact>
</mgrwt>
</event>
<event>
 4    1  0.3064919E-004  0.1628804E+03  0.7818608E-02  0.1185483E+00
          1   -1    0    0  501    0  0.00000000000E+00  0.00000000000E+00  0.64644685759E+02  0.64644685955E+02  0.50400000000E-02 0.  1.
         -1   -1    0    0    0  501 -0.00000000000E+00 -0.00000000000E+00 -0.10259937442E+03  0.10259937455E+03  0.50400000000E-02 0. -1.
    5000001    1    1    2    0    0  0.94810601765E+01 -0.21607827727E+02 -0.65402159108E+01  0.80799524413E+02  0.77000000000E+02 0.  0.
   -5000001    1    1    2    0    0 -0.94810601765E+01  0.21607827727E+02 -0.31414472752E+02  0.86444536088E+02  0.77000000000E+02 0.  0.
<mgrwt>
<rscale>  0 0.16288038E+03</rscale>
<asrwt>0</asrwt>
<pdfrwt beam="1">  1        1 0.99453363E-02 0.16288038E+03</pdfrwt>
<pdfrwt beam="2">  1       -1 0.15784519E-01 0.16288038E+03</pdfrwt>
<totfact> 0.18068522E+04</totfact>
</mgrwt>
</event>
<event>
 4    1  0.3064919E-004  0.2847193E+03  0.7818608E-02  0.1093139E+00
         -1   -1    0    0    0  501 -0.00000000000E+00  0.00000000000E+00  0.28506499880E+03  0.28506499884E+03  0.50400000000E-02 0. -1.
          1   -1    0    0  501    0  0.00000000000E+00 -0.00000000000E+00 -0.71093514278E+02  0.71093514456E+02  0.50400000000E-02 0.  1.
    5000001    1    1    2    0    0 -0.92689757287E+02 -0.72566666699E+02  0.79580787571E+02  0.16161501778E+03  0.77000000000E+02 0.  0.
   -5000001    1    1    2    0    0  0.92689757287E+02  0.72566666699E+02  0.13439069695E+03  0.19454349552E+03  0.77000000000E+02 0.  0.
<mgrwt>
<rscale>  0 0.28471932E+03</rscale>
<asrwt>0</asrwt>
<pdfrwt beam="1">  1        1 0.10937464E-01 0.28471932E+03</pdfrwt>
<pdfrwt beam="2">  1       -1 0.43856154E-01 0.28471932E+03</pdfrwt>
<totfact> 0.29645086E+03</totfact>
</mgrwt>
</event>
<event>
 4    1  0.3064919E-004  0.2925671E+03  0.7818608E-02  0.1089016E+00
          1   -1    0    0  501    0  0.00000000000E+00  0.00000000000E+00  0.21043588847E+03  0.21043588853E+03  0.50400000000E-02 0.  1.
         -1   -1    0    0    0  501 -0.00000000000E+00 -0.00000000000E+00 -0.10168833133E+03  0.10168833145E+03  0.50400000000E-02 0. -1.
    5000001    1    1    2    0    0  0.50955991808E+02 -0.10611309612E+03  0.97225599571E+02  0.17099216205E+03  0.77000000000E+02 0.  0.
   -5000001    1    1    2    0    0 -0.50955991808E+02  0.10611309612E+03  0.11521957574E+02  0.14113205793E+03  0.77000000000E+02 0.  0.
<mgrwt>
<rscale>  0 0.29256708E+03</rscale>
<asrwt>0</asrwt>
<pdfrwt beam="1">  1        1 0.32374752E-01 0.29256708E+03</pdfrwt>
<pdfrwt beam="2">  1       -1 0.15644359E-01 0.29256708E+03</pdfrwt>
<totfact> 0.41155234E+03</totfact>
</mgrwt>
</event>
<event>
 4    1  0.3064919E-004  0.4982012E+03  0.7818608E-02  0.1014249E+00
         -1   -1    0    0    0  501 -0.00000000000E+00  0.00000000000E+00  0.50876513487E+02  0.50876513737E+02  0.50400000000E-02 0. -1.
          1   -1    0    0  501    0  0.00000000000E+00 -0.00000000000E+00 -0.12196416980E+04  0.12196416980E+04  0.50400000000E-02 0.  1.
    5000001    1    1    2    0    0  0.21362439237E+03 -0.90207222994E+02 -0.46077249031E+03  0.52154866688E+03  0.77000000000E+02 0.  0.
   -5000001    1    1    2    0    0 -0.21362439237E+03  0.90207222994E+02 -0.70799269421E+03  0.74896954488E+03  0.77000000000E+02 0.  0.
<mgrwt>
<rscale>  0 0.49820123E+03</rscale>
<asrwt>0</asrwt>
<pdfrwt beam="1">  1        1 0.18763716E+00 0.49820123E+03</pdfrwt>
<pdfrwt beam="2">  1       -1 0.78271569E-02 0.49820123E+03</pdfrwt>
<totfact> 0.97892283E+02</totfact>
</mgrwt>
</event>
<event>
 4    1  0.3064919E-004  0.2538058E+03  0.7818608E-02  0.1110923E+00
         -1   -1    0    0    0  501 -0.00000000000E+00  0.00000000000E+00  0.52748049429E+02  0.52748049670E+02  0.50400000000E-02 0.  1.
          1   -1    0    0  501    0  0.00000000000E+00 -0.00000000000E+00 -0.30530705159E+03  0.30530705163E+03  0.50400000000E-02 0. -1.
    5000001    1    1    2    0    0  0.73315852105E+02 -0.66196454709E+02 -0.97431018199E+02  0.15867888358E+03  0.77000000000E+02 0.  0.
   -5000001    1    1    2    0    0 -0.73315852105E+02  0.66196454709E+02 -0.15512798396E+03  0.19937621772E+03  0.77000000000E+02 0.  0.
<mgrwt>
<rscale>  0 0.25380584E+03</rscale>
<asrwt>0</asrwt>
<pdfrwt beam="1">  1        1 0.46970315E-01 0.25380584E+03</pdfrwt>
<pdfrwt beam="2">  1       -1 0.81150847E-02 0.25380584E+03</pdfrwt>
<totfact> 0.71345204E+03</totfact>
</mgrwt>
</event>
<event>
 4    1  0.3064919E-004  0.2232685E+03  0.7818608E-02  0.1131469E+00
         -1   -1    0    0    0  501 -0.00000000000E+00  0.00000000000E+00  0.23245678762E+02  0.23245679309E+02  0.50400000000E-02 0. -1.
          1   -1    0    0  501    0  0.00000000000E+00 -0.00000000000E+00 -0.53610865913E+03  0.53610865916E+03  0.50400000000E-02 0.  1.
    5000001    1    1    2    0    0 -0.81751192162E+01  0.80407126342E+02 -0.25383842672E+03  0.27729963112E+03  0.77000000000E+02 0.  0.
   -5000001    1    1    2    0    0  0.81751192162E+01 -0.80407126342E+02 -0.25902455365E+03  0.28205470734E+03  0.77000000000E+02 0.  0.
<mgrwt>
<rscale>  0 0.22326854E+03</rscale>
<asrwt>0</asrwt>
<pdfrwt beam="1">  1        1 0.82478246E-01 0.22326854E+03</pdfrwt>
<pdfrwt beam="2">  1       -1 0.35762587E-02 0.22326854E+03</pdfrwt>
<totfact> 0.11743018E+04</totfact>
</mgrwt>
</event>
<event>
 4    1  0.3064919E-004  0.2750639E+03  0.7818608E-02  0.1098416E+00
         -1   -1    0    0    0  501 -0.00000000000E+00  0.00000000000E+00  0.15939313637E+02  0.15939314434E+02  0.50400000000E-02 0. -1.
          1   -1    0    0  501    0  0.00000000000E+00 -0.00000000000E+00 -0.11866905454E+04  0.11866905454E+04  0.50400000000E-02 0.  1.
    5000001    1    1    2    0    0 -0.62925339835E+02  0.64665174786E+02 -0.88970129681E+03  0.89757371885E+03  0.77000000000E+02 0.  0.
   -5000001    1    1    2    0    0  0.62925339835E+02 -0.64665174786E+02 -0.28104993498E+03  0.30505614102E+03  0.77000000000E+02 0.  0.
<mgrwt>
<rscale>  0 0.27506387E+03</rscale>
<asrwt>0</asrwt>
<pdfrwt beam="1">  1        1 0.18256771E+00 0.27506387E+03</pdfrwt>
<pdfrwt beam="2">  1       -1 0.24522031E-02 0.27506387E+03</pdfrwt>
<totfact> 0.59436568E+03</totfact>
</mgrwt>
</event>
<event>
 4    1  0.3064919E-004  0.4893131E+03  0.7818608E-02  0.1016607E+00
         -1   -1    0    0    0  501 -0.00000000000E+00  0.00000000000E+00  0.16878892106E+03  0.16878892113E+03  0.50400000000E-02 0. -1.
          1   -1    0    0  501    0  0.00000000000E+00 -0.00000000000E+00 -0.35462534643E+03  0.35462534647E+03  0.50400000000E-02 0.  1.
    5000001    1    1    2    0    0  0.20606636883E+03 -0.55972358355E+02  0.47205564185E+01  0.22704082653E+03  0.77000000000E+02 0.  0.
   -5000001    1    1    2    0    0 -0.20606636883E+03  0.55972358355E+02 -0.19055698179E+03  0.29637344107E+03  0.77000000000E+02 0.  0.
<mgrwt>
<rscale>  0 0.48931311E+03</rscale>
<asrwt>0</asrwt>
<pdfrwt beam="1">  1        1 0.54557746E-01 0.48931311E+03</pdfrwt>
<pdfrwt beam="2">  1       -1 0.25967526E-01 0.48931311E+03</pdfrwt>
<totfact> 0.92673246E+02</totfact>
</mgrwt>
</event>
<event>
 4    1  0.3064919E-004  0.2133856E+03  0.7818608E-02  0.1138913E+00
          1   -1    0    0  501    0  0.00000000000E+00  0.00000000000E+00  0.36764615729E+03  0.36764615733E+03  0.50400000000E-02 0.  1.
         -1   -1    0    0    0  501 -0.00000000000E+00 -0.00000000000E+00 -0.30962801145E+02  0.30962801555E+02  0.50400000000E-02 0. -1.
    5000001    1    1    2    0    0  0.50221667981E+02 -0.34819869280E+02  0.90875835133E+02  0.13387328577E+03  0.77000000000E+02 0.  0.
   -5000001    1    1    2    0    0 -0.50221667981E+02  0.34819869280E+02  0.24580752102E+03  0.26473567312E+03  0.77000000000E+02 0.  0.
<mgrwt>
<rscale>  0 0.21338561E+03</rscale>
<asrwt>0</asrwt>
<pdfrwt beam="1">  1        1 0.56560950E-01 0.21338561E+03</pdfrwt>
<pdfrwt beam="2">  1       -1 0.47635076E-02 0.21338561E+03</pdfrwt>
<totfact> 0.12489960E+04</totfact>
</mgrwt>
</event>
<event>
 4    1  0.3064919E-004  0.2066970E+03  0.7818608E-02  0.1144209E+00
         -1   -1    0    0    0  501 -0.00000000000E+00  0.00000000000E+00  0.19835827256E+02  0.19835827896E+02  0.50400000000E-02 0.  1.
          1   -1    0    0  501    0  0.00000000000E+00 -0.00000000000E+00 -0.53846578116E+03  0.53846578118E+03  0.50400000000E-02 0. -1.
    5000001    1    1    2    0    0  0.80437296697E+01  0.65543225115E+02 -0.20588453889E+03  0.22951701309E+03  0.77000000000E+02 0.  0.
   -5000001    1    1    2    0    0 -0.80437296697E+01 -0.65543225115E+02 -0.31274541501E+03  0.32878459599E+03  0.77000000000E+02 0.  0.
<mgrwt>
<rscale>  0 0.20669702E+03</rscale>
<asrwt>0</asrwt>
<pdfrwt beam="1">  1        1 0.82840878E-01 0.20669702E+03</pdfrwt>
<pdfrwt beam="2">  1       -1 0.30516662E-02 0.20669702E+03</pdfrwt>
<totfact> 0.14682084E+04</totfact>
</mgrwt>
</event>
<event>
 4    1  0.3064919E-004  0.2393353E+03  0.7818608E-02  0.1120236E+00
         -1   -1    0    0    0  501 -0.00000000000E+00  0.00000000000E+00  0.63136722504E+02  0.63136722705E+02  0.50400000000E-02 0.  1.
          1   -1    0    0  501    0  0.00000000000E+00 -0.00000000000E+00 -0.22681482529E+03  0.22681482534E+03  0.50400000000E-02 0. -1.
    5000001    1    1    2    0    0 -0.64701072176E+02 -0.52133576638E+02 -0.12855920788E+03  0.17134937550E+03  0.77000000000E+02 0.  0.
   -5000001    1    1    2    0    0  0.64701072176E+02  0.52133576638E+02 -0.35118894905E+02  0.11860217255E+03  0.77000000000E+02 0.  0.
<mgrwt>
<rscale>  0 0.23933529E+03</rscale>
<asrwt>0</asrwt>
<pdfrwt beam="1">  1        1 0.34894588E-01 0.23933529E+03</pdfrwt>
<pdfrwt beam="2">  1       -1 0.97133421E-02 0.23933529E+03</pdfrwt>
<totfact> 0.78401530E+03</totfact>
</mgrwt>
</event>
<event>
 4    1  0.3064919E-004  0.1716720E+03  0.7818608E-02  0.1176115E+00
         -1   -1    0    0    0  501 -0.00000000000E+00  0.00000000000E+00  0.23847856626E+02  0.23847857159E+02  0.50400000000E-02 0. -1.
          1   -1    0    0  501    0  0.00000000000E+00 -0.00000000000E+00 -0.30895093980E+03  0.30895093984E+03  0.50400000000E-02 0.  1.
    5000001    1    1    2    0    0  0.37983723049E+01  0.36970034466E+02 -0.15726514110E+03  0.17900428958E+03  0.77000000000E+02 0.  0.
   -5000001    1    1    2    0    0 -0.37983723049E+01 -0.36970034466E+02 -0.12783794207E+03  0.15379450742E+03  0.77000000000E+02 0.  0.
<mgrwt>
<rscale>  0 0.17167199E+03</rscale>
<asrwt>0</asrwt>
<pdfrwt beam="1">  1        1 0.47530911E-01 0.17167199E+03</pdfrwt>
<pdfrwt beam="2">  1       -1 0.36689013E-02 0.17167199E+03</pdfrwt>
<totfact> 0.22511545E+04</totfact>
</mgrwt>
</event>
<event>
 4    1  0.3064919E-004  0.2048793E+03  0.7818608E-02  0.1145686E+00
         -1   -1    0    0    0  501 -0.00000000000E+00  0.00000000000E+00  0.50421403135E+03  0.50421403138E+03  0.50400000000E-02 0. -1.
          1   -1    0    0  501    0  0.00000000000E+00 -0.00000000000E+00 -0.20812356333E+02  0.20812356944E+02  0.50400000000E-02 0.  1.
    5000001    1    1    2    0    0  0.11418154880E+02  0.60856509521E+02  0.31098591776E+03  0.32630527126E+03  0.77000000000E+02 0.  0.
   -5000001    1    1    2    0    0 -0.11418154880E+02 -0.60856509521E+02  0.17241575726E+03  0.19872111706E+03  0.77000000000E+02 0.  0.
<mgrwt>
<rscale>  0 0.20487930E+03</rscale>
<asrwt>0</asrwt>
<pdfrwt beam="1">  1        1 0.32019013E-02 0.20487930E+03</pdfrwt>
<pdfrwt beam="2">  1       -1 0.77571384E-01 0.20487930E+03</pdfrwt>
<totfact> 0.53022558E+03</totfact>
</mgrwt>
</event>
<event>
 4    1  0.3064919E-004  0.1650741E+03  0.7818608E-02  0.1183084E+00
          1   -1    0    0  501    0  0.00000000000E+00  0.00000000000E+00  0.69645967189E+02  0.69645967372E+02  0.50400000000E-02 0.  1.
         -1   -1    0    0    0  501 -0.00000000000E+00 -0.00000000000E+00 -0.97814196006E+02  0.97814196136E+02  0.50400000000E-02 0. -1.
    5000001    1    1    2    0    0  0.11465589883E+02  0.18637065357E+02 -0.34488634780E+02  0.87162296238E+02  0.77000000000E+02 0.  0.
   -5000001    1    1    2    0    0 -0.11465589883E+02 -0.18637065357E+02  0.63204059637E+01  0.80297867270E+02  0.77000000000E+02 0.  0.
<mgrwt>
<rscale>  0 0.16507410E+03</rscale>
<asrwt>0</asrwt>
<pdfrwt beam="1">  1        1 0.10714764E-01 0.16507410E+03</pdfrwt>
<pdfrwt beam="2">  1       -1 0.15048338E-01 0.16507410E+03</pdfrwt>
<totfact> 0.17665079E+04</totfact>
</mgrwt>
</event>
<event>
 4    1  0.3064919E-004  0.1882640E+03  0.7818608E-02  0.1160036E+00
          1   -1    0    0  501    0  0.00000000000E+00  0.00000000000E+00  0.53739601346E+03  0.53739601348E+03  0.50400000000E-02 0.  1.
         -1   -1    0    0    0  501 -0.00000000000E+00 -0.00000000000E+00 -0.16488459214E+02  0.16488459984E+02  0.50400000000E-02 0. -1.
    5000001    1    1    2    0    0  0.46439919054E+02  0.71517025935E+00  0.17856845265E+03  0.19993216308E+03  0.77000000000E+02 0.  0.
   -5000001    1    1    2    0    0 -0.46439919054E+02 -0.71517025935E+00  0.34233910159E+03  0.35395231039E+03  0.77000000000E+02 0.  0.
<mgrwt>
<rscale>  0 0.18826399E+03</rscale>
<asrwt>0</asrwt>
<pdfrwt beam="1">  1        1 0.82676309E-01 0.18826399E+03</pdfrwt>
<pdfrwt beam="2">  1       -1 0.25366861E-02 0.18826399E+03</pdfrwt>
<totfact> 0.19176718E+04</totfact>
</mgrwt>
</event>
<event>
 4    1  0.3064919E-004  0.2157409E+03  0.7818608E-02  0.1137099E+00
          1   -1    0    0  501    0  0.00000000000E+00  0.00000000000E+00  0.23479846596E+03  0.23479846601E+03  0.50400000000E-02 0.  1.
         -1   -1    0    0    0  501 -0.00000000000E+00 -0.00000000000E+00 -0.49557522955E+02  0.49557523212E+02  0.50400000000E-02 0. -1.
    5000001    1    1    2    0    0 -0.46805546757E+02 -0.59049098861E+02  0.99776265108E+02  0.14683956675E+03  0.77000000000E+02 0.  0.
   -5000001    1    1    2    0    0  0.46805546757E+02  0.59049098861E+02  0.85464677897E+02  0.13751642248E+03  0.77000000000E+02 0.  0.
<mgrwt>
<rscale>  0 0.21574087E+03</rscale>
<asrwt>0</asrwt>
<pdfrwt beam="1">  1        1 0.36122841E-01 0.21574087E+03</pdfrwt>
<pdfrwt beam="2">  1       -1 0.76242343E-02 0.21574087E+03</pdfrwt>
<totfact> 0.10811158E+04</totfact>
</mgrwt>
</event>
<event>
 4    1  0.3064919E-004  0.1874233E+03  0.7818608E-02  0.1160806E+00
          1   -1    0    0  501    0  0.00000000000E+00  0.00000000000E+00  0.75043195420E+03  0.75043195422E+03  0.50400000000E-02 0. -1.
         -1   -1    0    0    0  501 -0.00000000000E+00 -0.00000000000E+00 -0.11702430230E+02  0.11702431315E+02  0.50400000000E-02 0.  1.
    5000001    1    1    2    0    0 -0.25355399279E+02  0.18168859552E+02  0.54567286120E+03  0.55196093628E+03  0.77000000000E+02 0.  0.
   -5000001    1    1    2    0    0  0.25355399279E+02 -0.18168859552E+02  0.19305666277E+03  0.21017344925E+03  0.77000000000E+02 0.  0.
<mgrwt>
<rscale>  0 0.18742335E+03</rscale>
<asrwt>0</asrwt>
<pdfrwt beam="1">  1        1 0.11545103E+00 0.18742335E+03</pdfrwt>
<pdfrwt beam="2">  1       -1 0.18003746E-02 0.18742335E+03</pdfrwt>
<totfact> 0.19761846E+04</totfact>
</mgrwt>
</event>
<event>
 4    1  0.3064919E-004  0.1681927E+03  0.7818608E-02  0.1179746E+00
          1   -1    0    0  501    0  0.00000000000E+00  0.00000000000E+00  0.12743128459E+04  0.12743128459E+04  0.50400000000E-02 0.  1.
         -1   -1    0    0    0  501 -0.00000000000E+00 -0.00000000000E+00 -0.55498097957E+01  0.55498120842E+01  0.50400000000E-02 0. -1.
    5000001    1    1    2    0    0 -0.21169247540E+02  0.56051695271E+01  0.83041157299E+03  0.83426131129E+03  0.77000000000E+02 0.  0.
   -5000001    1    1    2    0    0  0.21169247540E+02 -0.56051695271E+01  0.43835146315E+03  0.44560134674E+03  0.77000000000E+02 0.  0.
<mgrwt>
<rscale>  0 0.16819269E+03</rscale>
<asrwt>0</asrwt>
<pdfrwt beam="1">  1        1 0.19604817E+00 0.16819269E+03</pdfrwt>
<pdfrwt beam="2">  1       -1 0.85381690E-03 0.16819269E+03</pdfrwt>
<totfact> 0.23349365E+04</totfact>
</mgrwt>
</event>
<event>
 4    1  0.3064919E-004  0.2630860E+03  0.7818608E-02  0.1105303E+00
          1   -1    0    0  501    0  0.00000000000E+00  0.00000000000E+00  0.11681413897E+04  0.11681413897E+04  0.50400000000E-02 0.  1.
         -1   -1    0    0    0  501 -0.00000000000E+00 -0.00000000000E+00 -0.14812902061E+02  0.14812902919E+02  0.50400000000E-02 0. -1.
    5000001    1    1    2    0    0 -0.84701575816E+02  0.61002481385E+02  0.47826431364E+03  0.49554153548E+03  0.77000000000E+02 0.  0.
   -5000001    1    1    2    0    0  0.84701575816E+02 -0.61002481385E+02  0.67506417402E+03  0.68741275717E+03  0.77000000000E+02 0.  0.
<mgrwt>
<rscale>  0 0.26308603E+03</rscale>
<asrwt>0</asrwt>
<pdfrwt beam="1">  1        1 0.17971404E+00 0.26308603E+03</pdfrwt>
<pdfrwt beam="2">  1       -1 0.22789083E-02 0.26308603E+03</pdfrwt>
<totfact> 0.68143780E+03</totfact>
</mgrwt>
</event>
<event>
 4    1  0.3064919E-004  0.1747859E+03  0.7818608E-02  0.1172947E+00
         -1   -1    0    0    0  501 -0.00000000000E+00  0.00000000000E+00  0.45868184462E+03  0.45868184464E+03  0.50400000000E-02 0.  1.
          1   -1    0    0  501    0  0.00000000000E+00 -0.00000000000E+00 -0.16651034756E+02  0.16651035519E+02  0.50400000000E-02 0. -1.
    5000001    1    1    2    0    0  0.34567105938E+02 -0.16521941846E+01  0.15954516204E+03  0.18050283458E+03  0.77000000000E+02 0.  0.
   -5000001    1    1    2    0    0 -0.34567105938E+02  0.16521941846E+01  0.28248564782E+03  0.29483004559E+03  0.77000000000E+02 0.  0.
<mgrwt>
<rscale>  0 0.17478590E+03</rscale>
<asrwt>0</asrwt>
<pdfrwt beam="1">  1        1 0.25616980E-02 0.17478590E+03</pdfrwt>
<pdfrwt beam="2">  1       -1 0.70566430E-01 0.17478590E+03</pdfrwt>
<totfact> 0.86717215E+03</totfact>
</mgrwt>
</event>
<event>
 4    1  0.3064919E-004  0.2353709E+03  0.7818608E-02  0.1122916E+00
         -1   -1    0    0    0  501 -0.00000000000E+00  0.00000000000E+00  0.11950925836E+03  0.11950925847E+03  0.50400000000E-02 0. -1.
          1   -1    0    0  501    0  0.00000000000E+00 -0.00000000000E+00 -0.11588944257E+03  0.11588944268E+03  0.50400000000E-02 0.  1.
    5000001    1    1    2    0    0 -0.83193604231E+01  0.78806601213E+02 -0.38706229337E+02  0.11707631845E+03  0.77000000000E+02 0.  0.
   -5000001    1    1    2    0    0  0.83193604231E+01 -0.78806601213E+02  0.42326045125E+02  0.11832238270E+03  0.77000000000E+02 0.  0.
<mgrwt>
<rscale>  0 0.23537087E+03</rscale>
<asrwt>0</asrwt>
<pdfrwt beam="1">  1        1 0.17829145E-01 0.23537087E+03</pdfrwt>
<pdfrwt beam="2">  1       -1 0.18386040E-01 0.23537087E+03</pdfrwt>
<totfact> 0.67482870E+03</totfact>
</mgrwt>
</event>
<event>
 4    1  0.3064919E-004  0.1884717E+03  0.7818608E-02  0.1159847E+00
         -1   -1    0    0    0  501 -0.00000000000E+00  0.00000000000E+00  0.49651687690E+02  0.49651687946E+02  0.50400000000E-02 0. -1.
          1   -1    0    0  501    0  0.00000000000E+00 -0.00000000000E+00 -0.17885380617E+03  0.17885380624E+03  0.50400000000E-02 0.  1.
    5000001    1    1    2    0    0 -0.30093950629E+02 -0.29574754450E+02 -0.10609112188E+03  0.13771215671E+03  0.77000000000E+02 0.  0.
   -5000001    1    1    2    0    0  0.30093950629E+02  0.29574754450E+02 -0.23110996598E+02  0.90793337470E+02  0.77000000000E+02 0.  0.
<mgrwt>
<rscale>  0 0.18847168E+03</rscale>
<asrwt>0</asrwt>
<pdfrwt beam="1">  1        1 0.27515970E-01 0.18847168E+03</pdfrwt>
<pdfrwt beam="2">  1       -1 0.76387213E-02 0.18847168E+03</pdfrwt>
<totfact> 0.15025876E+04</totfact>
</mgrwt>
</event>
<event>
 4    1  0.3064919E-004  0.2309110E+03  0.7818608E-02  0.1126000E+00
          1   -1    0    0  501    0  0.00000000000E+00  0.00000000000E+00  0.20454854271E+04  0.20454854271E+04  0.50400000000E-02 0.  1.
         -1   -1    0    0    0  501 -0.00000000000E+00 -0.00000000000E+00 -0.65167738502E+01  0.65167757991E+01  0.50400000000E-02 0. -1.
    5000001    1    1    2    0    0 -0.70043274690E+02  0.44891744804E+02  0.12141056669E+04  0.12193862798E+04  0.77000000000E+02 0.  0.
   -5000001    1    1    2    0    0  0.70043274690E+02 -0.44891744804E+02  0.82486298642E+03  0.83261592313E+03  0.77000000000E+02 0.  0.
<mgrwt>
<rscale>  0 0.23091096E+03</rscale>
<asrwt>0</asrwt>
<pdfrwt beam="1">  1        1 0.31468953E+00 0.23091096E+03</pdfrwt>
<pdfrwt beam="2">  1       -1 0.10025824E-02 0.23091096E+03</pdfrwt>
<totfact> 0.58938096E+03</totfact>
</mgrwt>
</event>
<event>
 4    1  0.3064919E-004  0.2622322E+03  0.7818608E-02  0.1105809E+00
          1   -1    0    0  501    0  0.00000000000E+00  0.00000000000E+00  0.21116443379E+03  0.21116443385E+03  0.50400000000E-02 0.  1.
         -1   -1    0    0    0  501 -0.00000000000E+00 -0.00000000000E+00 -0.81412508485E+02  0.81412508641E+02  0.50400000000E-02 0. -1.
    5000001    1    1    2    0    0 -0.71712419256E+02 -0.62173775093E+02  0.11903746246E+02  0.12279637030E+03  0.77000000000E+02 0.  0.
   -5000001    1    1    2    0    0  0.71712419256E+02  0.62173775093E+02  0.11784817906E+03  0.16978057219E+03  0.77000000000E+02 0.  0.
<mgrwt>
<rscale>  0 0.26223216E+03</rscale>
<asrwt>0</asrwt>
<pdfrwt beam="1">  1        1 0.32486836E-01 0.26223216E+03</pdfrwt>
<pdfrwt beam="2">  1       -1 0.12525001E-01 0.26223216E+03</pdfrwt>
<totfact> 0.58021672E+03</totfact>
</mgrwt>
</event>
<event>
 4    1  0.3064919E-004  0.2253490E+03  0.7818608E-02  0.1129957E+00
          1   -1    0    0  501    0  0.00000000000E+00  0.00000000000E+00  0.17416552044E+03  0.17416552051E+03  0.50400000000E-02 0.  1.
         -1   -1    0    0    0  501 -0.00000000000E+00 -0.00000000000E+00 -0.72893518309E+02  0.72893518483E+02  0.50400000000E-02 0. -1.
    5000001    1    1    2    0    0 -0.80709777186E+02  0.92847281826E+01  0.36499453244E+02  0.11773480538E+03  0.77000000000E+02 0.  0.
   -5000001    1    1    2    0    0  0.80709777186E+02 -0.92847281826E+01  0.64772548889E+02  0.12932423362E+03  0.77000000000E+02 0.  0.
<mgrwt>
<rscale>  0 0.22534895E+03</rscale>
<asrwt>0</asrwt>
<pdfrwt beam="1">  1        1 0.26794695E-01 0.22534895E+03</pdfrwt>
<pdfrwt beam="2">  1       -1 0.11214388E-01 0.22534895E+03</pdfrwt>
<totfact> 0.87267781E+03</totfact>
</mgrwt>
</event>
<event>
 4    1  0.3064919E-004  0.2039467E+03  0.7818608E-02  0.1146451E+00
          1   -1    0    0  501    0  0.00000000000E+00  0.00000000000E+00  0.17512530009E+02  0.17512530734E+02  0.50400000000E-02 0.  1.
         -1   -1    0    0    0  501 -0.00000000000E+00 -0.00000000000E+00 -0.59377827237E+03  0.59377827239E+03  0.50400000000E-02 0. -1.
    5000001    1    1    2    0    0 -0.62903544288E+02 -0.55626297520E+01 -0.22234478950E+03  0.24362677224E+03  0.77000000000E+02 0.  0.
   -5000001    1    1    2    0    0  0.62903544288E+02  0.55626297520E+01 -0.35392095287E+03  0.36766403089E+03  0.77000000000E+02 0.  0.
<mgrwt>
<rscale>  0 0.20394666E+03</rscale>
<asrwt>0</asrwt>
<pdfrwt beam="1">  1        1 0.26942359E-02 0.20394666E+03</pdfrwt>
<pdfrwt beam="2">  1       -1 0.91350488E-01 0.20394666E+03</pdfrwt>
<totfact> 0.47903239E+03</totfact>
</mgrwt>
</event>
<event>
 4    1  0.3064919E-004  0.2341349E+03  0.7818608E-02  0.1123763E+00
         -1   -1    0    0    0  501 -0.00000000000E+00  0.00000000000E+00  0.40869187768E+03  0.40869187771E+03  0.50400000000E-02 0.  1.
          1   -1    0    0  501    0  0.00000000000E+00 -0.00000000000E+00 -0.33533308575E+02  0.33533308954E+02  0.50400000000E-02 0. -1.
    5000001    1    1    2    0    0 -0.46451140501E+02  0.74738081341E+02  0.17684458658E+03  0.21200588921E+03  0.77000000000E+02 0.  0.
   -5000001    1    1    2    0    0  0.46451140501E+02 -0.74738081341E+02  0.19831398252E+03  0.23021929745E+03  0.77000000000E+02 0.  0.
<mgrwt>
<rscale>  0 0.23413493E+03</rscale>
<asrwt>0</asrwt>
<pdfrwt beam="1">  1        1 0.51589704E-02 0.23413493E+03</pdfrwt>
<pdfrwt beam="2">  1       -1 0.62875676E-01 0.23413493E+03</pdfrwt>
<totfact> 0.41803797E+03</totfact>
</mgrwt>
</event>
<event>
 4    1  0.3064919E-004  0.1777817E+03  0.7818608E-02  0.1169967E+00
          1   -1    0    0  501    0  0.00000000000E+00  0.00000000000E+00  0.35842092235E+02  0.35842092589E+02  0.50400000000E-02 0.  1.
         -1   -1    0    0    0  501 -0.00000000000E+00 -0.00000000000E+00 -0.22045541947E+03  0.22045541953E+03  0.50400000000E-02 0. -1.
    5000001    1    1    2    0    0  0.39606363778E+02 -0.82727157563E+01 -0.65901326628E+02  0.10912876215E+03  0.77000000000E+02 0.  0.
   -5000001    1    1    2    0    0 -0.39606363778E+02  0.82727157563E+01 -0.11871200061E+03  0.14716874996E+03  0.77000000000E+02 0.  0.
<mgrwt>
<rscale>  0 0.17778170E+03</rscale>
<asrwt>0</asrwt>
<pdfrwt beam="1">  1        1 0.55141682E-02 0.17778170E+03</pdfrwt>
<pdfrwt beam="2">  1       -1 0.33916217E-01 0.17778170E+03</pdfrwt>
<totfact> 0.11521727E+04</totfact>
</mgrwt>
</event>
<event>
 4    1  0.3064919E-004  0.3065837E+03  0.7818608E-02  0.1081995E+00
          1   -1    0    0  501    0  0.00000000000E+00  0.00000000000E+00  0.56966645935E+03  0.56966645937E+03  0.50400000000E-02 0. -1.
         -1   -1    0    0    0  501 -0.00000000000E+00 -0.00000000000E+00 -0.41249389713E+02  0.41249390021E+02  0.50400000000E-02 0.  1.
    5000001    1    1    2    0    0  0.13104370362E+03 -0.69142413748E+01  0.30144161250E+03  0.33766300469E+03  0.77000000000E+02 0.  0.
   -5000001    1    1    2    0    0 -0.13104370362E+03  0.69142413748E+01  0.22697545714E+03  0.27325284470E+03  0.77000000000E+02 0.  0.
<mgrwt>
<rscale>  0 0.30658372E+03</rscale>
<asrwt>0</asrwt>
<pdfrwt beam="1">  1        1 0.87640991E-01 0.30658372E+03</pdfrwt>
<pdfrwt beam="2">  1       -1 0.63460602E-02 0.30658372E+03</pdfrwt>
<totfact> 0.46388575E+03</totfact>
</mgrwt>
</event>
<event>
 4    1  0.3064919E-004  0.1999252E+03  0.7818608E-02  0.1149802E+00
          1   -1    0    0  501    0  0.00000000000E+00  0.00000000000E+00  0.35110943186E+03  0.35110943190E+03  0.50400000000E-02 0.  1.
         -1   -1    0    0    0  501 -0.00000000000E+00 -0.00000000000E+00 -0.28459847240E+02  0.28459847686E+02  0.50400000000E-02 0. -1.
    5000001    1    1    2    0    0  0.45223899710E+02  0.32711717707E+02  0.21978872159E+03  0.23948139744E+03  0.77000000000E+02 0.  0.
   -5000001    1    1    2    0    0 -0.45223899710E+02 -0.32711717707E+02  0.10286086303E+03  0.14008788214E+03  0.77000000000E+02 0.  0.
<mgrwt>
<rscale>  0 0.19992519E+03</rscale>
<asrwt>0</asrwt>
<pdfrwt beam="1">  1        1 0.54016839E-01 0.19992519E+03</pdfrwt>
<pdfrwt beam="2">  1       -1 0.43784378E-02 0.19992519E+03</pdfrwt>
<totfact> 0.14943126E+04</totfact>
</mgrwt>
</event>
<event>
 4    1  0.3064919E-004  0.1784384E+03  0.7818608E-02  0.1169323E+00
         -1   -1    0    0    0  501 -0.00000000000E+00  0.00000000000E+00  0.61861269098E+01  0.61861289629E+01  0.50400000000E-02 0.  1.
          1   -1    0    0  501    0  0.00000000000E+00 -0.00000000000E+00 -0.12867606514E+04  0.12867606514E+04  0.50400000000E-02 0. -1.
    5000001    1    1    2    0    0 -0.30021223449E+02 -0.33506925707E+02 -0.62100976693E+03  0.62738036194E+03  0.77000000000E+02 0.  0.
   -5000001    1    1    2    0    0  0.30021223449E+02  0.33506925707E+02 -0.65956475758E+03  0.66556641845E+03  0.77000000000E+02 0.  0.
<mgrwt>
<rscale>  0 0.17843840E+03</rscale>
<asrwt>0</asrwt>
<pdfrwt beam="1">  1        1 0.19796296E+00 0.17843840E+03</pdfrwt>
<pdfrwt beam="2">  1       -1 0.95171301E-03 0.17843840E+03</pdfrwt>
<totfact> 0.19678560E+04</totfact>
</mgrwt>
</event>
<event>
 4    1  0.3064919E-004  0.1817719E+03  0.7818608E-02  0.1166099E+00
         -1   -1    0    0    0  501 -0.00000000000E+00  0.00000000000E+00  0.13926068775E+02  0.13926069687E+02  0.50400000000E-02 0.  1.
          1   -1    0    0  501    0  0.00000000000E+00 -0.00000000000E+00 -0.59315063277E+03  0.59315063279E+03  0.50400000000E-02 0. -1.
    5000001    1    1    2    0    0 -0.33417845757E+02 -0.14015547641E+02 -0.18304954655E+03  0.20186461919E+03  0.77000000000E+02 0.  0.
   -5000001    1    1    2    0    0  0.33417845757E+02  0.14015547641E+02 -0.39617501744E+03  0.40521208328E+03  0.77000000000E+02 0.  0.
<mgrwt>
<rscale>  0 0.18177191E+03</rscale>
<asrwt>0</asrwt>
<pdfrwt beam="1">  1        1 0.91253924E-01 0.18177191E+03</pdfrwt>
<pdfrwt beam="2">  1       -1 0.21424726E-02 0.18177191E+03</pdfrwt>
<totfact> 0.21403105E+04</totfact>
</mgrwt>
</event>
<event>
 4    1  0.3064919E-004  0.2467238E+03  0.7818608E-02  0.1115393E+00
         -1   -1    0    0    0  501 -0.00000000000E+00  0.00000000000E+00  0.54567012147E+01  0.54567035423E+01  0.50400000000E-02 0.  1.
          1   -1    0    0  501    0  0.00000000000E+00 -0.00000000000E+00 -0.27888925512E+04  0.27888925512E+04  0.50400000000E-02 0. -1.
    5000001    1    1    2    0    0 -0.72278442247E+02  0.44061866016E+02 -0.19136324889E+04  0.19170508402E+04  0.77000000000E+02 0.  0.
   -5000001    1    1    2    0    0  0.72278442247E+02 -0.44061866016E+02 -0.86980336103E+03  0.87729841451E+03  0.77000000000E+02 0.  0.
<mgrwt>
<rscale>  0 0.24672379E+03</rscale>
<asrwt>0</asrwt>
<pdfrwt beam="1">  1        1 0.42905925E+00 0.24672379E+03</pdfrwt>
<pdfrwt beam="2">  1       -1 0.83949490E-03 0.24672379E+03</pdfrwt>
<totfact> 0.24579055E+03</totfact>
</mgrwt>
</event>
<event>
 4    1  0.3064919E-004  0.4021773E+03  0.7818608E-02  0.1043028E+00
          1   -1    0    0  501    0  0.00000000000E+00  0.00000000000E+00  0.40230500408E+03  0.40230500411E+03  0.50400000000E-02 0.  1.
         -1   -1    0    0    0  501 -0.00000000000E+00 -0.00000000000E+00 -0.10051240665E+03  0.10051240678E+03  0.50400000000E-02 0. -1.
    5000001    1    1    2    0    0 -0.10312609813E+03 -0.35352305822E+02 -0.37150773187E+02  0.13854225922E+03  0.77000000000E+02 0.  0.
   -5000001    1    1    2    0    0  0.10312609813E+03  0.35352305822E+02  0.33894337062E+03  0.36427515167E+03  0.77000000000E+02 0.  0.
<mgrwt>
<rscale>  0 0.40217730E+03</rscale>
<asrwt>0</asrwt>
<pdfrwt beam="1">  1        1 0.61893078E-01 0.40217730E+03</pdfrwt>
<pdfrwt beam="2">  1       -1 0.15463447E-01 0.40217730E+03</pdfrwt>
<totfact> 0.18492147E+03</totfact>
</mgrwt>
</event>
<event>
 4    1  0.3064919E-004  0.1994086E+03  0.7818608E-02  0.1150239E+00
         -1   -1    0    0    0  501 -0.00000000000E+00  0.00000000000E+00  0.60762972814E+02  0.60762973023E+02  0.50400000000E-02 0. -1.
          1   -1    0    0  501    0  0.00000000000E+00 -0.00000000000E+00 -0.16360198345E+03  0.16360198353E+03  0.50400000000E-02 0.  1.
    5000001    1    1    2    0    0 -0.30948741377E+02 -0.26616531699E+02  0.30740933190E+01  0.87205013630E+02  0.77000000000E+02 0.  0.
   -5000001    1    1    2    0    0  0.30948741377E+02  0.26616531699E+02 -0.10591310396E+03  0.13715994292E+03  0.77000000000E+02 0.  0.
<mgrwt>
<rscale>  0 0.19940855E+03</rscale>
<asrwt>0</asrwt>
<pdfrwt beam="1">  1        1 0.25169536E-01 0.19940855E+03</pdfrwt>
<pdfrwt beam="2">  1       -1 0.93481497E-02 0.19940855E+03</pdfrwt>
<totfact> 0.12411811E+04</totfact>
</mgrwt>
</event>
<event>
 4    1  0.3064919E-004  0.9553868E+03  0.7818608E-02  0.9358876E-01
         -1   -1    0    0    0  501 -0.00000000000E+00  0.00000000000E+00  0.27272259129E+03  0.27272259134E+03  0.50400000000E-02 0. -1.
          1   -1    0    0  501    0  0.00000000000E+00 -0.00000000000E+00 -0.83671458781E+03  0.83671458783E+03  0.50400000000E-02 0.  1.
    5000001    1    1    2    0    0  0.24444561860E+03  0.35578961698E+03 -0.50208791911E+03  0.66660422330E+03  0.77000000000E+02 0.  0.
   -5000001    1    1    2    0    0 -0.24444561860E+03 -0.35578961698E+03 -0.61904077409E+02  0.44283295587E+03  0.77000000000E+02 0.  0.
<mgrwt>
<rscale>  0 0.95538677E+03</rscale>
<asrwt>0</asrwt>
<pdfrwt beam="1">  1        1 0.12872532E+00 0.95538677E+03</pdfrwt>
<pdfrwt beam="2">  1       -1 0.41957322E-01 0.95538677E+03</pdfrwt>
<totfact> 0.11513715E+02</totfact>
</mgrwt>
</event>
<event>
 4    1  0.3064919E-004  0.2784282E+03  0.7818608E-02  0.1096551E+00
         -1   -1    0    0    0  501 -0.00000000000E+00  0.00000000000E+00  0.33585047816E+02  0.33585048194E+02  0.50400000000E-02 0. -1.
          1   -1    0    0  501    0  0.00000000000E+00 -0.00000000000E+00 -0.57705915714E+03  0.57705915716E+03  0.50400000000E-02 0.  1.
    5000001    1    1    2    0    0  0.99439080933E+02 -0.53264120782E+02 -0.33084579241E+03  0.35792895347E+03  0.77000000000E+02 0.  0.
   -5000001    1    1    2    0    0 -0.99439080933E+02  0.53264120782E+02 -0.21262831691E+03  0.25271525188E+03  0.77000000000E+02 0.  0.
<mgrwt>
<rscale>  0 0.27842816E+03</rscale>
<asrwt>0</asrwt>
<pdfrwt beam="1">  1        1 0.88778325E-01 0.27842816E+03</pdfrwt>
<pdfrwt beam="2">  1       -1 0.51669309E-02 0.27842816E+03</pdfrwt>
<totfact> 0.61993881E+03</totfact>
</mgrwt>
</event>
<event>
 4    1  0.3064919E-004  0.2117968E+03  0.7818608E-02  0.1140151E+00
         -1   -1    0    0    0  501 -0.00000000000E+00  0.00000000000E+00  0.23217068421E+02  0.23217068969E+02  0.50400000000E-02 0. -1.
          1   -1    0    0  501    0  0.00000000000E+00 -0.00000000000E+00 -0.48302706454E+03  0.48302706457E+03  0.50400000000E-02 0.  1.
    5000001    1    1    2    0    0 -0.29119825822E+02 -0.41410381308E+02 -0.10518400232E+03  0.13984083195E+03  0.77000000000E+02 0.  0.
   -5000001    1    1    2    0    0  0.29119825822E+02  0.41410381308E+02 -0.35462599380E+03  0.36640330159E+03  0.77000000000E+02 0.  0.
<mgrwt>
<rscale>  0 0.21179681E+03</rscale>
<asrwt>0</asrwt>
<pdfrwt beam="1">  1        1 0.74311849E-01 0.21179681E+03</pdfrwt>
<pdfrwt beam="2">  1       -1 0.35718571E-02 0.21179681E+03</pdfrwt>
<totfact> 0.13469150E+04</totfact>
</mgrwt>
</event>
<event>
 4    1  0.3064919E-004  0.1993335E+03  0.7818608E-02  0.1150303E+00
         -1   -1    0    0    0  501 -0.00000000000E+00  0.00000000000E+00  0.25575347522E+02  0.25575348019E+02  0.50400000000E-02 0. -1.
          1   -1    0    0  501    0  0.00000000000E+00 -0.00000000000E+00 -0.38839982430E+03  0.38839982433E+03  0.50400000000E-02 0.  1.
    5000001    1    1    2    0    0 -0.63767362312E+01  0.25575192304E+02 -0.30089047706E+03  0.31170311582E+03  0.77000000000E+02 0.  0.
   -5000001    1    1    2    0    0  0.63767362312E+01 -0.25575192304E+02 -0.61933999721E+02  0.10227205653E+03  0.77000000000E+02 0.  0.
<mgrwt>
<rscale>  0 0.19933350E+03</rscale>
<asrwt>0</asrwt>
<pdfrwt beam="1">  1        1 0.59753815E-01 0.19933350E+03</pdfrwt>
<pdfrwt beam="2">  1       -1 0.39346692E-02 0.19933350E+03</pdfrwt>
<totfact> 0.15404664E+04</totfact>
</mgrwt>
</event>
<event>
 4    1  0.3064919E-004  0.4622581E+03  0.7818608E-02  0.1024128E+00
         -1   -1    0    0    0  501 -0.00000000000E+00  0.00000000000E+00  0.13954050506E+03  0.13954050515E+03  0.50400000000E-02 0. -1.
          1   -1    0    0  501    0  0.00000000000E+00 -0.00000000000E+00 -0.38283251169E+03  0.38283251172E+03  0.50400000000E-02 0.  1.
    5000001    1    1    2    0    0 -0.11391237937E+03  0.18557293736E+03 -0.13164527176E+03  0.26584360596E+03  0.77000000000E+02 0.  0.
   -5000001    1    1    2    0    0  0.11391237937E+03 -0.18557293736E+03 -0.11164673487E+03  0.25652941091E+03  0.77000000000E+02 0.  0.
<mgrwt>
<rscale>  0 0.46225812E+03</rscale>
<asrwt>0</asrwt>
<pdfrwt beam="1">  1        1 0.58897309E-01 0.46225812E+03</pdfrwt>
<pdfrwt beam="2">  1       -1 0.21467770E-01 0.46225812E+03</pdfrwt>
<totfact> 0.11549316E+03</totfact>
</mgrwt>
</event>
<event>
 4    1  0.3064919E-004  0.3861201E+03  0.7818608E-02  0.1048695E+00
          1   -1    0    0  501    0  0.00000000000E+00  0.00000000000E+00  0.53876007399E+03  0.53876007402E+03  0.50400000000E-02 0. -1.
         -1   -1    0    0    0  501 -0.00000000000E+00 -0.00000000000E+00 -0.69181408698E+02  0.69181408882E+02  0.50400000000E-02 0.  1.
    5000001    1    1    2    0    0 -0.15354019109E+03 -0.16628180482E+00  0.37356385017E+03  0.41116124341E+03  0.77000000000E+02 0.  0.
   -5000001    1    1    2    0    0  0.15354019109E+03  0.16628180482E+00  0.96014815124E+02  0.19678023949E+03  0.77000000000E+02 0.  0.
<mgrwt>
<rscale>  0 0.38612009E+03</rscale>
<asrwt>0</asrwt>
<pdfrwt beam="1">  1        1 0.82886167E-01 0.38612009E+03</pdfrwt>
<pdfrwt beam="2">  1       -1 0.10643293E-01 0.38612009E+03</pdfrwt>
<totfact> 0.22660630E+03</totfact>
</mgrwt>
</event>
<event>
 4    1  0.3064919E-004  0.2393078E+03  0.7818608E-02  0.1120255E+00
          1   -1    0    0  501    0  0.00000000000E+00  0.00000000000E+00  0.39543721923E+03  0.39543721926E+03  0.50400000000E-02 0.  1.
         -1   -1    0    0    0  501 -0.00000000000E+00 -0.00000000000E+00 -0.36205621022E+02  0.36205621372E+02  0.50400000000E-02 0. -1.
    5000001    1    1    2    0    0 -0.86069539992E+02 -0.26687431531E+02  0.15009513425E+03  0.19125306283E+03  0.77000000000E+02 0.  0.
   -5000001    1    1    2    0    0  0.86069539992E+02  0.26687431531E+02  0.20913646396E+03  0.24038977780E+03  0.77000000000E+02 0.  0.
<mgrwt>
<rscale>  0 0.23930775E+03</rscale>
<asrwt>0</asrwt>
<pdfrwt beam="1">  1        1 0.60836498E-01 0.23930775E+03</pdfrwt>
<pdfrwt beam="2">  1       -1 0.55700954E-02 0.23930775E+03</pdfrwt>
<totfact> 0.90661187E+03</totfact>
</mgrwt>
</event>
<event>
 4    1  0.3064919E-004  0.2200813E+03  0.7818608E-02  0.1133822E+00
         -1   -1    0    0    0  501 -0.00000000000E+00  0.00000000000E+00  0.10586388563E+03  0.10586388575E+03  0.50400000000E-02 0.  1.
          1   -1    0    0  501    0  0.00000000000E+00 -0.00000000000E+00 -0.11438217193E+03  0.11438217204E+03  0.50400000000E-02 0. -1.
    5000001    1    1    2    0    0  0.54149212377E+02  0.17363907128E+02 -0.58579604729E+02  0.11222393934E+03  0.77000000000E+02 0.  0.
   -5000001    1    1    2    0    0 -0.54149212377E+02 -0.17363907128E+02  0.50061318422E+02  0.10802211845E+03  0.77000000000E+02 0.  0.
<mgrwt>
<rscale>  0 0.22008127E+03</rscale>
<asrwt>0</asrwt>
<pdfrwt beam="1">  1        1 0.17597257E-01 0.22008127E+03</pdfrwt>
<pdfrwt beam="2">  1       -1 0.16286752E-01 0.22008127E+03</pdfrwt>
<totfact> 0.83039910E+03</totfact>
</mgrwt>
</event>
<event>
 4    1  0.3064919E-004  0.1745502E+03  0.7818608E-02  0.1173184E+00
          1   -1    0    0  501    0  0.00000000000E+00  0.00000000000E+00  0.18464674378E+02  0.18464675066E+02  0.50400000000E-02 0.  1.
         -1   -1    0    0    0  501 -0.00000000000E+00 -0.00000000000E+00 -0.41251441801E+03  0.41251441804E+03  0.50400000000E-02 0. -1.
    5000001    1    1    2    0    0 -0.39105277623E+02 -0.37515116736E+01 -0.16732927900E+03  0.18833848303E+03  0.77000000000E+02 0.  0.
   -5000001    1    1    2    0    0  0.39105277623E+02  0.37515116736E+01 -0.22672046463E+03  0.24264061008E+03  0.77000000000E+02 0.  0.
<mgrwt>
<rscale>  0 0.17455022E+03</rscale>
<asrwt>0</asrwt>
<pdfrwt beam="1">  1        1 0.28407195E-02 0.17455022E+03</pdfrwt>
<pdfrwt beam="2">  1       -1 0.63463750E-01 0.17455022E+03</pdfrwt>
<totfact> 0.92410909E+03</totfact>
</mgrwt>
</event>
<event>
 4    1  0.3064919E-004  0.5523742E+03  0.7818608E-02  0.1000946E+00
         -1   -1    0    0    0  501 -0.00000000000E+00  0.00000000000E+00  0.25371540313E+03  0.25371540318E+03  0.50400000000E-02 0. -1.
          1   -1    0    0  501    0  0.00000000000E+00 -0.00000000000E+00 -0.30064912474E+03  0.30064912478E+03  0.50400000000E-02 0.  1.
    5000001    1    1    2    0    0  0.25159262568E+03  0.81583737654E+02 -0.35065483760E+01  0.27549237998E+03  0.77000000000E+02 0.  0.
   -5000001    1    1    2    0    0 -0.25159262568E+03 -0.81583737654E+02 -0.43427173228E+02  0.27887214798E+03  0.77000000000E+02 0.  0.
<mgrwt>
<rscale>  0 0.55237420E+03</rscale>
<asrwt>0</asrwt>
<pdfrwt beam="1">  1        1 0.46253711E-01 0.55237420E+03</pdfrwt>
<pdfrwt beam="2">  1       -1 0.39033139E-01 0.55237420E+03</pdfrwt>
<totfact> 0.56246058E+02</totfact>
</mgrwt>
</event>
<event>
 4    1  0.3064919E-004  0.1801369E+03  0.7818608E-02  0.1167671E+00
         -1   -1    0    0    0  501 -0.00000000000E+00  0.00000000000E+00  0.55595533284E+01  0.55595556129E+01  0.50400000000E-02 0.  1.
          1   -1    0    0  501    0  0.00000000000E+00 -0.00000000000E+00 -0.14591685183E+04  0.14591685183E+04  0.50400000000E-02 0. -1.
    5000001    1    1    2    0    0 -0.40349577728E+02  0.21108231919E+01 -0.53597542579E+03  0.54298361030E+03  0.77000000000E+02 0.  0.
   -5000001    1    1    2    0    0  0.40349577728E+02 -0.21108231919E+01 -0.91763353921E+03  0.92174446365E+03  0.77000000000E+02 0.  0.
<mgrwt>
<rscale>  0 0.18013691E+03</rscale>
<asrwt>0</asrwt>
<pdfrwt beam="1">  1        1 0.22448716E+00 0.18013691E+03</pdfrwt>
<pdfrwt beam="2">  1       -1 0.85531723E-03 0.18013691E+03</pdfrwt>
<totfact> 0.17610501E+04</totfact>
</mgrwt>
</event>
<event>
 4    1  0.3064919E-004  0.2490919E+03  0.7818608E-02  0.1113880E+00
         -1   -1    0    0    0  501 -0.00000000000E+00  0.00000000000E+00  0.30013552973E+03  0.30013552977E+03  0.50400000000E-02 0. -1.
          1   -1    0    0  501    0  0.00000000000E+00 -0.00000000000E+00 -0.51682310044E+02  0.51682310290E+02  0.50400000000E-02 0.  1.
    5000001    1    1    2    0    0 -0.36543618744E+02  0.73469003201E+02  0.19962249399E+03  0.22915337791E+03  0.77000000000E+02 0.  0.
   -5000001    1    1    2    0    0  0.36543618744E+02 -0.73469003201E+02  0.48830725695E+02  0.12266446215E+03  0.77000000000E+02 0.  0.
<mgrwt>
<rscale>  0 0.24909193E+03</rscale>
<asrwt>0</asrwt>
<pdfrwt beam="1">  1        1 0.79511248E-02 0.24909193E+03</pdfrwt>
<pdfrwt beam="2">  1       -1 0.46174696E-01 0.24909193E+03</pdfrwt>
<totfact> 0.41343338E+03</totfact>
</mgrwt>
</event>
<event>
 4    1  0.3064919E-004  0.1995323E+03  0.7818608E-02  0.1150134E+00
         -1   -1    0    0    0  501 -0.00000000000E+00  0.00000000000E+00  0.86374640646E+02  0.86374640793E+02  0.50400000000E-02 0.  1.
          1   -1    0    0  501    0  0.00000000000E+00 -0.00000000000E+00 -0.11523382044E+03  0.11523382055E+03  0.50400000000E-02 0. -1.
    5000001    1    1    2    0    0  0.60596439862E+02  0.32076584040E+01 -0.33116961966E+02  0.10347922867E+03  0.77000000000E+02 0.  0.
   -5000001    1    1    2    0    0 -0.60596439862E+02 -0.32076584040E+01  0.42577821708E+01  0.98129232675E+02  0.77000000000E+02 0.  0.
<mgrwt>
<rscale>  0 0.19953225E+03</rscale>
<asrwt>0</asrwt>
<pdfrwt beam="1">  1        1 0.17728280E-01 0.19953225E+03</pdfrwt>
<pdfrwt beam="2">  1       -1 0.13288406E-01 0.19953225E+03</pdfrwt>
<totfact> 0.11270750E+04</totfact>
</mgrwt>
</event>
<event>
 4    1  0.3064919E-004  0.5330605E+03  0.7818608E-02  0.1005493E+00
         -1   -1    0    0    0  501 -0.00000000000E+00  0.00000000000E+00  0.58617543585E+02  0.58617543801E+02  0.50400000000E-02 0. -1.
          1   -1    0    0  501    0  0.00000000000E+00 -0.00000000000E+00 -0.12118962048E+04  0.12118962048E+04  0.50400000000E-02 0.  1.
    5000001    1    1    2    0    0 -0.21081743285E+03  0.13686985696E+03 -0.47187585468E+03  0.54016031876E+03  0.77000000000E+02 0.  0.
   -5000001    1    1    2    0    0  0.21081743285E+03 -0.13686985696E+03 -0.68140280657E+03  0.73035342988E+03  0.77000000000E+02 0.  0.
<mgrwt>
<rscale>  0 0.53306052E+03</rscale>
<asrwt>0</asrwt>
<pdfrwt beam="1">  1        1 0.18644555E+00 0.53306052E+03</pdfrwt>
<pdfrwt beam="2">  1       -1 0.90180845E-02 0.53306052E+03</pdfrwt>
<totfact> 0.79392828E+02</totfact>
</mgrwt>
</event>
<event>
 4    1  0.3064919E-004  0.1827679E+03  0.7818608E-02  0.1165151E+00
          1   -1    0    0  501    0  0.00000000000E+00  0.00000000000E+00  0.77586649430E+03  0.77586649432E+03  0.50400000000E-02 0. -1.
         -1   -1    0    0    0  501 -0.00000000000E+00 -0.00000000000E+00 -0.10763485603E+02  0.10763486783E+02  0.50400000000E-02 0.  1.
    5000001    1    1    2    0    0 -0.47276839969E+02 -0.36220453282E+01  0.43929384916E+03  0.44850452029E+03  0.77000000000E+02 0.  0.
   -5000001    1    1    2    0    0  0.47276839969E+02  0.36220453282E+01  0.32580915953E+03  0.33812546081E+03  0.77000000000E+02 0.  0.
<mgrwt>
<rscale>  0 0.18276792E+03</rscale>
<asrwt>0</asrwt>
<pdfrwt beam="1">  1        1 0.11936404E+00 0.18276792E+03</pdfrwt>
<pdfrwt beam="2">  1       -1 0.16559215E-02 0.18276792E+03</pdfrwt>
<totfact> 0.21186010E+04</totfact>
</mgrwt>
</event>
<event>
 4    1  0.3064919E-004  0.2429044E+03  0.7818608E-02  0.1117873E+00
          1   -1    0    0  501    0  0.00000000000E+00  0.00000000000E+00  0.15212040907E+04  0.15212040907E+04  0.50400000000E-02 0.  1.
         -1   -1    0    0    0  501 -0.00000000000E+00 -0.00000000000E+00 -0.96966842890E+01  0.96966855988E+01  0.50400000000E-02 0. -1.
    5000001    1    1    2    0    0 -0.68409033954E+02  0.46201183597E+02  0.47338478639E+03  0.48665850581E+03  0.77000000000E+02 0.  0.
   -5000001    1    1    2    0    0  0.68409033954E+02 -0.46201183597E+02  0.10381226200E+04  0.10442422705E+04  0.77000000000E+02 0.  0.
<mgrwt>
<rscale>  0 0.24290440E+03</rscale>
<asrwt>0</asrwt>
<pdfrwt beam="1">  1        1 0.23403146E+00 0.24290440E+03</pdfrwt>
<pdfrwt beam="2">  1       -1 0.14917973E-02 0.24290440E+03</pdfrwt>
<totfact> 0.72702454E+03</totfact>
</mgrwt>
</event>
<event>
 4    1  0.3064919E-004  0.2080995E+03  0.7818608E-02  0.1143080E+00
          1   -1    0    0  501    0  0.00000000000E+00  0.00000000000E+00  0.45771542578E+02  0.45771542855E+02  0.50400000000E-02 0.  1.
         -1   -1    0    0    0  501 -0.00000000000E+00 -0.00000000000E+00 -0.23653010285E+03  0.23653010291E+03  0.50400000000E-02 0. -1.
    5000001    1    1    2    0    0 -0.57682301558E+02  0.86488415979E+01 -0.14783661351E+03  0.17659760664E+03  0.77000000000E+02 0.  0.
   -5000001    1    1    2    0    0  0.57682301558E+02 -0.86488415979E+01 -0.42921946761E+02  0.10570403913E+03  0.77000000000E+02 0.  0.
<mgrwt>
<rscale>  0 0.20809947E+03</rscale>
<asrwt>0</asrwt>
<pdfrwt beam="1">  1        1 0.70417760E-02 0.20809947E+03</pdfrwt>
<pdfrwt beam="2">  1       -1 0.36389246E-01 0.20809947E+03</pdfrwt>
<totfact> 0.73837682E+03</totfact>
</mgrwt>
</event>
<event>
 4    1  0.3064919E-004  0.2003246E+03  0.7818608E-02  0.1149465E+00
         -1   -1    0    0    0  501 -0.00000000000E+00  0.00000000000E+00  0.80887995001E+02  0.80887995158E+02  0.50400000000E-02 0. -1.
          1   -1    0    0  501    0  0.00000000000E+00 -0.00000000000E+00 -0.12402930154E+03  0.12402930164E+03  0.50400000000E-02 0.  1.
    5000001    1    1    2    0    0 -0.57388053840E+02 -0.38044951827E+01 -0.50424047726E+02  0.10853316312E+03  0.77000000000E+02 0.  0.
   -5000001    1    1    2    0    0  0.57388053840E+02  0.38044951827E+01  0.72827411853E+01  0.96384133686E+02  0.77000000000E+02 0.  0.
<mgrwt>
<rscale>  0 0.20032455E+03</rscale>
<asrwt>0</asrwt>
<pdfrwt beam="1">  1        1 0.19081431E-01 0.20032455E+03</pdfrwt>
<pdfrwt beam="2">  1       -1 0.12444307E-01 0.20032455E+03</pdfrwt>
<totfact> 0.11360774E+04</totfact>
</mgrwt>
</event>
<event>
 4    1  0.3064919E-004  0.3002589E+03  0.7818608E-02  0.1085111E+00
          1   -1    0    0  501    0  0.00000000000E+00  0.00000000000E+00  0.23263680853E+03  0.23263680859E+03  0.50400000000E-02 0.  1.
         -1   -1    0    0    0  501 -0.00000000000E+00 -0.00000000000E+00 -0.96884304707E+02  0.96884304838E+02  0.50400000000E-02 0. -1.
    5000001    1    1    2    0    0 -0.77917752873E+02 -0.64611231578E+02  0.15542596509E+03  0.20082832988E+03  0.77000000000E+02 0.  0.
   -5000001    1    1    2    0    0  0.77917752873E+02  0.64611231578E+02 -0.19673461262E+02  0.12869278355E+03  0.77000000000E+02 0.  0.
<mgrwt>
<rscale>  0 0.30025892E+03</rscale>
<asrwt>0</asrwt>
<pdfrwt beam="1">  1        1 0.35790278E-01 0.30025892E+03</pdfrwt>
<pdfrwt beam="2">  1       -1 0.14905278E-01 0.30025892E+03</pdfrwt>
<totfact> 0.39198131E+03</totfact>
</mgrwt>
</event>
<event>
 4    1  0.3064919E-004  0.1802660E+03  0.7818608E-02  0.1167546E+00
          1   -1    0    0  501    0  0.00000000000E+00  0.00000000000E+00  0.95351538582E+01  0.95351551902E+01  0.50400000000E-02 0. -1.
         -1   -1    0    0    0  501 -0.00000000000E+00 -0.00000000000E+00 -0.85200075919E+03  0.85200075921E+03  0.50400000000E-02 0.  1.
    5000001    1    1    2    0    0  0.21245053223E+02 -0.37403321869E+02 -0.50995167068E+03  0.51752301128E+03  0.77000000000E+02 0.  0.
   -5000001    1    1    2    0    0 -0.21245053223E+02  0.37403321869E+02 -0.33251393465E+03  0.34401290312E+03  0.77000000000E+02 0.  0.
<mgrwt>
<rscale>  0 0.18026601E+03</rscale>
<asrwt>0</asrwt>
<pdfrwt beam="1">  1        1 0.14669475E-02 0.18026601E+03</pdfrwt>
<pdfrwt beam="2">  1       -1 0.13107698E+00 0.18026601E+03</pdfrwt>
<totfact> 0.48842718E+03</totfact>
</mgrwt>
</event>
<event>
 4    1  0.3064919E-004  0.2378632E+03  0.7818608E-02  0.1121225E+00
          1   -1    0    0  501    0  0.00000000000E+00  0.00000000000E+00  0.38892933012E+02  0.38892933338E+02  0.50400000000E-02 0. -1.
         -1   -1    0    0    0  501 -0.00000000000E+00 -0.00000000000E+00 -0.36368368930E+03  0.36368368934E+03  0.50400000000E-02 0.  1.
    5000001    1    1    2    0    0 -0.46302638727E+02 -0.74500991219E+02 -0.12374942196E+03  0.17010952790E+03  0.77000000000E+02 0.  0.
   -5000001    1    1    2    0    0  0.46302638727E+02  0.74500991219E+02 -0.20104133433E+03  0.23246709478E+03  0.77000000000E+02 0.  0.
<mgrwt>
<rscale>  0 0.23786320E+03</rscale>
<asrwt>0</asrwt>
<pdfrwt beam="1">  1        1 0.59835284E-02 0.23786320E+03</pdfrwt>
<pdfrwt beam="2">  1       -1 0.55951334E-01 0.23786320E+03</pdfrwt>
<totfact> 0.42640967E+03</totfact>
</mgrwt>
</event>
<event>
 4    1  0.3064919E-004  0.1905198E+03  0.7818608E-02  0.1157993E+00
          1   -1    0    0  501    0  0.00000000000E+00  0.00000000000E+00  0.34696151238E+02  0.34696151604E+02  0.50400000000E-02 0.  1.
         -1   -1    0    0    0  501 -0.00000000000E+00 -0.00000000000E+00 -0.26154055574E+03  0.26154055579E+03  0.50400000000E-02 0. -1.
    5000001    1    1    2    0    0 -0.40939829120E+02  0.37679927962E+02 -0.12437330229E+03  0.15650420091E+03  0.77000000000E+02 0.  0.
   -5000001    1    1    2    0    0  0.40939829120E+02 -0.37679927962E+02 -0.10247110221E+03  0.13973250648E+03  0.77000000000E+02 0.  0.
<mgrwt>
<rscale>  0 0.19051982E+03</rscale>
<asrwt>0</asrwt>
<pdfrwt beam="1">  1        1 0.53378696E-02 0.19051982E+03</pdfrwt>
<pdfrwt beam="2">  1       -1 0.40237007E-01 0.19051982E+03</pdfrwt>
<totfact> 0.89927647E+03</totfact>
</mgrwt>
</event>
<event>
 4    1  0.3064919E-004  0.3204345E+03  0.7818608E-02  0.1075450E+00
         -1   -1    0    0    0  501 -0.00000000000E+00  0.00000000000E+00  0.12096949422E+03  0.12096949432E+03  0.50400000000E-02 0. -1.
          1   -1    0    0  501    0  0.00000000000E+00 -0.00000000000E+00 -0.21219863601E+03  0.21219863607E+03  0.50400000000E-02 0.  1.
    5000001    1    1    2    0    0 -0.49431121992E+01  0.10663350383E+03  0.49368982309E+02  0.14057537093E+03  0.77000000000E+02 0.  0.
   -5000001    1    1    2    0    0  0.49431121992E+01 -0.10663350383E+03 -0.14059812410E+03  0.19259275946E+03  0.77000000000E+02 0.  0.
<mgrwt>
<rscale>  0 0.32043447E+03</rscale>
<asrwt>0</asrwt>
<pdfrwt beam="1">  1        1 0.32645944E-01 0.32043447E+03</pdfrwt>
<pdfrwt beam="2">  1       -1 0.18610691E-01 0.32043447E+03</pdfrwt>
<totfact> 0.30870398E+03</totfact>
</mgrwt>
</event>
<event>
 4    1  0.3064919E-004  0.3170712E+03  0.7818608E-02  0.1077005E+00
          1   -1    0    0  501    0  0.00000000000E+00  0.00000000000E+00  0.74833239727E+03  0.74833239729E+03  0.50400000000E-02 0.  1.
         -1   -1    0    0    0  501 -0.00000000000E+00 -0.00000000000E+00 -0.33586060549E+02  0.33586060927E+02  0.50400000000E-02 0. -1.
    5000001    1    1    2    0    0 -0.37507108434E+01 -0.26484486398E+02  0.22051313301E+02  0.84443805397E+02  0.77000000000E+02 0.  0.
   -5000001    1    1    2    0    0  0.37507108434E+01  0.26484486398E+02  0.69269502342E+03  0.69747465282E+03  0.77000000000E+02 0.  0.
<mgrwt>
<rscale>  0 0.31707121E+03</rscale>
<asrwt>0</asrwt>
<pdfrwt beam="1">  1        1 0.11512807E+00 0.31707121E+03</pdfrwt>
<pdfrwt beam="2">  1       -1 0.51670858E-02 0.31707121E+03</pdfrwt>
<totfact> 0.42815072E+03</totfact>
</mgrwt>
</event>
<event>
 4    1  0.3064919E-004  0.3688083E+03  0.7818608E-02  0.1055150E+00
          1   -1    0    0  501    0  0.00000000000E+00  0.00000000000E+00  0.10358738762E+03  0.10358738774E+03  0.50400000000E-02 0.  1.
         -1   -1    0    0    0  501 -0.00000000000E+00 -0.00000000000E+00 -0.32827249487E+03  0.32827249490E+03  0.50400000000E-02 0. -1.
    5000001    1    1    2    0    0  0.14183806787E+03 -0.62712089242E+02 -0.18663208745E+03  0.25458079209E+03  0.77000000000E+02 0.  0.
   -5000001    1    1    2    0    0 -0.14183806787E+03  0.62712089242E+02 -0.38053019795E+02  0.17727909056E+03  0.77000000000E+02 0.  0.
<mgrwt>
<rscale>  0 0.36880830E+03</rscale>
<asrwt>0</asrwt>
<pdfrwt beam="1">  1        1 0.15936521E-01 0.36880830E+03</pdfrwt>
<pdfrwt beam="2">  1       -1 0.50503460E-01 0.36880830E+03</pdfrwt>
<totfact> 0.13925618E+03</totfact>
</mgrwt>
</event>
<event>
 4    1  0.3064919E-004  0.2986050E+03  0.7818608E-02  0.1085940E+00
         -1   -1    0    0    0  501 -0.00000000000E+00  0.00000000000E+00  0.12984719734E+02  0.12984720712E+02  0.50400000000E-02 0. -1.
          1   -1    0    0  501    0  0.00000000000E+00 -0.00000000000E+00 -0.17167279978E+04  0.17167279978E+04  0.50400000000E-02 0.  1.
    5000001    1    1    2    0    0 -0.40623371553E+02  0.82773937807E+02 -0.13654428082E+04  0.13707169093E+04  0.77000000000E+02 0.  0.
   -5000001    1    1    2    0    0  0.40623371553E+02 -0.82773937807E+02 -0.33830046994E+03  0.35899580924E+03  0.77000000000E+02 0.  0.
<mgrwt>
<rscale>  0 0.29860497E+03</rscale>
<asrwt>0</asrwt>
<pdfrwt beam="1">  1        1 0.26411182E+00 0.29860497E+03</pdfrwt>
<pdfrwt beam="2">  1       -1 0.19976506E-02 0.29860497E+03</pdfrwt>
<totfact> 0.35413758E+03</totfact>
</mgrwt>
</event>
<event>
 4    1  0.3064919E-004  0.3452662E+03  0.7818608E-02  0.1064575E+00
          1   -1    0    0  501    0  0.00000000000E+00  0.00000000000E+00  0.86438408563E+03  0.86438408565E+03  0.50400000000E-02 0.  1.
         -1   -1    0    0    0  501 -0.00000000000E+00 -0.00000000000E+00 -0.34477948479E+02  0.34477948847E+02  0.50400000000E-02 0. -1.
    5000001    1    1    2    0    0 -0.33925361303E+02  0.10317953827E+03  0.70104451320E+03  0.71357505334E+03  0.77000000000E+02 0.  0.
   -5000001    1    1    2    0    0  0.33925361303E+02 -0.10317953827E+03  0.12886162395E+03  0.18528698115E+03  0.77000000000E+02 0.  0.
<mgrwt>
<rscale>  0 0.34526622E+03</rscale>
<asrwt>0</asrwt>
<pdfrwt beam="1">  1        1 0.13298216E+00 0.34526622E+03</pdfrwt>
<pdfrwt beam="2">  1       -1 0.53043002E-02 0.34526622E+03</pdfrwt>
<totfact> 0.32922652E+03</totfact>
</mgrwt>
</event>
<event>
 4    1  0.3064919E-004  0.2072024E+03  0.7818608E-02  0.1143801E+00
         -1   -1    0    0    0  501 -0.00000000000E+00  0.00000000000E+00  0.27011948784E+02  0.27011949254E+02  0.50400000000E-02 0.  1.
          1   -1    0    0  501    0  0.00000000000E+00 -0.00000000000E+00 -0.39735024747E+03  0.39735024750E+03  0.50400000000E-02 0. -1.
    5000001    1    1    2    0    0  0.38831272060E+02 -0.38738298402E+02 -0.98381763947E+02  0.13644227692E+03  0.77000000000E+02 0.  0.
   -5000001    1    1    2    0    0 -0.38831272060E+02  0.38738298402E+02 -0.27195653473E+03  0.28791991983E+03  0.77000000000E+02 0.  0.
<mgrwt>
<rscale>  0 0.20720236E+03</rscale>
<asrwt>0</asrwt>
<pdfrwt beam="1">  1        1 0.61130803E-01 0.20720236E+03</pdfrwt>
<pdfrwt beam="2">  1       -1 0.41556848E-02 0.20720236E+03</pdfrwt>
<totfact> 0.13836430E+04</totfact>
</mgrwt>
</event>
<event>
 4    1  0.3064919E-004  0.1910792E+03  0.7818608E-02  0.1157492E+00
         -1   -1    0    0    0  501 -0.00000000000E+00  0.00000000000E+00  0.71386162648E+01  0.71386180440E+01  0.50400000000E-02 0.  1.
          1   -1    0    0  501    0  0.00000000000E+00 -0.00000000000E+00 -0.12786531061E+04  0.12786531061E+04  0.50400000000E-02 0. -1.
    5000001    1    1    2    0    0  0.35861355063E+02  0.43707627955E+02 -0.62528601176E+03  0.63254089989E+03  0.77000000000E+02 0.  0.
   -5000001    1    1    2    0    0 -0.35861355063E+02 -0.43707627955E+02 -0.64622847804E+03  0.65325082424E+03  0.77000000000E+02 0.  0.
<mgrwt>
<rscale>  0 0.19107920E+03</rscale>
<asrwt>0</asrwt>
<pdfrwt beam="1">  1        1 0.19671568E+00 0.19107920E+03</pdfrwt>
<pdfrwt beam="2">  1       -1 0.10982498E-02 0.19107920E+03</pdfrwt>
<totfact> 0.16287729E+04</totfact>
</mgrwt>
</event>
<event>
 4    1  0.3064919E-004  0.1629006E+03  0.7818608E-02  0.1185460E+00
          1   -1    0    0  501    0  0.00000000000E+00  0.00000000000E+00  0.52158156885E+03  0.52158156888E+03  0.50400000000E-02 0.  1.
         -1   -1    0    0    0  501 -0.00000000000E+00 -0.00000000000E+00 -0.12719304551E+02  0.12719305550E+02  0.50400000000E-02 0. -1.
    5000001    1    1    2    0    0  0.12694523575E+01 -0.23146404116E+02  0.21194541414E+03  0.22668750761E+03  0.77000000000E+02 0.  0.
   -5000001    1    1    2    0    0 -0.12694523575E+01  0.23146404116E+02  0.29691685016E+03  0.30761336681E+03  0.77000000000E+02 0.  0.
<mgrwt>
<rscale>  0 0.16290065E+03</rscale>
<asrwt>0</asrwt>
<pdfrwt beam="1">  1        1 0.80243324E-01 0.16290065E+03</pdfrwt>
<pdfrwt beam="2">  1       -1 0.19568160E-02 0.16290065E+03</pdfrwt>
<totfact> 0.28760473E+04</totfact>
</mgrwt>
</event>
<event>
 4    1  0.3064919E-004  0.2235982E+03  0.7818608E-02  0.1131229E+00
          1   -1    0    0  501    0  0.00000000000E+00  0.00000000000E+00  0.78288809838E+03  0.78288809840E+03  0.50400000000E-02 0.  1.
         -1   -1    0    0    0  501 -0.00000000000E+00 -0.00000000000E+00 -0.15965300349E+02  0.15965301145E+02  0.50400000000E-02 0. -1.
    5000001    1    1    2    0    0 -0.66748654438E+02 -0.33456806347E+02  0.49617501777E+03  0.50763509435E+03  0.77000000000E+02 0.  0.
   -5000001    1    1    2    0    0  0.66748654438E+02  0.33456806347E+02  0.27074778027E+03  0.29121830519E+03  0.77000000000E+02 0.  0.
<mgrwt>
<rscale>  0 0.22359825E+03</rscale>
<asrwt>0</asrwt>
<pdfrwt beam="1">  1        1 0.12044430E+00 0.22359825E+03</pdfrwt>
<pdfrwt beam="2">  1       -1 0.24562005E-02 0.22359825E+03</pdfrwt>
<totfact> 0.11920202E+04</totfact>
</mgrwt>
</event>
<event>
 4    1  0.3064919E-004  0.5876355E+03  0.7818608E-02  0.9931396E-01
          1   -1    0    0  501    0  0.00000000000E+00  0.00000000000E+00  0.15748720688E+04  0.15748720688E+04  0.50400000000E-02 0.  1.
         -1   -1    0    0    0  501 -0.00000000000E+00 -0.00000000000E+00 -0.54816433012E+02  0.54816433244E+02  0.50400000000E-02 0. -1.
    5000001    1    1    2    0    0  0.35124720193E+02  0.27853245818E+03  0.64958948073E+03  0.71183535294E+03  0.77000000000E+02 0.  0.
   -5000001    1    1    2    0    0 -0.35124720193E+02 -0.27853245818E+03  0.87046615506E+03  0.91785314911E+03  0.77000000000E+02 0.  0.
<mgrwt>
<rscale>  0 0.58763550E+03</rscale>
<asrwt>0</asrwt>
<pdfrwt beam="1">  1        1 0.24228797E+00 0.58763550E+03</pdfrwt>
<pdfrwt beam="2">  1       -1 0.84332987E-02 0.58763550E+03</pdfrwt>
<totfact> 0.49337309E+02</totfact>
</mgrwt>
</event>
<event>
 4    1  0.3064919E-004  0.1786292E+03  0.7818608E-02  0.1169136E+00
          1   -1    0    0  501    0  0.00000000000E+00  0.00000000000E+00  0.72328311777E+03  0.72328311779E+03  0.50400000000E-02 0.  1.
         -1   -1    0    0    0  501 -0.00000000000E+00 -0.00000000000E+00 -0.11029006773E+02  0.11029007924E+02  0.50400000000E-02 0. -1.
    5000001    1    1    2    0    0  0.31322222709E+02 -0.16314225110E+02  0.47246099271E+03  0.47999544290E+03  0.77000000000E+02 0.  0.
   -5000001    1    1    2    0    0 -0.31322222709E+02  0.16314225110E+02  0.23979311829E+03  0.25431668281E+03  0.77000000000E+02 0.  0.
<mgrwt>
<rscale>  0 0.17862917E+03</rscale>
<asrwt>0</asrwt>
<pdfrwt beam="1">  1        1 0.11127429E+00 0.17862917E+03</pdfrwt>
<pdfrwt beam="2">  1       -1 0.16967709E-02 0.17862917E+03</pdfrwt>
<totfact> 0.22653062E+04</totfact>
</mgrwt>
</event>
<event>
 4    1  0.3064919E-004  0.4192169E+03  0.7818608E-02  0.1037321E+00
          1   -1    0    0  501    0  0.00000000000E+00  0.00000000000E+00  0.37310382475E+03  0.37310382479E+03  0.50400000000E-02 0.  1.
         -1   -1    0    0    0  501 -0.00000000000E+00 -0.00000000000E+00 -0.11775732064E+03  0.11775732075E+03  0.50400000000E-02 0. -1.
    5000001    1    1    2    0    0  0.25606611440E+02 -0.13982036957E+03 -0.28549892815E+02  0.16416312215E+03  0.77000000000E+02 0.  0.
   -5000001    1    1    2    0    0 -0.25606611440E+02  0.13982036957E+03  0.28389639693E+03  0.32669802338E+03  0.77000000000E+02 0.  0.
<mgrwt>
<rscale>  0 0.41921692E+03</rscale>
<asrwt>0</asrwt>
<pdfrwt beam="1">  1        1 0.57400589E-01 0.41921692E+03</pdfrwt>
<pdfrwt beam="2">  1       -1 0.18116511E-01 0.41921692E+03</pdfrwt>
<totfact> 0.15785222E+03</totfact>
</mgrwt>
</event>
<event>
 4    1  0.3064919E-004  0.2368645E+03  0.7818608E-02  0.1121899E+00
          1   -1    0    0  501    0  0.00000000000E+00  0.00000000000E+00  0.21537238935E+03  0.21537238941E+03  0.50400000000E-02 0.  1.
         -1   -1    0    0    0  501 -0.00000000000E+00 -0.00000000000E+00 -0.65125313596E+02  0.65125313791E+02  0.50400000000E-02 0. -1.
    5000001    1    1    2    0    0  0.88104249112E+02 -0.23128403658E+01  0.96619069592E+02  0.15176281676E+03  0.77000000000E+02 0.  0.
   -5000001    1    1    2    0    0 -0.88104249112E+02  0.23128403658E+01  0.53628006165E+02  0.12873488644E+03  0.77000000000E+02 0.  0.
<mgrwt>
<rscale>  0 0.23686447E+03</rscale>
<asrwt>0</asrwt>
<pdfrwt beam="1">  1        1 0.33134214E-01 0.23686447E+03</pdfrwt>
<pdfrwt beam="2">  1       -1 0.10019279E-01 0.23686447E+03</pdfrwt>
<totfact> 0.79718854E+03</totfact>
</mgrwt>
</event>
<event>
 4    1  0.3064919E-004  0.1909052E+03  0.7818608E-02  0.1157647E+00
         -1   -1    0    0    0  501 -0.00000000000E+00  0.00000000000E+00  0.84050814130E+02  0.84050814282E+02  0.50400000000E-02 0. -1.
          1   -1    0    0  501    0  0.00000000000E+00 -0.00000000000E+00 -0.10840102141E+03  0.10840102153E+03  0.50400000000E-02 0.  1.
    5000001    1    1    2    0    0 -0.39527837563E+02  0.37145410296E+02  0.34411287789E+01  0.94250054725E+02  0.77000000000E+02 0.  0.
   -5000001    1    1    2    0    0  0.39527837563E+02 -0.37145410296E+02 -0.27791336061E+02  0.98201781086E+02  0.77000000000E+02 0.  0.
<mgrwt>
<rscale>  0 0.19090515E+03</rscale>
<asrwt>0</asrwt>
<pdfrwt beam="1">  1        1 0.16677080E-01 0.19090515E+03</pdfrwt>
<pdfrwt beam="2">  1       -1 0.12930894E-01 0.19090515E+03</pdfrwt>
<totfact> 0.12690616E+04</totfact>
</mgrwt>
</event>
<event>
 4    1  0.3064919E-004  0.3640300E+03  0.7818608E-02  0.1056999E+00
          1   -1    0    0  501    0  0.00000000000E+00  0.00000000000E+00  0.36182949219E+03  0.36182949223E+03  0.50400000000E-02 0.  1.
         -1   -1    0    0    0  501 -0.00000000000E+00 -0.00000000000E+00 -0.91560974365E+02  0.91560974503E+02  0.50400000000E-02 0. -1.
    5000001    1    1    2    0    0 -0.13731293191E+03  0.15146329407E+02  0.24733915226E+03  0.29358117924E+03  0.77000000000E+02 0.  0.
   -5000001    1    1    2    0    0  0.13731293191E+03 -0.15146329407E+02  0.22929365571E+02  0.15980928749E+03  0.77000000000E+02 0.  0.
<mgrwt>
<rscale>  0 0.36403000E+03</rscale>
<asrwt>0</asrwt>
<pdfrwt beam="1">  1        1 0.55666075E-01 0.36403000E+03</pdfrwt>
<pdfrwt beam="2">  1       -1 0.14086304E-01 0.36403000E+03</pdfrwt>
<totfact> 0.24595400E+03</totfact>
</mgrwt>
</event>
<event>
 4    1  0.3064919E-004  0.2675656E+03  0.7818608E-02  0.1102681E+00
         -1   -1    0    0    0  501 -0.00000000000E+00  0.00000000000E+00  0.95274230033E+02  0.95274230166E+02  0.50400000000E-02 0. -1.
          1   -1    0    0  501    0  0.00000000000E+00 -0.00000000000E+00 -0.18785599942E+03  0.18785599949E+03  0.50400000000E-02 0.  1.
    5000001    1    1    2    0    0  0.77454330199E+02 -0.75191944444E+02 -0.65096406807E+02  0.14771439996E+03  0.77000000000E+02 0.  0.
   -5000001    1    1    2    0    0 -0.77454330199E+02  0.75191944444E+02 -0.27485362580E+02  0.13541582970E+03  0.77000000000E+02 0.  0.
<mgrwt>
<rscale>  0 0.26756559E+03</rscale>
<asrwt>0</asrwt>
<pdfrwt beam="1">  1        1 0.28900923E-01 0.26756559E+03</pdfrwt>
<pdfrwt beam="2">  1       -1 0.14657574E-01 0.26756559E+03</pdfrwt>
<totfact> 0.52531122E+03</totfact>
</mgrwt>
</event>
<event>
 4    1  0.3064919E-004  0.2772955E+03  0.7818608E-02  0.1097175E+00
         -1   -1    0    0    0  501 -0.00000000000E+00  0.00000000000E+00  0.23061503656E+02  0.23061504206E+02  0.50400000000E-02 0.  1.
          1   -1    0    0  501    0  0.00000000000E+00 -0.00000000000E+00 -0.83356225416E+03  0.83356225418E+03  0.50400000000E-02 0. -1.
    5000001    1    1    2    0    0 -0.66400653745E+01  0.10904276886E+03 -0.51916569635E+03  0.53609368227E+03  0.77000000000E+02 0.  0.
   -5000001    1    1    2    0    0  0.66400653745E+01 -0.10904276886E+03 -0.29133505416E+03  0.32053007611E+03  0.77000000000E+02 0.  0.
<mgrwt>
<rscale>  0 0.27729550E+03</rscale>
<asrwt>0</asrwt>
<pdfrwt beam="1">  1        1 0.12824032E+00 0.27729550E+03</pdfrwt>
<pdfrwt beam="2">  1       -1 0.35479243E-02 0.27729550E+03</pdfrwt>
<totfact> 0.63446798E+03</totfact>
</mgrwt>
</event>
<event>
 4    1  0.3064919E-004  0.1623634E+03  0.7818608E-02  0.1186054E+00
         -1   -1    0    0    0  501 -0.00000000000E+00  0.00000000000E+00  0.17910034056E+02  0.17910034765E+02  0.50400000000E-02 0. -1.
          1   -1    0    0  501    0  0.00000000000E+00 -0.00000000000E+00 -0.36797633659E+03  0.36797633662E+03  0.50400000000E-02 0.  1.
    5000001    1    1    2    0    0 -0.72797187439E+01 -0.21089557610E+02 -0.14462413173E+03  0.16535689651E+03  0.77000000000E+02 0.  0.
   -5000001    1    1    2    0    0  0.72797187439E+01  0.21089557610E+02 -0.20544217080E+03  0.22052947488E+03  0.77000000000E+02 0.  0.
<mgrwt>
<rscale>  0 0.16236341E+03</rscale>
<asrwt>0</asrwt>
<pdfrwt beam="1">  1        1 0.56611739E-01 0.16236341E+03</pdfrwt>
<pdfrwt beam="2">  1       -1 0.27553902E-02 0.16236341E+03</pdfrwt>
<totfact> 0.27376908E+04</totfact>
</mgrwt>
</event>
<event>
 4    1  0.3064919E-004  0.2894133E+03  0.7818608E-02  0.1090656E+00
          1   -1    0    0  501    0  0.00000000000E+00  0.00000000000E+00  0.22567936193E+03  0.22567936199E+03  0.50400000000E-02 0.  1.
         -1   -1    0    0    0  501 -0.00000000000E+00 -0.00000000000E+00 -0.92786599453E+02  0.92786599590E+02  0.50400000000E-02 0. -1.
    5000001    1    1    2    0    0  0.19210951324E+02 -0.10581000409E+03  0.18490019136E+01  0.13227711981E+03  0.77000000000E+02 0.  0.
   -5000001    1    1    2    0    0 -0.19210951324E+02  0.10581000409E+03  0.13104376057E+03  0.18618884177E+03  0.77000000000E+02 0.  0.
<mgrwt>
<rscale>  0 0.28941334E+03</rscale>
<asrwt>0</asrwt>
<pdfrwt beam="1">  1        1 0.34719902E-01 0.28941334E+03</pdfrwt>
<pdfrwt beam="2">  1       -1 0.14274861E-01 0.28941334E+03</pdfrwt>
<totfact> 0.43575235E+03</totfact>
</mgrwt>
</event>
<event>
 4    1  0.3064919E-004  0.2110749E+03  0.7818608E-02  0.1140718E+00
         -1   -1    0    0    0  501 -0.00000000000E+00  0.00000000000E+00  0.11234849744E+02  0.11234850874E+02  0.50400000000E-02 0. -1.
          1   -1    0    0  501    0  0.00000000000E+00 -0.00000000000E+00 -0.99139269955E+03  0.99139269957E+03  0.50400000000E-02 0.  1.
    5000001    1    1    2    0    0 -0.70515828595E+02 -0.85707537049E+01 -0.55076300480E+03  0.56063787543E+03  0.77000000000E+02 0.  0.
   -5000001    1    1    2    0    0  0.70515828595E+02  0.85707537049E+01 -0.42939484501E+03  0.44198967501E+03  0.77000000000E+02 0.  0.
<mgrwt>
<rscale>  0 0.21107485E+03</rscale>
<asrwt>0</asrwt>
<pdfrwt beam="1">  1        1 0.15252188E+00 0.21107485E+03</pdfrwt>
<pdfrwt beam="2">  1       -1 0.17284393E-02 0.21107485E+03</pdfrwt>
<totfact> 0.13583391E+04</totfact>
</mgrwt>
</event>
<event>
 4    1  0.3064919E-004  0.2152381E+03  0.7818608E-02  0.1137484E+00
         -1   -1    0    0    0  501 -0.00000000000E+00  0.00000000000E+00  0.16424638238E+03  0.16424638246E+03  0.50400000000E-02 0.  1.
          1   -1    0    0  501    0  0.00000000000E+00 -0.00000000000E+00 -0.70515134706E+02  0.70515134886E+02  0.50400000000E-02 0. -1.
    5000001    1    1    2    0    0 -0.46697164189E+02 -0.55248931098E+02  0.24518483600E+02  0.10845840479E+03  0.77000000000E+02 0.  0.
   -5000001    1    1    2    0    0  0.46697164189E+02  0.55248931098E+02  0.69212764074E+02  0.12630311256E+03  0.77000000000E+02 0.  0.
<mgrwt>
<rscale>  0 0.21523806E+03</rscale>
<asrwt>0</asrwt>
<pdfrwt beam="1">  1        1 0.10848483E-01 0.21523806E+03</pdfrwt>
<pdfrwt beam="2">  1       -1 0.25268674E-01 0.21523806E+03</pdfrwt>
<totfact> 0.76756339E+03</totfact>
</mgrwt>
</event>
<event>
 4    1  0.3064919E-004  0.2115608E+03  0.7818608E-02  0.1140336E+00
          1   -1    0    0  501    0  0.00000000000E+00  0.00000000000E+00  0.69174345474E+03  0.69174345475E+03  0.50400000000E-02 0.  1.
         -1   -1    0    0    0  501 -0.00000000000E+00 -0.00000000000E+00 -0.16175789024E+02  0.16175789810E+02  0.50400000000E-02 0. -1.
    5000001    1    1    2    0    0  0.63102918594E+02  0.21287219084E+02  0.24165062560E+03  0.26221965770E+03  0.77000000000E+02 0.  0.
   -5000001    1    1    2    0    0 -0.63102918594E+02 -0.21287219084E+02  0.43391704011E+03  0.44569958686E+03  0.77000000000E+02 0.  0.
<mgrwt>
<rscale>  0 0.21156083E+03</rscale>
<asrwt>0</asrwt>
<pdfrwt beam="1">  1        1 0.10642208E+00 0.21156083E+03</pdfrwt>
<pdfrwt beam="2">  1       -1 0.24885828E-02 0.21156083E+03</pdfrwt>
<totfact> 0.14001642E+04</totfact>
</mgrwt>
</event>
<event>
 4    1  0.3064919E-004  0.1945676E+03  0.7818608E-02  0.1154405E+00
          1   -1    0    0  501    0  0.00000000000E+00  0.00000000000E+00  0.11570167651E+03  0.11570167662E+03  0.50400000000E-02 0.  1.
         -1   -1    0    0    0  501 -0.00000000000E+00 -0.00000000000E+00 -0.81797755397E+02  0.81797755552E+02  0.50400000000E-02 0. -1.
    5000001    1    1    2    0    0 -0.22780889429E+02 -0.54791606319E+02  0.13147360706E+02  0.98096595964E+02  0.77000000000E+02 0.  0.
   -5000001    1    1    2    0    0  0.22780889429E+02  0.54791606319E+02  0.20756560407E+02  0.99402836208E+02  0.77000000000E+02 0.  0.
<mgrwt>
<rscale>  0 0.19456760E+03</rscale>
<asrwt>0</asrwt>
<pdfrwt beam="1">  1        1 0.17800258E-01 0.19456760E+03</pdfrwt>
<pdfrwt beam="2">  1       -1 0.12584270E-01 0.19456760E+03</pdfrwt>
<totfact> 0.12186364E+04</totfact>
</mgrwt>
</event>
<event>
 4    1  0.3064919E-004  0.1871081E+03  0.7818608E-02  0.1161096E+00
         -1   -1    0    0    0  501 -0.00000000000E+00  0.00000000000E+00  0.93086517030E+01  0.93086530674E+01  0.50400000000E-02 0.  1.
          1   -1    0    0  501    0  0.00000000000E+00 -0.00000000000E+00 -0.94023883528E+03  0.94023883529E+03  0.50400000000E-02 0. -1.
    5000001    1    1    2    0    0  0.41345433003E+02  0.33307821263E+02 -0.45469884526E+03  0.46421858609E+03  0.77000000000E+02 0.  0.
   -5000001    1    1    2    0    0 -0.41345433003E+02 -0.33307821263E+02 -0.47623133832E+03  0.48532890228E+03  0.77000000000E+02 0.  0.
<mgrwt>
<rscale>  0 0.18710806E+03</rscale>
<asrwt>0</asrwt>
<pdfrwt beam="1">  1        1 0.14465205E+00 0.18710806E+03</pdfrwt>
<pdfrwt beam="2">  1       -1 0.14321011E-02 0.18710806E+03</pdfrwt>
<totfact> 0.19354559E+04</totfact>
</mgrwt>
</event>
<event>
 4    1  0.3064919E-004  0.2444167E+03  0.7818608E-02  0.1116885E+00
          1   -1    0    0  501    0  0.00000000000E+00  0.00000000000E+00  0.11712658702E+02  0.11712659786E+02  0.50400000000E-02 0. -1.
         -1   -1    0    0    0  501 -0.00000000000E+00 -0.00000000000E+00 -0.12751054411E+04  0.12751054411E+04  0.50400000000E-02 0.  1.
    5000001    1    1    2    0    0  0.17774970398E+02 -0.60746915372E+02 -0.10039680682E+04  0.10089038701E+04  0.77000000000E+02 0.  0.
   -5000001    1    1    2    0    0 -0.17774970398E+02  0.60746915372E+02 -0.25942471426E+03  0.27791423078E+03  0.77000000000E+02 0.  0.
<mgrwt>
<rscale>  0 0.24441666E+03</rscale>
<asrwt>0</asrwt>
<pdfrwt beam="1">  1        1 0.18019486E-02 0.24441666E+03</pdfrwt>
<pdfrwt beam="2">  1       -1 0.19616996E+00 0.24441666E+03</pdfrwt>
<totfact> 0.12391660E+03</totfact>
</mgrwt>
</event>
<event>
 4    1  0.3064919E-004  0.4366494E+03  0.7818608E-02  0.1031780E+00
         -1   -1    0    0    0  501 -0.00000000000E+00  0.00000000000E+00  0.16169917611E+03  0.16169917619E+03  0.50400000000E-02 0. -1.
          1   -1    0    0  501    0  0.00000000000E+00 -0.00000000000E+00 -0.29477995302E+03  0.29477995307E+03  0.50400000000E-02 0.  1.
    5000001    1    1    2    0    0  0.12168034538E+03  0.15668767175E+03 -0.11753623426E+03  0.24310676522E+03  0.77000000000E+02 0.  0.
   -5000001    1    1    2    0    0 -0.12168034538E+03 -0.15668767175E+03 -0.15544542653E+02  0.21337236404E+03  0.77000000000E+02 0.  0.
<mgrwt>
<rscale>  0 0.43664940E+03</rscale>
<asrwt>0</asrwt>
<pdfrwt beam="1">  1        1 0.45350762E-01 0.43664940E+03</pdfrwt>
<pdfrwt beam="2">  1       -1 0.24876796E-01 0.43664940E+03</pdfrwt>
<totfact> 0.12637878E+03</totfact>
</mgrwt>
</event>
<event>
 4    1  0.3064919E-004  0.1817001E+03  0.7818608E-02  0.1166168E+00
         -1   -1    0    0    0  501 -0.00000000000E+00  0.00000000000E+00  0.18708878588E+02  0.18708879267E+02  0.50400000000E-02 0. -1.
          1   -1    0    0  501    0  0.00000000000E+00 -0.00000000000E+00 -0.44116672320E+03  0.44116672323E+03  0.50400000000E-02 0.  1.
    5000001    1    1    2    0    0  0.36014407783E+02 -0.24914902877E+02 -0.26228564189E+03  0.27684029312E+03  0.77000000000E+02 0.  0.
   -5000001    1    1    2    0    0 -0.36014407783E+02  0.24914902877E+02 -0.16017220272E+03  0.18303530938E+03  0.77000000000E+02 0.  0.
<mgrwt>
<rscale>  0 0.18170014E+03</rscale>
<asrwt>0</asrwt>
<pdfrwt beam="1">  1        1 0.67871796E-01 0.18170014E+03</pdfrwt>
<pdfrwt beam="2">  1       -1 0.28782894E-02 0.18170014E+03</pdfrwt>
<totfact> 0.20592228E+04</totfact>
</mgrwt>
</event>
<event>
 4    1  0.3064919E-004  0.2413256E+03  0.7818608E-02  0.1118913E+00
         -1   -1    0    0    0  501 -0.00000000000E+00  0.00000000000E+00  0.46436918656E+03  0.46436918658E+03  0.50400000000E-02 0. -1.
          1   -1    0    0  501    0  0.00000000000E+00 -0.00000000000E+00 -0.31353302306E+02  0.31353302711E+02  0.50400000000E-02 0.  1.
    5000001    1    1    2    0    0  0.24277469935E+02  0.48927946917E+02  0.37087358245E+03  0.38270034452E+03  0.77000000000E+02 0.  0.
   -5000001    1    1    2    0    0 -0.24277469935E+02 -0.48927946917E+02  0.62142301796E+02  0.11302214477E+03  0.77000000000E+02 0.  0.
<mgrwt>
<rscale>  0 0.24132557E+03</rscale>
<asrwt>0</asrwt>
<pdfrwt beam="1">  1        1 0.48235851E-02 0.24132557E+03</pdfrwt>
<pdfrwt beam="2">  1       -1 0.71441412E-01 0.24132557E+03</pdfrwt>
<totfact> 0.35701577E+03</totfact>
</mgrwt>
</event>
<event>
 4    1  0.3064919E-004  0.2791270E+03  0.7818608E-02  0.1096167E+00
          1   -1    0    0  501    0  0.00000000000E+00  0.00000000000E+00  0.56905482409E+02  0.56905482632E+02  0.50400000000E-02 0.  1.
         -1   -1    0    0    0  501 -0.00000000000E+00 -0.00000000000E+00 -0.34228637212E+03  0.34228637216E+03  0.50400000000E-02 0. -1.
    5000001    1    1    2    0    0  0.98947428601E+02  0.13140108228E+01 -0.23034615996E+03  0.26226069789E+03  0.77000000000E+02 0.  0.
   -5000001    1    1    2    0    0 -0.98947428601E+02 -0.13140108228E+01 -0.55034729759E+02  0.13693115690E+03  0.77000000000E+02 0.  0.
<mgrwt>
<rscale>  0 0.27912700E+03</rscale>
<asrwt>0</asrwt>
<pdfrwt beam="1">  1        1 0.87546898E-02 0.27912700E+03</pdfrwt>
<pdfrwt beam="2">  1       -1 0.52659441E-01 0.27912700E+03</pdfrwt>
<totfact> 0.28578651E+03</totfact>
</mgrwt>
</event>
<event>
 4    1  0.3064919E-004  0.2112576E+03  0.7818608E-02  0.1140574E+00
         -1   -1    0    0    0  501 -0.00000000000E+00  0.00000000000E+00  0.21215744845E+03  0.21215744851E+03  0.50400000000E-02 0. -1.
          1   -1    0    0  501    0  0.00000000000E+00 -0.00000000000E+00 -0.52590373759E+02  0.52590374000E+02  0.50400000000E-02 0.  1.
    5000001    1    1    2    0    0 -0.46464595139E+02 -0.50085491514E+02  0.10946411369E+03  0.15026279396E+03  0.77000000000E+02 0.  0.
   -5000001    1    1    2    0    0  0.46464595139E+02  0.50085491514E+02  0.50102961000E+02  0.11448502855E+03  0.77000000000E+02 0.  0.
<mgrwt>
<rscale>  0 0.21125756E+03</rscale>
<asrwt>0</asrwt>
<pdfrwt beam="1">  1        1 0.80908270E-02 0.21125756E+03</pdfrwt>
<pdfrwt beam="2">  1       -1 0.32639607E-01 0.21125756E+03</pdfrwt>
<totfact> 0.73851642E+03</totfact>
</mgrwt>
</event>
<event>
 4    1  0.3064919E-004  0.2024767E+03  0.7818608E-02  0.1147666E+00
          1   -1    0    0  501    0  0.00000000000E+00  0.00000000000E+00  0.51235717524E+03  0.51235717526E+03  0.50400000000E-02 0.  1.
         -1   -1    0    0    0  501 -0.00000000000E+00 -0.00000000000E+00 -0.20004013132E+02  0.20004013767E+02  0.50400000000E-02 0. -1.
    5000001    1    1    2    0    0 -0.30874983039E+02  0.48411207614E+02  0.33028332602E+03  0.34396654641E+03  0.77000000000E+02 0.  0.
   -5000001    1    1    2    0    0  0.30874983039E+02 -0.48411207614E+02  0.16206983609E+03  0.18839464262E+03  0.77000000000E+02 0.  0.
<mgrwt>
<rscale>  0 0.20247666E+03</rscale>
<asrwt>0</asrwt>
<pdfrwt beam="1">  1        1 0.78824177E-01 0.20247666E+03</pdfrwt>
<pdfrwt beam="2">  1       -1 0.30775407E-02 0.20247666E+03</pdfrwt>
<totfact> 0.15474631E+04</totfact>
</mgrwt>
</event>
<event>
 4    1  0.3064919E-004  0.3593924E+03  0.7818608E-02  0.1058825E+00
         -1   -1    0    0    0  501 -0.00000000000E+00  0.00000000000E+00  0.44472859622E+02  0.44472859908E+02  0.50400000000E-02 0.  1.
          1   -1    0    0  501    0  0.00000000000E+00 -0.00000000000E+00 -0.72607709715E+03  0.72607709717E+03  0.50400000000E-02 0. -1.
    5000001    1    1    2    0    0 -0.10331762778E+03 -0.12522466964E+03 -0.33556135154E+03  0.38063916081E+03  0.77000000000E+02 0.  0.
   -5000001    1    1    2    0    0  0.10331762778E+03  0.12522466964E+03 -0.34604288599E+03  0.38991079626E+03  0.77000000000E+02 0.  0.
<mgrwt>
<rscale>  0 0.35939240E+03</rscale>
<asrwt>0</asrwt>
<pdfrwt beam="1">  1        1 0.11170416E+00 0.35939240E+03</pdfrwt>
<pdfrwt beam="2">  1       -1 0.68419790E-02 0.35939240E+03</pdfrwt>
<totfact> 0.29306417E+03</totfact>
</mgrwt>
</event>
<event>
 4    1  0.3064919E-004  0.2016110E+03  0.7818608E-02  0.1148387E+00
          1   -1    0    0  501    0  0.00000000000E+00  0.00000000000E+00  0.41163567048E+03  0.41163567051E+03  0.50400000000E-02 0. -1.
         -1   -1    0    0    0  501 -0.00000000000E+00 -0.00000000000E+00 -0.24686263275E+02  0.24686263789E+02  0.50400000000E-02 0.  1.
    5000001    1    1    2    0    0 -0.43913739411E+02 -0.41617145541E+02  0.24524983217E+03  0.26407741950E+03  0.77000000000E+02 0.  0.
   -5000001    1    1    2    0    0  0.43913739411E+02  0.41617145541E+02  0.14169957503E+03  0.17224451479E+03  0.77000000000E+02 0.  0.
<mgrwt>
<rscale>  0 0.20161098E+03</rscale>
<asrwt>0</asrwt>
<pdfrwt beam="1">  1        1 0.63328557E-01 0.20161098E+03</pdfrwt>
<pdfrwt beam="2">  1       -1 0.37978871E-02 0.20161098E+03</pdfrwt>
<totfact> 0.15084759E+04</totfact>
</mgrwt>
</event>
<event>
 4    1  0.3064919E-004  0.1981309E+03  0.7818608E-02  0.1151326E+00
          1   -1    0    0  501    0  0.00000000000E+00  0.00000000000E+00  0.73874009044E+01  0.73874026237E+01  0.50400000000E-02 0.  1.
         -1   -1    0    0    0  501 -0.00000000000E+00 -0.00000000000E+00 -0.13284728551E+04  0.13284728551E+04  0.50400000000E-02 0. -1.
    5000001    1    1    2    0    0  0.60446215205E+02  0.57198508997E+01 -0.56555001443E+03  0.57398804905E+03  0.77000000000E+02 0.  0.
   -5000001    1    1    2    0    0 -0.60446215205E+02 -0.57198508997E+01 -0.75553543978E+03  0.76187220870E+03  0.77000000000E+02 0.  0.
<mgrwt>
<rscale>  0 0.19813089E+03</rscale>
<asrwt>0</asrwt>
<pdfrwt beam="1">  1        1 0.11365244E-02 0.19813089E+03</pdfrwt>
<pdfrwt beam="2">  1       -1 0.20438025E+00 0.19813089E+03</pdfrwt>
<totfact> 0.20826240E+03</totfact>
</mgrwt>
</event>
<event>
 4    1  0.3064919E-004  0.1893158E+03  0.7818608E-02  0.1159080E+00
         -1   -1    0    0    0  501 -0.00000000000E+00  0.00000000000E+00  0.21190844985E+02  0.21190845585E+02  0.50400000000E-02 0. -1.
          1   -1    0    0  501    0  0.00000000000E+00 -0.00000000000E+00 -0.42282952084E+03  0.42282952087E+03  0.50400000000E-02 0.  1.
    5000001    1    1    2    0    0  0.48726424652E+02 -0.24993365298E+02 -0.18751405886E+03  0.20997489145E+03  0.77000000000E+02 0.  0.
   -5000001    1    1    2    0    0 -0.48726424652E+02  0.24993365298E+02 -0.21412461700E+03  0.23404547501E+03  0.77000000000E+02 0.  0.
<mgrwt>
<rscale>  0 0.18931577E+03</rscale>
<asrwt>0</asrwt>
<pdfrwt beam="1">  1        1 0.65050689E-01 0.18931577E+03</pdfrwt>
<pdfrwt beam="2">  1       -1 0.32601304E-02 0.18931577E+03</pdfrwt>
<totfact> 0.18172481E+04</totfact>
</mgrwt>
</event>
<event>
 4    1  0.3064919E-004  0.2677770E+03  0.7818608E-02  0.1102559E+00
         -1   -1    0    0    0  501 -0.00000000000E+00  0.00000000000E+00  0.60299383645E+01  0.60299404708E+01  0.50400000000E-02 0. -1.
          1   -1    0    0  501    0  0.00000000000E+00 -0.00000000000E+00 -0.29728538020E+04  0.29728538020E+04  0.50400000000E-02 0.  1.
    5000001    1    1    2    0    0 -0.82787821402E+02 -0.71037410280E+02 -0.13738532726E+04  0.13803267554E+04  0.77000000000E+02 0.  0.
   -5000001    1    1    2    0    0  0.82787821402E+02  0.71037410280E+02 -0.15929705911E+04  0.15985569871E+04  0.77000000000E+02 0.  0.
<mgrwt>
<rscale>  0 0.26777698E+03</rscale>
<asrwt>0</asrwt>
<pdfrwt beam="1">  1        1 0.45736095E+00 0.26777698E+03</pdfrwt>
<pdfrwt beam="2">  1       -1 0.92768536E-03 0.26777698E+03</pdfrwt>
<totfact> 0.15866165E+03</totfact>
</mgrwt>
</event>
<event>
 4    1  0.3064919E-004  0.3022979E+03  0.7818608E-02  0.1084098E+00
          1   -1    0    0  501    0  0.00000000000E+00  0.00000000000E+00  0.30886025357E+03  0.30886025361E+03  0.50400000000E-02 0. -1.
         -1   -1    0    0    0  501 -0.00000000000E+00 -0.00000000000E+00 -0.73968719680E+02  0.73968719852E+02  0.50400000000E-02 0.  1.
    5000001    1    1    2    0    0  0.76032451942E+01 -0.12396672404E+03  0.16635294088E+03  0.22142235421E+03  0.77000000000E+02 0.  0.
   -5000001    1    1    2    0    0 -0.76032451942E+01  0.12396672404E+03  0.68538593017E+02  0.16140661925E+03  0.77000000000E+02 0.  0.
<mgrwt>
<rscale>  0 0.30229785E+03</rscale>
<asrwt>0</asrwt>
<pdfrwt beam="1">  1        1 0.47516962E-01 0.30229785E+03</pdfrwt>
<pdfrwt beam="2">  1       -1 0.11379803E-01 0.30229785E+03</pdfrwt>
<totfact> 0.41964783E+03</totfact>
</mgrwt>
</event>
<event>
 4    1  0.3064919E-004  0.1727532E+03  0.7818608E-02  0.1175007E+00
         -1   -1    0    0    0  501 -0.00000000000E+00  0.00000000000E+00  0.14719925813E+03  0.14719925822E+03  0.50400000000E-02 0.  1.
          1   -1    0    0  501    0  0.00000000000E+00 -0.00000000000E+00 -0.50685858052E+02  0.50685858303E+02  0.50400000000E-02 0. -1.
    5000001    1    1    2    0    0  0.36403374004E+02 -0.21587053466E+01  0.31974172612E+02  0.91001172310E+02  0.77000000000E+02 0.  0.
   -5000001    1    1    2    0    0 -0.36403374004E+02  0.21587053466E+01  0.64539227465E+02  0.10688394421E+03  0.77000000000E+02 0.  0.
<mgrwt>
<rscale>  0 0.17275324E+03</rscale>
<asrwt>0</asrwt>
<pdfrwt beam="1">  1        1 0.77978242E-02 0.17275324E+03</pdfrwt>
<pdfrwt beam="2">  1       -1 0.22646040E-01 0.17275324E+03</pdfrwt>
<totfact> 0.14099543E+04</totfact>
</mgrwt>
</event>
<event>
 4    1  0.3064919E-004  0.2193167E+03  0.7818608E-02  0.1134394E+00
          1   -1    0    0  501    0  0.00000000000E+00  0.00000000000E+00  0.50630872942E+02  0.50630873193E+02  0.50400000000E-02 0.  1.
         -1   -1    0    0    0  501 -0.00000000000E+00 -0.00000000000E+00 -0.23750240109E+03  0.23750240115E+03  0.50400000000E-02 0. -1.
    5000001    1    1    2    0    0 -0.19329839448E+02 -0.72972330077E+02 -0.67247393738E+02  0.12708192481E+03  0.77000000000E+02 0.  0.
   -5000001    1    1    2    0    0  0.19329839448E+02  0.72972330077E+02 -0.11962413441E+03  0.16105134953E+03  0.77000000000E+02 0.  0.
<mgrwt>
<rscale>  0 0.21931670E+03</rscale>
<asrwt>0</asrwt>
<pdfrwt beam="1">  1        1 0.77893652E-02 0.21931670E+03</pdfrwt>
<pdfrwt beam="2">  1       -1 0.36538830E-01 0.21931670E+03</pdfrwt>
<totfact> 0.64108186E+03</totfact>
</mgrwt>
</event>
<event>
 4    1  0.3064919E-004  0.2390892E+03  0.7818608E-02  0.1120401E+00
         -1   -1    0    0    0  501 -0.00000000000E+00  0.00000000000E+00  0.28100954934E+02  0.28100955386E+02  0.50400000000E-02 0.  1.
          1   -1    0    0  501    0  0.00000000000E+00 -0.00000000000E+00 -0.50855588619E+03  0.50855588621E+03  0.50400000000E-02 0. -1.
    5000001    1    1    2    0    0  0.90556711809E+02  0.10943398981E+02 -0.25470987059E+03  0.28129414180E+03  0.77000000000E+02 0.  0.
   -5000001    1    1    2    0    0 -0.90556711809E+02 -0.10943398981E+02 -0.22574506066E+03  0.25536269980E+03  0.77000000000E+02 0.  0.
<mgrwt>
<rscale>  0 0.23908916E+03</rscale>
<asrwt>0</asrwt>
<pdfrwt beam="1">  1        1 0.78239360E-01 0.23908916E+03</pdfrwt>
<pdfrwt beam="2">  1       -1 0.43232243E-02 0.23908916E+03</pdfrwt>
<totfact> 0.95442461E+03</totfact>
</mgrwt>
</event>
<event>
 4    1  0.3064919E-004  0.6916344E+03  0.7818608E-02  0.9731646E-01
          1   -1    0    0  501    0  0.00000000000E+00  0.00000000000E+00  0.60383343040E+03  0.60383343042E+03  0.50400000000E-02 0.  1.
         -1   -1    0    0    0  501 -0.00000000000E+00 -0.00000000000E+00 -0.19805056393E+03  0.19805056400E+03  0.50400000000E-02 0. -1.
    5000001    1    1    2    0    0  0.31512701302E+03 -0.85761325160E+02  0.29989771083E+03  0.45003075027E+03  0.77000000000E+02 0.  0.
   -5000001    1    1    2    0    0 -0.31512701302E+03  0.85761325160E+02  0.10588515563E+03  0.35185324414E+03  0.77000000000E+02 0.  0.
<mgrwt>
<rscale>  0 0.69163445E+03</rscale>
<asrwt>0</asrwt>
<pdfrwt beam="1">  1        1 0.92897450E-01 0.69163445E+03</pdfrwt>
<pdfrwt beam="2">  1       -1 0.30469318E-01 0.69163445E+03</pdfrwt>
<totfact> 0.34079060E+02</totfact>
</mgrwt>
</event>
<event>
 4    1  0.3064919E-004  0.3999565E+03  0.7818608E-02  0.1043795E+00
         -1   -1    0    0    0  501 -0.00000000000E+00  0.00000000000E+00  0.17517766096E+02  0.17517766821E+02  0.50400000000E-02 0.  1.
          1   -1    0    0  501    0  0.00000000000E+00 -0.00000000000E+00 -0.22828990082E+04  0.22828990082E+04  0.50400000000E-02 0. -1.
    5000001    1    1    2    0    0  0.14374879341E+03  0.10997323723E+03 -0.92495559642E+03  0.94563718405E+03  0.77000000000E+02 0.  0.
   -5000001    1    1    2    0    0 -0.14374879341E+03 -0.10997323723E+03 -0.13404256456E+04  0.13547795909E+04  0.77000000000E+02 0.  0.
<mgrwt>
<rscale>  0 0.39995646E+03</rscale>
<asrwt>0</asrwt>
<pdfrwt beam="1">  1        1 0.35121500E+00 0.39995646E+03</pdfrwt>
<pdfrwt beam="2">  1       -1 0.26950428E-02 0.39995646E+03</pdfrwt>
<totfact> 0.96309936E+02</totfact>
</mgrwt>
</event>
<event>
 4    1  0.3064919E-004  0.2122864E+03  0.7818608E-02  0.1139768E+00
          1   -1    0    0  501    0  0.00000000000E+00  0.00000000000E+00  0.39448544249E+03  0.39448544253E+03  0.50400000000E-02 0.  1.
         -1   -1    0    0    0  501 -0.00000000000E+00 -0.00000000000E+00 -0.28559688975E+02  0.28559689419E+02  0.50400000000E-02 0. -1.
    5000001    1    1    2    0    0 -0.44394405096E+02 -0.57732204268E+02  0.19449895957E+03  0.22150105166E+03  0.77000000000E+02 0.  0.
   -5000001    1    1    2    0    0  0.44394405096E+02  0.57732204268E+02  0.17142679395E+03  0.20154408029E+03  0.77000000000E+02 0.  0.
<mgrwt>
<rscale>  0 0.21228643E+03</rscale>
<asrwt>0</asrwt>
<pdfrwt beam="1">  1        1 0.60690068E-01 0.21228643E+03</pdfrwt>
<pdfrwt beam="2">  1       -1 0.43937983E-02 0.21228643E+03</pdfrwt>
<totfact> 0.12875718E+04</totfact>
</mgrwt>
</event>
<event>
 4    1  0.3064919E-004  0.2275545E+03  0.7818608E-02  0.1128373E+00
         -1   -1    0    0    0  501 -0.00000000000E+00  0.00000000000E+00  0.11862989110E+02  0.11862990181E+02  0.50400000000E-02 0.  1.
          1   -1    0    0  501    0  0.00000000000E+00 -0.00000000000E+00 -0.10912307355E+04  0.10912307355E+04  0.50400000000E-02 0. -1.
    5000001    1    1    2    0    0  0.13363915438E+02  0.82615479569E+02 -0.55671768289E+03  0.56821429949E+03  0.77000000000E+02 0.  0.
   -5000001    1    1    2    0    0 -0.13363915438E+02 -0.82615479569E+02 -0.52265006350E+03  0.53487942621E+03  0.77000000000E+02 0.  0.
<mgrwt>
<rscale>  0 0.22755447E+03</rscale>
<asrwt>0</asrwt>
<pdfrwt beam="1">  1        1 0.16788157E+00 0.22755447E+03</pdfrwt>
<pdfrwt beam="2">  1       -1 0.18250762E-02 0.22755447E+03</pdfrwt>
<totfact> 0.10643193E+04</totfact>
</mgrwt>
</event>
<event>
 4    1  0.3064919E-004  0.4218627E+03  0.7818608E-02  0.1036462E+00
          1   -1    0    0  501    0  0.00000000000E+00  0.00000000000E+00  0.76663712513E+02  0.76663712679E+02  0.50400000000E-02 0.  1.
         -1   -1    0    0    0  501 -0.00000000000E+00 -0.00000000000E+00 -0.58035325617E+03  0.58035325619E+03  0.50400000000E-02 0. -1.
    5000001    1    1    2    0    0 -0.68847796883E+01  0.19614894244E+03 -0.26184474032E+03  0.33617476979E+03  0.77000000000E+02 0.  0.
   -5000001    1    1    2    0    0  0.68847796883E+01 -0.19614894244E+03 -0.24184480334E+03  0.32084219908E+03  0.77000000000E+02 0.  0.
<mgrwt>
<rscale>  0 0.42186270E+03</rscale>
<asrwt>0</asrwt>
<pdfrwt beam="1">  1        1 0.11794418E-01 0.42186270E+03</pdfrwt>
<pdfrwt beam="2">  1       -1 0.89285114E-01 0.42186270E+03</pdfrwt>
<totfact> 0.66485490E+02</totfact>
</mgrwt>
</event>
<event>
 4    1  0.3064919E-004  0.2713058E+03  0.7818608E-02  0.1100535E+00
         -1   -1    0    0    0  501 -0.00000000000E+00  0.00000000000E+00  0.26840204103E+02  0.26840204576E+02  0.50400000000E-02 0. -1.
          1   -1    0    0  501    0  0.00000000000E+00 -0.00000000000E+00 -0.68560233584E+03  0.68560233586E+03  0.50400000000E-02 0.  1.
    5000001    1    1    2    0    0  0.85662325039E+02  0.52779673991E+02 -0.20210980372E+03  0.23853951597E+03  0.77000000000E+02 0.  0.
   -5000001    1    1    2    0    0 -0.85662325039E+02 -0.52779673991E+02 -0.45665232801E+03  0.47390302447E+03  0.77000000000E+02 0.  0.
<mgrwt>
<rscale>  0 0.27130578E+03</rscale>
<asrwt>0</asrwt>
<pdfrwt beam="1">  1        1 0.10547727E+00 0.27130578E+03</pdfrwt>
<pdfrwt beam="2">  1       -1 0.41292627E-02 0.27130578E+03</pdfrwt>
<totfact> 0.67921024E+03</totfact>
</mgrwt>
</event>
<event>
 4    1  0.3064919E-004  0.1669820E+03  0.7818608E-02  0.1181032E+00
          1   -1    0    0  501    0  0.00000000000E+00  0.00000000000E+00  0.70643702367E+03  0.70643702369E+03  0.50400000000E-02 0.  1.
         -1   -1    0    0    0  501 -0.00000000000E+00 -0.00000000000E+00 -0.98674648411E+01  0.98674661283E+01  0.50400000000E-02 0. -1.
    5000001    1    1    2    0    0  0.16095916050E+02  0.27938752696E+02  0.35448715324E+03  0.36418373690E+03  0.77000000000E+02 0.  0.
   -5000001    1    1    2    0    0 -0.16095916050E+02 -0.27938752696E+02  0.34208240560E+03  0.35212075292E+03  0.77000000000E+02 0.  0.
<mgrwt>
<rscale>  0 0.16698195E+03</rscale>
<asrwt>0</asrwt>
<pdfrwt beam="1">  1        1 0.10868261E+00 0.16698195E+03</pdfrwt>
<pdfrwt beam="2">  1       -1 0.15180717E-02 0.16698195E+03</pdfrwt>
<totfact> 0.27382590E+04</totfact>
</mgrwt>
</event>
<event>
 4    1  0.3064919E-004  0.2584491E+03  0.7818608E-02  0.1108079E+00
         -1   -1    0    0    0  501 -0.00000000000E+00  0.00000000000E+00  0.10811453791E+02  0.10811454966E+02  0.50400000000E-02 0.  1.
          1   -1    0    0  501    0  0.00000000000E+00 -0.00000000000E+00 -0.15445637977E+04  0.15445637977E+04  0.50400000000E-02 0. -1.
    5000001    1    1    2    0    0  0.99287744390E+01  0.99693679378E+02 -0.92976263688E+03  0.93830963504E+03  0.77000000000E+02 0.  0.
   -5000001    1    1    2    0    0 -0.99287744390E+01 -0.99693679378E+02 -0.60398970702E+03  0.61706561762E+03  0.77000000000E+02 0.  0.
<mgrwt>
<rscale>  0 0.25844907E+03</rscale>
<asrwt>0</asrwt>
<pdfrwt beam="1">  1        1 0.23762502E+00 0.25844907E+03</pdfrwt>
<pdfrwt beam="2">  1       -1 0.16633019E-02 0.25844907E+03</pdfrwt>
<totfact> 0.59968637E+03</totfact>
</mgrwt>
</event>
<event>
 4    1  0.3064919E-004  0.2198278E+03  0.7818608E-02  0.1134012E+00
          1   -1    0    0  501    0  0.00000000000E+00  0.00000000000E+00  0.70988501648E+03  0.70988501650E+03  0.50400000000E-02 0. -1.
         -1   -1    0    0    0  501 -0.00000000000E+00 -0.00000000000E+00 -0.17018334400E+02  0.17018335147E+02  0.50400000000E-02 0.  1.
    5000001    1    1    2    0    0  0.61353315596E+01 -0.76038874357E+02  0.28613639755E+03  0.30597808861E+03  0.77000000000E+02 0.  0.
   -5000001    1    1    2    0    0 -0.61353315596E+01  0.76038874357E+02  0.40673028453E+03  0.42092526303E+03  0.77000000000E+02 0.  0.
<mgrwt>
<rscale>  0 0.21982776E+03</rscale>
<asrwt>0</asrwt>
<pdfrwt beam="1">  1        1 0.10921309E+00 0.21982776E+03</pdfrwt>
<pdfrwt beam="2">  1       -1 0.26182050E-02 0.21982776E+03</pdfrwt>
<totfact> 0.12545598E+04</totfact>
</mgrwt>
</event>
<event>
 4    1  0.3064919E-004  0.6808570E+03  0.7818608E-02  0.9750541E-01
          1   -1    0    0  501    0  0.00000000000E+00  0.00000000000E+00  0.93821782445E+03  0.93821782447E+03  0.50400000000E-02 0. -1.
         -1   -1    0    0    0  501 -0.00000000000E+00 -0.00000000000E+00 -0.12352309148E+03  0.12352309158E+03  0.50400000000E-02 0.  1.
    5000001    1    1    2    0    0  0.13509192198E+03  0.23050439930E+03  0.71364690827E+03  0.76590013394E+03  0.77000000000E+02 0.  0.
   -5000001    1    1    2    0    0 -0.13509192198E+03 -0.23050439930E+03  0.10104782471E+03  0.29584078211E+03  0.77000000000E+02 0.  0.
<mgrwt>
<rscale>  0 0.68085701E+03</rscale>
<asrwt>0</asrwt>
<pdfrwt beam="1">  1        1 0.14434121E+00 0.68085701E+03</pdfrwt>
<pdfrwt beam="2">  1       -1 0.19003552E-01 0.68085701E+03</pdfrwt>
<totfact> 0.38199311E+02</totfact>
</mgrwt>
</event>
<event>
 4    1  0.3064919E-004  0.2835436E+03  0.7818608E-02  0.1093769E+00
         -1   -1    0    0    0  501 -0.00000000000E+00  0.00000000000E+00  0.41117648019E+03  0.41117648022E+03  0.50400000000E-02 0. -1.
          1   -1    0    0  501    0  0.00000000000E+00 -0.00000000000E+00 -0.48882266597E+02  0.48882266857E+02  0.50400000000E-02 0.  1.
    5000001    1    1    2    0    0 -0.67870539806E+02 -0.96555297714E+02  0.20633050483E+03  0.24986118729E+03  0.77000000000E+02 0.  0.
   -5000001    1    1    2    0    0  0.67870539806E+02  0.96555297714E+02  0.15596370876E+03  0.21019755979E+03  0.77000000000E+02 0.  0.
<mgrwt>
<rscale>  0 0.28354357E+03</rscale>
<asrwt>0</asrwt>
<pdfrwt beam="1">  1        1 0.75203488E-02 0.28354357E+03</pdfrwt>
<pdfrwt beam="2">  1       -1 0.63257919E-01 0.28354357E+03</pdfrwt>
<totfact> 0.24771282E+03</totfact>
</mgrwt>
</event>
<event>
 4    1  0.3064919E-004  0.4264091E+03  0.7818608E-02  0.1035000E+00
          1   -1    0    0  501    0  0.00000000000E+00  0.00000000000E+00  0.12895915539E+04  0.12895915539E+04  0.50400000000E-02 0.  1.
         -1   -1    0    0    0  501 -0.00000000000E+00 -0.00000000000E+00 -0.35248506017E+02  0.35248506377E+02  0.50400000000E-02 0. -1.
    5000001    1    1    2    0    0  0.17043520524E+03  0.58958180096E+02  0.88717401639E+03  0.90858734392E+03  0.77000000000E+02 0.  0.
   -5000001    1    1    2    0    0 -0.17043520524E+03 -0.58958180096E+02  0.36716903147E+03  0.41625271634E+03  0.77000000000E+02 0.  0.
<mgrwt>
<rscale>  0 0.42640908E+03</rscale>
<asrwt>0</asrwt>
<pdfrwt beam="1">  1        1 0.19839873E+00 0.42640908E+03</pdfrwt>
<pdfrwt beam="2">  1       -1 0.54228463E-02 0.42640908E+03</pdfrwt>
<totfact> 0.15399197E+03</totfact>
</mgrwt>
</event>
<event>
 4    1  0.3064919E-004  0.2629977E+03  0.7818608E-02  0.1105355E+00
          1   -1    0    0  501    0  0.00000000000E+00  0.00000000000E+00  0.31240846662E+03  0.31240846666E+03  0.50400000000E-02 0.  1.
         -1   -1    0    0    0  501 -0.00000000000E+00 -0.00000000000E+00 -0.55350461323E+02  0.55350461552E+02  0.50400000000E-02 0. -1.
    5000001    1    1    2    0    0  0.55848055774E+02 -0.32696914161E+02  0.10083683572E+02  0.10108795281E+03  0.77000000000E+02 0.  0.
   -5000001    1    1    2    0    0 -0.55848055774E+02  0.32696914161E+02  0.24697432172E+03  0.26667097540E+03  0.77000000000E+02 0.  0.
<mgrwt>
<rscale>  0 0.26299774E+03</rscale>
<asrwt>0</asrwt>
<pdfrwt beam="1">  1        1 0.48062842E-01 0.26299774E+03</pdfrwt>
<pdfrwt beam="2">  1       -1 0.85154555E-02 0.26299774E+03</pdfrwt>
<totfact> 0.64480525E+03</totfact>
</mgrwt>
</event>
<event>
 4    1  0.3064919E-004  0.2127449E+03  0.7818608E-02  0.1139411E+00
         -1   -1    0    0    0  501 -0.00000000000E+00  0.00000000000E+00  0.23647229654E+03  0.23647229659E+03  0.50400000000E-02 0.  1.
          1   -1    0    0  501    0  0.00000000000E+00 -0.00000000000E+00 -0.47849551310E+02  0.47849551575E+02  0.50400000000E-02 0. -1.
    5000001    1    1    2    0    0 -0.61800409803E+02  0.26931625041E+02  0.13307957933E+03  0.16788024754E+03  0.77000000000E+02 0.  0.
   -5000001    1    1    2    0    0  0.61800409803E+02 -0.26931625041E+02  0.55543165902E+02  0.11644160063E+03  0.77000000000E+02 0.  0.
<mgrwt>
<rscale>  0 0.21274485E+03</rscale>
<asrwt>0</asrwt>
<pdfrwt beam="1">  1        1 0.73614693E-02 0.21274485E+03</pdfrwt>
<pdfrwt beam="2">  1       -1 0.36380354E-01 0.21274485E+03</pdfrwt>
<totfact> 0.69628725E+03</totfact>
</mgrwt>
</event>
<event>
 4    1  0.3064919E-004  0.2199929E+03  0.7818608E-02  0.1133888E+00
          1   -1    0    0  501    0  0.00000000000E+00  0.00000000000E+00  0.20602507627E+04  0.20602507627E+04  0.50400000000E-02 0.  1.
         -1   -1    0    0    0  501 -0.00000000000E+00 -0.00000000000E+00 -0.58726914184E+01  0.58726935811E+01  0.50400000000E-02 0. -1.
    5000001    1    1    2    0    0 -0.72520260091E+02 -0.12360545374E+02  0.12858037547E+04  0.12902062885E+04  0.77000000000E+02 0.  0.
   -5000001    1    1    2    0    0  0.72520260091E+02  0.12360545374E+02  0.76857431659E+03  0.77591716783E+03  0.77000000000E+02 0.  0.
<mgrwt>
<rscale>  0 0.21999290E+03</rscale>
<asrwt>0</asrwt>
<pdfrwt beam="1">  1        1 0.31696200E+00 0.21999290E+03</pdfrwt>
<pdfrwt beam="2">  1       -1 0.90349018E-03 0.21999290E+03</pdfrwt>
<totfact> 0.66935650E+03</totfact>
</mgrwt>
</event>
<event>
 4    1  0.3064919E-004  0.2465835E+03  0.7818608E-02  0.1115483E+00
          1   -1    0    0  501    0  0.00000000000E+00  0.00000000000E+00  0.83896672775E+03  0.83896672777E+03  0.50400000000E-02 0.  1.
         -1   -1    0    0    0  501 -0.00000000000E+00 -0.00000000000E+00 -0.18118544429E+02  0.18118545130E+02  0.50400000000E-02 0. -1.
    5000001    1    1    2    0    0  0.90869349215E+02 -0.31280644595E+02  0.38952885055E+03  0.40853083453E+03  0.77000000000E+02 0.  0.
   -5000001    1    1    2    0    0 -0.90869349215E+02  0.31280644595E+02  0.43131933277E+03  0.44855443837E+03  0.77000000000E+02 0.  0.
<mgrwt>
<rscale>  0 0.24658351E+03</rscale>
<asrwt>0</asrwt>
<pdfrwt beam="1">  1        1 0.12907179E+00 0.24658351E+03</pdfrwt>
<pdfrwt beam="2">  1       -1 0.27874688E-02 0.24658351E+03</pdfrwt>
<totfact> 0.89358663E+03</totfact>
</mgrwt>
</event>
<event>
 4    1  0.3064919E-004  0.2645933E+03  0.7818608E-02  0.1104415E+00
          1   -1    0    0  501    0  0.00000000000E+00  0.00000000000E+00  0.92430050044E+02  0.92430050181E+02  0.50400000000E-02 0.  1.
         -1   -1    0    0    0  501 -0.00000000000E+00 -0.00000000000E+00 -0.18935831271E+03  0.18935831278E+03  0.50400000000E-02 0. -1.
    5000001    1    1    2    0    0 -0.16003440073E+02  0.10019225456E+03 -0.10379859648E+02  0.12779412919E+03  0.77000000000E+02 0.  0.
   -5000001    1    1    2    0    0  0.16003440073E+02 -0.10019225456E+03 -0.86548403019E+02  0.15399423377E+03  0.77000000000E+02 0.  0.
<mgrwt>
<rscale>  0 0.26459326E+03</rscale>
<asrwt>0</asrwt>
<pdfrwt beam="1">  1        1 0.14220008E-01 0.26459326E+03</pdfrwt>
<pdfrwt beam="2">  1       -1 0.29132048E-01 0.26459326E+03</pdfrwt>
<totfact> 0.42646879E+03</totfact>
</mgrwt>
</event>
<event>
 4    1  0.3064919E-004  0.1813412E+03  0.7818608E-02  0.1166511E+00
         -1   -1    0    0    0  501 -0.00000000000E+00  0.00000000000E+00  0.47643574070E+02  0.47643574337E+02  0.50400000000E-02 0. -1.
          1   -1    0    0  501    0  0.00000000000E+00 -0.00000000000E+00 -0.17255537899E+03  0.17255537906E+03  0.50400000000E-02 0.  1.
    5000001    1    1    2    0    0 -0.35772654841E+02  0.59236613712E+01 -0.24493726528E+02  0.88564751666E+02  0.77000000000E+02 0.  0.
   -5000001    1    1    2    0    0  0.35772654841E+02 -0.59236613712E+01 -0.10041807839E+03  0.13163420173E+03  0.77000000000E+02 0.  0.
<mgrwt>
<rscale>  0 0.18134117E+03</rscale>
<asrwt>0</asrwt>
<pdfrwt beam="1">  1        1 0.26546981E-01 0.18134117E+03</pdfrwt>
<pdfrwt beam="2">  1       -1 0.73297807E-02 0.18134117E+03</pdfrwt>
<totfact> 0.16682453E+04</totfact>
</mgrwt>
</event>
<event>
 4    1  0.3064919E-004  0.2772811E+03  0.7818608E-02  0.1097183E+00
          1   -1    0    0  501    0  0.00000000000E+00  0.00000000000E+00  0.74527426230E+03  0.74527426231E+03  0.50400000000E-02 0.  1.
         -1   -1    0    0    0  501 -0.00000000000E+00 -0.00000000000E+00 -0.25790770161E+02  0.25790770654E+02  0.50400000000E-02 0. -1.
    5000001    1    1    2    0    0 -0.79936831442E+02 -0.22729498221E+02  0.58195708772E+03  0.59288243275E+03  0.77000000000E+02 0.  0.
   -5000001    1    1    2    0    0  0.79936831442E+02  0.22729498221E+02  0.13752640441E+03  0.17818260022E+03  0.77000000000E+02 0.  0.
<mgrwt>
<rscale>  0 0.27728107E+03</rscale>
<asrwt>0</asrwt>
<pdfrwt beam="1">  1        1 0.11465758E+00 0.27728107E+03</pdfrwt>
<pdfrwt beam="2">  1       -1 0.39678109E-02 0.27728107E+03</pdfrwt>
<totfact> 0.63785287E+03</totfact>
</mgrwt>
</event>
<event>
 4    1  0.3064919E-004  0.2301695E+03  0.7818608E-02  0.1126520E+00
          1   -1    0    0  501    0  0.00000000000E+00  0.00000000000E+00  0.10824261628E+03  0.10824261639E+03  0.50400000000E-02 0. -1.
         -1   -1    0    0    0  501 -0.00000000000E+00 -0.00000000000E+00 -0.12235942822E+03  0.12235942832E+03  0.50400000000E-02 0.  1.
    5000001    1    1    2    0    0  0.57265993537E+01  0.82990342476E+02  0.12861453628E+02  0.11408158429E+03  0.77000000000E+02 0.  0.
   -5000001    1    1    2    0    0 -0.57265993537E+01 -0.82990342476E+02 -0.26978265567E+02  0.11652046042E+03  0.77000000000E+02 0.  0.
<mgrwt>
<rscale>  0 0.23016954E+03</rscale>
<asrwt>0</asrwt>
<pdfrwt beam="1">  1        1 0.16652710E-01 0.23016954E+03</pdfrwt>
<pdfrwt beam="2">  1       -1 0.18824527E-01 0.23016954E+03</pdfrwt>
<totfact> 0.70908291E+03</totfact>
</mgrwt>
</event>
<event>
 4    1  0.3064919E-004  0.2306565E+03  0.7818608E-02  0.1126179E+00
          1   -1    0    0  501    0  0.00000000000E+00  0.00000000000E+00  0.13756077649E+04  0.13756077649E+04  0.50400000000E-02 0.  1.
         -1   -1    0    0    0  501 -0.00000000000E+00 -0.00000000000E+00 -0.96688911048E+01  0.96688924184E+01  0.50400000000E-02 0. -1.
    5000001    1    1    2    0    0  0.32895247295E+02  0.44339405084E+02  0.10778717898E+04  0.10820280382E+04  0.77000000000E+02 0.  0.
   -5000001    1    1    2    0    0 -0.32895247295E+02 -0.44339405084E+02  0.28806708392E+03  0.30324861909E+03  0.77000000000E+02 0.  0.
<mgrwt>
<rscale>  0 0.23065648E+03</rscale>
<asrwt>0</asrwt>
<pdfrwt beam="1">  1        1 0.21163213E+00 0.23065648E+03</pdfrwt>
<pdfrwt beam="2">  1       -1 0.14875206E-02 0.23065648E+03</pdfrwt>
<totfact> 0.91103828E+03</totfact>
</mgrwt>
</event>
<event>
 4    1  0.3064919E-004  0.2268208E+03  0.7818608E-02  0.1128898E+00
         -1   -1    0    0    0  501 -0.00000000000E+00  0.00000000000E+00  0.27896407185E+03  0.27896407190E+03  0.50400000000E-02 0. -1.
          1   -1    0    0  501    0  0.00000000000E+00 -0.00000000000E+00 -0.46106024694E+02  0.46106024969E+02  0.50400000000E-02 0.  1.
    5000001    1    1    2    0    0 -0.37491972611E+02 -0.63695184934E+02  0.17138086299E+03  0.20189879839E+03  0.77000000000E+02 0.  0.
   -5000001    1    1    2    0    0  0.37491972611E+02  0.63695184934E+02  0.61477184170E+02  0.12317129847E+03  0.77000000000E+02 0.  0.
<mgrwt>
<rscale>  0 0.22682085E+03</rscale>
<asrwt>0</asrwt>
<pdfrwt beam="1">  1        1 0.70932346E-02 0.22682085E+03</pdfrwt>
<pdfrwt beam="2">  1       -1 0.42917550E-01 0.22682085E+03</pdfrwt>
<totfact> 0.54888413E+03</totfact>
</mgrwt>
</event>
<event>
 4    1  0.3064919E-004  0.1876656E+03  0.7818608E-02  0.1160584E+00
          1   -1    0    0  501    0  0.00000000000E+00  0.00000000000E+00  0.20834402980E+03  0.20834402987E+03  0.50400000000E-02 0.  1.
         -1   -1    0    0    0  501 -0.00000000000E+00 -0.00000000000E+00 -0.42259902391E+02  0.42259902691E+02  0.50400000000E-02 0. -1.
    5000001    1    1    2    0    0  0.48036533005E+02 -0.23832059152E+02  0.82573992507E+02  0.12499175887E+03  0.77000000000E+02 0.  0.
   -5000001    1    1    2    0    0 -0.48036533005E+02  0.23832059152E+02  0.83510134906E+02  0.12561217369E+03  0.77000000000E+02 0.  0.
<mgrwt>
<rscale>  0 0.18766564E+03</rscale>
<asrwt>0</asrwt>
<pdfrwt beam="1">  1        1 0.32052927E-01 0.18766564E+03</pdfrwt>
<pdfrwt beam="2">  1       -1 0.65015235E-02 0.18766564E+03</pdfrwt>
<totfact> 0.15822252E+04</totfact>
</mgrwt>
</event>
<event>
 4    1  0.3064919E-004  0.1709252E+03  0.7818608E-02  0.1176886E+00
         -1   -1    0    0    0  501 -0.00000000000E+00  0.00000000000E+00  0.10906280511E+03  0.10906280522E+03  0.50400000000E-02 0.  1.
          1   -1    0    0  501    0  0.00000000000E+00 -0.00000000000E+00 -0.66969288363E+02  0.66969288553E+02  0.50400000000E-02 0. -1.
    5000001    1    1    2    0    0  0.28989963784E+02  0.26647246525E+01  0.44696746337E+02  0.93671329075E+02  0.77000000000E+02 0.  0.
   -5000001    1    1    2    0    0 -0.28989963784E+02 -0.26647246525E+01 -0.26032295938E+01  0.82360764700E+02  0.77000000000E+02 0.  0.
<mgrwt>
<rscale>  0 0.17092523E+03</rscale>
<asrwt>0</asrwt>
<pdfrwt beam="1">  1        1 0.10302968E-01 0.17092523E+03</pdfrwt>
<pdfrwt beam="2">  1       -1 0.16778893E-01 0.17092523E+03</pdfrwt>
<totfact> 0.15714119E+04</totfact>
</mgrwt>
</event>
<event>
 4    1  0.3064919E-004  0.3839974E+03  0.7818608E-02  0.1049466E+00
         -1   -1    0    0    0  501 -0.00000000000E+00  0.00000000000E+00  0.17441741840E+03  0.17441741848E+03  0.50400000000E-02 0. -1.
          1   -1    0    0  501    0  0.00000000000E+00 -0.00000000000E+00 -0.21135220979E+03  0.21135220985E+03  0.50400000000E-02 0.  1.
    5000001    1    1    2    0    0  0.58731138593E+02  0.16190699756E+03  0.17352231413E+02  0.18945533098E+03  0.77000000000E+02 0.  0.
   -5000001    1    1    2    0    0 -0.58731138593E+02 -0.16190699756E+03 -0.54287022801E+02  0.19631429735E+03  0.77000000000E+02 0.  0.
<mgrwt>
<rscale>  0 0.38399743E+03</rscale>
<asrwt>0</asrwt>
<pdfrwt beam="1">  1        1 0.32515725E-01 0.38399743E+03</pdfrwt>
<pdfrwt beam="2">  1       -1 0.26833449E-01 0.38399743E+03</pdfrwt>
<totfact> 0.16974763E+03</totfact>
</mgrwt>
</event>
<event>
 4    1  0.3064919E-004  0.3523464E+03  0.7818608E-02  0.1061656E+00
          1   -1    0    0  501    0  0.00000000000E+00  0.00000000000E+00  0.19954537515E+03  0.19954537521E+03  0.50400000000E-02 0.  1.
         -1   -1    0    0    0  501 -0.00000000000E+00 -0.00000000000E+00 -0.15553856489E+03  0.15553856497E+03  0.50400000000E-02 0. -1.
    5000001    1    1    2    0    0 -0.62477536503E+02  0.81969682160E+02  0.14329434227E+03  0.19257398549E+03  0.77000000000E+02 0.  0.
   -5000001    1    1    2    0    0  0.62477536503E+02 -0.81969682160E+02 -0.99287532011E+02  0.16250995469E+03  0.77000000000E+02 0.  0.
<mgrwt>
<rscale>  0 0.35234643E+03</rscale>
<asrwt>0</asrwt>
<pdfrwt beam="1">  1        1 0.30699288E-01 0.35234643E+03</pdfrwt>
<pdfrwt beam="2">  1       -1 0.23929010E-01 0.35234643E+03</pdfrwt>
<totfact> 0.22115122E+03</totfact>
</mgrwt>
</event>
<event>
 4    1  0.3064919E-004  0.4823706E+03  0.7818608E-02  0.1018486E+00
         -1   -1    0    0    0  501 -0.00000000000E+00  0.00000000000E+00  0.11619387244E+03  0.11619387255E+03  0.50400000000E-02 0. -1.
          1   -1    0    0  501    0  0.00000000000E+00 -0.00000000000E+00 -0.50063172437E+03  0.50063172440E+03  0.50400000000E-02 0.  1.
    5000001    1    1    2    0    0 -0.13320605949E+03  0.12826893283E+03 -0.36399188943E+03  0.41547065960E+03  0.77000000000E+02 0.  0.
   -5000001    1    1    2    0    0  0.13320605949E+03 -0.12826893283E+03 -0.20445962498E+02  0.20135493735E+03  0.77000000000E+02 0.  0.
<mgrwt>
<rscale>  0 0.48237056E+03</rscale>
<asrwt>0</asrwt>
<pdfrwt beam="1">  1        1 0.77020264E-01 0.48237056E+03</pdfrwt>
<pdfrwt beam="2">  1       -1 0.17875981E-01 0.48237056E+03</pdfrwt>
<totfact> 0.10940172E+03</totfact>
</mgrwt>
</event>
<event>
 4    1  0.3064919E-004  0.1817606E+03  0.7818608E-02  0.1166110E+00
          1   -1    0    0  501    0  0.00000000000E+00  0.00000000000E+00  0.97646682797E+02  0.97646682927E+02  0.50400000000E-02 0.  1.
         -1   -1    0    0    0  501 -0.00000000000E+00 -0.00000000000E+00 -0.84582743876E+02  0.84582744026E+02  0.50400000000E-02 0. -1.
    5000001    1    1    2    0    0 -0.47663625848E+02  0.40045475312E+01  0.62035323202E-02  0.90646884494E+02  0.77000000000E+02 0.  0.
   -5000001    1    1    2    0    0  0.47663625848E+02 -0.40045475312E+01  0.13057735389E+02  0.91582542460E+02  0.77000000000E+02 0.  0.
<mgrwt>
<rscale>  0 0.18176055E+03</rscale>
<asrwt>0</asrwt>
<pdfrwt beam="1">  1        1 0.15022567E-01 0.18176055E+03</pdfrwt>
<pdfrwt beam="2">  1       -1 0.13012730E-01 0.18176055E+03</pdfrwt>
<totfact> 0.14339195E+04</totfact>
</mgrwt>
</event>
<event>
 4    1  0.3064919E-004  0.1708485E+03  0.7818608E-02  0.1176966E+00
         -1   -1    0    0    0  501 -0.00000000000E+00  0.00000000000E+00  0.45830654436E+03  0.45830654439E+03  0.50400000000E-02 0.  1.
          1   -1    0    0  501    0  0.00000000000E+00 -0.00000000000E+00 -0.15922314819E+02  0.15922315616E+02  0.50400000000E-02 0. -1.
    5000001    1    1    2    0    0 -0.92662091737E+01  0.25158947620E+02  0.29193048609E+03  0.30310269545E+03  0.77000000000E+02 0.  0.
   -5000001    1    1    2    0    0  0.92662091737E+01 -0.25158947620E+02  0.15045374345E+03  0.17112616455E+03  0.77000000000E+02 0.  0.
<mgrwt>
<rscale>  0 0.17084849E+03</rscale>
<asrwt>0</asrwt>
<pdfrwt beam="1">  1        1 0.24495874E-02 0.17084849E+03</pdfrwt>
<pdfrwt beam="2">  1       -1 0.70508686E-01 0.17084849E+03</pdfrwt>
<totfact> 0.92302858E+03</totfact>
</mgrwt>
</event>
<event>
 4    1  0.3064919E-004  0.8028841E+03  0.7818608E-02  0.9555852E-01
          1   -1    0    0  501    0  0.00000000000E+00  0.00000000000E+00  0.19058974161E+03  0.19058974168E+03  0.50400000000E-02 0.  1.
         -1   -1    0    0    0  501 -0.00000000000E+00 -0.00000000000E+00 -0.84556348291E+03  0.84556348293E+03  0.50400000000E-02 0. -1.
    5000001    1    1    2    0    0 -0.10828061940E+03  0.31128551281E+03 -0.48887747891E+02  0.34196838292E+03  0.77000000000E+02 0.  0.
   -5000001    1    1    2    0    0  0.10828061940E+03 -0.31128551281E+03 -0.60608599341E+03  0.69418484169E+03  0.77000000000E+02 0.  0.
<mgrwt>
<rscale>  0 0.80288412E+03</rscale>
<asrwt>0</asrwt>
<pdfrwt beam="1">  1        1 0.29321499E-01 0.80288412E+03</pdfrwt>
<pdfrwt beam="2">  1       -1 0.13008669E+00 0.80288412E+03</pdfrwt>
<totfact> 0.81287444E+01</totfact>
</mgrwt>
</event>
<event>
 4    1  0.3064919E-004  0.2219323E+03  0.7818608E-02  0.1132451E+00
          1   -1    0    0  501    0  0.00000000000E+00  0.00000000000E+00  0.71764931272E+02  0.71764931449E+02  0.50400000000E-02 0. -1.
         -1   -1    0    0    0  501 -0.00000000000E+00 -0.00000000000E+00 -0.17158084569E+03  0.17158084576E+03  0.50400000000E-02 0.  1.
    5000001    1    1    2    0    0  0.72907952628E+02 -0.98525920205E+01 -0.15725626567E+02  0.10765193197E+03  0.77000000000E+02 0.  0.
   -5000001    1    1    2    0    0 -0.72907952628E+02  0.98525920205E+01 -0.84090287852E+02  0.13569384524E+03  0.77000000000E+02 0.  0.
<mgrwt>
<rscale>  0 0.22193231E+03</rscale>
<asrwt>0</asrwt>
<pdfrwt beam="1">  1        1 0.11040759E-01 0.22193231E+03</pdfrwt>
<pdfrwt beam="2">  1       -1 0.26397053E-01 0.22193231E+03</pdfrwt>
<totfact> 0.69842389E+03</totfact>
</mgrwt>
</event>
<event>
 4    1  0.3064919E-004  0.2265137E+03  0.7818608E-02  0.1129118E+00
         -1   -1    0    0    0  501 -0.00000000000E+00  0.00000000000E+00  0.30748285634E+02  0.30748286047E+02  0.50400000000E-02 0. -1.
          1   -1    0    0  501    0  0.00000000000E+00 -0.00000000000E+00 -0.41716518479E+03  0.41716518482E+03  0.50400000000E-02 0.  1.
    5000001    1    1    2    0    0  0.38274806899E+02  0.35160055940E+02 -0.65103710454E+02  0.11344021990E+03  0.77000000000E+02 0.  0.
   -5000001    1    1    2    0    0 -0.38274806899E+02 -0.35160055940E+02 -0.32131318870E+03  0.33447325096E+03  0.77000000000E+02 0.  0.
<mgrwt>
<rscale>  0 0.22651370E+03</rscale>
<asrwt>0</asrwt>
<pdfrwt beam="1">  1        1 0.64179255E-01 0.22651370E+03</pdfrwt>
<pdfrwt beam="2">  1       -1 0.47305058E-02 0.22651370E+03</pdfrwt>
<totfact> 0.10779825E+04</totfact>
</mgrwt>
</event>
<event>
 4    1  0.3064919E-004  0.1971878E+03  0.7818608E-02  0.1152134E+00
          1   -1    0    0  501    0  0.00000000000E+00  0.00000000000E+00  0.33910310146E+02  0.33910310521E+02  0.50400000000E-02 0.  1.
         -1   -1    0    0    0  501 -0.00000000000E+00 -0.00000000000E+00 -0.28666072081E+03  0.28666072085E+03  0.50400000000E-02 0. -1.
    5000001    1    1    2    0    0  0.28784871155E+02  0.52354232153E+02 -0.15060978367E+03  0.17939298027E+03  0.77000000000E+02 0.  0.
   -5000001    1    1    2    0    0 -0.28784871155E+02 -0.52354232153E+02 -0.10214062699E+03  0.14117805110E+03  0.77000000000E+02 0.  0.
<mgrwt>
<rscale>  0 0.19718777E+03</rscale>
<asrwt>0</asrwt>
<pdfrwt beam="1">  1        1 0.52169710E-02 0.19718777E+03</pdfrwt>
<pdfrwt beam="2">  1       -1 0.44101648E-01 0.19718777E+03</pdfrwt>
<totfact> 0.78997876E+03</totfact>
</mgrwt>
</event>
<event>
 4    1  0.3064919E-004  0.1756285E+03  0.7818608E-02  0.1172102E+00
          1   -1    0    0  501    0  0.00000000000E+00  0.00000000000E+00  0.27814693150E+03  0.27814693155E+03  0.50400000000E-02 0.  1.
         -1   -1    0    0    0  501 -0.00000000000E+00 -0.00000000000E+00 -0.27723999271E+02  0.27723999729E+02  0.50400000000E-02 0. -1.
    5000001    1    1    2    0    0 -0.29729541093E+02  0.27197506799E+02  0.10326512582E+03  0.13496753758E+03  0.77000000000E+02 0.  0.
   -5000001    1    1    2    0    0  0.29729541093E+02 -0.27197506799E+02  0.14715780642E+03  0.17090339370E+03  0.77000000000E+02 0.  0.
<mgrwt>
<rscale>  0 0.17562853E+03</rscale>
<asrwt>0</asrwt>
<pdfrwt beam="1">  1        1 0.42791836E-01 0.17562853E+03</pdfrwt>
<pdfrwt beam="2">  1       -1 0.42652306E-02 0.17562853E+03</pdfrwt>
<totfact> 0.20584917E+04</totfact>
</mgrwt>
</event>
<event>
 4    1  0.3064919E-004  0.3269963E+03  0.7818608E-02  0.1072474E+00
          1   -1    0    0  501    0  0.00000000000E+00  0.00000000000E+00  0.11491041458E+04  0.11491041458E+04  0.50400000000E-02 0.  1.
         -1   -1    0    0    0  501 -0.00000000000E+00 -0.00000000000E+00 -0.23263031942E+02  0.23263032488E+02  0.50400000000E-02 0. -1.
    5000001    1    1    2    0    0 -0.14058411838E+03  0.20208184775E+02  0.47290395836E+03  0.49973935097E+03  0.77000000000E+02 0.  0.
   -5000001    1    1    2    0    0  0.14058411838E+03 -0.20208184775E+02  0.65293715552E+03  0.67262782736E+03  0.77000000000E+02 0.  0.
<mgrwt>
<rscale>  0 0.32699631E+03</rscale>
<asrwt>0</asrwt>
<pdfrwt beam="1">  1        1 0.17678526E+00 0.32699631E+03</pdfrwt>
<pdfrwt beam="2">  1       -1 0.35789279E-02 0.32699631E+03</pdfrwt>
<totfact> 0.36194275E+03</totfact>
</mgrwt>
</event>
<event>
 4    1  0.3064919E-004  0.2368448E+03  0.7818608E-02  0.1121913E+00
          1   -1    0    0  501    0  0.00000000000E+00  0.00000000000E+00  0.20241586945E+04  0.20241586945E+04  0.50400000000E-02 0.  1.
         -1   -1    0    0    0  501 -0.00000000000E+00 -0.00000000000E+00 -0.69282403799E+01  0.69282422131E+01  0.50400000000E-02 0. -1.
    5000001    1    1    2    0    0  0.64206961920E+02  0.13806116244E+02  0.15359777364E+04  0.15393082049E+04  0.77000000000E+02 0.  0.
   -5000001    1    1    2    0    0 -0.64206961920E+02 -0.13806116244E+02  0.48125271770E+03  0.49177873184E+03  0.77000000000E+02 0.  0.
<mgrwt>
<rscale>  0 0.23684476E+03</rscale>
<asrwt>0</asrwt>
<pdfrwt beam="1">  1        1 0.31140892E+00 0.23684476E+03</pdfrwt>
<pdfrwt beam="2">  1       -1 0.10658837E-02 0.23684476E+03</pdfrwt>
<totfact> 0.55711960E+03</totfact>
</mgrwt>
</event>
<event>
 4    1  0.3064919E-004  0.4429558E+03  0.7818608E-02  0.1029844E+00
          1   -1    0    0  501    0  0.00000000000E+00  0.00000000000E+00  0.41928260888E+03  0.41928260891E+03  0.50400000000E-02 0.  1.
         -1   -1    0    0    0  501 -0.00000000000E+00 -0.00000000000E+00 -0.11699142252E+03  0.11699142262E+03  0.50400000000E-02 0. -1.
    5000001    1    1    2    0    0  0.45416880300E+02 -0.19207689341E+03  0.22929950908E+03  0.31219143304E+03  0.77000000000E+02 0.  0.
   -5000001    1    1    2    0    0 -0.45416880300E+02  0.19207689341E+03  0.72991677288E+02  0.22408259850E+03  0.77000000000E+02 0.  0.
<mgrwt>
<rscale>  0 0.44295584E+03</rscale>
<asrwt>0</asrwt>
<pdfrwt beam="1">  1        1 0.64505018E-01 0.44295584E+03</pdfrwt>
<pdfrwt beam="2">  1       -1 0.17998680E-01 0.44295584E+03</pdfrwt>
<totfact> 0.13706290E+03</totfact>
</mgrwt>
</event>
<event>
 4    1  0.3064919E-004  0.1891214E+03  0.7818608E-02  0.1159256E+00
          1   -1    0    0  501    0  0.00000000000E+00  0.00000000000E+00  0.79007163166E+02  0.79007163327E+02  0.50400000000E-02 0. -1.
         -1   -1    0    0    0  501 -0.00000000000E+00 -0.00000000000E+00 -0.11317612788E+03  0.11317612799E+03  0.50400000000E-02 0.  1.
    5000001    1    1    2    0    0 -0.20732940209E+02  0.38291435471E+02 -0.51041597789E+02  0.10212900443E+03  0.77000000000E+02 0.  0.
   -5000001    1    1    2    0    0  0.20732940209E+02 -0.38291435471E+02  0.16872633080E+02  0.90054286890E+02  0.77000000000E+02 0.  0.
<mgrwt>
<rscale>  0 0.18912139E+03</rscale>
<asrwt>0</asrwt>
<pdfrwt beam="1">  1        1 0.12154948E-01 0.18912139E+03</pdfrwt>
<pdfrwt beam="2">  1       -1 0.17411712E-01 0.18912139E+03</pdfrwt>
<totfact> 0.11994835E+04</totfact>
</mgrwt>
</event>
<event>
 4    1  0.3064919E-004  0.2031583E+03  0.7818608E-02  0.1147101E+00
          1   -1    0    0  501    0  0.00000000000E+00  0.00000000000E+00  0.74957905684E+02  0.74957905853E+02  0.50400000000E-02 0.  1.
         -1   -1    0    0    0  501 -0.00000000000E+00 -0.00000000000E+00 -0.13765496643E+03  0.13765496652E+03  0.50400000000E-02 0. -1.
    5000001    1    1    2    0    0 -0.63081724160E+02 -0.10036069557E+02 -0.12943105840E+02  0.10087889077E+03  0.77000000000E+02 0.  0.
   -5000001    1    1    2    0    0  0.63081724160E+02  0.10036069557E+02 -0.49753954903E+02  0.11173398160E+03  0.77000000000E+02 0.  0.
<mgrwt>
<rscale>  0 0.20315834E+03</rscale>
<asrwt>0</asrwt>
<pdfrwt beam="1">  1        1 0.11531985E-01 0.20315834E+03</pdfrwt>
<pdfrwt beam="2">  1       -1 0.21177687E-01 0.20315834E+03</pdfrwt>
<totfact> 0.94261136E+03</totfact>
</mgrwt>
</event>
<event>
 4    1  0.3064919E-004  0.1843501E+03  0.7818608E-02  0.1163658E+00
          1   -1    0    0  501    0  0.00000000000E+00  0.00000000000E+00  0.11003070177E+04  0.11003070177E+04  0.50400000000E-02 0.  1.
         -1   -1    0    0    0  501 -0.00000000000E+00 -0.00000000000E+00 -0.77217004810E+01  0.77217021258E+01  0.50400000000E-02 0. -1.
    5000001    1    1    2    0    0 -0.40445124055E+02 -0.42038589528E+01  0.72797973889E+03  0.73316913515E+03  0.77000000000E+02 0.  0.
   -5000001    1    1    2    0    0  0.40445124055E+02  0.42038589528E+01  0.36460557834E+03  0.37485958471E+03  0.77000000000E+02 0.  0.
<mgrwt>
<rscale>  0 0.18435012E+03</rscale>
<asrwt>0</asrwt>
<pdfrwt beam="1">  1        1 0.16927796E+00 0.18435012E+03</pdfrwt>
<pdfrwt beam="2">  1       -1 0.11879543E-02 0.18435012E+03</pdfrwt>
<totfact> 0.19308949E+04</totfact>
</mgrwt>
</event>
<event>
 4    1  0.3064919E-004  0.1911542E+03  0.7818608E-02  0.1157424E+00
          1   -1    0    0  501    0  0.00000000000E+00  0.00000000000E+00  0.37751497457E+02  0.37751497793E+02  0.50400000000E-02 0. -1.
         -1   -1    0    0    0  501 -0.00000000000E+00 -0.00000000000E+00 -0.24197677873E+03  0.24197677878E+03  0.50400000000E-02 0.  1.
    5000001    1    1    2    0    0 -0.14153656288E+02 -0.53975741956E+02 -0.11617001141E+03  0.15012720692E+03  0.77000000000E+02 0.  0.
   -5000001    1    1    2    0    0  0.14153656288E+02  0.53975741956E+02 -0.88055269869E+02  0.12960106966E+03  0.77000000000E+02 0.  0.
<mgrwt>
<rscale>  0 0.19115424E+03</rscale>
<asrwt>0</asrwt>
<pdfrwt beam="1">  1        1 0.58079229E-02 0.19115424E+03</pdfrwt>
<pdfrwt beam="2">  1       -1 0.37227196E-01 0.19115424E+03</pdfrwt>
<totfact> 0.91827098E+03</totfact>
</mgrwt>
</event>
<event>
 4    1  0.3064919E-004  0.5219260E+03  0.7818608E-02  0.1008209E+00
          1   -1    0    0  501    0  0.00000000000E+00  0.00000000000E+00  0.15169235342E+03  0.15169235351E+03  0.50400000000E-02 0.  1.
         -1   -1    0    0    0  501 -0.00000000000E+00 -0.00000000000E+00 -0.44894602700E+03  0.44894602703E+03  0.50400000000E-02 0. -1.
    5000001    1    1    2    0    0  0.54318617826E+01 -0.21595109226E+03 -0.29194006240E+03  0.37124436616E+03  0.77000000000E+02 0.  0.
   -5000001    1    1    2    0    0 -0.54318617826E+01  0.21595109226E+03 -0.53136111767E+01  0.22939401438E+03  0.77000000000E+02 0.  0.
<mgrwt>
<rscale>  0 0.52192597E+03</rscale>
<asrwt>0</asrwt>
<pdfrwt beam="1">  1        1 0.23337285E-01 0.52192597E+03</pdfrwt>
<pdfrwt beam="2">  1       -1 0.69068619E-01 0.52192597E+03</pdfrwt>
<totfact> 0.45928512E+02</totfact>
</mgrwt>
</event>
<event>
 4    1  0.3064919E-004  0.2210311E+03  0.7818608E-02  0.1133117E+00
          1   -1    0    0  501    0  0.00000000000E+00  0.00000000000E+00  0.13909928794E+04  0.13909928795E+04  0.50400000000E-02 0.  1.
         -1   -1    0    0    0  501 -0.00000000000E+00 -0.00000000000E+00 -0.87805517973E+01  0.87805532438E+01  0.50400000000E-02 0. -1.
    5000001    1    1    2    0    0 -0.21813717482E+02 -0.76215789455E+02  0.69132679860E+03  0.70010458311E+03  0.77000000000E+02 0.  0.
   -5000001    1    1    2    0    0  0.21813717482E+02  0.76215789455E+02  0.69088552905E+03  0.69966884959E+03  0.77000000000E+02 0.  0.
<mgrwt>
<rscale>  0 0.22103109E+03</rscale>
<asrwt>0</asrwt>
<pdfrwt beam="1">  1        1 0.21399886E+00 0.22103109E+03</pdfrwt>
<pdfrwt beam="2">  1       -1 0.13508545E-02 0.22103109E+03</pdfrwt>
<totfact> 0.10215564E+04</totfact>
</mgrwt>
</event>
<event>
 4    1  0.3064919E-004  0.1713533E+03  0.7818608E-02  0.1176444E+00
         -1   -1    0    0    0  501 -0.00000000000E+00  0.00000000000E+00  0.54957862686E+02  0.54957862917E+02  0.50400000000E-02 0.  1.
          1   -1    0    0  501    0  0.00000000000E+00 -0.00000000000E+00 -0.13356577333E+03  0.13356577343E+03  0.50400000000E-02 0. -1.
    5000001    1    1    2    0    0  0.19303532496E+02  0.12495044827E+02 -0.71992000936E+02  0.10789161557E+03  0.77000000000E+02 0.  0.
   -5000001    1    1    2    0    0 -0.19303532496E+02 -0.12495044827E+02 -0.66159097078E+01  0.80632020769E+02  0.77000000000E+02 0.  0.
<mgrwt>
<rscale>  0 0.17135331E+03</rscale>
<asrwt>0</asrwt>
<pdfrwt beam="1">  1        1 0.20548580E-01 0.17135331E+03</pdfrwt>
<pdfrwt beam="2">  1       -1 0.84550559E-02 0.17135331E+03</pdfrwt>
<totfact> 0.18501966E+04</totfact>
</mgrwt>
</event>
<event>
 4    1  0.3064919E-004  0.2777372E+03  0.7818608E-02  0.1096931E+00
         -1   -1    0    0    0  501 -0.00000000000E+00  0.00000000000E+00  0.30126204726E+03  0.30126204731E+03  0.50400000000E-02 0. -1.
          1   -1    0    0  501    0  0.00000000000E+00 -0.00000000000E+00 -0.64012349654E+02  0.64012349852E+02  0.50400000000E-02 0.  1.
    5000001    1    1    2    0    0  0.34608969082E+02  0.10233885066E+03  0.64646842512E+02  0.14757789585E+03  0.77000000000E+02 0.  0.
   -5000001    1    1    2    0    0 -0.34608969082E+02 -0.10233885066E+03  0.17260285510E+03  0.21769650131E+03  0.77000000000E+02 0.  0.
<mgrwt>
<rscale>  0 0.27773723E+03</rscale>
<asrwt>0</asrwt>
<pdfrwt beam="1">  1        1 0.98480540E-02 0.27773723E+03</pdfrwt>
<pdfrwt beam="2">  1       -1 0.46348007E-01 0.27773723E+03</pdfrwt>
<totfact> 0.30853972E+03</totfact>
</mgrwt>
</event>
<event>
 4    1  0.3064919E-004  0.2207609E+03  0.7818608E-02  0.1133317E+00
         -1   -1    0    0    0  501 -0.00000000000E+00  0.00000000000E+00  0.12720750935E+03  0.12720750945E+03  0.50400000000E-02 0. -1.
          1   -1    0    0  501    0  0.00000000000E+00 -0.00000000000E+00 -0.95779306178E+02  0.95779306310E+02  0.50400000000E-02 0.  1.
    5000001    1    1    2    0    0 -0.51310089102E+02  0.59184620125E+02  0.26746800358E+02  0.11304837828E+03  0.77000000000E+02 0.  0.
   -5000001    1    1    2    0    0  0.51310089102E+02 -0.59184620125E+02  0.46814028153E+01  0.10993843748E+03  0.77000000000E+02 0.  0.
<mgrwt>
<rscale>  0 0.22076093E+03</rscale>
<asrwt>0</asrwt>
<pdfrwt beam="1">  1        1 0.14735278E-01 0.22076093E+03</pdfrwt>
<pdfrwt beam="2">  1       -1 0.19570386E-01 0.22076093E+03</pdfrwt>
<totfact> 0.77943549E+03</totfact>
</mgrwt>
</event>
<event>
 4    1  0.3064919E-004  0.2098319E+03  0.7818608E-02  0.1141699E+00
          1   -1    0    0  501    0  0.00000000000E+00  0.00000000000E+00  0.32157550470E+03  0.32157550474E+03  0.50400000000E-02 0.  1.
         -1   -1    0    0    0  501 -0.00000000000E+00 -0.00000000000E+00 -0.34229460946E+02  0.34229461317E+02  0.50400000000E-02 0. -1.
    5000001    1    1    2    0    0 -0.31019413777E+02 -0.37295919577E+02  0.23219212958E+03  0.24939000519E+03  0.77000000000E+02 0.  0.
   -5000001    1    1    2    0    0  0.31019413777E+02  0.37295919577E+02  0.55153914172E+02  0.10641496087E+03  0.77000000000E+02 0.  0.
<mgrwt>
<rscale>  0 0.20983190E+03</rscale>
<asrwt>0</asrwt>
<pdfrwt beam="1">  1        1 0.49473155E-01 0.20983190E+03</pdfrwt>
<pdfrwt beam="2">  1       -1 0.52660709E-02 0.20983190E+03</pdfrwt>
<totfact> 0.12717207E+04</totfact>
</mgrwt>
</event>
<event>
 4    1  0.3064919E-004  0.2394814E+03  0.7818608E-02  0.1120139E+00
         -1   -1    0    0    0  501 -0.00000000000E+00  0.00000000000E+00  0.16750694670E+02  0.16750695428E+02  0.50400000000E-02 0. -1.
          1   -1    0    0  501    0  0.00000000000E+00 -0.00000000000E+00 -0.85595457593E+03  0.85595457595E+03  0.50400000000E-02 0.  1.
    5000001    1    1    2    0    0 -0.31872793116E+02  0.85292001694E+02 -0.37997721410E+03  0.39824902225E+03  0.77000000000E+02 0.  0.
   -5000001    1    1    2    0    0  0.31872793116E+02 -0.85292001694E+02 -0.45922666716E+03  0.47445624912E+03  0.77000000000E+02 0.  0.
<mgrwt>
<rscale>  0 0.23948139E+03</rscale>
<asrwt>0</asrwt>
<pdfrwt beam="1">  1        1 0.13168528E+00 0.23948139E+03</pdfrwt>
<pdfrwt beam="2">  1       -1 0.25770307E-02 0.23948139E+03</pdfrwt>
<totfact> 0.97052229E+03</totfact>
</mgrwt>
</event>
<event>
 4    1  0.3064919E-004  0.3702553E+03  0.7818608E-02  0.1054595E+00
          1   -1    0    0  501    0  0.00000000000E+00  0.00000000000E+00  0.28042361948E+03  0.28042361953E+03  0.50400000000E-02 0.  1.
         -1   -1    0    0    0  501 -0.00000000000E+00 -0.00000000000E+00 -0.12221597623E+03  0.12221597633E+03  0.50400000000E-02 0. -1.
    5000001    1    1    2    0    0  0.13031108284E+03  0.10483381482E+03  0.10008201223E+03  0.20956267848E+03  0.77000000000E+02 0.  0.
   -5000001    1    1    2    0    0 -0.13031108284E+03 -0.10483381482E+03  0.58125631019E+02  0.19307691737E+03  0.77000000000E+02 0.  0.
<mgrwt>
<rscale>  0 0.37025530E+03</rscale>
<asrwt>0</asrwt>
<pdfrwt beam="1">  1        1 0.43142095E-01 0.37025530E+03</pdfrwt>
<pdfrwt beam="2">  1       -1 0.18802458E-01 0.37025530E+03</pdfrwt>
<totfact> 0.21384488E+03</totfact>
</mgrwt>
</event>
<event>
 4    1  0.3064919E-004  0.4990669E+03  0.7818608E-02  0.1014023E+00
          1   -1    0    0  501    0  0.00000000000E+00  0.00000000000E+00  0.10301086221E+03  0.10301086233E+03  0.50400000000E-02 0.  1.
         -1   -1    0    0    0  501 -0.00000000000E+00 -0.00000000000E+00 -0.60446970104E+03  0.60446970106E+03  0.50400000000E-02 0. -1.
    5000001    1    1    2    0    0  0.21248227628E+03  0.10459904410E+03 -0.27306594195E+03  0.36957230201E+03  0.77000000000E+02 0.  0.
   -5000001    1    1    2    0    0 -0.21248227628E+03 -0.10459904410E+03 -0.22839289688E+03  0.33790826138E+03  0.77000000000E+02 0.  0.
<mgrwt>
<rscale>  0 0.49906691E+03</rscale>
<asrwt>0</asrwt>
<pdfrwt beam="1">  1        1 0.15847825E-01 0.49906691E+03</pdfrwt>
<pdfrwt beam="2">  1       -1 0.92995337E-01 0.49906691E+03</pdfrwt>
<totfact> 0.40860133E+02</totfact>
</mgrwt>
</event>
<event>
 4    1  0.3064919E-004  0.2242521E+03  0.7818608E-02  0.1130752E+00
          1   -1    0    0  501    0  0.00000000000E+00  0.00000000000E+00  0.82300129324E+03  0.82300129325E+03  0.50400000000E-02 0.  1.
         -1   -1    0    0    0  501 -0.00000000000E+00 -0.00000000000E+00 -0.15276106590E+02  0.15276107422E+02  0.50400000000E-02 0. -1.
    5000001    1    1    2    0    0  0.76064086325E+02 -0.65939571279E+01  0.51051519453E+03  0.52190419556E+03  0.77000000000E+02 0.  0.
   -5000001    1    1    2    0    0 -0.76064086325E+02  0.65939571279E+01  0.29720999212E+03  0.31637320512E+03  0.77000000000E+02 0.  0.
<mgrwt>
<rscale>  0 0.22425214E+03</rscale>
<asrwt>0</asrwt>
<pdfrwt beam="1">  1        1 0.12661560E+00 0.22425214E+03</pdfrwt>
<pdfrwt beam="2">  1       -1 0.23501700E-02 0.22425214E+03</pdfrwt>
<totfact> 0.11778430E+04</totfact>
</mgrwt>
</event>
<event>
 4    1  0.3064919E-004  0.2772462E+03  0.7818608E-02  0.1097203E+00
         -1   -1    0    0    0  501 -0.00000000000E+00  0.00000000000E+00  0.80697922937E+02  0.80697923094E+02  0.50400000000E-02 0. -1.
          1   -1    0    0  501    0  0.00000000000E+00 -0.00000000000E+00 -0.23812705232E+03  0.23812705237E+03  0.50400000000E-02 0.  1.
    5000001    1    1    2    0    0  0.42688190215E+02 -0.10706940843E+03 -0.77445033292E+02  0.15878561958E+03  0.77000000000E+02 0.  0.
   -5000001    1    1    2    0    0 -0.42688190215E+02  0.10706940843E+03 -0.79984096093E+02  0.16003935589E+03  0.77000000000E+02 0.  0.
<mgrwt>
<rscale>  0 0.27724616E+03</rscale>
<asrwt>0</asrwt>
<pdfrwt beam="1">  1        1 0.36634931E-01 0.27724616E+03</pdfrwt>
<pdfrwt beam="2">  1       -1 0.12415065E-01 0.27724616E+03</pdfrwt>
<totfact> 0.50679039E+03</totfact>
</mgrwt>
</event>
<event>
 4    1  0.3064919E-004  0.1706727E+03  0.7818608E-02  0.1177148E+00
          1   -1    0    0  501    0  0.00000000000E+00  0.00000000000E+00  0.11810155655E+03  0.11810155666E+03  0.50400000000E-02 0. -1.
         -1   -1    0    0    0  501 -0.00000000000E+00 -0.00000000000E+00 -0.61661258791E+02  0.61661258997E+02  0.50400000000E-02 0.  1.
    5000001    1    1    2    0    0  0.66911262771E+01  0.35888151139E+02  0.23444322302E+02  0.88381937132E+02  0.77000000000E+02 0.  0.
   -5000001    1    1    2    0    0 -0.66911262771E+01 -0.35888151139E+02  0.32995975455E+02  0.91380878521E+02  0.77000000000E+02 0.  0.
<mgrwt>
<rscale>  0 0.17067268E+03</rscale>
<asrwt>0</asrwt>
<pdfrwt beam="1">  1        1 0.18169470E-01 0.17067268E+03</pdfrwt>
<pdfrwt beam="2">  1       -1 0.94863476E-02 0.17067268E+03</pdfrwt>
<totfact> 0.18168386E+04</totfact>
</mgrwt>
</event>
<event>
 4    1  0.3064919E-004  0.4158796E+03  0.7818608E-02  0.1038416E+00
          1   -1    0    0  501    0  0.00000000000E+00  0.00000000000E+00  0.54252289548E+03  0.54252289550E+03  0.50400000000E-02 0. -1.
         -1   -1    0    0    0  501 -0.00000000000E+00 -0.00000000000E+00 -0.79699804046E+02  0.79699804206E+02  0.50400000000E-02 0.  1.
    5000001    1    1    2    0    0 -0.15602461372E+03  0.11232564777E+03  0.25937163110E+03  0.33190868360E+03  0.77000000000E+02 0.  0.
   -5000001    1    1    2    0    0  0.15602461372E+03 -0.11232564777E+03  0.20345146034E+03  0.29031401610E+03  0.77000000000E+02 0.  0.
<mgrwt>
<rscale>  0 0.41587964E+03</rscale>
<asrwt>0</asrwt>
<pdfrwt beam="1">  1        1 0.83465058E-01 0.41587964E+03</pdfrwt>
<pdfrwt beam="2">  1       -1 0.12261509E-01 0.41587964E+03</pdfrwt>
<totfact> 0.17970796E+03</totfact>
</mgrwt>
</event>
<event>
 4    1  0.3064919E-004  0.2977571E+03  0.7818608E-02  0.1086367E+00
          1   -1    0    0  501    0  0.00000000000E+00  0.00000000000E+00  0.13426328694E+03  0.13426328703E+03  0.50400000000E-02 0.  1.
         -1   -1    0    0    0  501 -0.00000000000E+00 -0.00000000000E+00 -0.16508474439E+03  0.16508474447E+03  0.50400000000E-02 0. -1.
    5000001    1    1    2    0    0  0.51338718554E+02  0.11351654997E+03  0.11455629870E+02  0.14690780305E+03  0.77000000000E+02 0.  0.
   -5000001    1    1    2    0    0 -0.51338718554E+02 -0.11351654997E+03 -0.42277087324E+02  0.15244022846E+03  0.77000000000E+02 0.  0.
<mgrwt>
<rscale>  0 0.29775709E+03</rscale>
<asrwt>0</asrwt>
<pdfrwt beam="1">  1        1 0.20655890E-01 0.29775709E+03</pdfrwt>
<pdfrwt beam="2">  1       -1 0.25397653E-01 0.29775709E+03</pdfrwt>
<totfact> 0.33136993E+03</totfact>
</mgrwt>
</event>
<event>
 4    1  0.3064919E-004  0.4090480E+03  0.7818608E-02  0.1040691E+00
         -1   -1    0    0    0  501 -0.00000000000E+00  0.00000000000E+00  0.45625490056E+02  0.45625490334E+02  0.50400000000E-02 0. -1.
          1   -1    0    0  501    0  0.00000000000E+00 -0.00000000000E+00 -0.91681372314E+03  0.91681372315E+03  0.50400000000E-02 0.  1.
    5000001    1    1    2    0    0 -0.98025392670E+02  0.86433917618E+02 -0.75838667868E+03  0.77340749552E+03  0.77000000000E+02 0.  0.
   -5000001    1    1    2    0    0  0.98025392670E+02 -0.86433917618E+02 -0.11280155440E+03  0.18903171797E+03  0.77000000000E+02 0.  0.
<mgrwt>
<rscale>  0 0.40904804E+03</rscale>
<asrwt>0</asrwt>
<pdfrwt beam="1">  1        1 0.14104825E+00 0.40904804E+03</pdfrwt>
<pdfrwt beam="2">  1       -1 0.70193069E-02 0.40904804E+03</pdfrwt>
<totfact> 0.19519496E+03</totfact>
</mgrwt>
</event>
<event>
 4    1  0.3064919E-004  0.2199197E+03  0.7818608E-02  0.1133943E+00
          1   -1    0    0  501    0  0.00000000000E+00  0.00000000000E+00  0.30169792352E+03  0.30169792356E+03  0.50400000000E-02 0.  1.
         -1   -1    0    0    0  501 -0.00000000000E+00 -0.00000000000E+00 -0.40077075134E+02  0.40077075451E+02  0.50400000000E-02 0. -1.
    5000001    1    1    2    0    0 -0.20448006915E+02 -0.67392690574E+02  0.18469667580E+03  0.21213617744E+03  0.77000000000E+02 0.  0.
   -5000001    1    1    2    0    0  0.20448006915E+02  0.67392690574E+02  0.76924172586E+02  0.12963882157E+03  0.77000000000E+02 0.  0.
<mgrwt>
<rscale>  0 0.21991972E+03</rscale>
<asrwt>0</asrwt>
<pdfrwt beam="1">  1        1 0.46415065E-01 0.21991972E+03</pdfrwt>
<pdfrwt beam="2">  1       -1 0.61657040E-02 0.21991972E+03</pdfrwt>
<totfact> 0.10905223E+04</totfact>
</mgrwt>
</event>
<event>
 4    1  0.3064919E-004  0.1919987E+03  0.7818608E-02  0.1156671E+00
          1   -1    0    0  501    0  0.00000000000E+00  0.00000000000E+00  0.34039471863E+03  0.34039471867E+03  0.50400000000E-02 0. -1.
         -1   -1    0    0    0  501 -0.00000000000E+00 -0.00000000000E+00 -0.27074085802E+02  0.27074086272E+02  0.50400000000E-02 0.  1.
    5000001    1    1    2    0    0  0.47974699139E+02 -0.21179220158E+02  0.11231925447E+03  0.14592719434E+03  0.77000000000E+02 0.  0.
   -5000001    1    1    2    0    0 -0.47974699139E+02  0.21179220158E+02  0.20100137837E+03  0.22154161060E+03  0.77000000000E+02 0.  0.
<mgrwt>
<rscale>  0 0.19199871E+03</rscale>
<asrwt>0</asrwt>
<pdfrwt beam="1">  1        1 0.52368416E-01 0.19199871E+03</pdfrwt>
<pdfrwt beam="2">  1       -1 0.41652442E-02 0.19199871E+03</pdfrwt>
<totfact> 0.16683560E+04</totfact>
</mgrwt>
</event>
<event>
 4    1  0.3064919E-004  0.2275140E+03  0.7818608E-02  0.1128402E+00
          1   -1    0    0  501    0  0.00000000000E+00  0.00000000000E+00  0.19428850123E+03  0.19428850130E+03  0.50400000000E-02 0. -1.
         -1   -1    0    0    0  501 -0.00000000000E+00 -0.00000000000E+00 -0.66605345573E+02  0.66605345764E+02  0.50400000000E-02 0.  1.
    5000001    1    1    2    0    0  0.60690164422E+02 -0.65365457658E+01 -0.18886438143E+01  0.98278123016E+02  0.77000000000E+02 0.  0.
   -5000001    1    1    2    0    0 -0.60690164422E+02  0.65365457658E+01  0.12957179948E+03  0.16261572405E+03  0.77000000000E+02 0.  0.
<mgrwt>
<rscale>  0 0.22751398E+03</rscale>
<asrwt>0</asrwt>
<pdfrwt beam="1">  1        1 0.29890538E-01 0.22751398E+03</pdfrwt>
<pdfrwt beam="2">  1       -1 0.10246976E-01 0.22751398E+03</pdfrwt>
<totfact> 0.87463435E+03</totfact>
</mgrwt>
</event>
<event>
 4    1  0.3064919E-004  0.2526051E+03  0.7818608E-02  0.1111669E+00
          1   -1    0    0  501    0  0.00000000000E+00  0.00000000000E+00  0.96154582365E+03  0.96154582366E+03  0.50400000000E-02 0.  1.
         -1   -1    0    0    0  501 -0.00000000000E+00 -0.00000000000E+00 -0.16590296011E+02  0.16590296776E+02  0.50400000000E-02 0. -1.
    5000001    1    1    2    0    0  0.67770684373E+02 -0.25681692790E+02  0.20501822898E+03  0.23068135863E+03  0.77000000000E+02 0.  0.
   -5000001    1    1    2    0    0 -0.67770684373E+02  0.25681692790E+02  0.73993729866E+03  0.74745476181E+03  0.77000000000E+02 0.  0.
<mgrwt>
<rscale>  0 0.25260507E+03</rscale>
<asrwt>0</asrwt>
<pdfrwt beam="1">  1        1 0.14793008E+00 0.25260507E+03</pdfrwt>
<pdfrwt beam="2">  1       -1 0.25523542E-02 0.25260507E+03</pdfrwt>
<totfact> 0.81574535E+03</totfact>
</mgrwt>
</event>
<event>
 4    1  0.3064919E-004  0.1694847E+03  0.7818608E-02  0.1178386E+00
         -1   -1    0    0    0  501 -0.00000000000E+00  0.00000000000E+00  0.68680071787E+01  0.68680090280E+01  0.50400000000E-02 0. -1.
          1   -1    0    0  501    0  0.00000000000E+00 -0.00000000000E+00 -0.10456115191E+04  0.10456115191E+04  0.50400000000E-02 0.  1.
    5000001    1    1    2    0    0  0.26078352092E+02 -0.20683802417E+02 -0.59398552124E+03  0.59987973759E+03  0.77000000000E+02 0.  0.
   -5000001    1    1    2    0    0 -0.26078352092E+02  0.20683802417E+02 -0.44475799072E+03  0.45259979059E+03  0.77000000000E+02 0.  0.
<mgrwt>
<rscale>  0 0.16948473E+03</rscale>
<asrwt>0</asrwt>
<pdfrwt beam="1">  1        1 0.16086319E+00 0.16948473E+03</pdfrwt>
<pdfrwt beam="2">  1       -1 0.10566175E-02 0.16948473E+03</pdfrwt>
<totfact> 0.24869944E+04</totfact>
</mgrwt>
</event>
<event>
 4    1  0.3064919E-004  0.5984144E+03  0.7818608E-02  0.9908701E-01
          1   -1    0    0  501    0  0.00000000000E+00  0.00000000000E+00  0.99401039852E+03  0.99401039854E+03  0.50400000000E-02 0.  1.
         -1   -1    0    0    0  501 -0.00000000000E+00 -0.00000000000E+00 -0.90064404529E+02  0.90064404670E+02  0.50400000000E-02 0. -1.
    5000001    1    1    2    0    0  0.15187605335E+03 -0.20524990838E+03  0.69772146836E+03  0.74695254727E+03  0.77000000000E+02 0.  0.
   -5000001    1    1    2    0    0 -0.15187605335E+03  0.20524990838E+03  0.20622452564E+03  0.33712225593E+03  0.77000000000E+02 0.  0.
<mgrwt>
<rscale>  0 0.59841442E+03</rscale>
<asrwt>0</asrwt>
<pdfrwt beam="1">  1        1 0.15292468E+00 0.59841442E+03</pdfrwt>
<pdfrwt beam="2">  1       -1 0.13856062E-01 0.59841442E+03</pdfrwt>
<totfact> 0.58067824E+02</totfact>
</mgrwt>
</event>
<event>
 4    1  0.3064919E-004  0.1921226E+03  0.7818608E-02  0.1156561E+00
          1   -1    0    0  501    0  0.00000000000E+00  0.00000000000E+00  0.36140174800E+03  0.36140174804E+03  0.50400000000E-02 0.  1.
         -1   -1    0    0    0  501 -0.00000000000E+00 -0.00000000000E+00 -0.25533280222E+02  0.25533280719E+02  0.50400000000E-02 0. -1.
    5000001    1    1    2    0    0  0.10132141854E+02 -0.40704001374E+02  0.88917201446E+02  0.12487892032E+03  0.77000000000E+02 0.  0.
   -5000001    1    1    2    0    0 -0.10132141854E+02  0.40704001374E+02  0.24695126633E+03  0.26205610844E+03  0.77000000000E+02 0.  0.
<mgrwt>
<rscale>  0 0.19212259E+03</rscale>
<asrwt>0</asrwt>
<pdfrwt beam="1">  1        1 0.55600265E-01 0.19212259E+03</pdfrwt>
<pdfrwt beam="2">  1       -1 0.39281973E-02 0.19212259E+03</pdfrwt>
<totfact> 0.16873239E+04</totfact>
</mgrwt>
</event>
<event>
 4    1  0.3064919E-004  0.2808923E+03  0.7818608E-02  0.1095203E+00
          1   -1    0    0  501    0  0.00000000000E+00  0.00000000000E+00  0.68146088481E+03  0.68146088483E+03  0.50400000000E-02 0. -1.
         -1   -1    0    0    0  501 -0.00000000000E+00 -0.00000000000E+00 -0.28945352084E+02  0.28945352523E+02  0.50400000000E-02 0.  1.
    5000001    1    1    2    0    0  0.98475781474E+02  0.77682002260E+00  0.16435468721E+03  0.20649345315E+03  0.77000000000E+02 0.  0.
   -5000001    1    1    2    0    0 -0.98475781474E+02 -0.77682002260E+00  0.48816084551E+03  0.50391278420E+03  0.77000000000E+02 0.  0.
<mgrwt>
<rscale>  0 0.28089233E+03</rscale>
<asrwt>0</asrwt>
<pdfrwt beam="1">  1        1 0.10484012E+00 0.28089233E+03</pdfrwt>
<pdfrwt beam="2">  1       -1 0.44531317E-02 0.28089233E+03</pdfrwt>
<totfact> 0.61283236E+03</totfact>
</mgrwt>
</event>
<event>
 4    1  0.3064919E-004  0.1969118E+03  0.7818608E-02  0.1152371E+00
         -1   -1    0    0    0  501 -0.00000000000E+00  0.00000000000E+00  0.10641538937E+03  0.10641538949E+03  0.50400000000E-02 0. -1.
          1   -1    0    0  501    0  0.00000000000E+00 -0.00000000000E+00 -0.91091770499E+02  0.91091770639E+02  0.50400000000E-02 0.  1.
    5000001    1    1    2    0    0 -0.23516819667E+02 -0.54297574368E+02 -0.86137358863E+01  0.97490839751E+02  0.77000000000E+02 0.  0.
   -5000001    1    1    2    0    0  0.23516819667E+02  0.54297574368E+02  0.23937354761E+02  0.10001632038E+03  0.77000000000E+02 0.  0.
<mgrwt>
<rscale>  0 0.19691182E+03</rscale>
<asrwt>0</asrwt>
<pdfrwt beam="1">  1        1 0.14014119E-01 0.19691182E+03</pdfrwt>
<pdfrwt beam="2">  1       -1 0.16371598E-01 0.19691182E+03</pdfrwt>
<totfact> 0.11003113E+04</totfact>
</mgrwt>
</event>
<event>
 4    1  0.3064919E-004  0.3051868E+03  0.7818608E-02  0.1082676E+00
         -1   -1    0    0    0  501 -0.00000000000E+00  0.00000000000E+00  0.88266733556E+01  0.88266747945E+01  0.50400000000E-02 0. -1.
          1   -1    0    0  501    0  0.00000000000E+00 -0.00000000000E+00 -0.26379977174E+04  0.26379977174E+04  0.50400000000E-02 0.  1.
    5000001    1    1    2    0    0 -0.89815212399E+02  0.52999811252E+02 -0.20127321930E+04  0.20169024847E+04  0.77000000000E+02 0.  0.
   -5000001    1    1    2    0    0  0.89815212399E+02 -0.52999811252E+02 -0.61643885106E+03  0.62992190744E+03  0.77000000000E+02 0.  0.
<mgrwt>
<rscale>  0 0.30518680E+03</rscale>
<asrwt>0</asrwt>
<pdfrwt beam="1">  1        1 0.40584517E+00 0.30518680E+03</pdfrwt>
<pdfrwt beam="2">  1       -1 0.13579520E-02 0.30518680E+03</pdfrwt>
<totfact> 0.15427487E+03</totfact>
</mgrwt>
</event>
<event>
 4    1  0.3064919E-004  0.2466002E+03  0.7818608E-02  0.1115472E+00
          1   -1    0    0  501    0  0.00000000000E+00  0.00000000000E+00  0.22900559100E+02  0.22900559655E+02  0.50400000000E-02 0.  1.
         -1   -1    0    0    0  501 -0.00000000000E+00 -0.00000000000E+00 -0.66386665755E+03  0.66386665756E+03  0.50400000000E-02 0. -1.
    5000001    1    1    2    0    0  0.49748258639E+02  0.31491503255E+02 -0.53271156340E+03  0.54145841372E+03  0.77000000000E+02 0.  0.
   -5000001    1    1    2    0    0 -0.49748258639E+02 -0.31491503255E+02 -0.10825453505E+03  0.14530880350E+03  0.77000000000E+02 0.  0.
<mgrwt>
<rscale>  0 0.24660023E+03</rscale>
<asrwt>0</asrwt>
<pdfrwt beam="1">  1        1 0.35231635E-02 0.24660023E+03</pdfrwt>
<pdfrwt beam="2">  1       -1 0.10213332E+00 0.24660023E+03</pdfrwt>
<totfact> 0.25978117E+03</totfact>
</mgrwt>
</event>
<event>
 4    1  0.3064919E-004  0.2648791E+03  0.7818608E-02  0.1104247E+00
          1   -1    0    0  501    0  0.00000000000E+00  0.00000000000E+00  0.24375266352E+04  0.24375266352E+04  0.50400000000E-02 0.  1.
         -1   -1    0    0    0  501 -0.00000000000E+00 -0.00000000000E+00 -0.71959163336E+01  0.71959180986E+01  0.50400000000E-02 0. -1.
    5000001    1    1    2    0    0  0.91688970441E+02 -0.29726467677E+02  0.16597886707E+04  0.16643671355E+04  0.77000000000E+02 0.  0.
   -5000001    1    1    2    0    0 -0.91688970441E+02  0.29726467677E+02  0.77054204813E+03  0.78035541782E+03  0.77000000000E+02 0.  0.
<mgrwt>
<rscale>  0 0.26487914E+03</rscale>
<asrwt>0</asrwt>
<pdfrwt beam="1">  1        1 0.37500401E+00 0.26487914E+03</pdfrwt>
<pdfrwt beam="2">  1       -1 0.11070645E-02 0.26487914E+03</pdfrwt>
<totfact> 0.28329159E+03</totfact>
</mgrwt>
</event>
<event>
 4    1  0.3064919E-004  0.2041421E+03  0.7818608E-02  0.1146291E+00
         -1   -1    0    0    0  501 -0.00000000000E+00  0.00000000000E+00  0.37828002894E+02  0.37828003229E+02  0.50400000000E-02 0. -1.
          1   -1    0    0  501    0  0.00000000000E+00 -0.00000000000E+00 -0.27541772508E+03  0.27541772513E+03  0.50400000000E-02 0.  1.
    5000001    1    1    2    0    0  0.35674467705E+02 -0.36991891640E+02 -0.18476609186E+03  0.20666053420E+03  0.77000000000E+02 0.  0.
   -5000001    1    1    2    0    0 -0.35674467705E+02  0.36991891640E+02 -0.52823630327E+02  0.10658519416E+03  0.77000000000E+02 0.  0.
<mgrwt>
<rscale>  0 0.20414213E+03</rscale>
<asrwt>0</asrwt>
<pdfrwt beam="1">  1        1 0.42371957E-01 0.20414213E+03</pdfrwt>
<pdfrwt beam="2">  1       -1 0.58196929E-02 0.20414213E+03</pdfrwt>
<totfact> 0.13267809E+04</totfact>
</mgrwt>
</event>
<event>
 4    1  0.3064919E-004  0.2158008E+03  0.7818608E-02  0.1137053E+00
          1   -1    0    0  501    0  0.00000000000E+00  0.00000000000E+00  0.14161219319E+03  0.14161219328E+03  0.50400000000E-02 0.  1.
         -1   -1    0    0    0  501 -0.00000000000E+00 -0.00000000000E+00 -0.82213921384E+02  0.82213921539E+02  0.50400000000E-02 0. -1.
    5000001    1    1    2    0    0  0.22994020645E+02  0.69755150229E+02  0.48223562537E+02  0.11682901161E+03  0.77000000000E+02 0.  0.
   -5000001    1    1    2    0    0 -0.22994020645E+02 -0.69755150229E+02  0.11174709269E+02  0.10699710321E+03  0.77000000000E+02 0.  0.
<mgrwt>
<rscale>  0 0.21580078E+03</rscale>
<asrwt>0</asrwt>
<pdfrwt beam="1">  1        1 0.21786491E-01 0.21580078E+03</pdfrwt>
<pdfrwt beam="2">  1       -1 0.12648296E-01 0.21580078E+03</pdfrwt>
<totfact> 0.93893524E+03</totfact>
</mgrwt>
</event>
<event>
 4    1  0.3064919E-004  0.1836521E+03  0.7818608E-02  0.1164315E+00
          1   -1    0    0  501    0  0.00000000000E+00  0.00000000000E+00  0.46930938204E+03  0.46930938207E+03  0.50400000000E-02 0. -1.
         -1   -1    0    0    0  501 -0.00000000000E+00 -0.00000000000E+00 -0.17966866914E+02  0.17966867621E+02  0.50400000000E-02 0.  1.
    5000001    1    1    2    0    0 -0.67164572049E+01 -0.45895571100E+02  0.27541578302E+03  0.28971428646E+03  0.77000000000E+02 0.  0.
   -5000001    1    1    2    0    0  0.67164572049E+01  0.45895571100E+02  0.17592673211E+03  0.19756196323E+03  0.77000000000E+02 0.  0.
<mgrwt>
<rscale>  0 0.18365206E+03</rscale>
<asrwt>0</asrwt>
<pdfrwt beam="1">  1        1 0.72201445E-01 0.18365206E+03</pdfrwt>
<pdfrwt beam="2">  1       -1 0.27641334E-02 0.18365206E+03</pdfrwt>
<totfact> 0.20184799E+04</totfact>
</mgrwt>
</event>
<event>
 4    1  0.3064919E-004  0.1958548E+03  0.7818608E-02  0.1153284E+00
         -1   -1    0    0    0  501 -0.00000000000E+00  0.00000000000E+00  0.30868211610E+02  0.30868212021E+02  0.50400000000E-02 0.  1.
          1   -1    0    0  501    0  0.00000000000E+00 -0.00000000000E+00 -0.31066846927E+03  0.31066846931E+03  0.50400000000E-02 0. -1.
    5000001    1    1    2    0    0 -0.18779073823E+02  0.47840919462E+02 -0.84223929171E+02  0.12515621213E+03  0.77000000000E+02 0.  0.
   -5000001    1    1    2    0    0  0.18779073823E+02 -0.47840919462E+02 -0.19557632849E+03  0.21638046920E+03  0.77000000000E+02 0.  0.
<mgrwt>
<rscale>  0 0.19585485E+03</rscale>
<asrwt>0</asrwt>
<pdfrwt beam="1">  1        1 0.47795147E-01 0.19585485E+03</pdfrwt>
<pdfrwt beam="2">  1       -1 0.47489559E-02 0.19585485E+03</pdfrwt>
<totfact> 0.15421466E+04</totfact>
</mgrwt>
</event>
<event>
 4    1  0.3064919E-004  0.2929822E+03  0.7818608E-02  0.1088802E+00
          1   -1    0    0  501    0  0.00000000000E+00  0.00000000000E+00  0.70801320605E+03  0.70801320606E+03  0.50400000000E-02 0.  1.
         -1   -1    0    0    0  501 -0.00000000000E+00 -0.00000000000E+00 -0.30309662747E+02  0.30309663166E+02  0.50400000000E-02 0. -1.
    5000001    1    1    2    0    0  0.11953836439E+03  0.24051758383E+02  0.40372637609E+03  0.42870956882E+03  0.77000000000E+02 0.  0.
   -5000001    1    1    2    0    0 -0.11953836439E+03 -0.24051758383E+02  0.27397716721E+03  0.30961330041E+03  0.77000000000E+02 0.  0.
<mgrwt>
<rscale>  0 0.29298220E+03</rscale>
<asrwt>0</asrwt>
<pdfrwt beam="1">  1        1 0.10892510E+00 0.29298220E+03</pdfrwt>
<pdfrwt beam="2">  1       -1 0.46630255E-02 0.29298220E+03</pdfrwt>
<totfact> 0.54156322E+03</totfact>
</mgrwt>
</event>
<event>
 4    1  0.3064919E-004  0.2390556E+03  0.7818608E-02  0.1120424E+00
          1   -1    0    0  501    0  0.00000000000E+00  0.00000000000E+00  0.18557863975E+04  0.18557863975E+04  0.50400000000E-02 0.  1.
         -1   -1    0    0    0  501 -0.00000000000E+00 -0.00000000000E+00 -0.76985646975E+01  0.76985663472E+01  0.50400000000E-02 0. -1.
    5000001    1    1    2    0    0  0.22702003239E+02  0.61882999786E+02  0.43023158152E+03  0.44201029439E+03  0.77000000000E+02 0.  0.
   -5000001    1    1    2    0    0 -0.22702003239E+02 -0.61882999786E+02  0.14178562513E+04  0.14214746695E+04  0.77000000000E+02 0.  0.
<mgrwt>
<rscale>  0 0.23905559E+03</rscale>
<asrwt>0</asrwt>
<pdfrwt beam="1">  1        1 0.28550610E+00 0.23905559E+03</pdfrwt>
<pdfrwt beam="2">  1       -1 0.11843926E-02 0.23905559E+03</pdfrwt>
<totfact> 0.61475280E+03</totfact>
</mgrwt>
</event>
<event>
 4    1  0.3064919E-004  0.3504365E+03  0.7818608E-02  0.1062436E+00
          1   -1    0    0  501    0  0.00000000000E+00  0.00000000000E+00  0.12291339527E+02  0.12291340560E+02  0.50400000000E-02 0.  1.
         -1   -1    0    0    0  501 -0.00000000000E+00 -0.00000000000E+00 -0.24978106518E+04  0.24978106518E+04  0.50400000000E-02 0. -1.
    5000001    1    1    2    0    0 -0.94315868721E+02  0.58338912689E+02 -0.20427351018E+04  0.20471918835E+04  0.77000000000E+02 0.  0.
   -5000001    1    1    2    0    0  0.94315868721E+02 -0.58338912689E+02 -0.44278421049E+03  0.46291010886E+03  0.77000000000E+02 0.  0.
<mgrwt>
<rscale>  0 0.35043653E+03</rscale>
<asrwt>0</asrwt>
<pdfrwt beam="1">  1        1 0.18909774E-02 0.35043653E+03</pdfrwt>
<pdfrwt beam="2">  1       -1 0.38427816E+00 0.35043653E+03</pdfrwt>
<totfact> 0.72341458E+01</totfact>
</mgrwt>
</event>
<event>
 4    1  0.3064919E-004  0.1997955E+03  0.7818608E-02  0.1149912E+00
         -1   -1    0    0    0  501 -0.00000000000E+00  0.00000000000E+00  0.17620562174E+02  0.17620562894E+02  0.50400000000E-02 0.  1.
          1   -1    0    0  501    0  0.00000000000E+00 -0.00000000000E+00 -0.56635864772E+03  0.56635864774E+03  0.50400000000E-02 0. -1.
    5000001    1    1    2    0    0  0.63060851288E+02  0.69658586889E+01 -0.28908942713E+03  0.30582166541E+03  0.77000000000E+02 0.  0.
   -5000001    1    1    2    0    0 -0.63060851288E+02 -0.69658586889E+01 -0.25964865842E+03  0.27815754523E+03  0.77000000000E+02 0.  0.
<mgrwt>
<rscale>  0 0.19979548E+03</rscale>
<asrwt>0</asrwt>
<pdfrwt beam="1">  1        1 0.87132086E-01 0.19979548E+03</pdfrwt>
<pdfrwt beam="2">  1       -1 0.27108562E-02 0.19979548E+03</pdfrwt>
<totfact> 0.16281209E+04</totfact>
</mgrwt>
</event>
<event>
 4    1  0.3064919E-004  0.2137042E+03  0.7818608E-02  0.1138666E+00
          1   -1    0    0  501    0  0.00000000000E+00  0.00000000000E+00  0.11246482588E+03  0.11246482599E+03  0.50400000000E-02 0.  1.
         -1   -1    0    0    0  501 -0.00000000000E+00 -0.00000000000E+00 -0.10151948454E+03  0.10151948466E+03  0.50400000000E-02 0. -1.
    5000001    1    1    2    0    0 -0.57832772243E+02 -0.30572513550E+02 -0.29344489892E+02  0.10521125043E+03  0.77000000000E+02 0.  0.
   -5000001    1    1    2    0    0  0.57832772243E+02  0.30572513550E+02  0.40289831235E+02  0.10877306023E+03  0.77000000000E+02 0.  0.
<mgrwt>
<rscale>  0 0.21370420E+03</rscale>
<asrwt>0</asrwt>
<pdfrwt beam="1">  1        1 0.17302281E-01 0.21370420E+03</pdfrwt>
<pdfrwt beam="2">  1       -1 0.15618382E-01 0.21370420E+03</pdfrwt>
<totfact> 0.90565816E+03</totfact>
</mgrwt>
</event>
<event>
 4    1  0.3064919E-004  0.2407094E+03  0.7818608E-02  0.1119321E+00
         -1   -1    0    0    0  501 -0.00000000000E+00  0.00000000000E+00  0.15510881990E+03  0.15510881998E+03  0.50400000000E-02 0. -1.
          1   -1    0    0  501    0  0.00000000000E+00 -0.00000000000E+00 -0.93387691895E+02  0.93387692031E+02  0.50400000000E-02 0.  1.
    5000001    1    1    2    0    0  0.65340511288E+02  0.65454511571E+02  0.32518510534E+02  0.12466005386E+03  0.77000000000E+02 0.  0.
   -5000001    1    1    2    0    0 -0.65340511288E+02 -0.65454511571E+02  0.29202617466E+02  0.12383645815E+03  0.77000000000E+02 0.  0.
<mgrwt>
<rscale>  0 0.24070941E+03</rscale>
<asrwt>0</asrwt>
<pdfrwt beam="1">  1        1 0.14367337E-01 0.24070941E+03</pdfrwt>
<pdfrwt beam="2">  1       -1 0.23862895E-01 0.24070941E+03</pdfrwt>
<totfact> 0.58521516E+03</totfact>
</mgrwt>
</event>
<event>
 4    1  0.3064919E-004  0.2079496E+03  0.7818608E-02  0.1143200E+00
         -1   -1    0    0    0  501 -0.00000000000E+00  0.00000000000E+00  0.10130655717E+03  0.10130655729E+03  0.50400000000E-02 0. -1.
          1   -1    0    0  501    0  0.00000000000E+00 -0.00000000000E+00 -0.10671333298E+03  0.10671333310E+03  0.50400000000E-02 0.  1.
    5000001    1    1    2    0    0 -0.70766730905E+01  0.60398309505E+02 -0.37120324496E+02  0.10490449744E+03  0.77000000000E+02 0.  0.
   -5000001    1    1    2    0    0  0.70766730905E+01 -0.60398309505E+02  0.31713548682E+02  0.10311539295E+03  0.77000000000E+02 0.  0.
<mgrwt>
<rscale>  0 0.20794961E+03</rscale>
<asrwt>0</asrwt>
<pdfrwt beam="1">  1        1 0.16417436E-01 0.20794961E+03</pdfrwt>
<pdfrwt beam="2">  1       -1 0.15585624E-01 0.20794961E+03</pdfrwt>
<totfact> 0.97110042E+03</totfact>
</mgrwt>
</event>
<event>
 4    1  0.3064919E-004  0.2961538E+03  0.7818608E-02  0.1087179E+00
          1   -1    0    0  501    0  0.00000000000E+00  0.00000000000E+00  0.18378800098E+03  0.18378800105E+03  0.50400000000E-02 0.  1.
         -1   -1    0    0    0  501 -0.00000000000E+00 -0.00000000000E+00 -0.11930467840E+03  0.11930467851E+03  0.50400000000E-02 0. -1.
    5000001    1    1    2    0    0  0.10599684053E+03  0.69008292226E+02  0.31686947901E+02  0.15142832386E+03  0.77000000000E+02 0.  0.
   -5000001    1    1    2    0    0 -0.10599684053E+03 -0.69008292226E+02  0.32796374677E+02  0.15166435570E+03  0.77000000000E+02 0.  0.
<mgrwt>
<rscale>  0 0.29615380E+03</rscale>
<asrwt>0</asrwt>
<pdfrwt beam="1">  1        1 0.28275077E-01 0.29615380E+03</pdfrwt>
<pdfrwt beam="2">  1       -1 0.18354566E-01 0.29615380E+03</pdfrwt>
<totfact> 0.37803987E+03</totfact>
</mgrwt>
</event>
<event>
 4    1  0.3064919E-004  0.1966385E+03  0.7818608E-02  0.1152606E+00
         -1   -1    0    0    0  501 -0.00000000000E+00  0.00000000000E+00  0.21657612760E+02  0.21657613346E+02  0.50400000000E-02 0. -1.
          1   -1    0    0  501    0  0.00000000000E+00 -0.00000000000E+00 -0.44634072661E+03  0.44634072664E+03  0.50400000000E-02 0.  1.
    5000001    1    1    2    0    0  0.23452809359E+01 -0.46676976879E+02 -0.11853737480E+03  0.14887696175E+03  0.77000000000E+02 0.  0.
   -5000001    1    1    2    0    0 -0.23452809359E+01  0.46676976879E+02 -0.30614573904E+03  0.31912137824E+03  0.77000000000E+02 0.  0.
<mgrwt>
<rscale>  0 0.19663850E+03</rscale>
<asrwt>0</asrwt>
<pdfrwt beam="1">  1        1 0.68667797E-01 0.19663850E+03</pdfrwt>
<pdfrwt beam="2">  1       -1 0.33319408E-02 0.19663850E+03</pdfrwt>
<totfact> 0.16460412E+04</totfact>
</mgrwt>
</event>
<event>
 4    1  0.3064919E-004  0.1889336E+03  0.7818608E-02  0.1159427E+00
          1   -1    0    0  501    0  0.00000000000E+00  0.00000000000E+00  0.12727388245E+04  0.12727388245E+04  0.50400000000E-02 0.  1.
         -1   -1    0    0    0  501 -0.00000000000E+00 -0.00000000000E+00 -0.70116290594E+01  0.70116308708E+01  0.50400000000E-02 0. -1.
    5000001    1    1    2    0    0 -0.52436548628E+02  0.94202021666E+01  0.71763903916E+03  0.72372171611E+03  0.77000000000E+02 0.  0.
   -5000001    1    1    2    0    0  0.52436548628E+02 -0.94202021666E+01  0.54808815624E+03  0.55602873923E+03  0.77000000000E+02 0.  0.
<mgrwt>
<rscale>  0 0.18893357E+03</rscale>
<asrwt>0</asrwt>
<pdfrwt beam="1">  1        1 0.19580601E+00 0.18893357E+03</pdfrwt>
<pdfrwt beam="2">  1       -1 0.10787121E-02 0.18893357E+03</pdfrwt>
<totfact> 0.16858796E+04</totfact>
</mgrwt>
</event>
<event>
 4    1  0.3064919E-004  0.1792854E+03  0.7818608E-02  0.1168496E+00
         -1   -1    0    0    0  501 -0.00000000000E+00  0.00000000000E+00  0.51710583041E+02  0.51710583287E+02  0.50400000000E-02 0.  1.
          1   -1    0    0  501    0  0.00000000000E+00 -0.00000000000E+00 -0.15539985627E+03  0.15539985635E+03  0.50400000000E-02 0. -1.
    5000001    1    1    2    0    0 -0.34410775639E+02 -0.26116764090E+01 -0.16883963627E+02  0.86052254831E+02  0.77000000000E+02 0.  0.
   -5000001    1    1    2    0    0  0.34410775639E+02  0.26116764090E+01 -0.86805309603E+02  0.12105818481E+03  0.77000000000E+02 0.  0.
<mgrwt>
<rscale>  0 0.17928544E+03</rscale>
<asrwt>0</asrwt>
<pdfrwt beam="1">  1        1 0.23907670E-01 0.17928544E+03</pdfrwt>
<pdfrwt beam="2">  1       -1 0.79554744E-02 0.17928544E+03</pdfrwt>
<totfact> 0.16805082E+04</totfact>
</mgrwt>
</event>
<event>
 4    1  0.3064919E-004  0.2036847E+03  0.7818608E-02  0.1146667E+00
          1   -1    0    0  501    0  0.00000000000E+00  0.00000000000E+00  0.26317494410E+02  0.26317494892E+02  0.50400000000E-02 0.  1.
         -1   -1    0    0    0  501 -0.00000000000E+00 -0.00000000000E+00 -0.39410540954E+03  0.39410540957E+03  0.50400000000E-02 0. -1.
    5000001    1    1    2    0    0 -0.54583247998E+02  0.34115721718E+02 -0.14816357672E+03  0.17895434864E+03  0.77000000000E+02 0.  0.
   -5000001    1    1    2    0    0  0.54583247998E+02 -0.34115721718E+02 -0.21962433840E+03  0.24146855582E+03  0.77000000000E+02 0.  0.
<mgrwt>
<rscale>  0 0.20368473E+03</rscale>
<asrwt>0</asrwt>
<pdfrwt beam="1">  1        1 0.40488456E-02 0.20368473E+03</pdfrwt>
<pdfrwt beam="2">  1       -1 0.60631597E-01 0.20368473E+03</pdfrwt>
<totfact> 0.62273497E+03</totfact>
</mgrwt>
</event>
<event>
 4    1  0.3064919E-004  0.1737342E+03  0.7818608E-02  0.1174009E+00
          1   -1    0    0  501    0  0.00000000000E+00  0.00000000000E+00  0.24302915840E+03  0.24302915846E+03  0.50400000000E-02 0. -1.
         -1   -1    0    0    0  501 -0.00000000000E+00 -0.00000000000E+00 -0.31049314966E+02  0.31049315375E+02  0.50400000000E-02 0.  1.
    5000001    1    1    2    0    0  0.15151558877E+02 -0.59945617231E+01  0.16398340361E+03  0.18189299372E+03  0.77000000000E+02 0.  0.
   -5000001    1    1    2    0    0 -0.15151558877E+02  0.59945617231E+01  0.47996439831E+02  0.92185480110E+02  0.77000000000E+02 0.  0.
<mgrwt>
<rscale>  0 0.17373415E+03</rscale>
<asrwt>0</asrwt>
<pdfrwt beam="1">  1        1 0.37389100E-01 0.17373415E+03</pdfrwt>
<pdfrwt beam="2">  1       -1 0.47768179E-02 0.17373415E+03</pdfrwt>
<totfact> 0.20566470E+04</totfact>
</mgrwt>
</event>
<event>
 4    1  0.3064919E-004  0.2708897E+03  0.7818608E-02  0.1100771E+00
          1   -1    0    0  501    0  0.00000000000E+00  0.00000000000E+00  0.28701245278E+03  0.28701245283E+03  0.50400000000E-02 0.  1.
         -1   -1    0    0    0  501 -0.00000000000E+00 -0.00000000000E+00 -0.63918180791E+02  0.63918180990E+02  0.50400000000E-02 0. -1.
    5000001    1    1    2    0    0 -0.84782777642E+02 -0.70253264219E+02  0.89384555992E+02  0.16137608053E+03  0.77000000000E+02 0.  0.
   -5000001    1    1    2    0    0  0.84782777642E+02  0.70253264219E+02  0.13370971600E+03  0.18955455328E+03  0.77000000000E+02 0.  0.
<mgrwt>
<rscale>  0 0.27088975E+03</rscale>
<asrwt>0</asrwt>
<pdfrwt beam="1">  1        1 0.44155761E-01 0.27088975E+03</pdfrwt>
<pdfrwt beam="2">  1       -1 0.98335666E-02 0.27088975E+03</pdfrwt>
<totfact> 0.57554717E+03</totfact>
</mgrwt>
</event>
<event>
 4    1  0.3064919E-004  0.2826957E+03  0.7818608E-02  0.1094226E+00
          1   -1    0    0  501    0  0.00000000000E+00  0.00000000000E+00  0.30108408930E+03  0.30108408934E+03  0.50400000000E-02 0.  1.
         -1   -1    0    0    0  501 -0.00000000000E+00 -0.00000000000E+00 -0.66357583792E+02  0.66357583983E+02  0.50400000000E-02 0. -1.
    5000001    1    1    2    0    0  0.59796208561E+02  0.64506269541E+01 -0.15398860583E+02  0.98910677147E+02  0.77000000000E+02 0.  0.
   -5000001    1    1    2    0    0 -0.59796208561E+02 -0.64506269541E+01  0.25012536609E+03  0.26853099618E+03  0.77000000000E+02 0.  0.
<mgrwt>
<rscale>  0 0.28269569E+03</rscale>
<asrwt>0</asrwt>
<pdfrwt beam="1">  1        1 0.46320629E-01 0.28269569E+03</pdfrwt>
<pdfrwt beam="2">  1       -1 0.10208859E-01 0.28269569E+03</pdfrwt>
<totfact> 0.51214847E+03</totfact>
</mgrwt>
</event>
<event>
 4    1  0.3064919E-004  0.3207009E+03  0.7818608E-02  0.1075327E+00
         -1   -1    0    0    0  501 -0.00000000000E+00  0.00000000000E+00  0.28121620942E+02  0.28121621393E+02  0.50400000000E-02 0. -1.
          1   -1    0    0  501    0  0.00000000000E+00 -0.00000000000E+00 -0.91432389788E+03  0.91432389789E+03  0.50400000000E-02 0.  1.
    5000001    1    1    2    0    0 -0.58116629152E+02  0.11427886287E+03 -0.27311108685E+03  0.31137737048E+03  0.77000000000E+02 0.  0.
   -5000001    1    1    2    0    0  0.58116629152E+02 -0.11427886287E+03 -0.61309119008E+03  0.63106814881E+03  0.77000000000E+02 0.  0.
<mgrwt>
<rscale>  0 0.32070092E+03</rscale>
<asrwt>0</asrwt>
<pdfrwt beam="1">  1        1 0.14066519E+00 0.32070092E+03</pdfrwt>
<pdfrwt beam="2">  1       -1 0.43264039E-02 0.32070092E+03</pdfrwt>
<totfact> 0.40788722E+03</totfact>
</mgrwt>
</event>
<event>
 4    1  0.3064919E-004  0.1961291E+03  0.7818608E-02  0.1153047E+00
         -1   -1    0    0    0  501 -0.00000000000E+00  0.00000000000E+00  0.62833769162E+01  0.62833789375E+01  0.50400000000E-02 0.  1.
          1   -1    0    0  501    0  0.00000000000E+00 -0.00000000000E+00 -0.15304915587E+04  0.15304915587E+04  0.50400000000E-02 0. -1.
    5000001    1    1    2    0    0 -0.34329827376E+02 -0.47305415244E+02 -0.63303949052E+03  0.64037827565E+03  0.77000000000E+02 0.  0.
   -5000001    1    1    2    0    0  0.34329827376E+02  0.47305415244E+02 -0.89116869126E+03  0.89639666200E+03  0.77000000000E+02 0.  0.
<mgrwt>
<rscale>  0 0.19612911E+03</rscale>
<asrwt>0</asrwt>
<pdfrwt beam="1">  1        1 0.23545994E+00 0.19612911E+03</pdfrwt>
<pdfrwt beam="2">  1       -1 0.96667475E-03 0.19612911E+03</pdfrwt>
<totfact> 0.13321385E+04</totfact>
</mgrwt>
</event>
<event>
 4    1  0.3064919E-004  0.1953308E+03  0.7818608E-02  0.1153739E+00
         -1   -1    0    0    0  501 -0.00000000000E+00  0.00000000000E+00  0.37117738815E+02  0.37117739157E+02  0.50400000000E-02 0. -1.
          1   -1    0    0  501    0  0.00000000000E+00 -0.00000000000E+00 -0.25698031356E+03  0.25698031361E+03  0.50400000000E-02 0.  1.
    5000001    1    1    2    0    0  0.42426066042E+02 -0.36272227054E+02 -0.14339185990E+03  0.17206356680E+03  0.77000000000E+02 0.  0.
   -5000001    1    1    2    0    0 -0.42426066042E+02  0.36272227054E+02 -0.76470714844E+02  0.12203448596E+03  0.77000000000E+02 0.  0.
<mgrwt>
<rscale>  0 0.19533078E+03</rscale>
<asrwt>0</asrwt>
<pdfrwt beam="1">  1        1 0.39535432E-01 0.19533078E+03</pdfrwt>
<pdfrwt beam="2">  1       -1 0.57104216E-02 0.19533078E+03</pdfrwt>
<totfact> 0.14837591E+04</totfact>
</mgrwt>
</event>
<event>
 4    1  0.3064919E-004  0.2605022E+03  0.7818608E-02  0.1106842E+00
          1   -1    0    0  501    0  0.00000000000E+00  0.00000000000E+00  0.19428924923E+04  0.19428924923E+04  0.50400000000E-02 0. -1.
         -1   -1    0    0    0  501 -0.00000000000E+00 -0.00000000000E+00 -0.87320056992E+01  0.87320071537E+01  0.50400000000E-02 0.  1.
    5000001    1    1    2    0    0  0.49204067797E+02 -0.83450669710E+02  0.12715170890E+04  0.12775248577E+04  0.77000000000E+02 0.  0.
   -5000001    1    1    2    0    0 -0.49204067797E+02  0.83450669710E+02  0.66264339760E+03  0.67409964170E+03  0.77000000000E+02 0.  0.
<mgrwt>
<rscale>  0 0.26050221E+03</rscale>
<asrwt>0</asrwt>
<pdfrwt beam="1">  1        1 0.29890695E+00 0.26050221E+03</pdfrwt>
<pdfrwt beam="2">  1       -1 0.13433838E-02 0.26050221E+03</pdfrwt>
<totfact> 0.45018520E+03</totfact>
</mgrwt>
</event>
<event>
 4    1  0.3064919E-004  0.1800596E+03  0.7818608E-02  0.1167745E+00
          1   -1    0    0  501    0  0.00000000000E+00  0.00000000000E+00  0.26763851704E+04  0.26763851704E+04  0.50400000000E-02 0.  1.
         -1   -1    0    0    0  501 -0.00000000000E+00 -0.00000000000E+00 -0.30284737794E+01  0.30284779732E+01  0.50400000000E-02 0. -1.
    5000001    1    1    2    0    0 -0.24391034352E+02 -0.39197780643E+02  0.14364782470E+04  0.14392811201E+04  0.77000000000E+02 0.  0.
   -5000001    1    1    2    0    0  0.24391034352E+02  0.39197780643E+02  0.12368784496E+04  0.12401325283E+04  0.77000000000E+02 0.  0.
<mgrwt>
<rscale>  0 0.18005963E+03</rscale>
<asrwt>0</asrwt>
<pdfrwt beam="1">  1        1 0.41175290E+00 0.18005963E+03</pdfrwt>
<pdfrwt beam="2">  1       -1 0.46591785E-03 0.18005963E+03</pdfrwt>
<totfact> 0.67953894E+03</totfact>
</mgrwt>
</event>
<event>
 4    1  0.3064919E-004  0.1772273E+03  0.7818608E-02  0.1170514E+00
         -1   -1    0    0    0  501 -0.00000000000E+00  0.00000000000E+00  0.39767364386E+02  0.39767364705E+02  0.50400000000E-02 0. -1.
          1   -1    0    0  501    0  0.00000000000E+00 -0.00000000000E+00 -0.19745777679E+03  0.19745777686E+03  0.50400000000E-02 0.  1.
    5000001    1    1    2    0    0  0.31352872145E+02 -0.30626350626E+02 -0.76771787094E+02  0.11723430913E+03  0.77000000000E+02 0.  0.
   -5000001    1    1    2    0    0 -0.31352872145E+02  0.30626350626E+02 -0.80918625313E+02  0.11999083243E+03  0.77000000000E+02 0.  0.
<mgrwt>
<rscale>  0 0.17722726E+03</rscale>
<asrwt>0</asrwt>
<pdfrwt beam="1">  1        1 0.30378119E-01 0.17722726E+03</pdfrwt>
<pdfrwt beam="2">  1       -1 0.61180562E-02 0.17722726E+03</pdfrwt>
<totfact> 0.18453674E+04</totfact>
</mgrwt>
</event>
<event>
 4    1  0.3064919E-004  0.1842141E+03  0.7818608E-02  0.1163786E+00
          1   -1    0    0  501    0  0.00000000000E+00  0.00000000000E+00  0.54725953740E+03  0.54725953742E+03  0.50400000000E-02 0.  1.
         -1   -1    0    0    0  501 -0.00000000000E+00 -0.00000000000E+00 -0.15502165433E+02  0.15502166252E+02  0.50400000000E-02 0. -1.
    5000001    1    1    2    0    0  0.32754810621E+02 -0.35589946671E+02  0.22106518367E+03  0.23903626786E+03  0.77000000000E+02 0.  0.
   -5000001    1    1    2    0    0 -0.32754810621E+02  0.35589946671E+02  0.31069218829E+03  0.32372543581E+03  0.77000000000E+02 0.  0.
<mgrwt>
<rscale>  0 0.18421409E+03</rscale>
<asrwt>0</asrwt>
<pdfrwt beam="1">  1        1 0.84193760E-01 0.18421409E+03</pdfrwt>
<pdfrwt beam="2">  1       -1 0.23849490E-02 0.18421409E+03</pdfrwt>
<totfact> 0.20443613E+04</totfact>
</mgrwt>
</event>
<event>
 4    1  0.3064919E-004  0.2984950E+03  0.7818608E-02  0.1085995E+00
          1   -1    0    0  501    0  0.00000000000E+00  0.00000000000E+00  0.36830007313E+04  0.36830007313E+04  0.50400000000E-02 0. -1.
         -1   -1    0    0    0  501 -0.00000000000E+00 -0.00000000000E+00 -0.60480049010E+01  0.60480070010E+01  0.50400000000E-02 0.  1.
    5000001    1    1    2    0    0 -0.94603273529E+02  0.32249021400E+02  0.28237807445E+04  0.28265980386E+04  0.77000000000E+02 0.  0.
   -5000001    1    1    2    0    0  0.94603273529E+02 -0.32249021400E+02  0.85317198193E+03  0.86245069974E+03  0.77000000000E+02 0.  0.
<mgrwt>
<rscale>  0 0.29849496E+03</rscale>
<asrwt>0</asrwt>
<pdfrwt beam="1">  1        1 0.56661316E+00 0.29849496E+03</pdfrwt>
<pdfrwt beam="2">  1       -1 0.93046630E-03 0.29849496E+03</pdfrwt>
<totfact> 0.47149809E+02</totfact>
</mgrwt>
</event>
<event>
 4    1  0.3064919E-004  0.2292104E+03  0.7818608E-02  0.1127197E+00
         -1   -1    0    0    0  501 -0.00000000000E+00  0.00000000000E+00  0.10153484015E+02  0.10153485266E+02  0.50400000000E-02 0.  1.
          1   -1    0    0  501    0  0.00000000000E+00 -0.00000000000E+00 -0.12935805080E+04  0.12935805080E+04  0.50400000000E-02 0. -1.
    5000001    1    1    2    0    0 -0.56150091536E+02  0.62425718767E+02 -0.71265251640E+03  0.72170105464E+03  0.77000000000E+02 0.  0.
   -5000001    1    1    2    0    0  0.56150091536E+02 -0.62425718767E+02 -0.57077450755E+03  0.58203293860E+03  0.77000000000E+02 0.  0.
<mgrwt>
<rscale>  0 0.22921038E+03</rscale>
<asrwt>0</asrwt>
<pdfrwt beam="1">  1        1 0.19901226E+00 0.22921038E+03</pdfrwt>
<pdfrwt beam="2">  1       -1 0.15620756E-02 0.22921038E+03</pdfrwt>
<totfact> 0.96400234E+03</totfact>
</mgrwt>
</event>
<event>
 4    1  0.3064919E-004  0.2162729E+03  0.7818608E-02  0.1136693E+00
         -1   -1    0    0    0  501 -0.00000000000E+00  0.00000000000E+00  0.10623426688E+02  0.10623427884E+02  0.50400000000E-02 0. -1.
          1   -1    0    0  501    0  0.00000000000E+00 -0.00000000000E+00 -0.11007266710E+04  0.11007266710E+04  0.50400000000E-02 0.  1.
    5000001    1    1    2    0    0 -0.16081402708E+02 -0.52718728537E+02 -0.27672692364E+03  0.29248019782E+03  0.77000000000E+02 0.  0.
   -5000001    1    1    2    0    0  0.16081402708E+02  0.52718728537E+02 -0.81337632069E+03  0.81886990109E+03  0.77000000000E+02 0.  0.
<mgrwt>
<rscale>  0 0.21627288E+03</rscale>
<asrwt>0</asrwt>
<pdfrwt beam="1">  1        1 0.16934247E+00 0.21627288E+03</pdfrwt>
<pdfrwt beam="2">  1       -1 0.16343743E-02 0.21627288E+03</pdfrwt>
<totfact> 0.12273476E+04</totfact>
</mgrwt>
</event>
<event>
 4    1  0.3064919E-004  0.3401536E+03  0.7818608E-02  0.1066731E+00
         -1   -1    0    0    0  501 -0.00000000000E+00  0.00000000000E+00  0.10428857588E+04  0.10428857589E+04  0.50400000000E-02 0. -1.
          1   -1    0    0  501    0  0.00000000000E+00 -0.00000000000E+00 -0.27736619555E+02  0.27736620013E+02  0.50400000000E-02 0.  1.
    5000001    1    1    2    0    0  0.47170152775E+02  0.12463865700E+03  0.73535438118E+03  0.75128881534E+03  0.77000000000E+02 0.  0.
   -5000001    1    1    2    0    0 -0.47170152775E+02 -0.12463865700E+03  0.27979475811E+03  0.31933356353E+03  0.77000000000E+02 0.  0.
<mgrwt>
<rscale>  0 0.34015365E+03</rscale>
<asrwt>0</asrwt>
<pdfrwt beam="1">  1        1 0.42671729E-02 0.34015365E+03</pdfrwt>
<pdfrwt beam="2">  1       -1 0.16044394E+00 0.34015365E+03</pdfrwt>
<totfact> 0.65677413E+02</totfact>
</mgrwt>
</event>
<event>
 4    1  0.3064919E-004  0.1793052E+03  0.7818608E-02  0.1168477E+00
         -1   -1    0    0    0  501 -0.00000000000E+00  0.00000000000E+00  0.22952193463E+02  0.22952194016E+02  0.50400000000E-02 0. -1.
          1   -1    0    0  501    0  0.00000000000E+00 -0.00000000000E+00 -0.35018843293E+03  0.35018843297E+03  0.50400000000E-02 0.  1.
    5000001    1    1    2    0    0 -0.39605234904E+02 -0.13645638894E+02 -0.12447391583E+03  0.15224169539E+03  0.77000000000E+02 0.  0.
   -5000001    1    1    2    0    0  0.39605234904E+02  0.13645638894E+02 -0.20276232364E+03  0.22089893160E+03  0.77000000000E+02 0.  0.
<mgrwt>
<rscale>  0 0.17930525E+03</rscale>
<asrwt>0</asrwt>
<pdfrwt beam="1">  1        1 0.53875140E-01 0.17930525E+03</pdfrwt>
<pdfrwt beam="2">  1       -1 0.35311070E-02 0.17930525E+03</pdfrwt>
<totfact> 0.20433824E+04</totfact>
</mgrwt>
</event>
<event>
 4    1  0.3064919E-004  0.2224075E+03  0.7818608E-02  0.1132101E+00
          1   -1    0    0  501    0  0.00000000000E+00  0.00000000000E+00  0.10486201849E+03  0.10486201861E+03  0.50400000000E-02 0. -1.
         -1   -1    0    0    0  501 -0.00000000000E+00 -0.00000000000E+00 -0.11792898426E+03  0.11792898436E+03  0.50400000000E-02 0.  1.
    5000001    1    1    2    0    0 -0.44739637561E+00  0.50115326679E+02 -0.69295537577E+02  0.11507657303E+03  0.77000000000E+02 0.  0.
   -5000001    1    1    2    0    0  0.44739637561E+00 -0.50115326679E+02  0.56228571811E+02  0.10771442995E+03  0.77000000000E+02 0.  0.
<mgrwt>
<rscale>  0 0.22240748E+03</rscale>
<asrwt>0</asrwt>
<pdfrwt beam="1">  1        1 0.16132618E-01 0.22240748E+03</pdfrwt>
<pdfrwt beam="2">  1       -1 0.18142921E-01 0.22240748E+03</pdfrwt>
<totfact> 0.78271536E+03</totfact>
</mgrwt>
</event>
<event>
 4    1  0.3064919E-004  0.2379482E+03  0.7818608E-02  0.1121167E+00
          1   -1    0    0  501    0  0.00000000000E+00  0.00000000000E+00  0.12428755720E+03  0.12428755730E+03  0.50400000000E-02 0.  1.
         -1   -1    0    0    0  501 -0.00000000000E+00 -0.00000000000E+00 -0.11388782339E+03  0.11388782350E+03  0.50400000000E-02 0. -1.
    5000001    1    1    2    0    0 -0.59602865093E+02 -0.45534355206E+02  0.56238350525E+02  0.12131624418E+03  0.77000000000E+02 0.  0.
   -5000001    1    1    2    0    0  0.59602865093E+02  0.45534355206E+02 -0.45838616711E+02  0.11685913663E+03  0.77000000000E+02 0.  0.
<mgrwt>
<rscale>  0 0.23794822E+03</rscale>
<asrwt>0</asrwt>
<pdfrwt beam="1">  1        1 0.19121162E-01 0.23794822E+03</pdfrwt>
<pdfrwt beam="2">  1       -1 0.17521204E-01 0.23794822E+03</pdfrwt>
<totfact> 0.66642725E+03</totfact>
</mgrwt>
</event>
<event>
 4    1  0.3064919E-004  0.2190134E+03  0.7818608E-02  0.1134621E+00
         -1   -1    0    0    0  501 -0.00000000000E+00  0.00000000000E+00  0.46222213041E+01  0.46222240519E+01  0.50400000000E-02 0.  1.
          1   -1    0    0  501    0  0.00000000000E+00 -0.00000000000E+00 -0.25943605134E+04  0.25943605134E+04  0.50400000000E-02 0. -1.
    5000001    1    1    2    0    0 -0.21026123855E+02 -0.74838466153E+02 -0.13476971185E+04  0.13521314349E+04  0.77000000000E+02 0.  0.
   -5000001    1    1    2    0    0  0.21026123855E+02  0.74838466153E+02 -0.12420411735E+04  0.12468513025E+04  0.77000000000E+02 0.  0.
<mgrwt>
<rscale>  0 0.21901335E+03</rscale>
<asrwt>0</asrwt>
<pdfrwt beam="1">  1        1 0.39913122E+00 0.21901335E+03</pdfrwt>
<pdfrwt beam="2">  1       -1 0.71111326E-03 0.21901335E+03</pdfrwt>
<totfact> 0.42223314E+03</totfact>
</mgrwt>
</event>
<event>
 4    1  0.3064919E-004  0.2438844E+03  0.7818608E-02  0.1117232E+00
          1   -1    0    0  501    0  0.00000000000E+00  0.00000000000E+00  0.40203752776E+02  0.40203753092E+02  0.50400000000E-02 0.  1.
         -1   -1    0    0    0  501 -0.00000000000E+00 -0.00000000000E+00 -0.36986359019E+03  0.36986359022E+03  0.50400000000E-02 0. -1.
    5000001    1    1    2    0    0 -0.91591973172E+02  0.23040256092E+02 -0.17252798928E+03  0.21122227637E+03  0.77000000000E+02 0.  0.
   -5000001    1    1    2    0    0  0.91591973172E+02 -0.23040256092E+02 -0.15713184813E+03  0.19884506694E+03  0.77000000000E+02 0.  0.
<mgrwt>
<rscale>  0 0.24388444E+03</rscale>
<asrwt>0</asrwt>
<pdfrwt beam="1">  1        1 0.61851930E-02 0.24388444E+03</pdfrwt>
<pdfrwt beam="2">  1       -1 0.56902089E-01 0.24388444E+03</pdfrwt>
<totfact> 0.39503396E+03</totfact>
</mgrwt>
</event>
<event>
 4    1  0.3064919E-004  0.2407079E+03  0.7818608E-02  0.1119322E+00
         -1   -1    0    0    0  501 -0.00000000000E+00  0.00000000000E+00  0.28784403046E+02  0.28784403487E+02  0.50400000000E-02 0. -1.
          1   -1    0    0  501    0  0.00000000000E+00 -0.00000000000E+00 -0.50322633984E+03  0.50322633987E+03  0.50400000000E-02 0.  1.
    5000001    1    1    2    0    0 -0.91966008800E+02 -0.30913192500E+01 -0.25804455804E+03  0.28457564365E+03  0.77000000000E+02 0.  0.
   -5000001    1    1    2    0    0  0.91966008800E+02  0.30913192500E+01 -0.21639737876E+03  0.24743509970E+03  0.77000000000E+02 0.  0.
<mgrwt>
<rscale>  0 0.24070787E+03</rscale>
<asrwt>0</asrwt>
<pdfrwt beam="1">  1        1 0.77419431E-01 0.24070787E+03</pdfrwt>
<pdfrwt beam="2">  1       -1 0.44283701E-02 0.24070787E+03</pdfrwt>
<totfact> 0.93414350E+03</totfact>
</mgrwt>
</event>
<event>
 4    1  0.3064919E-004  0.2108379E+03  0.7818608E-02  0.1140904E+00
         -1   -1    0    0    0  501 -0.00000000000E+00  0.00000000000E+00  0.98621498338E+03  0.98621498339E+03  0.50400000000E-02 0.  1.
          1   -1    0    0  501    0  0.00000000000E+00 -0.00000000000E+00 -0.11268493258E+02  0.11268494386E+02  0.50400000000E-02 0. -1.
    5000001    1    1    2    0    0  0.81428524438E+01  0.62947985876E+02  0.32665932799E+03  0.34156122663E+03  0.77000000000E+02 0.  0.
   -5000001    1    1    2    0    0 -0.81428524438E+01 -0.62947985876E+02  0.64828716213E+03  0.65592225115E+03  0.77000000000E+02 0.  0.
<mgrwt>
<rscale>  0 0.21083792E+03</rscale>
<asrwt>0</asrwt>
<pdfrwt beam="1">  1        1 0.17336138E-02 0.21083792E+03</pdfrwt>
<pdfrwt beam="2">  1       -1 0.15172544E+00 0.21083792E+03</pdfrwt>
<totfact> 0.26860689E+03</totfact>
</mgrwt>
</event>
<event>
 4    1  0.3064919E-004  0.2488956E+03  0.7818608E-02  0.1114005E+00
          1   -1    0    0  501    0  0.00000000000E+00  0.00000000000E+00  0.98747507036E+02  0.98747507165E+02  0.50400000000E-02 0.  1.
         -1   -1    0    0    0  501 -0.00000000000E+00 -0.00000000000E+00 -0.15683689757E+03  0.15683689765E+03  0.50400000000E-02 0. -1.
    5000001    1    1    2    0    0 -0.17170464125E+02 -0.96240386553E+02 -0.27912415548E+02  0.12753485713E+03  0.77000000000E+02 0.  0.
   -5000001    1    1    2    0    0  0.17170464125E+02  0.96240386553E+02 -0.30176974984E+02  0.12804954768E+03  0.77000000000E+02 0.  0.
<mgrwt>
<rscale>  0 0.24889558E+03</rscale>
<asrwt>0</asrwt>
<pdfrwt beam="1">  1        1 0.15191924E-01 0.24889558E+03</pdfrwt>
<pdfrwt beam="2">  1       -1 0.24128753E-01 0.24889558E+03</pdfrwt>
<totfact> 0.53479499E+03</totfact>
</mgrwt>
</event>
<event>
 4    1  0.3064919E-004  0.4414395E+03  0.7818608E-02  0.1030306E+00
          1   -1    0    0  501    0  0.00000000000E+00  0.00000000000E+00  0.73467140927E+03  0.73467140929E+03  0.50400000000E-02 0.  1.
         -1   -1    0    0    0  501 -0.00000000000E+00 -0.00000000000E+00 -0.66311574550E+02  0.66311574741E+02  0.50400000000E-02 0. -1.
    5000001    1    1    2    0    0 -0.10882649990E+02 -0.11552485758E+03  0.64489485222E+03  0.65975964958E+03  0.77000000000E+02 0.  0.
   -5000001    1    1    2    0    0  0.10882649990E+02  0.11552485758E+03  0.23464982501E+02  0.14122333445E+03  0.77000000000E+02 0.  0.
<mgrwt>
<rscale>  0 0.44143955E+03</rscale>
<asrwt>0</asrwt>
<pdfrwt beam="1">  1        1 0.11302638E+00 0.44143955E+03</pdfrwt>
<pdfrwt beam="2">  1       -1 0.10201780E-01 0.44143955E+03</pdfrwt>
<totfact> 0.15526517E+03</totfact>
</mgrwt>
</event>
<event>
 4    1  0.3064919E-004  0.2162998E+03  0.7818608E-02  0.1136672E+00
         -1   -1    0    0    0  501 -0.00000000000E+00  0.00000000000E+00  0.16689349371E+02  0.16689350132E+02  0.50400000000E-02 0. -1.
          1   -1    0    0  501    0  0.00000000000E+00 -0.00000000000E+00 -0.70082999841E+03  0.70082999843E+03  0.50400000000E-02 0.  1.
    5000001    1    1    2    0    0 -0.63469347727E+02  0.33723316888E+02 -0.42344612630E+03  0.43634990785E+03  0.77000000000E+02 0.  0.
   -5000001    1    1    2    0    0  0.63469347727E+02 -0.33723316888E+02 -0.26069452275E+03  0.28116944072E+03  0.77000000000E+02 0.  0.
<mgrwt>
<rscale>  0 0.21629976E+03</rscale>
<asrwt>0</asrwt>
<pdfrwt beam="1">  1        1 0.10781998E+00 0.21629976E+03</pdfrwt>
<pdfrwt beam="2">  1       -1 0.25675928E-02 0.21629976E+03</pdfrwt>
<totfact> 0.13141516E+04</totfact>
</mgrwt>
</event>
<event>
 4    1  0.3064919E-004  0.3849848E+03  0.7818608E-02  0.1049107E+00
         -1   -1    0    0    0  501 -0.00000000000E+00  0.00000000000E+00  0.29493191570E+02  0.29493192001E+02  0.50400000000E-02 0. -1.
          1   -1    0    0  501    0  0.00000000000E+00 -0.00000000000E+00 -0.12563346576E+04  0.12563346576E+04  0.50400000000E-02 0.  1.
    5000001    1    1    2    0    0 -0.10384444170E+03 -0.48128283247E+02 -0.10618239405E+04  0.10707469731E+04  0.77000000000E+02 0.  0.
   -5000001    1    1    2    0    0  0.10384444170E+03  0.48128283247E+02 -0.16501752551E+03  0.21508087652E+03  0.77000000000E+02 0.  0.
<mgrwt>
<rscale>  0 0.38498477E+03</rscale>
<asrwt>0</asrwt>
<pdfrwt beam="1">  1        1 0.19328221E+00 0.38498477E+03</pdfrwt>
<pdfrwt beam="2">  1       -1 0.45374151E-02 0.38498477E+03</pdfrwt>
<totfact> 0.21301652E+03</totfact>
</mgrwt>
</event>
<event>
 4    1  0.3064919E-004  0.1812843E+03  0.7818608E-02  0.1166566E+00
         -1   -1    0    0    0  501 -0.00000000000E+00  0.00000000000E+00  0.88301128248E+01  0.88301142631E+01  0.50400000000E-02 0.  1.
          1   -1    0    0  501    0  0.00000000000E+00 -0.00000000000E+00 -0.93045255130E+03  0.93045255131E+03  0.50400000000E-02 0. -1.
    5000001    1    1    2    0    0  0.21885071082E+02  0.29265143800E+02 -0.30097966675E+03  0.31281490497E+03  0.77000000000E+02 0.  0.
   -5000001    1    1    2    0    0 -0.21885071082E+02 -0.29265143800E+02 -0.62064277173E+03  0.62646776060E+03  0.77000000000E+02 0.  0.
<mgrwt>
<rscale>  0 0.18128433E+03</rscale>
<asrwt>0</asrwt>
<pdfrwt beam="1">  1        1 0.14314647E+00 0.18128433E+03</pdfrwt>
<pdfrwt beam="2">  1       -1 0.13584797E-02 0.18128433E+03</pdfrwt>
<totfact> 0.21202797E+04</totfact>
</mgrwt>
</event>
<event>
 4    1  0.3064919E-004  0.1926549E+03  0.7818608E-02  0.1156088E+00
          1   -1    0    0  501    0  0.00000000000E+00  0.00000000000E+00  0.15526046622E+03  0.15526046631E+03  0.50400000000E-02 0.  1.
         -1   -1    0    0    0  501 -0.00000000000E+00 -0.00000000000E+00 -0.59763954381E+02  0.59763954594E+02  0.50400000000E-02 0. -1.
    5000001    1    1    2    0    0  0.93667235861E+01  0.56652925256E+02  0.55849874444E+02  0.11111029622E+03  0.77000000000E+02 0.  0.
   -5000001    1    1    2    0    0 -0.93667235861E+01 -0.56652925256E+02  0.39646637398E+02  0.10391412468E+03  0.77000000000E+02 0.  0.
<mgrwt>
<rscale>  0 0.19265492E+03</rscale>
<asrwt>0</asrwt>
<pdfrwt beam="1">  1        1 0.23886226E-01 0.19265492E+03</pdfrwt>
<pdfrwt beam="2">  1       -1 0.91944545E-02 0.19265492E+03</pdfrwt>
<totfact> 0.13571220E+04</totfact>
</mgrwt>
</event>
<event>
 4    1  0.3064919E-004  0.3111351E+03  0.7818608E-02  0.1079803E+00
          1   -1    0    0  501    0  0.00000000000E+00  0.00000000000E+00  0.13724019492E+03  0.13724019501E+03  0.50400000000E-02 0.  1.
         -1   -1    0    0    0  501 -0.00000000000E+00 -0.00000000000E+00 -0.17634235666E+03  0.17634235673E+03  0.50400000000E-02 0. -1.
    5000001    1    1    2    0    0  0.82241806380E+02  0.10622537285E+03 -0.44426689204E+01  0.15490733314E+03  0.77000000000E+02 0.  0.
   -5000001    1    1    2    0    0 -0.82241806380E+02 -0.10622537285E+03 -0.34659492817E+02  0.15867521860E+03  0.77000000000E+02 0.  0.
<mgrwt>
<rscale>  0 0.31113508E+03</rscale>
<asrwt>0</asrwt>
<pdfrwt beam="1">  1        1 0.21113876E-01 0.31113508E+03</pdfrwt>
<pdfrwt beam="2">  1       -1 0.27129593E-01 0.31113508E+03</pdfrwt>
<totfact> 0.28866641E+03</totfact>
</mgrwt>
</event>
<event>
 4    1  0.3064919E-004  0.2728775E+03  0.7818608E-02  0.1099644E+00
         -1   -1    0    0    0  501 -0.00000000000E+00  0.00000000000E+00  0.84458788784E+02  0.84458788934E+02  0.50400000000E-02 0. -1.
          1   -1    0    0  501    0  0.00000000000E+00 -0.00000000000E+00 -0.22040964694E+03  0.22040964699E+03  0.50400000000E-02 0.  1.
    5000001    1    1    2    0    0  0.11020098616E+03  0.64590980939E+01 -0.42979432894E+02  0.14128768152E+03  0.77000000000E+02 0.  0.
   -5000001    1    1    2    0    0 -0.11020098616E+03 -0.64590980939E+01 -0.92971425258E+02  0.16358075441E+03  0.77000000000E+02 0.  0.
<mgrwt>
<rscale>  0 0.27287750E+03</rscale>
<asrwt>0</asrwt>
<pdfrwt beam="1">  1        1 0.33909176E-01 0.27287750E+03</pdfrwt>
<pdfrwt beam="2">  1       -1 0.12993660E-01 0.27287750E+03</pdfrwt>
<totfact> 0.51973556E+03</totfact>
</mgrwt>
</event>
<event>
 4    1  0.3064919E-004  0.2029261E+03  0.7818608E-02  0.1147294E+00
          1   -1    0    0  501    0  0.00000000000E+00  0.00000000000E+00  0.77950659780E+02  0.77950659943E+02  0.50400000000E-02 0. -1.
         -1   -1    0    0    0  501 -0.00000000000E+00 -0.00000000000E+00 -0.13206748157E+03  0.13206748167E+03  0.50400000000E-02 0.  1.
    5000001    1    1    2    0    0  0.65606451911E+02 -0.77634601853E+01 -0.25892309978E+02  0.10470859355E+03  0.77000000000E+02 0.  0.
   -5000001    1    1    2    0    0 -0.65606451911E+02  0.77634601853E+01 -0.28224511813E+02  0.10530954806E+03  0.77000000000E+02 0.  0.
<mgrwt>
<rscale>  0 0.20292607E+03</rscale>
<asrwt>0</asrwt>
<pdfrwt beam="1">  1        1 0.11992409E-01 0.20292607E+03</pdfrwt>
<pdfrwt beam="2">  1       -1 0.20318074E-01 0.20292607E+03</pdfrwt>
<totfact> 0.95718243E+03</totfact>
</mgrwt>
</event>
<event>
 4    1  0.3064919E-004  0.2151231E+03  0.7818608E-02  0.1137572E+00
         -1   -1    0    0    0  501 -0.00000000000E+00  0.00000000000E+00  0.25524062378E+03  0.25524062383E+03  0.50400000000E-02 0. -1.
          1   -1    0    0  501    0  0.00000000000E+00 -0.00000000000E+00 -0.45327751463E+02  0.45327751743E+02  0.50400000000E-02 0.  1.
    5000001    1    1    2    0    0  0.43094265325E+02  0.45892476606E+02  0.16217737858E+03  0.19024651702E+03  0.77000000000E+02 0.  0.
   -5000001    1    1    2    0    0 -0.43094265325E+02 -0.45892476606E+02  0.47735493733E+02  0.11032185855E+03  0.77000000000E+02 0.  0.
<mgrwt>
<rscale>  0 0.21512307E+03</rscale>
<asrwt>0</asrwt>
<pdfrwt beam="1">  1        1 0.69735003E-02 0.21512307E+03</pdfrwt>
<pdfrwt beam="2">  1       -1 0.39267788E-01 0.21512307E+03</pdfrwt>
<totfact> 0.65608453E+03</totfact>
</mgrwt>
</event>
<event>
 4    1  0.3064919E-004  0.2056678E+03  0.7818608E-02  0.1145043E+00
         -1   -1    0    0    0  501 -0.00000000000E+00  0.00000000000E+00  0.17434156141E+02  0.17434156869E+02  0.50400000000E-02 0. -1.
          1   -1    0    0  501    0  0.00000000000E+00 -0.00000000000E+00 -0.60655727521E+03  0.60655727523E+03  0.50400000000E-02 0.  1.
    5000001    1    1    2    0    0  0.64611966446E+02  0.14018026012E+02 -0.34483806253E+03  0.35946279450E+03  0.77000000000E+02 0.  0.
   -5000001    1    1    2    0    0 -0.64611966446E+02 -0.14018026012E+02 -0.24428505654E+03  0.26452863760E+03  0.77000000000E+02 0.  0.
<mgrwt>
<rscale>  0 0.20566783E+03</rscale>
<asrwt>0</asrwt>
<pdfrwt beam="1">  1        1 0.93316488E-01 0.20566783E+03</pdfrwt>
<pdfrwt beam="2">  1       -1 0.26821784E-02 0.20566783E+03</pdfrwt>
<totfact> 0.15081685E+04</totfact>
</mgrwt>
</event>
<event>
 4    1  0.3064919E-004  0.1794747E+03  0.7818608E-02  0.1168312E+00
         -1   -1    0    0    0  501 -0.00000000000E+00  0.00000000000E+00  0.55931271514E+03  0.55931271517E+03  0.50400000000E-02 0.  1.
          1   -1    0    0  501    0  0.00000000000E+00 -0.00000000000E+00 -0.14397662252E+02  0.14397663134E+02  0.50400000000E-02 0. -1.
    5000001    1    1    2    0    0 -0.40206417103E+02  0.53125030492E+01  0.34241995924E+03  0.35330610970E+03  0.77000000000E+02 0.  0.
   -5000001    1    1    2    0    0  0.40206417103E+02 -0.53125030492E+01  0.20249509365E+03  0.22040426860E+03  0.77000000000E+02 0.  0.
<mgrwt>
<rscale>  0 0.17947474E+03</rscale>
<asrwt>0</asrwt>
<pdfrwt beam="1">  1        1 0.22150250E-02 0.17947474E+03</pdfrwt>
<pdfrwt beam="2">  1       -1 0.86048111E-01 0.17947474E+03</pdfrwt>
<totfact> 0.71001947E+03</totfact>
</mgrwt>
</event>
<event>
 4    1  0.3064919E-004  0.1715771E+03  0.7818608E-02  0.1176213E+00
          1   -1    0    0  501    0  0.00000000000E+00  0.00000000000E+00  0.13299228333E+03  0.13299228343E+03  0.50400000000E-02 0.  1.
         -1   -1    0    0    0  501 -0.00000000000E+00 -0.00000000000E+00 -0.55339096681E+02  0.55339096911E+02  0.50400000000E-02 0. -1.
    5000001    1    1    2    0    0  0.26237706980E+02  0.17807843008E+02  0.61458833383E+02  0.10349746249E+03  0.77000000000E+02 0.  0.
   -5000001    1    1    2    0    0 -0.26237706980E+02 -0.17807843008E+02  0.16194353266E+02  0.84833917851E+02  0.77000000000E+02 0.  0.
<mgrwt>
<rscale>  0 0.17157707E+03</rscale>
<asrwt>0</asrwt>
<pdfrwt beam="1">  1        1 0.20460351E-01 0.17157707E+03</pdfrwt>
<pdfrwt beam="2">  1       -1 0.85137073E-02 0.17157707E+03</pdfrwt>
<totfact> 0.18411408E+04</totfact>
</mgrwt>
</event>
<event>
 4    1  0.3064919E-004  0.2610932E+03  0.7818608E-02  0.1106488E+00
         -1   -1    0    0    0  501 -0.00000000000E+00  0.00000000000E+00  0.17320087071E+02  0.17320087804E+02  0.50400000000E-02 0.  1.
          1   -1    0    0  501    0  0.00000000000E+00 -0.00000000000E+00 -0.98396848031E+03  0.98396848032E+03  0.50400000000E-02 0. -1.
    5000001    1    1    2    0    0  0.15651318740E+01  0.10540055434E+03 -0.47833335890E+03  0.49582610735E+03  0.77000000000E+02 0.  0.
   -5000001    1    1    2    0    0 -0.15651318740E+01 -0.10540055434E+03 -0.48831503434E+03  0.50546246078E+03  0.77000000000E+02 0.  0.
<mgrwt>
<rscale>  0 0.26109324E+03</rscale>
<asrwt>0</asrwt>
<pdfrwt beam="1">  1        1 0.15137972E+00 0.26109324E+03</pdfrwt>
<pdfrwt beam="2">  1       -1 0.26646296E-02 0.26109324E+03</pdfrwt>
<totfact> 0.73713841E+03</totfact>
</mgrwt>
</event>
<event>
 4    1  0.3064919E-004  0.1920744E+03  0.7818608E-02  0.1156604E+00
         -1   -1    0    0    0  501 -0.00000000000E+00  0.00000000000E+00  0.10111842615E+04  0.10111842616E+04  0.50400000000E-02 0.  1.
          1   -1    0    0  501    0  0.00000000000E+00 -0.00000000000E+00 -0.91211259570E+01  0.91211273495E+01  0.50400000000E-02 0. -1.
    5000001    1    1    2    0    0 -0.22013372171E+01 -0.34446598852E+02  0.25744569368E+03  0.27092194310E+03  0.77000000000E+02 0.  0.
   -5000001    1    1    2    0    0  0.22013372171E+01  0.34446598852E+02  0.74461744190E+03  0.74938344580E+03  0.77000000000E+02 0.  0.
<mgrwt>
<rscale>  0 0.19207436E+03</rscale>
<asrwt>0</asrwt>
<pdfrwt beam="1">  1        1 0.14032502E-02 0.19207436E+03</pdfrwt>
<pdfrwt beam="2">  1       -1 0.15556682E+00 0.19207436E+03</pdfrwt>
<totfact> 0.33727676E+03</totfact>
</mgrwt>
</event>
<event>
 4    1  0.3064919E-004  0.2769038E+03  0.7818608E-02  0.1097392E+00
          1   -1    0    0  501    0  0.00000000000E+00  0.00000000000E+00  0.24038686213E+02  0.24038686741E+02  0.50400000000E-02 0.  1.
         -1   -1    0    0    0  501 -0.00000000000E+00 -0.00000000000E+00 -0.79742014522E+03  0.79742014523E+03  0.50400000000E-02 0. -1.
    5000001    1    1    2    0    0 -0.10578682527E+03  0.83439920594E+01 -0.25470407687E+03  0.28646752238E+03  0.77000000000E+02 0.  0.
   -5000001    1    1    2    0    0  0.10578682527E+03 -0.83439920594E+01 -0.51867738214E+03  0.53499130960E+03  0.77000000000E+02 0.  0.
<mgrwt>
<rscale>  0 0.27690383E+03</rscale>
<asrwt>0</asrwt>
<pdfrwt beam="1">  1        1 0.36982601E-02 0.27690383E+03</pdfrwt>
<pdfrwt beam="2">  1       -1 0.12268000E+00 0.27690383E+03</pdfrwt>
<totfact> 0.15913840E+03</totfact>
</mgrwt>
</event>
<event>
 4    1  0.3064919E-004  0.3657956E+03  0.7818608E-02  0.1056312E+00
         -1   -1    0    0    0  501 -0.00000000000E+00  0.00000000000E+00  0.14114818158E+02  0.14114819058E+02  0.50400000000E-02 0. -1.
          1   -1    0    0  501    0  0.00000000000E+00 -0.00000000000E+00 -0.23699634549E+04  0.23699634549E+04  0.50400000000E-02 0.  1.
    5000001    1    1    2    0    0  0.99397796595E+02  0.64630021911E+02 -0.42162174082E+03  0.44469186414E+03  0.77000000000E+02 0.  0.
   -5000001    1    1    2    0    0 -0.99397796595E+02 -0.64630021911E+02 -0.19342268959E+04  0.19393864098E+04  0.77000000000E+02 0.  0.
<mgrwt>
<rscale>  0 0.36579559E+03</rscale>
<asrwt>0</asrwt>
<pdfrwt beam="1">  1        1 0.36460945E+00 0.36579559E+03</pdfrwt>
<pdfrwt beam="2">  1       -1 0.21715124E-02 0.36579559E+03</pdfrwt>
<totfact> 0.11647807E+03</totfact>
</mgrwt>
</event>
<event>
 4    1  0.3064919E-004  0.2037655E+03  0.7818608E-02  0.1146600E+00
         -1   -1    0    0    0  501 -0.00000000000E+00  0.00000000000E+00  0.81612322573E+03  0.81612322575E+03  0.50400000000E-02 0. -1.
          1   -1    0    0  501    0  0.00000000000E+00 -0.00000000000E+00 -0.12718786024E+02  0.12718787022E+02  0.50400000000E-02 0.  1.
    5000001    1    1    2    0    0 -0.22369602512E+02 -0.51051377746E+02  0.25255534499E+03  0.26985152319E+03  0.77000000000E+02 0.  0.
   -5000001    1    1    2    0    0  0.22369602512E+02  0.51051377746E+02  0.55084909472E+03  0.55899048958E+03  0.77000000000E+02 0.  0.
<mgrwt>
<rscale>  0 0.20376552E+03</rscale>
<asrwt>0</asrwt>
<pdfrwt beam="1">  1        1 0.19567359E-02 0.20376552E+03</pdfrwt>
<pdfrwt beam="2">  1       -1 0.12555745E+00 0.20376552E+03</pdfrwt>
<totfact> 0.36408179E+03</totfact>
</mgrwt>
</event>
<event>
 4    1  0.3064919E-004  0.1870121E+03  0.7818608E-02  0.1161184E+00
         -1   -1    0    0    0  501 -0.00000000000E+00  0.00000000000E+00  0.59696324528E+01  0.59696345804E+01  0.50400000000E-02 0. -1.
          1   -1    0    0  501    0  0.00000000000E+00 -0.00000000000E+00 -0.14646434538E+04  0.14646434538E+04  0.50400000000E-02 0.  1.
    5000001    1    1    2    0    0 -0.52826219807E+02  0.29617672381E+01 -0.75979615627E+03  0.76551850444E+03  0.77000000000E+02 0.  0.
   -5000001    1    1    2    0    0  0.52826219807E+02 -0.29617672381E+01 -0.69887766509E+03  0.70509458396E+03  0.77000000000E+02 0.  0.
<mgrwt>
<rscale>  0 0.18701214E+03</rscale>
<asrwt>0</asrwt>
<pdfrwt beam="1">  1        1 0.22532948E+00 0.18701214E+03</pdfrwt>
<pdfrwt beam="2">  1       -1 0.91840632E-03 0.18701214E+03</pdfrwt>
<totfact> 0.15802424E+04</totfact>
</mgrwt>
</event>
<event>
 4    1  0.3064919E-004  0.1783121E+03  0.7818608E-02  0.1169447E+00
          1   -1    0    0  501    0  0.00000000000E+00  0.00000000000E+00  0.92517577957E+03  0.92517577958E+03  0.50400000000E-02 0. -1.
         -1   -1    0    0    0  501 -0.00000000000E+00 -0.00000000000E+00 -0.85916671547E+01  0.85916686330E+01  0.50400000000E-02 0.  1.
    5000001    1    1    2    0    0 -0.13751812225E+02 -0.42322754504E+02  0.42539024178E+03  0.43458737405E+03  0.77000000000E+02 0.  0.
   -5000001    1    1    2    0    0  0.13751812225E+02  0.42322754504E+02  0.49119387064E+03  0.49918007416E+03  0.77000000000E+02 0.  0.
<mgrwt>
<rscale>  0 0.17831212E+03</rscale>
<asrwt>0</asrwt>
<pdfrwt beam="1">  1        1 0.14233476E+00 0.17831212E+03</pdfrwt>
<pdfrwt beam="2">  1       -1 0.13217948E-02 0.17831212E+03</pdfrwt>
<totfact> 0.22236178E+04</totfact>
</mgrwt>
</event>
<event>
 4    1  0.3064919E-004  0.2009437E+03  0.7818608E-02  0.1148945E+00
          1   -1    0    0  501    0  0.00000000000E+00  0.00000000000E+00  0.44422177035E+02  0.44422177321E+02  0.50400000000E-02 0.  1.
         -1   -1    0    0    0  501 -0.00000000000E+00 -0.00000000000E+00 -0.22724217958E+03  0.22724217963E+03  0.50400000000E-02 0. -1.
    5000001    1    1    2    0    0  0.51995788149E+02 -0.35580851713E+02 -0.72481192207E+02  0.12309379439E+03  0.77000000000E+02 0.  0.
   -5000001    1    1    2    0    0 -0.51995788149E+02  0.35580851713E+02 -0.11033881033E+03  0.14857056256E+03  0.77000000000E+02 0.  0.
<mgrwt>
<rscale>  0 0.20094370E+03</rscale>
<asrwt>0</asrwt>
<pdfrwt beam="1">  1        1 0.68341812E-02 0.20094370E+03</pdfrwt>
<pdfrwt beam="2">  1       -1 0.34960335E-01 0.20094370E+03</pdfrwt>
<totfact> 0.82268392E+03</totfact>
</mgrwt>
</event>
<event>
 4    1  0.3064919E-004  0.2399535E+03  0.7818608E-02  0.1119824E+00
          1   -1    0    0  501    0  0.00000000000E+00  0.00000000000E+00  0.10922437245E+03  0.10922437257E+03  0.50400000000E-02 0.  1.
         -1   -1    0    0    0  501 -0.00000000000E+00 -0.00000000000E+00 -0.13178764026E+03  0.13178764036E+03  0.50400000000E-02 0. -1.
    5000001    1    1    2    0    0  0.44462264189E+02  0.79302982933E+02  0.29074764547E+01  0.11917763825E+03  0.77000000000E+02 0.  0.
   -5000001    1    1    2    0    0 -0.44462264189E+02 -0.79302982933E+02 -0.25470744266E+02  0.12183437468E+03  0.77000000000E+02 0.  0.
<mgrwt>
<rscale>  0 0.23995351E+03</rscale>
<asrwt>0</asrwt>
<pdfrwt beam="1">  1        1 0.16803750E-01 0.23995351E+03</pdfrwt>
<pdfrwt beam="2">  1       -1 0.20275022E-01 0.23995351E+03</pdfrwt>
<totfact> 0.62268607E+03</totfact>
</mgrwt>
</event>
<event>
 4    1  0.3064919E-004  0.2301007E+03  0.7818608E-02  0.1126569E+00
         -1   -1    0    0    0  501 -0.00000000000E+00  0.00000000000E+00  0.14064163268E+03  0.14064163278E+03  0.50400000000E-02 0. -1.
          1   -1    0    0  501    0  0.00000000000E+00 -0.00000000000E+00 -0.94115674148E+02  0.94115674283E+02  0.50400000000E-02 0.  1.
    5000001    1    1    2    0    0 -0.48233679716E+02 -0.26609970832E+02  0.89954071263E+02  0.13059599283E+03  0.77000000000E+02 0.  0.
   -5000001    1    1    2    0    0  0.48233679716E+02  0.26609970832E+02 -0.43428112726E+02  0.10416131423E+03  0.77000000000E+02 0.  0.
<mgrwt>
<rscale>  0 0.23010069E+03</rscale>
<asrwt>0</asrwt>
<pdfrwt beam="1">  1        1 0.14479335E-01 0.23010069E+03</pdfrwt>
<pdfrwt beam="2">  1       -1 0.21637174E-01 0.23010069E+03</pdfrwt>
<totfact> 0.67894824E+03</totfact>
</mgrwt>
</event>
<event>
 4    1  0.3064919E-004  0.2016165E+03  0.7818608E-02  0.1148382E+00
         -1   -1    0    0    0  501 -0.00000000000E+00  0.00000000000E+00  0.46430202870E+03  0.46430202873E+03  0.50400000000E-02 0. -1.
          1   -1    0    0  501    0  0.00000000000E+00 -0.00000000000E+00 -0.21887265570E+02  0.21887266151E+02  0.50400000000E-02 0.  1.
    5000001    1    1    2    0    0 -0.60634636090E+02 -0.58617162680E+01  0.16609185942E+03  0.19294150558E+03  0.77000000000E+02 0.  0.
   -5000001    1    1    2    0    0  0.60634636090E+02  0.58617162680E+01  0.27632290372E+03  0.29324778930E+03  0.77000000000E+02 0.  0.
<mgrwt>
<rscale>  0 0.20161649E+03</rscale>
<asrwt>0</asrwt>
<pdfrwt beam="1">  1        1 0.33672721E-02 0.20161649E+03</pdfrwt>
<pdfrwt beam="2">  1       -1 0.71431072E-01 0.20161649E+03</pdfrwt>
<totfact> 0.58340723E+03</totfact>
</mgrwt>
</event>
<event>
 4    1  0.3064919E-004  0.2724130E+03  0.7818608E-02  0.1099906E+00
         -1   -1    0    0    0  501 -0.00000000000E+00  0.00000000000E+00  0.71979330495E+03  0.71979330497E+03  0.50400000000E-02 0.  1.
          1   -1    0    0  501    0  0.00000000000E+00 -0.00000000000E+00 -0.25774356675E+02  0.25774357168E+02  0.50400000000E-02 0. -1.
    5000001    1    1    2    0    0  0.83573608001E+02 -0.24638972499E+02  0.54114792138E+03  0.55349950292E+03  0.77000000000E+02 0.  0.
   -5000001    1    1    2    0    0 -0.83573608001E+02  0.24638972499E+02  0.15287102689E+03  0.19206815921E+03  0.77000000000E+02 0.  0.
<mgrwt>
<rscale>  0 0.27241299E+03</rscale>
<asrwt>0</asrwt>
<pdfrwt beam="1">  1        1 0.39652860E-02 0.27241299E+03</pdfrwt>
<pdfrwt beam="2">  1       -1 0.11073742E+00 0.27241299E+03</pdfrwt>
<totfact> 0.18367898E+03</totfact>
</mgrwt>
</event>
<event>
 4    1  0.3064919E-004  0.3461805E+03  0.7818608E-02  0.1064194E+00
         -1   -1    0    0    0  501 -0.00000000000E+00  0.00000000000E+00  0.16560786764E+03  0.16560786772E+03  0.50400000000E-02 0.  1.
          1   -1    0    0  501    0  0.00000000000E+00 -0.00000000000E+00 -0.18091068002E+03  0.18091068009E+03  0.50400000000E-02 0. -1.
    5000001    1    1    2    0    0  0.32193524309E+01 -0.14851088111E+03 -0.52027372844E+02  0.17521898745E+03  0.77000000000E+02 0.  0.
   -5000001    1    1    2    0    0 -0.32193524309E+01  0.14851088111E+03  0.36724560466E+02  0.17129956036E+03  0.77000000000E+02 0.  0.
<mgrwt>
<rscale>  0 0.34618048E+03</rscale>
<asrwt>0</asrwt>
<pdfrwt beam="1">  1        1 0.27832412E-01 0.34618048E+03</pdfrwt>
<pdfrwt beam="2">  1       -1 0.25478133E-01 0.34618048E+03</pdfrwt>
<totfact> 0.22554611E+03</totfact>
</mgrwt>
</event>
<event>
 4    1  0.3064919E-004  0.1666309E+03  0.7818608E-02  0.1181407E+00
          1   -1    0    0  501    0  0.00000000000E+00  0.00000000000E+00  0.25043548688E+03  0.25043548693E+03  0.50400000000E-02 0. -1.
         -1   -1    0    0    0  501 -0.00000000000E+00 -0.00000000000E+00 -0.27717585271E+02  0.27717585729E+02  0.50400000000E-02 0.  1.
    5000001    1    1    2    0    0  0.23120548475E+02  0.17861962540E+02  0.13239829434E+03  0.15592279440E+03  0.77000000000E+02 0.  0.
   -5000001    1    1    2    0    0 -0.23120548475E+02 -0.17861962540E+02  0.90319607270E+02  0.12223027827E+03  0.77000000000E+02 0.  0.
<mgrwt>
<rscale>  0 0.16663093E+03</rscale>
<asrwt>0</asrwt>
<pdfrwt beam="1">  1        1 0.38528537E-01 0.16663093E+03</pdfrwt>
<pdfrwt beam="2">  1       -1 0.42642439E-02 0.16663093E+03</pdfrwt>
<totfact> 0.23355178E+04</totfact>
</mgrwt>
</event>
<event>
 4    1  0.3064919E-004  0.2102539E+03  0.7818608E-02  0.1141365E+00
         -1   -1    0    0    0  501 -0.00000000000E+00  0.00000000000E+00  0.76468515081E+01  0.76468531690E+01  0.50400000000E-02 0. -1.
          1   -1    0    0  501    0  0.00000000000E+00 -0.00000000000E+00 -0.14452585049E+04  0.14452585049E+04  0.50400000000E-02 0.  1.
    5000001    1    1    2    0    0  0.63993593394E+02 -0.30859331840E+01 -0.49832955583E+03  0.50829720557E+03  0.77000000000E+02 0.  0.
   -5000001    1    1    2    0    0 -0.63993593394E+02  0.30859331840E+01 -0.93928209754E+03  0.94460815248E+03  0.77000000000E+02 0.  0.
<mgrwt>
<rscale>  0 0.21025393E+03</rscale>
<asrwt>0</asrwt>
<pdfrwt beam="1">  1        1 0.22234725E+00 0.21025393E+03</pdfrwt>
<pdfrwt beam="2">  1       -1 0.11764400E-02 0.21025393E+03</pdfrwt>
<totfact> 0.11457804E+04</totfact>
</mgrwt>
</event>
<event>
 4    1  0.3064919E-004  0.2123438E+03  0.7818608E-02  0.1139723E+00
          1   -1    0    0  501    0  0.00000000000E+00  0.00000000000E+00  0.12240371113E+03  0.12240371123E+03  0.50400000000E-02 0.  1.
         -1   -1    0    0    0  501 -0.00000000000E+00 -0.00000000000E+00 -0.92092533638E+02  0.92092533776E+02  0.50400000000E-02 0. -1.
    5000001    1    1    2    0    0  0.66561116193E+02  0.24549188445E+02  0.32953014419E+02  0.10976313589E+03  0.77000000000E+02 0.  0.
   -5000001    1    1    2    0    0 -0.66561116193E+02 -0.24549188445E+02 -0.26418369290E+01  0.10473310911E+03  0.77000000000E+02 0.  0.
<mgrwt>
<rscale>  0 0.21234376E+03</rscale>
<asrwt>0</asrwt>
<pdfrwt beam="1">  1        1 0.18831340E-01 0.21234376E+03</pdfrwt>
<pdfrwt beam="2">  1       -1 0.14168082E-01 0.21234376E+03</pdfrwt>
<totfact> 0.94655502E+03</totfact>
</mgrwt>
</event>
<event>
 4    1  0.3064919E-004  0.2367206E+03  0.7818608E-02  0.1121997E+00
          1   -1    0    0  501    0  0.00000000000E+00  0.00000000000E+00  0.31957662271E+03  0.31957662275E+03  0.50400000000E-02 0.  1.
         -1   -1    0    0    0  501 -0.00000000000E+00 -0.00000000000E+00 -0.43836611074E+02  0.43836611364E+02  0.50400000000E-02 0. -1.
    5000001    1    1    2    0    0 -0.60007479295E+02 -0.29592873463E+01  0.24051620282E+03  0.25958948124E+03  0.77000000000E+02 0.  0.
   -5000001    1    1    2    0    0  0.60007479295E+02  0.29592873463E+01  0.35223808817E+02  0.10382375287E+03  0.77000000000E+02 0.  0.
<mgrwt>
<rscale>  0 0.23672056E+03</rscale>
<asrwt>0</asrwt>
<pdfrwt beam="1">  1        1 0.49165634E-01 0.23672056E+03</pdfrwt>
<pdfrwt beam="2">  1       -1 0.67440941E-02 0.23672056E+03</pdfrwt>
<totfact> 0.88964237E+03</totfact>
</mgrwt>
</event>
<event>
 4    1  0.3064919E-004  0.3265659E+03  0.7818608E-02  0.1072667E+00
         -1   -1    0    0    0  501 -0.00000000000E+00  0.00000000000E+00  0.52336124917E+03  0.52336124919E+03  0.50400000000E-02 0. -1.
          1   -1    0    0  501    0  0.00000000000E+00 -0.00000000000E+00 -0.50942476948E+02  0.50942477197E+02  0.50400000000E-02 0.  1.
    5000001    1    1    2    0    0  0.81759554353E+02  0.79785493614E+02  0.82072317617E+02  0.16035964280E+03  0.77000000000E+02 0.  0.
   -5000001    1    1    2    0    0 -0.81759554353E+02 -0.79785493614E+02  0.39034645460E+03  0.41394408359E+03  0.77000000000E+02 0.  0.
<mgrwt>
<rscale>  0 0.32656588E+03</rscale>
<asrwt>0</asrwt>
<pdfrwt beam="1">  1        1 0.78373043E-02 0.32656588E+03</pdfrwt>
<pdfrwt beam="2">  1       -1 0.80517114E-01 0.32656588E+03</pdfrwt>
<totfact> 0.14429314E+03</totfact>
</mgrwt>
</event>
<event>
 4    1  0.3064919E-004  0.2074056E+03  0.7818608E-02  0.1143637E+00
          1   -1    0    0  501    0  0.00000000000E+00  0.00000000000E+00  0.54833801773E+03  0.54833801775E+03  0.50400000000E-02 0.  1.
         -1   -1    0    0    0  501 -0.00000000000E+00 -0.00000000000E+00 -0.19612480927E+02  0.19612481575E+02  0.50400000000E-02 0. -1.
    5000001    1    1    2    0    0 -0.47247900312E+02  0.50790802306E+02  0.25441404169E+03  0.27471362232E+03  0.77000000000E+02 0.  0.
   -5000001    1    1    2    0    0  0.47247900312E+02 -0.50790802306E+02  0.27431149512E+03  0.29323687701E+03  0.77000000000E+02 0.  0.
<mgrwt>
<rscale>  0 0.20740558E+03</rscale>
<asrwt>0</asrwt>
<pdfrwt beam="1">  1        1 0.84359693E-01 0.20740558E+03</pdfrwt>
<pdfrwt beam="2">  1       -1 0.30173049E-02 0.20740558E+03</pdfrwt>
<totfact> 0.14571208E+04</totfact>
</mgrwt>
</event>
<event>
 4    1  0.3064919E-004  0.2578388E+03  0.7818608E-02  0.1108449E+00
          1   -1    0    0  501    0  0.00000000000E+00  0.00000000000E+00  0.63602552787E+02  0.63602552987E+02  0.50400000000E-02 0.  1.
         -1   -1    0    0    0  501 -0.00000000000E+00 -0.00000000000E+00 -0.26131363025E+03  0.26131363030E+03  0.50400000000E-02 0. -1.
    5000001    1    1    2    0    0  0.73928737482E+00 -0.95906864088E+02 -0.14753952808E+03  0.19208223622E+03  0.77000000000E+02 0.  0.
   -5000001    1    1    2    0    0 -0.73928737482E+00  0.95906864088E+02 -0.50171549377E+02  0.13283394706E+03  0.77000000000E+02 0.  0.
<mgrwt>
<rscale>  0 0.25783882E+03</rscale>
<asrwt>0</asrwt>
<pdfrwt beam="1">  1        1 0.97850083E-02 0.25783882E+03</pdfrwt>
<pdfrwt beam="2">  1       -1 0.40202096E-01 0.25783882E+03</pdfrwt>
<totfact> 0.40105875E+03</totfact>
</mgrwt>
</event>
<event>
 4    1  0.3064919E-004  0.1636209E+03  0.7818608E-02  0.1184668E+00
          1   -1    0    0  501    0  0.00000000000E+00  0.00000000000E+00  0.13173732950E+04  0.13173732950E+04  0.50400000000E-02 0.  1.
         -1   -1    0    0    0  501 -0.00000000000E+00 -0.00000000000E+00 -0.50805236451E+01  0.50805261450E+01  0.50400000000E-02 0. -1.
    5000001    1    1    2    0    0  0.14819559374E+02  0.23283496231E+02  0.66815442858E+03  0.67314268990E+03  0.77000000000E+02 0.  0.
   -5000001    1    1    2    0    0 -0.14819559374E+02 -0.23283496231E+02  0.64413834280E+03  0.64931113128E+03  0.77000000000E+02 0.  0.
<mgrwt>
<rscale>  0 0.16362088E+03</rscale>
<asrwt>0</asrwt>
<pdfrwt beam="1">  1        1 0.20267276E+00 0.16362088E+03</pdfrwt>
<pdfrwt beam="2">  1       -1 0.78161941E-03 0.16362088E+03</pdfrwt>
<totfact> 0.24732057E+04</totfact>
</mgrwt>
</event>
<event>
 4    1  0.3064919E-004  0.2303106E+03  0.7818608E-02  0.1126421E+00
          1   -1    0    0  501    0  0.00000000000E+00  0.00000000000E+00  0.73301538344E+02  0.73301538517E+02  0.50400000000E-02 0.  1.
         -1   -1    0    0    0  501 -0.00000000000E+00 -0.00000000000E+00 -0.18090681358E+03  0.18090681365E+03  0.50400000000E-02 0. -1.
    5000001    1    1    2    0    0  0.73367849138E+02  0.40739064521E+02 -0.35031036849E+02  0.11915824020E+03  0.77000000000E+02 0.  0.
   -5000001    1    1    2    0    0 -0.73367849138E+02 -0.40739064521E+02 -0.72574238390E+02  0.13505011197E+03  0.77000000000E+02 0.  0.
<mgrwt>
<rscale>  0 0.23031064E+03</rscale>
<asrwt>0</asrwt>
<pdfrwt beam="1">  1        1 0.11277160E-01 0.23031064E+03</pdfrwt>
<pdfrwt beam="2">  1       -1 0.27831817E-01 0.23031064E+03</pdfrwt>
<totfact> 0.62260708E+03</totfact>
</mgrwt>
</event>
<event>
 4    1  0.3064919E-004  0.2281903E+03  0.7818608E-02  0.1127920E+00
         -1   -1    0    0    0  501 -0.00000000000E+00  0.00000000000E+00  0.22078153936E+03  0.22078153942E+03  0.50400000000E-02 0. -1.
          1   -1    0    0  501    0  0.00000000000E+00 -0.00000000000E+00 -0.58961904947E+02  0.58961905162E+02  0.50400000000E-02 0.  1.
    5000001    1    1    2    0    0  0.54993489364E+02  0.20316336995E+02  0.68285980095E+01  0.97018901108E+02  0.77000000000E+02 0.  0.
   -5000001    1    1    2    0    0 -0.54993489364E+02 -0.20316336995E+02  0.15499103640E+03  0.18272454347E+03  0.77000000000E+02 0.  0.
<mgrwt>
<rscale>  0 0.22819027E+03</rscale>
<asrwt>0</asrwt>
<pdfrwt beam="1">  1        1 0.90710622E-02 0.22819027E+03</pdfrwt>
<pdfrwt beam="2">  1       -1 0.33966391E-01 0.22819027E+03</pdfrwt>
<totfact> 0.59342067E+03</totfact>
</mgrwt>
</event>
<event>
 4    1  0.3064919E-004  0.3504820E+03  0.7818608E-02  0.1062417E+00
          1   -1    0    0  501    0  0.00000000000E+00  0.00000000000E+00  0.14800711098E+03  0.14800711107E+03  0.50400000000E-02 0.  1.
         -1   -1    0    0    0  501 -0.00000000000E+00 -0.00000000000E+00 -0.20748604310E+03  0.20748604316E+03  0.50400000000E-02 0. -1.
    5000001    1    1    2    0    0 -0.13027483474E+01  0.15513617498E+03 -0.56794421768E+02  0.18227324621E+03  0.77000000000E+02 0.  0.
   -5000001    1    1    2    0    0  0.13027483474E+01 -0.15513617498E+03 -0.26845103459E+01  0.17321990802E+03  0.77000000000E+02 0.  0.
<mgrwt>
<rscale>  0 0.35048201E+03</rscale>
<asrwt>0</asrwt>
<pdfrwt beam="1">  1        1 0.22770325E-01 0.35048201E+03</pdfrwt>
<pdfrwt beam="2">  1       -1 0.31920930E-01 0.35048201E+03</pdfrwt>
<totfact> 0.19884209E+03</totfact>
</mgrwt>
</event>
<event>
 4    1  0.3064919E-004  0.2491391E+03  0.7818608E-02  0.1113850E+00
          1   -1    0    0  501    0  0.00000000000E+00  0.00000000000E+00  0.11272182993E+04  0.11272182993E+04  0.50400000000E-02 0. -1.
         -1   -1    0    0    0  501 -0.00000000000E+00 -0.00000000000E+00 -0.13766254606E+02  0.13766255528E+02  0.50400000000E-02 0.  1.
    5000001    1    1    2    0    0 -0.31653902020E+02 -0.53238609090E+02  0.20938431303E+03  0.23153209185E+03  0.77000000000E+02 0.  0.
   -5000001    1    1    2    0    0  0.31653902020E+02  0.53238609090E+02  0.90406773164E+03  0.90945246297E+03  0.77000000000E+02 0.  0.
<mgrwt>
<rscale>  0 0.24913911E+03</rscale>
<asrwt>0</asrwt>
<pdfrwt beam="1">  1        1 0.17341824E+00 0.24913911E+03</pdfrwt>
<pdfrwt beam="2">  1       -1 0.21178849E-02 0.24913911E+03</pdfrwt>
<totfact> 0.80985678E+03</totfact>
</mgrwt>
</event>
<event>
 4    1  0.3064919E-004  0.1987549E+03  0.7818608E-02  0.1150794E+00
          1   -1    0    0  501    0  0.00000000000E+00  0.00000000000E+00  0.38695089583E+03  0.38695089586E+03  0.50400000000E-02 0. -1.
         -1   -1    0    0    0  501 -0.00000000000E+00 -0.00000000000E+00 -0.25522312427E+02  0.25522312924E+02  0.50400000000E-02 0.  1.
    5000001    1    1    2    0    0  0.36128994397E+02 -0.38646454145E+02  0.11039827522E+03  0.14462237664E+03  0.77000000000E+02 0.  0.
   -5000001    1    1    2    0    0 -0.36128994397E+02  0.38646454145E+02  0.25103030818E+03  0.26785083215E+03  0.77000000000E+02 0.  0.
<mgrwt>
<rscale>  0 0.19875494E+03</rscale>
<asrwt>0</asrwt>
<pdfrwt beam="1">  1        1 0.59530901E-01 0.19875494E+03</pdfrwt>
<pdfrwt beam="2">  1       -1 0.39265100E-02 0.19875494E+03</pdfrwt>
<totfact> 0.15522485E+04</totfact>
</mgrwt>
</event>
<event>
 4    1  0.3064919E-004  0.3396482E+03  0.7818608E-02  0.1066946E+00
          1   -1    0    0  501    0  0.00000000000E+00  0.00000000000E+00  0.34004468086E+03  0.34004468089E+03  0.50400000000E-02 0. -1.
         -1   -1    0    0    0  501 -0.00000000000E+00 -0.00000000000E+00 -0.84813035484E+02  0.84813035634E+02  0.50400000000E-02 0.  1.
    5000001    1    1    2    0    0  0.10659946295E+03 -0.61025617664E+02  0.23825754511E+03  0.27889644909E+03  0.77000000000E+02 0.  0.
   -5000001    1    1    2    0    0 -0.10659946295E+03  0.61025617664E+02  0.16974100263E+02  0.14596126744E+03  0.77000000000E+02 0.  0.
<mgrwt>
<rscale>  0 0.33964818E+03</rscale>
<asrwt>0</asrwt>
<pdfrwt beam="1">  1        1 0.52314567E-01 0.33964818E+03</pdfrwt>
<pdfrwt beam="2">  1       -1 0.13048159E-01 0.33964818E+03</pdfrwt>
<totfact> 0.30037301E+03</totfact>
</mgrwt>
</event>
<event>
 4    1  0.3064919E-004  0.2186375E+03  0.7818608E-02  0.1134903E+00
          1   -1    0    0  501    0  0.00000000000E+00  0.00000000000E+00  0.10627152949E+04  0.10627152949E+04  0.50400000000E-02 0. -1.
         -1   -1    0    0    0  501 -0.00000000000E+00 -0.00000000000E+00 -0.11245329615E+02  0.11245330744E+02  0.50400000000E-02 0.  1.
    5000001    1    1    2    0    0  0.72671819291E+01 -0.77257173147E+02  0.52416885485E+03  0.53544698256E+03  0.77000000000E+02 0.  0.
   -5000001    1    1    2    0    0 -0.72671819291E+01  0.77257173147E+02  0.52730111040E+03  0.53851364307E+03  0.77000000000E+02 0.  0.
<mgrwt>
<rscale>  0 0.21863746E+03</rscale>
<asrwt>0</asrwt>
<pdfrwt beam="1">  1        1 0.16349471E+00 0.21863746E+03</pdfrwt>
<pdfrwt beam="2">  1       -1 0.17300502E-02 0.21863746E+03</pdfrwt>
<totfact> 0.12041983E+04</totfact>
</mgrwt>
</event>
<event>
 4    1  0.3064919E-004  0.3395235E+03  0.7818608E-02  0.1066999E+00
         -1   -1    0    0    0  501 -0.00000000000E+00  0.00000000000E+00  0.13888675538E+02  0.13888676453E+02  0.50400000000E-02 0.  1.
          1   -1    0    0  501    0  0.00000000000E+00 -0.00000000000E+00 -0.20750034480E+04  0.20750034480E+04  0.50400000000E-02 0. -1.
    5000001    1    1    2    0    0 -0.83824468098E+02 -0.84877782589E+02 -0.16030723628E+04  0.16093479362E+04  0.77000000000E+02 0.  0.
   -5000001    1    1    2    0    0  0.83824468098E+02  0.84877782589E+02 -0.45804240968E+03  0.47954418826E+03  0.77000000000E+02 0.  0.
<mgrwt>
<rscale>  0 0.33952349E+03</rscale>
<asrwt>0</asrwt>
<pdfrwt beam="1">  1        1 0.31923105E+00 0.33952349E+03</pdfrwt>
<pdfrwt beam="2">  1       -1 0.21367210E-02 0.33952349E+03</pdfrwt>
<totfact> 0.18694336E+03</totfact>
</mgrwt>
</event>
<event>
 4    1  0.3064919E-004  0.2327176E+03  0.7818608E-02  0.1124742E+00
         -1   -1    0    0    0  501 -0.00000000000E+00  0.00000000000E+00  0.35028769618E+02  0.35028769980E+02  0.50400000000E-02 0. -1.
          1   -1    0    0  501    0  0.00000000000E+00 -0.00000000000E+00 -0.38652132818E+03  0.38652132821E+03  0.50400000000E-02 0.  1.
    5000001    1    1    2    0    0 -0.63771609625E+02  0.14473028804E+02 -0.71151977470E+02  0.12356330626E+03  0.77000000000E+02 0.  0.
   -5000001    1    1    2    0    0  0.63771609625E+02 -0.14473028804E+02 -0.28034058109E+03  0.29798679193E+03  0.77000000000E+02 0.  0.
<mgrwt>
<rscale>  0 0.23271757E+03</rscale>
<asrwt>0</asrwt>
<pdfrwt beam="1">  1        1 0.59464817E-01 0.23271757E+03</pdfrwt>
<pdfrwt beam="2">  1       -1 0.53890418E-02 0.23271757E+03</pdfrwt>
<totfact> 0.97949479E+03</totfact>
</mgrwt>
</event>
<event>
 4    1  0.3064919E-004  0.2751498E+03  0.7818608E-02  0.1098368E+00
          1   -1    0    0  501    0  0.00000000000E+00  0.00000000000E+00  0.86370197543E+03  0.86370197545E+03  0.50400000000E-02 0. -1.
         -1   -1    0    0    0  501 -0.00000000000E+00 -0.00000000000E+00 -0.21913637492E+02  0.21913638072E+02  0.50400000000E-02 0.  1.
    5000001    1    1    2    0    0  0.76239290269E+02 -0.80227272957E+02  0.33280567808E+03  0.35907863216E+03  0.77000000000E+02 0.  0.
   -5000001    1    1    2    0    0 -0.76239290269E+02  0.80227272957E+02  0.50898265985E+03  0.52653698136E+03  0.77000000000E+02 0.  0.
<mgrwt>
<rscale>  0 0.27514979E+03</rscale>
<asrwt>0</asrwt>
<pdfrwt beam="1">  1        1 0.13287722E+00 0.27514979E+03</pdfrwt>
<pdfrwt beam="2">  1       -1 0.33713291E-02 0.27514979E+03</pdfrwt>
<totfact> 0.64679961E+03</totfact>
</mgrwt>
</event>
<event>
 4    1  0.3064919E-004  0.1927512E+03  0.7818608E-02  0.1156003E+00
         -1   -1    0    0    0  501 -0.00000000000E+00  0.00000000000E+00  0.47438390128E+02  0.47438390396E+02  0.50400000000E-02 0.  1.
          1   -1    0    0  501    0  0.00000000000E+00 -0.00000000000E+00 -0.19579609284E+03  0.19579609290E+03  0.50400000000E-02 0. -1.
    5000001    1    1    2    0    0  0.47114273683E+02  0.19950461202E+02 -0.10854071060E+03  0.14257580982E+03  0.77000000000E+02 0.  0.
   -5000001    1    1    2    0    0 -0.47114273683E+02 -0.19950461202E+02 -0.39816992109E+02  0.10065867348E+03  0.77000000000E+02 0.  0.
<mgrwt>
<rscale>  0 0.19275115E+03</rscale>
<asrwt>0</asrwt>
<pdfrwt beam="1">  1        1 0.30122475E-01 0.19275115E+03</pdfrwt>
<pdfrwt beam="2">  1       -1 0.72982140E-02 0.19275115E+03</pdfrwt>
<totfact> 0.14394633E+04</totfact>
</mgrwt>
</event>
<event>
 4    1  0.3064919E-004  0.1942494E+03  0.7818608E-02  0.1154684E+00
         -1   -1    0    0    0  501 -0.00000000000E+00  0.00000000000E+00  0.82778773405E+02  0.82778773559E+02  0.50400000000E-02 0. -1.
          1   -1    0    0  501    0  0.00000000000E+00 -0.00000000000E+00 -0.11395684148E+03  0.11395684159E+03  0.50400000000E-02 0.  1.
    5000001    1    1    2    0    0  0.84991015894E+01  0.44500858145E+02 -0.54177163691E+02  0.10448313820E+03  0.77000000000E+02 0.  0.
   -5000001    1    1    2    0    0 -0.84991015894E+01 -0.44500858145E+02  0.22999095616E+02  0.92252476946E+02  0.77000000000E+02 0.  0.
<mgrwt>
<rscale>  0 0.19424940E+03</rscale>
<asrwt>0</asrwt>
<pdfrwt beam="1">  1        1 0.17531822E-01 0.19424940E+03</pdfrwt>
<pdfrwt beam="2">  1       -1 0.12735196E-01 0.19424940E+03</pdfrwt>
<totfact> 0.12197625E+04</totfact>
</mgrwt>
</event>
<event>
 4    1  0.3064919E-004  0.7813759E+03  0.7818608E-02  0.9587373E-01
         -1   -1    0    0    0  501 -0.00000000000E+00  0.00000000000E+00  0.70965490855E+02  0.70965491034E+02  0.50400000000E-02 0. -1.
          1   -1    0    0  501    0  0.00000000000E+00 -0.00000000000E+00 -0.21508633718E+04  0.21508633718E+04  0.50400000000E-02 0.  1.
    5000001    1    1    2    0    0 -0.19839003143E+03 -0.19426086335E+03 -0.17901768761E+04  0.18132176194E+04  0.77000000000E+02 0.  0.
   -5000001    1    1    2    0    0  0.19839003143E+03  0.19426086335E+03 -0.28972100479E+03  0.40861124338E+03  0.77000000000E+02 0.  0.
<mgrwt>
<rscale>  0 0.78137590E+03</rscale>
<asrwt>0</asrwt>
<pdfrwt beam="1">  1        1 0.33090201E+00 0.78137590E+03</pdfrwt>
<pdfrwt beam="2">  1       -1 0.10917769E-01 0.78137590E+03</pdfrwt>
<totfact> 0.13305020E+02</totfact>
</mgrwt>
</event>
<event>
 4    1  0.3064919E-004  0.2762569E+03  0.7818608E-02  0.1097751E+00
          1   -1    0    0  501    0  0.00000000000E+00  0.00000000000E+00  0.20691726317E+03  0.20691726323E+03  0.50400000000E-02 0.  1.
         -1   -1    0    0    0  501 -0.00000000000E+00 -0.00000000000E+00 -0.92208228477E+02  0.92208228615E+02  0.50400000000E-02 0. -1.
    5000001    1    1    2    0    0  0.58234408342E+02  0.98567008697E+02  0.64518298973E+02  0.15230992227E+03  0.77000000000E+02 0.  0.
   -5000001    1    1    2    0    0 -0.58234408342E+02 -0.98567008697E+02  0.50190735716E+02  0.14681556958E+03  0.77000000000E+02 0.  0.
<mgrwt>
<rscale>  0 0.27625694E+03</rscale>
<asrwt>0</asrwt>
<pdfrwt beam="1">  1        1 0.31833425E-01 0.27625694E+03</pdfrwt>
<pdfrwt beam="2">  1       -1 0.14185881E-01 0.27625694E+03</pdfrwt>
<totfact> 0.49024974E+03</totfact>
</mgrwt>
</event>
<event>
 4    1  0.3064919E-004  0.2477923E+03  0.7818608E-02  0.1114708E+00
          1   -1    0    0  501    0  0.00000000000E+00  0.00000000000E+00  0.42054362385E+03  0.42054362388E+03  0.50400000000E-02 0.  1.
         -1   -1    0    0    0  501 -0.00000000000E+00 -0.00000000000E+00 -0.36500972593E+02  0.36500972941E+02  0.50400000000E-02 0. -1.
    5000001    1    1    2    0    0  0.47935013552E+02 -0.84355365395E+02  0.19712559526E+03  0.23281128302E+03  0.77000000000E+02 0.  0.
   -5000001    1    1    2    0    0 -0.47935013552E+02  0.84355365395E+02  0.18691705600E+03  0.22423331380E+03  0.77000000000E+02 0.  0.
<mgrwt>
<rscale>  0 0.24779226E+03</rscale>
<asrwt>0</asrwt>
<pdfrwt beam="1">  1        1 0.64699020E-01 0.24779226E+03</pdfrwt>
<pdfrwt beam="2">  1       -1 0.56155342E-02 0.24779226E+03</pdfrwt>
<totfact> 0.82889252E+03</totfact>
</mgrwt>
</event>
<event>
 4    1  0.3064919E-004  0.1882999E+03  0.7818608E-02  0.1160004E+00
          1   -1    0    0  501    0  0.00000000000E+00  0.00000000000E+00  0.50823580801E+02  0.50823581051E+02  0.50400000000E-02 0. -1.
         -1   -1    0    0    0  501 -0.00000000000E+00 -0.00000000000E+00 -0.17441147417E+03  0.17441147424E+03  0.50400000000E-02 0.  1.
    5000001    1    1    2    0    0 -0.70494700401E+01  0.27818731272E+02 -0.68277543673E+01  0.82457231745E+02  0.77000000000E+02 0.  0.
   -5000001    1    1    2    0    0  0.70494700401E+01 -0.27818731272E+02 -0.11676013900E+03  0.14277782355E+03  0.77000000000E+02 0.  0.
<mgrwt>
<rscale>  0 0.18829993E+03</rscale>
<asrwt>0</asrwt>
<pdfrwt beam="1">  1        1 0.78190126E-02 0.18829993E+03</pdfrwt>
<pdfrwt beam="2">  1       -1 0.26832534E-01 0.18829993E+03</pdfrwt>
<totfact> 0.10690368E+04</totfact>
</mgrwt>
</event>
<event>
 4    1  0.3064919E-004  0.1935928E+03  0.7818608E-02  0.1155260E+00
         -1   -1    0    0    0  501 -0.00000000000E+00  0.00000000000E+00  0.92709223582E+01  0.92709237282E+01  0.50400000000E-02 0. -1.
          1   -1    0    0  501    0  0.00000000000E+00 -0.00000000000E+00 -0.10106373048E+04  0.10106373048E+04  0.50400000000E-02 0.  1.
    5000001    1    1    2    0    0  0.15380788301E+01 -0.53619015389E+02 -0.37565898880E+03  0.38720284137E+03  0.77000000000E+02 0.  0.
   -5000001    1    1    2    0    0 -0.15380788301E+01  0.53619015389E+02 -0.62570739360E+03  0.63270538713E+03  0.77000000000E+02 0.  0.
<mgrwt>
<rscale>  0 0.19359278E+03</rscale>
<asrwt>0</asrwt>
<pdfrwt beam="1">  1        1 0.15548258E+00 0.19359278E+03</pdfrwt>
<pdfrwt beam="2">  1       -1 0.14262966E-02 0.19359278E+03</pdfrwt>
<totfact> 0.17279395E+04</totfact>
</mgrwt>
</event>
<event>
 4    1  0.3064919E-004  0.3939186E+03  0.7818608E-02  0.1045906E+00
          1   -1    0    0  501    0  0.00000000000E+00  0.00000000000E+00  0.69312282592E+03  0.69312282594E+03  0.50400000000E-02 0.  1.
         -1   -1    0    0    0  501 -0.00000000000E+00 -0.00000000000E+00 -0.55968374551E+02  0.55968374778E+02  0.50400000000E-02 0. -1.
    5000001    1    1    2    0    0 -0.23170079673E+02 -0.17979143347E+03  0.31579154604E+03  0.37217618501E+03  0.77000000000E+02 0.  0.
   -5000001    1    1    2    0    0  0.23170079673E+02  0.17979143347E+03  0.32136290533E+03  0.37691501571E+03  0.77000000000E+02 0.  0.
<mgrwt>
<rscale>  0 0.39391856E+03</rscale>
<asrwt>0</asrwt>
<pdfrwt beam="1">  1        1 0.10663428E+00 0.39391856E+03</pdfrwt>
<pdfrwt beam="2">  1       -1 0.86105197E-02 0.39391856E+03</pdfrwt>
<totfact> 0.22058338E+03</totfact>
</mgrwt>
</event>
<event>
 4    1  0.3064919E-004  0.3102057E+03  0.7818608E-02  0.1080247E+00
          1   -1    0    0  501    0  0.00000000000E+00  0.00000000000E+00  0.56448364703E+03  0.56448364706E+03  0.50400000000E-02 0. -1.
         -1   -1    0    0    0  501 -0.00000000000E+00 -0.00000000000E+00 -0.42617530202E+02  0.42617530500E+02  0.50400000000E-02 0.  1.
    5000001    1    1    2    0    0  0.10058557544E+03 -0.87273764485E+02  0.29976696428E+03  0.33693233865E+03  0.77000000000E+02 0.  0.
   -5000001    1    1    2    0    0 -0.10058557544E+03  0.87273764485E+02  0.22209915256E+03  0.27016883891E+03  0.77000000000E+02 0.  0.
<mgrwt>
<rscale>  0 0.31020573E+03</rscale>
<asrwt>0</asrwt>
<pdfrwt beam="1">  1        1 0.86843639E-01 0.31020573E+03</pdfrwt>
<pdfrwt beam="2">  1       -1 0.65565431E-02 0.31020573E+03</pdfrwt>
<totfact> 0.44715859E+03</totfact>
</mgrwt>
</event>
<event>
 4    1  0.3064919E-004  0.2250687E+03  0.7818608E-02  0.1130160E+00
          1   -1    0    0  501    0  0.00000000000E+00  0.00000000000E+00  0.41984442708E+03  0.41984442711E+03  0.50400000000E-02 0. -1.
         -1   -1    0    0    0  501 -0.00000000000E+00 -0.00000000000E+00 -0.30163498113E+02  0.30163498534E+02  0.50400000000E-02 0.  1.
    5000001    1    1    2    0    0 -0.39803905785E+02  0.16776846540E+02  0.33435911952E+03  0.34581907742E+03  0.77000000000E+02 0.  0.
   -5000001    1    1    2    0    0  0.39803905785E+02 -0.16776846540E+02  0.55321809446E+02  0.10418884823E+03  0.77000000000E+02 0.  0.
<mgrwt>
<rscale>  0 0.22506867E+03</rscale>
<asrwt>0</asrwt>
<pdfrwt beam="1">  1        1 0.64591454E-01 0.22506867E+03</pdfrwt>
<pdfrwt beam="2">  1       -1 0.46405380E-02 0.22506867E+03</pdfrwt>
<totfact> 0.10998092E+04</totfact>
</mgrwt>
</event>
<event>
 4    1  0.3064919E-004  0.3090523E+03  0.7818608E-02  0.1080801E+00
         -1   -1    0    0    0  501 -0.00000000000E+00  0.00000000000E+00  0.11711699022E+03  0.11711699032E+03  0.50400000000E-02 0. -1.
          1   -1    0    0  501    0  0.00000000000E+00 -0.00000000000E+00 -0.20388448052E+03  0.20388448058E+03  0.50400000000E-02 0.  1.
    5000001    1    1    2    0    0 -0.37676940583E+02  0.10906810531E+03  0.27321214582E+02  0.14138901023E+03  0.77000000000E+02 0.  0.
   -5000001    1    1    2    0    0  0.37676940583E+02 -0.10906810531E+03 -0.11408870488E+03  0.17961246067E+03  0.77000000000E+02 0.  0.
<mgrwt>
<rscale>  0 0.30905234E+03</rscale>
<asrwt>0</asrwt>
<pdfrwt beam="1">  1        1 0.31366843E-01 0.30905234E+03</pdfrwt>
<pdfrwt beam="2">  1       -1 0.18017999E-01 0.30905234E+03</pdfrwt>
<totfact> 0.34190339E+03</totfact>
</mgrwt>
</event>
<event>
 4    1  0.3064919E-004  0.2327853E+03  0.7818608E-02  0.1124695E+00
         -1   -1    0    0    0  501 -0.00000000000E+00  0.00000000000E+00  0.25193333875E+02  0.25193334379E+02  0.50400000000E-02 0. -1.
          1   -1    0    0  501    0  0.00000000000E+00 -0.00000000000E+00 -0.53773146069E+03  0.53773146072E+03  0.50400000000E-02 0.  1.
    5000001    1    1    2    0    0 -0.73154469409E+02 -0.47603680712E+02 -0.25445691656E+03  0.27981245361E+03  0.77000000000E+02 0.  0.
   -5000001    1    1    2    0    0  0.73154469409E+02  0.47603680712E+02 -0.25808121026E+03  0.28311234149E+03  0.77000000000E+02 0.  0.
<mgrwt>
<rscale>  0 0.23278529E+03</rscale>
<asrwt>0</asrwt>
<pdfrwt beam="1">  1        1 0.82727909E-01 0.23278529E+03</pdfrwt>
<pdfrwt beam="2">  1       -1 0.38758980E-02 0.23278529E+03</pdfrwt>
<totfact> 0.10405156E+04</totfact>
</mgrwt>
</event>
<event>
 4    1  0.3064919E-004  0.2716123E+03  0.7818608E-02  0.1100360E+00
         -1   -1    0    0    0  501 -0.00000000000E+00  0.00000000000E+00  0.83056745757E+02  0.83056745910E+02  0.50400000000E-02 0.  1.
          1   -1    0    0  501    0  0.00000000000E+00 -0.00000000000E+00 -0.22205674516E+03  0.22205674522E+03  0.50400000000E-02 0. -1.
    5000001    1    1    2    0    0 -0.57597693455E+01 -0.95100271244E+02 -0.36423202547E+01  0.12255408206E+03  0.77000000000E+02 0.  0.
   -5000001    1    1    2    0    0  0.57597693455E+01  0.95100271244E+02 -0.13535767915E+03  0.18255940907E+03  0.77000000000E+02 0.  0.
<mgrwt>
<rscale>  0 0.27161230E+03</rscale>
<asrwt>0</asrwt>
<pdfrwt beam="1">  1        1 0.34162576E-01 0.27161230E+03</pdfrwt>
<pdfrwt beam="2">  1       -1 0.12777961E-01 0.27161230E+03</pdfrwt>
<totfact> 0.52851693E+03</totfact>
</mgrwt>
</event>
<event>
 4    1  0.3064919E-004  0.2228619E+03  0.7818608E-02  0.1131767E+00
         -1   -1    0    0    0  501 -0.00000000000E+00  0.00000000000E+00  0.11581756515E+03  0.11581756526E+03  0.50400000000E-02 0.  1.
          1   -1    0    0  501    0  0.00000000000E+00 -0.00000000000E+00 -0.10721051156E+03  0.10721051168E+03  0.50400000000E-02 0. -1.
    5000001    1    1    2    0    0  0.76105589850E+01  0.77682460986E+02 -0.15595337534E+02  0.11074610560E+03  0.77000000000E+02 0.  0.
   -5000001    1    1    2    0    0 -0.76105589850E+01 -0.77682460986E+02  0.24202391122E+02  0.11228197134E+03  0.77000000000E+02 0.  0.
<mgrwt>
<rscale>  0 0.22286193E+03</rscale>
<asrwt>0</asrwt>
<pdfrwt beam="1">  1        1 0.16493925E-01 0.22286193E+03</pdfrwt>
<pdfrwt beam="2">  1       -1 0.17818087E-01 0.22286193E+03</pdfrwt>
<totfact> 0.78294244E+03</totfact>
</mgrwt>
</event>
<event>
 4    1  0.3064919E-004  0.2068173E+03  0.7818608E-02  0.1144111E+00
         -1   -1    0    0    0  501 -0.00000000000E+00  0.00000000000E+00  0.56519467951E+02  0.56519468176E+02  0.50400000000E-02 0. -1.
          1   -1    0    0  501    0  0.00000000000E+00 -0.00000000000E+00 -0.18919765065E+03  0.18919765072E+03  0.50400000000E-02 0.  1.
    5000001    1    1    2    0    0  0.19286233585E+02  0.61915285505E+02 -0.94426480783E+02  0.13802471394E+03  0.77000000000E+02 0.  0.
   -5000001    1    1    2    0    0 -0.19286233585E+02 -0.61915285505E+02 -0.38251701915E+02  0.10769240495E+03  0.77000000000E+02 0.  0.
<mgrwt>
<rscale>  0 0.20681732E+03</rscale>
<asrwt>0</asrwt>
<pdfrwt beam="1">  1        1 0.29107331E-01 0.20681732E+03</pdfrwt>
<pdfrwt beam="2">  1       -1 0.86953029E-02 0.20681732E+03</pdfrwt>
<totfact> 0.11570438E+04</totfact>
</mgrwt>
</event>
<event>
 4    1  0.3064919E-004  0.1978521E+03  0.7818608E-02  0.1151564E+00
         -1   -1    0    0    0  501 -0.00000000000E+00  0.00000000000E+00  0.49107409440E+02  0.49107409699E+02  0.50400000000E-02 0.  1.
          1   -1    0    0  501    0  0.00000000000E+00 -0.00000000000E+00 -0.19928491920E+03  0.19928491926E+03  0.50400000000E-02 0. -1.
    5000001    1    1    2    0    0 -0.15473606516E+02 -0.53941819739E+02 -0.10849899751E+03  0.14439593095E+03  0.77000000000E+02 0.  0.
   -5000001    1    1    2    0    0  0.15473606516E+02  0.53941819739E+02 -0.41678512252E+02  0.10399639801E+03  0.77000000000E+02 0.  0.
<mgrwt>
<rscale>  0 0.19785213E+03</rscale>
<asrwt>0</asrwt>
<pdfrwt beam="1">  1        1 0.30659218E-01 0.19785213E+03</pdfrwt>
<pdfrwt beam="2">  1       -1 0.75549862E-02 0.19785213E+03</pdfrwt>
<totfact> 0.13385570E+04</totfact>
</mgrwt>
</event>
<event>
 4    1  0.3064919E-004  0.2954003E+03  0.7818608E-02  0.1087563E+00
          1   -1    0    0  501    0  0.00000000000E+00  0.00000000000E+00  0.32790396133E+03  0.32790396137E+03  0.50400000000E-02 0.  1.
         -1   -1    0    0    0  501 -0.00000000000E+00 -0.00000000000E+00 -0.66529638877E+02  0.66529639068E+02  0.50400000000E-02 0. -1.
    5000001    1    1    2    0    0  0.87636892802E+02 -0.59572578141E+02  0.22180976964E+03  0.25759986598E+03  0.77000000000E+02 0.  0.
   -5000001    1    1    2    0    0 -0.87636892802E+02  0.59572578141E+02  0.39564552820E+02  0.13683373446E+03  0.77000000000E+02 0.  0.
<mgrwt>
<rscale>  0 0.29540029E+03</rscale>
<asrwt>0</asrwt>
<pdfrwt beam="1">  1        1 0.50446763E-01 0.29540029E+03</pdfrwt>
<pdfrwt beam="2">  1       -1 0.10235329E-01 0.29540029E+03</pdfrwt>
<totfact> 0.45855548E+03</totfact>
</mgrwt>
</event>
<event>
 4    1  0.3064919E-004  0.2041102E+03  0.7818608E-02  0.1146317E+00
         -1   -1    0    0    0  501 -0.00000000000E+00  0.00000000000E+00  0.74911870976E+02  0.74911871145E+02  0.50400000000E-02 0. -1.
          1   -1    0    0  501    0  0.00000000000E+00 -0.00000000000E+00 -0.13903333655E+03  0.13903333664E+03  0.50400000000E-02 0.  1.
    5000001    1    1    2    0    0  0.58158460680E+02 -0.33222234458E+02 -0.32429815071E+02  0.10708322145E+03  0.77000000000E+02 0.  0.
   -5000001    1    1    2    0    0 -0.58158460680E+02  0.33222234458E+02 -0.31691650498E+02  0.10686198633E+03  0.77000000000E+02 0.  0.
<mgrwt>
<rscale>  0 0.20411024E+03</rscale>
<asrwt>0</asrwt>
<pdfrwt beam="1">  1        1 0.21389744E-01 0.20411024E+03</pdfrwt>
<pdfrwt beam="2">  1       -1 0.11524903E-01 0.20411024E+03</pdfrwt>
<totfact> 0.11071585E+04</totfact>
</mgrwt>
</event>
<event>
 4    1  0.3064919E-004  0.4714729E+03  0.7818608E-02  0.1021505E+00
          1   -1    0    0  501    0  0.00000000000E+00  0.00000000000E+00  0.10510667239E+04  0.10510667239E+04  0.50400000000E-02 0.  1.
         -1   -1    0    0    0  501 -0.00000000000E+00 -0.00000000000E+00 -0.52871700907E+02  0.52871701147E+02  0.50400000000E-02 0. -1.
    5000001    1    1    2    0    0  0.11418875737E+03  0.10761128418E+03  0.12870564285E+03  0.21705622151E+03  0.77000000000E+02 0.  0.
   -5000001    1    1    2    0    0 -0.11418875737E+03 -0.10761128418E+03  0.86948938012E+03  0.88688220353E+03  0.77000000000E+02 0.  0.
<mgrwt>
<rscale>  0 0.47147295E+03</rscale>
<asrwt>0</asrwt>
<pdfrwt beam="1">  1        1 0.16170257E+00 0.47147295E+03</pdfrwt>
<pdfrwt beam="2">  1       -1 0.81341081E-02 0.47147295E+03</pdfrwt>
<totfact> 0.12246839E+03</totfact>
</mgrwt>
</event>
<event>
 4    1  0.3064919E-004  0.1972887E+03  0.7818608E-02  0.1152047E+00
          1   -1    0    0  501    0  0.00000000000E+00  0.00000000000E+00  0.87102922883E+02  0.87102923028E+02  0.50400000000E-02 0.  1.
         -1   -1    0    0    0  501 -0.00000000000E+00 -0.00000000000E+00 -0.11171505180E+03  0.11171505191E+03  0.50400000000E-02 0. -1.
    5000001    1    1    2    0    0 -0.47218469231E+02  0.33840390507E+02  0.85169122816E+01  0.96831263861E+02  0.77000000000E+02 0.  0.
   -5000001    1    1    2    0    0  0.47218469231E+02 -0.33840390507E+02 -0.33129041198E+02  0.10198671108E+03  0.77000000000E+02 0.  0.
<mgrwt>
<rscale>  0 0.19728870E+03</rscale>
<asrwt>0</asrwt>
<pdfrwt beam="1">  1        1 0.13400450E-01 0.19728870E+03</pdfrwt>
<pdfrwt beam="2">  1       -1 0.17186931E-01 0.19728870E+03</pdfrwt>
<totfact> 0.10801335E+04</totfact>
</mgrwt>
</event>
<event>
 4    1  0.3064919E-004  0.1770342E+03  0.7818608E-02  0.1170705E+00
          1   -1    0    0  501    0  0.00000000000E+00  0.00000000000E+00  0.31583718918E+04  0.31583718918E+04  0.50400000000E-02 0.  1.
         -1   -1    0    0    0  501 -0.00000000000E+00 -0.00000000000E+00 -0.24807944193E+01  0.24807995389E+01  0.50400000000E-02 0. -1.
    5000001    1    1    2    0    0 -0.23385205917E+02  0.36522196480E+02  0.14877128384E+04  0.14903352738E+04  0.77000000000E+02 0.  0.
   -5000001    1    1    2    0    0  0.23385205917E+02 -0.36522196480E+02  0.16681782590E+04  0.16705174176E+04  0.77000000000E+02 0.  0.
<mgrwt>
<rscale>  0 0.17703423E+03</rscale>
<asrwt>0</asrwt>
<pdfrwt beam="1">  1        1 0.48590355E+00 0.17703423E+03</pdfrwt>
<pdfrwt beam="2">  1       -1 0.38166093E-03 0.17703423E+03</pdfrwt>
<totfact> 0.42111075E+03</totfact>
</mgrwt>
</event>
<event>
 4    1  0.3064919E-004  0.4089720E+03  0.7818608E-02  0.1040717E+00
          1   -1    0    0  501    0  0.00000000000E+00  0.00000000000E+00  0.22006945056E+04  0.22006945056E+04  0.50400000000E-02 0.  1.
         -1   -1    0    0    0  501 -0.00000000000E+00 -0.00000000000E+00 -0.19000606405E+02  0.19000607073E+02  0.50400000000E-02 0. -1.
    5000001    1    1    2    0    0 -0.19060127554E+02  0.10233884822E+03  0.19498504515E+04  0.19541449055E+04  0.77000000000E+02 0.  0.
   -5000001    1    1    2    0    0  0.19060127554E+02 -0.10233884822E+03  0.23184344774E+03  0.26555020727E+03  0.77000000000E+02 0.  0.
<mgrwt>
<rscale>  0 0.40897203E+03</rscale>
<asrwt>0</asrwt>
<pdfrwt beam="1">  1        1 0.33856834E+00 0.40897203E+03</pdfrwt>
<pdfrwt beam="2">  1       -1 0.29231706E-02 0.40897203E+03</pdfrwt>
<totfact> 0.96640857E+02</totfact>
</mgrwt>
</event>
<event>
 4    1  0.3064919E-004  0.3412416E+03  0.7818608E-02  0.1066268E+00
         -1   -1    0    0    0  501 -0.00000000000E+00  0.00000000000E+00  0.46115235029E+02  0.46115235304E+02  0.50400000000E-02 0. -1.
          1   -1    0    0  501    0  0.00000000000E+00 -0.00000000000E+00 -0.63127621536E+03  0.63127621538E+03  0.50400000000E-02 0.  1.
    5000001    1    1    2    0    0 -0.29540959049E+02 -0.50427829485E+02 -0.13489280654E+02  0.97604277266E+02  0.77000000000E+02 0.  0.
   -5000001    1    1    2    0    0  0.29540959049E+02  0.50427829485E+02 -0.57167169968E+03  0.57978717342E+03  0.77000000000E+02 0.  0.
<mgrwt>
<rscale>  0 0.34124156E+03</rscale>
<asrwt>0</asrwt>
<pdfrwt beam="1">  1        1 0.97119412E-01 0.34124156E+03</pdfrwt>
<pdfrwt beam="2">  1       -1 0.70946520E-02 0.34124156E+03</pdfrwt>
<totfact> 0.33976196E+03</totfact>
</mgrwt>
</event>
<event>
 4    1  0.3064919E-004  0.2316241E+03  0.7818608E-02  0.1125502E+00
          1   -1    0    0  501    0  0.00000000000E+00  0.00000000000E+00  0.18956410795E+04  0.18956410795E+04  0.50400000000E-02 0. -1.
         -1   -1    0    0    0  501 -0.00000000000E+00 -0.00000000000E+00 -0.70754054465E+01  0.70754072415E+01  0.50400000000E-02 0.  1.
    5000001    1    1    2    0    0  0.18252619371E+02 -0.78987714941E+02  0.11922535886E+04  0.11974847961E+04  0.77000000000E+02 0.  0.
   -5000001    1    1    2    0    0 -0.18252619371E+02  0.78987714941E+02  0.69631208543E+03  0.70523169068E+03  0.77000000000E+02 0.  0.
<mgrwt>
<rscale>  0 0.23162410E+03</rscale>
<asrwt>0</asrwt>
<pdfrwt beam="1">  1        1 0.29163678E+00 0.23162410E+03</pdfrwt>
<pdfrwt beam="2">  1       -1 0.10885252E-02 0.23162410E+03</pdfrwt>
<totfact> 0.65418010E+03</totfact>
</mgrwt>
</event>
<event>
 4    1  0.3064919E-004  0.2981914E+03  0.7818608E-02  0.1086148E+00
         -1   -1    0    0    0  501 -0.00000000000E+00  0.00000000000E+00  0.10206849628E+04  0.10206849628E+04  0.50400000000E-02 0.  1.
          1   -1    0    0  501    0  0.00000000000E+00 -0.00000000000E+00 -0.21779035264E+02  0.21779035847E+02  0.50400000000E-02 0. -1.
    5000001    1    1    2    0    0  0.12519883328E+03 -0.40364417347E+00  0.58689542151E+03  0.60502078193E+03  0.77000000000E+02 0.  0.
   -5000001    1    1    2    0    0 -0.12519883328E+03  0.40364417347E+00  0.41201050605E+03  0.43744321675E+03  0.77000000000E+02 0.  0.
<mgrwt>
<rscale>  0 0.29819144E+03</rscale>
<asrwt>0</asrwt>
<pdfrwt beam="1">  1        1 0.33506203E-02 0.29819144E+03</pdfrwt>
<pdfrwt beam="2">  1       -1 0.15702848E+00 0.29819144E+03</pdfrwt>
<totfact> 0.97738918E+02</totfact>
</mgrwt>
</event>
<event>
 4    1  0.3064919E-004  0.1817679E+03  0.7818608E-02  0.1166103E+00
         -1   -1    0    0    0  501 -0.00000000000E+00  0.00000000000E+00  0.15024216087E+02  0.15024216932E+02  0.50400000000E-02 0.  1.
          1   -1    0    0  501    0  0.00000000000E+00 -0.00000000000E+00 -0.54977176693E+03  0.54977176695E+03  0.50400000000E-02 0. -1.
    5000001    1    1    2    0    0 -0.50566765170E+01 -0.15441724660E+02 -0.12610981073E+03  0.14864959199E+03  0.77000000000E+02 0.  0.
   -5000001    1    1    2    0    0  0.50566765170E+01  0.15441724660E+02 -0.40863774012E+03  0.41614639189E+03  0.77000000000E+02 0.  0.
<mgrwt>
<rscale>  0 0.18176787E+03</rscale>
<asrwt>0</asrwt>
<pdfrwt beam="1">  1        1 0.84580256E-01 0.18176787E+03</pdfrwt>
<pdfrwt beam="2">  1       -1 0.23114184E-02 0.18176787E+03</pdfrwt>
<totfact> 0.21244880E+04</totfact>
</mgrwt>
</event>
<event>
 4    1  0.3064919E-004  0.2029987E+03  0.7818608E-02  0.1147233E+00
          1   -1    0    0  501    0  0.00000000000E+00  0.00000000000E+00  0.64728937975E+02  0.64728938171E+02  0.50400000000E-02 0. -1.
         -1   -1    0    0    0  501 -0.00000000000E+00 -0.00000000000E+00 -0.15915784568E+03  0.15915784576E+03  0.50400000000E-02 0.  1.
    5000001    1    1    2    0    0  0.11992459073E+02  0.63313011252E+02 -0.30827537365E+02  0.10503186911E+03  0.77000000000E+02 0.  0.
   -5000001    1    1    2    0    0 -0.11992459073E+02 -0.63313011252E+02 -0.63601370342E+02  0.11885491482E+03  0.77000000000E+02 0.  0.
<mgrwt>
<rscale>  0 0.20299870E+03</rscale>
<asrwt>0</asrwt>
<pdfrwt beam="1">  1        1 0.99582983E-02 0.20299870E+03</pdfrwt>
<pdfrwt beam="2">  1       -1 0.24485822E-01 0.20299870E+03</pdfrwt>
<totfact> 0.90337072E+03</totfact>
</mgrwt>
</event>
<event>
 4    1  0.3064919E-004  0.2591447E+03  0.7818608E-02  0.1107658E+00
          1   -1    0    0  501    0  0.00000000000E+00  0.00000000000E+00  0.27389688747E+03  0.27389688752E+03  0.50400000000E-02 0.  1.
         -1   -1    0    0    0  501 -0.00000000000E+00 -0.00000000000E+00 -0.61296757680E+02  0.61296757887E+02  0.50400000000E-02 0. -1.
    5000001    1    1    2    0    0  0.30820774072E+02 -0.93896627046E+02  0.14907228388E+03  0.19472555689E+03  0.77000000000E+02 0.  0.
   -5000001    1    1    2    0    0 -0.30820774072E+02  0.93896627046E+02  0.63527845915E+02  0.14046808852E+03  0.77000000000E+02 0.  0.
<mgrwt>
<rscale>  0 0.25914468E+03</rscale>
<asrwt>0</asrwt>
<pdfrwt beam="1">  1        1 0.42137982E-01 0.25914468E+03</pdfrwt>
<pdfrwt beam="2">  1       -1 0.94302705E-02 0.25914468E+03</pdfrwt>
<totfact> 0.64997770E+03</totfact>
</mgrwt>
</event>
<event>
 4    1  0.3064919E-004  0.2279919E+03  0.7818608E-02  0.1128061E+00
         -1   -1    0    0    0  501 -0.00000000000E+00  0.00000000000E+00  0.74459849125E+02  0.74459849296E+02  0.50400000000E-02 0.  1.
          1   -1    0    0  501    0  0.00000000000E+00 -0.00000000000E+00 -0.17452459203E+03  0.17452459210E+03  0.50400000000E-02 0. -1.
    5000001    1    1    2    0    0 -0.38819812312E+02 -0.72980380022E+02 -0.33363947066E+02  0.11779332180E+03  0.77000000000E+02 0.  0.
   -5000001    1    1    2    0    0  0.38819812312E+02  0.72980380022E+02 -0.66700795834E+02  0.13119111960E+03  0.77000000000E+02 0.  0.
<mgrwt>
<rscale>  0 0.22799188E+03</rscale>
<asrwt>0</asrwt>
<pdfrwt beam="1">  1        1 0.26849937E-01 0.22799188E+03</pdfrwt>
<pdfrwt beam="2">  1       -1 0.11455361E-01 0.22799188E+03</pdfrwt>
<totfact> 0.84268842E+03</totfact>
</mgrwt>
</event>
<event>
 4    1  0.3064919E-004  0.2657255E+03  0.7818608E-02  0.1103751E+00
          1   -1    0    0  501    0  0.00000000000E+00  0.00000000000E+00  0.83183355800E+02  0.83183355952E+02  0.50400000000E-02 0. -1.
         -1   -1    0    0    0  501 -0.00000000000E+00 -0.00000000000E+00 -0.21221202234E+03  0.21221202240E+03  0.50400000000E-02 0.  1.
    5000001    1    1    2    0    0 -0.59341340480E+02 -0.58741702062E+02  0.12113587580E+02  0.11422662236E+03  0.77000000000E+02 0.  0.
   -5000001    1    1    2    0    0  0.59341340480E+02  0.58741702062E+02 -0.14114225412E+03  0.18116875600E+03  0.77000000000E+02 0.  0.
<mgrwt>
<rscale>  0 0.26572548E+03</rscale>
<asrwt>0</asrwt>
<pdfrwt beam="1">  1        1 0.12797439E-01 0.26572548E+03</pdfrwt>
<pdfrwt beam="2">  1       -1 0.32648003E-01 0.26572548E+03</pdfrwt>
<totfact> 0.40357385E+03</totfact>
</mgrwt>
</event>
<event>
 4    1  0.3064919E-004  0.2782014E+03  0.7818608E-02  0.1096675E+00
          1   -1    0    0  501    0  0.00000000000E+00  0.00000000000E+00  0.29749092510E+03  0.29749092514E+03  0.50400000000E-02 0.  1.
         -1   -1    0    0    0  501 -0.00000000000E+00 -0.00000000000E+00 -0.65040675560E+02  0.65040675756E+02  0.50400000000E-02 0. -1.
    5000001    1    1    2    0    0  0.84320776931E+02  0.74141932006E+02  0.15338116579E+03  0.20508974017E+03  0.77000000000E+02 0.  0.
   -5000001    1    1    2    0    0 -0.84320776931E+02 -0.74141932006E+02  0.79069083743E+02  0.15744186072E+03  0.77000000000E+02 0.  0.
<mgrwt>
<rscale>  0 0.27820144E+03</rscale>
<asrwt>0</asrwt>
<pdfrwt beam="1">  1        1 0.45767836E-01 0.27820144E+03</pdfrwt>
<pdfrwt beam="2">  1       -1 0.10006258E-01 0.27820144E+03</pdfrwt>
<totfact> 0.53605998E+03</totfact>
</mgrwt>
</event>
<event>
 4    1  0.3064919E-004  0.1961224E+03  0.7818608E-02  0.1153052E+00
          1   -1    0    0  501    0  0.00000000000E+00  0.00000000000E+00  0.36308797676E+03  0.36308797680E+03  0.50400000000E-02 0.  1.
         -1   -1    0    0    0  501 -0.00000000000E+00 -0.00000000000E+00 -0.26483948280E+02  0.26483948760E+02  0.50400000000E-02 0. -1.
    5000001    1    1    2    0    0 -0.26908600761E+02 -0.53497737419E+02  0.18825714404E+03  0.21202790615E+03  0.77000000000E+02 0.  0.
   -5000001    1    1    2    0    0  0.26908600761E+02  0.53497737419E+02  0.14834688444E+03  0.17754401941E+03  0.77000000000E+02 0.  0.
<mgrwt>
<rscale>  0 0.19612244E+03</rscale>
<asrwt>0</asrwt>
<pdfrwt beam="1">  1        1 0.55859687E-01 0.19612244E+03</pdfrwt>
<pdfrwt beam="2">  1       -1 0.40744538E-02 0.19612244E+03</pdfrwt>
<totfact> 0.15914837E+04</totfact>
</mgrwt>
</event>
<event>
 4    1  0.3064919E-004  0.1792555E+03  0.7818608E-02  0.1168526E+00
          1   -1    0    0  501    0  0.00000000000E+00  0.00000000000E+00  0.13286137089E+03  0.13286137098E+03  0.50400000000E-02 0.  1.
         -1   -1    0    0    0  501 -0.00000000000E+00 -0.00000000000E+00 -0.60462496750E+02  0.60462496960E+02  0.50400000000E-02 0. -1.
    5000001    1    1    2    0    0 -0.35674455044E+02  0.21208352599E+02  0.57269055689E+02  0.10455240649E+03  0.77000000000E+02 0.  0.
   -5000001    1    1    2    0    0  0.35674455044E+02 -0.21208352599E+02  0.15129818448E+02  0.88771461455E+02  0.77000000000E+02 0.  0.
<mgrwt>
<rscale>  0 0.17925546E+03</rscale>
<asrwt>0</asrwt>
<pdfrwt beam="1">  1        1 0.20440211E-01 0.17925546E+03</pdfrwt>
<pdfrwt beam="2">  1       -1 0.93019226E-02 0.17925546E+03</pdfrwt>
<totfact> 0.16165380E+04</totfact>
</mgrwt>
</event>
<event>
 4    1  0.3064919E-004  0.2763144E+03  0.7818608E-02  0.1097719E+00
         -1   -1    0    0    0  501 -0.00000000000E+00  0.00000000000E+00  0.46964795645E+03  0.46964795648E+03  0.50400000000E-02 0.  1.
          1   -1    0    0  501    0  0.00000000000E+00 -0.00000000000E+00 -0.40641970972E+02  0.40641971285E+02  0.50400000000E-02 0. -1.
    5000001    1    1    2    0    0  0.10967148910E+03  0.31797325429E+02  0.23469230257E+03  0.27211832410E+03  0.77000000000E+02 0.  0.
   -5000001    1    1    2    0    0 -0.10967148910E+03 -0.31797325429E+02  0.19431368291E+03  0.23817160366E+03  0.77000000000E+02 0.  0.
<mgrwt>
<rscale>  0 0.27631445E+03</rscale>
<asrwt>0</asrwt>
<pdfrwt beam="1">  1        1 0.62526112E-02 0.27631445E+03</pdfrwt>
<pdfrwt beam="2">  1       -1 0.72253529E-01 0.27631445E+03</pdfrwt>
<totfact> 0.24495144E+03</totfact>
</mgrwt>
</event>
<event>
 4    1  0.3064919E-004  0.2275922E+03  0.7818608E-02  0.1128346E+00
         -1   -1    0    0    0  501 -0.00000000000E+00  0.00000000000E+00  0.45140704735E+02  0.45140705016E+02  0.50400000000E-02 0. -1.
          1   -1    0    0  501    0  0.00000000000E+00 -0.00000000000E+00 -0.28687087667E+03  0.28687087672E+03  0.50400000000E-02 0.  1.
    5000001    1    1    2    0    0  0.21107708035E+02 -0.71530818354E+02 -0.65155715185E+02  0.12544504986E+03  0.77000000000E+02 0.  0.
   -5000001    1    1    2    0    0 -0.21107708035E+02  0.71530818354E+02 -0.17657445675E+03  0.20656653187E+03  0.77000000000E+02 0.  0.
<mgrwt>
<rscale>  0 0.22759221E+03</rscale>
<asrwt>0</asrwt>
<pdfrwt beam="1">  1        1 0.44133980E-01 0.22759221E+03</pdfrwt>
<pdfrwt beam="2">  1       -1 0.69447240E-02 0.22759221E+03</pdfrwt>
<totfact> 0.97249655E+03</totfact>
</mgrwt>
</event>
<event>
 4    1  0.3064919E-004  0.2490996E+03  0.7818608E-02  0.1113875E+00
         -1   -1    0    0    0  501 -0.00000000000E+00  0.00000000000E+00  0.96960172700E+01  0.96960185799E+01  0.50400000000E-02 0. -1.
          1   -1    0    0  501    0  0.00000000000E+00 -0.00000000000E+00 -0.15998997033E+04  0.15998997033E+04  0.50400000000E-02 0.  1.
    5000001    1    1    2    0    0 -0.14061996420E+01 -0.97839986028E+02 -0.81450397686E+03  0.82396624238E+03  0.77000000000E+02 0.  0.
   -5000001    1    1    2    0    0  0.14061996420E+01  0.97839986028E+02 -0.77569970918E+03  0.78562947952E+03  0.77000000000E+02 0.  0.
<mgrwt>
<rscale>  0 0.24909963E+03</rscale>
<asrwt>0</asrwt>
<pdfrwt beam="1">  1        1 0.24613821E+00 0.24909963E+03</pdfrwt>
<pdfrwt beam="2">  1       -1 0.14916963E-02 0.24909963E+03</pdfrwt>
<totfact> 0.64581060E+03</totfact>
</mgrwt>
</event>
<event>
 4    1  0.3064919E-004  0.1824298E+03  0.7818608E-02  0.1165472E+00
          1   -1    0    0  501    0  0.00000000000E+00  0.00000000000E+00  0.85493542383E+03  0.85493542385E+03  0.50400000000E-02 0. -1.
         -1   -1    0    0    0  501 -0.00000000000E+00 -0.00000000000E+00 -0.97319154282E+01  0.97319167333E+01  0.50400000000E-02 0.  1.
    5000001    1    1    2    0    0 -0.30028445867E+02  0.36575577961E+02  0.48097535071E+03  0.48939326565E+03  0.77000000000E+02 0.  0.
   -5000001    1    1    2    0    0  0.30028445867E+02 -0.36575577961E+02  0.36422815769E+03  0.37527407494E+03  0.77000000000E+02 0.  0.
<mgrwt>
<rscale>  0 0.18242982E+03</rscale>
<asrwt>0</asrwt>
<pdfrwt beam="1">  1        1 0.13152856E+00 0.18242982E+03</pdfrwt>
<pdfrwt beam="2">  1       -1 0.14972174E-02 0.18242982E+03</pdfrwt>
<totfact> 0.21112488E+04</totfact>
</mgrwt>
</event>
<event>
 4    1  0.3064919E-004  0.2381149E+03  0.7818608E-02  0.1121055E+00
         -1   -1    0    0    0  501 -0.00000000000E+00  0.00000000000E+00  0.10638370093E+02  0.10638371287E+02  0.50400000000E-02 0. -1.
          1   -1    0    0  501    0  0.00000000000E+00 -0.00000000000E+00 -0.13324101420E+04  0.13324101420E+04  0.50400000000E-02 0.  1.
    5000001    1    1    2    0    0  0.87066897078E+02 -0.23978929781E+02 -0.71440654012E+03  0.72419702996E+03  0.77000000000E+02 0.  0.
   -5000001    1    1    2    0    0 -0.87066897078E+02  0.23978929781E+02 -0.60736523179E+03  0.61885148334E+03  0.77000000000E+02 0.  0.
<mgrwt>
<rscale>  0 0.23811487E+03</rscale>
<asrwt>0</asrwt>
<pdfrwt beam="1">  1        1 0.20498604E+00 0.23811487E+03</pdfrwt>
<pdfrwt beam="2">  1       -1 0.16366735E-02 0.23811487E+03</pdfrwt>
<totfact> 0.84879205E+03</totfact>
</mgrwt>
</event>
<event>
 4    1  0.3064919E-004  0.6426560E+03  0.7818608E-02  0.9820658E-01
          1   -1    0    0  501    0  0.00000000000E+00  0.00000000000E+00  0.34133632425E+03  0.34133632428E+03  0.50400000000E-02 0.  1.
         -1   -1    0    0    0  501 -0.00000000000E+00 -0.00000000000E+00 -0.30249252264E+03  0.30249252269E+03  0.50400000000E-02 0. -1.
    5000001    1    1    2    0    0 -0.18395822425E+03  0.24806816449E+03 -0.24752143997E+02  0.31924929309E+03  0.77000000000E+02 0.  0.
   -5000001    1    1    2    0    0  0.18395822425E+03 -0.24806816449E+03  0.63595945601E+02  0.32457955388E+03  0.77000000000E+02 0.  0.
<mgrwt>
<rscale>  0 0.64265601E+03</rscale>
<asrwt>0</asrwt>
<pdfrwt beam="1">  1        1 0.52513281E-01 0.64265601E+03</pdfrwt>
<pdfrwt beam="2">  1       -1 0.46537311E-01 0.64265601E+03</pdfrwt>
<totfact> 0.34493679E+02</totfact>
</mgrwt>
</event>
<event>
 4    1  0.3064919E-004  0.1669183E+03  0.7818608E-02  0.1181100E+00
         -1   -1    0    0    0  501 -0.00000000000E+00  0.00000000000E+00  0.69958569054E+02  0.69958569236E+02  0.50400000000E-02 0.  1.
          1   -1    0    0  501    0  0.00000000000E+00 -0.00000000000E+00 -0.99565113760E+02  0.99565113887E+02  0.50400000000E-02 0. -1.
    5000001    1    1    2    0    0  0.24379265614E+02  0.41545186781E+01  0.61297048137E+01  0.81105991754E+02  0.77000000000E+02 0.  0.
   -5000001    1    1    2    0    0 -0.24379265614E+02 -0.41545186781E+01 -0.35736249520E+02  0.88417691369E+02  0.77000000000E+02 0.  0.
<mgrwt>
<rscale>  0 0.16691834E+03</rscale>
<asrwt>0</asrwt>
<pdfrwt beam="1">  1        1 0.15317710E-01 0.16691834E+03</pdfrwt>
<pdfrwt beam="2">  1       -1 0.10762857E-01 0.16691834E+03</pdfrwt>
<totfact> 0.18629384E+04</totfact>
</mgrwt>
</event>
<event>
 4    1  0.3064919E-004  0.2507611E+03  0.7818608E-02  0.1112825E+00
         -1   -1    0    0    0  501 -0.00000000000E+00  0.00000000000E+00  0.30359745845E+02  0.30359746264E+02  0.50400000000E-02 0. -1.
          1   -1    0    0  501    0  0.00000000000E+00 -0.00000000000E+00 -0.51780030397E+03  0.51780030399E+03  0.50400000000E-02 0.  1.
    5000001    1    1    2    0    0  0.14306119021E+01  0.97393717530E+02 -0.20562495913E+03  0.24020451012E+03  0.77000000000E+02 0.  0.
   -5000001    1    1    2    0    0 -0.14306119021E+01 -0.97393717530E+02 -0.28181559899E+03  0.30795554013E+03  0.77000000000E+02 0.  0.
<mgrwt>
<rscale>  0 0.25076113E+03</rscale>
<asrwt>0</asrwt>
<pdfrwt beam="1">  1        1 0.79661579E-01 0.25076113E+03</pdfrwt>
<pdfrwt beam="2">  1       -1 0.46707305E-02 0.25076113E+03</pdfrwt>
<totfact> 0.83206156E+03</totfact>
</mgrwt>
</event>
<event>
 4    1  0.3064919E-004  0.1896299E+03  0.7818608E-02  0.1158796E+00
         -1   -1    0    0    0  501 -0.00000000000E+00  0.00000000000E+00  0.96702663484E+01  0.96702676618E+01  0.50400000000E-02 0.  1.
          1   -1    0    0  501    0  0.00000000000E+00 -0.00000000000E+00 -0.92964066213E+03  0.92964066214E+03  0.50400000000E-02 0. -1.
    5000001    1    1    2    0    0  0.18644036680E+02  0.43149519653E+02 -0.60451834075E+03  0.61121265158E+03  0.77000000000E+02 0.  0.
   -5000001    1    1    2    0    0 -0.18644036680E+02 -0.43149519653E+02 -0.31545205503E+03  0.32809827822E+03  0.77000000000E+02 0.  0.
<mgrwt>
<rscale>  0 0.18962989E+03</rscale>
<asrwt>0</asrwt>
<pdfrwt beam="1">  1        1 0.14302157E+00 0.18962989E+03</pdfrwt>
<pdfrwt beam="2">  1       -1 0.14877341E-02 0.18962989E+03</pdfrwt>
<totfact> 0.18678388E+04</totfact>
</mgrwt>
</event>
<event>
 4    1  0.3064919E-004  0.2170871E+03  0.7818608E-02  0.1136074E+00
         -1   -1    0    0    0  501 -0.00000000000E+00  0.00000000000E+00  0.14779441034E+02  0.14779441893E+02  0.50400000000E-02 0.  1.
          1   -1    0    0  501    0  0.00000000000E+00 -0.00000000000E+00 -0.79716801385E+03  0.79716801387E+03  0.50400000000E-02 0. -1.
    5000001    1    1    2    0    0 -0.50746708392E+02 -0.41975633712E+02 -0.53679859168E+03  0.54627731993E+03  0.77000000000E+02 0.  0.
   -5000001    1    1    2    0    0  0.50746708392E+02  0.41975633712E+02 -0.24558998114E+03  0.26567013584E+03  0.77000000000E+02 0.  0.
<mgrwt>
<rscale>  0 0.21708706E+03</rscale>
<asrwt>0</asrwt>
<pdfrwt beam="1">  1        1 0.12264120E+00 0.21708706E+03</pdfrwt>
<pdfrwt beam="2">  1       -1 0.22737608E-02 0.21708706E+03</pdfrwt>
<totfact> 0.12962372E+04</totfact>
</mgrwt>
</event>
<event>
 4    1  0.3064919E-004  0.1896885E+03  0.7818608E-02  0.1158743E+00
          1   -1    0    0  501    0  0.00000000000E+00  0.00000000000E+00  0.71671317170E+03  0.71671317172E+03  0.50400000000E-02 0. -1.
         -1   -1    0    0    0  501 -0.00000000000E+00 -0.00000000000E+00 -0.12550956810E+02  0.12550957822E+02  0.50400000000E-02 0.  1.
    5000001    1    1    2    0    0  0.29369442759E+02 -0.35035141478E+02  0.23194872271E+03  0.24863474269E+03  0.77000000000E+02 0.  0.
   -5000001    1    1    2    0    0 -0.29369442759E+02  0.35035141478E+02  0.47221349218E+03  0.48062938685E+03  0.77000000000E+02 0.  0.
<mgrwt>
<rscale>  0 0.18968855E+03</rscale>
<asrwt>0</asrwt>
<pdfrwt beam="1">  1        1 0.11026353E+00 0.18968855E+03</pdfrwt>
<pdfrwt beam="2">  1       -1 0.19309171E-02 0.18968855E+03</pdfrwt>
<totfact> 0.19117887E+04</totfact>
</mgrwt>
</event>
<event>
 4    1  0.3064919E-004  0.2951288E+03  0.7818608E-02  0.1087701E+00
          1   -1    0    0  501    0  0.00000000000E+00  0.00000000000E+00  0.28816420177E+03  0.28816420181E+03  0.50400000000E-02 0.  1.
         -1   -1    0    0    0  501 -0.00000000000E+00 -0.00000000000E+00 -0.75565417713E+02  0.75565417881E+02  0.50400000000E-02 0. -1.
    5000001    1    1    2    0    0  0.11511209421E+03  0.46650859181E+02  0.13153144488E+03  0.19661286297E+03  0.77000000000E+02 0.  0.
   -5000001    1    1    2    0    0 -0.11511209421E+03 -0.46650859181E+02  0.81067339172E+02  0.16711675672E+03  0.77000000000E+02 0.  0.
<mgrwt>
<rscale>  0 0.29512877E+03</rscale>
<asrwt>0</asrwt>
<pdfrwt beam="1">  1        1 0.44332954E-01 0.29512877E+03</pdfrwt>
<pdfrwt beam="2">  1       -1 0.11625449E-01 0.29512877E+03</pdfrwt>
<totfact> 0.44271291E+03</totfact>
</mgrwt>
</event>
<event>
 4    1  0.3064919E-004  0.2900058E+03  0.7818608E-02  0.1090346E+00
          1   -1    0    0  501    0  0.00000000000E+00  0.00000000000E+00  0.38455928661E+03  0.38455928665E+03  0.50400000000E-02 0. -1.
         -1   -1    0    0    0  501 -0.00000000000E+00 -0.00000000000E+00 -0.54675160358E+02  0.54675160590E+02  0.50400000000E-02 0.  1.
    5000001    1    1    2    0    0  0.70444485969E+02 -0.66578425560E+02  0.50577105445E+02  0.13372417862E+03  0.77000000000E+02 0.  0.
   -5000001    1    1    2    0    0 -0.70444485969E+02  0.66578425560E+02  0.27930702081E+03  0.30551026861E+03  0.77000000000E+02 0.  0.
<mgrwt>
<rscale>  0 0.29000580E+03</rscale>
<asrwt>0</asrwt>
<pdfrwt beam="1">  1        1 0.59162966E-01 0.29000580E+03</pdfrwt>
<pdfrwt beam="2">  1       -1 0.84115633E-02 0.29000580E+03</pdfrwt>
<totfact> 0.50641712E+03</totfact>
</mgrwt>
</event>
<event>
 4    1  0.3064919E-004  0.1898324E+03  0.7818608E-02  0.1158613E+00
          1   -1    0    0  501    0  0.00000000000E+00  0.00000000000E+00  0.12102331949E+03  0.12102331959E+03  0.50400000000E-02 0.  1.
         -1   -1    0    0    0  501 -0.00000000000E+00 -0.00000000000E+00 -0.74440934326E+02  0.74440934497E+02  0.50400000000E-02 0. -1.
    5000001    1    1    2    0    0  0.26296025696E+02  0.44174607044E+02  0.17612429748E+01  0.92601181697E+02  0.77000000000E+02 0.  0.
   -5000001    1    1    2    0    0 -0.26296025696E+02 -0.44174607044E+02  0.44821142185E+02  0.10286307239E+03  0.77000000000E+02 0.  0.
<mgrwt>
<rscale>  0 0.18983244E+03</rscale>
<asrwt>0</asrwt>
<pdfrwt beam="1">  1        1 0.18618972E-01 0.18983244E+03</pdfrwt>
<pdfrwt beam="2">  1       -1 0.11452452E-01 0.18983244E+03</pdfrwt>
<totfact> 0.13289664E+04</totfact>
</mgrwt>
</event>
<event>
 4    1  0.3064919E-004  0.5589229E+03  0.7818608E-02  0.9994495E-01
          1   -1    0    0  501    0  0.00000000000E+00  0.00000000000E+00  0.26489157833E+03  0.26489157838E+03  0.50400000000E-02 0.  1.
         -1   -1    0    0    0  501 -0.00000000000E+00 -0.00000000000E+00 -0.29483271460E+03  0.29483271465E+03  0.50400000000E-02 0. -1.
    5000001    1    1    2    0    0 -0.67476742633E+02 -0.25832216199E+03  0.14842117552E+02  0.27826738692E+03  0.77000000000E+02 0.  0.
   -5000001    1    1    2    0    0  0.67476742633E+02  0.25832216199E+03 -0.44783253825E+02  0.28145690610E+03  0.77000000000E+02 0.  0.
<mgrwt>
<rscale>  0 0.55892290E+03</rscale>
<asrwt>0</asrwt>
<pdfrwt beam="1">  1        1 0.40752550E-01 0.55892290E+03</pdfrwt>
<pdfrwt beam="2">  1       -1 0.45358879E-01 0.55892290E+03</pdfrwt>
<totfact> 0.50317888E+02</totfact>
</mgrwt>
</event>
<event>
 4    1  0.3064919E-004  0.2304700E+03  0.7818608E-02  0.1126309E+00
         -1   -1    0    0    0  501 -0.00000000000E+00  0.00000000000E+00  0.67887857990E+02  0.67887858177E+02  0.50400000000E-02 0. -1.
          1   -1    0    0  501    0  0.00000000000E+00 -0.00000000000E+00 -0.19560346308E+03  0.19560346315E+03  0.50400000000E-02 0.  1.
    5000001    1    1    2    0    0  0.58026463011E+02  0.37062563261E+02 -0.12225903406E+03  0.16005303938E+03  0.77000000000E+02 0.  0.
   -5000001    1    1    2    0    0 -0.58026463011E+02 -0.37062563261E+02 -0.54565710365E+01  0.10343828195E+03  0.77000000000E+02 0.  0.
<mgrwt>
<rscale>  0 0.23046996E+03</rscale>
<asrwt>0</asrwt>
<pdfrwt beam="1">  1        1 0.30092840E-01 0.23046996E+03</pdfrwt>
<pdfrwt beam="2">  1       -1 0.10444286E-01 0.23046996E+03</pdfrwt>
<totfact> 0.84265947E+03</totfact>
</mgrwt>
</event>
<event>
 4    1  0.3064919E-004  0.3006567E+03  0.7818608E-02  0.1084913E+00
          1   -1    0    0  501    0  0.00000000000E+00  0.00000000000E+00  0.44434626334E+03  0.44434626337E+03  0.50400000000E-02 0. -1.
         -1   -1    0    0    0  501 -0.00000000000E+00 -0.00000000000E+00 -0.50858124208E+02  0.50858124458E+02  0.50400000000E-02 0.  1.
    5000001    1    1    2    0    0  0.73055806176E+02  0.57091396254E+02  0.34473397159E+03  0.36519459129E+03  0.77000000000E+02 0.  0.
   -5000001    1    1    2    0    0 -0.73055806176E+02 -0.57091396254E+02  0.48754167545E+02  0.13000979654E+03  0.77000000000E+02 0.  0.
<mgrwt>
<rscale>  0 0.30065673E+03</rscale>
<asrwt>0</asrwt>
<pdfrwt beam="1">  1        1 0.68360963E-01 0.30065673E+03</pdfrwt>
<pdfrwt beam="2">  1       -1 0.78243269E-02 0.30065673E+03</pdfrwt>
<totfact> 0.46986283E+03</totfact>
</mgrwt>
</event>
<event>
 4    1  0.3064919E-004  0.2000222E+03  0.7818608E-02  0.1149720E+00
          1   -1    0    0  501    0  0.00000000000E+00  0.00000000000E+00  0.95713290271E+01  0.95713303541E+01  0.50400000000E-02 0.  1.
         -1   -1    0    0    0  501 -0.00000000000E+00 -0.00000000000E+00 -0.10450193017E+04  0.10450193017E+04  0.50400000000E-02 0. -1.
    5000001    1    1    2    0    0  0.47791932691E+02 -0.32783163125E+02 -0.37680084351E+03  0.38893017404E+03  0.77000000000E+02 0.  0.
   -5000001    1    1    2    0    0 -0.47791932691E+02  0.32783163125E+02 -0.65864712915E+03  0.66566045800E+03  0.77000000000E+02 0.  0.
<mgrwt>
<rscale>  0 0.20002224E+03</rscale>
<asrwt>0</asrwt>
<pdfrwt beam="1">  1        1 0.14725131E-02 0.20002224E+03</pdfrwt>
<pdfrwt beam="2">  1       -1 0.16077211E+00 0.20002224E+03</pdfrwt>
<totfact> 0.28909998E+03</totfact>
</mgrwt>
</event>
<event>
 4    1  0.3064919E-004  0.2444252E+03  0.7818608E-02  0.1116880E+00
          1   -1    0    0  501    0  0.00000000000E+00  0.00000000000E+00  0.16665771298E+04  0.16665771298E+04  0.50400000000E-02 0. -1.
         -1   -1    0    0    0  501 -0.00000000000E+00 -0.00000000000E+00 -0.89620330923E+01  0.89620345095E+01  0.50400000000E-02 0.  1.
    5000001    1    1    2    0    0  0.29279441680E+02 -0.89665696951E+02  0.75701038511E+03  0.76674046852E+03  0.77000000000E+02 0.  0.
   -5000001    1    1    2    0    0 -0.29279441680E+02  0.89665696951E+02  0.90060471157E+03  0.90879869576E+03  0.77000000000E+02 0.  0.
<mgrwt>
<rscale>  0 0.24442521E+03</rscale>
<asrwt>0</asrwt>
<pdfrwt beam="1">  1        1 0.25639631E+00 0.24442521E+03</pdfrwt>
<pdfrwt beam="2">  1       -1 0.13787754E-02 0.24442521E+03</pdfrwt>
<totfact> 0.65468438E+03</totfact>
</mgrwt>
</event>
<event>
 4    1  0.3064919E-004  0.3188674E+03  0.7818608E-02  0.1076172E+00
         -1   -1    0    0    0  501 -0.00000000000E+00  0.00000000000E+00  0.89026266051E+02  0.89026266194E+02  0.50400000000E-02 0. -1.
          1   -1    0    0  501    0  0.00000000000E+00 -0.00000000000E+00 -0.28552362577E+03  0.28552362582E+03  0.50400000000E-02 0.  1.
    5000001    1    1    2    0    0 -0.81673074357E+02  0.86061968031E+02 -0.11828226710E+02  0.14193681821E+03  0.77000000000E+02 0.  0.
   -5000001    1    1    2    0    0  0.81673074357E+02 -0.86061968031E+02 -0.18466913301E+03  0.23261307380E+03  0.77000000000E+02 0.  0.
<mgrwt>
<rscale>  0 0.31886739E+03</rscale>
<asrwt>0</asrwt>
<pdfrwt beam="1">  1        1 0.43926711E-01 0.31886739E+03</pdfrwt>
<pdfrwt beam="2">  1       -1 0.13696349E-01 0.31886739E+03</pdfrwt>
<totfact> 0.34675933E+03</totfact>
</mgrwt>
</event>
<event>
 4    1  0.3064919E-004  0.2107470E+03  0.7818608E-02  0.1140976E+00
          1   -1    0    0  501    0  0.00000000000E+00  0.00000000000E+00  0.40959835561E+03  0.40959835564E+03  0.50400000000E-02 0. -1.
         -1   -1    0    0    0  501 -0.00000000000E+00 -0.00000000000E+00 -0.27108441596E+02  0.27108442064E+02  0.50400000000E-02 0.  1.
    5000001    1    1    2    0    0 -0.61578525772E+02 -0.36847966022E+02  0.18090772769E+03  0.20929953028E+03  0.77000000000E+02 0.  0.
   -5000001    1    1    2    0    0  0.61578525772E+02  0.36847966022E+02  0.20158218632E+03  0.22740726743E+03  0.77000000000E+02 0.  0.
<mgrwt>
<rscale>  0 0.21074699E+03</rscale>
<asrwt>0</asrwt>
<pdfrwt beam="1">  1        1 0.63015132E-01 0.21074699E+03</pdfrwt>
<pdfrwt beam="2">  1       -1 0.41705295E-02 0.21074699E+03</pdfrwt>
<totfact> 0.13254210E+04</totfact>
</mgrwt>
</event>
<event>
 4    1  0.3064919E-004  0.1776689E+03  0.7818608E-02  0.1170078E+00
          1   -1    0    0  501    0  0.00000000000E+00  0.00000000000E+00  0.12829389613E+03  0.12829389623E+03  0.50400000000E-02 0. -1.
         -1   -1    0    0    0  501 -0.00000000000E+00 -0.00000000000E+00 -0.61511566999E+02  0.61511567205E+02  0.50400000000E-02 0.  1.
    5000001    1    1    2    0    0 -0.40858512085E+02 -0.11908406497E+02  0.20249193757E+02  0.90278779361E+02  0.77000000000E+02 0.  0.
   -5000001    1    1    2    0    0  0.40858512085E+02  0.11908406497E+02  0.46533135377E+02  0.99526684076E+02  0.77000000000E+02 0.  0.
<mgrwt>
<rscale>  0 0.17766889E+03</rscale>
<asrwt>0</asrwt>
<pdfrwt beam="1">  1        1 0.19737523E-01 0.17766889E+03</pdfrwt>
<pdfrwt beam="2">  1       -1 0.94633180E-02 0.17766889E+03</pdfrwt>
<totfact> 0.16454041E+04</totfact>
</mgrwt>
</event>
<event>
 4    1  0.3064919E-004  0.2290616E+03  0.7818608E-02  0.1127302E+00
         -1   -1    0    0    0  501 -0.00000000000E+00  0.00000000000E+00  0.88519329262E+01  0.88519343610E+01  0.50400000000E-02 0.  1.
          1   -1    0    0  501    0  0.00000000000E+00 -0.00000000000E+00 -0.14818576979E+04  0.14818576979E+04  0.50400000000E-02 0. -1.
    5000001    1    1    2    0    0 -0.29430090199E+02 -0.21292757004E+02 -0.12350602989E+04  0.12379912979E+04  0.77000000000E+02 0.  0.
   -5000001    1    1    2    0    0  0.29430090199E+02  0.21292757004E+02 -0.23794546604E+03  0.25271833435E+03  0.77000000000E+02 0.  0.
<mgrwt>
<rscale>  0 0.22906162E+03</rscale>
<asrwt>0</asrwt>
<pdfrwt beam="1">  1        1 0.22797791E+00 0.22906162E+03</pdfrwt>
<pdfrwt beam="2">  1       -1 0.13618371E-02 0.22906162E+03</pdfrwt>
<totfact> 0.87958536E+03</totfact>
</mgrwt>
</event>
<event>
 4    1  0.3064919E-004  0.3368375E+03  0.7818608E-02  0.1068151E+00
         -1   -1    0    0    0  501 -0.00000000000E+00  0.00000000000E+00  0.12472107348E+02  0.12472108366E+02  0.50400000000E-02 0.  1.
          1   -1    0    0  501    0  0.00000000000E+00 -0.00000000000E+00 -0.22742643985E+04  0.22742643985E+04  0.50400000000E-02 0. -1.
    5000001    1    1    2    0    0  0.41266860230E+02 -0.14066596086E+03 -0.13397018435E+04  0.13498962537E+04  0.77000000000E+02 0.  0.
   -5000001    1    1    2    0    0 -0.41266860230E+02  0.14066596086E+03 -0.92209044761E+03  0.93684025313E+03  0.77000000000E+02 0.  0.
<mgrwt>
<rscale>  0 0.33683747E+03</rscale>
<asrwt>0</asrwt>
<pdfrwt beam="1">  1        1 0.34988650E+00 0.33683747E+03</pdfrwt>
<pdfrwt beam="2">  1       -1 0.19187876E-02 0.33683747E+03</pdfrwt>
<totfact> 0.16207975E+03</totfact>
</mgrwt>
</event>
<event>
 4    1  0.3064919E-004  0.6103871E+03  0.7818608E-02  0.9884087E-01
         -1   -1    0    0    0  501 -0.00000000000E+00  0.00000000000E+00  0.38020517969E+03  0.38020517972E+03  0.50400000000E-02 0. -1.
          1   -1    0    0  501    0  0.00000000000E+00 -0.00000000000E+00 -0.24498112753E+03  0.24498112759E+03  0.50400000000E-02 0.  1.
    5000001    1    1    2    0    0  0.28981142096E+03 -0.29541714704E+02  0.11727179307E+03  0.32333426369E+03  0.77000000000E+02 0.  0.
   -5000001    1    1    2    0    0 -0.28981142096E+03  0.29541714704E+02  0.17952259092E+02  0.30185204362E+03  0.77000000000E+02 0.  0.
<mgrwt>
<rscale>  0 0.61038707E+03</rscale>
<asrwt>0</asrwt>
<pdfrwt beam="1">  1        1 0.37689404E-01 0.61038707E+03</pdfrwt>
<pdfrwt beam="2">  1       -1 0.58493104E-01 0.61038707E+03</pdfrwt>
<totfact> 0.34290423E+02</totfact>
</mgrwt>
</event>
<event>
 4    1  0.3064919E-004  0.3096814E+03  0.7818608E-02  0.1080499E+00
         -1   -1    0    0    0  501 -0.00000000000E+00  0.00000000000E+00  0.10863877329E+02  0.10863878498E+02  0.50400000000E-02 0. -1.
          1   -1    0    0  501    0  0.00000000000E+00 -0.00000000000E+00 -0.22069135375E+04  0.22069135375E+04  0.50400000000E-02 0.  1.
    5000001    1    1    2    0    0  0.12943134220E+03 -0.35948926060E+02 -0.10883062438E+04  0.10992653356E+04  0.77000000000E+02 0.  0.
   -5000001    1    1    2    0    0 -0.12943134220E+03  0.35948926060E+02 -0.11077434163E+04  0.11185120804E+04  0.77000000000E+02 0.  0.
<mgrwt>
<rscale>  0 0.30968138E+03</rscale>
<asrwt>0</asrwt>
<pdfrwt beam="1">  1        1 0.33952480E+00 0.30968138E+03</pdfrwt>
<pdfrwt beam="2">  1       -1 0.16713676E-02 0.30968138E+03</pdfrwt>
<totfact> 0.22013662E+03</totfact>
</mgrwt>
</event>
<event>
 4    1  0.3064919E-004  0.2047927E+03  0.7818608E-02  0.1145757E+00
          1   -1    0    0  501    0  0.00000000000E+00  0.00000000000E+00  0.47100892749E+03  0.47100892752E+03  0.50400000000E-02 0.  1.
         -1   -1    0    0    0  501 -0.00000000000E+00 -0.00000000000E+00 -0.22260754838E+02  0.22260755409E+02  0.50400000000E-02 0. -1.
    5000001    1    1    2    0    0  0.15791240833E+02 -0.60774089356E+02  0.16473139398E+03  0.19237537625E+03  0.77000000000E+02 0.  0.
   -5000001    1    1    2    0    0 -0.15791240833E+02  0.60774089356E+02  0.28401677867E+03  0.30089430668E+03  0.77000000000E+02 0.  0.
<mgrwt>
<rscale>  0 0.20479272E+03</rscale>
<asrwt>0</asrwt>
<pdfrwt beam="1">  1        1 0.72462911E-01 0.20479272E+03</pdfrwt>
<pdfrwt beam="2">  1       -1 0.34247316E-02 0.20479272E+03</pdfrwt>
<totfact> 0.14780786E+04</totfact>
</mgrwt>
</event>
<event>
 4    1  0.3064919E-004  0.1873530E+03  0.7818608E-02  0.1160871E+00
         -1   -1    0    0    0  501 -0.00000000000E+00  0.00000000000E+00  0.15411018380E+03  0.15411018389E+03  0.50400000000E-02 0. -1.
          1   -1    0    0  501    0  0.00000000000E+00 -0.00000000000E+00 -0.56941654070E+02  0.56941654293E+02  0.50400000000E-02 0.  1.
    5000001    1    1    2    0    0  0.31506987592E+02  0.42779142374E+02  0.54050195435E+02  0.10804244035E+03  0.77000000000E+02 0.  0.
   -5000001    1    1    2    0    0 -0.31506987592E+02 -0.42779142374E+02  0.43118334298E+02  0.10300939783E+03  0.77000000000E+02 0.  0.
<mgrwt>
<rscale>  0 0.18735302E+03</rscale>
<asrwt>0</asrwt>
<pdfrwt beam="1">  1        1 0.87602547E-02 0.18735302E+03</pdfrwt>
<pdfrwt beam="2">  1       -1 0.23709259E-01 0.18735302E+03</pdfrwt>
<totfact> 0.11251704E+04</totfact>
</mgrwt>
</event>
<event>
 4    1  0.3064919E-004  0.1836491E+03  0.7818608E-02  0.1164317E+00
         -1   -1    0    0    0  501 -0.00000000000E+00  0.00000000000E+00  0.41966395894E+01  0.41966426158E+01  0.50400000000E-02 0.  1.
          1   -1    0    0  501    0  0.00000000000E+00 -0.00000000000E+00 -0.20091655472E+04  0.20091655473E+04  0.50400000000E-02 0. -1.
    5000001    1    1    2    0    0 -0.40059525638E+02  0.27366841579E+02 -0.11363227373E+04  0.11399614349E+04  0.77000000000E+02 0.  0.
   -5000001    1    1    2    0    0  0.40059525638E+02 -0.27366841579E+02 -0.86864617032E+03  0.87340075499E+03  0.77000000000E+02 0.  0.
<mgrwt>
<rscale>  0 0.18364909E+03</rscale>
<asrwt>0</asrwt>
<pdfrwt beam="1">  1        1 0.30910162E+00 0.18364909E+03</pdfrwt>
<pdfrwt beam="2">  1       -1 0.64563870E-03 0.18364909E+03</pdfrwt>
<totfact> 0.11631382E+04</totfact>
</mgrwt>
</event>
<event>
 4    1  0.3064919E-004  0.1924960E+03  0.7818608E-02  0.1156229E+00
          1   -1    0    0  501    0  0.00000000000E+00  0.00000000000E+00  0.26994681421E+03  0.26994681426E+03  0.50400000000E-02 0. -1.
         -1   -1    0    0    0  501 -0.00000000000E+00 -0.00000000000E+00 -0.34316667970E+02  0.34316668340E+02  0.50400000000E-02 0.  1.
    5000001    1    1    2    0    0  0.41025626553E+02  0.36362762743E+02  0.14649902690E+03  0.17434539693E+03  0.77000000000E+02 0.  0.
   -5000001    1    1    2    0    0 -0.41025626553E+02 -0.36362762743E+02  0.89131119339E+02  0.12991808567E+03  0.77000000000E+02 0.  0.
<mgrwt>
<rscale>  0 0.19249598E+03</rscale>
<asrwt>0</asrwt>
<pdfrwt beam="1">  1        1 0.41530280E-01 0.19249598E+03</pdfrwt>
<pdfrwt beam="2">  1       -1 0.52794872E-02 0.19249598E+03</pdfrwt>
<totfact> 0.15675308E+04</totfact>
</mgrwt>
</event>
<event>
 4    1  0.3064919E-004  0.1995584E+03  0.7818608E-02  0.1150112E+00
          1   -1    0    0  501    0  0.00000000000E+00  0.00000000000E+00  0.52755255664E+03  0.52755255666E+03  0.50400000000E-02 0.  1.
         -1   -1    0    0    0  501 -0.00000000000E+00 -0.00000000000E+00 -0.18871849557E+02  0.18871850230E+02  0.50400000000E-02 0. -1.
    5000001    1    1    2    0    0  0.16031206653E+02 -0.57443794805E+02  0.19497176219E+03  0.21794443604E+03  0.77000000000E+02 0.  0.
   -5000001    1    1    2    0    0 -0.16031206653E+02  0.57443794805E+02  0.31370894490E+03  0.32847997086E+03  0.77000000000E+02 0.  0.
<mgrwt>
<rscale>  0 0.19955844E+03</rscale>
<asrwt>0</asrwt>
<pdfrwt beam="1">  1        1 0.81161944E-01 0.19955844E+03</pdfrwt>
<pdfrwt beam="2">  1       -1 0.29033611E-02 0.19955844E+03</pdfrwt>
<totfact> 0.16198296E+04</totfact>
</mgrwt>
</event>
<event>
 4    1  0.3064919E-004  0.2174846E+03  0.7818608E-02  0.1135772E+00
         -1   -1    0    0    0  501 -0.00000000000E+00  0.00000000000E+00  0.35132615645E+02  0.35132616006E+02  0.50400000000E-02 0.  1.
          1   -1    0    0  501    0  0.00000000000E+00 -0.00000000000E+00 -0.33657875884E+03  0.33657875888E+03  0.50400000000E-02 0. -1.
    5000001    1    1    2    0    0  0.15826803968E+02 -0.74822208393E+02 -0.16244552548E+03  0.19536222598E+03  0.77000000000E+02 0.  0.
   -5000001    1    1    2    0    0 -0.15826803968E+02  0.74822208393E+02 -0.13900061772E+03  0.17634914890E+03  0.77000000000E+02 0.  0.
<mgrwt>
<rscale>  0 0.21748464E+03</rscale>
<asrwt>0</asrwt>
<pdfrwt beam="1">  1        1 0.51781345E-01 0.21748464E+03</pdfrwt>
<pdfrwt beam="2">  1       -1 0.54050180E-02 0.21748464E+03</pdfrwt>
<totfact> 0.11575153E+04</totfact>
</mgrwt>
</event>
<event>
 4    1  0.3064919E-004  0.2054219E+03  0.7818608E-02  0.1145243E+00
         -1   -1    0    0    0  501 -0.00000000000E+00  0.00000000000E+00  0.57919356903E+02  0.57919357122E+02  0.50400000000E-02 0. -1.
          1   -1    0    0  501    0  0.00000000000E+00 -0.00000000000E+00 -0.18214188837E+03  0.18214188844E+03  0.50400000000E-02 0.  1.
    5000001    1    1    2    0    0 -0.62803741553E+02  0.23765404253E+02 -0.49774839625E+02  0.11364699315E+03  0.77000000000E+02 0.  0.
   -5000001    1    1    2    0    0  0.62803741553E+02 -0.23765404253E+02 -0.74447691845E+02  0.12641425241E+03  0.77000000000E+02 0.  0.
<mgrwt>
<rscale>  0 0.20542192E+03</rscale>
<asrwt>0</asrwt>
<pdfrwt beam="1">  1        1 0.28021829E-01 0.20542192E+03</pdfrwt>
<pdfrwt beam="2">  1       -1 0.89106704E-02 0.20542192E+03</pdfrwt>
<totfact> 0.11686650E+04</totfact>
</mgrwt>
</event>
<event>
 4    1  0.3064919E-004  0.1617915E+03  0.7818608E-02  0.1186689E+00
         -1   -1    0    0    0  501 -0.00000000000E+00  0.00000000000E+00  0.50863215697E+01  0.50863240668E+01  0.50400000000E-02 0. -1.
          1   -1    0    0  501    0  0.00000000000E+00 -0.00000000000E+00 -0.12866110382E+04  0.12866110382E+04  0.50400000000E-02 0.  1.
    5000001    1    1    2    0    0 -0.21405788346E+02 -0.10488172542E+02 -0.58608143445E+03  0.59159839194E+03  0.77000000000E+02 0.  0.
   -5000001    1    1    2    0    0  0.21405788346E+02  0.10488172542E+02 -0.69544328217E+03  0.70009897033E+03  0.77000000000E+02 0.  0.
<mgrwt>
<rscale>  0 0.16179146E+03</rscale>
<asrwt>0</asrwt>
<pdfrwt beam="1">  1        1 0.19793990E+00 0.16179146E+03</pdfrwt>
<pdfrwt beam="2">  1       -1 0.78251223E-03 0.16179146E+03</pdfrwt>
<totfact> 0.25876336E+04</totfact>
</mgrwt>
</event>
<event>
 4    1  0.3064919E-004  0.3553933E+03  0.7818608E-02  0.1060423E+00
         -1   -1    0    0    0  501 -0.00000000000E+00  0.00000000000E+00  0.14052363612E+03  0.14052363621E+03  0.50400000000E-02 0.  1.
          1   -1    0    0  501    0  0.00000000000E+00 -0.00000000000E+00 -0.22470315119E+03  0.22470315125E+03  0.50400000000E-02 0. -1.
    5000001    1    1    2    0    0 -0.73282455194E+02 -0.82643330322E+02  0.77079405318E+02  0.15514661778E+03  0.77000000000E+02 0.  0.
   -5000001    1    1    2    0    0  0.73282455194E+02  0.82643330322E+02 -0.16125892039E+03  0.21008016967E+03  0.77000000000E+02 0.  0.
<mgrwt>
<rscale>  0 0.35539333E+03</rscale>
<asrwt>0</asrwt>
<pdfrwt beam="1">  1        1 0.34569715E-01 0.35539333E+03</pdfrwt>
<pdfrwt beam="2">  1       -1 0.21619021E-01 0.35539333E+03</pdfrwt>
<totfact> 0.22510749E+03</totfact>
</mgrwt>
</event>
<event>
 4    1  0.3064919E-004  0.1635893E+03  0.7818608E-02  0.1184703E+00
          1   -1    0    0  501    0  0.00000000000E+00  0.00000000000E+00  0.93984003591E+02  0.93984003726E+02  0.50400000000E-02 0.  1.
         -1   -1    0    0    0  501 -0.00000000000E+00 -0.00000000000E+00 -0.71186165110E+02  0.71186165288E+02  0.50400000000E-02 0. -1.
    5000001    1    1    2    0    0 -0.40569875235E+01  0.27275534863E+02  0.12381397152E+02  0.82720692365E+02  0.77000000000E+02 0.  0.
   -5000001    1    1    2    0    0  0.40569875235E+01 -0.27275534863E+02  0.10416441329E+02  0.82449476650E+02  0.77000000000E+02 0.  0.
<mgrwt>
<rscale>  0 0.16358925E+03</rscale>
<asrwt>0</asrwt>
<pdfrwt beam="1">  1        1 0.14459078E-01 0.16358925E+03</pdfrwt>
<pdfrwt beam="2">  1       -1 0.10951718E-01 0.16358925E+03</pdfrwt>
<totfact> 0.19515842E+04</totfact>
</mgrwt>
</event>
<event>
 4    1  0.3064919E-004  0.2621453E+03  0.7818608E-02  0.1105861E+00
         -1   -1    0    0    0  501 -0.00000000000E+00  0.00000000000E+00  0.92692649735E+03  0.92692649737E+03  0.50400000000E-02 0. -1.
          1   -1    0    0  501    0  0.00000000000E+00 -0.00000000000E+00 -0.18534417704E+02  0.18534418389E+02  0.50400000000E-02 0.  1.
    5000001    1    1    2    0    0  0.10575655130E+03 -0.19659391992E+01  0.48276139541E+03  0.50017584704E+03  0.77000000000E+02 0.  0.
   -5000001    1    1    2    0    0 -0.10575655130E+03  0.19659391992E+01  0.42563068424E+03  0.44528506872E+03  0.77000000000E+02 0.  0.
<mgrwt>
<rscale>  0 0.26214533E+03</rscale>
<asrwt>0</asrwt>
<pdfrwt beam="1">  1        1 0.28514492E-02 0.26214533E+03</pdfrwt>
<pdfrwt beam="2">  1       -1 0.14260406E+00 0.26214533E+03</pdfrwt>
<totfact> 0.15761490E+03</totfact>
</mgrwt>
</event>
<event>
 4    1  0.3064919E-004  0.2359779E+03  0.7818608E-02  0.1122502E+00
          1   -1    0    0  501    0  0.00000000000E+00  0.00000000000E+00  0.98414902958E+03  0.98414902959E+03  0.50400000000E-02 0. -1.
         -1   -1    0    0    0  501 -0.00000000000E+00 -0.00000000000E+00 -0.14145612510E+02  0.14145613408E+02  0.50400000000E-02 0.  1.
    5000001    1    1    2    0    0  0.40291941141E+02 -0.16067724172E+02  0.81570286496E+03  0.82047655432E+03  0.77000000000E+02 0.  0.
   -5000001    1    1    2    0    0 -0.40291941141E+02  0.16067724172E+02  0.15430055210E+03  0.17781808868E+03  0.77000000000E+02 0.  0.
<mgrwt>
<rscale>  0 0.23597789E+03</rscale>
<asrwt>0</asrwt>
<pdfrwt beam="1">  1        1 0.15140754E+00 0.23597789E+03</pdfrwt>
<pdfrwt beam="2">  1       -1 0.21762482E-02 0.23597789E+03</pdfrwt>
<totfact> 0.98823445E+03</totfact>
</mgrwt>
</event>
<event>
 4    1  0.3064919E-004  0.2020131E+03  0.7818608E-02  0.1148052E+00
          1   -1    0    0  501    0  0.00000000000E+00  0.00000000000E+00  0.15028024090E+04  0.15028024090E+04  0.50400000000E-02 0. -1.
         -1   -1    0    0    0  501 -0.00000000000E+00 -0.00000000000E+00 -0.67888649533E+01  0.67888668241E+01  0.50400000000E-02 0.  1.
    5000001    1    1    2    0    0  0.34081324861E+02  0.46264496500E+02  0.98090984979E+03  0.98560391322E+03  0.77000000000E+02 0.  0.
   -5000001    1    1    2    0    0 -0.34081324861E+02 -0.46264496500E+02  0.51510369429E+03  0.52398736264E+03  0.77000000000E+02 0.  0.
<mgrwt>
<rscale>  0 0.20201311E+03</rscale>
<asrwt>0</asrwt>
<pdfrwt beam="1">  1        1 0.23120068E+00 0.20201311E+03</pdfrwt>
<pdfrwt beam="2">  1       -1 0.10444395E-02 0.20201311E+03</pdfrwt>
<totfact> 0.12443046E+04</totfact>
</mgrwt>
</event>
<event>
 4    1  0.3064919E-004  0.2881954E+03  0.7818608E-02  0.1091295E+00
         -1   -1    0    0    0  501 -0.00000000000E+00  0.00000000000E+00  0.72508793266E+02  0.72508793441E+02  0.50400000000E-02 0. -1.
          1   -1    0    0  501    0  0.00000000000E+00 -0.00000000000E+00 -0.28636724891E+03  0.28636724895E+03  0.50400000000E-02 0.  1.
    5000001    1    1    2    0    0 -0.92647624180E+02  0.47018715238E+02 -0.18608657573E+03  0.22660881606E+03  0.77000000000E+02 0.  0.
   -5000001    1    1    2    0    0  0.92647624180E+02 -0.47018715238E+02 -0.27771879915E+02  0.13226722634E+03  0.77000000000E+02 0.  0.
<mgrwt>
<rscale>  0 0.28819538E+03</rscale>
<asrwt>0</asrwt>
<pdfrwt beam="1">  1        1 0.44056499E-01 0.28819538E+03</pdfrwt>
<pdfrwt beam="2">  1       -1 0.11155199E-01 0.28819538E+03</pdfrwt>
<totfact> 0.47559296E+03</totfact>
</mgrwt>
</event>
<event>
 4    1  0.3064919E-004  0.5148913E+03  0.7818608E-02  0.1009964E+00
          1   -1    0    0  501    0  0.00000000000E+00  0.00000000000E+00  0.45023501974E+03  0.45023501977E+03  0.50400000000E-02 0.  1.
         -1   -1    0    0    0  501 -0.00000000000E+00 -0.00000000000E+00 -0.14720812389E+03  0.14720812398E+03  0.50400000000E-02 0. -1.
    5000001    1    1    2    0    0  0.16181235069E+03 -0.18103616298E+03  0.19480356280E+03  0.32067858865E+03  0.77000000000E+02 0.  0.
   -5000001    1    1    2    0    0 -0.16181235069E+03  0.18103616298E+03  0.10822333305E+03  0.27676455510E+03  0.77000000000E+02 0.  0.
<mgrwt>
<rscale>  0 0.51489126E+03</rscale>
<asrwt>0</asrwt>
<pdfrwt beam="1">  1        1 0.69266926E-01 0.51489126E+03</pdfrwt>
<pdfrwt beam="2">  1       -1 0.22647404E-01 0.51489126E+03</pdfrwt>
<totfact> 0.85292879E+02</totfact>
</mgrwt>
</event>
<event>
 4    1  0.3064919E-004  0.2551439E+03  0.7818608E-02  0.1110096E+00
          1   -1    0    0  501    0  0.00000000000E+00  0.00000000000E+00  0.57898492530E+03  0.57898492533E+03  0.50400000000E-02 0.  1.
         -1   -1    0    0    0  501 -0.00000000000E+00 -0.00000000000E+00 -0.28108844582E+02  0.28108845034E+02  0.50400000000E-02 0. -1.
    5000001    1    1    2    0    0  0.96007543261E+01 -0.95478390223E+02  0.35568122603E+03  0.37635944526E+03  0.77000000000E+02 0.  0.
   -5000001    1    1    2    0    0 -0.96007543261E+01  0.95478390223E+02  0.19519485469E+03  0.23073432510E+03  0.77000000000E+02 0.  0.
<mgrwt>
<rscale>  0 0.25514386E+03</rscale>
<asrwt>0</asrwt>
<pdfrwt beam="1">  1        1 0.89074600E-01 0.25514386E+03</pdfrwt>
<pdfrwt beam="2">  1       -1 0.43244378E-02 0.25514386E+03</pdfrwt>
<totfact> 0.80290624E+03</totfact>
</mgrwt>
</event>
<event>
 4    1  0.3064919E-004  0.1830502E+03  0.7818608E-02  0.1164883E+00
          1   -1    0    0  501    0  0.00000000000E+00  0.00000000000E+00  0.20177667814E+04  0.20177667814E+04  0.50400000000E-02 0.  1.
         -1   -1    0    0    0  501 -0.00000000000E+00 -0.00000000000E+00 -0.41515405410E+01  0.41515436003E+01  0.50400000000E-02 0. -1.
    5000001    1    1    2    0    0  0.37915406662E+02 -0.25508762975E+02  0.79735571641E+03  0.80236738066E+03  0.77000000000E+02 0.  0.
   -5000001    1    1    2    0    0 -0.37915406662E+02  0.25508762975E+02  0.12162595244E+04  0.12195509443E+04  0.77000000000E+02 0.  0.
<mgrwt>
<rscale>  0 0.18305020E+03</rscale>
<asrwt>0</asrwt>
<pdfrwt beam="1">  1        1 0.31042557E+00 0.18305020E+03</pdfrwt>
<pdfrwt beam="2">  1       -1 0.63869897E-03 0.18305020E+03</pdfrwt>
<totfact> 0.11661529E+04</totfact>
</mgrwt>
</event>
<event>
 4    1  0.3064919E-004  0.2592411E+03  0.7818608E-02  0.1107600E+00
         -1   -1    0    0    0  501 -0.00000000000E+00  0.00000000000E+00  0.16461361903E+03  0.16461361910E+03  0.50400000000E-02 0. -1.
          1   -1    0    0  501    0  0.00000000000E+00 -0.00000000000E+00 -0.10206618139E+03  0.10206618151E+03  0.50400000000E-02 0.  1.
    5000001    1    1    2    0    0 -0.94156892567E+02 -0.18021673414E+02  0.73465013525E+02  0.14323550308E+03  0.77000000000E+02 0.  0.
   -5000001    1    1    2    0    0  0.94156892567E+02  0.18021673414E+02 -0.10917575884E+02  0.12344429753E+03  0.77000000000E+02 0.  0.
<mgrwt>
<rscale>  0 0.25924107E+03</rscale>
<asrwt>0</asrwt>
<pdfrwt beam="1">  1        1 0.15702489E-01 0.25924107E+03</pdfrwt>
<pdfrwt beam="2">  1       -1 0.25325172E-01 0.25924107E+03</pdfrwt>
<totfact> 0.47336709E+03</totfact>
</mgrwt>
</event>
<event>
 4    1  0.3064919E-004  0.2104173E+03  0.7818608E-02  0.1141236E+00
          1   -1    0    0  501    0  0.00000000000E+00  0.00000000000E+00  0.35910371571E+03  0.35910371574E+03  0.50400000000E-02 0.  1.
         -1   -1    0    0    0  501 -0.00000000000E+00 -0.00000000000E+00 -0.30823573950E+02  0.30823574362E+02  0.50400000000E-02 0. -1.
    5000001    1    1    2    0    0 -0.75282681391E+00  0.69768130461E+02  0.13359451700E+03  0.16924731534E+03  0.77000000000E+02 0.  0.
   -5000001    1    1    2    0    0  0.75282681391E+00 -0.69768130461E+02  0.19468562476E+03  0.22067997477E+03  0.77000000000E+02 0.  0.
<mgrwt>
<rscale>  0 0.21041730E+03</rscale>
<asrwt>0</asrwt>
<pdfrwt beam="1">  1        1 0.55246728E-01 0.21041730E+03</pdfrwt>
<pdfrwt beam="2">  1       -1 0.47420882E-02 0.21041730E+03</pdfrwt>
<totfact> 0.12942639E+04</totfact>
</mgrwt>
</event>
<event>
 4    1  0.3064919E-004  0.1861443E+03  0.7818608E-02  0.1161986E+00
          1   -1    0    0  501    0  0.00000000000E+00  0.00000000000E+00  0.47268093488E+03  0.47268093491E+03  0.50400000000E-02 0. -1.
         -1   -1    0    0    0  501 -0.00000000000E+00 -0.00000000000E+00 -0.18326157788E+02  0.18326158481E+02  0.50400000000E-02 0.  1.
    5000001    1    1    2    0    0 -0.39343742223E+02  0.27557335823E+02  0.28162615598E+03  0.29588786481E+03  0.77000000000E+02 0.  0.
   -5000001    1    1    2    0    0  0.39343742223E+02 -0.27557335823E+02  0.17272862111E+03  0.19511922858E+03  0.77000000000E+02 0.  0.
<mgrwt>
<rscale>  0 0.18614431E+03</rscale>
<asrwt>0</asrwt>
<pdfrwt beam="1">  1        1 0.72720135E-01 0.18614431E+03</pdfrwt>
<pdfrwt beam="2">  1       -1 0.28194093E-02 0.18614431E+03</pdfrwt>
<totfact> 0.19446792E+04</totfact>
</mgrwt>
</event>
<event>
 4    1  0.3064919E-004  0.2021955E+03  0.7818608E-02  0.1147900E+00
         -1   -1    0    0    0  501 -0.00000000000E+00  0.00000000000E+00  0.19968725563E+03  0.19968725569E+03  0.50400000000E-02 0. -1.
          1   -1    0    0  501    0  0.00000000000E+00 -0.00000000000E+00 -0.51183832880E+02  0.51183833128E+02  0.50400000000E-02 0.  1.
    5000001    1    1    2    0    0  0.31918845047E+02 -0.87696509183E+01  0.14439483875E+03  0.16695684743E+03  0.77000000000E+02 0.  0.
   -5000001    1    1    2    0    0 -0.31918845047E+02  0.87696509183E+01  0.41085840040E+01  0.83914241395E+02  0.77000000000E+02 0.  0.
<mgrwt>
<rscale>  0 0.20219554E+03</rscale>
<asrwt>0</asrwt>
<pdfrwt beam="1">  1        1 0.78744359E-02 0.20219554E+03</pdfrwt>
<pdfrwt beam="2">  1       -1 0.30721116E-01 0.20219554E+03</pdfrwt>
<totfact> 0.84728151E+03</totfact>
</mgrwt>
</event>
<event>
 4    1  0.3064919E-004  0.2292590E+03  0.7818608E-02  0.1127162E+00
          1   -1    0    0  501    0  0.00000000000E+00  0.00000000000E+00  0.40407481823E+03  0.40407481827E+03  0.50400000000E-02 0.  1.
         -1   -1    0    0    0  501 -0.00000000000E+00 -0.00000000000E+00 -0.32518527081E+02  0.32518527471E+02  0.50400000000E-02 0. -1.
    5000001    1    1    2    0    0  0.68124133570E+02 -0.50580963389E+02  0.19226043488E+03  0.22381332903E+03  0.77000000000E+02 0.  0.
   -5000001    1    1    2    0    0 -0.68124133570E+02  0.50580963389E+02  0.17929585628E+03  0.21278001671E+03  0.77000000000E+02 0.  0.
<mgrwt>
<rscale>  0 0.22925896E+03</rscale>
<asrwt>0</asrwt>
<pdfrwt beam="1">  1        1 0.62165356E-01 0.22925896E+03</pdfrwt>
<pdfrwt beam="2">  1       -1 0.50028504E-02 0.22925896E+03</pdfrwt>
<totfact> 0.10336138E+04</totfact>
</mgrwt>
</event>
<event>
 4    1  0.3064919E-004  0.2086053E+03  0.7818608E-02  0.1142675E+00
          1   -1    0    0  501    0  0.00000000000E+00  0.00000000000E+00  0.43733571064E+03  0.43733571067E+03  0.50400000000E-02 0. -1.
         -1   -1    0    0    0  501 -0.00000000000E+00 -0.00000000000E+00 -0.24875722675E+02  0.24875723186E+02  0.50400000000E-02 0.  1.
    5000001    1    1    2    0    0  0.50524416600E+02  0.37064309821E+02  0.13534203189E+03  0.16784798280E+03  0.77000000000E+02 0.  0.
   -5000001    1    1    2    0    0 -0.50524416600E+02 -0.37064309821E+02  0.27711795608E+03  0.29436345105E+03  0.77000000000E+02 0.  0.
<mgrwt>
<rscale>  0 0.20860529E+03</rscale>
<asrwt>0</asrwt>
<pdfrwt beam="1">  1        1 0.67282416E-01 0.20860529E+03</pdfrwt>
<pdfrwt beam="2">  1       -1 0.38270344E-02 0.20860529E+03</pdfrwt>
<totfact> 0.13829216E+04</totfact>
</mgrwt>
</event>
<event>
 4    1  0.3064919E-004  0.2078442E+03  0.7818608E-02  0.1143285E+00
         -1   -1    0    0    0  501 -0.00000000000E+00  0.00000000000E+00  0.18486030110E+03  0.18486030117E+03  0.50400000000E-02 0.  1.
          1   -1    0    0  501    0  0.00000000000E+00 -0.00000000000E+00 -0.58421409015E+02  0.58421409232E+02  0.50400000000E-02 0. -1.
    5000001    1    1    2    0    0 -0.48473391280E+02 -0.21654473759E+01  0.12193659407E+03  0.15215745725E+03  0.77000000000E+02 0.  0.
   -5000001    1    1    2    0    0  0.48473391280E+02  0.21654473759E+01  0.45022980177E+01  0.91124253149E+02  0.77000000000E+02 0.  0.
<mgrwt>
<rscale>  0 0.20784417E+03</rscale>
<asrwt>0</asrwt>
<pdfrwt beam="1">  1        1 0.89879091E-02 0.20784417E+03</pdfrwt>
<pdfrwt beam="2">  1       -1 0.28440046E-01 0.20784417E+03</pdfrwt>
<totfact> 0.80886298E+03</totfact>
</mgrwt>
</event>
<event>
 4    1  0.3064919E-004  0.2549601E+03  0.7818608E-02  0.1110210E+00
         -1   -1    0    0    0  501 -0.00000000000E+00  0.00000000000E+00  0.31836666818E+02  0.31836667217E+02  0.50400000000E-02 0. -1.
          1   -1    0    0  501    0  0.00000000000E+00 -0.00000000000E+00 -0.51045415854E+03  0.51045415856E+03  0.50400000000E-02 0.  1.
    5000001    1    1    2    0    0  0.96399924631E+02 -0.31923382830E+02 -0.23254538703E+03  0.26517617704E+03  0.77000000000E+02 0.  0.
   -5000001    1    1    2    0    0 -0.96399924631E+02  0.31923382830E+02 -0.24607210469E+03  0.27711464874E+03  0.77000000000E+02 0.  0.
<mgrwt>
<rscale>  0 0.25496007E+03</rscale>
<asrwt>0</asrwt>
<pdfrwt beam="1">  1        1 0.78531403E-01 0.25496007E+03</pdfrwt>
<pdfrwt beam="2">  1       -1 0.48979491E-02 0.25496007E+03</pdfrwt>
<totfact> 0.79048399E+03</totfact>
</mgrwt>
</event>
<event>
 4    1  0.3064919E-004  0.1640843E+03  0.7818608E-02  0.1184161E+00
         -1   -1    0    0    0  501 -0.00000000000E+00  0.00000000000E+00  0.14313380969E+02  0.14313381857E+02  0.50400000000E-02 0.  1.
          1   -1    0    0  501    0  0.00000000000E+00 -0.00000000000E+00 -0.47025338429E+03  0.47025338431E+03  0.50400000000E-02 0. -1.
    5000001    1    1    2    0    0  0.11311110741E+02 -0.21590845701E+02 -0.27054160348E+03  0.28233998133E+03  0.77000000000E+02 0.  0.
   -5000001    1    1    2    0    0 -0.11311110741E+02  0.21590845701E+02 -0.18539839984E+03  0.20222678484E+03  0.77000000000E+02 0.  0.
<mgrwt>
<rscale>  0 0.16408432E+03</rscale>
<asrwt>0</asrwt>
<pdfrwt beam="1">  1        1 0.72346663E-01 0.16408432E+03</pdfrwt>
<pdfrwt beam="2">  1       -1 0.22020590E-02 0.16408432E+03</pdfrwt>
<totfact> 0.27775331E+04</totfact>
</mgrwt>
</event>
<event>
 4    1  0.3064919E-004  0.2622270E+03  0.7818608E-02  0.1105813E+00
          1   -1    0    0  501    0  0.00000000000E+00  0.00000000000E+00  0.15106366627E+03  0.15106366635E+03  0.50400000000E-02 0.  1.
         -1   -1    0    0    0  501 -0.00000000000E+00 -0.00000000000E+00 -0.11379804941E+03  0.11379804952E+03  0.50400000000E-02 0. -1.
    5000001    1    1    2    0    0 -0.59296349151E+02  0.81435735488E+02 -0.15077886918E+02  0.12768781739E+03  0.77000000000E+02 0.  0.
   -5000001    1    1    2    0    0  0.59296349151E+02 -0.81435735488E+02  0.52343503771E+02  0.13717389848E+03  0.77000000000E+02 0.  0.
<mgrwt>
<rscale>  0 0.26222701E+03</rscale>
<asrwt>0</asrwt>
<pdfrwt beam="1">  1        1 0.23240564E-01 0.26222701E+03</pdfrwt>
<pdfrwt beam="2">  1       -1 0.17507392E-01 0.26222701E+03</pdfrwt>
<totfact> 0.52157591E+03</totfact>
</mgrwt>
</event>
<event>
 4    1  0.3064919E-004  0.1917670E+03  0.7818608E-02  0.1156877E+00
         -1   -1    0    0    0  501 -0.00000000000E+00  0.00000000000E+00  0.79906837799E+01  0.79906853693E+01  0.50400000000E-02 0. -1.
          1   -1    0    0  501    0  0.00000000000E+00 -0.00000000000E+00 -0.11505458861E+04  0.11505458861E+04  0.50400000000E-02 0.  1.
    5000001    1    1    2    0    0  0.92734872333E+01  0.52079973704E+02 -0.44081634495E+03  0.45060667017E+03  0.77000000000E+02 0.  0.
   -5000001    1    1    2    0    0 -0.92734872333E+01 -0.52079973704E+02 -0.70173885736E+03  0.70792990130E+03  0.77000000000E+02 0.  0.
<mgrwt>
<rscale>  0 0.19176704E+03</rscale>
<asrwt>0</asrwt>
<pdfrwt beam="1">  1        1 0.17700693E+00 0.19176704E+03</pdfrwt>
<pdfrwt beam="2">  1       -1 0.12293370E-02 0.19176704E+03</pdfrwt>
<totfact> 0.16976388E+04</totfact>
</mgrwt>
</event>
<event>
 4    1  0.3064919E-004  0.2002702E+03  0.7818608E-02  0.1149511E+00
          1   -1    0    0  501    0  0.00000000000E+00  0.00000000000E+00  0.16493451733E+04  0.16493451733E+04  0.50400000000E-02 0. -1.
         -1   -1    0    0    0  501 -0.00000000000E+00 -0.00000000000E+00 -0.60794059658E+01  0.60794080549E+01  0.50400000000E-02 0.  1.
    5000001    1    1    2    0    0 -0.39942234060E+02  0.49991016254E+02  0.83722216229E+03  0.84318706868E+03  0.77000000000E+02 0.  0.
   -5000001    1    1    2    0    0  0.39942234060E+02 -0.49991016254E+02  0.80604360501E+03  0.81223751265E+03  0.77000000000E+02 0.  0.
<mgrwt>
<rscale>  0 0.20027022E+03</rscale>
<asrwt>0</asrwt>
<pdfrwt beam="1">  1        1 0.25374579E+00 0.20027022E+03</pdfrwt>
<pdfrwt beam="2">  1       -1 0.93529199E-03 0.20027022E+03</pdfrwt>
<totfact> 0.11698267E+04</totfact>
</mgrwt>
</event>
<event>
 4    1  0.3064919E-004  0.1966623E+03  0.7818608E-02  0.1152586E+00
         -1   -1    0    0    0  501 -0.00000000000E+00  0.00000000000E+00  0.41403518782E+01  0.41403549458E+01  0.50400000000E-02 0. -1.
          1   -1    0    0  501    0  0.00000000000E+00 -0.00000000000E+00 -0.23353123101E+04  0.23353123101E+04  0.50400000000E-02 0.  1.
    5000001    1    1    2    0    0  0.14359023632E+02 -0.41891491076E+02 -0.16673201635E+04  0.16696845828E+04  0.77000000000E+02 0.  0.
   -5000001    1    1    2    0    0 -0.14359023632E+02  0.41891491076E+02 -0.66385179476E+03  0.66976808224E+03  0.77000000000E+02 0.  0.
<mgrwt>
<rscale>  0 0.19666233E+03</rscale>
<asrwt>0</asrwt>
<pdfrwt beam="1">  1        1 0.35927776E+00 0.19666233E+03</pdfrwt>
<pdfrwt beam="2">  1       -1 0.63697932E-03 0.19666233E+03</pdfrwt>
<totfact> 0.73132821E+03</totfact>
</mgrwt>
</event>
<event>
 4    1  0.3064919E-004  0.3675521E+03  0.7818608E-02  0.1055633E+00
         -1   -1    0    0    0  501 -0.00000000000E+00  0.00000000000E+00  0.27121273473E+02  0.27121273941E+02  0.50400000000E-02 0. -1.
          1   -1    0    0  501    0  0.00000000000E+00 -0.00000000000E+00 -0.12452822049E+04  0.12452822049E+04  0.50400000000E-02 0.  1.
    5000001    1    1    2    0    0 -0.76793872358E+02 -0.58642500319E+02 -0.10800473093E+04  0.10870912713E+04  0.77000000000E+02 0.  0.
   -5000001    1    1    2    0    0  0.76793872358E+02  0.58642500319E+02 -0.13811362215E+03  0.18531220763E+03  0.77000000000E+02 0.  0.
<mgrwt>
<rscale>  0 0.36755212E+03</rscale>
<asrwt>0</asrwt>
<pdfrwt beam="1">  1        1 0.19158183E+00 0.36755212E+03</pdfrwt>
<pdfrwt beam="2">  1       -1 0.41725046E-02 0.36755212E+03</pdfrwt>
<totfact> 0.24606280E+03</totfact>
</mgrwt>
</event>
<event>
 4    1  0.3064919E-004  0.2300032E+03  0.7818608E-02  0.1126638E+00
         -1   -1    0    0    0  501 -0.00000000000E+00  0.00000000000E+00  0.36240775995E+02  0.36240776346E+02  0.50400000000E-02 0.  1.
          1   -1    0    0  501    0  0.00000000000E+00 -0.00000000000E+00 -0.36493061919E+03  0.36493061922E+03  0.50400000000E-02 0. -1.
    5000001    1    1    2    0    0 -0.25875293032E+02  0.78977387249E+02 -0.12992579486E+03  0.17238523909E+03  0.77000000000E+02 0.  0.
   -5000001    1    1    2    0    0  0.25875293032E+02 -0.78977387249E+02 -0.19876404833E+03  0.22878615648E+03  0.77000000000E+02 0.  0.
<mgrwt>
<rscale>  0 0.23000321E+03</rscale>
<asrwt>0</asrwt>
<pdfrwt beam="1">  1        1 0.56143170E-01 0.23000321E+03</pdfrwt>
<pdfrwt beam="2">  1       -1 0.55755043E-02 0.23000321E+03</pdfrwt>
<totfact> 0.10007016E+04</totfact>
</mgrwt>
</event>
<event>
 4    1  0.3064919E-004  0.2016004E+03  0.7818608E-02  0.1148396E+00
         -1   -1    0    0    0  501 -0.00000000000E+00  0.00000000000E+00  0.56331329735E+03  0.56331329737E+03  0.50400000000E-02 0. -1.
          1   -1    0    0  501    0  0.00000000000E+00 -0.00000000000E+00 -0.18037356872E+02  0.18037357576E+02  0.50400000000E-02 0.  1.
    5000001    1    1    2    0    0 -0.58806136691E+02 -0.24066340367E+02  0.23243855858E+03  0.25297042113E+03  0.77000000000E+02 0.  0.
   -5000001    1    1    2    0    0  0.58806136691E+02  0.24066340367E+02  0.31283738190E+03  0.32838023382E+03  0.77000000000E+02 0.  0.
<mgrwt>
<rscale>  0 0.20160043E+03</rscale>
<asrwt>0</asrwt>
<pdfrwt beam="1">  1        1 0.27749784E-02 0.20160043E+03</pdfrwt>
<pdfrwt beam="2">  1       -1 0.86663572E-01 0.20160043E+03</pdfrwt>
<totfact> 0.51390347E+03</totfact>
</mgrwt>
</event>
<event>
 4    1  0.3064919E-004  0.2435532E+03  0.7818608E-02  0.1117448E+00
         -1   -1    0    0    0  501 -0.00000000000E+00  0.00000000000E+00  0.48655437042E+03  0.48655437044E+03  0.50400000000E-02 0. -1.
          1   -1    0    0  501    0  0.00000000000E+00 -0.00000000000E+00 -0.30478689702E+02  0.30478690118E+02  0.50400000000E-02 0.  1.
    5000001    1    1    2    0    0  0.50769142260E+02 -0.47718383082E+02  0.93005784813E+02  0.13940454045E+03  0.77000000000E+02 0.  0.
   -5000001    1    1    2    0    0 -0.50769142260E+02  0.47718383082E+02  0.36306989590E+03  0.37762852011E+03  0.77000000000E+02 0.  0.
<mgrwt>
<rscale>  0 0.24355320E+03</rscale>
<asrwt>0</asrwt>
<pdfrwt beam="1">  1        1 0.46890294E-02 0.24355320E+03</pdfrwt>
<pdfrwt beam="2">  1       -1 0.74854515E-01 0.24355320E+03</pdfrwt>
<totfact> 0.33802829E+03</totfact>
</mgrwt>
</event>
<event>
 4    1  0.3064919E-004  0.1906707E+03  0.7818608E-02  0.1157858E+00
         -1   -1    0    0    0  501 -0.00000000000E+00  0.00000000000E+00  0.11366215055E+02  0.11366216173E+02  0.50400000000E-02 0. -1.
          1   -1    0    0  501    0  0.00000000000E+00 -0.00000000000E+00 -0.79963518308E+03  0.79963518309E+03  0.50400000000E-02 0.  1.
    5000001    1    1    2    0    0 -0.49345097398E+02  0.26817251397E+02 -0.40430922288E+03  0.41539023979E+03  0.77000000000E+02 0.  0.
   -5000001    1    1    2    0    0  0.49345097398E+02 -0.26817251397E+02 -0.38395974514E+03  0.39561115947E+03  0.77000000000E+02 0.  0.
<mgrwt>
<rscale>  0 0.19067067E+03</rscale>
<asrwt>0</asrwt>
<pdfrwt beam="1">  1        1 0.12302075E+00 0.19067067E+03</pdfrwt>
<pdfrwt beam="2">  1       -1 0.17486492E-02 0.19067067E+03</pdfrwt>
<totfact> 0.18759695E+04</totfact>
</mgrwt>
</event>
<event>
 4    1  0.3064919E-004  0.3329876E+03  0.7818608E-02  0.1069823E+00
          1   -1    0    0  501    0  0.00000000000E+00  0.00000000000E+00  0.10986840379E+04  0.10986840379E+04  0.50400000000E-02 0.  1.
         -1   -1    0    0    0  501 -0.00000000000E+00 -0.00000000000E+00 -0.25230353534E+02  0.25230354037E+02  0.50400000000E-02 0. -1.
    5000001    1    1    2    0    0  0.48139751004E+02  0.47475729204E+02  0.97964072436E+03  0.98498544624E+03  0.77000000000E+02 0.  0.
   -5000001    1    1    2    0    0 -0.48139751004E+02 -0.47475729204E+02  0.93812960017E+02  0.13892894571E+03  0.77000000000E+02 0.  0.
<mgrwt>
<rscale>  0 0.33298761E+03</rscale>
<asrwt>0</asrwt>
<pdfrwt beam="1">  1        1 0.16902831E+00 0.33298761E+03</pdfrwt>
<pdfrwt beam="2">  1       -1 0.38815929E-02 0.33298761E+03</pdfrwt>
<totfact> 0.34865030E+03</totfact>
</mgrwt>
</event>
<event>
 4    1  0.3064919E-004  0.2443047E+03  0.7818608E-02  0.1116958E+00
          1   -1    0    0  501    0  0.00000000000E+00  0.00000000000E+00  0.12454268446E+04  0.12454268446E+04  0.50400000000E-02 0. -1.
         -1   -1    0    0    0  501 -0.00000000000E+00 -0.00000000000E+00 -0.11980784280E+02  0.11980785340E+02  0.50400000000E-02 0.  1.
    5000001    1    1    2    0    0 -0.51058784153E+02  0.79904526021E+02  0.61323863699E+03  0.62528582153E+03  0.77000000000E+02 0.  0.
   -5000001    1    1    2    0    0  0.51058784153E+02 -0.79904526021E+02  0.62020742331E+03  0.63212180840E+03  0.77000000000E+02 0.  0.
<mgrwt>
<rscale>  0 0.24430465E+03</rscale>
<asrwt>0</asrwt>
<pdfrwt beam="1">  1        1 0.19160416E+00 0.24430465E+03</pdfrwt>
<pdfrwt beam="2">  1       -1 0.18431973E-02 0.24430465E+03</pdfrwt>
<totfact> 0.81923828E+03</totfact>
</mgrwt>
</event>
<event>
 4    1  0.3064919E-004  0.2794871E+03  0.7818608E-02  0.1095969E+00
          1   -1    0    0  501    0  0.00000000000E+00  0.00000000000E+00  0.12167741499E+03  0.12167741510E+03  0.50400000000E-02 0.  1.
         -1   -1    0    0    0  501 -0.00000000000E+00 -0.00000000000E+00 -0.16049212336E+03  0.16049212344E+03  0.50400000000E-02 0. -1.
    5000001    1    1    2    0    0  0.99963433310E+02  0.16734749896E+02 -0.77636953423E+02  0.14909472288E+03  0.77000000000E+02 0.  0.
   -5000001    1    1    2    0    0 -0.99963433310E+02 -0.16734749896E+02  0.38822245053E+02  0.13307481566E+03  0.77000000000E+02 0.  0.
<mgrwt>
<rscale>  0 0.27948715E+03</rscale>
<asrwt>0</asrwt>
<pdfrwt beam="1">  1        1 0.18719602E-01 0.27948715E+03</pdfrwt>
<pdfrwt beam="2">  1       -1 0.24691096E-01 0.27948715E+03</pdfrwt>
<totfact> 0.39378941E+03</totfact>
</mgrwt>
</event>
<event>
 4    1  0.3064919E-004  0.4055192E+03  0.7818608E-02  0.1041885E+00
          1   -1    0    0  501    0  0.00000000000E+00  0.00000000000E+00  0.88824627270E+03  0.88824627271E+03  0.50400000000E-02 0.  1.
         -1   -1    0    0    0  501 -0.00000000000E+00 -0.00000000000E+00 -0.46283845723E+02  0.46283845997E+02  0.50400000000E-02 0. -1.
    5000001    1    1    2    0    0 -0.11493820086E+03 -0.14815733273E+03  0.41040337524E+03  0.45773498410E+03  0.77000000000E+02 0.  0.
   -5000001    1    1    2    0    0  0.11493820086E+03  0.14815733273E+03  0.43155905174E+03  0.47679513462E+03  0.77000000000E+02 0.  0.
<mgrwt>
<rscale>  0 0.40551919E+03</rscale>
<asrwt>0</asrwt>
<pdfrwt beam="1">  1        1 0.13665327E+00 0.40551919E+03</pdfrwt>
<pdfrwt beam="2">  1       -1 0.71205920E-02 0.40551919E+03</pdfrwt>
<totfact> 0.20122237E+03</totfact>
</mgrwt>
</event>
<event>
 4    1  0.3064919E-004  0.2282644E+03  0.7818608E-02  0.1127867E+00
          1   -1    0    0  501    0  0.00000000000E+00  0.00000000000E+00  0.44375446006E+03  0.44375446008E+03  0.50400000000E-02 0.  1.
         -1   -1    0    0    0  501 -0.00000000000E+00 -0.00000000000E+00 -0.29354426355E+02  0.29354426788E+02  0.50400000000E-02 0. -1.
    5000001    1    1    2    0    0 -0.11027028095E+02 -0.83472915628E+02  0.21300144729E+03  0.24163596491E+03  0.77000000000E+02 0.  0.
   -5000001    1    1    2    0    0  0.11027028095E+02  0.83472915628E+02  0.20139858641E+03  0.23147292196E+03  0.77000000000E+02 0.  0.
<mgrwt>
<rscale>  0 0.22826439E+03</rscale>
<asrwt>0</asrwt>
<pdfrwt beam="1">  1        1 0.68269908E-01 0.22826439E+03</pdfrwt>
<pdfrwt beam="2">  1       -1 0.45160662E-02 0.22826439E+03</pdfrwt>
<totfact> 0.10670740E+04</totfact>
</mgrwt>
</event>
<event>
 4    1  0.3064919E-004  0.2188638E+03  0.7818608E-02  0.1134733E+00
         -1   -1    0    0    0  501 -0.00000000000E+00  0.00000000000E+00  0.12219445704E+03  0.12219445715E+03  0.50400000000E-02 0. -1.
          1   -1    0    0  501    0  0.00000000000E+00 -0.00000000000E+00 -0.98002348435E+02  0.98002348565E+02  0.50400000000E-02 0.  1.
    5000001    1    1    2    0    0 -0.72113461381E+02 -0.98516040228E+01 -0.15437359629E+02  0.10707342101E+03  0.77000000000E+02 0.  0.
   -5000001    1    1    2    0    0  0.72113461381E+02  0.98516040228E+01  0.39629468238E+02  0.11312338470E+03  0.77000000000E+02 0.  0.
<mgrwt>
<rscale>  0 0.21886383E+03</rscale>
<asrwt>0</asrwt>
<pdfrwt beam="1">  1        1 0.15077284E-01 0.21886383E+03</pdfrwt>
<pdfrwt beam="2">  1       -1 0.18799147E-01 0.21886383E+03</pdfrwt>
<totfact> 0.80671875E+03</totfact>
</mgrwt>
</event>
<event>
 4    1  0.3064919E-004  0.2213243E+03  0.7818608E-02  0.1132900E+00
         -1   -1    0    0    0  501 -0.00000000000E+00  0.00000000000E+00  0.80821748403E+02  0.80821748560E+02  0.50400000000E-02 0. -1.
          1   -1    0    0  501    0  0.00000000000E+00 -0.00000000000E+00 -0.15152000373E+03  0.15152000381E+03  0.50400000000E-02 0.  1.
    5000001    1    1    2    0    0 -0.39547038551E+02  0.18573664169E+02 -0.10504819232E+03  0.13737929963E+03  0.77000000000E+02 0.  0.
   -5000001    1    1    2    0    0  0.39547038551E+02 -0.18573664169E+02  0.34349936991E+02  0.94962452738E+02  0.77000000000E+02 0.  0.
<mgrwt>
<rscale>  0 0.22132430E+03</rscale>
<asrwt>0</asrwt>
<pdfrwt beam="1">  1        1 0.23310770E-01 0.22132430E+03</pdfrwt>
<pdfrwt beam="2">  1       -1 0.12434115E-01 0.22132430E+03</pdfrwt>
<totfact> 0.88593164E+03</totfact>
</mgrwt>
</event>
<event>
 4    1  0.3064919E-004  0.1913801E+03  0.7818608E-02  0.1157222E+00
         -1   -1    0    0    0  501 -0.00000000000E+00  0.00000000000E+00  0.49924524749E+03  0.49924524751E+03  0.50400000000E-02 0. -1.
          1   -1    0    0  501    0  0.00000000000E+00 -0.00000000000E+00 -0.18340856075E+02  0.18340856767E+02  0.50400000000E-02 0.  1.
    5000001    1    1    2    0    0  0.40716656256E+02  0.14391488732E+02  0.34028514772E+03  0.35155076846E+03  0.77000000000E+02 0.  0.
   -5000001    1    1    2    0    0 -0.40716656256E+02 -0.14391488732E+02  0.14061924369E+03  0.16603533582E+03  0.77000000000E+02 0.  0.
<mgrwt>
<rscale>  0 0.19138010E+03</rscale>
<asrwt>0</asrwt>
<pdfrwt beam="1">  1        1 0.28216699E-02 0.19138010E+03</pdfrwt>
<pdfrwt beam="2">  1       -1 0.76806970E-01 0.19138010E+03</pdfrwt>
<totfact> 0.64293540E+03</totfact>
</mgrwt>
</event>
<event>
 4    1  0.3064919E-004  0.3789509E+03  0.7818608E-02  0.1051322E+00
         -1   -1    0    0    0  501 -0.00000000000E+00  0.00000000000E+00  0.16425257381E+03  0.16425257388E+03  0.50400000000E-02 0. -1.
          1   -1    0    0  501    0  0.00000000000E+00 -0.00000000000E+00 -0.21857160055E+03  0.21857160061E+03  0.50400000000E-02 0.  1.
    5000001    1    1    2    0    0 -0.15923980940E+03  0.45702531738E+02  0.23612607914E+02  0.18420801708E+03  0.77000000000E+02 0.  0.
   -5000001    1    1    2    0    0  0.15923980940E+03 -0.45702531738E+02 -0.77931634657E+02  0.19861615741E+03  0.77000000000E+02 0.  0.
<mgrwt>
<rscale>  0 0.37895091E+03</rscale>
<asrwt>0</asrwt>
<pdfrwt beam="1">  1        1 0.33626400E-01 0.37895091E+03</pdfrwt>
<pdfrwt beam="2">  1       -1 0.25269627E-01 0.37895091E+03</pdfrwt>
<totfact> 0.17995663E+03</totfact>
</mgrwt>
</event>
<event>
 4    1  0.3064919E-004  0.1810394E+03  0.7818608E-02  0.1166801E+00
          1   -1    0    0  501    0  0.00000000000E+00  0.00000000000E+00  0.39843289553E+03  0.39843289557E+03  0.50400000000E-02 0.  1.
         -1   -1    0    0    0  501 -0.00000000000E+00 -0.00000000000E+00 -0.20565106258E+02  0.20565106875E+02  0.50400000000E-02 0. -1.
    5000001    1    1    2    0    0  0.42030303775E+02  0.17266841833E+02  0.15619309855E+03  0.17997214867E+03  0.77000000000E+02 0.  0.
   -5000001    1    1    2    0    0 -0.42030303775E+02 -0.17266841833E+02  0.22167469073E+03  0.23902585377E+03  0.77000000000E+02 0.  0.
<mgrwt>
<rscale>  0 0.18103939E+03</rscale>
<asrwt>0</asrwt>
<pdfrwt beam="1">  1        1 0.61297368E-01 0.18103939E+03</pdfrwt>
<pdfrwt beam="2">  1       -1 0.31638626E-02 0.18103939E+03</pdfrwt>
<totfact> 0.20415146E+04</totfact>
</mgrwt>
</event>
<event>
 4    1  0.3064919E-004  0.1794909E+03  0.7818608E-02  0.1168297E+00
          1   -1    0    0  501    0  0.00000000000E+00  0.00000000000E+00  0.15214914541E+03  0.15214914550E+03  0.50400000000E-02 0.  1.
         -1   -1    0    0    0  501 -0.00000000000E+00 -0.00000000000E+00 -0.52936490780E+02  0.52936491020E+02  0.50400000000E-02 0. -1.
    5000001    1    1    2    0    0 -0.38412512185E+02  0.16168876163E+01  0.20540627793E+02  0.88481934925E+02  0.77000000000E+02 0.  0.
   -5000001    1    1    2    0    0  0.38412512185E+02 -0.16168876163E+01  0.78672026839E+02  0.11660370159E+03  0.77000000000E+02 0.  0.
<mgrwt>
<rscale>  0 0.17949086E+03</rscale>
<asrwt>0</asrwt>
<pdfrwt beam="1">  1        1 0.23407561E-01 0.17949086E+03</pdfrwt>
<pdfrwt beam="2">  1       -1 0.81440755E-02 0.17949086E+03</pdfrwt>
<totfact> 0.16659858E+04</totfact>
</mgrwt>
</event>
<event>
 4    1  0.3064919E-004  0.2008320E+03  0.7818608E-02  0.1149039E+00
         -1   -1    0    0    0  501 -0.00000000000E+00  0.00000000000E+00  0.16682437098E+02  0.16682437859E+02  0.50400000000E-02 0. -1.
          1   -1    0    0  501    0  0.00000000000E+00 -0.00000000000E+00 -0.60443016956E+03  0.60443016958E+03  0.50400000000E-02 0.  1.
    5000001    1    1    2    0    0  0.41346992245E+02  0.47502080327E+02 -0.25142979596E+03  0.27039224046E+03  0.77000000000E+02 0.  0.
   -5000001    1    1    2    0    0 -0.41346992245E+02 -0.47502080327E+02 -0.33631793649E+03  0.35072036698E+03  0.77000000000E+02 0.  0.
<mgrwt>
<rscale>  0 0.20083195E+03</rscale>
<asrwt>0</asrwt>
<pdfrwt beam="1">  1        1 0.92989240E-01 0.20083195E+03</pdfrwt>
<pdfrwt beam="2">  1       -1 0.25665293E-02 0.20083195E+03</pdfrwt>
<totfact> 0.16140653E+04</totfact>
</mgrwt>
</event>
<event>
 4    1  0.3064919E-004  0.2793770E+03  0.7818608E-02  0.1096030E+00
         -1   -1    0    0    0  501 -0.00000000000E+00  0.00000000000E+00  0.83399142154E+02  0.83399142306E+02  0.50400000000E-02 0. -1.
          1   -1    0    0  501    0  0.00000000000E+00 -0.00000000000E+00 -0.23396971724E+03  0.23396971730E+03  0.50400000000E-02 0.  1.
    5000001    1    1    2    0    0 -0.54695948436E+02 -0.99620605753E+02 -0.10464484709E+03  0.17261360285E+03  0.77000000000E+02 0.  0.
   -5000001    1    1    2    0    0  0.54695948436E+02  0.99620605753E+02 -0.45925728002E+02  0.14475525676E+03  0.77000000000E+02 0.  0.
<mgrwt>
<rscale>  0 0.27937698E+03</rscale>
<asrwt>0</asrwt>
<pdfrwt beam="1">  1        1 0.35995341E-01 0.27937698E+03</pdfrwt>
<pdfrwt beam="2">  1       -1 0.12830637E-01 0.27937698E+03</pdfrwt>
<totfact> 0.49218468E+03</totfact>
</mgrwt>
</event>
<event>
 4    1  0.3064919E-004  0.2799011E+03  0.7818608E-02  0.1095743E+00
         -1   -1    0    0    0  501 -0.00000000000E+00  0.00000000000E+00  0.16491782547E+02  0.16491783317E+02  0.50400000000E-02 0.  1.
          1   -1    0    0  501    0  0.00000000000E+00 -0.00000000000E+00 -0.11876313690E+04  0.11876313690E+04  0.50400000000E-02 0. -1.
    5000001    1    1    2    0    0 -0.68638297387E+02  0.93867745615E+02 -0.53562458217E+03  0.55348447364E+03  0.77000000000E+02 0.  0.
   -5000001    1    1    2    0    0  0.68638297387E+02 -0.93867745615E+02 -0.63551500427E+03  0.65063867867E+03  0.77000000000E+02 0.  0.
<mgrwt>
<rscale>  0 0.27990112E+03</rscale>
<asrwt>0</asrwt>
<pdfrwt beam="1">  1        1 0.18271245E+00 0.27990112E+03</pdfrwt>
<pdfrwt beam="2">  1       -1 0.25371983E-02 0.27990112E+03</pdfrwt>
<totfact> 0.56463487E+03</totfact>
</mgrwt>
</event>
<event>
 4    1  0.3064919E-004  0.2060099E+03  0.7818608E-02  0.1144765E+00
          1   -1    0    0  501    0  0.00000000000E+00  0.00000000000E+00  0.15973667464E+03  0.15973667472E+03  0.50400000000E-02 0.  1.
         -1   -1    0    0    0  501 -0.00000000000E+00 -0.00000000000E+00 -0.66421930617E+02  0.66421930809E+02  0.50400000000E-02 0. -1.
    5000001    1    1    2    0    0 -0.10176765302E+02 -0.67287405493E+02  0.54408903576E+02  0.11627764307E+03  0.77000000000E+02 0.  0.
   -5000001    1    1    2    0    0  0.10176765302E+02  0.67287405493E+02  0.38905840450E+02  0.10988096246E+03  0.77000000000E+02 0.  0.
<mgrwt>
<rscale>  0 0.20600989E+03</rscale>
<asrwt>0</asrwt>
<pdfrwt beam="1">  1        1 0.24574873E-01 0.20600989E+03</pdfrwt>
<pdfrwt beam="2">  1       -1 0.10218759E-01 0.20600989E+03</pdfrwt>
<totfact> 0.11181570E+04</totfact>
</mgrwt>
</event>
<event>
 4    1  0.3064919E-004  0.2390591E+03  0.7818608E-02  0.1120421E+00
          1   -1    0    0  501    0  0.00000000000E+00  0.00000000000E+00  0.23922075404E+02  0.23922075935E+02  0.50400000000E-02 0.  1.
         -1   -1    0    0    0  501 -0.00000000000E+00 -0.00000000000E+00 -0.59724372570E+03  0.59724372572E+03  0.50400000000E-02 0. -1.
    5000001    1    1    2    0    0  0.76573304044E+02  0.45460767584E+02 -0.34042636439E+03  0.36020724848E+03  0.77000000000E+02 0.  0.
   -5000001    1    1    2    0    0 -0.76573304044E+02 -0.45460767584E+02 -0.23289528590E+03  0.26095855318E+03  0.77000000000E+02 0.  0.
<mgrwt>
<rscale>  0 0.23905907E+03</rscale>
<asrwt>0</asrwt>
<pdfrwt beam="1">  1        1 0.36803198E-02 0.23905907E+03</pdfrwt>
<pdfrwt beam="2">  1       -1 0.91883639E-01 0.23905907E+03</pdfrwt>
<totfact> 0.30810272E+03</totfact>
</mgrwt>
</event>
<event>
 4    1  0.3064919E-004  0.1620818E+03  0.7818608E-02  0.1186366E+00
          1   -1    0    0  501    0  0.00000000000E+00  0.00000000000E+00  0.40163542471E+03  0.40163542474E+03  0.50400000000E-02 0.  1.
         -1   -1    0    0    0  501 -0.00000000000E+00 -0.00000000000E+00 -0.16352209841E+02  0.16352210618E+02  0.50400000000E-02 0. -1.
    5000001    1    1    2    0    0  0.20510216921E+02  0.14429842070E+02  0.20068898852E+03  0.21641155111E+03  0.77000000000E+02 0.  0.
   -5000001    1    1    2    0    0 -0.20510216921E+02 -0.14429842070E+02  0.18459422635E+03  0.20157608425E+03  0.77000000000E+02 0.  0.
<mgrwt>
<rscale>  0 0.16208179E+03</rscale>
<asrwt>0</asrwt>
<pdfrwt beam="1">  1        1 0.61790058E-01 0.16208179E+03</pdfrwt>
<pdfrwt beam="2">  1       -1 0.25157250E-02 0.16208179E+03</pdfrwt>
<totfact> 0.27983723E+04</totfact>
</mgrwt>
</event>
<event>
 4    1  0.3064919E-004  0.2284249E+03  0.7818608E-02  0.1127753E+00
          1   -1    0    0  501    0  0.00000000000E+00  0.00000000000E+00  0.29203691111E+04  0.29203691111E+04  0.50400000000E-02 0. -1.
         -1   -1    0    0    0  501 -0.00000000000E+00 -0.00000000000E+00 -0.44667247787E+01  0.44667276221E+01  0.50400000000E-02 0.  1.
    5000001    1    1    2    0    0 -0.54961963101E+02  0.62469428034E+02  0.16354856113E+04  0.16394100865E+04  0.77000000000E+02 0.  0.
   -5000001    1    1    2    0    0  0.54961963101E+02 -0.62469428034E+02  0.12804167751E+04  0.12854257523E+04  0.77000000000E+02 0.  0.
<mgrwt>
<rscale>  0 0.22842495E+03</rscale>
<asrwt>0</asrwt>
<pdfrwt beam="1">  1        1 0.44928775E+00 0.22842495E+03</pdfrwt>
<pdfrwt beam="2">  1       -1 0.68718835E-03 0.22842495E+03</pdfrwt>
<totfact> 0.26659283E+03</totfact>
</mgrwt>
</event>
<event>
 4    1  0.3064919E-004  0.4956014E+03  0.7818608E-02  0.1014933E+00
         -1   -1    0    0    0  501 -0.00000000000E+00  0.00000000000E+00  0.52014736106E+02  0.52014736351E+02  0.50400000000E-02 0.  1.
          1   -1    0    0  501    0  0.00000000000E+00 -0.00000000000E+00 -0.11805345625E+04  0.11805345625E+04  0.50400000000E-02 0. -1.
    5000001    1    1    2    0    0 -0.59282876306E+02 -0.22438422919E+03 -0.66415630349E+03  0.70773959702E+03  0.77000000000E+02 0.  0.
   -5000001    1    1    2    0    0  0.59282876306E+02  0.22438422919E+03 -0.46436352288E+03  0.52480970181E+03  0.77000000000E+02 0.  0.
<mgrwt>
<rscale>  0 0.49560143E+03</rscale>
<asrwt>0</asrwt>
<pdfrwt beam="1">  1        1 0.18162068E+00 0.49560143E+03</pdfrwt>
<pdfrwt beam="2">  1       -1 0.80022680E-02 0.49560143E+03</pdfrwt>
<totfact> 0.10088789E+03</totfact>
</mgrwt>
</event>
<event>
 4    1  0.3064919E-004  0.3244940E+03  0.7818608E-02  0.1073599E+00
         -1   -1    0    0    0  501 -0.00000000000E+00  0.00000000000E+00  0.43984481790E+03  0.43984481792E+03  0.50400000000E-02 0. -1.
          1   -1    0    0  501    0  0.00000000000E+00 -0.00000000000E+00 -0.59848585936E+02  0.59848586148E+02  0.50400000000E-02 0.  1.
    5000001    1    1    2    0    0 -0.13939200332E+03  0.53726661121E+01  0.14288338267E+03  0.21401788984E+03  0.77000000000E+02 0.  0.
   -5000001    1    1    2    0    0  0.13939200332E+03 -0.53726661121E+01  0.23711284929E+03  0.28567551423E+03  0.77000000000E+02 0.  0.
<mgrwt>
<rscale>  0 0.32449401E+03</rscale>
<asrwt>0</asrwt>
<pdfrwt beam="1">  1        1 0.92074747E-02 0.32449401E+03</pdfrwt>
<pdfrwt beam="2">  1       -1 0.67668434E-01 0.32449401E+03</pdfrwt>
<totfact> 0.16505092E+03</totfact>
</mgrwt>
</event>
<event>
 4    1  0.3064919E-004  0.3134947E+03  0.7818608E-02  0.1078683E+00
         -1   -1    0    0    0  501 -0.00000000000E+00  0.00000000000E+00  0.14222289658E+03  0.14222289666E+03  0.50400000000E-02 0.  1.
          1   -1    0    0  501    0  0.00000000000E+00 -0.00000000000E+00 -0.17275512182E+03  0.17275512189E+03  0.50400000000E-02 0. -1.
    5000001    1    1    2    0    0  0.10936690692E+03 -0.27135531581E+02  0.62191300877E+02  0.14998071646E+03  0.77000000000E+02 0.  0.
   -5000001    1    1    2    0    0 -0.10936690692E+03  0.27135531581E+02 -0.92723526120E+02  0.16499730210E+03  0.77000000000E+02 0.  0.
<mgrwt>
<rscale>  0 0.31349471E+03</rscale>
<asrwt>0</asrwt>
<pdfrwt beam="1">  1        1 0.26577711E-01 0.31349471E+03</pdfrwt>
<pdfrwt beam="2">  1       -1 0.21880446E-01 0.31349471E+03</pdfrwt>
<totfact> 0.30748439E+03</totfact>
</mgrwt>
</event>
<event>
 4    1  0.3064919E-004  0.2079121E+03  0.7818608E-02  0.1143230E+00
         -1   -1    0    0    0  501 -0.00000000000E+00  0.00000000000E+00  0.68377246319E+01  0.68377264893E+01  0.50400000000E-02 0. -1.
          1   -1    0    0  501    0  0.00000000000E+00 -0.00000000000E+00 -0.15804766125E+04  0.15804766125E+04  0.50400000000E-02 0.  1.
    5000001    1    1    2    0    0 -0.49617122174E+02 -0.33172203780E+02 -0.10637347059E+04  0.10681866778E+04  0.77000000000E+02 0.  0.
   -5000001    1    1    2    0    0  0.49617122174E+02  0.33172203780E+02 -0.50990418190E+03  0.51912766121E+03  0.77000000000E+02 0.  0.
<mgrwt>
<rscale>  0 0.20791215E+03</rscale>
<asrwt>0</asrwt>
<pdfrwt beam="1">  1        1 0.24314996E+00 0.20791215E+03</pdfrwt>
<pdfrwt beam="2">  1       -1 0.10519590E-02 0.20791215E+03</pdfrwt>
<totfact> 0.10967005E+04</totfact>
</mgrwt>
</event>
<event>
 4    1  0.3064919E-004  0.2472572E+03  0.7818608E-02  0.1115051E+00
          1   -1    0    0  501    0  0.00000000000E+00  0.00000000000E+00  0.38344628033E+03  0.38344628036E+03  0.50400000000E-02 0.  1.
         -1   -1    0    0    0  501 -0.00000000000E+00 -0.00000000000E+00 -0.39859644653E+02  0.39859644971E+02  0.50400000000E-02 0. -1.
    5000001    1    1    2    0    0  0.32151645873E+02 -0.86265188611E+02  0.22256870943E+03  0.25286605450E+03  0.77000000000E+02 0.  0.
   -5000001    1    1    2    0    0 -0.32151645873E+02  0.86265188611E+02  0.12101792625E+03  0.17043987084E+03  0.77000000000E+02 0.  0.
<mgrwt>
<rscale>  0 0.24725721E+03</rscale>
<asrwt>0</asrwt>
<pdfrwt beam="1">  1        1 0.58991736E-01 0.24725721E+03</pdfrwt>
<pdfrwt beam="2">  1       -1 0.61322530E-02 0.24725721E+03</pdfrwt>
<totfact> 0.81716240E+03</totfact>
</mgrwt>
</event>
<event>
 4    1  0.3064919E-004  0.2587743E+03  0.7818608E-02  0.1107882E+00
         -1   -1    0    0    0  501 -0.00000000000E+00  0.00000000000E+00  0.19022490682E+02  0.19022491349E+02  0.50400000000E-02 0.  1.
          1   -1    0    0  501    0  0.00000000000E+00 -0.00000000000E+00 -0.88006546194E+03  0.88006546196E+03  0.50400000000E-02 0. -1.
    5000001    1    1    2    0    0  0.40476613472E+02  0.83482605082E+02 -0.26739673006E+03  0.29332185877E+03  0.77000000000E+02 0.  0.
   -5000001    1    1    2    0    0 -0.40476613472E+02 -0.83482605082E+02 -0.59364624120E+03  0.60576609453E+03  0.77000000000E+02 0.  0.
<mgrwt>
<rscale>  0 0.25877432E+03</rscale>
<asrwt>0</asrwt>
<pdfrwt beam="1">  1        1 0.13539465E+00 0.25877432E+03</pdfrwt>
<pdfrwt beam="2">  1       -1 0.29265378E-02 0.25877432E+03</pdfrwt>
<totfact> 0.77221254E+03</totfact>
</mgrwt>
</event>
<event>
 4    1  0.3064919E-004  0.1934462E+03  0.7818608E-02  0.1155389E+00
         -1   -1    0    0    0  501 -0.00000000000E+00  0.00000000000E+00  0.14228694966E+03  0.14228694975E+03  0.50400000000E-02 0.  1.
          1   -1    0    0  501    0  0.00000000000E+00 -0.00000000000E+00 -0.65749955444E+02  0.65749955637E+02  0.50400000000E-02 0. -1.
    5000001    1    1    2    0    0  0.53508487379E+02 -0.14647000902E+02  0.58349529015E+02  0.11140628525E+03  0.77000000000E+02 0.  0.
   -5000001    1    1    2    0    0 -0.53508487379E+02  0.14647000902E+02  0.18187465200E+02  0.96630620134E+02  0.77000000000E+02 0.  0.
<mgrwt>
<rscale>  0 0.19344623E+03</rscale>
<asrwt>0</asrwt>
<pdfrwt beam="1">  1        1 0.10115378E-01 0.19344623E+03</pdfrwt>
<pdfrwt beam="2">  1       -1 0.21890300E-01 0.19344623E+03</pdfrwt>
<totfact> 0.10599593E+04</totfact>
</mgrwt>
</event>
<event>
 4    1  0.3064919E-004  0.1636926E+03  0.7818608E-02  0.1184590E+00
         -1   -1    0    0    0  501 -0.00000000000E+00  0.00000000000E+00  0.49168889758E+01  0.49168915589E+01  0.50400000000E-02 0.  1.
          1   -1    0    0  501    0  0.00000000000E+00 -0.00000000000E+00 -0.13624090522E+04  0.13624090522E+04  0.50400000000E-02 0. -1.
    5000001    1    1    2    0    0  0.72892594461E+00 -0.21989270466E+02 -0.81994815643E+03  0.82384952424E+03  0.77000000000E+02 0.  0.
   -5000001    1    1    2    0    0 -0.72892594461E+00  0.21989270466E+02 -0.53754400680E+03  0.54347641954E+03  0.77000000000E+02 0.  0.
<mgrwt>
<rscale>  0 0.16369259E+03</rscale>
<asrwt>0</asrwt>
<pdfrwt beam="1">  1        1 0.20960109E+00 0.16369259E+03</pdfrwt>
<pdfrwt beam="2">  1       -1 0.75644574E-03 0.16369259E+03</pdfrwt>
<totfact> 0.24181612E+04</totfact>
</mgrwt>
</event>
<event>
 4    1  0.3064919E-004  0.2023980E+03  0.7818608E-02  0.1147731E+00
         -1   -1    0    0    0  501 -0.00000000000E+00  0.00000000000E+00  0.29776482763E+02  0.29776483190E+02  0.50400000000E-02 0. -1.
          1   -1    0    0  501    0  0.00000000000E+00 -0.00000000000E+00 -0.34393696598E+03  0.34393696601E+03  0.50400000000E-02 0.  1.
    5000001    1    1    2    0    0  0.31884288256E+02  0.21515819692E+02 -0.58807628732E+02  0.10424430695E+03  0.77000000000E+02 0.  0.
   -5000001    1    1    2    0    0 -0.31884288256E+02 -0.21515819692E+02 -0.25535285448E+03  0.26946914225E+03  0.77000000000E+02 0.  0.
<mgrwt>
<rscale>  0 0.20239796E+03</rscale>
<asrwt>0</asrwt>
<pdfrwt beam="1">  1        1 0.52913377E-01 0.20239796E+03</pdfrwt>
<pdfrwt beam="2">  1       -1 0.45809976E-02 0.20239796E+03</pdfrwt>
<totfact> 0.14352071E+04</totfact>
</mgrwt>
</event>
<event>
 4    1  0.3064919E-004  0.7115185E+03  0.7818608E-02  0.9697734E-01
          1   -1    0    0  501    0  0.00000000000E+00  0.00000000000E+00  0.35504105370E+03  0.35504105373E+03  0.50400000000E-02 0. -1.
         -1   -1    0    0    0  501 -0.00000000000E+00 -0.00000000000E+00 -0.35647892280E+03  0.35647892283E+03  0.50400000000E-02 0.  1.
    5000001    1    1    2    0    0  0.17229133037E+03  0.55639065783E+02 -0.29712406780E+03  0.35635897608E+03  0.77000000000E+02 0.  0.
   -5000001    1    1    2    0    0 -0.17229133037E+03 -0.55639065783E+02  0.29568619871E+03  0.35516100049E+03  0.77000000000E+02 0.  0.
<mgrwt>
<rscale>  0 0.71151852E+03</rscale>
<asrwt>0</asrwt>
<pdfrwt beam="1">  1        1 0.54621700E-01 0.71151852E+03</pdfrwt>
<pdfrwt beam="2">  1       -1 0.54842911E-01 0.71151852E+03</pdfrwt>
<totfact> 0.23939502E+02</totfact>
</mgrwt>
</event>
<event>
 4    1  0.3064919E-004  0.1649460E+03  0.7818608E-02  0.1183223E+00
          1   -1    0    0  501    0  0.00000000000E+00  0.00000000000E+00  0.76727733545E+03  0.76727733546E+03  0.50400000000E-02 0. -1.
         -1   -1    0    0    0  501 -0.00000000000E+00 -0.00000000000E+00 -0.88648487972E+01  0.88648502299E+01  0.50400000000E-02 0.  1.
    5000001    1    1    2    0    0 -0.18059239224E+02 -0.12257022756E+02  0.47289365824E+03  0.47961837197E+03  0.77000000000E+02 0.  0.
   -5000001    1    1    2    0    0  0.18059239224E+02  0.12257022756E+02  0.28551882841E+03  0.29652381372E+03  0.77000000000E+02 0.  0.
<mgrwt>
<rscale>  0 0.16494603E+03</rscale>
<asrwt>0</asrwt>
<pdfrwt beam="1">  1        1 0.11804264E+00 0.16494603E+03</pdfrwt>
<pdfrwt beam="2">  1       -1 0.13638233E-02 0.16494603E+03</pdfrwt>
<totfact> 0.28277826E+04</totfact>
</mgrwt>
</event>
<event>
 4    1  0.3064919E-004  0.2470546E+03  0.7818608E-02  0.1115181E+00
         -1   -1    0    0    0  501 -0.00000000000E+00  0.00000000000E+00  0.95093992381E+01  0.95094005737E+01  0.50400000000E-02 0. -1.
          1   -1    0    0  501    0  0.00000000000E+00 -0.00000000000E+00 -0.16046216804E+04  0.16046216804E+04  0.50400000000E-02 0.  1.
    5000001    1    1    2    0    0 -0.95204901583E+02  0.10561749630E+02 -0.71635510506E+03  0.72682127128E+03  0.77000000000E+02 0.  0.
   -5000001    1    1    2    0    0  0.95204901583E+02 -0.10561749630E+02 -0.87875717609E+03  0.88730980968E+03  0.77000000000E+02 0.  0.
<mgrwt>
<rscale>  0 0.24705456E+03</rscale>
<asrwt>0</asrwt>
<pdfrwt beam="1">  1        1 0.24686466E+00 0.24705456E+03</pdfrwt>
<pdfrwt beam="2">  1       -1 0.14629859E-02 0.24705456E+03</pdfrwt>
<totfact> 0.65949090E+03</totfact>
</mgrwt>
</event>
<event>
 4    1  0.3064919E-004  0.3804902E+03  0.7818608E-02  0.1050753E+00
          1   -1    0    0  501    0  0.00000000000E+00  0.00000000000E+00  0.68590973010E+03  0.68590973012E+03  0.50400000000E-02 0.  1.
         -1   -1    0    0    0  501 -0.00000000000E+00 -0.00000000000E+00 -0.52766699489E+02  0.52766699729E+02  0.50400000000E-02 0. -1.
    5000001    1    1    2    0    0 -0.94250205529E+01 -0.16654368938E+03  0.41244038995E+03  0.45151047247E+03  0.77000000000E+02 0.  0.
   -5000001    1    1    2    0    0  0.94250205529E+01  0.16654368938E+03  0.22070264066E+03  0.28716595738E+03  0.77000000000E+02 0.  0.
<mgrwt>
<rscale>  0 0.38049017E+03</rscale>
<asrwt>0</asrwt>
<pdfrwt beam="1">  1        1 0.10552456E+00 0.38049017E+03</pdfrwt>
<pdfrwt beam="2">  1       -1 0.81179545E-02 0.38049017E+03</pdfrwt>
<totfact> 0.24531085E+03</totfact>
</mgrwt>
</event>
<event>
 4    1  0.3064919E-004  0.1654898E+03  0.7818608E-02  0.1182635E+00
          1   -1    0    0  501    0  0.00000000000E+00  0.00000000000E+00  0.10158604445E+02  0.10158605695E+02  0.50400000000E-02 0. -1.
         -1   -1    0    0    0  501 -0.00000000000E+00 -0.00000000000E+00 -0.67398175392E+03  0.67398175394E+03  0.50400000000E-02 0.  1.
    5000001    1    1    2    0    0  0.82378686882E+00 -0.20911859088E+02 -0.24136489154E+03  0.25421250037E+03  0.77000000000E+02 0.  0.
   -5000001    1    1    2    0    0 -0.82378686882E+00  0.20911859088E+02 -0.42245825793E+03  0.42992785926E+03  0.77000000000E+02 0.  0.
<mgrwt>
<rscale>  0 0.16548975E+03</rscale>
<asrwt>0</asrwt>
<pdfrwt beam="1">  1        1 0.15628628E-02 0.16548975E+03</pdfrwt>
<pdfrwt beam="2">  1       -1 0.10368947E+00 0.16548975E+03</pdfrwt>
<totfact> 0.76835571E+03</totfact>
</mgrwt>
</event>
<event>
 4    1  0.3064919E-004  0.2924236E+03  0.7818608E-02  0.1089090E+00
          1   -1    0    0  501    0  0.00000000000E+00  0.00000000000E+00  0.14474326554E+04  0.14474326554E+04  0.50400000000E-02 0.  1.
         -1   -1    0    0    0  501 -0.00000000000E+00 -0.00000000000E+00 -0.14769526890E+02  0.14769527750E+02  0.50400000000E-02 0. -1.
    5000001    1    1    2    0    0  0.66319888381E+02 -0.86726525467E+02  0.10133788584E+04  0.10221475082E+04  0.77000000000E+02 0.  0.
   -5000001    1    1    2    0    0 -0.66319888381E+02  0.86726525467E+02  0.41928427012E+03  0.44005467499E+03  0.77000000000E+02 0.  0.
<mgrwt>
<rscale>  0 0.29242364E+03</rscale>
<asrwt>0</asrwt>
<pdfrwt beam="1">  1        1 0.22268194E+00 0.29242364E+03</pdfrwt>
<pdfrwt beam="2">  1       -1 0.22722350E-02 0.29242364E+03</pdfrwt>
<totfact> 0.44135998E+03</totfact>
</mgrwt>
</event>
<event>
 4    1  0.3064919E-004  0.1665896E+03  0.7818608E-02  0.1181452E+00
          1   -1    0    0  501    0  0.00000000000E+00  0.00000000000E+00  0.79617936603E+03  0.79617936604E+03  0.50400000000E-02 0. -1.
         -1   -1    0    0    0  501 -0.00000000000E+00 -0.00000000000E+00 -0.87141448912E+01  0.87141463487E+01  0.50400000000E-02 0.  1.
    5000001    1    1    2    0    0 -0.15209163061E+02 -0.20497163019E+02  0.30236937403E+03  0.31306180010E+03  0.77000000000E+02 0.  0.
   -5000001    1    1    2    0    0  0.15209163061E+02  0.20497163019E+02  0.48509584710E+03  0.49183171229E+03  0.77000000000E+02 0.  0.
<mgrwt>
<rscale>  0 0.16658959E+03</rscale>
<asrwt>0</asrwt>
<pdfrwt beam="1">  1        1 0.12248913E+00 0.16658959E+03</pdfrwt>
<pdfrwt beam="2">  1       -1 0.13406378E-02 0.16658959E+03</pdfrwt>
<totfact> 0.27439610E+04</totfact>
</mgrwt>
</event>
<event>
 4    1  0.3064919E-004  0.2245220E+03  0.7818608E-02  0.1130556E+00
          1   -1    0    0  501    0  0.00000000000E+00  0.00000000000E+00  0.52241697752E+03  0.52241697755E+03  0.50400000000E-02 0. -1.
         -1   -1    0    0    0  501 -0.00000000000E+00 -0.00000000000E+00 -0.24123516729E+02  0.24123517255E+02  0.50400000000E-02 0.  1.
    5000001    1    1    2    0    0 -0.23476789281E+02  0.66197243505E+02  0.35069568972E+03  0.36585475461E+03  0.77000000000E+02 0.  0.
   -5000001    1    1    2    0    0  0.23476789281E+02 -0.66197243505E+02  0.14759777107E+03  0.18068574019E+03  0.77000000000E+02 0.  0.
<mgrwt>
<rscale>  0 0.22452202E+03</rscale>
<asrwt>0</asrwt>
<pdfrwt beam="1">  1        1 0.80371850E-01 0.22452202E+03</pdfrwt>
<pdfrwt beam="2">  1       -1 0.37113100E-02 0.22452202E+03</pdfrwt>
<totfact> 0.11512044E+04</totfact>
</mgrwt>
</event>
<event>
 4    1  0.3064919E-004  0.2108753E+03  0.7818608E-02  0.1140875E+00
         -1   -1    0    0    0  501 -0.00000000000E+00  0.00000000000E+00  0.76415656815E+02  0.76415656981E+02  0.50400000000E-02 0. -1.
          1   -1    0    0  501    0  0.00000000000E+00 -0.00000000000E+00 -0.14548192182E+03  0.14548192191E+03  0.50400000000E-02 0.  1.
    5000001    1    1    2    0    0 -0.17252020748E+02 -0.59115462329E+02 -0.73846713279E+02  0.12318525548E+03  0.77000000000E+02 0.  0.
   -5000001    1    1    2    0    0  0.17252020748E+02  0.59115462329E+02  0.47804482745E+01  0.98712323405E+02  0.77000000000E+02 0.  0.
<mgrwt>
<rscale>  0 0.21087529E+03</rscale>
<asrwt>0</asrwt>
<pdfrwt beam="1">  1        1 0.22381834E-01 0.21087529E+03</pdfrwt>
<pdfrwt beam="2">  1       -1 0.11756255E-01 0.21087529E+03</pdfrwt>
<totfact> 0.10152513E+04</totfact>
</mgrwt>
</event>
<event>
 4    1  0.3064919E-004  0.1890273E+03  0.7818608E-02  0.1159342E+00
         -1   -1    0    0    0  501 -0.00000000000E+00  0.00000000000E+00  0.20760735628E+02  0.20760736240E+02  0.50400000000E-02 0. -1.
          1   -1    0    0  501    0  0.00000000000E+00 -0.00000000000E+00 -0.43027504683E+03  0.43027504686E+03  0.50400000000E-02 0.  1.
    5000001    1    1    2    0    0  0.47395494774E+02  0.27500789819E+02 -0.20214302865E+03  0.22314441601E+03  0.77000000000E+02 0.  0.
   -5000001    1    1    2    0    0 -0.47395494774E+02 -0.27500789819E+02 -0.20737128255E+03  0.22789136709E+03  0.77000000000E+02 0.  0.
<mgrwt>
<rscale>  0 0.18902726E+03</rscale>
<asrwt>0</asrwt>
<pdfrwt beam="1">  1        1 0.66196154E-01 0.18902726E+03</pdfrwt>
<pdfrwt beam="2">  1       -1 0.31939597E-02 0.18902726E+03</pdfrwt>
<totfact> 0.18311484E+04</totfact>
</mgrwt>
</event>
<event>
 4    1  0.3064919E-004  0.2709495E+03  0.7818608E-02  0.1100737E+00
         -1   -1    0    0    0  501 -0.00000000000E+00  0.00000000000E+00  0.35163266116E+02  0.35163266477E+02  0.50400000000E-02 0.  1.
          1   -1    0    0  501    0  0.00000000000E+00 -0.00000000000E+00 -0.52194824552E+03  0.52194824555E+03  0.50400000000E-02 0. -1.
    5000001    1    1    2    0    0 -0.44993472078E+02  0.48750662349E+02 -0.42756809288E+03  0.43948209709E+03  0.77000000000E+02 0.  0.
   -5000001    1    1    2    0    0  0.44993472078E+02 -0.48750662349E+02 -0.59216886527E+02  0.11762941494E+03  0.77000000000E+02 0.  0.
<mgrwt>
<rscale>  0 0.27094948E+03</rscale>
<asrwt>0</asrwt>
<pdfrwt beam="1">  1        1 0.80299724E-01 0.27094948E+03</pdfrwt>
<pdfrwt beam="2">  1       -1 0.54097337E-02 0.27094948E+03</pdfrwt>
<totfact> 0.66253619E+03</totfact>
</mgrwt>
</event>
<event>
 4    1  0.3064919E-004  0.2061957E+03  0.7818608E-02  0.1144615E+00
          1   -1    0    0  501    0  0.00000000000E+00  0.00000000000E+00  0.19140275167E+03  0.19140275174E+03  0.50400000000E-02 0.  1.
         -1   -1    0    0    0  501 -0.00000000000E+00 -0.00000000000E+00 -0.55532979259E+02  0.55532979488E+02  0.50400000000E-02 0. -1.
    5000001    1    1    2    0    0 -0.31913560138E+02 -0.48798639820E+02  0.11112058226E+03  0.14722963822E+03  0.77000000000E+02 0.  0.
   -5000001    1    1    2    0    0  0.31913560138E+02  0.48798639820E+02  0.24749190151E+02  0.99706093004E+02  0.77000000000E+02 0.  0.
<mgrwt>
<rscale>  0 0.20619568E+03</rscale>
<asrwt>0</asrwt>
<pdfrwt beam="1">  1        1 0.29446577E-01 0.20619568E+03</pdfrwt>
<pdfrwt beam="2">  1       -1 0.85435354E-02 0.20619568E+03</pdfrwt>
<totfact> 0.11711535E+04</totfact>
</mgrwt>
</event>
<event>
 4    1  0.3064919E-004  0.5104065E+03  0.7818608E-02  0.1011098E+00
          1   -1    0    0  501    0  0.00000000000E+00  0.00000000000E+00  0.10221450007E+04  0.10221450007E+04  0.50400000000E-02 0.  1.
         -1   -1    0    0    0  501 -0.00000000000E+00 -0.00000000000E+00 -0.63717682019E+02  0.63717682218E+02  0.50400000000E-02 0. -1.
    5000001    1    1    2    0    0  0.16282979751E+03 -0.11429416765E+03  0.18119634806E+03  0.27988893558E+03  0.77000000000E+02 0.  0.
   -5000001    1    1    2    0    0 -0.16282979751E+03  0.11429416765E+03  0.77723097066E+03  0.80597374738E+03  0.77000000000E+02 0.  0.
<mgrwt>
<rscale>  0 0.51040654E+03</rscale>
<asrwt>0</asrwt>
<pdfrwt beam="1">  1        1 0.15725305E+00 0.51040654E+03</pdfrwt>
<pdfrwt beam="2">  1       -1 0.98027217E-02 0.51040654E+03</pdfrwt>
<totfact> 0.96115717E+02</totfact>
</mgrwt>
</event>
<event>
 4    1  0.3064919E-004  0.3252522E+03  0.7818608E-02  0.1073257E+00
         -1   -1    0    0    0  501 -0.00000000000E+00  0.00000000000E+00  0.75083471213E+02  0.75083471383E+02  0.50400000000E-02 0. -1.
          1   -1    0    0  501    0  0.00000000000E+00 -0.00000000000E+00 -0.35223798905E+03  0.35223798909E+03  0.50400000000E-02 0.  1.
    5000001    1    1    2    0    0  0.77932865706E+02  0.11398638962E+03 -0.88517219908E+02  0.18119251308E+03  0.77000000000E+02 0.  0.
   -5000001    1    1    2    0    0 -0.77932865706E+02 -0.11398638962E+03 -0.18863729793E+03  0.24612894739E+03  0.77000000000E+02 0.  0.
<mgrwt>
<rscale>  0 0.32525222E+03</rscale>
<asrwt>0</asrwt>
<pdfrwt beam="1">  1        1 0.54190459E-01 0.32525222E+03</pdfrwt>
<pdfrwt beam="2">  1       -1 0.11551303E-01 0.32525222E+03</pdfrwt>
<totfact> 0.34754136E+03</totfact>
</mgrwt>
</event>
<event>
 4    1  0.3064919E-004  0.1948828E+03  0.7818608E-02  0.1154130E+00
          1   -1    0    0  501    0  0.00000000000E+00  0.00000000000E+00  0.45022683979E+03  0.45022683981E+03  0.50400000000E-02 0. -1.
         -1   -1    0    0    0  501 -0.00000000000E+00 -0.00000000000E+00 -0.21088978165E+02  0.21088978767E+02  0.50400000000E-02 0.  1.
    5000001    1    1    2    0    0  0.19424746242E+02  0.50563665637E+02  0.15377854068E+03  0.18030763884E+03  0.77000000000E+02 0.  0.
   -5000001    1    1    2    0    0 -0.19424746242E+02 -0.50563665637E+02  0.27535932094E+03  0.29100817974E+03  0.77000000000E+02 0.  0.
<mgrwt>
<rscale>  0 0.19488278E+03</rscale>
<asrwt>0</asrwt>
<pdfrwt beam="1">  1        1 0.69265674E-01 0.19488278E+03</pdfrwt>
<pdfrwt beam="2">  1       -1 0.32444579E-02 0.19488278E+03</pdfrwt>
<totfact> 0.16916097E+04</totfact>
</mgrwt>
</event>
<event>
 4    1  0.3064919E-004  0.3362055E+03  0.7818608E-02  0.1068424E+00
         -1   -1    0    0    0  501 -0.00000000000E+00  0.00000000000E+00  0.44038537087E+02  0.44038537376E+02  0.50400000000E-02 0. -1.
          1   -1    0    0  501    0  0.00000000000E+00 -0.00000000000E+00 -0.64167752543E+03  0.64167752545E+03  0.50400000000E-02 0.  1.
    5000001    1    1    2    0    0  0.11601030751E+03 -0.64336108672E+01 -0.49047170854E+03  0.50989340030E+03  0.77000000000E+02 0.  0.
   -5000001    1    1    2    0    0 -0.11601030751E+03  0.64336108672E+01 -0.10716727981E+03  0.17582266253E+03  0.77000000000E+02 0.  0.
<mgrwt>
<rscale>  0 0.33620553E+03</rscale>
<asrwt>0</asrwt>
<pdfrwt beam="1">  1        1 0.98719613E-01 0.33620553E+03</pdfrwt>
<pdfrwt beam="2">  1       -1 0.67751600E-02 0.33620553E+03</pdfrwt>
<totfact> 0.35605911E+03</totfact>
</mgrwt>
</event>
<event>
 4    1  0.3064919E-004  0.2326046E+03  0.7818608E-02  0.1124820E+00
          1   -1    0    0  501    0  0.00000000000E+00  0.00000000000E+00  0.32430278806E+03  0.32430278810E+03  0.50400000000E-02 0. -1.
         -1   -1    0    0    0  501 -0.00000000000E+00 -0.00000000000E+00 -0.41708643925E+02  0.41708644229E+02  0.50400000000E-02 0.  1.
    5000001    1    1    2    0    0 -0.78268872423E+02 -0.36397601094E+02  0.12225614569E+03  0.16830438768E+03  0.77000000000E+02 0.  0.
   -5000001    1    1    2    0    0  0.78268872423E+02  0.36397601094E+02  0.16033799845E+03  0.19770704465E+03  0.77000000000E+02 0.  0.
<mgrwt>
<rscale>  0 0.23260464E+03</rscale>
<asrwt>0</asrwt>
<pdfrwt beam="1">  1        1 0.49892736E-01 0.23260464E+03</pdfrwt>
<pdfrwt beam="2">  1       -1 0.64167146E-02 0.23260464E+03</pdfrwt>
<totfact> 0.94074843E+03</totfact>
</mgrwt>
</event>
<event>
 4    1  0.3064919E-004  0.1779739E+03  0.7818608E-02  0.1169778E+00
          1   -1    0    0  501    0  0.00000000000E+00  0.00000000000E+00  0.70650006796E+03  0.70650006798E+03  0.50400000000E-02 0.  1.
         -1   -1    0    0    0  501 -0.00000000000E+00 -0.00000000000E+00 -0.11208313728E+02  0.11208314862E+02  0.50400000000E-02 0. -1.
    5000001    1    1    2    0    0  0.10312886345E+02  0.42498602409E+02  0.31221624514E+03  0.32453115499E+03  0.77000000000E+02 0.  0.
   -5000001    1    1    2    0    0 -0.10312886345E+02 -0.42498602409E+02  0.38307550909E+03  0.39317722785E+03  0.77000000000E+02 0.  0.
<mgrwt>
<rscale>  0 0.17797387E+03</rscale>
<asrwt>0</asrwt>
<pdfrwt beam="1">  1        1 0.10869233E+00 0.17797387E+03</pdfrwt>
<pdfrwt beam="2">  1       -1 0.17243559E-02 0.17797387E+03</pdfrwt>
<totfact> 0.22892489E+04</totfact>
</mgrwt>
</event>
<event>
 4    1  0.3064919E-004  0.2039046E+03  0.7818608E-02  0.1146486E+00
          1   -1    0    0  501    0  0.00000000000E+00  0.00000000000E+00  0.20406703908E+04  0.20406703908E+04  0.50400000000E-02 0. -1.
         -1   -1    0    0    0  501 -0.00000000000E+00 -0.00000000000E+00 -0.50935547258E+01  0.50935572193E+01  0.50400000000E-02 0.  1.
    5000001    1    1    2    0    0  0.15553846030E+02  0.64128008681E+02  0.11234660081E+04  0.11280333306E+04  0.77000000000E+02 0.  0.
   -5000001    1    1    2    0    0 -0.15553846030E+02 -0.64128008681E+02  0.91211082799E+03  0.91773061742E+03  0.77000000000E+02 0.  0.
<mgrwt>
<rscale>  0 0.20390457E+03</rscale>
<asrwt>0</asrwt>
<pdfrwt beam="1">  1        1 0.31394970E+00 0.20390457E+03</pdfrwt>
<pdfrwt beam="2">  1       -1 0.78362299E-03 0.20390457E+03</pdfrwt>
<totfact> 0.84409329E+03</totfact>
</mgrwt>
</event>
<event>
 4    1  0.3064919E-004  0.2305069E+03  0.7818608E-02  0.1126283E+00
         -1   -1    0    0    0  501 -0.00000000000E+00  0.00000000000E+00  0.12454905650E+03  0.12454905660E+03  0.50400000000E-02 0. -1.
          1   -1    0    0  501    0  0.00000000000E+00 -0.00000000000E+00 -0.10665163982E+03  0.10665163994E+03  0.50400000000E-02 0.  1.
    5000001    1    1    2    0    0  0.56839712187E+02 -0.13204108716E+02  0.71980986365E+02  0.12047972347E+03  0.77000000000E+02 0.  0.
   -5000001    1    1    2    0    0 -0.56839712187E+02  0.13204108716E+02 -0.54083569684E+02  0.11072097307E+03  0.77000000000E+02 0.  0.
<mgrwt>
<rscale>  0 0.23050693E+03</rscale>
<asrwt>0</asrwt>
<pdfrwt beam="1">  1        1 0.16407945E-01 0.23050693E+03</pdfrwt>
<pdfrwt beam="2">  1       -1 0.19161393E-01 0.23050693E+03</pdfrwt>
<totfact> 0.70252551E+03</totfact>
</mgrwt>
</event>
<event>
 4    1  0.3064919E-004  0.2557932E+03  0.7818608E-02  0.1109697E+00
         -1   -1    0    0    0  501 -0.00000000000E+00  0.00000000000E+00  0.15428768197E+03  0.15428768206E+03  0.50400000000E-02 0. -1.
          1   -1    0    0  501    0  0.00000000000E+00 -0.00000000000E+00 -0.10601973477E+03  0.10601973489E+03  0.50400000000E-02 0.  1.
    5000001    1    1    2    0    0 -0.93227503472E+02 -0.41673745313E+02  0.24832153443E+02  0.13028316966E+03  0.77000000000E+02 0.  0.
   -5000001    1    1    2    0    0  0.93227503472E+02  0.41673745313E+02  0.23435793764E+02  0.13002424728E+03  0.77000000000E+02 0.  0.
<mgrwt>
<rscale>  0 0.25579319E+03</rscale>
<asrwt>0</asrwt>
<pdfrwt beam="1">  1        1 0.16310728E-01 0.25579319E+03</pdfrwt>
<pdfrwt beam="2">  1       -1 0.23736567E-01 0.25579319E+03</pdfrwt>
<totfact> 0.50129258E+03</totfact>
</mgrwt>
</event>
<event>
 4    1  0.3064919E-004  0.2459957E+03  0.7818608E-02  0.1115862E+00
         -1   -1    0    0    0  501 -0.00000000000E+00  0.00000000000E+00  0.38369043035E+02  0.38369043366E+02  0.50400000000E-02 0. -1.
          1   -1    0    0  501    0  0.00000000000E+00 -0.00000000000E+00 -0.39428835255E+03  0.39428835258E+03  0.50400000000E-02 0.  1.
    5000001    1    1    2    0    0 -0.10424071667E+01 -0.81289415186E+02 -0.88443579442E+02  0.14268960151E+03  0.77000000000E+02 0.  0.
   -5000001    1    1    2    0    0  0.10424071667E+01  0.81289415186E+02 -0.26747573007E+03  0.28996779444E+03  0.77000000000E+02 0.  0.
<mgrwt>
<rscale>  0 0.24599567E+03</rscale>
<asrwt>0</asrwt>
<pdfrwt beam="1">  1        1 0.60659744E-01 0.24599567E+03</pdfrwt>
<pdfrwt beam="2">  1       -1 0.59029300E-02 0.24599567E+03</pdfrwt>
<totfact> 0.83500495E+03</totfact>
</mgrwt>
</event>
<event>
 4    1  0.3064919E-004  0.2967979E+03  0.7818608E-02  0.1086852E+00
         -1   -1    0    0    0  501 -0.00000000000E+00  0.00000000000E+00  0.20006066100E+02  0.20006066735E+02  0.50400000000E-02 0. -1.
          1   -1    0    0  501    0  0.00000000000E+00 -0.00000000000E+00 -0.11007783195E+04  0.11007783195E+04  0.50400000000E-02 0.  1.
    5000001    1    1    2    0    0  0.40059296606E+02 -0.84847856819E+02 -0.21797847694E+03  0.24949453393E+03  0.77000000000E+02 0.  0.
   -5000001    1    1    2    0    0 -0.40059296606E+02  0.84847856819E+02 -0.86279377643E+03  0.87128985228E+03  0.77000000000E+02 0.  0.
<mgrwt>
<rscale>  0 0.29679787E+03</rscale>
<asrwt>0</asrwt>
<pdfrwt beam="1">  1        1 0.16935046E+00 0.29679787E+03</pdfrwt>
<pdfrwt beam="2">  1       -1 0.30778572E-02 0.29679787E+03</pdfrwt>
<totfact> 0.49004424E+03</totfact>
</mgrwt>
</event>
<event>
 4    1  0.3064919E-004  0.2051153E+03  0.7818608E-02  0.1145494E+00
         -1   -1    0    0    0  501 -0.00000000000E+00  0.00000000000E+00  0.74833832338E+01  0.74833849310E+01  0.50400000000E-02 0.  1.
          1   -1    0    0  501    0  0.00000000000E+00 -0.00000000000E+00 -0.14055236942E+04  0.14055236942E+04  0.50400000000E-02 0. -1.
    5000001    1    1    2    0    0 -0.51182653894E+02  0.40199935547E+02 -0.56952187219E+03  0.57837692017E+03  0.77000000000E+02 0.  0.
   -5000001    1    1    2    0    0  0.51182653894E+02 -0.40199935547E+02 -0.82851843878E+03  0.83463015898E+03  0.77000000000E+02 0.  0.
<mgrwt>
<rscale>  0 0.20511532E+03</rscale>
<asrwt>0</asrwt>
<pdfrwt beam="1">  1        1 0.21623420E+00 0.20511532E+03</pdfrwt>
<pdfrwt beam="2">  1       -1 0.11512910E-02 0.20511532E+03</pdfrwt>
<totfact> 0.12548074E+04</totfact>
</mgrwt>
</event>
<event>
 4    1  0.3064919E-004  0.2422900E+03  0.7818608E-02  0.1118277E+00
         -1   -1    0    0    0  501 -0.00000000000E+00  0.00000000000E+00  0.11126077543E+03  0.11126077554E+03  0.50400000000E-02 0.  1.
          1   -1    0    0  501    0  0.00000000000E+00 -0.00000000000E+00 -0.13190737679E+03  0.13190737689E+03  0.50400000000E-02 0. -1.
    5000001    1    1    2    0    0  0.27551509163E+02 -0.83625597519E+02 -0.41977913335E+02  0.12427176439E+03  0.77000000000E+02 0.  0.
   -5000001    1    1    2    0    0 -0.27551509163E+02  0.83625597519E+02  0.21331311969E+02  0.11889638804E+03  0.77000000000E+02 0.  0.
<mgrwt>
<rscale>  0 0.24229005E+03</rscale>
<asrwt>0</asrwt>
<pdfrwt beam="1">  1        1 0.20293443E-01 0.24229005E+03</pdfrwt>
<pdfrwt beam="2">  1       -1 0.17117042E-01 0.24229005E+03</pdfrwt>
<totfact> 0.64131724E+03</totfact>
</mgrwt>
</event>
<event>
 4    1  0.3064919E-004  0.1826164E+03  0.7818608E-02  0.1165295E+00
          1   -1    0    0  501    0  0.00000000000E+00  0.00000000000E+00  0.67147929703E+03  0.67147929705E+03  0.50400000000E-02 0.  1.
         -1   -1    0    0    0  501 -0.00000000000E+00 -0.00000000000E+00 -0.12416153885E+02  0.12416154908E+02  0.50400000000E-02 0. -1.
    5000001    1    1    2    0    0 -0.20119601144E+02 -0.39636201734E+02  0.25166079303E+03  0.26690444280E+03  0.77000000000E+02 0.  0.
   -5000001    1    1    2    0    0  0.20119601144E+02  0.39636201734E+02  0.40740235012E+03  0.41699100916E+03  0.77000000000E+02 0.  0.
<mgrwt>
<rscale>  0 0.18261644E+03</rscale>
<asrwt>0</asrwt>
<pdfrwt beam="1">  1        1 0.10330449E+00 0.18261644E+03</pdfrwt>
<pdfrwt beam="2">  1       -1 0.19101778E-02 0.18261644E+03</pdfrwt>
<totfact> 0.21273248E+04</totfact>
</mgrwt>
</event>
<event>
 4    1  0.3064919E-004  0.2105624E+03  0.7818608E-02  0.1141121E+00
         -1   -1    0    0    0  501 -0.00000000000E+00  0.00000000000E+00  0.36139628689E+02  0.36139629041E+02  0.50400000000E-02 0.  1.
          1   -1    0    0  501    0  0.00000000000E+00 -0.00000000000E+00 -0.30670309936E+03  0.30670309941E+03  0.50400000000E-02 0. -1.
    5000001    1    1    2    0    0  0.61337526249E+02  0.36913873724E+02 -0.12633242934E+03  0.16435878103E+03  0.77000000000E+02 0.  0.
   -5000001    1    1    2    0    0 -0.61337526249E+02 -0.36913873724E+02 -0.14423104134E+03  0.17848394741E+03  0.77000000000E+02 0.  0.
<mgrwt>
<rscale>  0 0.21056245E+03</rscale>
<asrwt>0</asrwt>
<pdfrwt beam="1">  1        1 0.47185090E-01 0.21056245E+03</pdfrwt>
<pdfrwt beam="2">  1       -1 0.55599431E-02 0.21056245E+03</pdfrwt>
<totfact> 0.12444490E+04</totfact>
</mgrwt>
</event>
<event>
 4    1  0.3064919E-004  0.2533131E+03  0.7818608E-02  0.1111229E+00
         -1   -1    0    0    0  501 -0.00000000000E+00  0.00000000000E+00  0.29676520078E+03  0.29676520083E+03  0.50400000000E-02 0. -1.
          1   -1    0    0  501    0  0.00000000000E+00 -0.00000000000E+00 -0.54055795461E+02  0.54055795696E+02  0.50400000000E-02 0.  1.
    5000001    1    1    2    0    0  0.19734850725E+02 -0.95035587936E+02  0.84932039392E+02  0.15021211210E+03  0.77000000000E+02 0.  0.
   -5000001    1    1    2    0    0 -0.19734850725E+02  0.95035587936E+02  0.15777736593E+03  0.20060888442E+03  0.77000000000E+02 0.  0.
<mgrwt>
<rscale>  0 0.25331308E+03</rscale>
<asrwt>0</asrwt>
<pdfrwt beam="1">  1        1 0.83162762E-02 0.25331308E+03</pdfrwt>
<pdfrwt beam="2">  1       -1 0.45656185E-01 0.25331308E+03</pdfrwt>
<totfact> 0.39730376E+03</totfact>
</mgrwt>
</event>
<event>
 4    1  0.3064919E-004  0.3432984E+03  0.7818608E-02  0.1065400E+00
          1   -1    0    0  501    0  0.00000000000E+00  0.00000000000E+00  0.19008790041E+04  0.19008790041E+04  0.50400000000E-02 0.  1.
         -1   -1    0    0    0  501 -0.00000000000E+00 -0.00000000000E+00 -0.15499903214E+02  0.15499904034E+02  0.50400000000E-02 0. -1.
    5000001    1    1    2    0    0  0.12229837519E+03  0.10377251669E+02  0.14564347820E+04  0.14636242189E+04  0.77000000000E+02 0.  0.
   -5000001    1    1    2    0    0 -0.12229837519E+03 -0.10377251669E+02  0.42894431886E+03  0.45275468922E+03  0.77000000000E+02 0.  0.
<mgrwt>
<rscale>  0 0.34329836E+03</rscale>
<asrwt>0</asrwt>
<pdfrwt beam="1">  1        1 0.29244295E+00 0.34329836E+03</pdfrwt>
<pdfrwt beam="2">  1       -1 0.23846003E-02 0.34329836E+03</pdfrwt>
<totfact> 0.20660214E+03</totfact>
</mgrwt>
</event>
<event>
 4    1  0.3064919E-004  0.2124633E+03  0.7818608E-02  0.1139630E+00
         -1   -1    0    0    0  501 -0.00000000000E+00  0.00000000000E+00  0.60766895375E+02  0.60766895584E+02  0.50400000000E-02 0. -1.
          1   -1    0    0  501    0  0.00000000000E+00 -0.00000000000E+00 -0.18571241837E+03  0.18571241844E+03  0.50400000000E-02 0.  1.
    5000001    1    1    2    0    0  0.61672119749E+02 -0.28057193742E+02 -0.94570327725E+02  0.13951058512E+03  0.77000000000E+02 0.  0.
   -5000001    1    1    2    0    0 -0.61672119749E+02  0.28057193742E+02 -0.30375195270E+02  0.10696872890E+03  0.77000000000E+02 0.  0.
<mgrwt>
<rscale>  0 0.21246333E+03</rscale>
<asrwt>0</asrwt>
<pdfrwt beam="1">  1        1 0.28571141E-01 0.21246333E+03</pdfrwt>
<pdfrwt beam="2">  1       -1 0.93487533E-02 0.21246333E+03</pdfrwt>
<totfact> 0.10618806E+04</totfact>
</mgrwt>
</event>
<event>
 4    1  0.3064919E-004  0.2132855E+03  0.7818608E-02  0.1138990E+00
         -1   -1    0    0    0  501 -0.00000000000E+00  0.00000000000E+00  0.22689357354E+02  0.22689357914E+02  0.50400000000E-02 0. -1.
          1   -1    0    0  501    0  0.00000000000E+00 -0.00000000000E+00 -0.50123411487E+03  0.50123411490E+03  0.50400000000E-02 0.  1.
    5000001    1    1    2    0    0 -0.30701053231E+01 -0.31387046567E+02 -0.40312104720E+03  0.41161893899E+03  0.77000000000E+02 0.  0.
   -5000001    1    1    2    0    0  0.30701053231E+01  0.31387046567E+02 -0.75423710320E+02  0.11230453382E+03  0.77000000000E+02 0.  0.
<mgrwt>
<rscale>  0 0.21328554E+03</rscale>
<asrwt>0</asrwt>
<pdfrwt beam="1">  1        1 0.77112933E-01 0.21328554E+03</pdfrwt>
<pdfrwt beam="2">  1       -1 0.34906708E-02 0.21328554E+03</pdfrwt>
<totfact> 0.13276886E+04</totfact>
</mgrwt>
</event>
<event>
 4    1  0.3064919E-004  0.2162379E+03  0.7818608E-02  0.1136719E+00
          1   -1    0    0  501    0  0.00000000000E+00  0.00000000000E+00  0.11991177646E+04  0.11991177646E+04  0.50400000000E-02 0. -1.
         -1   -1    0    0    0  501 -0.00000000000E+00 -0.00000000000E+00 -0.97485863855E+01  0.97485876884E+01  0.50400000000E-02 0.  1.
    5000001    1    1    2    0    0 -0.28107507911E+02 -0.41148660708E+02  0.27463651816E+03  0.28954699340E+03  0.77000000000E+02 0.  0.
   -5000001    1    1    2    0    0  0.28107507911E+02  0.41148660708E+02  0.91473266008E+03  0.91931935893E+03  0.77000000000E+02 0.  0.
<mgrwt>
<rscale>  0 0.21623787E+03</rscale>
<asrwt>0</asrwt>
<pdfrwt beam="1">  1        1 0.18447945E+00 0.21623787E+03</pdfrwt>
<pdfrwt beam="2">  1       -1 0.14997843E-02 0.21623787E+03</pdfrwt>
<totfact> 0.11850030E+04</totfact>
</mgrwt>
</event>
<event>
 4    1  0.3064919E-004  0.1975255E+03  0.7818608E-02  0.1151844E+00
          1   -1    0    0  501    0  0.00000000000E+00  0.00000000000E+00  0.21747629578E+04  0.21747629578E+04  0.50400000000E-02 0.  1.
         -1   -1    0    0    0  501 -0.00000000000E+00 -0.00000000000E+00 -0.44851230992E+01  0.44851259310E+01  0.50400000000E-02 0. -1.
    5000001    1    1    2    0    0  0.24566538530E+02 -0.30818165826E+02  0.55927990427E+03  0.56592957643E+03  0.77000000000E+02 0.  0.
   -5000001    1    1    2    0    0 -0.24566538530E+02  0.30818165826E+02  0.16109979305E+04  0.16133185073E+04  0.77000000000E+02 0.  0.
<mgrwt>
<rscale>  0 0.19752552E+03</rscale>
<asrwt>0</asrwt>
<pdfrwt beam="1">  1        1 0.33457886E+00 0.19752552E+03</pdfrwt>
<pdfrwt beam="2">  1       -1 0.69001927E-03 0.19752552E+03</pdfrwt>
<totfact> 0.82919355E+03</totfact>
</mgrwt>
</event>
<event>
 4    1  0.3064919E-004  0.2660147E+03  0.7818608E-02  0.1103582E+00
          1   -1    0    0  501    0  0.00000000000E+00  0.00000000000E+00  0.31206346075E+02  0.31206346482E+02  0.50400000000E-02 0.  1.
         -1   -1    0    0    0  501 -0.00000000000E+00 -0.00000000000E+00 -0.56690232101E+03  0.56690232104E+03  0.50400000000E-02 0. -1.
    5000001    1    1    2    0    0  0.76160680143E+02 -0.18827573307E+02 -0.43620868119E+03  0.44984657414E+03  0.77000000000E+02 0.  0.
   -5000001    1    1    2    0    0 -0.76160680143E+02  0.18827573307E+02 -0.99487293744E+02  0.14826209338E+03  0.77000000000E+02 0.  0.
<mgrwt>
<rscale>  0 0.26601466E+03</rscale>
<asrwt>0</asrwt>
<pdfrwt beam="1">  1        1 0.48009768E-02 0.26601466E+03</pdfrwt>
<pdfrwt beam="2">  1       -1 0.87215734E-01 0.26601466E+03</pdfrwt>
<totfact> 0.23878017E+03</totfact>
</mgrwt>
</event>
<event>
 4    1  0.3064919E-004  0.1917098E+03  0.7818608E-02  0.1156928E+00
         -1   -1    0    0    0  501 -0.00000000000E+00  0.00000000000E+00  0.73807647470E+02  0.73807647642E+02  0.50400000000E-02 0.  1.
          1   -1    0    0  501    0  0.00000000000E+00 -0.00000000000E+00 -0.12448792677E+03  0.12448792687E+03  0.50400000000E-02 0. -1.
    5000001    1    1    2    0    0 -0.18541004339E+02  0.40209617088E+02 -0.62613873232E+02  0.10867418861E+03  0.77000000000E+02 0.  0.
   -5000001    1    1    2    0    0  0.18541004339E+02 -0.40209617088E+02  0.11933593930E+02  0.89621385910E+02  0.77000000000E+02 0.  0.
<mgrwt>
<rscale>  0 0.19170979E+03</rscale>
<asrwt>0</asrwt>
<pdfrwt beam="1">  1        1 0.19151989E-01 0.19170979E+03</pdfrwt>
<pdfrwt beam="2">  1       -1 0.11355023E-01 0.19170979E+03</pdfrwt>
<totfact> 0.12996389E+04</totfact>
</mgrwt>
</event>
<event>
 4    1  0.3064919E-004  0.3805251E+03  0.7818608E-02  0.1050740E+00
          1   -1    0    0  501    0  0.00000000000E+00  0.00000000000E+00  0.68283734178E+03  0.68283734179E+03  0.50400000000E-02 0.  1.
         -1   -1    0    0    0  501 -0.00000000000E+00 -0.00000000000E+00 -0.53013858097E+02  0.53013858336E+02  0.50400000000E-02 0. -1.
    5000001    1    1    2    0    0 -0.43222106217E+02  0.16719662523E+03  0.35584120246E+03  0.40295759494E+03  0.77000000000E+02 0.  0.
   -5000001    1    1    2    0    0  0.43222106217E+02 -0.16719662523E+03  0.27398228122E+03  0.33289360518E+03  0.77000000000E+02 0.  0.
<mgrwt>
<rscale>  0 0.38052512E+03</rscale>
<asrwt>0</asrwt>
<pdfrwt beam="1">  1        1 0.10505189E+00 0.38052512E+03</pdfrwt>
<pdfrwt beam="2">  1       -1 0.81559789E-02 0.38052512E+03</pdfrwt>
<totfact> 0.24515731E+03</totfact>
</mgrwt>
</event>
<event>
 4    1  0.3064919E-004  0.1819389E+03  0.7818608E-02  0.1165940E+00
          1   -1    0    0  501    0  0.00000000000E+00  0.00000000000E+00  0.11297393652E+03  0.11297393663E+03  0.50400000000E-02 0.  1.
         -1   -1    0    0    0  501 -0.00000000000E+00 -0.00000000000E+00 -0.73250889201E+02  0.73250889374E+02  0.50400000000E-02 0. -1.
    5000001    1    1    2    0    0  0.79902503617E+01 -0.45071015059E+02  0.36388460473E+01  0.89652003323E+02  0.77000000000E+02 0.  0.
   -5000001    1    1    2    0    0 -0.79902503617E+01  0.45071015059E+02  0.36084201270E+02  0.96572822681E+02  0.77000000000E+02 0.  0.
<mgrwt>
<rscale>  0 0.18193891E+03</rscale>
<asrwt>0</asrwt>
<pdfrwt beam="1">  1        1 0.17380606E-01 0.18193891E+03</pdfrwt>
<pdfrwt beam="2">  1       -1 0.11269368E-01 0.18193891E+03</pdfrwt>
<totfact> 0.14840428E+04</totfact>
</mgrwt>
</event>
<event>
 4    1  0.3064919E-004  0.1759081E+03  0.7818608E-02  0.1171823E+00
         -1   -1    0    0    0  501 -0.00000000000E+00  0.00000000000E+00  0.15260116935E+02  0.15260117767E+02  0.50400000000E-02 0.  1.
          1   -1    0    0  501    0  0.00000000000E+00 -0.00000000000E+00 -0.50693651333E+03  0.50693651336E+03  0.50400000000E-02 0. -1.
    5000001    1    1    2    0    0  0.26536278393E+02  0.29003684354E+02 -0.29384504964E+03  0.30629936496E+03  0.77000000000E+02 0.  0.
   -5000001    1    1    2    0    0 -0.26536278393E+02 -0.29003684354E+02 -0.19783134676E+03  0.21589726616E+03  0.77000000000E+02 0.  0.
<mgrwt>
<rscale>  0 0.17590805E+03</rscale>
<asrwt>0</asrwt>
<pdfrwt beam="1">  1        1 0.77990220E-01 0.17590805E+03</pdfrwt>
<pdfrwt beam="2">  1       -1 0.23477108E-02 0.17590805E+03</pdfrwt>
<totfact> 0.23075230E+04</totfact>
</mgrwt>
</event>
<event>
 4    1  0.3064919E-004  0.2419989E+03  0.7818608E-02  0.1118468E+00
         -1   -1    0    0    0  501 -0.00000000000E+00  0.00000000000E+00  0.64487809756E+03  0.64487809758E+03  0.50400000000E-02 0.  1.
          1   -1    0    0  501    0  0.00000000000E+00 -0.00000000000E+00 -0.22703314338E+02  0.22703314897E+02  0.50400000000E-02 0. -1.
    5000001    1    1    2    0    0  0.49664034596E+01 -0.77499778086E+02  0.16825116903E+03  0.20066972030E+03  0.77000000000E+02 0.  0.
   -5000001    1    1    2    0    0 -0.49664034596E+01  0.77499778086E+02  0.45392361419E+03  0.46691169217E+03  0.77000000000E+02 0.  0.
<mgrwt>
<rscale>  0 0.24199893E+03</rscale>
<asrwt>0</asrwt>
<pdfrwt beam="1">  1        1 0.34928176E-02 0.24199893E+03</pdfrwt>
<pdfrwt beam="2">  1       -1 0.99212016E-01 0.24199893E+03</pdfrwt>
<totfact> 0.28035663E+03</totfact>
</mgrwt>
</event>
<event>
 4    1  0.3064919E-004  0.1805185E+03  0.7818608E-02  0.1167302E+00
         -1   -1    0    0    0  501 -0.00000000000E+00  0.00000000000E+00  0.10867744378E+03  0.10867744389E+03  0.50400000000E-02 0. -1.
          1   -1    0    0  501    0  0.00000000000E+00 -0.00000000000E+00 -0.74962505440E+02  0.74962505610E+02  0.50400000000E-02 0.  1.
    5000001    1    1    2    0    0  0.35517841971E+01  0.46484661488E+02  0.23627968031E+02  0.93062988335E+02  0.77000000000E+02 0.  0.
   -5000001    1    1    2    0    0 -0.35517841971E+01 -0.46484661488E+02  0.10086970307E+02  0.90576961169E+02  0.77000000000E+02 0.  0.
<mgrwt>
<rscale>  0 0.18051851E+03</rscale>
<asrwt>0</asrwt>
<pdfrwt beam="1">  1        1 0.11532693E-01 0.18051851E+03</pdfrwt>
<pdfrwt beam="2">  1       -1 0.16719607E-01 0.18051851E+03</pdfrwt>
<totfact> 0.13667133E+04</totfact>
</mgrwt>
</event>
<event>
 4    1  0.3064919E-004  0.3629735E+03  0.7818608E-02  0.1057413E+00
         -1   -1    0    0    0  501 -0.00000000000E+00  0.00000000000E+00  0.66478290179E+02  0.66478290370E+02  0.50400000000E-02 0.  1.
          1   -1    0    0  501    0  0.00000000000E+00 -0.00000000000E+00 -0.49546166970E+03  0.49546166973E+03  0.50400000000E-02 0. -1.
    5000001    1    1    2    0    0 -0.89474310022E+02  0.17446837062E+02 -0.42618990515E+03  0.44257980018E+03  0.77000000000E+02 0.  0.
   -5000001    1    1    2    0    0  0.89474310022E+02 -0.17446837062E+02 -0.27934743779E+01  0.11936015992E+03  0.77000000000E+02 0.  0.
<mgrwt>
<rscale>  0 0.36297352E+03</rscale>
<asrwt>0</asrwt>
<pdfrwt beam="1">  1        1 0.76224870E-01 0.36297352E+03</pdfrwt>
<pdfrwt beam="2">  1       -1 0.10227430E-01 0.36297352E+03</pdfrwt>
<totfact> 0.26996391E+03</totfact>
</mgrwt>
</event>
<event>
 4    1  0.3064919E-004  0.3587193E+03  0.7818608E-02  0.1059092E+00
         -1   -1    0    0    0  501 -0.00000000000E+00  0.00000000000E+00  0.16891096335E+02  0.16891097087E+02  0.50400000000E-02 0.  1.
          1   -1    0    0  501    0  0.00000000000E+00 -0.00000000000E+00 -0.19045470892E+04  0.19045470892E+04  0.50400000000E-02 0. -1.
    5000001    1    1    2    0    0  0.92459662038E+02  0.85882825009E+02 -0.14878699182E+04  0.14951958207E+04  0.77000000000E+02 0.  0.
   -5000001    1    1    2    0    0 -0.92459662038E+02 -0.85882825009E+02 -0.39978607466E+03  0.42624236560E+03  0.77000000000E+02 0.  0.
<mgrwt>
<rscale>  0 0.35871933E+03</rscale>
<asrwt>0</asrwt>
<pdfrwt beam="1">  1        1 0.29300707E+00 0.35871933E+03</pdfrwt>
<pdfrwt beam="2">  1       -1 0.25986318E-02 0.35871933E+03</pdfrwt>
<totfact> 0.18079522E+03</totfact>
</mgrwt>
</event>
<event>
 4    1  0.3064919E-004  0.1896423E+03  0.7818608E-02  0.1158784E+00
          1   -1    0    0  501    0  0.00000000000E+00  0.00000000000E+00  0.15426482843E+03  0.15426482851E+03  0.50400000000E-02 0.  1.
         -1   -1    0    0    0  501 -0.00000000000E+00 -0.00000000000E+00 -0.58283194909E+02  0.58283195127E+02  0.50400000000E-02 0. -1.
    5000001    1    1    2    0    0 -0.87084107273E+01  0.25185747222E+02  0.10234466938E+03  0.13081891924E+03  0.77000000000E+02 0.  0.
   -5000001    1    1    2    0    0  0.87084107273E+01 -0.25185747222E+02 -0.63630358595E+01  0.81729104399E+02  0.77000000000E+02 0.  0.
<mgrwt>
<rscale>  0 0.18964226E+03</rscale>
<asrwt>0</asrwt>
<pdfrwt beam="1">  1        1 0.23733050E-01 0.18964226E+03</pdfrwt>
<pdfrwt beam="2">  1       -1 0.89666455E-02 0.18964226E+03</pdfrwt>
<totfact> 0.14200566E+04</totfact>
</mgrwt>
</event>
<event>
 4    1  0.3064919E-004  0.2723348E+03  0.7818608E-02  0.1099951E+00
         -1   -1    0    0    0  501 -0.00000000000E+00  0.00000000000E+00  0.43580509637E+02  0.43580509928E+02  0.50400000000E-02 0. -1.
          1   -1    0    0  501    0  0.00000000000E+00 -0.00000000000E+00 -0.42545523593E+03  0.42545523596E+03  0.50400000000E-02 0.  1.
    5000001    1    1    2    0    0 -0.63456226632E+02 -0.92183126574E+02 -0.20710609583E+03  0.24768196635E+03  0.77000000000E+02 0.  0.
   -5000001    1    1    2    0    0  0.63456226632E+02  0.92183126574E+02 -0.17476863047E+03  0.22135377954E+03  0.77000000000E+02 0.  0.
<mgrwt>
<rscale>  0 0.27233477E+03</rscale>
<asrwt>0</asrwt>
<pdfrwt beam="1">  1        1 0.65454649E-01 0.27233477E+03</pdfrwt>
<pdfrwt beam="2">  1       -1 0.67046941E-02 0.27233477E+03</pdfrwt>
<totfact> 0.62716710E+03</totfact>
</mgrwt>
</event>
<event>
 4    1  0.3064919E-004  0.2398056E+03  0.7818608E-02  0.1119922E+00
          1   -1    0    0  501    0  0.00000000000E+00  0.00000000000E+00  0.68584708206E+03  0.68584708208E+03  0.50400000000E-02 0.  1.
         -1   -1    0    0    0  501 -0.00000000000E+00 -0.00000000000E+00 -0.20961942009E+02  0.20961942614E+02  0.50400000000E-02 0. -1.
    5000001    1    1    2    0    0 -0.63314173799E+02  0.51835321555E+02  0.20906893754E+03  0.23734870088E+03  0.77000000000E+02 0.  0.
   -5000001    1    1    2    0    0  0.63314173799E+02 -0.51835321555E+02  0.45581620251E+03  0.46946032381E+03  0.77000000000E+02 0.  0.
<mgrwt>
<rscale>  0 0.23980565E+03</rscale>
<asrwt>0</asrwt>
<pdfrwt beam="1">  1        1 0.10551491E+00 0.23980565E+03</pdfrwt>
<pdfrwt beam="2">  1       -1 0.32249149E-02 0.23980565E+03</pdfrwt>
<totfact> 0.97484540E+03</totfact>
</mgrwt>
</event>
<event>
 4    1  0.3064919E-004  0.2227975E+03  0.7818608E-02  0.1131814E+00
         -1   -1    0    0    0  501 -0.00000000000E+00  0.00000000000E+00  0.53416535518E+02  0.53416535756E+02  0.50400000000E-02 0.  1.
          1   -1    0    0  501    0  0.00000000000E+00 -0.00000000000E+00 -0.23231915566E+03  0.23231915572E+03  0.50400000000E-02 0. -1.
    5000001    1    1    2    0    0  0.63444341048E+02 -0.13853250732E+02 -0.28434040391E+02  0.10466418499E+03  0.77000000000E+02 0.  0.
   -5000001    1    1    2    0    0 -0.63444341048E+02  0.13853250732E+02 -0.15046857976E+03  0.18107150648E+03  0.77000000000E+02 0.  0.
<mgrwt>
<rscale>  0 0.22279753E+03</rscale>
<asrwt>0</asrwt>
<pdfrwt beam="1">  1        1 0.35741408E-01 0.22279753E+03</pdfrwt>
<pdfrwt beam="2">  1       -1 0.82179287E-02 0.22279753E+03</pdfrwt>
<totfact> 0.97927583E+03</totfact>
</mgrwt>
</event>
<event>
 4    1  0.3064919E-004  0.5609725E+03  0.7818608E-02  0.9989856E-01
         -1   -1    0    0    0  501 -0.00000000000E+00  0.00000000000E+00  0.41152700055E+03  0.41152700058E+03  0.50400000000E-02 0.  1.
          1   -1    0    0  501    0  0.00000000000E+00 -0.00000000000E+00 -0.19117225973E+03  0.19117225980E+03  0.50400000000E-02 0. -1.
    5000001    1    1    2    0    0  0.24529529503E+03  0.36200451666E+02  0.22420017895E+03  0.34303786191E+03  0.77000000000E+02 0.  0.
   -5000001    1    1    2    0    0 -0.24529529503E+03 -0.36200451666E+02 -0.38454381283E+01  0.25966139847E+03  0.77000000000E+02 0.  0.
<mgrwt>
<rscale>  0 0.56097254E+03</rscale>
<asrwt>0</asrwt>
<pdfrwt beam="1">  1        1 0.29411117E-01 0.56097254E+03</pdfrwt>
<pdfrwt beam="2">  1       -1 0.63311846E-01 0.56097254E+03</pdfrwt>
<totfact> 0.40460242E+02</totfact>
</mgrwt>
</event>
<event>
 4    1  0.3064919E-004  0.2913661E+03  0.7818608E-02  0.1089638E+00
          1   -1    0    0  501    0  0.00000000000E+00  0.00000000000E+00  0.89967851852E+03  0.89967851854E+03  0.50400000000E-02 0.  1.
         -1   -1    0    0    0  501 -0.00000000000E+00 -0.00000000000E+00 -0.23590154719E+02  0.23590155257E+02  0.50400000000E-02 0. -1.
    5000001    1    1    2    0    0  0.72678554033E+01 -0.10733720077E+03  0.24476400627E+03  0.27823104635E+03  0.77000000000E+02 0.  0.
   -5000001    1    1    2    0    0 -0.72678554033E+01  0.10733720077E+03  0.63132435754E+03  0.64503762744E+03  0.77000000000E+02 0.  0.
<mgrwt>
<rscale>  0 0.29136613E+03</rscale>
<asrwt>0</asrwt>
<pdfrwt beam="1">  1        1 0.13841206E+00 0.29136613E+03</pdfrwt>
<pdfrwt beam="2">  1       -1 0.36292551E-02 0.29136613E+03</pdfrwt>
<totfact> 0.54353601E+03</totfact>
</mgrwt>
</event>
<event>
 4    1  0.3064919E-004  0.3945016E+03  0.7818608E-02  0.1045700E+00
         -1   -1    0    0    0  501 -0.00000000000E+00  0.00000000000E+00  0.59213157437E+02  0.59213157651E+02  0.50400000000E-02 0.  1.
          1   -1    0    0  501    0  0.00000000000E+00 -0.00000000000E+00 -0.65708153668E+03  0.65708153670E+03  0.50400000000E-02 0. -1.
    5000001    1    1    2    0    0  0.15274163466E+03 -0.91048287745E+02 -0.36587095049E+03  0.41401733064E+03  0.77000000000E+02 0.  0.
   -5000001    1    1    2    0    0 -0.15274163466E+03  0.91048287745E+02 -0.23199742876E+03  0.30227736371E+03  0.77000000000E+02 0.  0.
<mgrwt>
<rscale>  0 0.39450157E+03</rscale>
<asrwt>0</asrwt>
<pdfrwt beam="1">  1        1 0.10108946E+00 0.39450157E+03</pdfrwt>
<pdfrwt beam="2">  1       -1 0.91097170E-02 0.39450157E+03</pdfrwt>
<totfact> 0.21852898E+03</totfact>
</mgrwt>
</event>
<event>
 4    1  0.3064919E-004  0.1922716E+03  0.7818608E-02  0.1156428E+00
         -1   -1    0    0    0  501 -0.00000000000E+00  0.00000000000E+00  0.56266692173E+02  0.56266692399E+02  0.50400000000E-02 0. -1.
          1   -1    0    0  501    0  0.00000000000E+00 -0.00000000000E+00 -0.16425517552E+03  0.16425517560E+03  0.50400000000E-02 0.  1.
    5000001    1    1    2    0    0  0.50825253006E+02  0.14943629956E+02 -0.79808472087E+02  0.12290203675E+03  0.77000000000E+02 0.  0.
   -5000001    1    1    2    0    0 -0.50825253006E+02 -0.14943629956E+02 -0.28180011264E+02  0.97619831254E+02  0.77000000000E+02 0.  0.
<mgrwt>
<rscale>  0 0.19227164E+03</rscale>
<asrwt>0</asrwt>
<pdfrwt beam="1">  1        1 0.25270027E-01 0.19227164E+03</pdfrwt>
<pdfrwt beam="2">  1       -1 0.86564143E-02 0.19227164E+03</pdfrwt>
<totfact> 0.13854230E+04</totfact>
</mgrwt>
</event>
<event>
 4    1  0.3064919E-004  0.2913385E+03  0.7818608E-02  0.1089652E+00
          1   -1    0    0  501    0  0.00000000000E+00  0.00000000000E+00  0.11379117780E+04  0.11379117780E+04  0.50400000000E-02 0.  1.
         -1   -1    0    0    0  501 -0.00000000000E+00 -0.00000000000E+00 -0.18647784494E+02  0.18647785176E+02  0.50400000000E-02 0. -1.
    5000001    1    1    2    0    0 -0.29957173641E+02 -0.10105290809E+03  0.30292864277E+03  0.32985433921E+03  0.77000000000E+02 0.  0.
   -5000001    1    1    2    0    0  0.29957173641E+02  0.10105290809E+03  0.81633535077E+03  0.82670522401E+03  0.77000000000E+02 0.  0.
<mgrwt>
<rscale>  0 0.29133852E+03</rscale>
<asrwt>0</asrwt>
<pdfrwt beam="1">  1        1 0.17506332E+00 0.29133852E+03</pdfrwt>
<pdfrwt beam="2">  1       -1 0.28688905E-02 0.29133852E+03</pdfrwt>
<totfact> 0.51120994E+03</totfact>
</mgrwt>
</event>
<event>
 4    1  0.3064919E-004  0.1860105E+03  0.7818608E-02  0.1162110E+00
         -1   -1    0    0    0  501 -0.00000000000E+00  0.00000000000E+00  0.65021649566E+01  0.65021669099E+01  0.50400000000E-02 0. -1.
          1   -1    0    0  501    0  0.00000000000E+00 -0.00000000000E+00 -0.13303221066E+04  0.13303221066E+04  0.50400000000E-02 0.  1.
    5000001    1    1    2    0    0 -0.49057674341E+02  0.19190187506E+01 -0.53524295905E+03  0.54297731376E+03  0.77000000000E+02 0.  0.
   -5000001    1    1    2    0    0  0.49057674341E+02 -0.19190187506E+01 -0.78857698262E+03  0.79384695979E+03  0.77000000000E+02 0.  0.
<mgrwt>
<rscale>  0 0.18601048E+03</rscale>
<asrwt>0</asrwt>
<pdfrwt beam="1">  1        1 0.20466472E+00 0.18601048E+03</pdfrwt>
<pdfrwt beam="2">  1       -1 0.10003343E-02 0.18601048E+03</pdfrwt>
<totfact> 0.17163690E+04</totfact>
</mgrwt>
</event>
<event>
 4    1  0.3064919E-004  0.2061630E+03  0.7818608E-02  0.1144641E+00
         -1   -1    0    0    0  501 -0.00000000000E+00  0.00000000000E+00  0.20146011298E+03  0.20146011304E+03  0.50400000000E-02 0.  1.
          1   -1    0    0  501    0  0.00000000000E+00 -0.00000000000E+00 -0.52743940585E+02  0.52743940826E+02  0.50400000000E-02 0. -1.
    5000001    1    1    2    0    0  0.59584461719E+02 -0.16013438264E+02  0.11114401944E+03  0.14862278204E+03  0.77000000000E+02 0.  0.
   -5000001    1    1    2    0    0 -0.59584461719E+02  0.16013438264E+02  0.37572152954E+02  0.10558127183E+03  0.77000000000E+02 0.  0.
<mgrwt>
<rscale>  0 0.20616304E+03</rscale>
<asrwt>0</asrwt>
<pdfrwt beam="1">  1        1 0.81144524E-02 0.20616304E+03</pdfrwt>
<pdfrwt beam="2">  1       -1 0.30993864E-01 0.20616304E+03</pdfrwt>
<totfact> 0.80237980E+03</totfact>
</mgrwt>
</event>
<event>
 4    1  0.3064919E-004  0.2667127E+03  0.7818608E-02  0.1103176E+00
         -1   -1    0    0    0  501 -0.00000000000E+00  0.00000000000E+00  0.32078688997E+02  0.32078689393E+02  0.50400000000E-02 0.  1.
          1   -1    0    0  501    0  0.00000000000E+00 -0.00000000000E+00 -0.55438432467E+03  0.55438432469E+03  0.50400000000E-02 0. -1.
    5000001    1    1    2    0    0 -0.22769968874E+02  0.91012353781E+02 -0.38265236364E+03  0.40143934962E+03  0.77000000000E+02 0.  0.
   -5000001    1    1    2    0    0  0.22769968874E+02 -0.91012353781E+02 -0.13965327203E+03  0.18502366447E+03  0.77000000000E+02 0.  0.
<mgrwt>
<rscale>  0 0.26671275E+03</rscale>
<asrwt>0</asrwt>
<pdfrwt beam="1">  1        1 0.85289889E-01 0.26671275E+03</pdfrwt>
<pdfrwt beam="2">  1       -1 0.49351834E-02 0.26671275E+03</pdfrwt>
<totfact> 0.70054616E+03</totfact>
</mgrwt>
</event>
<event>
 4    1  0.3064919E-004  0.2238666E+03  0.7818608E-02  0.1131033E+00
         -1   -1    0    0    0  501 -0.00000000000E+00  0.00000000000E+00  0.24429348000E+03  0.24429348006E+03  0.50400000000E-02 0. -1.
          1   -1    0    0  501    0  0.00000000000E+00 -0.00000000000E+00 -0.51286912198E+02  0.51286912446E+02  0.50400000000E-02 0.  1.
    5000001    1    1    2    0    0  0.71218233825E+02  0.28298050234E+02  0.13210950100E+03  0.17104016116E+03  0.77000000000E+02 0.  0.
   -5000001    1    1    2    0    0 -0.71218233825E+02 -0.28298050234E+02  0.60897066804E+02  0.12454023134E+03  0.77000000000E+02 0.  0.
<mgrwt>
<rscale>  0 0.22386655E+03</rscale>
<asrwt>0</asrwt>
<pdfrwt beam="1">  1        1 0.78902941E-02 0.22386655E+03</pdfrwt>
<pdfrwt beam="2">  1       -1 0.37583613E-01 0.22386655E+03</pdfrwt>
<totfact> 0.60035515E+03</totfact>
</mgrwt>
</event>
<event>
 4    1  0.3064919E-004  0.2036850E+03  0.7818608E-02  0.1146667E+00
         -1   -1    0    0    0  501 -0.00000000000E+00  0.00000000000E+00  0.19370176873E+03  0.19370176879E+03  0.50400000000E-02 0.  1.
          1   -1    0    0  501    0  0.00000000000E+00 -0.00000000000E+00 -0.53545689192E+02  0.53545689429E+02  0.50400000000E-02 0. -1.
    5000001    1    1    2    0    0  0.13524579767E+02 -0.56723233843E+02  0.10927040693E+03  0.14584053396E+03  0.77000000000E+02 0.  0.
   -5000001    1    1    2    0    0 -0.13524579767E+02  0.56723233843E+02  0.30885672604E+02  0.10140692426E+03  0.77000000000E+02 0.  0.
<mgrwt>
<rscale>  0 0.20368500E+03</rscale>
<asrwt>0</asrwt>
<pdfrwt beam="1">  1        1 0.82377983E-02 0.20368500E+03</pdfrwt>
<pdfrwt beam="2">  1       -1 0.29800272E-01 0.20368500E+03</pdfrwt>
<totfact> 0.83972264E+03</totfact>
</mgrwt>
</event>
<event>
 4    1  0.3064919E-004  0.2566221E+03  0.7818608E-02  0.1109190E+00
         -1   -1    0    0    0  501 -0.00000000000E+00  0.00000000000E+00  0.48010063017E+02  0.48010063282E+02  0.50400000000E-02 0.  1.
          1   -1    0    0  501    0  0.00000000000E+00 -0.00000000000E+00 -0.34292247580E+03  0.34292247584E+03  0.50400000000E-02 0. -1.
    5000001    1    1    2    0    0  0.55914274873E+02 -0.41508890632E+02 -0.26232068968E+03  0.28211795117E+03  0.77000000000E+02 0.  0.
   -5000001    1    1    2    0    0 -0.55914274873E+02  0.41508890632E+02 -0.32591723100E+02  0.10881458795E+03  0.77000000000E+02 0.  0.
<mgrwt>
<rscale>  0 0.25662213E+03</rscale>
<asrwt>0</asrwt>
<pdfrwt beam="1">  1        1 0.52757303E-01 0.25662213E+03</pdfrwt>
<pdfrwt beam="2">  1       -1 0.73861638E-02 0.25662213E+03</pdfrwt>
<totfact> 0.71159890E+03</totfact>
</mgrwt>
</event>
<event>
 4    1  0.3064919E-004  0.2163594E+03  0.7818608E-02  0.1136627E+00
         -1   -1    0    0    0  501 -0.00000000000E+00  0.00000000000E+00  0.14202738101E+02  0.14202738995E+02  0.50400000000E-02 0. -1.
          1   -1    0    0  501    0  0.00000000000E+00 -0.00000000000E+00 -0.82398562475E+03  0.82398562477E+03  0.50400000000E-02 0.  1.
    5000001    1    1    2    0    0  0.58745387694E+01 -0.66721643218E+02 -0.26588009054E+03  0.28479380335E+03  0.77000000000E+02 0.  0.
   -5000001    1    1    2    0    0 -0.58745387694E+01  0.66721643218E+02 -0.54390279611E+03  0.55339456042E+03  0.77000000000E+02 0.  0.
<mgrwt>
<rscale>  0 0.21635945E+03</rscale>
<asrwt>0</asrwt>
<pdfrwt beam="1">  1        1 0.12676698E+00 0.21635945E+03</pdfrwt>
<pdfrwt beam="2">  1       -1 0.21850373E-02 0.21635945E+03</pdfrwt>
<totfact> 0.13053423E+04</totfact>
</mgrwt>
</event>
<event>
 4    1  0.3064919E-004  0.3027653E+03  0.7818608E-02  0.1083866E+00
          1   -1    0    0  501    0  0.00000000000E+00  0.00000000000E+00  0.28070202964E+03  0.28070202968E+03  0.50400000000E-02 0. -1.
         -1   -1    0    0    0  501 -0.00000000000E+00 -0.00000000000E+00 -0.81640671961E+02  0.81640672116E+02  0.50400000000E-02 0.  1.
    5000001    1    1    2    0    0  0.11336962001E+03 -0.62630843398E+01  0.22938730513E+02  0.13909378967E+03  0.77000000000E+02 0.  0.
   -5000001    1    1    2    0    0 -0.11336962001E+03  0.62630843398E+01  0.17612262716E+03  0.22324891213E+03  0.77000000000E+02 0.  0.
<mgrwt>
<rscale>  0 0.30276527E+03</rscale>
<asrwt>0</asrwt>
<pdfrwt beam="1">  1        1 0.43184928E-01 0.30276527E+03</pdfrwt>
<pdfrwt beam="2">  1       -1 0.12560103E-01 0.30276527E+03</pdfrwt>
<totfact> 0.40564160E+03</totfact>
</mgrwt>
</event>
<event>
 4    1  0.3064919E-004  0.2532995E+03  0.7818608E-02  0.1111237E+00
         -1   -1    0    0    0  501 -0.00000000000E+00  0.00000000000E+00  0.87883913265E+02  0.87883913409E+02  0.50400000000E-02 0.  1.
          1   -1    0    0  501    0  0.00000000000E+00 -0.00000000000E+00 -0.18251531583E+03  0.18251531590E+03  0.50400000000E-02 0. -1.
    5000001    1    1    2    0    0 -0.25138370449E+02 -0.78808947355E+02 -0.10834478753E+03  0.15655791528E+03  0.77000000000E+02 0.  0.
   -5000001    1    1    2    0    0  0.25138370449E+02  0.78808947355E+02  0.13713384968E+02  0.11384131403E+03  0.77000000000E+02 0.  0.
<mgrwt>
<rscale>  0 0.25329951E+03</rscale>
<asrwt>0</asrwt>
<pdfrwt beam="1">  1        1 0.28079279E-01 0.25329951E+03</pdfrwt>
<pdfrwt beam="2">  1       -1 0.13520602E-01 0.25329951E+03</pdfrwt>
<totfact> 0.61757303E+03</totfact>
</mgrwt>
</event>
<event>
 4    1  0.3064919E-004  0.1919473E+03  0.7818608E-02  0.1156717E+00
          1   -1    0    0  501    0  0.00000000000E+00  0.00000000000E+00  0.10198458931E+04  0.10198458931E+04  0.50400000000E-02 0.  1.
         -1   -1    0    0    0  501 -0.00000000000E+00 -0.00000000000E+00 -0.90316990049E+01  0.90317004112E+01  0.50400000000E-02 0. -1.
    5000001    1    1    2    0    0  0.17442546698E+02  0.52998060822E+02  0.57507021715E+03  0.58287888239E+03  0.77000000000E+02 0.  0.
   -5000001    1    1    2    0    0 -0.17442546698E+02 -0.52998060822E+02  0.43574397692E+03  0.44599871110E+03  0.77000000000E+02 0.  0.
<mgrwt>
<rscale>  0 0.19194730E+03</rscale>
<asrwt>0</asrwt>
<pdfrwt beam="1">  1        1 0.15689931E+00 0.19194730E+03</pdfrwt>
<pdfrwt beam="2">  1       -1 0.13894928E-02 0.19194730E+03</pdfrwt>
<totfact> 0.17657287E+04</totfact>
</mgrwt>
</event>
<event>
 4    1  0.3064919E-004  0.2309974E+03  0.7818608E-02  0.1125940E+00
         -1   -1    0    0    0  501 -0.00000000000E+00  0.00000000000E+00  0.15703689616E+02  0.15703690425E+02  0.50400000000E-02 0. -1.
          1   -1    0    0  501    0  0.00000000000E+00 -0.00000000000E+00 -0.84947841508E+03  0.84947841510E+03  0.50400000000E-02 0.  1.
    5000001    1    1    2    0    0 -0.79960405082E+02  0.30277745442E+02 -0.37933264665E+03  0.39639962799E+03  0.77000000000E+02 0.  0.
   -5000001    1    1    2    0    0  0.79960405082E+02 -0.30277745442E+02 -0.45444207881E+03  0.46878247753E+03  0.77000000000E+02 0.  0.
<mgrwt>
<rscale>  0 0.23099737E+03</rscale>
<asrwt>0</asrwt>
<pdfrwt beam="1">  1        1 0.13068895E+00 0.23099737E+03</pdfrwt>
<pdfrwt beam="2">  1       -1 0.24159530E-02 0.23099737E+03</pdfrwt>
<totfact> 0.10780623E+04</totfact>
</mgrwt>
</event>
<event>
 4    1  0.3064919E-004  0.2428741E+03  0.7818608E-02  0.1117893E+00
          1   -1    0    0  501    0  0.00000000000E+00  0.00000000000E+00  0.40647499879E+04  0.40647499879E+04  0.50400000000E-02 0.  1.
         -1   -1    0    0    0  501 -0.00000000000E+00 -0.00000000000E+00 -0.36280079195E+01  0.36280114202E+01  0.50400000000E-02 0. -1.
    5000001    1    1    2    0    0  0.11448177441E+01 -0.92264846338E+02  0.23225473020E+04  0.23256545493E+04  0.77000000000E+02 0.  0.
   -5000001    1    1    2    0    0 -0.11448177441E+01  0.92264846338E+02  0.17385746780E+04  0.17427234500E+04  0.77000000000E+02 0.  0.
<mgrwt>
<rscale>  0 0.24287406E+03</rscale>
<asrwt>0</asrwt>
<pdfrwt beam="1">  1        1 0.62534565E+00 0.24287406E+03</pdfrwt>
<pdfrwt beam="2">  1       -1 0.55815578E-03 0.24287406E+03</pdfrwt>
<totfact> 0.48538285E+02</totfact>
</mgrwt>
</event>
<event>
 4    1  0.3064919E-004  0.1654869E+03  0.7818608E-02  0.1182638E+00
          1   -1    0    0  501    0  0.00000000000E+00  0.00000000000E+00  0.94129367802E+03  0.94129367804E+03  0.50400000000E-02 0.  1.
         -1   -1    0    0    0  501 -0.00000000000E+00 -0.00000000000E+00 -0.72734759545E+01  0.72734777007E+01  0.50400000000E-02 0. -1.
    5000001    1    1    2    0    0  0.53390798586E+01  0.28614550059E+02  0.41899148046E+03  0.42700135708E+03  0.77000000000E+02 0.  0.
   -5000001    1    1    2    0    0 -0.53390798586E+01 -0.28614550059E+02  0.51502872161E+03  0.52156579866E+03  0.77000000000E+02 0.  0.
<mgrwt>
<rscale>  0 0.16548689E+03</rscale>
<asrwt>0</asrwt>
<pdfrwt beam="1">  1        1 0.14481434E+00 0.16548689E+03</pdfrwt>
<pdfrwt beam="2">  1       -1 0.11189970E-02 0.16548689E+03</pdfrwt>
<totfact> 0.27312570E+04</totfact>
</mgrwt>
</event>
<event>
 4    1  0.3064919E-004  0.2637291E+03  0.7818608E-02  0.1104923E+00
          1   -1    0    0  501    0  0.00000000000E+00  0.00000000000E+00  0.27825861137E+03  0.27825861142E+03  0.50400000000E-02 0. -1.
         -1   -1    0    0    0  501 -0.00000000000E+00 -0.00000000000E+00 -0.62489575849E+02  0.62489576052E+02  0.50400000000E-02 0.  1.
    5000001    1    1    2    0    0  0.54963686119E+02 -0.91441013081E+02  0.96561882197E+02  0.16320435888E+03  0.77000000000E+02 0.  0.
   -5000001    1    1    2    0    0 -0.54963686119E+02  0.91441013081E+02  0.11920715333E+03  0.17754382859E+03  0.77000000000E+02 0.  0.
<mgrwt>
<rscale>  0 0.26372912E+03</rscale>
<asrwt>0</asrwt>
<pdfrwt beam="1">  1        1 0.42809017E-01 0.26372912E+03</pdfrwt>
<pdfrwt beam="2">  1       -1 0.96137810E-02 0.26372912E+03</pdfrwt>
<totfact> 0.61900018E+03</totfact>
</mgrwt>
</event>
<event>
 4    1  0.3064919E-004  0.1949374E+03  0.7818608E-02  0.1154082E+00
         -1   -1    0    0    0  501 -0.00000000000E+00  0.00000000000E+00  0.10915663433E+02  0.10915664597E+02  0.50400000000E-02 0.  1.
          1   -1    0    0  501    0  0.00000000000E+00 -0.00000000000E+00 -0.87032264645E+03  0.87032264646E+03  0.50400000000E-02 0. -1.
    5000001    1    1    2    0    0  0.45130332035E+02 -0.27726359182E+02 -0.55479095595E+03  0.56260776983E+03  0.77000000000E+02 0.  0.
   -5000001    1    1    2    0    0 -0.45130332035E+02  0.27726359182E+02 -0.30461602706E+03  0.31863054124E+03  0.77000000000E+02 0.  0.
<mgrwt>
<rscale>  0 0.19493742E+03</rscale>
<asrwt>0</asrwt>
<pdfrwt beam="1">  1        1 0.13389574E+00 0.19493742E+03</pdfrwt>
<pdfrwt beam="2">  1       -1 0.16793336E-02 0.19493742E+03</pdfrwt>
<totfact> 0.17462964E+04</totfact>
</mgrwt>
</event>
<event>
 4    1  0.3064919E-004  0.2120696E+03  0.7818608E-02  0.1139937E+00
          1   -1    0    0  501    0  0.00000000000E+00  0.00000000000E+00  0.20904354208E+03  0.20904354214E+03  0.50400000000E-02 0. -1.
         -1   -1    0    0    0  501 -0.00000000000E+00 -0.00000000000E+00 -0.53784864198E+02  0.53784864434E+02  0.50400000000E-02 0.  1.
    5000001    1    1    2    0    0  0.48408117466E+02 -0.36959803818E+02  0.27977862263E+02  0.10208395423E+03  0.77000000000E+02 0.  0.
   -5000001    1    1    2    0    0 -0.48408117466E+02  0.36959803818E+02  0.12728081562E+03  0.16074445235E+03  0.77000000000E+02 0.  0.
<mgrwt>
<rscale>  0 0.21206960E+03</rscale>
<asrwt>0</asrwt>
<pdfrwt beam="1">  1        1 0.32160545E-01 0.21206960E+03</pdfrwt>
<pdfrwt beam="2">  1       -1 0.82745944E-02 0.21206960E+03</pdfrwt>
<totfact> 0.11028429E+04</totfact>
</mgrwt>
</event>
<event>
 4    1  0.3064919E-004  0.2197193E+03  0.7818608E-02  0.1134092E+00
         -1   -1    0    0    0  501 -0.00000000000E+00  0.00000000000E+00  0.12881007782E+02  0.12881008768E+02  0.50400000000E-02 0. -1.
          1   -1    0    0  501    0  0.00000000000E+00 -0.00000000000E+00 -0.93697211873E+03  0.93697211874E+03  0.50400000000E-02 0.  1.
    5000001    1    1    2    0    0 -0.51429784095E+02 -0.34240746512E+02 -0.25370001136E+03  0.27223178944E+03  0.77000000000E+02 0.  0.
   -5000001    1    1    2    0    0  0.51429784095E+02  0.34240746512E+02 -0.67039109958E+03  0.67762133808E+03  0.77000000000E+02 0.  0.
<mgrwt>
<rscale>  0 0.21971933E+03</rscale>
<asrwt>0</asrwt>
<pdfrwt beam="1">  1        1 0.14414950E+00 0.21971933E+03</pdfrwt>
<pdfrwt beam="2">  1       -1 0.19816943E-02 0.21971933E+03</pdfrwt>
<totfact> 0.12264080E+04</totfact>
</mgrwt>
</event>
<event>
 4    1  0.3064919E-004  0.1879997E+03  0.7818608E-02  0.1160278E+00
         -1   -1    0    0    0  501 -0.00000000000E+00  0.00000000000E+00  0.63552158338E+02  0.63552158538E+02  0.50400000000E-02 0. -1.
          1   -1    0    0  501    0  0.00000000000E+00 -0.00000000000E+00 -0.13903501503E+03  0.13903501512E+03  0.50400000000E-02 0.  1.
    5000001    1    1    2    0    0  0.10837991299E+02  0.52601544730E+02 -0.32619658205E+02  0.99385243698E+02  0.77000000000E+02 0.  0.
   -5000001    1    1    2    0    0 -0.10837991299E+02 -0.52601544730E+02 -0.42863198487E+02  0.10320192996E+03  0.77000000000E+02 0.  0.
<mgrwt>
<rscale>  0 0.18799974E+03</rscale>
<asrwt>0</asrwt>
<pdfrwt beam="1">  1        1 0.21390002E-01 0.18799974E+03</pdfrwt>
<pdfrwt beam="2">  1       -1 0.97772552E-02 0.18799974E+03</pdfrwt>
<totfact> 0.14186862E+04</totfact>
</mgrwt>
</event>
<event>
 4    1  0.3064919E-004  0.1895384E+03  0.7818608E-02  0.1158878E+00
         -1   -1    0    0    0  501 -0.00000000000E+00  0.00000000000E+00  0.25052451833E+02  0.25052452340E+02  0.50400000000E-02 0.  1.
          1   -1    0    0  501    0  0.00000000000E+00 -0.00000000000E+00 -0.35849570751E+03  0.35849570755E+03  0.50400000000E-02 0. -1.
    5000001    1    1    2    0    0  0.12900839250E+02  0.27147158083E+02 -0.72917819210E+02  0.11022435395E+03  0.77000000000E+02 0.  0.
   -5000001    1    1    2    0    0 -0.12900839250E+02 -0.27147158083E+02 -0.26052543647E+03  0.27332380594E+03  0.77000000000E+02 0.  0.
<mgrwt>
<rscale>  0 0.18953835E+03</rscale>
<asrwt>0</asrwt>
<pdfrwt beam="1">  1        1 0.55153182E-01 0.18953835E+03</pdfrwt>
<pdfrwt beam="2">  1       -1 0.38542237E-02 0.18953835E+03</pdfrwt>
<totfact> 0.17513637E+04</totfact>
</mgrwt>
</event>
<event>
 4    1  0.3064919E-004  0.2156937E+03  0.7818608E-02  0.1137135E+00
         -1   -1    0    0    0  501 -0.00000000000E+00  0.00000000000E+00  0.24040273735E+02  0.24040274263E+02  0.50400000000E-02 0. -1.
          1   -1    0    0  501    0  0.00000000000E+00 -0.00000000000E+00 -0.48381076070E+03  0.48381076073E+03  0.50400000000E-02 0.  1.
    5000001    1    1    2    0    0  0.48881289047E+02 -0.45513678579E+02 -0.14693901375E+03  0.17883218144E+03  0.77000000000E+02 0.  0.
   -5000001    1    1    2    0    0 -0.48881289047E+02  0.45513678579E+02 -0.31283147322E+03  0.32901885356E+03  0.77000000000E+02 0.  0.
<mgrwt>
<rscale>  0 0.21569370E+03</rscale>
<asrwt>0</asrwt>
<pdfrwt beam="1">  1        1 0.74432418E-01 0.21569370E+03</pdfrwt>
<pdfrwt beam="2">  1       -1 0.36985041E-02 0.21569370E+03</pdfrwt>
<totfact> 0.12780060E+04</totfact>
</mgrwt>
</event>
<event>
 4    1  0.3064919E-004  0.2197516E+03  0.7818608E-02  0.1134068E+00
          1   -1    0    0  501    0  0.00000000000E+00  0.00000000000E+00  0.19541012809E+03  0.19541012815E+03  0.50400000000E-02 0.  1.
         -1   -1    0    0    0  501 -0.00000000000E+00 -0.00000000000E+00 -0.61781300248E+02  0.61781300454E+02  0.50400000000E-02 0. -1.
    5000001    1    1    2    0    0  0.35081010994E+02  0.46287135854E+02  0.52110066047E+01  0.96588461359E+02  0.77000000000E+02 0.  0.
   -5000001    1    1    2    0    0 -0.35081010994E+02 -0.46287135854E+02  0.12841782123E+03  0.16060296725E+03  0.77000000000E+02 0.  0.
<mgrwt>
<rscale>  0 0.21975160E+03</rscale>
<asrwt>0</asrwt>
<pdfrwt beam="1">  1        1 0.30063096E-01 0.21975160E+03</pdfrwt>
<pdfrwt beam="2">  1       -1 0.95048157E-02 0.21975160E+03</pdfrwt>
<totfact> 0.97298514E+03</totfact>
</mgrwt>
</event>
<event>
 4    1  0.3064919E-004  0.2056809E+03  0.7818608E-02  0.1145033E+00
         -1   -1    0    0    0  501 -0.00000000000E+00  0.00000000000E+00  0.10154795425E+02  0.10154796675E+02  0.50400000000E-02 0. -1.
          1   -1    0    0  501    0  0.00000000000E+00 -0.00000000000E+00 -0.10414938607E+04  0.10414938608E+04  0.50400000000E-02 0.  1.
    5000001    1    1    2    0    0  0.57750177323E+02  0.28926448898E+02 -0.40419471692E+03  0.41650233086E+03  0.77000000000E+02 0.  0.
   -5000001    1    1    2    0    0 -0.57750177323E+02 -0.28926448898E+02 -0.62714434839E+03  0.63514632656E+03  0.77000000000E+02 0.  0.
<mgrwt>
<rscale>  0 0.20568090E+03</rscale>
<asrwt>0</asrwt>
<pdfrwt beam="1">  1        1 0.16022974E+00 0.20568090E+03</pdfrwt>
<pdfrwt beam="2">  1       -1 0.15622771E-02 0.20568090E+03</pdfrwt>
<totfact> 0.14425364E+04</totfact>
</mgrwt>
</event>
<event>
 4    1  0.3064919E-004  0.1627239E+03  0.7818608E-02  0.1185655E+00
          1   -1    0    0  501    0  0.00000000000E+00  0.00000000000E+00  0.23858237049E+03  0.23858237054E+03  0.50400000000E-02 0.  1.
         -1   -1    0    0    0  501 -0.00000000000E+00 -0.00000000000E+00 -0.27746249304E+02  0.27746249762E+02  0.50400000000E-02 0. -1.
    5000001    1    1    2    0    0  0.59777565546E+01 -0.16682080122E+02  0.13718590549E+03  0.15831297495E+03  0.77000000000E+02 0.  0.
   -5000001    1    1    2    0    0 -0.59777565546E+01  0.16682080122E+02  0.73650215694E+02  0.10801564536E+03  0.77000000000E+02 0.  0.
<mgrwt>
<rscale>  0 0.16272389E+03</rscale>
<asrwt>0</asrwt>
<pdfrwt beam="1">  1        1 0.36704980E-01 0.16272389E+03</pdfrwt>
<pdfrwt beam="2">  1       -1 0.42686537E-02 0.16272389E+03</pdfrwt>
<totfact> 0.24715674E+04</totfact>
</mgrwt>
</event>
<event>
 4    1  0.3064919E-004  0.2465832E+03  0.7818608E-02  0.1115483E+00
          1   -1    0    0  501    0  0.00000000000E+00  0.00000000000E+00  0.14596619614E+04  0.14596619614E+04  0.50400000000E-02 0. -1.
         -1   -1    0    0    0  501 -0.00000000000E+00 -0.00000000000E+00 -0.10413931841E+02  0.10413933060E+02  0.50400000000E-02 0.  1.
    5000001    1    1    2    0    0  0.13076691907E+02 -0.95396108095E+02  0.72841229982E+03  0.73877256029E+03  0.77000000000E+02 0.  0.
   -5000001    1    1    2    0    0 -0.13076691907E+02  0.95396108095E+02  0.72083572975E+03  0.73130333419E+03  0.77000000000E+02 0.  0.
<mgrwt>
<rscale>  0 0.24658322E+03</rscale>
<asrwt>0</asrwt>
<pdfrwt beam="1">  1        1 0.22456342E+00 0.24658322E+03</pdfrwt>
<pdfrwt beam="2">  1       -1 0.16021431E-02 0.24658322E+03</pdfrwt>
<totfact> 0.72007515E+03</totfact>
</mgrwt>
</event>
<event>
 4    1  0.3064919E-004  0.1695779E+03  0.7818608E-02  0.1178289E+00
         -1   -1    0    0    0  501 -0.00000000000E+00  0.00000000000E+00  0.30122235961E+02  0.30122236383E+02  0.50400000000E-02 0. -1.
          1   -1    0    0  501    0  0.00000000000E+00 -0.00000000000E+00 -0.23866646761E+03  0.23866646766E+03  0.50400000000E-02 0.  1.
    5000001    1    1    2    0    0 -0.17010277584E+02  0.30971215361E+02 -0.98873181976E+02  0.13020549850E+03  0.77000000000E+02 0.  0.
   -5000001    1    1    2    0    0  0.17010277584E+02 -0.30971215361E+02 -0.10967104967E+03  0.13858320555E+03  0.77000000000E+02 0.  0.
<mgrwt>
<rscale>  0 0.16957792E+03</rscale>
<asrwt>0</asrwt>
<pdfrwt beam="1">  1        1 0.36717917E-01 0.16957792E+03</pdfrwt>
<pdfrwt beam="2">  1       -1 0.46341903E-02 0.16957792E+03</pdfrwt>
<totfact> 0.21957202E+04</totfact>
</mgrwt>
</event>
<event>
 4    1  0.3064919E-004  0.2208382E+03  0.7818608E-02  0.1133260E+00
         -1   -1    0    0    0  501 -0.00000000000E+00  0.00000000000E+00  0.18292526595E+03  0.18292526602E+03  0.50400000000E-02 0.  1.
          1   -1    0    0  501    0  0.00000000000E+00 -0.00000000000E+00 -0.66652249154E+02  0.66652249345E+02  0.50400000000E-02 0. -1.
    5000001    1    1    2    0    0  0.18638285564E+02 -0.72946476267E+02  0.85699033693E+02  0.13762956973E+03  0.77000000000E+02 0.  0.
   -5000001    1    1    2    0    0 -0.18638285564E+02  0.72946476267E+02  0.30573983102E+02  0.11194794563E+03  0.77000000000E+02 0.  0.
<mgrwt>
<rscale>  0 0.22083823E+03</rscale>
<asrwt>0</asrwt>
<pdfrwt beam="1">  1        1 0.10254192E-01 0.22083823E+03</pdfrwt>
<pdfrwt beam="2">  1       -1 0.28142348E-01 0.22083823E+03</pdfrwt>
<totfact> 0.69226331E+03</totfact>
</mgrwt>
</event>
<event>
 4    1  0.3064919E-004  0.1969636E+03  0.7818608E-02  0.1152326E+00
          1   -1    0    0  501    0  0.00000000000E+00  0.00000000000E+00  0.35886737130E+02  0.35886737484E+02  0.50400000000E-02 0. -1.
         -1   -1    0    0    0  501 -0.00000000000E+00 -0.00000000000E+00 -0.27025777265E+03  0.27025777270E+03  0.50400000000E-02 0.  1.
    5000001    1    1    2    0    0 -0.39195247086E+02  0.32178536376E+02 -0.17098259404E+03  0.19425697687E+03  0.77000000000E+02 0.  0.
   -5000001    1    1    2    0    0  0.39195247086E+02 -0.32178536376E+02 -0.63388441476E+02  0.11188753331E+03  0.77000000000E+02 0.  0.
<mgrwt>
<rscale>  0 0.19696365E+03</rscale>
<asrwt>0</asrwt>
<pdfrwt beam="1">  1        1 0.55210367E-02 0.19696365E+03</pdfrwt>
<pdfrwt beam="2">  1       -1 0.41578118E-01 0.19696365E+03</pdfrwt>
<totfact> 0.81188413E+03</totfact>
</mgrwt>
</event>
<event>
 4    1  0.3064919E-004  0.1731081E+03  0.7818608E-02  0.1174645E+00
         -1   -1    0    0    0  501 -0.00000000000E+00  0.00000000000E+00  0.37585986556E+02  0.37585986894E+02  0.50400000000E-02 0.  1.
          1   -1    0    0  501    0  0.00000000000E+00 -0.00000000000E+00 -0.19931912374E+03  0.19931912380E+03  0.50400000000E-02 0. -1.
    5000001    1    1    2    0    0  0.22740084852E+02 -0.79882693708E+01 -0.37987791055E+02  0.89179572638E+02  0.77000000000E+02 0.  0.
   -5000001    1    1    2    0    0 -0.22740084852E+02  0.79882693708E+01 -0.12374534613E+03  0.14772553806E+03  0.77000000000E+02 0.  0.
<mgrwt>
<rscale>  0 0.17310813E+03</rscale>
<asrwt>0</asrwt>
<pdfrwt beam="1">  1        1 0.30664480E-01 0.17310813E+03</pdfrwt>
<pdfrwt beam="2">  1       -1 0.57824596E-02 0.17310813E+03</pdfrwt>
<totfact> 0.19806317E+04</totfact>
</mgrwt>
</event>
<event>
 4    1  0.3064919E-004  0.1792300E+03  0.7818608E-02  0.1168550E+00
         -1   -1    0    0    0  501 -0.00000000000E+00  0.00000000000E+00  0.13333475274E+02  0.13333476227E+02  0.50400000000E-02 0. -1.
          1   -1    0    0  501    0  0.00000000000E+00 -0.00000000000E+00 -0.60230693912E+03  0.60230693914E+03  0.50400000000E-02 0.  1.
    5000001    1    1    2    0    0  0.29563866943E+02 -0.32253330378E+02 -0.34152699580E+03  0.35282288533E+03  0.77000000000E+02 0.  0.
   -5000001    1    1    2    0    0 -0.29563866943E+02  0.32253330378E+02 -0.24744646804E+03  0.26281753004E+03  0.77000000000E+02 0.  0.
<mgrwt>
<rscale>  0 0.17922996E+03</rscale>
<asrwt>0</asrwt>
<pdfrwt beam="1">  1        1 0.92662585E-01 0.17922996E+03</pdfrwt>
<pdfrwt beam="2">  1       -1 0.20513044E-02 0.17922996E+03</pdfrwt>
<totfact> 0.22300437E+04</totfact>
</mgrwt>
</event>
<event>
 4    1  0.3064919E-004  0.2374125E+03  0.7818608E-02  0.1121529E+00
          1   -1    0    0  501    0  0.00000000000E+00  0.00000000000E+00  0.69490834900E+02  0.69490835083E+02  0.50400000000E-02 0.  1.
         -1   -1    0    0    0  501 -0.00000000000E+00 -0.00000000000E+00 -0.20277739092E+03  0.20277739099E+03  0.50400000000E-02 0. -1.
    5000001    1    1    2    0    0  0.14595879783E+02 -0.13710296378E+02 -0.16767475593E+03  0.18559319953E+03  0.77000000000E+02 0.  0.
   -5000001    1    1    2    0    0 -0.14595879783E+02  0.13710296378E+02  0.34388199908E+02  0.86675026544E+02  0.77000000000E+02 0.  0.
<mgrwt>
<rscale>  0 0.23741247E+03</rscale>
<asrwt>0</asrwt>
<pdfrwt beam="1">  1        1 0.10690898E-01 0.23741247E+03</pdfrwt>
<pdfrwt beam="2">  1       -1 0.31196521E-01 0.23741247E+03</pdfrwt>
<totfact> 0.55184815E+03</totfact>
</mgrwt>
</event>
<event>
 4    1  0.3064919E-004  0.2429004E+03  0.7818608E-02  0.1117876E+00
          1   -1    0    0  501    0  0.00000000000E+00  0.00000000000E+00  0.15602181198E+04  0.15602181198E+04  0.50400000000E-02 0. -1.
         -1   -1    0    0    0  501 -0.00000000000E+00 -0.00000000000E+00 -0.94539036661E+01  0.94539050095E+01  0.50400000000E-02 0.  1.
    5000001    1    1    2    0    0  0.93755203690E+02 -0.40104912404E+01  0.75032858053E+03  0.76008427231E+03  0.77000000000E+02 0.  0.
   -5000001    1    1    2    0    0 -0.93755203690E+02  0.40104912404E+01  0.80043563559E+03  0.80958775249E+03  0.77000000000E+02 0.  0.
<mgrwt>
<rscale>  0 0.24290041E+03</rscale>
<asrwt>0</asrwt>
<pdfrwt beam="1">  1        1 0.24003336E+00 0.24290041E+03</pdfrwt>
<pdfrwt beam="2">  1       -1 0.14544480E-02 0.24290041E+03</pdfrwt>
<totfact> 0.71099673E+03</totfact>
</mgrwt>
</event>
<event>
 4    1  0.3064919E-004  0.1965491E+03  0.7818608E-02  0.1152684E+00
         -1   -1    0    0    0  501 -0.00000000000E+00  0.00000000000E+00  0.72990224544E+01  0.72990241945E+01  0.50400000000E-02 0. -1.
          1   -1    0    0  501    0  0.00000000000E+00 -0.00000000000E+00 -0.13231754393E+04  0.13231754393E+04  0.50400000000E-02 0.  1.
    5000001    1    1    2    0    0 -0.55095100729E+02  0.23034328830E+02 -0.74431822957E+03  0.75066948606E+03  0.77000000000E+02 0.  0.
   -5000001    1    1    2    0    0  0.55095100729E+02 -0.23034328830E+02 -0.57155818727E+03  0.57980497744E+03  0.77000000000E+02 0.  0.
<mgrwt>
<rscale>  0 0.19654911E+03</rscale>
<asrwt>0</asrwt>
<pdfrwt beam="1">  1        1 0.20356526E+00 0.19654911E+03</pdfrwt>
<pdfrwt beam="2">  1       -1 0.11229277E-02 0.19654911E+03</pdfrwt>
<totfact> 0.14739167E+04</totfact>
</mgrwt>
</event>
<event>
 4    1  0.3064919E-004  0.1654823E+03  0.7818608E-02  0.1182643E+00
         -1   -1    0    0    0  501 -0.00000000000E+00  0.00000000000E+00  0.75997334171E+01  0.75997350884E+01  0.50400000000E-02 0. -1.
          1   -1    0    0  501    0  0.00000000000E+00 -0.00000000000E+00 -0.90083425900E+03  0.90083425902E+03  0.50400000000E-02 0.  1.
    5000001    1    1    2    0    0 -0.24742797639E+02 -0.12824448584E+02 -0.51167056006E+03  0.51818185471E+03  0.77000000000E+02 0.  0.
   -5000001    1    1    2    0    0  0.24742797639E+02  0.12824448584E+02 -0.38156396553E+03  0.39025213940E+03  0.77000000000E+02 0.  0.
<mgrwt>
<rscale>  0 0.16548234E+03</rscale>
<asrwt>0</asrwt>
<pdfrwt beam="1">  1        1 0.13858980E+00 0.16548234E+03</pdfrwt>
<pdfrwt beam="2">  1       -1 0.11691906E-02 0.16548234E+03</pdfrwt>
<totfact> 0.27541285E+04</totfact>
</mgrwt>
</event>
<event>
 4    1  0.3064919E-004  0.2209876E+03  0.7818608E-02  0.1133149E+00
          1   -1    0    0  501    0  0.00000000000E+00  0.00000000000E+00  0.92699140578E+03  0.92699140579E+03  0.50400000000E-02 0.  1.
         -1   -1    0    0    0  501 -0.00000000000E+00 -0.00000000000E+00 -0.13170438181E+02  0.13170439145E+02  0.50400000000E-02 0. -1.
    5000001    1    1    2    0    0  0.76982526508E+02  0.18784306474E+02  0.46053021158E+03  0.47359923494E+03  0.77000000000E+02 0.  0.
   -5000001    1    1    2    0    0 -0.76982526508E+02 -0.18784306474E+02  0.45329075602E+03  0.46656261000E+03  0.77000000000E+02 0.  0.
<mgrwt>
<rscale>  0 0.22098763E+03</rscale>
<asrwt>0</asrwt>
<pdfrwt beam="1">  1        1 0.14261405E+00 0.22098763E+03</pdfrwt>
<pdfrwt beam="2">  1       -1 0.20262216E-02 0.22098763E+03</pdfrwt>
<totfact> 0.12088110E+04</totfact>
</mgrwt>
</event>
<event>
 4    1  0.3064919E-004  0.2531160E+03  0.7818608E-02  0.1111351E+00
         -1   -1    0    0    0  501 -0.00000000000E+00  0.00000000000E+00  0.83722706105E+02  0.83722706257E+02  0.50400000000E-02 0. -1.
          1   -1    0    0  501    0  0.00000000000E+00 -0.00000000000E+00 -0.19130918775E+03  0.19130918782E+03  0.50400000000E-02 0.  1.
    5000001    1    1    2    0    0 -0.65674559996E+02 -0.28798384915E+02 -0.13020592725E+03  0.16740692428E+03  0.77000000000E+02 0.  0.
   -5000001    1    1    2    0    0  0.65674559996E+02  0.28798384915E+02  0.22619445606E+02  0.10762496980E+03  0.77000000000E+02 0.  0.
<mgrwt>
<rscale>  0 0.25311596E+03</rscale>
<asrwt>0</asrwt>
<pdfrwt beam="1">  1        1 0.29432183E-01 0.25311596E+03</pdfrwt>
<pdfrwt beam="2">  1       -1 0.12880416E-01 0.25311596E+03</pdfrwt>
<totfact> 0.62800548E+03</totfact>
</mgrwt>
</event>
<event>
 4    1  0.3064919E-004  0.3235912E+03  0.7818608E-02  0.1074008E+00
         -1   -1    0    0    0  501 -0.00000000000E+00  0.00000000000E+00  0.11761487440E+03  0.11761487451E+03  0.50400000000E-02 0. -1.
          1   -1    0    0  501    0  0.00000000000E+00 -0.00000000000E+00 -0.22257230709E+03  0.22257230715E+03  0.50400000000E-02 0.  1.
    5000001    1    1    2    0    0  0.93161911503E+02 -0.14376251160E+01 -0.16554757144E+03  0.20497855237E+03  0.77000000000E+02 0.  0.
   -5000001    1    1    2    0    0 -0.93161911503E+02  0.14376251160E+01  0.60590138746E+02  0.13520862929E+03  0.77000000000E+02 0.  0.
<mgrwt>
<rscale>  0 0.32359119E+03</rscale>
<asrwt>0</asrwt>
<pdfrwt beam="1">  1        1 0.34241893E-01 0.32359119E+03</pdfrwt>
<pdfrwt beam="2">  1       -1 0.18094596E-01 0.32359119E+03</pdfrwt>
<totfact> 0.30423153E+03</totfact>
</mgrwt>
</event>
<event>
 4    1  0.3064919E-004  0.2078554E+03  0.7818608E-02  0.1143276E+00
          1   -1    0    0  501    0  0.00000000000E+00  0.00000000000E+00  0.90038829555E+03  0.90038829557E+03  0.50400000000E-02 0. -1.
         -1   -1    0    0    0  501 -0.00000000000E+00 -0.00000000000E+00 -0.11995901076E+02  0.11995902134E+02  0.50400000000E-02 0.  1.
    5000001    1    1    2    0    0 -0.25993828840E+02 -0.63593500234E+02  0.49834169661E+03  0.50891380310E+03  0.77000000000E+02 0.  0.
   -5000001    1    1    2    0    0  0.25993828840E+02  0.63593500234E+02  0.39005069787E+03  0.40347039460E+03  0.77000000000E+02 0.  0.
<mgrwt>
<rscale>  0 0.20785542E+03</rscale>
<asrwt>0</asrwt>
<pdfrwt beam="1">  1        1 0.13852133E+00 0.20785542E+03</pdfrwt>
<pdfrwt beam="2">  1       -1 0.18455226E-02 0.20785542E+03</pdfrwt>
<totfact> 0.14476215E+04</totfact>
</mgrwt>
</event>
<event>
 4    1  0.3064919E-004  0.2327705E+03  0.7818608E-02  0.1124705E+00
         -1   -1    0    0    0  501 -0.00000000000E+00  0.00000000000E+00  0.88740516336E+02  0.88740516479E+02  0.50400000000E-02 0.  1.
          1   -1    0    0  501    0  0.00000000000E+00 -0.00000000000E+00 -0.15264202289E+03  0.15264202297E+03  0.50400000000E-02 0. -1.
    5000001    1    1    2    0    0  0.37003547111E+02  0.65038535497E+02 -0.78526366884E+02  0.13302129113E+03  0.77000000000E+02 0.  0.
   -5000001    1    1    2    0    0 -0.37003547111E+02 -0.65038535497E+02  0.14624860328E+02  0.10836124832E+03  0.77000000000E+02 0.  0.
<mgrwt>
<rscale>  0 0.23277055E+03</rscale>
<asrwt>0</asrwt>
<pdfrwt beam="1">  1        1 0.23483388E-01 0.23277055E+03</pdfrwt>
<pdfrwt beam="2">  1       -1 0.13652387E-01 0.23277055E+03</pdfrwt>
<totfact> 0.76018609E+03</totfact>
</mgrwt>
</event>
<event>
 4    1  0.3064919E-004  0.2630256E+03  0.7818608E-02  0.1105339E+00
          1   -1    0    0  501    0  0.00000000000E+00  0.00000000000E+00  0.11965424900E+02  0.11965425961E+02  0.50400000000E-02 0.  1.
         -1   -1    0    0    0  501 -0.00000000000E+00 -0.00000000000E+00 -0.14454656561E+04  0.14454656561E+04  0.50400000000E-02 0. -1.
    5000001    1    1    2    0    0 -0.76930626708E+02  0.22141080259E+02 -0.32658711644E+03  0.34495897349E+03  0.77000000000E+02 0.  0.
   -5000001    1    1    2    0    0  0.76930626708E+02 -0.22141080259E+02 -0.11069131147E+04  0.11124721085E+04  0.77000000000E+02 0.  0.
<mgrwt>
<rscale>  0 0.26302556E+03</rscale>
<asrwt>0</asrwt>
<pdfrwt beam="1">  1        1 0.18408358E-02 0.26302556E+03</pdfrwt>
<pdfrwt beam="2">  1       -1 0.22237919E+00 0.26302556E+03</pdfrwt>
<totfact> 0.80939651E+02</totfact>
</mgrwt>
</event>
<event>
 4    1  0.3064919E-004  0.2411351E+03  0.7818608E-02  0.1119039E+00
          1   -1    0    0  501    0  0.00000000000E+00  0.00000000000E+00  0.11328761176E+03  0.11328761187E+03  0.50400000000E-02 0.  1.
         -1   -1    0    0    0  501 -0.00000000000E+00 -0.00000000000E+00 -0.12831528677E+03  0.12831528687E+03  0.50400000000E-02 0. -1.
    5000001    1    1    2    0    0 -0.36352235452E+02 -0.78304554066E+02  0.26529192574E+02  0.11868397646E+03  0.77000000000E+02 0.  0.
   -5000001    1    1    2    0    0  0.36352235452E+02  0.78304554066E+02 -0.41556867590E+02  0.12291892228E+03  0.77000000000E+02 0.  0.
<mgrwt>
<rscale>  0 0.24113509E+03</rscale>
<asrwt>0</asrwt>
<pdfrwt beam="1">  1        1 0.17428863E-01 0.24113509E+03</pdfrwt>
<pdfrwt beam="2">  1       -1 0.19740813E-01 0.24113509E+03</pdfrwt>
<totfact> 0.62026497E+03</totfact>
</mgrwt>
</event>
<event>
 4    1  0.3064919E-004  0.2814093E+03  0.7818608E-02  0.1094922E+00
         -1   -1    0    0    0  501 -0.00000000000E+00  0.00000000000E+00  0.10995627264E+03  0.10995627276E+03  0.50400000000E-02 0. -1.
          1   -1    0    0  501    0  0.00000000000E+00 -0.00000000000E+00 -0.18005159434E+03  0.18005159441E+03  0.50400000000E-02 0.  1.
    5000001    1    1    2    0    0 -0.15542311183E+02  0.98960083166E+02  0.28764774214E+02  0.12958037557E+03  0.77000000000E+02 0.  0.
   -5000001    1    1    2    0    0  0.15542311183E+02 -0.98960083166E+02 -0.98860095914E+02  0.16042749160E+03  0.77000000000E+02 0.  0.
<mgrwt>
<rscale>  0 0.28140933E+03</rscale>
<asrwt>0</asrwt>
<pdfrwt beam="1">  1        1 0.27700245E-01 0.28140933E+03</pdfrwt>
<pdfrwt beam="2">  1       -1 0.16916350E-01 0.28140933E+03</pdfrwt>
<totfact> 0.44186753E+03</totfact>
</mgrwt>
</event>
<event>
 4    1  0.3064919E-004  0.3092801E+03  0.7818608E-02  0.1080691E+00
         -1   -1    0    0    0  501 -0.00000000000E+00  0.00000000000E+00  0.20388259177E+02  0.20388259800E+02  0.50400000000E-02 0.  1.
          1   -1    0    0  501    0  0.00000000000E+00 -0.00000000000E+00 -0.11729074732E+04  0.11729074732E+04  0.50400000000E-02 0. -1.
    5000001    1    1    2    0    0  0.63382759022E+02 -0.39710245413E+02 -0.10057331574E+04  0.10114457285E+04  0.77000000000E+02 0.  0.
   -5000001    1    1    2    0    0 -0.63382759022E+02  0.39710245413E+02 -0.14678605657E+03  0.18185000450E+03  0.77000000000E+02 0.  0.
<mgrwt>
<rscale>  0 0.30928008E+03</rscale>
<asrwt>0</asrwt>
<pdfrwt beam="1">  1        1 0.18044725E+00 0.30928008E+03</pdfrwt>
<pdfrwt beam="2">  1       -1 0.31366562E-02 0.30928008E+03</pdfrwt>
<totfact> 0.42332880E+03</totfact>
</mgrwt>
</event>
<event>
 4    1  0.3064919E-004  0.2430033E+03  0.7818608E-02  0.1117808E+00
          1   -1    0    0  501    0  0.00000000000E+00  0.00000000000E+00  0.51379111215E+03  0.51379111218E+03  0.50400000000E-02 0. -1.
         -1   -1    0    0    0  501 -0.00000000000E+00 -0.00000000000E+00 -0.28732797893E+02  0.28732798335E+02  0.50400000000E-02 0.  1.
    5000001    1    1    2    0    0 -0.15965161505E+02 -0.44793561294E+02  0.42352372776E+03  0.43308509267E+03  0.77000000000E+02 0.  0.
   -5000001    1    1    2    0    0  0.15965161505E+02  0.44793561294E+02  0.61534586497E+02  0.10943881784E+03  0.77000000000E+02 0.  0.
<mgrwt>
<rscale>  0 0.24300334E+03</rscale>
<asrwt>0</asrwt>
<pdfrwt beam="1">  1        1 0.79044785E-01 0.24300334E+03</pdfrwt>
<pdfrwt beam="2">  1       -1 0.44204305E-02 0.24300334E+03</pdfrwt>
<totfact> 0.91150151E+03</totfact>
</mgrwt>
</event>
<event>
 4    1  0.3064919E-004  0.1808967E+03  0.7818608E-02  0.1166938E+00
         -1   -1    0    0    0  501 -0.00000000000E+00  0.00000000000E+00  0.49450828795E+03  0.49450828797E+03  0.50400000000E-02 0. -1.
          1   -1    0    0  501    0  0.00000000000E+00 -0.00000000000E+00 -0.16543519324E+02  0.16543520092E+02  0.50400000000E-02 0.  1.
    5000001    1    1    2    0    0  0.43429923458E+02 -0.19000437436E+02  0.23283640933E+03  0.24977783805E+03  0.77000000000E+02 0.  0.
   -5000001    1    1    2    0    0 -0.43429923458E+02  0.19000437436E+02  0.24512835930E+03  0.26127397001E+03  0.77000000000E+02 0.  0.
<mgrwt>
<rscale>  0 0.18089674E+03</rscale>
<asrwt>0</asrwt>
<pdfrwt beam="1">  1        1 0.25451574E-02 0.18089674E+03</pdfrwt>
<pdfrwt beam="2">  1       -1 0.76078184E-01 0.18089674E+03</pdfrwt>
<totfact> 0.75428706E+03</totfact>
</mgrwt>
</event>
<event>
 4    1  0.3064919E-004  0.2425071E+03  0.7818608E-02  0.1118134E+00
          1   -1    0    0  501    0  0.00000000000E+00  0.00000000000E+00  0.28796215137E+02  0.28796215578E+02  0.50400000000E-02 0. -1.
         -1   -1    0    0    0  501 -0.00000000000E+00 -0.00000000000E+00 -0.51056797960E+03  0.51056797963E+03  0.50400000000E-02 0.  1.
    5000001    1    1    2    0    0  0.49313220679E+02 -0.21713340938E+02 -0.41129102175E+03  0.42189165372E+03  0.77000000000E+02 0.  0.
   -5000001    1    1    2    0    0 -0.49313220679E+02  0.21713340938E+02 -0.70480742712E+02  0.11747254148E+03  0.77000000000E+02 0.  0.
<mgrwt>
<rscale>  0 0.24250712E+03</rscale>
<asrwt>0</asrwt>
<pdfrwt beam="1">  1        1 0.44301874E-02 0.24250712E+03</pdfrwt>
<pdfrwt beam="2">  1       -1 0.78548913E-01 0.24250712E+03</pdfrwt>
<totfact> 0.33137742E+03</totfact>
</mgrwt>
</event>
<event>
 4    1  0.3064919E-004  0.3095907E+03  0.7818608E-02  0.1080542E+00
         -1   -1    0    0    0  501 -0.00000000000E+00  0.00000000000E+00  0.90242536711E+02  0.90242536851E+02  0.50400000000E-02 0. -1.
          1   -1    0    0  501    0  0.00000000000E+00 -0.00000000000E+00 -0.26552446551E+03  0.26552446556E+03  0.50400000000E-02 0.  1.
    5000001    1    1    2    0    0 -0.26896968050E+02  0.96467266647E+02 -0.19044499746E+03  0.22853375567E+03  0.77000000000E+02 0.  0.
   -5000001    1    1    2    0    0  0.26896968050E+02 -0.96467266647E+02  0.15163068656E+02  0.12723324674E+03  0.77000000000E+02 0.  0.
<mgrwt>
<rscale>  0 0.30959071E+03</rscale>
<asrwt>0</asrwt>
<pdfrwt beam="1">  1        1 0.40849917E-01 0.30959071E+03</pdfrwt>
<pdfrwt beam="2">  1       -1 0.13883467E-01 0.30959071E+03</pdfrwt>
<totfact> 0.37168080E+03</totfact>
</mgrwt>
</event>
<event>
 4    1  0.3064919E-004  0.4314329E+03  0.7818608E-02  0.1033408E+00
          1   -1    0    0  501    0  0.00000000000E+00  0.00000000000E+00  0.81762586577E+02  0.81762586732E+02  0.50400000000E-02 0.  1.
         -1   -1    0    0    0  501 -0.00000000000E+00 -0.00000000000E+00 -0.56913065780E+03  0.56913065782E+03  0.50400000000E-02 0. -1.
    5000001    1    1    2    0    0 -0.67093274739E+02  0.18964471024E+03 -0.22596294133E+03  0.31217763291E+03  0.77000000000E+02 0.  0.
   -5000001    1    1    2    0    0  0.67093274739E+02 -0.18964471024E+03 -0.26140512989E+03  0.33871561164E+03  0.77000000000E+02 0.  0.
<mgrwt>
<rscale>  0 0.43143294E+03</rscale>
<asrwt>0</asrwt>
<pdfrwt beam="1">  1        1 0.12578860E-01 0.43143294E+03</pdfrwt>
<pdfrwt beam="2">  1       -1 0.87558560E-01 0.43143294E+03</pdfrwt>
<totfact> 0.63578242E+02</totfact>
</mgrwt>
</event>
<event>
 4    1  0.3064919E-004  0.2303253E+03  0.7818608E-02  0.1126411E+00
         -1   -1    0    0    0  501 -0.00000000000E+00  0.00000000000E+00  0.76014824006E+02  0.76014824173E+02  0.50400000000E-02 0. -1.
          1   -1    0    0  501    0  0.00000000000E+00 -0.00000000000E+00 -0.17447167880E+03  0.17447167887E+03  0.50400000000E-02 0.  1.
    5000001    1    1    2    0    0  0.48103508119E+02  0.67925795896E+02 -0.27326764086E+02  0.11663452866E+03  0.77000000000E+02 0.  0.
   -5000001    1    1    2    0    0 -0.48103508119E+02 -0.67925795896E+02 -0.71130090705E+02  0.13385197438E+03  0.77000000000E+02 0.  0.
<mgrwt>
<rscale>  0 0.23032528E+03</rscale>
<asrwt>0</asrwt>
<pdfrwt beam="1">  1        1 0.26841797E-01 0.23032528E+03</pdfrwt>
<pdfrwt beam="2">  1       -1 0.11694588E-01 0.23032528E+03</pdfrwt>
<totfact> 0.81680210E+03</totfact>
</mgrwt>
</event>
<event>
 4    1  0.3064919E-004  0.3473774E+03  0.7818608E-02  0.1063697E+00
          1   -1    0    0  501    0  0.00000000000E+00  0.00000000000E+00  0.26100785426E+04  0.26100785426E+04  0.50400000000E-02 0.  1.
         -1   -1    0    0    0  501 -0.00000000000E+00 -0.00000000000E+00 -0.11558182510E+02  0.11558183608E+02  0.50400000000E-02 0. -1.
    5000001    1    1    2    0    0 -0.11774809630E+03  0.67794233287E+02  0.18729316097E+04  0.18794314265E+04  0.77000000000E+02 0.  0.
   -5000001    1    1    2    0    0  0.11774809630E+03 -0.67794233287E+02  0.72558875039E+03  0.74220529972E+03  0.77000000000E+02 0.  0.
<mgrwt>
<rscale>  0 0.34737741E+03</rscale>
<asrwt>0</asrwt>
<pdfrwt beam="1">  1        1 0.40155025E+00 0.34737741E+03</pdfrwt>
<pdfrwt beam="2">  1       -1 0.17781833E-02 0.34737741E+03</pdfrwt>
<totfact> 0.10815224E+03</totfact>
</mgrwt>
</event>
<event>
 4    1  0.3064919E-004  0.2814759E+03  0.7818608E-02  0.1094886E+00
         -1   -1    0    0    0  501 -0.00000000000E+00  0.00000000000E+00  0.74368966395E+03  0.74368966397E+03  0.50400000000E-02 0.  1.
          1   -1    0    0  501    0  0.00000000000E+00 -0.00000000000E+00 -0.26633650188E+02  0.26633650664E+02  0.50400000000E-02 0. -1.
    5000001    1    1    2    0    0 -0.18957957561E+02  0.10128408179E+03  0.51479263619E+03  0.53062070037E+03  0.77000000000E+02 0.  0.
   -5000001    1    1    2    0    0  0.18957957561E+02 -0.10128408179E+03  0.20226337757E+03  0.23970261427E+03  0.77000000000E+02 0.  0.
<mgrwt>
<rscale>  0 0.28147590E+03</rscale>
<asrwt>0</asrwt>
<pdfrwt beam="1">  1        1 0.40974842E-02 0.28147590E+03</pdfrwt>
<pdfrwt beam="2">  1       -1 0.11441381E+00 0.28147590E+03</pdfrwt>
<totfact> 0.16274636E+03</totfact>
</mgrwt>
</event>
<event>
 4    1  0.3064919E-004  0.2971232E+03  0.7818608E-02  0.1086688E+00
          1   -1    0    0  501    0  0.00000000000E+00  0.00000000000E+00  0.44473935571E+02  0.44473935857E+02  0.50400000000E-02 0.  1.
         -1   -1    0    0    0  501 -0.00000000000E+00 -0.00000000000E+00 -0.49625801475E+03  0.49625801478E+03  0.50400000000E-02 0. -1.
    5000001    1    1    2    0    0 -0.14753645767E+02  0.11835668298E+03 -0.30554369278E+03  0.33691530489E+03  0.77000000000E+02 0.  0.
   -5000001    1    1    2    0    0  0.14753645767E+02 -0.11835668298E+03 -0.14624038639E+03  0.20381664574E+03  0.77000000000E+02 0.  0.
<mgrwt>
<rscale>  0 0.29712319E+03</rscale>
<asrwt>0</asrwt>
<pdfrwt beam="1">  1        1 0.68421443E-02 0.29712319E+03</pdfrwt>
<pdfrwt beam="2">  1       -1 0.76347383E-01 0.29712319E+03</pdfrwt>
<totfact> 0.19376510E+03</totfact>
</mgrwt>
</event>
<event>
 4    1  0.3064919E-004  0.5178602E+03  0.7818608E-02  0.1009219E+00
         -1   -1    0    0    0  501 -0.00000000000E+00  0.00000000000E+00  0.74467716592E+02  0.74467716762E+02  0.50400000000E-02 0. -1.
          1   -1    0    0  501    0  0.00000000000E+00 -0.00000000000E+00 -0.90032023594E+03  0.90032023595E+03  0.50400000000E-02 0.  1.
    5000001    1    1    2    0    0  0.24663567696E+03 -0.49632842734E+01 -0.38245790227E+03  0.46158080371E+03  0.77000000000E+02 0.  0.
   -5000001    1    1    2    0    0 -0.24663567696E+03  0.49632842734E+01 -0.44339461707E+03  0.51320714900E+03  0.77000000000E+02 0.  0.
<mgrwt>
<rscale>  0 0.51786018E+03</rscale>
<asrwt>0</asrwt>
<pdfrwt beam="1">  1        1 0.13851080E+00 0.51786018E+03</pdfrwt>
<pdfrwt beam="2">  1       -1 0.11456572E-01 0.51786018E+03</pdfrwt>
<totfact> 0.93531243E+02</totfact>
</mgrwt>
</event>
<event>
 4    1  0.3064919E-004  0.1630118E+03  0.7818608E-02  0.1185338E+00
         -1   -1    0    0    0  501 -0.00000000000E+00  0.00000000000E+00  0.99515397301E+01  0.99515410063E+01  0.50400000000E-02 0. -1.
          1   -1    0    0  501    0  0.00000000000E+00 -0.00000000000E+00 -0.66755602165E+03  0.66755602167E+03  0.50400000000E-02 0.  1.
    5000001    1    1    2    0    0  0.23473450857E+02 -0.51835188267E+01 -0.28027282031E+03  0.29165000526E+03  0.77000000000E+02 0.  0.
   -5000001    1    1    2    0    0 -0.23473450857E+02  0.51835188267E+01 -0.37733166161E+03  0.38585755742E+03  0.77000000000E+02 0.  0.
<mgrwt>
<rscale>  0 0.16301179E+03</rscale>
<asrwt>0</asrwt>
<pdfrwt beam="1">  1        1 0.10270089E+00 0.16301179E+03</pdfrwt>
<pdfrwt beam="2">  1       -1 0.15310067E-02 0.16301179E+03</pdfrwt>
<totfact> 0.29270615E+04</totfact>
</mgrwt>
</event>
<event>
 4    1  0.3064919E-004  0.1875050E+03  0.7818608E-02  0.1160731E+00
         -1   -1    0    0    0  501 -0.00000000000E+00  0.00000000000E+00  0.15017837393E+02  0.15017838239E+02  0.50400000000E-02 0. -1.
          1   -1    0    0  501    0  0.00000000000E+00 -0.00000000000E+00 -0.58527295906E+03  0.58527295908E+03  0.50400000000E-02 0.  1.
    5000001    1    1    2    0    0 -0.67199628889E+01  0.49243745442E+02 -0.22186884685E+03  0.24005184767E+03  0.77000000000E+02 0.  0.
   -5000001    1    1    2    0    0  0.67199628889E+01 -0.49243745442E+02 -0.34838627481E+03  0.36023894965E+03  0.77000000000E+02 0.  0.
<mgrwt>
<rscale>  0 0.18750503E+03</rscale>
<asrwt>0</asrwt>
<pdfrwt beam="1">  1        1 0.90041976E-01 0.18750503E+03</pdfrwt>
<pdfrwt beam="2">  1       -1 0.23104370E-02 0.18750503E+03</pdfrwt>
<totfact> 0.19576077E+04</totfact>
</mgrwt>
</event>
<event>
 4    1  0.3064919E-004  0.1628706E+03  0.7818608E-02  0.1185494E+00
         -1   -1    0    0    0  501 -0.00000000000E+00  0.00000000000E+00  0.11640342110E+03  0.11640342121E+03  0.50400000000E-02 0. -1.
          1   -1    0    0  501    0  0.00000000000E+00 -0.00000000000E+00 -0.56971738081E+02  0.56971738304E+02  0.50400000000E-02 0.  1.
    5000001    1    1    2    0    0 -0.13709610777E+01  0.18669185284E+02  0.97359685128E+01  0.79838631604E+02  0.77000000000E+02 0.  0.
   -5000001    1    1    2    0    0  0.13709610777E+01 -0.18669185284E+02  0.49695714511E+02  0.93536527914E+02  0.77000000000E+02 0.  0.
<mgrwt>
<rscale>  0 0.16287057E+03</rscale>
<asrwt>0</asrwt>
<pdfrwt beam="1">  1        1 0.87648828E-02 0.16287057E+03</pdfrwt>
<pdfrwt beam="2">  1       -1 0.17908219E-01 0.16287057E+03</pdfrwt>
<totfact> 0.17507997E+04</totfact>
</mgrwt>
</event>
<event>
 4    1  0.3064919E-004  0.1854051E+03  0.7818608E-02  0.1162672E+00
          1   -1    0    0  501    0  0.00000000000E+00  0.00000000000E+00  0.12282362912E+04  0.12282362912E+04  0.50400000000E-02 0. -1.
         -1   -1    0    0    0  501 -0.00000000000E+00 -0.00000000000E+00 -0.69968328068E+01  0.69968346220E+01  0.50400000000E-02 0.  1.
    5000001    1    1    2    0    0  0.25509545853E+02  0.44631640718E+02  0.57933873924E+03  0.58668994799E+03  0.77000000000E+02 0.  0.
   -5000001    1    1    2    0    0 -0.25509545853E+02 -0.44631640718E+02  0.64190071917E+03  0.64854317787E+03  0.77000000000E+02 0.  0.
<mgrwt>
<rscale>  0 0.18540513E+03</rscale>
<asrwt>0</asrwt>
<pdfrwt beam="1">  1        1 0.18895930E+00 0.18540513E+03</pdfrwt>
<pdfrwt beam="2">  1       -1 0.10764367E-02 0.18540513E+03</pdfrwt>
<totfact> 0.18117281E+04</totfact>
</mgrwt>
</event>
<event>
 4    1  0.3064919E-004  0.2236464E+03  0.7818608E-02  0.1131193E+00
          1   -1    0    0  501    0  0.00000000000E+00  0.00000000000E+00  0.96404021894E+02  0.96404022026E+02  0.50400000000E-02 0. -1.
         -1   -1    0    0    0  501 -0.00000000000E+00 -0.00000000000E+00 -0.12970861740E+03  0.12970861750E+03  0.50400000000E-02 0.  1.
    5000001    1    1    2    0    0  0.78085606955E+02  0.13185905425E+02  0.98142874158E+00  0.11045901194E+03  0.77000000000E+02 0.  0.
   -5000001    1    1    2    0    0 -0.78085606955E+02 -0.13185905425E+02 -0.34286024247E+02  0.11565362759E+03  0.77000000000E+02 0.  0.
<mgrwt>
<rscale>  0 0.22364644E+03</rscale>
<asrwt>0</asrwt>
<pdfrwt beam="1">  1        1 0.14831388E-01 0.22364644E+03</pdfrwt>
<pdfrwt beam="2">  1       -1 0.19955172E-01 0.22364644E+03</pdfrwt>
<totfact> 0.74938383E+03</totfact>
</mgrwt>
</event>
<event>
 4    1  0.3064919E-004  0.2342318E+03  0.7818608E-02  0.1123696E+00
          1   -1    0    0  501    0  0.00000000000E+00  0.00000000000E+00  0.90543763297E+02  0.90543763438E+02  0.50400000000E-02 0.  1.
         -1   -1    0    0    0  501 -0.00000000000E+00 -0.00000000000E+00 -0.15148619277E+03  0.15148619286E+03  0.50400000000E-02 0. -1.
    5000001    1    1    2    0    0  0.36580093112E+02 -0.77277794714E+02 -0.53042669468E+02  0.12669840391E+03  0.77000000000E+02 0.  0.
   -5000001    1    1    2    0    0 -0.36580093112E+02  0.77277794714E+02 -0.78997600054E+01  0.11533155239E+03  0.77000000000E+02 0.  0.
<mgrwt>
<rscale>  0 0.23423177E+03</rscale>
<asrwt>0</asrwt>
<pdfrwt beam="1">  1        1 0.13929810E-01 0.23423177E+03</pdfrwt>
<pdfrwt beam="2">  1       -1 0.23305568E-01 0.23423177E+03</pdfrwt>
<totfact> 0.63294346E+03</totfact>
</mgrwt>
</event>
<event>
 4    1  0.3064919E-004  0.5411602E+03  0.7818608E-02  0.1003561E+00
          1   -1    0    0  501    0  0.00000000000E+00  0.00000000000E+00  0.45758780189E+03  0.45758780192E+03  0.50400000000E-02 0.  1.
         -1   -1    0    0    0  501 -0.00000000000E+00 -0.00000000000E+00 -0.15999900516E+03  0.15999900524E+03  0.50400000000E-02 0. -1.
    5000001    1    1    2    0    0  0.13510280263E+03  0.21171425496E+03  0.74756094430E+02  0.27311749612E+03  0.77000000000E+02 0.  0.
   -5000001    1    1    2    0    0 -0.13510280263E+03 -0.21171425496E+03  0.22283270230E+03  0.34446931104E+03  0.77000000000E+02 0.  0.
<mgrwt>
<rscale>  0 0.54116021E+03</rscale>
<asrwt>0</asrwt>
<pdfrwt beam="1">  1        1 0.70398123E-01 0.54116021E+03</pdfrwt>
<pdfrwt beam="2">  1       -1 0.24615232E-01 0.54116021E+03</pdfrwt>
<totfact> 0.72514344E+02</totfact>
</mgrwt>
</event>
<event>
 4    1  0.3064919E-004  0.1853972E+03  0.7818608E-02  0.1162679E+00
          1   -1    0    0  501    0  0.00000000000E+00  0.00000000000E+00  0.25218439664E+02  0.25218440168E+02  0.50400000000E-02 0. -1.
         -1   -1    0    0    0  501 -0.00000000000E+00 -0.00000000000E+00 -0.34074410133E+03  0.34074410137E+03  0.50400000000E-02 0.  1.
    5000001    1    1    2    0    0 -0.42421614097E+02  0.24350699883E+02 -0.19028698888E+03  0.21102295625E+03  0.77000000000E+02 0.  0.
   -5000001    1    1    2    0    0  0.42421614097E+02 -0.24350699883E+02 -0.12523867279E+03  0.15493958529E+03  0.77000000000E+02 0.  0.
<mgrwt>
<rscale>  0 0.18539725E+03</rscale>
<asrwt>0</asrwt>
<pdfrwt beam="1">  1        1 0.38797602E-02 0.18539725E+03</pdfrwt>
<pdfrwt beam="2">  1       -1 0.52422166E-01 0.18539725E+03</pdfrwt>
<totfact> 0.86405359E+03</totfact>
</mgrwt>
</event>
<event>
 4    1  0.3064919E-004  0.2201219E+03  0.7818608E-02  0.1133792E+00
          1   -1    0    0  501    0  0.00000000000E+00  0.00000000000E+00  0.94154258938E+02  0.94154259073E+02  0.50400000000E-02 0.  1.
         -1   -1    0    0    0  501 -0.00000000000E+00 -0.00000000000E+00 -0.12865501798E+03  0.12865501808E+03  0.50400000000E-02 0. -1.
    5000001    1    1    2    0    0  0.87487479041E+01  0.75465292117E+02 -0.37817571818E+02  0.11458935222E+03  0.77000000000E+02 0.  0.
   -5000001    1    1    2    0    0 -0.87487479041E+01 -0.75465292117E+02  0.33168127795E+01  0.10821992493E+03  0.77000000000E+02 0.  0.
<mgrwt>
<rscale>  0 0.22012195E+03</rscale>
<asrwt>0</asrwt>
<pdfrwt beam="1">  1        1 0.14485270E-01 0.22012195E+03</pdfrwt>
<pdfrwt beam="2">  1       -1 0.19793080E-01 0.22012195E+03</pdfrwt>
<totfact> 0.78251411E+03</totfact>
</mgrwt>
</event>
<event>
 4    1  0.3064919E-004  0.2774122E+03  0.7818608E-02  0.1097111E+00
         -1   -1    0    0    0  501 -0.00000000000E+00  0.00000000000E+00  0.50941179586E+02  0.50941179835E+02  0.50400000000E-02 0.  1.
          1   -1    0    0  501    0  0.00000000000E+00 -0.00000000000E+00 -0.37767843720E+03  0.37767843723E+03  0.50400000000E-02 0. -1.
    5000001    1    1    2    0    0  0.40848375061E+02 -0.83158272605E+02 -0.57146218440E+02  0.13333633537E+03  0.77000000000E+02 0.  0.
   -5000001    1    1    2    0    0 -0.40848375061E+02  0.83158272605E+02 -0.26959103917E+03  0.29528328169E+03  0.77000000000E+02 0.  0.
<mgrwt>
<rscale>  0 0.27741222E+03</rscale>
<asrwt>0</asrwt>
<pdfrwt beam="1">  1        1 0.58104373E-01 0.27741222E+03</pdfrwt>
<pdfrwt beam="2">  1       -1 0.78371048E-02 0.27741222E+03</pdfrwt>
<totfact> 0.57673303E+03</totfact>
</mgrwt>
</event>
<event>
 4    1  0.3064919E-004  0.4292733E+03  0.7818608E-02  0.1034090E+00
          1   -1    0    0  501    0  0.00000000000E+00  0.00000000000E+00  0.14160819209E+03  0.14160819218E+03  0.50400000000E-02 0.  1.
         -1   -1    0    0    0  501 -0.00000000000E+00 -0.00000000000E+00 -0.32532646892E+03  0.32532646896E+03  0.50400000000E-02 0. -1.
    5000001    1    1    2    0    0  0.14801532462E+03 -0.75619452556E+02 -0.21353485400E+03  0.28134137946E+03  0.77000000000E+02 0.  0.
   -5000001    1    1    2    0    0 -0.14801532462E+03  0.75619452556E+02  0.29816577166E+02  0.18559328167E+03  0.77000000000E+02 0.  0.
<mgrwt>
<rscale>  0 0.42927331E+03</rscale>
<asrwt>0</asrwt>
<pdfrwt beam="1">  1        1 0.21785876E-01 0.42927331E+03</pdfrwt>
<pdfrwt beam="2">  1       -1 0.50050226E-01 0.42927331E+03</pdfrwt>
<totfact> 0.94077586E+02</totfact>
</mgrwt>
</event>
<event>
 4    1  0.3064919E-004  0.1802025E+03  0.7818608E-02  0.1167607E+00
          1   -1    0    0  501    0  0.00000000000E+00  0.00000000000E+00  0.29573129396E+02  0.29573129826E+02  0.50400000000E-02 0.  1.
         -1   -1    0    0    0  501 -0.00000000000E+00 -0.00000000000E+00 -0.27451396192E+03  0.27451396197E+03  0.50400000000E-02 0. -1.
    5000001    1    1    2    0    0 -0.41099186489E+02  0.32647856018E+01 -0.85138124301E+02  0.12197254677E+03  0.77000000000E+02 0.  0.
   -5000001    1    1    2    0    0  0.41099186489E+02 -0.32647856018E+01 -0.15980270823E+03  0.18211454503E+03  0.77000000000E+02 0.  0.
<mgrwt>
<rscale>  0 0.18020252E+03</rscale>
<asrwt>0</asrwt>
<pdfrwt beam="1">  1        1 0.45497124E-02 0.18020252E+03</pdfrwt>
<pdfrwt beam="2">  1       -1 0.42232915E-01 0.18020252E+03</pdfrwt>
<totfact> 0.10241790E+04</totfact>
</mgrwt>
</event>
<event>
 4    1  0.3064919E-004  0.2148136E+03  0.7818608E-02  0.1137810E+00
         -1   -1    0    0    0  501 -0.00000000000E+00  0.00000000000E+00  0.41217528497E+02  0.41217528805E+02  0.50400000000E-02 0.  1.
          1   -1    0    0  501    0  0.00000000000E+00 -0.00000000000E+00 -0.27988636819E+03  0.27988636824E+03  0.50400000000E-02 0. -1.
    5000001    1    1    2    0    0 -0.64831145033E+02  0.21642829659E+02 -0.73608740840E+02  0.12656514595E+03  0.77000000000E+02 0.  0.
   -5000001    1    1    2    0    0  0.64831145033E+02 -0.21642829659E+02 -0.16506009886E+03  0.19453875109E+03  0.77000000000E+02 0.  0.
<mgrwt>
<rscale>  0 0.21481363E+03</rscale>
<asrwt>0</asrwt>
<pdfrwt beam="1">  1        1 0.43059440E-01 0.21481363E+03</pdfrwt>
<pdfrwt beam="2">  1       -1 0.63411584E-02 0.21481363E+03</pdfrwt>
<totfact> 0.11467044E+04</totfact>
</mgrwt>
</event>
<event>
 4    1  0.3064919E-004  0.2636416E+03  0.7818608E-02  0.1104975E+00
          1   -1    0    0  501    0  0.00000000000E+00  0.00000000000E+00  0.43608383784E+03  0.43608383787E+03  0.50400000000E-02 0.  1.
         -1   -1    0    0    0  501 -0.00000000000E+00 -0.00000000000E+00 -0.39847207546E+02  0.39847207865E+02  0.50400000000E-02 0. -1.
    5000001    1    1    2    0    0  0.94191919470E+02  0.45385170479E+02  0.15711987351E+03  0.20383224976E+03  0.77000000000E+02 0.  0.
   -5000001    1    1    2    0    0 -0.94191919470E+02 -0.45385170479E+02  0.23911675679E+03  0.27209879597E+03  0.77000000000E+02 0.  0.
<mgrwt>
<rscale>  0 0.26364160E+03</rscale>
<asrwt>0</asrwt>
<pdfrwt beam="1">  1        1 0.67089816E-01 0.26364160E+03</pdfrwt>
<pdfrwt beam="2">  1       -1 0.61303401E-02 0.26364160E+03</pdfrwt>
<totfact> 0.69476727E+03</totfact>
</mgrwt>
</event>
<event>
 4    1  0.3064919E-004  0.5461454E+03  0.7818608E-02  0.1002390E+00
         -1   -1    0    0    0  501 -0.00000000000E+00  0.00000000000E+00  0.38585034793E+03  0.38585034796E+03  0.50400000000E-02 0. -1.
          1   -1    0    0  501    0  0.00000000000E+00 -0.00000000000E+00 -0.19325810040E+03  0.19325810047E+03  0.50400000000E-02 0.  1.
    5000001    1    1    2    0    0 -0.10867341138E+02 -0.25561666109E+03  0.15610741547E+03  0.30944547451E+03  0.77000000000E+02 0.  0.
   -5000001    1    1    2    0    0  0.10867341138E+02  0.25561666109E+03  0.36484832052E+02  0.26966297392E+03  0.77000000000E+02 0.  0.
<mgrwt>
<rscale>  0 0.54614542E+03</rscale>
<asrwt>0</asrwt>
<pdfrwt beam="1">  1        1 0.29732016E-01 0.54614542E+03</pdfrwt>
<pdfrwt beam="2">  1       -1 0.59361591E-01 0.54614542E+03</pdfrwt>
<totfact> 0.45311713E+02</totfact>
</mgrwt>
</event>
<event>
 4    1  0.3064919E-004  0.4013170E+03  0.7818608E-02  0.1043325E+00
          1   -1    0    0  501    0  0.00000000000E+00  0.00000000000E+00  0.47329788351E+02  0.47329788619E+02  0.50400000000E-02 0.  1.
         -1   -1    0    0    0  501 -0.00000000000E+00 -0.00000000000E+00 -0.85070806562E+03  0.85070806563E+03  0.50400000000E-02 0. -1.
    5000001    1    1    2    0    0 -0.16249148048E+03 -0.87172148467E+02 -0.36089321470E+03  0.41252318373E+03  0.77000000000E+02 0.  0.
   -5000001    1    1    2    0    0  0.16249148048E+03  0.87172148467E+02 -0.44248506257E+03  0.48551467053E+03  0.77000000000E+02 0.  0.
<mgrwt>
<rscale>  0 0.40131700E+03</rscale>
<asrwt>0</asrwt>
<pdfrwt beam="1">  1        1 0.72815065E-02 0.40131700E+03</pdfrwt>
<pdfrwt beam="2">  1       -1 0.13087815E+00 0.40131700E+03</pdfrwt>
<totfact> 0.52974094E+02</totfact>
</mgrwt>
</event>
<event>
 4    1  0.3064919E-004  0.2301333E+03  0.7818608E-02  0.1126546E+00
         -1   -1    0    0    0  501 -0.00000000000E+00  0.00000000000E+00  0.17870542809E+03  0.17870542816E+03  0.50400000000E-02 0. -1.
          1   -1    0    0  501    0  0.00000000000E+00 -0.00000000000E+00 -0.74090301644E+02  0.74090301816E+02  0.50400000000E-02 0.  1.
    5000001    1    1    2    0    0  0.71109795160E+02  0.15241169167E+02  0.10170771900E+03  0.14684126228E+03  0.77000000000E+02 0.  0.
   -5000001    1    1    2    0    0 -0.71109795160E+02 -0.15241169167E+02  0.29074074443E+01  0.10595446769E+03  0.77000000000E+02 0.  0.
<mgrwt>
<rscale>  0 0.23013334E+03</rscale>
<asrwt>0</asrwt>
<pdfrwt beam="1">  1        1 0.11398508E-01 0.23013334E+03</pdfrwt>
<pdfrwt beam="2">  1       -1 0.27493143E-01 0.23013334E+03</pdfrwt>
<totfact> 0.62652840E+03</totfact>
</mgrwt>
</event>
<event>
 4    1  0.3064919E-004  0.7676519E+03  0.7818608E-02  0.9608057E-01
         -1   -1    0    0    0  501 -0.00000000000E+00  0.00000000000E+00  0.36077588646E+03  0.36077588649E+03  0.50400000000E-02 0. -1.
          1   -1    0    0  501    0  0.00000000000E+00 -0.00000000000E+00 -0.40834873047E+03  0.40834873050E+03  0.50400000000E-02 0.  1.
    5000001    1    1    2    0    0  0.36901555058E+03  0.71736695092E+02 -0.32448541458E+02  0.38509808859E+03  0.77000000000E+02 0.  0.
   -5000001    1    1    2    0    0 -0.36901555058E+03 -0.71736695092E+02 -0.15124302554E+02  0.38402652841E+03  0.77000000000E+02 0.  0.
<mgrwt>
<rscale>  0 0.76765194E+03</rscale>
<asrwt>0</asrwt>
<pdfrwt beam="1">  1        1 0.62822882E-01 0.76765194E+03</pdfrwt>
<pdfrwt beam="2">  1       -1 0.55503983E-01 0.76765194E+03</pdfrwt>
<totfact> 0.19401927E+02</totfact>
</mgrwt>
</event>
<event>
 4    1  0.3064919E-004  0.2223492E+03  0.7818608E-02  0.1132144E+00
          1   -1    0    0  501    0  0.00000000000E+00  0.00000000000E+00  0.45879889012E+02  0.45879889289E+02  0.50400000000E-02 0. -1.
         -1   -1    0    0    0  501 -0.00000000000E+00 -0.00000000000E+00 -0.26939449736E+03  0.26939449740E+03  0.50400000000E-02 0.  1.
    5000001    1    1    2    0    0 -0.57914046632E+02  0.17477965105E+01 -0.33146225110E+02  0.10190566142E+03  0.77000000000E+02 0.  0.
   -5000001    1    1    2    0    0  0.57914046632E+02 -0.17477965105E+01 -0.19036838323E+03  0.21336872527E+03  0.77000000000E+02 0.  0.
<mgrwt>
<rscale>  0 0.22234918E+03</rscale>
<asrwt>0</asrwt>
<pdfrwt beam="1">  1        1 0.70584446E-02 0.22234918E+03</pdfrwt>
<pdfrwt beam="2">  1       -1 0.41445306E-01 0.22234918E+03</pdfrwt>
<totfact> 0.58753066E+03</totfact>
</mgrwt>
</event>
<event>
 4    1  0.3064919E-004  0.2004113E+03  0.7818608E-02  0.1149392E+00
          1   -1    0    0  501    0  0.00000000000E+00  0.00000000000E+00  0.14724791918E+02  0.14724792780E+02  0.50400000000E-02 0.  1.
         -1   -1    0    0    0  501 -0.00000000000E+00 -0.00000000000E+00 -0.68192274823E+03  0.68192274824E+03  0.50400000000E-02 0. -1.
    5000001    1    1    2    0    0  0.55101053479E+02 -0.31714167332E+02 -0.36273523794E+03  0.37622834469E+03  0.77000000000E+02 0.  0.
   -5000001    1    1    2    0    0 -0.55101053479E+02  0.31714167332E+02 -0.30446271837E+03  0.32041919633E+03  0.77000000000E+02 0.  0.
<mgrwt>
<rscale>  0 0.20041129E+03</rscale>
<asrwt>0</asrwt>
<pdfrwt beam="1">  1        1 0.22653532E-02 0.20041129E+03</pdfrwt>
<pdfrwt beam="2">  1       -1 0.10491117E+00 0.20041129E+03</pdfrwt>
<totfact> 0.45002616E+03</totfact>
</mgrwt>
</event>
<event>
 4    1  0.3064919E-004  0.2562421E+03  0.7818608E-02  0.1109422E+00
         -1   -1    0    0    0  501 -0.00000000000E+00  0.00000000000E+00  0.34722645538E+03  0.34722645542E+03  0.50400000000E-02 0.  1.
          1   -1    0    0  501    0  0.00000000000E+00 -0.00000000000E+00 -0.47274651181E+02  0.47274651450E+02  0.50400000000E-02 0. -1.
    5000001    1    1    2    0    0 -0.29513848804E+02  0.87742134793E+02  0.82581334466E+02  0.14600830898E+03  0.77000000000E+02 0.  0.
   -5000001    1    1    2    0    0  0.29513848804E+02 -0.87742134793E+02  0.21737046973E+03  0.24849279789E+03  0.77000000000E+02 0.  0.
<mgrwt>
<rscale>  0 0.25624215E+03</rscale>
<asrwt>0</asrwt>
<pdfrwt beam="1">  1        1 0.72730234E-02 0.25624215E+03</pdfrwt>
<pdfrwt beam="2">  1       -1 0.53419454E-01 0.25624215E+03</pdfrwt>
<totfact> 0.35709021E+03</totfact>
</mgrwt>
</event>
<event>
 4    1  0.3064919E-004  0.3214242E+03  0.7818608E-02  0.1074996E+00
          1   -1    0    0  501    0  0.00000000000E+00  0.00000000000E+00  0.12435894555E+04  0.12435894555E+04  0.50400000000E-02 0.  1.
         -1   -1    0    0    0  501 -0.00000000000E+00 -0.00000000000E+00 -0.20769213200E+02  0.20769213811E+02  0.50400000000E-02 0. -1.
    5000001    1    1    2    0    0 -0.33012997878E+02 -0.73978945921E+02  0.15713929643E+03  0.19283283162E+03  0.77000000000E+02 0.  0.
   -5000001    1    1    2    0    0  0.33012997878E+02  0.73978945921E+02  0.10656809459E+04  0.10715258377E+04  0.77000000000E+02 0.  0.
<mgrwt>
<rscale>  0 0.32142417E+03</rscale>
<asrwt>0</asrwt>
<pdfrwt beam="1">  1        1 0.19132146E+00 0.32142417E+03</pdfrwt>
<pdfrwt beam="2">  1       -1 0.31952635E-02 0.32142417E+03</pdfrwt>
<totfact> 0.36749269E+03</totfact>
</mgrwt>
</event>
<event>
 4    1  0.3064919E-004  0.1801991E+03  0.7818608E-02  0.1167611E+00
         -1   -1    0    0    0  501 -0.00000000000E+00  0.00000000000E+00  0.11376098167E+02  0.11376099283E+02  0.50400000000E-02 0.  1.
          1   -1    0    0  501    0  0.00000000000E+00 -0.00000000000E+00 -0.71359482261E+03  0.71359482263E+03  0.50400000000E-02 0. -1.
    5000001    1    1    2    0    0  0.41082269867E+02  0.19272321891E+02 -0.30528234976E+03  0.31809666513E+03  0.77000000000E+02 0.  0.
   -5000001    1    1    2    0    0 -0.41082269867E+02 -0.19272321891E+02 -0.39693637468E+03  0.40687425678E+03  0.77000000000E+02 0.  0.
<mgrwt>
<rscale>  0 0.18019906E+03</rscale>
<asrwt>0</asrwt>
<pdfrwt beam="1">  1        1 0.10978378E+00 0.18019906E+03</pdfrwt>
<pdfrwt beam="2">  1       -1 0.17501696E-02 0.18019906E+03</pdfrwt>
<totfact> 0.22103846E+04</totfact>
</mgrwt>
</event>
<event>
 4    1  0.3064919E-004  0.2773124E+03  0.7818608E-02  0.1097166E+00
         -1   -1    0    0    0  501 -0.00000000000E+00  0.00000000000E+00  0.72033963381E+02  0.72033963557E+02  0.50400000000E-02 0. -1.
          1   -1    0    0  501    0  0.00000000000E+00 -0.00000000000E+00 -0.26689543055E+03  0.26689543060E+03  0.50400000000E-02 0.  1.
    5000001    1    1    2    0    0  0.92012073188E+02 -0.19275787904E+02 -0.17904140863E+03  0.21638531284E+03  0.77000000000E+02 0.  0.
   -5000001    1    1    2    0    0 -0.92012073188E+02  0.19275787904E+02 -0.15820058541E+02  0.12254408131E+03  0.77000000000E+02 0.  0.
<mgrwt>
<rscale>  0 0.27731236E+03</rscale>
<asrwt>0</asrwt>
<pdfrwt beam="1">  1        1 0.41060835E-01 0.27731236E+03</pdfrwt>
<pdfrwt beam="2">  1       -1 0.11082148E-01 0.27731236E+03</pdfrwt>
<totfact> 0.52433025E+03</totfact>
</mgrwt>
</event>
<event>
 4    1  0.3064919E-004  0.3202187E+03  0.7818608E-02  0.1075549E+00
          1   -1    0    0  501    0  0.00000000000E+00  0.00000000000E+00  0.15967373439E+04  0.15967373439E+04  0.50400000000E-02 0.  1.
         -1   -1    0    0    0  501 -0.00000000000E+00 -0.00000000000E+00 -0.16054610224E+02  0.16054611015E+02  0.50400000000E-02 0. -1.
    5000001    1    1    2    0    0 -0.79816083778E+02  0.11473315073E+03  0.72434678182E+03  0.74171528462E+03  0.77000000000E+02 0.  0.
   -5000001    1    1    2    0    0  0.79816083778E+02 -0.11473315073E+03  0.85633595184E+03  0.87107667029E+03  0.77000000000E+02 0.  0.
<mgrwt>
<rscale>  0 0.32021865E+03</rscale>
<asrwt>0</asrwt>
<pdfrwt beam="1">  1        1 0.24565187E+00 0.32021865E+03</pdfrwt>
<pdfrwt beam="2">  1       -1 0.24699404E-02 0.32021865E+03</pdfrwt>
<totfact> 0.31069962E+03</totfact>
</mgrwt>
</event>
<event>
 4    1  0.3064919E-004  0.2518646E+03  0.7818608E-02  0.1112132E+00
         -1   -1    0    0    0  501 -0.00000000000E+00  0.00000000000E+00  0.15120111901E+02  0.15120112741E+02  0.50400000000E-02 0. -1.
          1   -1    0    0  501    0  0.00000000000E+00 -0.00000000000E+00 -0.10488643805E+04  0.10488643805E+04  0.50400000000E-02 0.  1.
    5000001    1    1    2    0    0  0.51084196694E+02  0.79120105993E+02 -0.37931124193E+03  0.39834106565E+03  0.77000000000E+02 0.  0.
   -5000001    1    1    2    0    0 -0.51084196694E+02 -0.79120105993E+02 -0.65443302669E+03  0.66564342763E+03  0.77000000000E+02 0.  0.
<mgrwt>
<rscale>  0 0.25186462E+03</rscale>
<asrwt>0</asrwt>
<pdfrwt beam="1">  1        1 0.16136369E+00 0.25186462E+03</pdfrwt>
<pdfrwt beam="2">  1       -1 0.23261720E-02 0.25186462E+03</pdfrwt>
<totfact> 0.80446940E+03</totfact>
</mgrwt>
</event>
<event>
 4    1  0.3064919E-004  0.1993452E+03  0.7818608E-02  0.1150293E+00
          1   -1    0    0  501    0  0.00000000000E+00  0.00000000000E+00  0.32412745432E+03  0.32412745436E+03  0.50400000000E-02 0.  1.
         -1   -1    0    0    0  501 -0.00000000000E+00 -0.00000000000E+00 -0.30650384533E+02  0.30650384948E+02  0.50400000000E-02 0. -1.
    5000001    1    1    2    0    0  0.49561502801E+02 -0.24936532276E+02  0.92538728159E+02  0.13255409994E+03  0.77000000000E+02 0.  0.
   -5000001    1    1    2    0    0 -0.49561502801E+02  0.24936532276E+02  0.20093834163E+03  0.22222373937E+03  0.77000000000E+02 0.  0.
<mgrwt>
<rscale>  0 0.19934524E+03</rscale>
<asrwt>0</asrwt>
<pdfrwt beam="1">  1        1 0.49865762E-01 0.19934524E+03</pdfrwt>
<pdfrwt beam="2">  1       -1 0.47154439E-02 0.19934524E+03</pdfrwt>
<totfact> 0.14796473E+04</totfact>
</mgrwt>
</event>
<event>
 4    1  0.3064919E-004  0.2126546E+03  0.7818608E-02  0.1139481E+00
          1   -1    0    0  501    0  0.00000000000E+00  0.00000000000E+00  0.16654365755E+02  0.16654366518E+02  0.50400000000E-02 0.  1.
         -1   -1    0    0    0  501 -0.00000000000E+00 -0.00000000000E+00 -0.67883045071E+03  0.67883045072E+03  0.50400000000E-02 0. -1.
    5000001    1    1    2    0    0 -0.21314047077E+02 -0.68845308787E+02 -0.28690302781E+03  0.30567353911E+03  0.77000000000E+02 0.  0.
   -5000001    1    1    2    0    0  0.21314047077E+02  0.68845308787E+02 -0.37527305714E+03  0.38981127813E+03  0.77000000000E+02 0.  0.
<mgrwt>
<rscale>  0 0.21265456E+03</rscale>
<asrwt>0</asrwt>
<pdfrwt beam="1">  1        1 0.25622107E-02 0.21265456E+03</pdfrwt>
<pdfrwt beam="2">  1       -1 0.10443543E+00 0.21265456E+03</pdfrwt>
<totfact> 0.38367477E+03</totfact>
</mgrwt>
</event>
<event>
 4    1  0.3064919E-004  0.2189094E+03  0.7818608E-02  0.1134699E+00
          1   -1    0    0  501    0  0.00000000000E+00  0.00000000000E+00  0.19489149519E+02  0.19489150171E+02  0.50400000000E-02 0.  1.
         -1   -1    0    0    0  501 -0.00000000000E+00 -0.00000000000E+00 -0.61471821337E+03  0.61471821339E+03  0.50400000000E-02 0. -1.
    5000001    1    1    2    0    0  0.55098972562E+02 -0.11374354796E+02 -0.14197508657E+03  0.17102981591E+03  0.77000000000E+02 0.  0.
   -5000001    1    1    2    0    0 -0.55098972562E+02  0.11374354796E+02 -0.45325397729E+03  0.46317754765E+03  0.77000000000E+02 0.  0.
<mgrwt>
<rscale>  0 0.21890944E+03</rscale>
<asrwt>0</asrwt>
<pdfrwt beam="1">  1        1 0.29983312E-02 0.21890944E+03</pdfrwt>
<pdfrwt beam="2">  1       -1 0.94572018E-01 0.21890944E+03</pdfrwt>
<totfact> 0.38401341E+03</totfact>
</mgrwt>
</event>
<event>
 4    1  0.3064919E-004  0.2136512E+03  0.7818608E-02  0.1138707E+00
         -1   -1    0    0    0  501 -0.00000000000E+00  0.00000000000E+00  0.16982450036E+03  0.16982450043E+03  0.50400000000E-02 0. -1.
          1   -1    0    0  501    0  0.00000000000E+00 -0.00000000000E+00 -0.67197090994E+02  0.67197091183E+02  0.50400000000E-02 0.  1.
    5000001    1    1    2    0    0  0.67928083912E+02 -0.83115411569E+01  0.82680217833E+02  0.13209210696E+03  0.77000000000E+02 0.  0.
   -5000001    1    1    2    0    0 -0.67928083912E+02  0.83115411569E+01  0.19947191531E+02  0.10492948466E+03  0.77000000000E+02 0.  0.
<mgrwt>
<rscale>  0 0.21365123E+03</rscale>
<asrwt>0</asrwt>
<pdfrwt beam="1">  1        1 0.10338014E-01 0.21365123E+03</pdfrwt>
<pdfrwt beam="2">  1       -1 0.26126846E-01 0.21365123E+03</pdfrwt>
<totfact> 0.77401837E+03</totfact>
</mgrwt>
</event>
<event>
 4    1  0.3064919E-004  0.4815661E+03  0.7818608E-02  0.1018706E+00
          1   -1    0    0  501    0  0.00000000000E+00  0.00000000000E+00  0.14464463362E+04  0.14464463362E+04  0.50400000000E-02 0. -1.
         -1   -1    0    0    0  501 -0.00000000000E+00 -0.00000000000E+00 -0.40082016203E+02  0.40082016519E+02  0.50400000000E-02 0.  1.
    5000001    1    1    2    0    0 -0.94535274535E+02 -0.20296066698E+03  0.56800947633E+03  0.61538095167E+03  0.77000000000E+02 0.  0.
   -5000001    1    1    2    0    0  0.94535274535E+02  0.20296066698E+03  0.83835484363E+03  0.87114740103E+03  0.77000000000E+02 0.  0.
<mgrwt>
<rscale>  0 0.48156614E+03</rscale>
<asrwt>0</asrwt>
<pdfrwt beam="1">  1        1 0.22253019E+00 0.48156614E+03</pdfrwt>
<pdfrwt beam="2">  1       -1 0.61664644E-02 0.48156614E+03</pdfrwt>
<totfact> 0.98488065E+02</totfact>
</mgrwt>
</event>
<event>
 4    1  0.3064919E-004  0.2307358E+03  0.7818608E-02  0.1126123E+00
          1   -1    0    0  501    0  0.00000000000E+00  0.00000000000E+00  0.30765579240E+04  0.30765579240E+04  0.50400000000E-02 0. -1.
         -1   -1    0    0    0  501 -0.00000000000E+00 -0.00000000000E+00 -0.43261832889E+01  0.43261862247E+01  0.50400000000E-02 0.  1.
    5000001    1    1    2    0    0  0.59672490971E+02  0.51960525053E+02  0.19829847287E+04  0.19860559248E+04  0.77000000000E+02 0.  0.
   -5000001    1    1    2    0    0 -0.59672490971E+02 -0.51960525053E+02  0.10892470121E+04  0.10948281854E+04  0.77000000000E+02 0.  0.
<mgrwt>
<rscale>  0 0.23073585E+03</rscale>
<asrwt>0</asrwt>
<pdfrwt beam="1">  1        1 0.47331695E+00 0.23073585E+03</pdfrwt>
<pdfrwt beam="2">  1       -1 0.66556640E-03 0.23073585E+03</pdfrwt>
<totfact> 0.21718839E+03</totfact>
</mgrwt>
</event>
<event>
 4    1  0.3064919E-004  0.1600278E+03  0.7818608E-02  0.1188665E+00
         -1   -1    0    0    0  501 -0.00000000000E+00  0.00000000000E+00  0.10132247597E+02  0.10132248851E+02  0.50400000000E-02 0. -1.
          1   -1    0    0  501    0  0.00000000000E+00 -0.00000000000E+00 -0.63186606060E+03  0.63186606062E+03  0.50400000000E-02 0.  1.
    5000001    1    1    2    0    0 -0.92292251852E+01  0.19410952000E+02 -0.32432892336E+03  0.33403624681E+03  0.77000000000E+02 0.  0.
   -5000001    1    1    2    0    0  0.92292251852E+01 -0.19410952000E+02 -0.29740488965E+03  0.30796206267E+03  0.77000000000E+02 0.  0.
<mgrwt>
<rscale>  0 0.16002779E+03</rscale>
<asrwt>0</asrwt>
<pdfrwt beam="1">  1        1 0.97210133E-01 0.16002779E+03</pdfrwt>
<pdfrwt beam="2">  1       -1 0.15588079E-02 0.16002779E+03</pdfrwt>
<totfact> 0.30756238E+04</totfact>
</mgrwt>
</event>
<event>
 4    1  0.3064919E-004  0.2912310E+03  0.7818608E-02  0.1089708E+00
          1   -1    0    0  501    0  0.00000000000E+00  0.00000000000E+00  0.27786786279E+03  0.27786786284E+03  0.50400000000E-02 0.  1.
         -1   -1    0    0    0  501 -0.00000000000E+00 -0.00000000000E+00 -0.76309196391E+02  0.76309196558E+02  0.50400000000E-02 0. -1.
    5000001    1    1    2    0    0  0.61538091470E+02  0.62791123878E+02  0.20641693612E+03  0.23720584617E+03  0.77000000000E+02 0.  0.
   -5000001    1    1    2    0    0 -0.61538091470E+02 -0.62791123878E+02 -0.48582697170E+01  0.11697121323E+03  0.77000000000E+02 0.  0.
<mgrwt>
<rscale>  0 0.29123100E+03</rscale>
<asrwt>0</asrwt>
<pdfrwt beam="1">  1        1 0.42748902E-01 0.29123100E+03</pdfrwt>
<pdfrwt beam="2">  1       -1 0.11739876E-01 0.29123100E+03</pdfrwt>
<totfact> 0.45625575E+03</totfact>
</mgrwt>
</event>
<event>
 4    1  0.3064919E-004  0.1899416E+03  0.7818608E-02  0.1158514E+00
         -1   -1    0    0    0  501 -0.00000000000E+00  0.00000000000E+00  0.43255698074E+02  0.43255698368E+02  0.50400000000E-02 0.  1.
          1   -1    0    0  501    0  0.00000000000E+00 -0.00000000000E+00 -0.20851475090E+03  0.20851475096E+03  0.50400000000E-02 0. -1.
    5000001    1    1    2    0    0  0.63825283621E+00 -0.53355845555E+02 -0.10330065961E+03  0.13945350443E+03  0.77000000000E+02 0.  0.
   -5000001    1    1    2    0    0 -0.63825283621E+00  0.53355845555E+02 -0.61958393213E+02  0.11231694490E+03  0.77000000000E+02 0.  0.
<mgrwt>
<rscale>  0 0.18994158E+03</rscale>
<asrwt>0</asrwt>
<pdfrwt beam="1">  1        1 0.32079192E-01 0.18994158E+03</pdfrwt>
<pdfrwt beam="2">  1       -1 0.66547229E-02 0.18994158E+03</pdfrwt>
<totfact> 0.15275608E+04</totfact>
</mgrwt>
</event>
<event>
 4    1  0.3064919E-004  0.1993018E+03  0.7818608E-02  0.1150329E+00
          1   -1    0    0  501    0  0.00000000000E+00  0.00000000000E+00  0.23246676076E+03  0.23246676082E+03  0.50400000000E-02 0.  1.
         -1   -1    0    0    0  501 -0.00000000000E+00 -0.00000000000E+00 -0.42717061881E+02  0.42717062178E+02  0.50400000000E-02 0. -1.
    5000001    1    1    2    0    0 -0.20667888194E+02 -0.58553054140E+02  0.11153982754E+03  0.14908304692E+03  0.77000000000E+02 0.  0.
   -5000001    1    1    2    0    0  0.20667888194E+02  0.58553054140E+02  0.78209871343E+02  0.12610077608E+03  0.77000000000E+02 0.  0.
<mgrwt>
<rscale>  0 0.19930175E+03</rscale>
<asrwt>0</asrwt>
<pdfrwt beam="1">  1        1 0.35764117E-01 0.19930175E+03</pdfrwt>
<pdfrwt beam="2">  1       -1 0.65718558E-02 0.19930175E+03</pdfrwt>
<totfact> 0.13635218E+04</totfact>
</mgrwt>
</event>
<event>
 4    1  0.3064919E-004  0.2655309E+03  0.7818608E-02  0.1103865E+00
          1   -1    0    0  501    0  0.00000000000E+00  0.00000000000E+00  0.29646981818E+03  0.29646981823E+03  0.50400000000E-02 0. -1.
         -1   -1    0    0    0  501 -0.00000000000E+00 -0.00000000000E+00 -0.59455182546E+02  0.59455182760E+02  0.50400000000E-02 0.  1.
    5000001    1    1    2    0    0 -0.42431648310E+02  0.73970380776E+02  0.20767956903E+03  0.23734334919E+03  0.77000000000E+02 0.  0.
   -5000001    1    1    2    0    0  0.42431648310E+02 -0.73970380776E+02  0.29335066605E+02  0.11858165180E+03  0.77000000000E+02 0.  0.
<mgrwt>
<rscale>  0 0.26553092E+03</rscale>
<asrwt>0</asrwt>
<pdfrwt beam="1">  1        1 0.45610743E-01 0.26553092E+03</pdfrwt>
<pdfrwt beam="2">  1       -1 0.91469509E-02 0.26553092E+03</pdfrwt>
<totfact> 0.61732648E+03</totfact>
</mgrwt>
</event>
<event>
 4    1  0.3064919E-004  0.2101634E+03  0.7818608E-02  0.1141437E+00
          1   -1    0    0  501    0  0.00000000000E+00  0.00000000000E+00  0.50148136690E+03  0.50148136692E+03  0.50400000000E-02 0.  1.
         -1   -1    0    0    0  501 -0.00000000000E+00 -0.00000000000E+00 -0.22019081181E+02  0.22019081758E+02  0.50400000000E-02 0. -1.
    5000001    1    1    2    0    0 -0.31202819573E+02  0.54020911121E+02  0.15268120819E+03  0.18202314722E+03  0.77000000000E+02 0.  0.
   -5000001    1    1    2    0    0  0.31202819573E+02 -0.54020911121E+02  0.32678107752E+03  0.34147730146E+03  0.77000000000E+02 0.  0.
<mgrwt>
<rscale>  0 0.21016336E+03</rscale>
<asrwt>0</asrwt>
<pdfrwt beam="1">  1        1 0.77150975E-01 0.21016336E+03</pdfrwt>
<pdfrwt beam="2">  1       -1 0.33875512E-02 0.21016336E+03</pdfrwt>
<totfact> 0.13855849E+04</totfact>
</mgrwt>
</event>
<event>
 4    1  0.3064919E-004  0.2582644E+03  0.7818608E-02  0.1108191E+00
          1   -1    0    0  501    0  0.00000000000E+00  0.00000000000E+00  0.33095512283E+02  0.33095512667E+02  0.50400000000E-02 0.  1.
         -1   -1    0    0    0  501 -0.00000000000E+00 -0.00000000000E+00 -0.50384835528E+03  0.50384835530E+03  0.50400000000E-02 0. -1.
    5000001    1    1    2    0    0  0.64018455110E+02 -0.47354694028E+01 -0.40460287203E+03  0.41683722401E+03  0.77000000000E+02 0.  0.
   -5000001    1    1    2    0    0 -0.64018455110E+02  0.47354694028E+01 -0.66149970968E+02  0.12010664396E+03  0.77000000000E+02 0.  0.
<mgrwt>
<rscale>  0 0.25826436E+03</rscale>
<asrwt>0</asrwt>
<pdfrwt beam="1">  1        1 0.50916177E-02 0.25826436E+03</pdfrwt>
<pdfrwt beam="2">  1       -1 0.77515126E-01 0.25826436E+03</pdfrwt>
<totfact> 0.28136116E+03</totfact>
</mgrwt>
</event>
<event>
 4    1  0.3064919E-004  0.2234965E+03  0.7818608E-02  0.1131303E+00
         -1   -1    0    0    0  501 -0.00000000000E+00  0.00000000000E+00  0.10494874549E+02  0.10494875759E+02  0.50400000000E-02 0.  1.
          1   -1    0    0  501    0  0.00000000000E+00 -0.00000000000E+00 -0.11898832806E+04  0.11898832806E+04  0.50400000000E-02 0. -1.
    5000001    1    1    2    0    0  0.10866783940E+02  0.80075401307E+02 -0.56101157079E+03  0.57200798897E+03  0.77000000000E+02 0.  0.
   -5000001    1    1    2    0    0 -0.10866783940E+02 -0.80075401307E+02 -0.61837683523E+03  0.62837016737E+03  0.77000000000E+02 0.  0.
<mgrwt>
<rscale>  0 0.22349655E+03</rscale>
<asrwt>0</asrwt>
<pdfrwt beam="1">  1        1 0.18305886E+00 0.22349655E+03</pdfrwt>
<pdfrwt beam="2">  1       -1 0.16145971E-02 0.22349655E+03</pdfrwt>
<totfact> 0.10821170E+04</totfact>
</mgrwt>
</event>
<event>
 4    1  0.3064919E-004  0.2017862E+03  0.7818608E-02  0.1148241E+00
         -1   -1    0    0    0  501 -0.00000000000E+00  0.00000000000E+00  0.20885473507E+02  0.20885474116E+02  0.50400000000E-02 0.  1.
          1   -1    0    0  501    0  0.00000000000E+00 -0.00000000000E+00 -0.48739246713E+03  0.48739246716E+03  0.50400000000E-02 0. -1.
    5000001    1    1    2    0    0  0.35059295621E+02  0.38192370885E+02 -0.33282502273E+03  0.34552757800E+03  0.77000000000E+02 0.  0.
   -5000001    1    1    2    0    0 -0.35059295621E+02 -0.38192370885E+02 -0.13368197089E+03  0.16275036327E+03  0.77000000000E+02 0.  0.
<mgrwt>
<rscale>  0 0.20178625E+03</rscale>
<asrwt>0</asrwt>
<pdfrwt beam="1">  1        1 0.74983448E-01 0.20178625E+03</pdfrwt>
<pdfrwt beam="2">  1       -1 0.32131502E-02 0.20178625E+03</pdfrwt>
<totfact> 0.15510233E+04</totfact>
</mgrwt>
</event>
<event>
 4    1  0.3064919E-004  0.1911606E+03  0.7818608E-02  0.1157419E+00
          1   -1    0    0  501    0  0.00000000000E+00  0.00000000000E+00  0.32620663977E+02  0.32620664367E+02  0.50400000000E-02 0.  1.
         -1   -1    0    0    0  501 -0.00000000000E+00 -0.00000000000E+00 -0.28005536861E+03  0.28005536866E+03  0.50400000000E-02 0. -1.
    5000001    1    1    2    0    0  0.41181332397E+02  0.17535738900E+02 -0.66980796538E+02  0.11143981058E+03  0.77000000000E+02 0.  0.
   -5000001    1    1    2    0    0 -0.41181332397E+02 -0.17535738900E+02 -0.18045390809E+03  0.20123622244E+03  0.77000000000E+02 0.  0.
<mgrwt>
<rscale>  0 0.19116058E+03</rscale>
<asrwt>0</asrwt>
<pdfrwt beam="1">  1        1 0.50185639E-02 0.19116058E+03</pdfrwt>
<pdfrwt beam="2">  1       -1 0.43085440E-01 0.19116058E+03</pdfrwt>
<totfact> 0.86705876E+03</totfact>
</mgrwt>
</event>
<event>
 4    1  0.3064919E-004  0.2285408E+03  0.7818608E-02  0.1127671E+00
          1   -1    0    0  501    0  0.00000000000E+00  0.00000000000E+00  0.70356414587E+03  0.70356414589E+03  0.50400000000E-02 0.  1.
         -1   -1    0    0    0  501 -0.00000000000E+00 -0.00000000000E+00 -0.18559392739E+02  0.18559393424E+02  0.50400000000E-02 0. -1.
    5000001    1    1    2    0    0 -0.35265294381E+02 -0.75990194503E+02  0.30927683008E+03  0.32954409155E+03  0.77000000000E+02 0.  0.
   -5000001    1    1    2    0    0  0.35265294381E+02  0.75990194503E+02  0.37572792305E+03  0.39257944777E+03  0.77000000000E+02 0.  0.
<mgrwt>
<rscale>  0 0.22854079E+03</rscale>
<asrwt>0</asrwt>
<pdfrwt beam="1">  1        1 0.10824062E+00 0.22854079E+03</pdfrwt>
<pdfrwt beam="2">  1       -1 0.28552917E-02 0.22854079E+03</pdfrwt>
<totfact> 0.11214212E+04</totfact>
</mgrwt>
</event>
<event>
 4    1  0.3064919E-004  0.2189774E+03  0.7818608E-02  0.1134648E+00
          1   -1    0    0  501    0  0.00000000000E+00  0.00000000000E+00  0.19100168576E+03  0.19100168583E+03  0.50400000000E-02 0.  1.
         -1   -1    0    0    0  501 -0.00000000000E+00 -0.00000000000E+00 -0.62762668452E+02  0.62762668654E+02  0.50400000000E-02 0. -1.
    5000001    1    1    2    0    0  0.75144676330E+02 -0.55331539101E+01  0.86752550337E+02  0.13831971357E+03  0.77000000000E+02 0.  0.
   -5000001    1    1    2    0    0 -0.75144676330E+02  0.55331539101E+01  0.41486466973E+02  0.11544464091E+03  0.77000000000E+02 0.  0.
<mgrwt>
<rscale>  0 0.21897740E+03</rscale>
<asrwt>0</asrwt>
<pdfrwt beam="1">  1        1 0.29384875E-01 0.21897740E+03</pdfrwt>
<pdfrwt beam="2">  1       -1 0.96557951E-02 0.21897740E+03</pdfrwt>
<totfact> 0.97715111E+03</totfact>
</mgrwt>
</event>
<event>
 4    1  0.3064919E-004  0.1766706E+03  0.7818608E-02  0.1171065E+00
         -1   -1    0    0    0  501 -0.00000000000E+00  0.00000000000E+00  0.33868665575E+01  0.33868703075E+01  0.50400000000E-02 0. -1.
          1   -1    0    0  501    0  0.00000000000E+00 -0.00000000000E+00 -0.23039358087E+04  0.23039358087E+04  0.50400000000E-02 0.  1.
    5000001    1    1    2    0    0 -0.53138042254E+00  0.43025196466E+02 -0.12124675876E+04  0.12156718722E+04  0.77000000000E+02 0.  0.
   -5000001    1    1    2    0    0  0.53138042254E+00 -0.43025196466E+02 -0.10880813546E+04  0.10916508068E+04  0.77000000000E+02 0.  0.
<mgrwt>
<rscale>  0 0.17667063E+03</rscale>
<asrwt>0</asrwt>
<pdfrwt beam="1">  1        1 0.35445041E+00 0.17667063E+03</pdfrwt>
<pdfrwt beam="2">  1       -1 0.52105853E-03 0.17667063E+03</pdfrwt>
<totfact> 0.10180593E+04</totfact>
</mgrwt>
</event>
<event>
 4    1  0.3064919E-004  0.1722020E+03  0.7818608E-02  0.1175571E+00
          1   -1    0    0  501    0  0.00000000000E+00  0.00000000000E+00  0.10434575183E+02  0.10434576400E+02  0.50400000000E-02 0.  1.
         -1   -1    0    0    0  501 -0.00000000000E+00 -0.00000000000E+00 -0.71046330149E+03  0.71046330151E+03  0.50400000000E-02 0. -1.
    5000001    1    1    2    0    0  0.31790706313E+02  0.20696498839E+02 -0.32181032154E+03  0.33306137140E+03  0.77000000000E+02 0.  0.
   -5000001    1    1    2    0    0 -0.31790706313E+02 -0.20696498839E+02 -0.37821840477E+03  0.38783650650E+03  0.77000000000E+02 0.  0.
<mgrwt>
<rscale>  0 0.17220201E+03</rscale>
<asrwt>0</asrwt>
<pdfrwt beam="1">  1        1 0.16053199E-02 0.17220201E+03</pdfrwt>
<pdfrwt beam="2">  1       -1 0.10930201E+00 0.17220201E+03</pdfrwt>
<totfact> 0.65882168E+03</totfact>
</mgrwt>
</event>
<event>
 4    1  0.3064919E-004  0.1755991E+03  0.7818608E-02  0.1172132E+00
         -1   -1    0    0    0  501 -0.00000000000E+00  0.00000000000E+00  0.32390465298E+02  0.32390465690E+02  0.50400000000E-02 0.  1.
          1   -1    0    0  501    0  0.00000000000E+00 -0.00000000000E+00 -0.23799473606E+03  0.23799473612E+03  0.50400000000E-02 0. -1.
    5000001    1    1    2    0    0  0.33841201188E+02 -0.24178424872E+02 -0.91921039744E+02  0.12691848043E+03  0.77000000000E+02 0.  0.
   -5000001    1    1    2    0    0 -0.33841201188E+02  0.24178424872E+02 -0.11368323102E+03  0.14346672138E+03  0.77000000000E+02 0.  0.
<mgrwt>
<rscale>  0 0.17559909E+03</rscale>
<asrwt>0</asrwt>
<pdfrwt beam="1">  1        1 0.36614574E-01 0.17559909E+03</pdfrwt>
<pdfrwt beam="2">  1       -1 0.49831487E-02 0.17559909E+03</pdfrwt>
<totfact> 0.19841847E+04</totfact>
</mgrwt>
</event>
<event>
 4    1  0.3064919E-004  0.2261800E+03  0.7818608E-02  0.1129358E+00
          1   -1    0    0  501    0  0.00000000000E+00  0.00000000000E+00  0.17309563792E+03  0.17309563799E+03  0.50400000000E-02 0.  1.
         -1   -1    0    0    0  501 -0.00000000000E+00 -0.00000000000E+00 -0.73886051772E+02  0.73886051944E+02  0.50400000000E-02 0. -1.
    5000001    1    1    2    0    0 -0.48745359234E+02 -0.66941927246E+02  0.47706642215E+02  0.12272838051E+03  0.77000000000E+02 0.  0.
   -5000001    1    1    2    0    0  0.48745359234E+02  0.66941927246E+02  0.51502943931E+02  0.12425330943E+03  0.77000000000E+02 0.  0.
<mgrwt>
<rscale>  0 0.22618005E+03</rscale>
<asrwt>0</asrwt>
<pdfrwt beam="1">  1        1 0.26630098E-01 0.22618005E+03</pdfrwt>
<pdfrwt beam="2">  1       -1 0.11367085E-01 0.22618005E+03</pdfrwt>
<totfact> 0.86141420E+03</totfact>
</mgrwt>
</event>
<event>
 4    1  0.3064919E-004  0.2744298E+03  0.7818608E-02  0.1098771E+00
          1   -1    0    0  501    0  0.00000000000E+00  0.00000000000E+00  0.17409301131E+04  0.17409301131E+04  0.50400000000E-02 0.  1.
         -1   -1    0    0    0  501 -0.00000000000E+00 -0.00000000000E+00 -0.10814863985E+02  0.10814865159E+02  0.50400000000E-02 0. -1.
    5000001    1    1    2    0    0  0.60963517042E+02  0.87075199747E+02  0.60970635895E+03  0.62367418174E+03  0.77000000000E+02 0.  0.
   -5000001    1    1    2    0    0 -0.60963517042E+02 -0.87075199747E+02  0.11204088902E+04  0.11280707965E+04  0.77000000000E+02 0.  0.
<mgrwt>
<rscale>  0 0.27442976E+03</rscale>
<asrwt>0</asrwt>
<pdfrwt beam="1">  1        1 0.26783542E+00 0.27442976E+03</pdfrwt>
<pdfrwt beam="2">  1       -1 0.16638252E-02 0.27442976E+03</pdfrwt>
<totfact> 0.44610460E+03</totfact>
</mgrwt>
</event>
<event>
 4    1  0.3064919E-004  0.1608990E+03  0.7818608E-02  0.1187686E+00
         -1   -1    0    0    0  501 -0.00000000000E+00  0.00000000000E+00  0.91596521782E+01  0.91596535648E+01  0.50400000000E-02 0. -1.
          1   -1    0    0  501    0  0.00000000000E+00 -0.00000000000E+00 -0.70658994384E+03  0.70658994385E+03  0.50400000000E-02 0.  1.
    5000001    1    1    2    0    0  0.12478269655E+02  0.17162275755E+02 -0.39158383689E+03  0.39964628390E+03  0.77000000000E+02 0.  0.
   -5000001    1    1    2    0    0 -0.12478269655E+02 -0.17162275755E+02 -0.30584645477E+03  0.31610331352E+03  0.77000000000E+02 0.  0.
<mgrwt>
<rscale>  0 0.16089896E+03</rscale>
<asrwt>0</asrwt>
<pdfrwt beam="1">  1        1 0.10870610E+00 0.16089896E+03</pdfrwt>
<pdfrwt beam="2">  1       -1 0.14091779E-02 0.16089896E+03</pdfrwt>
<totfact> 0.30376625E+04</totfact>
</mgrwt>
</event>
<event>
 4    1  0.3064919E-004  0.1959400E+03  0.7818608E-02  0.1153210E+00
          1   -1    0    0  501    0  0.00000000000E+00  0.00000000000E+00  0.34762289468E+04  0.34762289468E+04  0.50400000000E-02 0.  1.
         -1   -1    0    0    0  501 -0.00000000000E+00 -0.00000000000E+00 -0.27610704656E+01  0.27610750655E+01  0.50400000000E-02 0. -1.
    5000001    1    1    2    0    0  0.35734296208E+02 -0.31437844976E+02  0.10714770878E+04  0.10752941122E+04  0.77000000000E+02 0.  0.
   -5000001    1    1    2    0    0 -0.35734296208E+02  0.31437844976E+02  0.24019907885E+04  0.24036959096E+04  0.77000000000E+02 0.  0.
<mgrwt>
<rscale>  0 0.19594000E+03</rscale>
<asrwt>0</asrwt>
<pdfrwt beam="1">  1        1 0.53480411E+00 0.19594000E+03</pdfrwt>
<pdfrwt beam="2">  1       -1 0.42478070E-03 0.19594000E+03</pdfrwt>
<totfact> 0.21243211E+03</totfact>
</mgrwt>
</event>
<event>
 4    1  0.3064919E-004  0.3035201E+03  0.7818608E-02  0.1083494E+00
          1   -1    0    0  501    0  0.00000000000E+00  0.00000000000E+00  0.13950325615E+02  0.13950326526E+02  0.50400000000E-02 0.  1.
         -1   -1    0    0    0  501 -0.00000000000E+00 -0.00000000000E+00 -0.16509372080E+04  0.16509372080E+04  0.50400000000E-02 0. -1.
    5000001    1    1    2    0    0  0.11048174315E+03 -0.69234692440E+02 -0.76297180078E+03  0.77785257407E+03  0.77000000000E+02 0.  0.
   -5000001    1    1    2    0    0 -0.11048174315E+03  0.69234692440E+02 -0.87401508160E+03  0.88703496045E+03  0.77000000000E+02 0.  0.
<mgrwt>
<rscale>  0 0.30352010E+03</rscale>
<asrwt>0</asrwt>
<pdfrwt beam="1">  1        1 0.21462053E-02 0.30352010E+03</pdfrwt>
<pdfrwt beam="2">  1       -1 0.25399019E+00 0.30352010E+03</pdfrwt>
<totfact> 0.40966609E+02</totfact>
</mgrwt>
</event>
<event>
 4    1  0.3064919E-004  0.2223861E+03  0.7818608E-02  0.1132117E+00
          1   -1    0    0  501    0  0.00000000000E+00  0.00000000000E+00  0.85794670938E+03  0.85794670940E+03  0.50400000000E-02 0.  1.
         -1   -1    0    0    0  501 -0.00000000000E+00 -0.00000000000E+00 -0.14411026692E+02  0.14411027573E+02  0.50400000000E-02 0. -1.
    5000001    1    1    2    0    0 -0.77903198887E+02  0.55041504452E+01  0.34989650591E+03  0.36668210880E+03  0.77000000000E+02 0.  0.
   -5000001    1    1    2    0    0  0.77903198887E+02 -0.55041504452E+01  0.49363917678E+03  0.50567562817E+03  0.77000000000E+02 0.  0.
<mgrwt>
<rscale>  0 0.22238609E+03</rscale>
<asrwt>0</asrwt>
<pdfrwt beam="1">  1        1 0.13199180E+00 0.22238609E+03</pdfrwt>
<pdfrwt beam="2">  1       -1 0.22170811E-02 0.22238609E+03</pdfrwt>
<totfact> 0.12012391E+04</totfact>
</mgrwt>
</event>
<event>
 4    1  0.3064919E-004  0.2385937E+03  0.7818608E-02  0.1120733E+00
          1   -1    0    0  501    0  0.00000000000E+00  0.00000000000E+00  0.22704694027E+02  0.22704694586E+02  0.50400000000E-02 0.  1.
         -1   -1    0    0    0  501 -0.00000000000E+00 -0.00000000000E+00 -0.62681906852E+03  0.62681906854E+03  0.50400000000E-02 0. -1.
    5000001    1    1    2    0    0  0.27035444050E+02  0.78026300239E+02 -0.19719676673E+03  0.22723244393E+03  0.77000000000E+02 0.  0.
   -5000001    1    1    2    0    0 -0.27035444050E+02 -0.78026300239E+02 -0.40691760776E+03  0.42229131919E+03  0.77000000000E+02 0.  0.
<mgrwt>
<rscale>  0 0.23859367E+03</rscale>
<asrwt>0</asrwt>
<pdfrwt beam="1">  1        1 0.34930304E-02 0.23859367E+03</pdfrwt>
<pdfrwt beam="2">  1       -1 0.96433690E-01 0.23859367E+03</pdfrwt>
<totfact> 0.29830134E+03</totfact>
</mgrwt>
</event>
<event>
 4    1  0.3064919E-004  0.1940578E+03  0.7818608E-02  0.1154852E+00
         -1   -1    0    0    0  501 -0.00000000000E+00  0.00000000000E+00  0.46046620651E+02  0.46046620927E+02  0.50400000000E-02 0.  1.
          1   -1    0    0  501    0  0.00000000000E+00 -0.00000000000E+00 -0.20445825455E+03  0.20445825462E+03  0.50400000000E-02 0. -1.
    5000001    1    1    2    0    0  0.19675962813E+02 -0.36753982997E+02 -0.25241385306E+02  0.91126979051E+02  0.77000000000E+02 0.  0.
   -5000001    1    1    2    0    0 -0.19675962813E+02  0.36753982997E+02 -0.13317024860E+03  0.15937789649E+03  0.77000000000E+02 0.  0.
<mgrwt>
<rscale>  0 0.19405784E+03</rscale>
<asrwt>0</asrwt>
<pdfrwt beam="1">  1        1 0.31455116E-01 0.19405784E+03</pdfrwt>
<pdfrwt beam="2">  1       -1 0.70840956E-02 0.19405784E+03</pdfrwt>
<totfact> 0.14269334E+04</totfact>
</mgrwt>
</event>
<event>
 4    1  0.3064919E-004  0.2645847E+03  0.7818608E-02  0.1104420E+00
         -1   -1    0    0    0  501 -0.00000000000E+00  0.00000000000E+00  0.30342557868E+03  0.30342557872E+03  0.50400000000E-02 0. -1.
          1   -1    0    0  501    0  0.00000000000E+00 -0.00000000000E+00 -0.57678943080E+02  0.57678943300E+02  0.50400000000E-02 0.  1.
    5000001    1    1    2    0    0 -0.55088781449E+02 -0.90604919401E+02  0.98146688812E+02  0.16372476229E+03  0.77000000000E+02 0.  0.
   -5000001    1    1    2    0    0  0.55088781449E+02  0.90604919401E+02  0.14759994679E+03  0.19737975973E+03  0.77000000000E+02 0.  0.
<mgrwt>
<rscale>  0 0.26458471E+03</rscale>
<asrwt>0</asrwt>
<pdfrwt beam="1">  1        1 0.88736834E-02 0.26458471E+03</pdfrwt>
<pdfrwt beam="2">  1       -1 0.46680859E-01 0.26458471E+03</pdfrwt>
<totfact> 0.35000243E+03</totfact>
</mgrwt>
</event>
<event>
 4    1  0.3064919E-004  0.2330773E+03  0.7818608E-02  0.1124492E+00
          1   -1    0    0  501    0  0.00000000000E+00  0.00000000000E+00  0.29032739311E+04  0.29032739311E+04  0.50400000000E-02 0.  1.
         -1   -1    0    0    0  501 -0.00000000000E+00 -0.00000000000E+00 -0.46779094735E+01  0.46779121886E+01  0.50400000000E-02 0. -1.
    5000001    1    1    2    0    0 -0.34499415140E+02 -0.65906896517E+02  0.20235253074E+04  0.20263557433E+04  0.77000000000E+02 0.  0.
   -5000001    1    1    2    0    0  0.34499415140E+02  0.65906896517E+02  0.87507071423E+03  0.88159610001E+03  0.77000000000E+02 0.  0.
<mgrwt>
<rscale>  0 0.23307730E+03</rscale>
<asrwt>0</asrwt>
<pdfrwt beam="1">  1        1 0.44665890E+00 0.23307730E+03</pdfrwt>
<pdfrwt beam="2">  1       -1 0.71967637E-03 0.23307730E+03</pdfrwt>
<totfact> 0.25627202E+03</totfact>
</mgrwt>
</event>
<event>
 4    1  0.3064919E-004  0.1893348E+03  0.7818608E-02  0.1159063E+00
         -1   -1    0    0    0  501 -0.00000000000E+00  0.00000000000E+00  0.45389168550E+01  0.45389196532E+01  0.50400000000E-02 0. -1.
          1   -1    0    0  501    0  0.00000000000E+00 -0.00000000000E+00 -0.19744615941E+04  0.19744615941E+04  0.50400000000E-02 0.  1.
    5000001    1    1    2    0    0  0.77747558845E+01  0.44527204411E+02 -0.13138048933E+04  0.13168353794E+04  0.77000000000E+02 0.  0.
   -5000001    1    1    2    0    0 -0.77747558845E+01 -0.44527204411E+02 -0.65611778392E+03  0.66216513435E+03  0.77000000000E+02 0.  0.
<mgrwt>
<rscale>  0 0.18933483E+03</rscale>
<asrwt>0</asrwt>
<pdfrwt beam="1">  1        1 0.30376264E+00 0.18933483E+03</pdfrwt>
<pdfrwt beam="2">  1       -1 0.69829669E-03 0.18933483E+03</pdfrwt>
<totfact> 0.10957700E+04</totfact>
</mgrwt>
</event>
<event>
 4    1  0.3064919E-004  0.2088387E+03  0.7818608E-02  0.1142489E+00
         -1   -1    0    0    0  501 -0.00000000000E+00  0.00000000000E+00  0.80818915024E+01  0.80818930740E+01  0.50400000000E-02 0. -1.
          1   -1    0    0  501    0  0.00000000000E+00 -0.00000000000E+00 -0.13491154050E+04  0.13491154050E+04  0.50400000000E-02 0.  1.
    5000001    1    1    2    0    0  0.57810020465E+02 -0.16508247935E+02 -0.91016980204E+03  0.91539750341E+03  0.77000000000E+02 0.  0.
   -5000001    1    1    2    0    0 -0.57810020465E+02  0.16508247935E+02 -0.43086371144E+03  0.44179979464E+03  0.77000000000E+02 0.  0.
<mgrwt>
<rscale>  0 0.20883875E+03</rscale>
<asrwt>0</asrwt>
<pdfrwt beam="1">  1        1 0.20755604E+00 0.20883875E+03</pdfrwt>
<pdfrwt beam="2">  1       -1 0.12433691E-02 0.20883875E+03</pdfrwt>
<totfact> 0.12258160E+04</totfact>
</mgrwt>
</event>
<event>
 4    1  0.3064919E-004  0.1887921E+03  0.7818608E-02  0.1159555E+00
         -1   -1    0    0    0  501 -0.00000000000E+00  0.00000000000E+00  0.39067015291E+02  0.39067015616E+02  0.50400000000E-02 0. -1.
          1   -1    0    0  501    0  0.00000000000E+00 -0.00000000000E+00 -0.22808527342E+03  0.22808527347E+03  0.50400000000E-02 0.  1.
    5000001    1    1    2    0    0 -0.23137008154E+02 -0.12028017886E+02 -0.26621342319E+02  0.85543499037E+02  0.77000000000E+02 0.  0.
   -5000001    1    1    2    0    0  0.23137008154E+02  0.12028017886E+02 -0.16239691581E+03  0.18160879005E+03  0.77000000000E+02 0.  0.
<mgrwt>
<rscale>  0 0.18879206E+03</rscale>
<asrwt>0</asrwt>
<pdfrwt beam="1">  1        1 0.35090041E-01 0.18879206E+03</pdfrwt>
<pdfrwt beam="2">  1       -1 0.60103102E-02 0.18879206E+03</pdfrwt>
<totfact> 0.15907331E+04</totfact>
</mgrwt>
</event>
<event>
 4    1  0.3064919E-004  0.1879990E+03  0.7818608E-02  0.1160279E+00
          1   -1    0    0  501    0  0.00000000000E+00  0.00000000000E+00  0.94889278483E+03  0.94889278484E+03  0.50400000000E-02 0. -1.
         -1   -1    0    0    0  501 -0.00000000000E+00 -0.00000000000E+00 -0.93118080617E+01  0.93118094257E+01  0.50400000000E-02 0.  1.
    5000001    1    1    2    0    0  0.38753677686E+02  0.97132660767E+01  0.65431602299E+03  0.66004140250E+03  0.77000000000E+02 0.  0.
   -5000001    1    1    2    0    0 -0.38753677686E+02 -0.97132660767E+01  0.28526495378E+03  0.29816319177E+03  0.77000000000E+02 0.  0.
<mgrwt>
<rscale>  0 0.18799902E+03</rscale>
<asrwt>0</asrwt>
<pdfrwt beam="1">  1        1 0.14598343E+00 0.18799902E+03</pdfrwt>
<pdfrwt beam="2">  1       -1 0.14325867E-02 0.18799902E+03</pdfrwt>
<totfact> 0.19060409E+04</totfact>
</mgrwt>
</event>
<event>
 4    1  0.3064919E-004  0.1795565E+03  0.7818608E-02  0.1168233E+00
          1   -1    0    0  501    0  0.00000000000E+00  0.00000000000E+00  0.31275821442E+03  0.31275821446E+03  0.50400000000E-02 0. -1.
         -1   -1    0    0    0  501 -0.00000000000E+00 -0.00000000000E+00 -0.25771126522E+02  0.25771127015E+02  0.50400000000E-02 0.  1.
    5000001    1    1    2    0    0 -0.15626327454E+02  0.43275297072E+02  0.13638940799E+03  0.16324216385E+03  0.77000000000E+02 0.  0.
   -5000001    1    1    2    0    0  0.15626327454E+02 -0.43275297072E+02  0.15059767990E+03  0.17528717762E+03  0.77000000000E+02 0.  0.
<mgrwt>
<rscale>  0 0.17955647E+03</rscale>
<asrwt>0</asrwt>
<pdfrwt beam="1">  1        1 0.48116650E-01 0.17955647E+03</pdfrwt>
<pdfrwt beam="2">  1       -1 0.39647886E-02 0.17955647E+03</pdfrwt>
<totfact> 0.19849434E+04</totfact>
</mgrwt>
</event>
<event>
 4    1  0.3064919E-004  0.1924306E+03  0.7818608E-02  0.1156287E+00
         -1   -1    0    0    0  501 -0.00000000000E+00  0.00000000000E+00  0.34709373655E+01  0.34709410246E+01  0.50400000000E-02 0.  1.
          1   -1    0    0  501    0  0.00000000000E+00 -0.00000000000E+00 -0.26671127328E+04  0.26671127328E+04  0.50400000000E-02 0. -1.
    5000001    1    1    2    0    0 -0.27785238281E+02  0.35515337201E+02 -0.83239449443E+03  0.83716363574E+03  0.77000000000E+02 0.  0.
   -5000001    1    1    2    0    0  0.27785238281E+02 -0.35515337201E+02 -0.18312473010E+04  0.18334200381E+04  0.77000000000E+02 0.  0.
<mgrwt>
<rscale>  0 0.19243062E+03</rscale>
<asrwt>0</asrwt>
<pdfrwt beam="1">  1        1 0.41032340E+00 0.19243062E+03</pdfrwt>
<pdfrwt beam="2">  1       -1 0.53399278E-03 0.19243062E+03</pdfrwt>
<totfact> 0.56816785E+03</totfact>
</mgrwt>
</event>
<event>
 4    1  0.3064919E-004  0.4622456E+03  0.7818608E-02  0.1024132E+00
         -1   -1    0    0    0  501 -0.00000000000E+00  0.00000000000E+00  0.35143031186E+03  0.35143031190E+03  0.50400000000E-02 0. -1.
          1   -1    0    0  501    0  0.00000000000E+00 -0.00000000000E+00 -0.15200099203E+03  0.15200099212E+03  0.50400000000E-02 0.  1.
    5000001    1    1    2    0    0  0.20125370298E+03 -0.61228626790E+02  0.37753071808E+02  0.22717018320E+03  0.77000000000E+02 0.  0.
   -5000001    1    1    2    0    0 -0.20125370298E+03  0.61228626790E+02  0.16167624802E+03  0.27626112082E+03  0.77000000000E+02 0.  0.
<mgrwt>
<rscale>  0 0.46224563E+03</rscale>
<asrwt>0</asrwt>
<pdfrwt beam="1">  1        1 0.23384768E-01 0.46224563E+03</pdfrwt>
<pdfrwt beam="2">  1       -1 0.54066201E-01 0.46224563E+03</pdfrwt>
<totfact> 0.74155137E+02</totfact>
</mgrwt>
</event>
<event>
 4    1  0.3064919E-004  0.1771294E+03  0.7818608E-02  0.1170610E+00
         -1   -1    0    0    0  501 -0.00000000000E+00  0.00000000000E+00  0.11263288729E+02  0.11263289857E+02  0.50400000000E-02 0. -1.
          1   -1    0    0  501    0  0.00000000000E+00 -0.00000000000E+00 -0.69639586775E+03  0.69639586777E+03  0.50400000000E-02 0.  1.
    5000001    1    1    2    0    0  0.29375444680E+02  0.21382254618E+02 -0.43998501239E+03  0.44814721766E+03  0.77000000000E+02 0.  0.
   -5000001    1    1    2    0    0 -0.29375444680E+02 -0.21382254618E+02 -0.24514756663E+03  0.25951193997E+03  0.77000000000E+02 0.  0.
<mgrwt>
<rscale>  0 0.17712942E+03</rscale>
<asrwt>0</asrwt>
<pdfrwt beam="1">  1        1 0.10713779E+00 0.17712942E+03</pdfrwt>
<pdfrwt beam="2">  1       -1 0.17328143E-02 0.17712942E+03</pdfrwt>
<totfact> 0.23200148E+04</totfact>
</mgrwt>
</event>
<event>
 4    1  0.3064919E-004  0.2631737E+03  0.7818608E-02  0.1105251E+00
         -1   -1    0    0    0  501 -0.00000000000E+00  0.00000000000E+00  0.24453147210E+02  0.24453147729E+02  0.50400000000E-02 0. -1.
          1   -1    0    0  501    0  0.00000000000E+00 -0.00000000000E+00 -0.70809282648E+03  0.70809282650E+03  0.50400000000E-02 0.  1.
    5000001    1    1    2    0    0 -0.87897378106E+02  0.59592548433E+02 -0.37086416602E+03  0.39337825378E+03  0.77000000000E+02 0.  0.
   -5000001    1    1    2    0    0  0.87897378106E+02 -0.59592548433E+02 -0.31277551325E+03  0.33916772045E+03  0.77000000000E+02 0.  0.
<mgrwt>
<rscale>  0 0.26317369E+03</rscale>
<asrwt>0</asrwt>
<pdfrwt beam="1">  1        1 0.10893734E+00 0.26317369E+03</pdfrwt>
<pdfrwt beam="2">  1       -1 0.37620232E-02 0.26317369E+03</pdfrwt>
<totfact> 0.74352399E+03</totfact>
</mgrwt>
</event>
<event>
 4    1  0.3064919E-004  0.2763317E+03  0.7818608E-02  0.1097709E+00
          1   -1    0    0  501    0  0.00000000000E+00  0.00000000000E+00  0.19492233410E+03  0.19492233416E+03  0.50400000000E-02 0.  1.
         -1   -1    0    0    0  501 -0.00000000000E+00 -0.00000000000E+00 -0.97935460316E+02  0.97935460445E+02  0.50400000000E-02 0. -1.
    5000001    1    1    2    0    0 -0.64046928442E+02 -0.74125962967E+02  0.11176425512E+03  0.16738254435E+03  0.77000000000E+02 0.  0.
   -5000001    1    1    2    0    0  0.64046928442E+02  0.74125962967E+02 -0.14777381342E+02  0.12547525026E+03  0.77000000000E+02 0.  0.
<mgrwt>
<rscale>  0 0.27633175E+03</rscale>
<asrwt>0</asrwt>
<pdfrwt beam="1">  1        1 0.29988051E-01 0.27633175E+03</pdfrwt>
<pdfrwt beam="2">  1       -1 0.15066994E-01 0.27633175E+03</pdfrwt>
<totfact> 0.48047139E+03</totfact>
</mgrwt>
</event>
<event>
 4    1  0.3064919E-004  0.2104597E+03  0.7818608E-02  0.1141202E+00
         -1   -1    0    0    0  501 -0.00000000000E+00  0.00000000000E+00  0.44483331211E+02  0.44483331497E+02  0.50400000000E-02 0. -1.
          1   -1    0    0  501    0  0.00000000000E+00 -0.00000000000E+00 -0.24893198058E+03  0.24893198063E+03  0.50400000000E-02 0.  1.
    5000001    1    1    2    0    0 -0.98632064882E+01 -0.71018528751E+02 -0.10479863298E+03  0.14850140654E+03  0.77000000000E+02 0.  0.
   -5000001    1    1    2    0    0  0.98632064882E+01  0.71018528751E+02 -0.99650016386E+02  0.14491390559E+03  0.77000000000E+02 0.  0.
<mgrwt>
<rscale>  0 0.21045972E+03</rscale>
<asrwt>0</asrwt>
<pdfrwt beam="1">  1        1 0.38297227E-01 0.21045972E+03</pdfrwt>
<pdfrwt beam="2">  1       -1 0.68435896E-02 0.21045972E+03</pdfrwt>
<totfact> 0.11817513E+04</totfact>
</mgrwt>
</event>
<event>
 4    1  0.3064919E-004  0.2092040E+03  0.7818608E-02  0.1142198E+00
          1   -1    0    0  501    0  0.00000000000E+00  0.00000000000E+00  0.60741259247E+03  0.60741259249E+03  0.50400000000E-02 0.  1.
         -1   -1    0    0    0  501 -0.00000000000E+00 -0.00000000000E+00 -0.18013424382E+02  0.18013425087E+02  0.50400000000E-02 0. -1.
    5000001    1    1    2    0    0 -0.37890704794E+02  0.58734012432E+02  0.26098369486E+03  0.28093927940E+03  0.77000000000E+02 0.  0.
   -5000001    1    1    2    0    0  0.37890704794E+02 -0.58734012432E+02  0.32841547323E+03  0.34448673818E+03  0.77000000000E+02 0.  0.
<mgrwt>
<rscale>  0 0.20920403E+03</rscale>
<asrwt>0</asrwt>
<pdfrwt beam="1">  1        1 0.93448100E-01 0.20920403E+03</pdfrwt>
<pdfrwt beam="2">  1       -1 0.27712958E-02 0.20920403E+03</pdfrwt>
<totfact> 0.14363249E+04</totfact>
</mgrwt>
</event>
<event>
 4    1  0.3064919E-004  0.3415268E+03  0.7818608E-02  0.1066147E+00
          1   -1    0    0  501    0  0.00000000000E+00  0.00000000000E+00  0.27098584241E+03  0.27098584246E+03  0.50400000000E-02 0.  1.
         -1   -1    0    0    0  501 -0.00000000000E+00 -0.00000000000E+00 -0.10760762363E+03  0.10760762375E+03  0.50400000000E-02 0. -1.
    5000001    1    1    2    0    0  0.90591843353E+02  0.97908571375E+01 -0.53753378746E+02  0.13084788379E+03  0.77000000000E+02 0.  0.
   -5000001    1    1    2    0    0 -0.90591843353E+02 -0.97908571375E+01  0.21713159752E+03  0.24774558242E+03  0.77000000000E+02 0.  0.
<mgrwt>
<rscale>  0 0.34152682E+03</rscale>
<asrwt>0</asrwt>
<pdfrwt beam="1">  1        1 0.41690129E-01 0.34152682E+03</pdfrwt>
<pdfrwt beam="2">  1       -1 0.16555019E-01 0.34152682E+03</pdfrwt>
<totfact> 0.27412052E+03</totfact>
</mgrwt>
</event>
<event>
 4    1  0.3064919E-004  0.3264543E+03  0.7818608E-02  0.1072717E+00
         -1   -1    0    0    0  501 -0.00000000000E+00  0.00000000000E+00  0.73741344058E+02  0.73741344230E+02  0.50400000000E-02 0.  1.
          1   -1    0    0  501    0  0.00000000000E+00 -0.00000000000E+00 -0.36130473458E+03  0.36130473462E+03  0.50400000000E-02 0. -1.
    5000001    1    1    2    0    0 -0.59532438498E+02  0.85645873530E+02 -0.11623221830E+02  0.13016691658E+03  0.77000000000E+02 0.  0.
   -5000001    1    1    2    0    0  0.59532438498E+02 -0.85645873530E+02 -0.27594016869E+03  0.30487916227E+03  0.77000000000E+02 0.  0.
<mgrwt>
<rscale>  0 0.32645427E+03</rscale>
<asrwt>0</asrwt>
<pdfrwt beam="1">  1        1 0.55585343E-01 0.32645427E+03</pdfrwt>
<pdfrwt beam="2">  1       -1 0.11344822E-01 0.32645427E+03</pdfrwt>
<totfact> 0.34609544E+03</totfact>
</mgrwt>
</event>
<event>
 4    1  0.3064919E-004  0.2810355E+03  0.7818608E-02  0.1095125E+00
         -1   -1    0    0    0  501 -0.00000000000E+00  0.00000000000E+00  0.99891584901E+02  0.99891585028E+02  0.50400000000E-02 0. -1.
          1   -1    0    0  501    0  0.00000000000E+00 -0.00000000000E+00 -0.19766672589E+03  0.19766672595E+03  0.50400000000E-02 0.  1.
    5000001    1    1    2    0    0 -0.90786224322E+02 -0.74373875969E+02 -0.55800650880E+02  0.15105073516E+03  0.77000000000E+02 0.  0.
   -5000001    1    1    2    0    0  0.90786224322E+02  0.74373875969E+02 -0.41974490107E+02  0.14650757582E+03  0.77000000000E+02 0.  0.
<mgrwt>
<rscale>  0 0.28103553E+03</rscale>
<asrwt>0</asrwt>
<pdfrwt beam="1">  1        1 0.30410265E-01 0.28103553E+03</pdfrwt>
<pdfrwt beam="2">  1       -1 0.15367936E-01 0.28103553E+03</pdfrwt>
<totfact> 0.45770545E+03</totfact>
</mgrwt>
</event>
<event>
 4    1  0.3064919E-004  0.2448178E+03  0.7818608E-02  0.1116624E+00
         -1   -1    0    0    0  501 -0.00000000000E+00  0.00000000000E+00  0.10604172301E+03  0.10604172313E+03  0.50400000000E-02 0. -1.
          1   -1    0    0  501    0  0.00000000000E+00 -0.00000000000E+00 -0.14130227664E+03  0.14130227673E+03  0.50400000000E-02 0.  1.
    5000001    1    1    2    0    0 -0.78100472188E+02 -0.51939134514E+02 -0.14153860365E+01  0.12136045801E+03  0.77000000000E+02 0.  0.
   -5000001    1    1    2    0    0  0.78100472188E+02  0.51939134514E+02 -0.33845167591E+02  0.12598354186E+03  0.77000000000E+02 0.  0.
<mgrwt>
<rscale>  0 0.24481778E+03</rscale>
<asrwt>0</asrwt>
<pdfrwt beam="1">  1        1 0.21738812E-01 0.24481778E+03</pdfrwt>
<pdfrwt beam="2">  1       -1 0.16314111E-01 0.24481778E+03</pdfrwt>
<totfact> 0.63426783E+03</totfact>
</mgrwt>
</event>
<event>
 4    1  0.3064919E-004  0.4486552E+03  0.7818608E-02  0.1028124E+00
          1   -1    0    0  501    0  0.00000000000E+00  0.00000000000E+00  0.14895230700E+03  0.14895230709E+03  0.50400000000E-02 0.  1.
         -1   -1    0    0    0  501 -0.00000000000E+00 -0.00000000000E+00 -0.33784550087E+03  0.33784550091E+03  0.50400000000E-02 0. -1.
    5000001    1    1    2    0    0  0.20917856079E+03 -0.16589372870E+02 -0.11511861080E+03  0.25142030972E+03  0.77000000000E+02 0.  0.
   -5000001    1    1    2    0    0 -0.20917856079E+03  0.16589372870E+02 -0.73774583068E+02  0.23537749828E+03  0.77000000000E+02 0.  0.
<mgrwt>
<rscale>  0 0.44865518E+03</rscale>
<asrwt>0</asrwt>
<pdfrwt beam="1">  1        1 0.22915740E-01 0.44865518E+03</pdfrwt>
<pdfrwt beam="2">  1       -1 0.51976231E-01 0.44865518E+03</pdfrwt>
<totfact> 0.82050808E+02</totfact>
</mgrwt>
</event>
<event>
 4    1  0.3064919E-004  0.1861052E+03  0.7818608E-02  0.1162022E+00
         -1   -1    0    0    0  501 -0.00000000000E+00  0.00000000000E+00  0.40879372901E+02  0.40879373212E+02  0.50400000000E-02 0.  1.
          1   -1    0    0  501    0  0.00000000000E+00 -0.00000000000E+00 -0.21181299358E+03  0.21181299364E+03  0.50400000000E-02 0. -1.
    5000001    1    1    2    0    0 -0.26993120832E+00  0.44624520933E+02 -0.48571744882E+02  0.10138853551E+03  0.77000000000E+02 0.  0.
   -5000001    1    1    2    0    0  0.26993120832E+00 -0.44624520933E+02 -0.12236187580E+03  0.15130383135E+03  0.77000000000E+02 0.  0.
<mgrwt>
<rscale>  0 0.18610516E+03</rscale>
<asrwt>0</asrwt>
<pdfrwt beam="1">  1        1 0.32586614E-01 0.18610516E+03</pdfrwt>
<pdfrwt beam="2">  1       -1 0.62891344E-02 0.18610516E+03</pdfrwt>
<totfact> 0.16281874E+04</totfact>
</mgrwt>
</event>
<event>
 4    1  0.3064919E-004  0.2772573E+03  0.7818608E-02  0.1097196E+00
         -1   -1    0    0    0  501 -0.00000000000E+00  0.00000000000E+00  0.28744563405E+02  0.28744563847E+02  0.50400000000E-02 0. -1.
          1   -1    0    0  501    0  0.00000000000E+00 -0.00000000000E+00 -0.66857535064E+03  0.66857535066E+03  0.50400000000E-02 0.  1.
    5000001    1    1    2    0    0  0.85957196309E+02  0.35120149337E+02 -0.49173020184E+03  0.50630984179E+03  0.77000000000E+02 0.  0.
   -5000001    1    1    2    0    0 -0.85957196309E+02 -0.35120149337E+02 -0.14810058540E+03  0.19101007272E+03  0.77000000000E+02 0.  0.
<mgrwt>
<rscale>  0 0.27725733E+03</rscale>
<asrwt>0</asrwt>
<pdfrwt beam="1">  1        1 0.10285773E+00 0.27725733E+03</pdfrwt>
<pdfrwt beam="2">  1       -1 0.44222411E-02 0.27725733E+03</pdfrwt>
<totfact> 0.63629646E+03</totfact>
</mgrwt>
</event>
<event>
 4    1  0.3064919E-004  0.2088088E+03  0.7818608E-02  0.1142513E+00
          1   -1    0    0  501    0  0.00000000000E+00  0.00000000000E+00  0.37350153634E+03  0.37350153637E+03  0.50400000000E-02 0.  1.
         -1   -1    0    0    0  501 -0.00000000000E+00 -0.00000000000E+00 -0.29184023822E+02  0.29184024257E+02  0.50400000000E-02 0. -1.
    5000001    1    1    2    0    0  0.10552686470E+02 -0.66638388955E+02  0.21164543245E+03  0.23510598281E+03  0.77000000000E+02 0.  0.
   -5000001    1    1    2    0    0 -0.10552686470E+02  0.66638388955E+02  0.13267208006E+03  0.16757957782E+03  0.77000000000E+02 0.  0.
<mgrwt>
<rscale>  0 0.20880879E+03</rscale>
<asrwt>0</asrwt>
<pdfrwt beam="1">  1        1 0.57461774E-01 0.20880879E+03</pdfrwt>
<pdfrwt beam="2">  1       -1 0.44898500E-02 0.20880879E+03</pdfrwt>
<totfact> 0.13351298E+04</totfact>
</mgrwt>
</event>
<event>
 4    1  0.3064919E-004  0.1764505E+03  0.7818608E-02  0.1171283E+00
          1   -1    0    0  501    0  0.00000000000E+00  0.00000000000E+00  0.30317683132E+03  0.30317683136E+03  0.50400000000E-02 0. -1.
         -1   -1    0    0    0  501 -0.00000000000E+00 -0.00000000000E+00 -0.25673786655E+02  0.25673787150E+02  0.50400000000E-02 0.  1.
    5000001    1    1    2    0    0  0.25894803453E+01 -0.42731008650E+02  0.14750354050E+03  0.17181076500E+03  0.77000000000E+02 0.  0.
   -5000001    1    1    2    0    0 -0.25894803453E+01  0.42731008650E+02  0.12999950416E+03  0.15703985351E+03  0.77000000000E+02 0.  0.
<mgrwt>
<rscale>  0 0.17645053E+03</rscale>
<asrwt>0</asrwt>
<pdfrwt beam="1">  1        1 0.46642588E-01 0.17645053E+03</pdfrwt>
<pdfrwt beam="2">  1       -1 0.39498135E-02 0.17645053E+03</pdfrwt>
<totfact> 0.20721086E+04</totfact>
</mgrwt>
</event>
<event>
 4    1  0.3064919E-004  0.2021278E+03  0.7818608E-02  0.1147956E+00
         -1   -1    0    0    0  501 -0.00000000000E+00  0.00000000000E+00  0.79363938390E+02  0.79363938550E+02  0.50400000000E-02 0. -1.
          1   -1    0    0  501    0  0.00000000000E+00 -0.00000000000E+00 -0.12869716482E+03  0.12869716492E+03  0.50400000000E-02 0.  1.
    5000001    1    1    2    0    0  0.39510882457E+01 -0.62881612875E+02 -0.63914302332E+01  0.99697335554E+02  0.77000000000E+02 0.  0.
   -5000001    1    1    2    0    0 -0.39510882457E+01  0.62881612875E+02 -0.42941796198E+02  0.10836376792E+03  0.77000000000E+02 0.  0.
<mgrwt>
<rscale>  0 0.20212782E+03</rscale>
<asrwt>0</asrwt>
<pdfrwt beam="1">  1        1 0.19799564E-01 0.20212782E+03</pdfrwt>
<pdfrwt beam="2">  1       -1 0.12209837E-01 0.20212782E+03</pdfrwt>
<totfact> 0.11166660E+04</totfact>
</mgrwt>
</event>
<event>
 4    1  0.3064919E-004  0.2751125E+03  0.7818608E-02  0.1098389E+00
          1   -1    0    0  501    0  0.00000000000E+00  0.00000000000E+00  0.33967455219E+03  0.33967455223E+03  0.50400000000E-02 0.  1.
         -1   -1    0    0    0  501 -0.00000000000E+00 -0.00000000000E+00 -0.55705458239E+02  0.55705458467E+02  0.50400000000E-02 0. -1.
    5000001    1    1    2    0    0  0.87788318441E+01 -0.10961584905E+03  0.18509985260E+03  0.22865619975E+03  0.77000000000E+02 0.  0.
   -5000001    1    1    2    0    0 -0.87788318441E+01  0.10961584905E+03  0.98869241355E+02  0.16672381095E+03  0.77000000000E+02 0.  0.
<mgrwt>
<rscale>  0 0.27511253E+03</rscale>
<asrwt>0</asrwt>
<pdfrwt beam="1">  1        1 0.52257623E-01 0.27511253E+03</pdfrwt>
<pdfrwt beam="2">  1       -1 0.85700706E-02 0.27511253E+03</pdfrwt>
<totfact> 0.57543633E+03</totfact>
</mgrwt>
</event>
<event>
 4    1  0.3064919E-004  0.2209071E+03  0.7818608E-02  0.1133209E+00
          1   -1    0    0  501    0  0.00000000000E+00  0.00000000000E+00  0.54709718531E+03  0.54709718534E+03  0.50400000000E-02 0.  1.
         -1   -1    0    0    0  501 -0.00000000000E+00 -0.00000000000E+00 -0.22299494411E+02  0.22299494981E+02  0.50400000000E-02 0. -1.
    5000001    1    1    2    0    0 -0.51383048903E+02  0.30831780436E+02  0.12895863734E+03  0.16171006939E+03  0.77000000000E+02 0.  0.
   -5000001    1    1    2    0    0  0.51383048903E+02 -0.30831780436E+02  0.39583905356E+03  0.40768661092E+03  0.77000000000E+02 0.  0.
<mgrwt>
<rscale>  0 0.22090714E+03</rscale>
<asrwt>0</asrwt>
<pdfrwt beam="1">  1        1 0.84168806E-01 0.22090714E+03</pdfrwt>
<pdfrwt beam="2">  1       -1 0.34306911E-02 0.22090714E+03</pdfrwt>
<totfact> 0.12142753E+04</totfact>
</mgrwt>
</event>
<event>
 4    1  0.3064919E-004  0.1926277E+03  0.7818608E-02  0.1156112E+00
          1   -1    0    0  501    0  0.00000000000E+00  0.00000000000E+00  0.38092806329E+02  0.38092806662E+02  0.50400000000E-02 0.  1.
         -1   -1    0    0    0  501 -0.00000000000E+00 -0.00000000000E+00 -0.24351987563E+03  0.24351987568E+03  0.50400000000E-02 0. -1.
    5000001    1    1    2    0    0  0.51399274199E+02  0.70144697915E+01 -0.14016543997E+03  0.16812625832E+03  0.77000000000E+02 0.  0.
   -5000001    1    1    2    0    0 -0.51399274199E+02 -0.70144697915E+01 -0.65261629327E+02  0.11348642402E+03  0.77000000000E+02 0.  0.
<mgrwt>
<rscale>  0 0.19262768E+03</rscale>
<asrwt>0</asrwt>
<pdfrwt beam="1">  1        1 0.58604319E-02 0.19262768E+03</pdfrwt>
<pdfrwt beam="2">  1       -1 0.37464595E-01 0.19262768E+03</pdfrwt>
<totfact> 0.89749955E+03</totfact>
</mgrwt>
</event>
<event>
 4    1  0.3064919E-004  0.2013161E+03  0.7818608E-02  0.1148633E+00
          1   -1    0    0  501    0  0.00000000000E+00  0.00000000000E+00  0.15760212740E+03  0.15760212748E+03  0.50400000000E-02 0.  1.
         -1   -1    0    0    0  501 -0.00000000000E+00 -0.00000000000E+00 -0.64288733538E+02  0.64288733736E+02  0.50400000000E-02 0. -1.
    5000001    1    1    2    0    0 -0.64220429853E+02  0.45404330639E+01  0.38250862299E+02  0.10741046322E+03  0.77000000000E+02 0.  0.
   -5000001    1    1    2    0    0  0.64220429853E+02 -0.45404330639E+01  0.55062531563E+02  0.11448039799E+03  0.77000000000E+02 0.  0.
<mgrwt>
<rscale>  0 0.20131608E+03</rscale>
<asrwt>0</asrwt>
<pdfrwt beam="1">  1        1 0.24246481E-01 0.20131608E+03</pdfrwt>
<pdfrwt beam="2">  1       -1 0.98905744E-02 0.20131608E+03</pdfrwt>
<totfact> 0.11941970E+04</totfact>
</mgrwt>
</event>
<event>
 4    1  0.3064919E-004  0.1982654E+03  0.7818608E-02  0.1151211E+00
         -1   -1    0    0    0  501 -0.00000000000E+00  0.00000000000E+00  0.26074864243E+03  0.26074864248E+03  0.50400000000E-02 0. -1.
          1   -1    0    0  501    0  0.00000000000E+00 -0.00000000000E+00 -0.37688752715E+02  0.37688753052E+02  0.50400000000E-02 0.  1.
    5000001    1    1    2    0    0 -0.26574011914E+02  0.41947624146E+02  0.54558773730E+02  0.10663695922E+03  0.77000000000E+02 0.  0.
   -5000001    1    1    2    0    0  0.26574011914E+02 -0.41947624146E+02  0.16850111599E+03  0.19180043631E+03  0.77000000000E+02 0.  0.
<mgrwt>
<rscale>  0 0.19826539E+03</rscale>
<asrwt>0</asrwt>
<pdfrwt beam="1">  1        1 0.57982694E-02 0.19826539E+03</pdfrwt>
<pdfrwt beam="2">  1       -1 0.40115177E-01 0.19826539E+03</pdfrwt>
<totfact> 0.80920022E+03</totfact>
</mgrwt>
</event>
<event>
 4    1  0.3064919E-004  0.1613509E+03  0.7818608E-02  0.1187180E+00
         -1   -1    0    0    0  501 -0.00000000000E+00  0.00000000000E+00  0.29695395018E+02  0.29695395445E+02  0.50400000000E-02 0. -1.
          1   -1    0    0  501    0  0.00000000000E+00 -0.00000000000E+00 -0.21917628659E+03  0.21917628665E+03  0.50400000000E-02 0.  1.
    5000001    1    1    2    0    0 -0.17469553806E+02  0.16538132815E+02 -0.96146780943E+02  0.12550656809E+03  0.77000000000E+02 0.  0.
   -5000001    1    1    2    0    0  0.17469553806E+02 -0.16538132815E+02 -0.93334110634E+02  0.12336511401E+03  0.77000000000E+02 0.  0.
<mgrwt>
<rscale>  0 0.16135088E+03</rscale>
<asrwt>0</asrwt>
<pdfrwt beam="1">  1        1 0.33719428E-01 0.16135088E+03</pdfrwt>
<pdfrwt beam="2">  1       -1 0.45685225E-02 0.16135088E+03</pdfrwt>
<totfact> 0.24823785E+04</totfact>
</mgrwt>
</event>
<event>
 4    1  0.3064919E-004  0.3598733E+03  0.7818608E-02  0.1058634E+00
         -1   -1    0    0    0  501 -0.00000000000E+00  0.00000000000E+00  0.28833005349E+03  0.28833005353E+03  0.50400000000E-02 0. -1.
          1   -1    0    0  501    0  0.00000000000E+00 -0.00000000000E+00 -0.11229216578E+03  0.11229216590E+03  0.50400000000E-02 0.  1.
    5000001    1    1    2    0    0  0.96320009469E+02  0.12846632499E+03  0.11677104131E+03  0.21294510318E+03  0.77000000000E+02 0.  0.
   -5000001    1    1    2    0    0 -0.96320009469E+02 -0.12846632499E+03  0.59266846397E+02  0.18767711625E+03  0.77000000000E+02 0.  0.
<mgrwt>
<rscale>  0 0.35987335E+03</rscale>
<asrwt>0</asrwt>
<pdfrwt beam="1">  1        1 0.17275718E-01 0.35987335E+03</pdfrwt>
<pdfrwt beam="2">  1       -1 0.44358469E-01 0.35987335E+03</pdfrwt>
<totfact> 0.15903398E+03</totfact>
</mgrwt>
</event>
<event>
 4    1  0.3064919E-004  0.3885816E+03  0.7818608E-02  0.1047807E+00
         -1   -1    0    0    0  501 -0.00000000000E+00  0.00000000000E+00  0.13903593552E+03  0.13903593561E+03  0.50400000000E-02 0. -1.
          1   -1    0    0  501    0  0.00000000000E+00 -0.00000000000E+00 -0.27150477316E+03  0.27150477320E+03  0.50400000000E-02 0.  1.
    5000001    1    1    2    0    0 -0.14712593370E+03 -0.84875697964E+02 -0.86570419438E+01  0.18669190889E+03  0.77000000000E+02 0.  0.
   -5000001    1    1    2    0    0  0.14712593370E+03  0.84875697964E+02 -0.12381179570E+03  0.22384879992E+03  0.77000000000E+02 0.  0.
<mgrwt>
<rscale>  0 0.38858163E+03</rscale>
<asrwt>0</asrwt>
<pdfrwt beam="1">  1        1 0.41769965E-01 0.38858163E+03</pdfrwt>
<pdfrwt beam="2">  1       -1 0.21390144E-01 0.38858163E+03</pdfrwt>
<totfact> 0.18040225E+03</totfact>
</mgrwt>
</event>
<event>
 4    1  0.3064919E-004  0.3065243E+03  0.7818608E-02  0.1082024E+00
         -1   -1    0    0    0  501 -0.00000000000E+00  0.00000000000E+00  0.87188703126E+01  0.87188717693E+01  0.50400000000E-02 0.  1.
          1   -1    0    0  501    0  0.00000000000E+00 -0.00000000000E+00 -0.26940742955E+04  0.26940742955E+04  0.50400000000E-02 0. -1.
    5000001    1    1    2    0    0  0.56790927303E+02  0.10155416593E+03 -0.19018680646E+04  0.19069791800E+04  0.77000000000E+02 0.  0.
   -5000001    1    1    2    0    0 -0.56790927303E+02 -0.10155416593E+03 -0.78348736057E+03  0.79581398719E+03  0.77000000000E+02 0.  0.
<mgrwt>
<rscale>  0 0.30652430E+03</rscale>
<asrwt>0</asrwt>
<pdfrwt beam="1">  1        1 0.41447231E+00 0.30652430E+03</pdfrwt>
<pdfrwt beam="2">  1       -1 0.13413669E-02 0.30652430E+03</pdfrwt>
<totfact> 0.14390527E+03</totfact>
</mgrwt>
</event>
<event>
 4    1  0.3064919E-004  0.1749140E+03  0.7818608E-02  0.1172818E+00
         -1   -1    0    0    0  501 -0.00000000000E+00  0.00000000000E+00  0.34146034724E+02  0.34146035096E+02  0.50400000000E-02 0. -1.
          1   -1    0    0  501    0  0.00000000000E+00 -0.00000000000E+00 -0.22400041843E+03  0.22400041849E+03  0.50400000000E-02 0.  1.
    5000001    1    1    2    0    0  0.36161056876E+02  0.61134028678E+01 -0.12349658866E+03  0.15008465324E+03  0.77000000000E+02 0.  0.
   -5000001    1    1    2    0    0 -0.36161056876E+02 -0.61134028678E+01 -0.66357795045E+02  0.10806180034E+03  0.77000000000E+02 0.  0.
<mgrwt>
<rscale>  0 0.17491399E+03</rscale>
<asrwt>0</asrwt>
<pdfrwt beam="1">  1        1 0.34461602E-01 0.17491399E+03</pdfrwt>
<pdfrwt beam="2">  1       -1 0.52532363E-02 0.17491399E+03</pdfrwt>
<totfact> 0.19774722E+04</totfact>
</mgrwt>
</event>
<event>
 4    1  0.3064919E-004  0.3016555E+03  0.7818608E-02  0.1084416E+00
         -1   -1    0    0    0  501 -0.00000000000E+00  0.00000000000E+00  0.98387472924E+01  0.98387485833E+01  0.50400000000E-02 0. -1.
          1   -1    0    0  501    0  0.00000000000E+00 -0.00000000000E+00 -0.23121851036E+04  0.23121851036E+04  0.50400000000E-02 0.  1.
    5000001    1    1    2    0    0 -0.82471113408E+01 -0.11813583362E+03 -0.15581948699E+04  0.15645843993E+04  0.77000000000E+02 0.  0.
   -5000001    1    1    2    0    0  0.82471113408E+01  0.11813583362E+03 -0.74415148642E+03  0.75743945288E+03  0.77000000000E+02 0.  0.
<mgrwt>
<rscale>  0 0.30165548E+03</rscale>
<asrwt>0</asrwt>
<pdfrwt beam="1">  1        1 0.35572035E+00 0.30165548E+03</pdfrwt>
<pdfrwt beam="2">  1       -1 0.15136554E-02 0.30165548E+03</pdfrwt>
<totfact> 0.21708738E+03</totfact>
</mgrwt>
</event>
<event>
 4    1  0.3064919E-004  0.2267058E+03  0.7818608E-02  0.1128980E+00
         -1   -1    0    0    0  501 -0.00000000000E+00  0.00000000000E+00  0.34865799378E+03  0.34865799382E+03  0.50400000000E-02 0.  1.
          1   -1    0    0  501    0  0.00000000000E+00 -0.00000000000E+00 -0.36852393966E+02  0.36852394311E+02  0.50400000000E-02 0. -1.
    5000001    1    1    2    0    0 -0.61039131584E+02  0.40936522597E+02  0.89642519434E+02  0.13916305457E+03  0.77000000000E+02 0.  0.
   -5000001    1    1    2    0    0  0.61039131584E+02 -0.40936522597E+02  0.22216308038E+03  0.24634733356E+03  0.77000000000E+02 0.  0.
<mgrwt>
<rscale>  0 0.22670582E+03</rscale>
<asrwt>0</asrwt>
<pdfrwt beam="1">  1        1 0.56695993E-02 0.22670582E+03</pdfrwt>
<pdfrwt beam="2">  1       -1 0.53639689E-01 0.22670582E+03</pdfrwt>
<totfact> 0.49602878E+03</totfact>
</mgrwt>
</event>
<event>
 4    1  0.3064919E-004  0.3707203E+03  0.7818608E-02  0.1054418E+00
          1   -1    0    0  501    0  0.00000000000E+00  0.00000000000E+00  0.24943187343E+02  0.24943187852E+02  0.50400000000E-02 0.  1.
         -1   -1    0    0    0  501 -0.00000000000E+00 -0.00000000000E+00 -0.13774657555E+04  0.13774657556E+04  0.50400000000E-02 0. -1.
    5000001    1    1    2    0    0  0.63029314691E+02 -0.15502731070E+03 -0.59843719442E+03  0.62614873412E+03  0.77000000000E+02 0.  0.
   -5000001    1    1    2    0    0 -0.63029314691E+02  0.15502731070E+03 -0.75408537379E+03  0.77626020929E+03  0.77000000000E+02 0.  0.
<mgrwt>
<rscale>  0 0.37072031E+03</rscale>
<asrwt>0</asrwt>
<pdfrwt beam="1">  1        1 0.38374145E-02 0.37072031E+03</pdfrwt>
<pdfrwt beam="2">  1       -1 0.21191775E+00 0.37072031E+03</pdfrwt>
<totfact> 0.33472146E+02</totfact>
</mgrwt>
</event>
<event>
 4    1  0.3064919E-004  0.2099390E+03  0.7818608E-02  0.1141614E+00
         -1   -1    0    0    0  501 -0.00000000000E+00  0.00000000000E+00  0.10828360777E+02  0.10828361950E+02  0.50400000000E-02 0. -1.
          1   -1    0    0  501    0  0.00000000000E+00 -0.00000000000E+00 -0.10175679223E+04  0.10175679223E+04  0.50400000000E-02 0.  1.
    5000001    1    1    2    0    0  0.55269639133E+02 -0.11668292165E+01 -0.72426655650E+03  0.73044311165E+03  0.77000000000E+02 0.  0.
   -5000001    1    1    2    0    0 -0.55269639133E+02  0.11668292165E+01 -0.28247300505E+03  0.29795317263E+03  0.77000000000E+02 0.  0.
<mgrwt>
<rscale>  0 0.20993897E+03</rscale>
<asrwt>0</asrwt>
<pdfrwt beam="1">  1        1 0.15654884E+00 0.20993897E+03</pdfrwt>
<pdfrwt beam="2">  1       -1 0.16659026E-02 0.20993897E+03</pdfrwt>
<totfact> 0.13699510E+04</totfact>
</mgrwt>
</event>
<event>
 4    1  0.3064919E-004  0.3687605E+03  0.7818608E-02  0.1055168E+00
          1   -1    0    0  501    0  0.00000000000E+00  0.00000000000E+00  0.59000404717E+03  0.59000404719E+03  0.50400000000E-02 0.  1.
         -1   -1    0    0    0  501 -0.00000000000E+00 -0.00000000000E+00 -0.57620074016E+02  0.57620074236E+02  0.50400000000E-02 0. -1.
    5000001    1    1    2    0    0 -0.14325378275E+03  0.45805489271E+02  0.39581102054E+03  0.43036630107E+03  0.77000000000E+02 0.  0.
   -5000001    1    1    2    0    0  0.14325378275E+03 -0.45805489271E+02  0.13657295262E+03  0.21725782035E+03  0.77000000000E+02 0.  0.
<mgrwt>
<rscale>  0 0.36876050E+03</rscale>
<asrwt>0</asrwt>
<pdfrwt beam="1">  1        1 0.90769858E-01 0.36876050E+03</pdfrwt>
<pdfrwt beam="2">  1       -1 0.88646264E-02 0.36876050E+03</pdfrwt>
<totfact> 0.26556387E+03</totfact>
</mgrwt>
</event>
<event>
 4    1  0.3064919E-004  0.1813988E+03  0.7818608E-02  0.1166456E+00
         -1   -1    0    0    0  501 -0.00000000000E+00  0.00000000000E+00  0.38669577406E+02  0.38669577735E+02  0.50400000000E-02 0.  1.
          1   -1    0    0  501    0  0.00000000000E+00 -0.00000000000E+00 -0.21273532695E+03  0.21273532701E+03  0.50400000000E-02 0. -1.
    5000001    1    1    2    0    0 -0.39372355485E+02 -0.85409707453E+01 -0.12302033638E+03  0.15061916784E+03  0.77000000000E+02 0.  0.
   -5000001    1    1    2    0    0  0.39372355485E+02  0.85409707453E+01 -0.51045413156E+02  0.10078573690E+03  0.77000000000E+02 0.  0.
<mgrwt>
<rscale>  0 0.18139884E+03</rscale>
<asrwt>0</asrwt>
<pdfrwt beam="1">  1        1 0.32728511E-01 0.18139884E+03</pdfrwt>
<pdfrwt beam="2">  1       -1 0.59491659E-02 0.18139884E+03</pdfrwt>
<totfact> 0.17565709E+04</totfact>
</mgrwt>
</event>
<event>
 4    1  0.3064919E-004  0.2836784E+03  0.7818608E-02  0.1093697E+00
         -1   -1    0    0    0  501 -0.00000000000E+00  0.00000000000E+00  0.58679227019E+02  0.58679227235E+02  0.50400000000E-02 0.  1.
          1   -1    0    0  501    0  0.00000000000E+00 -0.00000000000E+00 -0.34285324581E+03  0.34285324585E+03  0.50400000000E-02 0. -1.
    5000001    1    1    2    0    0  0.18203912842E+02  0.97588977152E+02 -0.48899549605E+02  0.13481526937E+03  0.77000000000E+02 0.  0.
   -5000001    1    1    2    0    0 -0.18203912842E+02 -0.97588977152E+02 -0.23527446919E+03  0.26671720371E+03  0.77000000000E+02 0.  0.
<mgrwt>
<rscale>  0 0.28367843E+03</rscale>
<asrwt>0</asrwt>
<pdfrwt beam="1">  1        1 0.52746652E-01 0.28367843E+03</pdfrwt>
<pdfrwt beam="2">  1       -1 0.90275736E-02 0.28367843E+03</pdfrwt>
<totfact> 0.52553887E+03</totfact>
</mgrwt>
</event>
<event>
 4    1  0.3064919E-004  0.3539342E+03  0.7818608E-02  0.1061012E+00
          1   -1    0    0  501    0  0.00000000000E+00  0.00000000000E+00  0.24892334621E+03  0.24892334626E+03  0.50400000000E-02 0.  1.
         -1   -1    0    0    0  501 -0.00000000000E+00 -0.00000000000E+00 -0.12581124613E+03  0.12581124623E+03  0.50400000000E-02 0. -1.
    5000001    1    1    2    0    0 -0.55618507828E+02 -0.10445339386E+03 -0.51412309254E+02  0.15025363704E+03  0.77000000000E+02 0.  0.
   -5000001    1    1    2    0    0  0.55618507828E+02  0.10445339386E+03  0.17452440934E+03  0.22448095544E+03  0.77000000000E+02 0.  0.
<mgrwt>
<rscale>  0 0.35393421E+03</rscale>
<asrwt>0</asrwt>
<pdfrwt beam="1">  1        1 0.38295899E-01 0.35393421E+03</pdfrwt>
<pdfrwt beam="2">  1       -1 0.19355577E-01 0.35393421E+03</pdfrwt>
<totfact> 0.23705936E+03</totfact>
</mgrwt>
</event>
<event>
 4    1  0.3064919E-004  0.2055514E+03  0.7818608E-02  0.1145138E+00
         -1   -1    0    0    0  501 -0.00000000000E+00  0.00000000000E+00  0.11231818527E+02  0.11231819658E+02  0.50400000000E-02 0. -1.
          1   -1    0    0  501    0  0.00000000000E+00 -0.00000000000E+00 -0.94043893995E+03  0.94043893997E+03  0.50400000000E-02 0.  1.
    5000001    1    1    2    0    0  0.39891775876E+02  0.54695346488E+02 -0.49763656449E+03  0.50808865863E+03  0.77000000000E+02 0.  0.
   -5000001    1    1    2    0    0 -0.39891775876E+02 -0.54695346488E+02 -0.43157055694E+03  0.44358210100E+03  0.77000000000E+02 0.  0.
<mgrwt>
<rscale>  0 0.20555136E+03</rscale>
<asrwt>0</asrwt>
<pdfrwt beam="1">  1        1 0.14468285E+00 0.20555136E+03</pdfrwt>
<pdfrwt beam="2">  1       -1 0.17279729E-02 0.20555136E+03</pdfrwt>
<totfact> 0.14825453E+04</totfact>
</mgrwt>
</event>
<event>
 4    1  0.3064919E-004  0.3470951E+03  0.7818608E-02  0.1063814E+00
         -1   -1    0    0    0  501 -0.00000000000E+00  0.00000000000E+00  0.10234365478E+04  0.10234365478E+04  0.50400000000E-02 0. -1.
          1   -1    0    0  501    0  0.00000000000E+00 -0.00000000000E+00 -0.29429036497E+02  0.29429036929E+02  0.50400000000E-02 0.  1.
    5000001    1    1    2    0    0 -0.11209251566E+03  0.95519472859E+02  0.34530373637E+03  0.38321322017E+03  0.77000000000E+02 0.  0.
   -5000001    1    1    2    0    0  0.11209251566E+03 -0.95519472859E+02  0.64870377490E+03  0.66965236454E+03  0.77000000000E+02 0.  0.
<mgrwt>
<rscale>  0 0.34709510E+03</rscale>
<asrwt>0</asrwt>
<pdfrwt beam="1">  1        1 0.45275432E-02 0.34709510E+03</pdfrwt>
<pdfrwt beam="2">  1       -1 0.15745181E+00 0.34709510E+03</pdfrwt>
<totfact> 0.63615559E+02</totfact>
</mgrwt>
</event>
<event>
 4    1  0.3064919E-004  0.3094120E+03  0.7818608E-02  0.1080628E+00
          1   -1    0    0  501    0  0.00000000000E+00  0.00000000000E+00  0.16814685633E+04  0.16814685633E+04  0.50400000000E-02 0.  1.
         -1   -1    0    0    0  501 -0.00000000000E+00 -0.00000000000E+00 -0.14233955558E+02  0.14233956450E+02  0.50400000000E-02 0. -1.
    5000001    1    1    2    0    0 -0.31969349190E+02 -0.12604692206E+03  0.65225954314E+03  0.66953818224E+03  0.77000000000E+02 0.  0.
   -5000001    1    1    2    0    0  0.31969349190E+02  0.12604692206E+03  0.10149750646E+04  0.10261643375E+04  0.77000000000E+02 0.  0.
<mgrwt>
<rscale>  0 0.30941202E+03</rscale>
<asrwt>0</asrwt>
<pdfrwt beam="1">  1        1 0.25868741E+00 0.30941202E+03</pdfrwt>
<pdfrwt beam="2">  1       -1 0.21898399E-02 0.30941202E+03</pdfrwt>
<totfact> 0.32632013E+03</totfact>
</mgrwt>
</event>
<event>
 4    1  0.3064919E-004  0.3153891E+03  0.7818608E-02  0.1077791E+00
         -1   -1    0    0    0  501 -0.00000000000E+00  0.00000000000E+00  0.24629596388E+02  0.24629596904E+02  0.50400000000E-02 0. -1.
          1   -1    0    0  501    0  0.00000000000E+00 -0.00000000000E+00 -0.10096622597E+04  0.10096622597E+04  0.50400000000E-02 0.  1.
    5000001    1    1    2    0    0 -0.92015503998E+02  0.90572561640E+02 -0.64870507787E+03  0.66589602789E+03  0.77000000000E+02 0.  0.
   -5000001    1    1    2    0    0  0.92015503998E+02 -0.90572561640E+02 -0.33632758544E+03  0.36839582873E+03  0.77000000000E+02 0.  0.
<mgrwt>
<rscale>  0 0.31538912E+03</rscale>
<asrwt>0</asrwt>
<pdfrwt beam="1">  1        1 0.15533262E+00 0.31538912E+03</pdfrwt>
<pdfrwt beam="2">  1       -1 0.37891695E-02 0.31538912E+03</pdfrwt>
<totfact> 0.42020137E+03</totfact>
</mgrwt>
</event>
<event>
 4    1  0.3064919E-004  0.1883006E+03  0.7818608E-02  0.1160003E+00
          1   -1    0    0  501    0  0.00000000000E+00  0.00000000000E+00  0.61170076857E+03  0.61170076859E+03  0.50400000000E-02 0. -1.
         -1   -1    0    0    0  501 -0.00000000000E+00 -0.00000000000E+00 -0.14491194231E+02  0.14491195108E+02  0.50400000000E-02 0.  1.
    5000001    1    1    2    0    0  0.27678843757E+02 -0.94200782475E+01  0.14692376175E+03  0.16843529331E+03  0.77000000000E+02 0.  0.
   -5000001    1    1    2    0    0 -0.27678843757E+02  0.94200782475E+01  0.45028581259E+03  0.45775667039E+03  0.77000000000E+02 0.  0.
<mgrwt>
<rscale>  0 0.18830056E+03</rscale>
<asrwt>0</asrwt>
<pdfrwt beam="1">  1        1 0.94107764E-01 0.18830056E+03</pdfrwt>
<pdfrwt beam="2">  1       -1 0.22294157E-02 0.18830056E+03</pdfrwt>
<totfact> 0.19412175E+04</totfact>
</mgrwt>
</event>
<event>
 4    1  0.3064919E-004  0.2450335E+03  0.7818608E-02  0.1116484E+00
          1   -1    0    0  501    0  0.00000000000E+00  0.00000000000E+00  0.42584231999E+03  0.42584232002E+03  0.50400000000E-02 0. -1.
         -1   -1    0    0    0  501 -0.00000000000E+00 -0.00000000000E+00 -0.35248625926E+02  0.35248626286E+02  0.50400000000E-02 0.  1.
    5000001    1    1    2    0    0 -0.33104358356E+02 -0.83663349491E+02  0.25438195004E+03  0.28059691926E+03  0.77000000000E+02 0.  0.
   -5000001    1    1    2    0    0  0.33104358356E+02  0.83663349491E+02  0.13621174402E+03  0.18049402705E+03  0.77000000000E+02 0.  0.
<mgrwt>
<rscale>  0 0.24503352E+03</rscale>
<asrwt>0</asrwt>
<pdfrwt beam="1">  1        1 0.65514199E-01 0.24503352E+03</pdfrwt>
<pdfrwt beam="2">  1       -1 0.54228659E-02 0.24503352E+03</pdfrwt>
<totfact> 0.85909321E+03</totfact>
</mgrwt>
</event>
<event>
 4    1  0.3064919E-004  0.1920194E+03  0.7818608E-02  0.1156653E+00
          1   -1    0    0  501    0  0.00000000000E+00  0.00000000000E+00  0.31417388273E+03  0.31417388277E+03  0.50400000000E-02 0.  1.
         -1   -1    0    0    0  501 -0.00000000000E+00 -0.00000000000E+00 -0.29339993575E+02  0.29339994008E+02  0.50400000000E-02 0. -1.
    5000001    1    1    2    0    0 -0.73359914021E+01 -0.28949613281E+02  0.54831911636E+02  0.99133422278E+02  0.77000000000E+02 0.  0.
   -5000001    1    1    2    0    0  0.73359914021E+01  0.28949613281E+02  0.23000197752E+03  0.24438045450E+03  0.77000000000E+02 0.  0.
<mgrwt>
<rscale>  0 0.19201937E+03</rscale>
<asrwt>0</asrwt>
<pdfrwt beam="1">  1        1 0.48334440E-01 0.19201937E+03</pdfrwt>
<pdfrwt beam="2">  1       -1 0.45138455E-02 0.19201937E+03</pdfrwt>
<totfact> 0.16375176E+04</totfact>
</mgrwt>
</event>
<event>
 4    1  0.3064919E-004  0.2515121E+03  0.7818608E-02  0.1112353E+00
         -1   -1    0    0    0  501 -0.00000000000E+00  0.00000000000E+00  0.26922934440E+02  0.26922934912E+02  0.50400000000E-02 0. -1.
          1   -1    0    0  501    0  0.00000000000E+00 -0.00000000000E+00 -0.58740179082E+03  0.58740179084E+03  0.50400000000E-02 0.  1.
    5000001    1    1    2    0    0  0.29599058165E+02 -0.90256897756E+02 -0.20847869147E+03  0.24169149061E+03  0.77000000000E+02 0.  0.
   -5000001    1    1    2    0    0 -0.29599058165E+02  0.90256897756E+02 -0.35200016491E+03  0.37263323515E+03  0.77000000000E+02 0.  0.
<mgrwt>
<rscale>  0 0.25151207E+03</rscale>
<asrwt>0</asrwt>
<pdfrwt beam="1">  1        1 0.90369497E-01 0.25151207E+03</pdfrwt>
<pdfrwt beam="2">  1       -1 0.41419904E-02 0.25151207E+03</pdfrwt>
<totfact> 0.83881223E+03</totfact>
</mgrwt>
</event>
<event>
 4    1  0.3064919E-004  0.2018040E+03  0.7818608E-02  0.1148226E+00
         -1   -1    0    0    0  501 -0.00000000000E+00  0.00000000000E+00  0.38232906677E+02  0.38232907009E+02  0.50400000000E-02 0. -1.
          1   -1    0    0  501    0  0.00000000000E+00 -0.00000000000E+00 -0.26629447590E+03  0.26629447594E+03  0.50400000000E-02 0.  1.
    5000001    1    1    2    0    0  0.85315597179E+01 -0.61273236530E+02 -0.82920879784E+02  0.12896538036E+03  0.77000000000E+02 0.  0.
   -5000001    1    1    2    0    0 -0.85315597179E+01  0.61273236530E+02 -0.14514068943E+03  0.17556200260E+03  0.77000000000E+02 0.  0.
<mgrwt>
<rscale>  0 0.20180398E+03</rscale>
<asrwt>0</asrwt>
<pdfrwt beam="1">  1        1 0.40968380E-01 0.20180398E+03</pdfrwt>
<pdfrwt beam="2">  1       -1 0.58819858E-02 0.20180398E+03</pdfrwt>
<totfact> 0.13607719E+04</totfact>
</mgrwt>
</event>
<event>
 4    1  0.3064919E-004  0.2071550E+03  0.7818608E-02  0.1143839E+00
         -1   -1    0    0    0  501 -0.00000000000E+00  0.00000000000E+00  0.11066330129E+02  0.11066331277E+02  0.50400000000E-02 0.  1.
          1   -1    0    0  501    0  0.00000000000E+00 -0.00000000000E+00 -0.96945409761E+03  0.96945409762E+03  0.50400000000E-02 0. -1.
    5000001    1    1    2    0    0  0.65135555558E+02  0.20235331864E+02 -0.53661887701E+03  0.54638899003E+03  0.77000000000E+02 0.  0.
   -5000001    1    1    2    0    0 -0.65135555558E+02 -0.20235331864E+02 -0.42176889047E+03  0.43413143888E+03  0.77000000000E+02 0.  0.
<mgrwt>
<rscale>  0 0.20715501E+03</rscale>
<asrwt>0</asrwt>
<pdfrwt beam="1">  1        1 0.14914672E+00 0.20715501E+03</pdfrwt>
<pdfrwt beam="2">  1       -1 0.17025132E-02 0.20715501E+03</pdfrwt>
<totfact> 0.14406275E+04</totfact>
</mgrwt>
</event>
<event>
 4    1  0.3064919E-004  0.4756687E+03  0.7818608E-02  0.1020332E+00
          1   -1    0    0  501    0  0.00000000000E+00  0.00000000000E+00  0.13178551062E+04  0.13178551062E+04  0.50400000000E-02 0. -1.
         -1   -1    0    0    0  501 -0.00000000000E+00 -0.00000000000E+00 -0.42922143604E+02  0.42922143899E+02  0.50400000000E-02 0.  1.
    5000001    1    1    2    0    0 -0.13828413653E+03  0.17750899706E+03  0.64334316379E+03  0.68589457852E+03  0.77000000000E+02 0.  0.
   -5000001    1    1    2    0    0  0.13828413653E+03 -0.17750899706E+03  0.63158979880E+03  0.67488267158E+03  0.77000000000E+02 0.  0.
<mgrwt>
<rscale>  0 0.47566865E+03</rscale>
<asrwt>0</asrwt>
<pdfrwt beam="1">  1        1 0.20274693E+00 0.47566865E+03</pdfrwt>
<pdfrwt beam="2">  1       -1 0.66034071E-02 0.47566865E+03</pdfrwt>
<totfact> 0.10869050E+03</totfact>
</mgrwt>
</event>
<event>
 4    1  0.3064919E-004  0.2221742E+03  0.7818608E-02  0.1132272E+00
          1   -1    0    0  501    0  0.00000000000E+00  0.00000000000E+00  0.69897560383E+01  0.69897578554E+01  0.50400000000E-02 0.  1.
         -1   -1    0    0    0  501 -0.00000000000E+00 -0.00000000000E+00 -0.17654896099E+04  0.17654896099E+04  0.50400000000E-02 0. -1.
    5000001    1    1    2    0    0 -0.25211674269E+02 -0.70058558833E+02 -0.11142270551E+04  0.11193635515E+04  0.77000000000E+02 0.  0.
   -5000001    1    1    2    0    0  0.25211674269E+02  0.70058558833E+02 -0.64427279884E+03  0.65311581630E+03  0.77000000000E+02 0.  0.
<mgrwt>
<rscale>  0 0.22217420E+03</rscale>
<asrwt>0</asrwt>
<pdfrwt beam="1">  1        1 0.10753486E-02 0.22217420E+03</pdfrwt>
<pdfrwt beam="2">  1       -1 0.27161343E+00 0.22217420E+03</pdfrwt>
<totfact> 0.84599392E+02</totfact>
</mgrwt>
</event>
<event>
 4    1  0.3064919E-004  0.2067940E+03  0.7818608E-02  0.1144130E+00
         -1   -1    0    0    0  501 -0.00000000000E+00  0.00000000000E+00  0.21201652921E+04  0.21201652921E+04  0.50400000000E-02 0. -1.
          1   -1    0    0  501    0  0.00000000000E+00 -0.00000000000E+00 -0.50425009012E+01  0.50425034200E+01  0.50400000000E-02 0.  1.
    5000001    1    1    2    0    0  0.59518420135E+02  0.21693431454E+02  0.77632421330E+03  0.78270130411E+03  0.77000000000E+02 0.  0.
   -5000001    1    1    2    0    0 -0.59518420135E+02 -0.21693431454E+02  0.13387985779E+04  0.13425064915E+04  0.77000000000E+02 0.  0.
<mgrwt>
<rscale>  0 0.20679399E+03</rscale>
<asrwt>0</asrwt>
<pdfrwt beam="1">  1        1 0.77576962E-03 0.20679399E+03</pdfrwt>
<pdfrwt beam="2">  1       -1 0.32617925E+00 0.20679399E+03</pdfrwt>
<totfact> 0.61405201E+02</totfact>
</mgrwt>
</event>
<event>
 4    1  0.3064919E-004  0.2299915E+03  0.7818608E-02  0.1126646E+00
         -1   -1    0    0    0  501 -0.00000000000E+00  0.00000000000E+00  0.87309722510E+03  0.87309722512E+03  0.50400000000E-02 0. -1.
          1   -1    0    0  501    0  0.00000000000E+00 -0.00000000000E+00 -0.15146104077E+02  0.15146104915E+02  0.50400000000E-02 0.  1.
    5000001    1    1    2    0    0 -0.90432848892E+01 -0.84659380964E+02  0.40277317559E+03  0.41881287320E+03  0.77000000000E+02 0.  0.
   -5000001    1    1    2    0    0  0.90432848892E+01  0.84659380964E+02  0.45517794544E+03  0.46943045683E+03  0.77000000000E+02 0.  0.
<mgrwt>
<rscale>  0 0.22999149E+03</rscale>
<asrwt>0</asrwt>
<pdfrwt beam="1">  1        1 0.23301700E-02 0.22999149E+03</pdfrwt>
<pdfrwt beam="2">  1       -1 0.13432265E+00 0.22999149E+03</pdfrwt>
<totfact> 0.24263421E+03</totfact>
</mgrwt>
</event>
<event>
 4    1  0.3064919E-004  0.2178224E+03  0.7818608E-02  0.1135517E+00
         -1   -1    0    0    0  501 -0.00000000000E+00  0.00000000000E+00  0.82200364885E+03  0.82200364886E+03  0.50400000000E-02 0. -1.
          1   -1    0    0  501    0  0.00000000000E+00 -0.00000000000E+00 -0.14430170611E+02  0.14430171491E+02  0.50400000000E-02 0.  1.
    5000001    1    1    2    0    0 -0.55176453431E+02  0.52754650850E+02  0.44316462054E+03  0.45623609579E+03  0.77000000000E+02 0.  0.
   -5000001    1    1    2    0    0  0.55176453431E+02 -0.52754650850E+02  0.36440885770E+03  0.38019772457E+03  0.77000000000E+02 0.  0.
<mgrwt>
<rscale>  0 0.21782243E+03</rscale>
<asrwt>0</asrwt>
<pdfrwt beam="1">  1        1 0.22200263E-02 0.21782243E+03</pdfrwt>
<pdfrwt beam="2">  1       -1 0.12646210E+00 0.21782243E+03</pdfrwt>
<totfact> 0.30051946E+03</totfact>
</mgrwt>
</event>
<event>
 4    1  0.3064919E-004  0.2572882E+03  0.7818608E-02  0.1108784E+00
          1   -1    0    0  501    0  0.00000000000E+00  0.00000000000E+00  0.84083542725E+02  0.84083542876E+02  0.50400000000E-02 0.  1.
         -1   -1    0    0    0  501 -0.00000000000E+00 -0.00000000000E+00 -0.19681978442E+03  0.19681978449E+03  0.50400000000E-02 0. -1.
    5000001    1    1    2    0    0 -0.31710094132E+02  0.85661570167E+02 -0.10846433194E+03  0.16135967891E+03  0.77000000000E+02 0.  0.
   -5000001    1    1    2    0    0  0.31710094132E+02 -0.85661570167E+02 -0.42719097546E+01  0.11954364846E+03  0.77000000000E+02 0.  0.
<mgrwt>
<rscale>  0 0.25728820E+03</rscale>
<asrwt>0</asrwt>
<pdfrwt beam="1">  1        1 0.12935930E-01 0.25728820E+03</pdfrwt>
<pdfrwt beam="2">  1       -1 0.30279967E-01 0.25728820E+03</pdfrwt>
<totfact> 0.45206232E+03</totfact>
</mgrwt>
</event>
<event>
 4    1  0.3064919E-004  0.2668193E+03  0.7818608E-02  0.1103114E+00
         -1   -1    0    0    0  501 -0.00000000000E+00  0.00000000000E+00  0.20594543546E+02  0.20594544162E+02  0.50400000000E-02 0. -1.
          1   -1    0    0  501    0  0.00000000000E+00 -0.00000000000E+00 -0.86421611448E+03  0.86421611449E+03  0.50400000000E-02 0.  1.
    5000001    1    1    2    0    0 -0.59583043699E+02  0.78002525515E+02 -0.26505148094E+03  0.29294337444E+03  0.77000000000E+02 0.  0.
   -5000001    1    1    2    0    0  0.59583043699E+02 -0.78002525515E+02 -0.57857008999E+03  0.59186728421E+03  0.77000000000E+02 0.  0.
<mgrwt>
<rscale>  0 0.26681931E+03</rscale>
<asrwt>0</asrwt>
<pdfrwt beam="1">  1        1 0.13295630E+00 0.26681931E+03</pdfrwt>
<pdfrwt beam="2">  1       -1 0.31683920E-02 0.26681931E+03</pdfrwt>
<totfact> 0.70775129E+03</totfact>
</mgrwt>
</event>
<event>
 4    1  0.3064919E-004  0.6813044E+03  0.7818608E-02  0.9749749E-01
         -1   -1    0    0    0  501 -0.00000000000E+00  0.00000000000E+00  0.81464620908E+02  0.81464621064E+02  0.50400000000E-02 0.  1.
          1   -1    0    0  501    0  0.00000000000E+00 -0.00000000000E+00 -0.14244703607E+04  0.14244703607E+04  0.50400000000E-02 0. -1.
    5000001    1    1    2    0    0  0.12686003282E+03  0.26894227950E+03 -0.34595864617E+03  0.46264435854E+03  0.77000000000E+02 0.  0.
   -5000001    1    1    2    0    0 -0.12686003282E+03 -0.26894227950E+03 -0.99704709364E+03  0.10432906233E+04  0.77000000000E+02 0.  0.
<mgrwt>
<rscale>  0 0.68130445E+03</rscale>
<asrwt>0</asrwt>
<pdfrwt beam="1">  1        1 0.21914927E+00 0.68130445E+03</pdfrwt>
<pdfrwt beam="2">  1       -1 0.12533020E-01 0.68130445E+03</pdfrwt>
<totfact> 0.33173014E+02</totfact>
</mgrwt>
</event>
<event>
 4    1  0.3064919E-004  0.6249347E+03  0.7818608E-02  0.9854984E-01
          1   -1    0    0  501    0  0.00000000000E+00  0.00000000000E+00  0.10351520084E+04  0.10351520084E+04  0.50400000000E-02 0.  1.
         -1   -1    0    0    0  501 -0.00000000000E+00 -0.00000000000E+00 -0.94320290947E+02  0.94320291082E+02  0.50400000000E-02 0. -1.
    5000001    1    1    2    0    0  0.13690891263E+03  0.61212104276E+02 -0.50767696689E+01  0.16865866612E+03  0.77000000000E+02 0.  0.
   -5000001    1    1    2    0    0 -0.13690891263E+03 -0.61212104276E+02  0.94590848708E+03  0.96081363333E+03  0.77000000000E+02 0.  0.
<mgrwt>
<rscale>  0 0.62493468E+03</rscale>
<asrwt>0</asrwt>
<pdfrwt beam="1">  1        1 0.15925416E+00 0.62493468E+03</pdfrwt>
<pdfrwt beam="2">  1       -1 0.14510814E-01 0.62493468E+03</pdfrwt>
<totfact> 0.50064347E+02</totfact>
</mgrwt>
</event>
<event>
 4    1  0.3064919E-004  0.1788092E+03  0.7818608E-02  0.1168960E+00
         -1   -1    0    0    0  501 -0.00000000000E+00  0.00000000000E+00  0.19140210682E+03  0.19140210688E+03  0.50400000000E-02 0. -1.
          1   -1    0    0  501    0  0.00000000000E+00 -0.00000000000E+00 -0.41761208459E+02  0.41761208764E+02  0.50400000000E-02 0.  1.
    5000001    1    1    2    0    0  0.17422136237E+02  0.38854038855E+02  0.95480014507E+02  0.12984067289E+03  0.77000000000E+02 0.  0.
   -5000001    1    1    2    0    0 -0.17422136237E+02 -0.38854038855E+02  0.54160883849E+02  0.10332264275E+03  0.77000000000E+02 0.  0.
<mgrwt>
<rscale>  0 0.17880921E+03</rscale>
<asrwt>0</asrwt>
<pdfrwt beam="1">  1        1 0.64248015E-02 0.17880921E+03</pdfrwt>
<pdfrwt beam="2">  1       -1 0.29446477E-01 0.17880921E+03</pdfrwt>
<totfact> 0.11896085E+04</totfact>
</mgrwt>
</event>
<event>
 4    1  0.3064919E-004  0.3381055E+03  0.7818608E-02  0.1067606E+00
          1   -1    0    0  501    0  0.00000000000E+00  0.00000000000E+00  0.11180658504E+04  0.11180658505E+04  0.50400000000E-02 0. -1.
         -1   -1    0    0    0  501 -0.00000000000E+00 -0.00000000000E+00 -0.25560951858E+02  0.25560952354E+02  0.50400000000E-02 0.  1.
    5000001    1    1    2    0    0 -0.32306372749E+00 -0.12555018101E+03  0.26555191722E+03  0.30366062152E+03  0.77000000000E+02 0.  0.
   -5000001    1    1    2    0    0  0.32306372749E+00  0.12555018101E+03  0.82695298137E+03  0.83996618129E+03  0.77000000000E+02 0.  0.
<mgrwt>
<rscale>  0 0.33810547E+03</rscale>
<asrwt>0</asrwt>
<pdfrwt beam="1">  1        1 0.17201012E+00 0.33810547E+03</pdfrwt>
<pdfrwt beam="2">  1       -1 0.39324544E-02 0.33810547E+03</pdfrwt>
<totfact> 0.33108259E+03</totfact>
</mgrwt>
</event>
<event>
 4    1  0.3064919E-004  0.1717900E+03  0.7818608E-02  0.1175994E+00
          1   -1    0    0  501    0  0.00000000000E+00  0.00000000000E+00  0.14998142415E+03  0.14998142423E+03  0.50400000000E-02 0. -1.
         -1   -1    0    0    0  501 -0.00000000000E+00 -0.00000000000E+00 -0.49192433189E+02  0.49192433447E+02  0.50400000000E-02 0.  1.
    5000001    1    1    2    0    0  0.12856260243E+02  0.33652719143E+02  0.36139857975E+02  0.92373579922E+02  0.77000000000E+02 0.  0.
   -5000001    1    1    2    0    0 -0.12856260243E+02 -0.33652719143E+02  0.64649132982E+02  0.10680027775E+03  0.77000000000E+02 0.  0.
<mgrwt>
<rscale>  0 0.17179000E+03</rscale>
<asrwt>0</asrwt>
<pdfrwt beam="1">  1        1 0.23074065E-01 0.17179000E+03</pdfrwt>
<pdfrwt beam="2">  1       -1 0.75680667E-02 0.17179000E+03</pdfrwt>
<totfact> 0.18890981E+04</totfact>
</mgrwt>
</event>
<event>
 4    1  0.3064919E-004  0.3514954E+03  0.7818608E-02  0.1062003E+00
          1   -1    0    0  501    0  0.00000000000E+00  0.00000000000E+00  0.57192037492E+03  0.57192037494E+03  0.50400000000E-02 0. -1.
         -1   -1    0    0    0  501 -0.00000000000E+00 -0.00000000000E+00 -0.54006224359E+02  0.54006224595E+02  0.50400000000E-02 0.  1.
    5000001    1    1    2    0    0 -0.79826057880E+02 -0.11598951860E+03  0.38653274856E+03  0.41852399412E+03  0.77000000000E+02 0.  0.
   -5000001    1    1    2    0    0  0.79826057880E+02  0.11598951860E+03  0.13138140200E+03  0.20740260542E+03  0.77000000000E+02 0.  0.
<mgrwt>
<rscale>  0 0.35149543E+03</rscale>
<asrwt>0</asrwt>
<pdfrwt beam="1">  1        1 0.87987750E-01 0.35149543E+03</pdfrwt>
<pdfrwt beam="2">  1       -1 0.83086499E-02 0.35149543E+03</pdfrwt>
<totfact> 0.30633080E+03</totfact>
</mgrwt>
</event>
<event>
 4    1  0.3064919E-004  0.4521818E+03  0.7818608E-02  0.1027073E+00
          1   -1    0    0  501    0  0.00000000000E+00  0.00000000000E+00  0.75526350173E+03  0.75526350175E+03  0.50400000000E-02 0.  1.
         -1   -1    0    0    0  501 -0.00000000000E+00 -0.00000000000E+00 -0.67681134838E+02  0.67681135026E+02  0.50400000000E-02 0. -1.
    5000001    1    1    2    0    0 -0.10758668876E+03 -0.10826638224E+03  0.74516099411E+02  0.18648901896E+03  0.77000000000E+02 0.  0.
   -5000001    1    1    2    0    0  0.10758668876E+03  0.10826638224E+03  0.61306626748E+03  0.63645561781E+03  0.77000000000E+02 0.  0.
<mgrwt>
<rscale>  0 0.45218178E+03</rscale>
<asrwt>0</asrwt>
<pdfrwt beam="1">  1        1 0.11619438E+00 0.45218178E+03</pdfrwt>
<pdfrwt beam="2">  1       -1 0.10412482E-01 0.45218178E+03</pdfrwt>
<totfact> 0.14415498E+03</totfact>
</mgrwt>
</event>
<event>
 4    1  0.3064919E-004  0.7554421E+03  0.7818608E-02  0.9626851E-01
          1   -1    0    0  501    0  0.00000000000E+00  0.00000000000E+00  0.42801243610E+03  0.42801243613E+03  0.50400000000E-02 0.  1.
         -1   -1    0    0    0  501 -0.00000000000E+00 -0.00000000000E+00 -0.33333886278E+03  0.33333886282E+03  0.50400000000E-02 0. -1.
    5000001    1    1    2    0    0 -0.14946883699E+03  0.60098699337E+02 -0.28812027443E+03  0.33896176692E+03  0.77000000000E+02 0.  0.
   -5000001    1    1    2    0    0  0.14946883699E+03 -0.60098699337E+02  0.38279384775E+03  0.42238953203E+03  0.77000000000E+02 0.  0.
<mgrwt>
<rscale>  0 0.75544207E+03</rscale>
<asrwt>0</asrwt>
<pdfrwt beam="1">  1        1 0.65848067E-01 0.75544207E+03</pdfrwt>
<pdfrwt beam="2">  1       -1 0.51282902E-01 0.75544207E+03</pdfrwt>
<totfact> 0.21222234E+02</totfact>
</mgrwt>
</event>
<event>
 4    1  0.3064919E-004  0.4673388E+03  0.7818608E-02  0.1022674E+00
         -1   -1    0    0    0  501 -0.00000000000E+00  0.00000000000E+00  0.42126960287E+02  0.42126960588E+02  0.50400000000E-02 0. -1.
          1   -1    0    0  501    0  0.00000000000E+00 -0.00000000000E+00 -0.12961148983E+04  0.12961148983E+04  0.50400000000E-02 0.  1.
    5000001    1    1    2    0    0  0.15376816810E+02  0.19004529895E+03 -0.30917078564E+03  0.37130746942E+03  0.77000000000E+02 0.  0.
   -5000001    1    1    2    0    0 -0.15376816810E+02 -0.19004529895E+03 -0.94481715236E+03  0.96693438947E+03  0.77000000000E+02 0.  0.
<mgrwt>
<rscale>  0 0.46733877E+03</rscale>
<asrwt>0</asrwt>
<pdfrwt beam="1">  1        1 0.19940226E+00 0.46733877E+03</pdfrwt>
<pdfrwt beam="2">  1       -1 0.64810718E-02 0.46733877E+03</pdfrwt>
<totfact> 0.11586666E+03</totfact>
</mgrwt>
</event>
<event>
 4    1  0.3064919E-004  0.2713625E+03  0.7818608E-02  0.1100502E+00
          1   -1    0    0  501    0  0.00000000000E+00  0.00000000000E+00  0.27026590776E+02  0.27026591246E+02  0.50400000000E-02 0.  1.
         -1   -1    0    0    0  501 -0.00000000000E+00 -0.00000000000E+00 -0.68115865544E+03  0.68115865546E+03  0.50400000000E-02 0. -1.
    5000001    1    1    2    0    0 -0.10293615145E+03 -0.27006622942E+02 -0.41576597430E+03  0.43602242412E+03  0.77000000000E+02 0.  0.
   -5000001    1    1    2    0    0  0.10293615145E+03  0.27006622942E+02 -0.23836609037E+03  0.27216282258E+03  0.77000000000E+02 0.  0.
<mgrwt>
<rscale>  0 0.27136246E+03</rscale>
<asrwt>0</asrwt>
<pdfrwt beam="1">  1        1 0.41579376E-02 0.27136246E+03</pdfrwt>
<pdfrwt beam="2">  1       -1 0.10479363E+00 0.27136246E+03</pdfrwt>
<totfact> 0.19502837E+03</totfact>
</mgrwt>
</event>
<event>
 4    1  0.3064919E-004  0.1734828E+03  0.7818608E-02  0.1174264E+00
         -1   -1    0    0    0  501 -0.00000000000E+00  0.00000000000E+00  0.68732989176E+01  0.68733007654E+01  0.50400000000E-02 0.  1.
          1   -1    0    0  501    0  0.00000000000E+00 -0.00000000000E+00 -0.10946808396E+04  0.10946808396E+04  0.50400000000E-02 0. -1.
    5000001    1    1    2    0    0  0.31501222536E+02  0.24039108896E+02 -0.51224209695E+03  0.51951051160E+03  0.77000000000E+02 0.  0.
   -5000001    1    1    2    0    0 -0.31501222536E+02 -0.24039108896E+02 -0.57556544371E+03  0.58204362875E+03  0.77000000000E+02 0.  0.
<mgrwt>
<rscale>  0 0.17348279E+03</rscale>
<asrwt>0</asrwt>
<pdfrwt beam="1">  1        1 0.16841230E+00 0.17348279E+03</pdfrwt>
<pdfrwt beam="2">  1       -1 0.10574316E-02 0.17348279E+03</pdfrwt>
<totfact> 0.22944249E+04</totfact>
</mgrwt>
</event>
<event>
 4    1  0.3064919E-004  0.2698244E+03  0.7818608E-02  0.1101380E+00
          1   -1    0    0  501    0  0.00000000000E+00  0.00000000000E+00  0.15161126033E+04  0.15161126033E+04  0.50400000000E-02 0. -1.
         -1   -1    0    0    0  501 -0.00000000000E+00 -0.00000000000E+00 -0.12005247593E+02  0.12005248651E+02  0.50400000000E-02 0.  1.
    5000001    1    1    2    0    0  0.95705886082E+01  0.10913198855E+03  0.84527104093E+03  0.85581161463E+03  0.77000000000E+02 0.  0.
   -5000001    1    1    2    0    0 -0.95705886082E+01 -0.10913198855E+03  0.65883631480E+03  0.67230623736E+03  0.77000000000E+02 0.  0.
<mgrwt>
<rscale>  0 0.26982445E+03</rscale>
<asrwt>0</asrwt>
<pdfrwt beam="1">  1        1 0.23324802E+00 0.26982445E+03</pdfrwt>
<pdfrwt beam="2">  1       -1 0.18469618E-02 0.26982445E+03</pdfrwt>
<totfact> 0.53779693E+03</totfact>
</mgrwt>
</event>
<event>
 4    1  0.3064919E-004  0.2459662E+03  0.7818608E-02  0.1115881E+00
          1   -1    0    0  501    0  0.00000000000E+00  0.00000000000E+00  0.50162871725E+03  0.50162871727E+03  0.50400000000E-02 0.  1.
         -1   -1    0    0    0  501 -0.00000000000E+00 -0.00000000000E+00 -0.30151467921E+02  0.30151468342E+02  0.50400000000E-02 0. -1.
    5000001    1    1    2    0    0 -0.54396546726E+02  0.15134584135E+02  0.68161572398E+02  0.11731598307E+03  0.77000000000E+02 0.  0.
   -5000001    1    1    2    0    0  0.54396546726E+02 -0.15134584135E+02  0.40331567693E+03  0.41446420254E+03  0.77000000000E+02 0.  0.
<mgrwt>
<rscale>  0 0.24596620E+03</rscale>
<asrwt>0</asrwt>
<pdfrwt beam="1">  1        1 0.77173643E-01 0.24596620E+03</pdfrwt>
<pdfrwt beam="2">  1       -1 0.46386877E-02 0.24596620E+03</pdfrwt>
<totfact> 0.87622235E+03</totfact>
</mgrwt>
</event>
<event>
 4    1  0.3064919E-004  0.1763710E+03  0.7818608E-02  0.1171362E+00
         -1   -1    0    0    0  501 -0.00000000000E+00  0.00000000000E+00  0.32299030544E+03  0.32299030548E+03  0.50400000000E-02 0. -1.
          1   -1    0    0  501    0  0.00000000000E+00 -0.00000000000E+00 -0.24077137796E+02  0.24077138323E+02  0.50400000000E-02 0.  1.
    5000001    1    1    2    0    0 -0.80595997308E+01  0.23776731983E+02  0.21811628960E+03  0.23266715694E+03  0.77000000000E+02 0.  0.
   -5000001    1    1    2    0    0  0.80595997308E+01 -0.23776731983E+02  0.80796878044E+02  0.11440028686E+03  0.77000000000E+02 0.  0.
<mgrwt>
<rscale>  0 0.17637100E+03</rscale>
<asrwt>0</asrwt>
<pdfrwt beam="1">  1        1 0.37041754E-02 0.17637100E+03</pdfrwt>
<pdfrwt beam="2">  1       -1 0.49690812E-01 0.17637100E+03</pdfrwt>
<totfact> 0.10131379E+04</totfact>
</mgrwt>
</event>
<event>
 4    1  0.3064919E-004  0.2350656E+03  0.7818608E-02  0.1123124E+00
          1   -1    0    0  501    0  0.00000000000E+00  0.00000000000E+00  0.11207564235E+04  0.11207564235E+04  0.50400000000E-02 0.  1.
         -1   -1    0    0    0  501 -0.00000000000E+00 -0.00000000000E+00 -0.12325568763E+02  0.12325569793E+02  0.50400000000E-02 0. -1.
    5000001    1    1    2    0    0  0.62234393927E+02 -0.63336195801E+01  0.85799732708E+03  0.86371386918E+03  0.77000000000E+02 0.  0.
   -5000001    1    1    2    0    0 -0.62234393927E+02  0.63336195801E+01  0.25043352768E+03  0.26936812415E+03  0.77000000000E+02 0.  0.
<mgrwt>
<rscale>  0 0.23506562E+03</rscale>
<asrwt>0</asrwt>
<pdfrwt beam="1">  1        1 0.17242408E+00 0.23506562E+03</pdfrwt>
<pdfrwt beam="2">  1       -1 0.18962413E-02 0.23506562E+03</pdfrwt>
<totfact> 0.96000342E+03</totfact>
</mgrwt>
</event>
<event>
 4    1  0.3064919E-004  0.2654644E+03  0.7818608E-02  0.1103904E+00
          1   -1    0    0  501    0  0.00000000000E+00  0.00000000000E+00  0.40716819431E+03  0.40716819434E+03  0.50400000000E-02 0.  1.
         -1   -1    0    0    0  501 -0.00000000000E+00 -0.00000000000E+00 -0.43269184473E+02  0.43269184767E+02  0.50400000000E-02 0. -1.
    5000001    1    1    2    0    0  0.43953156916E+01  0.10750923713E+03  0.16405010396E+03  0.21075813502E+03  0.77000000000E+02 0.  0.
   -5000001    1    1    2    0    0 -0.43953156916E+01 -0.10750923713E+03  0.19984890588E+03  0.23967924409E+03  0.77000000000E+02 0.  0.
<mgrwt>
<rscale>  0 0.26546439E+03</rscale>
<asrwt>0</asrwt>
<pdfrwt beam="1">  1        1 0.62641261E-01 0.26546439E+03</pdfrwt>
<pdfrwt beam="2">  1       -1 0.66567976E-02 0.26546439E+03</pdfrwt>
<totfact> 0.67036011E+03</totfact>
</mgrwt>
</event>
<event>
 4    1  0.3064919E-004  0.2805979E+03  0.7818608E-02  0.1095363E+00
          1   -1    0    0  501    0  0.00000000000E+00  0.00000000000E+00  0.42869106560E+03  0.42869106563E+03  0.50400000000E-02 0.  1.
         -1   -1    0    0    0  501 -0.00000000000E+00 -0.00000000000E+00 -0.45916042264E+02  0.45916042541E+02  0.50400000000E-02 0. -1.
    5000001    1    1    2    0    0 -0.95875568698E+02 -0.70486027855E+01  0.30501462472E+03  0.32894487193E+03  0.77000000000E+02 0.  0.
   -5000001    1    1    2    0    0  0.95875568698E+02  0.70486027855E+01  0.77760398616E+02  0.14566223624E+03  0.77000000000E+02 0.  0.
<mgrwt>
<rscale>  0 0.28059791E+03</rscale>
<asrwt>0</asrwt>
<pdfrwt beam="1">  1        1 0.65952474E-01 0.28059791E+03</pdfrwt>
<pdfrwt beam="2">  1       -1 0.70640063E-02 0.28059791E+03</pdfrwt>
<totfact> 0.57429025E+03</totfact>
</mgrwt>
</event>
<event>
 4    1  0.3064919E-004  0.2564377E+03  0.7818608E-02  0.1109303E+00
         -1   -1    0    0    0  501 -0.00000000000E+00  0.00000000000E+00  0.20205428010E+02  0.20205428639E+02  0.50400000000E-02 0. -1.
          1   -1    0    0  501    0  0.00000000000E+00 -0.00000000000E+00 -0.81364607301E+03  0.81364607303E+03  0.50400000000E-02 0.  1.
    5000001    1    1    2    0    0 -0.96443896959E+02  0.95194607391E+01 -0.50549460831E+03  0.52042852000E+03  0.77000000000E+02 0.  0.
   -5000001    1    1    2    0    0  0.96443896959E+02 -0.95194607391E+01 -0.28794603669E+03  0.31342298167E+03  0.77000000000E+02 0.  0.
<mgrwt>
<rscale>  0 0.25643765E+03</rscale>
<asrwt>0</asrwt>
<pdfrwt beam="1">  1        1 0.12517629E+00 0.25643765E+03</pdfrwt>
<pdfrwt beam="2">  1       -1 0.31085281E-02 0.25643765E+03</pdfrwt>
<totfact> 0.79935221E+03</totfact>
</mgrwt>
</event>
<event>
 4    1  0.3064919E-004  0.3047763E+03  0.7818608E-02  0.1082877E+00
          1   -1    0    0  501    0  0.00000000000E+00  0.00000000000E+00  0.11566560576E+04  0.11566560576E+04  0.50400000000E-02 0.  1.
         -1   -1    0    0    0  501 -0.00000000000E+00 -0.00000000000E+00 -0.20076975263E+02  0.20076975896E+02  0.50400000000E-02 0. -1.
    5000001    1    1    2    0    0 -0.24030202695E+02  0.57765850608E+02  0.12170318580E+03  0.15701913760E+03  0.77000000000E+02 0.  0.
   -5000001    1    1    2    0    0  0.24030202695E+02 -0.57765850608E+02  0.10148758965E+04  0.10197138959E+04  0.77000000000E+02 0.  0.
<mgrwt>
<rscale>  0 0.30477635E+03</rscale>
<asrwt>0</asrwt>
<pdfrwt beam="1">  1        1 0.17794713E+00 0.30477635E+03</pdfrwt>
<pdfrwt beam="2">  1       -1 0.30887647E-02 0.30477635E+03</pdfrwt>
<totfact> 0.44468123E+03</totfact>
</mgrwt>
</event>
<event>
 4    1  0.3064919E-004  0.3566561E+03  0.7818608E-02  0.1059916E+00
          1   -1    0    0  501    0  0.00000000000E+00  0.00000000000E+00  0.17745608539E+04  0.17745608539E+04  0.50400000000E-02 0. -1.
         -1   -1    0    0    0  501 -0.00000000000E+00 -0.00000000000E+00 -0.17920433003E+02  0.17920433712E+02  0.50400000000E-02 0.  1.
    5000001    1    1    2    0    0 -0.75692799084E+02  0.11687192048E+03  0.47364356038E+03  0.49965554927E+03  0.77000000000E+02 0.  0.
   -5000001    1    1    2    0    0  0.75692799084E+02 -0.11687192048E+03  0.12829968605E+04  0.12928257383E+04  0.77000000000E+02 0.  0.
<mgrwt>
<rscale>  0 0.35665613E+03</rscale>
<asrwt>0</asrwt>
<pdfrwt beam="1">  1        1 0.27300942E+00 0.35665613E+03</pdfrwt>
<pdfrwt beam="2">  1       -1 0.27569892E-02 0.35665613E+03</pdfrwt>
<totfact> 0.20150684E+03</totfact>
</mgrwt>
</event>
<event>
 4    1  0.3064919E-004  0.4099824E+03  0.7818608E-02  0.1040377E+00
          1   -1    0    0  501    0  0.00000000000E+00  0.00000000000E+00  0.11427594402E+04  0.11427594402E+04  0.50400000000E-02 0.  1.
         -1   -1    0    0    0  501 -0.00000000000E+00 -0.00000000000E+00 -0.36771865353E+02  0.36771865699E+02  0.50400000000E-02 0. -1.
    5000001    1    1    2    0    0  0.16487976631E+03 -0.85436506450E+02  0.43763739200E+03  0.48160172430E+03  0.77000000000E+02 0.  0.
   -5000001    1    1    2    0    0 -0.16487976631E+03  0.85436506450E+02  0.66835018286E+03  0.69792958162E+03  0.77000000000E+02 0.  0.
<mgrwt>
<rscale>  0 0.40998242E+03</rscale>
<asrwt>0</asrwt>
<pdfrwt beam="1">  1        1 0.17580915E+00 0.40998242E+03</pdfrwt>
<pdfrwt beam="2">  1       -1 0.56572100E-02 0.40998242E+03</pdfrwt>
<totfact> 0.18351910E+03</totfact>
</mgrwt>
</event>
<event>
 4    1  0.3064919E-004  0.3247195E+03  0.7818608E-02  0.1073498E+00
          1   -1    0    0  501    0  0.00000000000E+00  0.00000000000E+00  0.82815937009E+02  0.82815937163E+02  0.50400000000E-02 0.  1.
         -1   -1    0    0    0  501 -0.00000000000E+00 -0.00000000000E+00 -0.31830446973E+03  0.31830446977E+03  0.50400000000E-02 0. -1.
    5000001    1    1    2    0    0  0.10273841664E+03 -0.97354892011E+02 -0.14240435311E+03  0.21503757122E+03  0.77000000000E+02 0.  0.
   -5000001    1    1    2    0    0 -0.10273841664E+03  0.97354892011E+02 -0.93084179613E+02  0.18608283571E+03  0.77000000000E+02 0.  0.
<mgrwt>
<rscale>  0 0.32471947E+03</rscale>
<asrwt>0</asrwt>
<pdfrwt beam="1">  1        1 0.12740914E-01 0.32471947E+03</pdfrwt>
<pdfrwt beam="2">  1       -1 0.48969918E-01 0.32471947E+03</pdfrwt>
<totfact> 0.19814183E+03</totfact>
</mgrwt>
</event>
<event>
 4    1  0.3064919E-004  0.2628588E+03  0.7818608E-02  0.1105438E+00
          1   -1    0    0  501    0  0.00000000000E+00  0.00000000000E+00  0.10098687022E+04  0.10098687022E+04  0.50400000000E-02 0.  1.
         -1   -1    0    0    0  501 -0.00000000000E+00 -0.00000000000E+00 -0.17104881021E+02  0.17104881764E+02  0.50400000000E-02 0. -1.
    5000001    1    1    2    0    0 -0.10669910169E+02  0.39553754498E+02  0.88050266518E+03  0.88481200821E+03  0.77000000000E+02 0.  0.
   -5000001    1    1    2    0    0  0.10669910169E+02 -0.39553754498E+02  0.11226115598E+03  0.14216157575E+03  0.77000000000E+02 0.  0.
<mgrwt>
<rscale>  0 0.26285878E+03</rscale>
<asrwt>0</asrwt>
<pdfrwt beam="1">  1        1 0.15536441E+00 0.26285878E+03</pdfrwt>
<pdfrwt beam="2">  1       -1 0.26315203E-02 0.26285878E+03</pdfrwt>
<totfact> 0.71815507E+03</totfact>
</mgrwt>
</event>
<event>
 4    1  0.3064919E-004  0.2923725E+03  0.7818608E-02  0.1089117E+00
         -1   -1    0    0    0  501 -0.00000000000E+00  0.00000000000E+00  0.21688069889E+02  0.21688070475E+02  0.50400000000E-02 0. -1.
          1   -1    0    0  501    0  0.00000000000E+00 -0.00000000000E+00 -0.98535348647E+03  0.98535348648E+03  0.50400000000E-02 0.  1.
    5000001    1    1    2    0    0  0.49875050961E+02 -0.11378381452E+03 -0.49103534246E+03  0.51232702906E+03  0.77000000000E+02 0.  0.
   -5000001    1    1    2    0    0 -0.49875050961E+02  0.11378381452E+03 -0.47263007412E+03  0.49471452790E+03  0.77000000000E+02 0.  0.
<mgrwt>
<rscale>  0 0.29237247E+03</rscale>
<asrwt>0</asrwt>
<pdfrwt beam="1">  1        1 0.15159281E+00 0.29237247E+03</pdfrwt>
<pdfrwt beam="2">  1       -1 0.33366269E-02 0.29237247E+03</pdfrwt>
<totfact> 0.52893381E+03</totfact>
</mgrwt>
</event>
<event>
 4    1  0.3064919E-004  0.2173525E+03  0.7818608E-02  0.1135872E+00
          1   -1    0    0  501    0  0.00000000000E+00  0.00000000000E+00  0.52757586922E+02  0.52757587163E+02  0.50400000000E-02 0.  1.
         -1   -1    0    0    0  501 -0.00000000000E+00 -0.00000000000E+00 -0.22386407730E+03  0.22386407736E+03  0.50400000000E-02 0. -1.
    5000001    1    1    2    0    0  0.71989032411E+02 -0.18940450451E+02 -0.10903309526E+03  0.15283447685E+03  0.77000000000E+02 0.  0.
   -5000001    1    1    2    0    0 -0.71989032411E+02  0.18940450451E+02 -0.62073395116E+02  0.12378718767E+03  0.77000000000E+02 0.  0.
<mgrwt>
<rscale>  0 0.21735251E+03</rscale>
<asrwt>0</asrwt>
<pdfrwt beam="1">  1        1 0.81165520E-02 0.21735251E+03</pdfrwt>
<pdfrwt beam="2">  1       -1 0.34440627E-01 0.21735251E+03</pdfrwt>
<totfact> 0.67151776E+03</totfact>
</mgrwt>
</event>
<event>
 4    1  0.3064919E-004  0.1697676E+03  0.7818608E-02  0.1178090E+00
          1   -1    0    0  501    0  0.00000000000E+00  0.00000000000E+00  0.38076512019E+03  0.38076512023E+03  0.50400000000E-02 0. -1.
         -1   -1    0    0    0  501 -0.00000000000E+00 -0.00000000000E+00 -0.18923108470E+02  0.18923109141E+02  0.50400000000E-02 0.  1.
    5000001    1    1    2    0    0  0.23044160351E+02  0.21344642254E+02  0.14085367973E+03  0.16357073752E+03  0.77000000000E+02 0.  0.
   -5000001    1    1    2    0    0 -0.23044160351E+02 -0.21344642254E+02  0.22098833199E+03  0.23611749184E+03  0.77000000000E+02 0.  0.
<mgrwt>
<rscale>  0 0.16976760E+03</rscale>
<asrwt>0</asrwt>
<pdfrwt beam="1">  1        1 0.58579240E-01 0.16976760E+03</pdfrwt>
<pdfrwt beam="2">  1       -1 0.29112480E-02 0.16976760E+03</pdfrwt>
<totfact> 0.24294542E+04</totfact>
</mgrwt>
</event>
<event>
 4    1  0.3064919E-004  0.1832551E+03  0.7818608E-02  0.1164689E+00
          1   -1    0    0  501    0  0.00000000000E+00  0.00000000000E+00  0.27739952379E+03  0.27739952383E+03  0.50400000000E-02 0. -1.
         -1   -1    0    0    0  501 -0.00000000000E+00 -0.00000000000E+00 -0.30265391406E+02  0.30265391826E+02  0.50400000000E-02 0.  1.
    5000001    1    1    2    0    0  0.11160079472E+01 -0.49623454426E+02  0.12641253879E+03  0.15611810487E+03  0.77000000000E+02 0.  0.
   -5000001    1    1    2    0    0 -0.11160079472E+01  0.49623454426E+02  0.12072159359E+03  0.15154681079E+03  0.77000000000E+02 0.  0.
<mgrwt>
<rscale>  0 0.18325507E+03</rscale>
<asrwt>0</asrwt>
<pdfrwt beam="1">  1        1 0.42676851E-01 0.18325507E+03</pdfrwt>
<pdfrwt beam="2">  1       -1 0.46562140E-02 0.18325507E+03</pdfrwt>
<totfact> 0.18199426E+04</totfact>
</mgrwt>
</event>
<event>
 4    1  0.3064919E-004  0.1707891E+03  0.7818608E-02  0.1177027E+00
         -1   -1    0    0    0  501 -0.00000000000E+00  0.00000000000E+00  0.27544881778E+03  0.27544881783E+03  0.50400000000E-02 0. -1.
          1   -1    0    0  501    0  0.00000000000E+00 -0.00000000000E+00 -0.26473985428E+02  0.26473985908E+02  0.50400000000E-02 0.  1.
    5000001    1    1    2    0    0  0.31425545013E+02  0.17088165601E+02  0.10831819959E+03  0.13762776844E+03  0.77000000000E+02 0.  0.
   -5000001    1    1    2    0    0 -0.31425545013E+02 -0.17088165601E+02  0.14065663276E+03  0.16429503530E+03  0.77000000000E+02 0.  0.
<mgrwt>
<rscale>  0 0.17078909E+03</rscale>
<asrwt>0</asrwt>
<pdfrwt beam="1">  1        1 0.40729210E-02 0.17078909E+03</pdfrwt>
<pdfrwt beam="2">  1       -1 0.42376740E-01 0.17078909E+03</pdfrwt>
<totfact> 0.11812018E+04</totfact>
</mgrwt>
</event>
<event>
 4    1  0.3064919E-004  0.2385340E+03  0.7818608E-02  0.1120773E+00
          1   -1    0    0  501    0  0.00000000000E+00  0.00000000000E+00  0.14385655598E+03  0.14385655607E+03  0.50400000000E-02 0.  1.
         -1   -1    0    0    0  501 -0.00000000000E+00 -0.00000000000E+00 -0.98880553394E+02  0.98880553522E+02  0.50400000000E-02 0. -1.
    5000001    1    1    2    0    0 -0.10605333921E+02  0.88357193254E+02  0.27516908177E+01  0.11771167533E+03  0.77000000000E+02 0.  0.
   -5000001    1    1    2    0    0  0.10605333921E+02 -0.88357193254E+02  0.42224311770E+02  0.12502543426E+03  0.77000000000E+02 0.  0.
<mgrwt>
<rscale>  0 0.23853399E+03</rscale>
<asrwt>0</asrwt>
<pdfrwt beam="1">  1        1 0.22131778E-01 0.23853399E+03</pdfrwt>
<pdfrwt beam="2">  1       -1 0.15212393E-01 0.23853399E+03</pdfrwt>
<totfact> 0.69197977E+03</totfact>
</mgrwt>
</event>
<event>
 4    1  0.3064919E-004  0.2020093E+03  0.7818608E-02  0.1148055E+00
         -1   -1    0    0    0  501 -0.00000000000E+00  0.00000000000E+00  0.83099993319E+02  0.83099993472E+02  0.50400000000E-02 0. -1.
          1   -1    0    0  501    0  0.00000000000E+00 -0.00000000000E+00 -0.12276697847E+03  0.12276697857E+03  0.50400000000E-02 0.  1.
    5000001    1    1    2    0    0 -0.16540084556E+02  0.43369776606E+02  0.27071790823E+02  0.93895653671E+02  0.77000000000E+02 0.  0.
   -5000001    1    1    2    0    0  0.16540084556E+02 -0.43369776606E+02 -0.66738775976E+02  0.11197131838E+03  0.77000000000E+02 0.  0.
<mgrwt>
<rscale>  0 0.20200926E+03</rscale>
<asrwt>0</asrwt>
<pdfrwt beam="1">  1        1 0.18887228E-01 0.20200926E+03</pdfrwt>
<pdfrwt beam="2">  1       -1 0.12784614E-01 0.20200926E+03</pdfrwt>
<totfact> 0.11042948E+04</totfact>
</mgrwt>
</event>
<event>
 4    1  0.3064919E-004  0.2217714E+03  0.7818608E-02  0.1132569E+00
         -1   -1    0    0    0  501 -0.00000000000E+00  0.00000000000E+00  0.42342878611E+02  0.42342878911E+02  0.50400000000E-02 0.  1.
          1   -1    0    0  501    0  0.00000000000E+00 -0.00000000000E+00 -0.29038270406E+03  0.29038270411E+03  0.50400000000E-02 0. -1.
    5000001    1    1    2    0    0  0.62799470225E+02 -0.34467451119E+02 -0.17674164518E+03  0.20566571855E+03  0.77000000000E+02 0.  0.
   -5000001    1    1    2    0    0 -0.62799470225E+02  0.34467451119E+02 -0.71298180271E+02  0.12705986446E+03  0.77000000000E+02 0.  0.
<mgrwt>
<rscale>  0 0.22177141E+03</rscale>
<asrwt>0</asrwt>
<pdfrwt beam="1">  1        1 0.44674261E-01 0.22177141E+03</pdfrwt>
<pdfrwt beam="2">  1       -1 0.65142892E-02 0.22177141E+03</pdfrwt>
<totfact> 0.10535046E+04</totfact>
</mgrwt>
</event>
<event>
 4    1  0.3064919E-004  0.2478038E+03  0.7818608E-02  0.1114701E+00
          1   -1    0    0  501    0  0.00000000000E+00  0.00000000000E+00  0.23805313354E+03  0.23805313359E+03  0.50400000000E-02 0.  1.
         -1   -1    0    0    0  501 -0.00000000000E+00 -0.00000000000E+00 -0.64488470950E+02  0.64488471147E+02  0.50400000000E-02 0. -1.
    5000001    1    1    2    0    0 -0.65678093625E+02 -0.17534624172E+02  0.21823140755E+01  0.10273673891E+03  0.77000000000E+02 0.  0.
   -5000001    1    1    2    0    0  0.65678093625E+02  0.17534624172E+02  0.17138234851E+03  0.19980486583E+03  0.77000000000E+02 0.  0.
<mgrwt>
<rscale>  0 0.24780381E+03</rscale>
<asrwt>0</asrwt>
<pdfrwt beam="1">  1        1 0.36623558E-01 0.24780381E+03</pdfrwt>
<pdfrwt beam="2">  1       -1 0.99213034E-02 0.24780381E+03</pdfrwt>
<totfact> 0.71529650E+03</totfact>
</mgrwt>
</event>
<event>
 4    1  0.3064919E-004  0.4279548E+03  0.7818608E-02  0.1034508E+00
          1   -1    0    0  501    0  0.00000000000E+00  0.00000000000E+00  0.13193356966E+04  0.13193356966E+04  0.50400000000E-02 0.  1.
         -1   -1    0    0    0  501 -0.00000000000E+00 -0.00000000000E+00 -0.34704081103E+02  0.34704081469E+02  0.50400000000E-02 0. -1.
    5000001    1    1    2    0    0  0.53619964770E+02 -0.19224638005E+03  0.65767398405E+03  0.69159080427E+03  0.77000000000E+02 0.  0.
   -5000001    1    1    2    0    0 -0.53619964770E+02  0.19224638005E+03  0.62695763145E+03  0.66244897380E+03  0.77000000000E+02 0.  0.
<mgrwt>
<rscale>  0 0.42795483E+03</rscale>
<asrwt>0</asrwt>
<pdfrwt beam="1">  1        1 0.20297473E+00 0.42795483E+03</pdfrwt>
<pdfrwt beam="2">  1       -1 0.53390893E-02 0.42795483E+03</pdfrwt>
<totfact> 0.15035407E+03</totfact>
</mgrwt>
</event>
<event>
 4    1  0.3064919E-004  0.2122419E+03  0.7818608E-02  0.1139803E+00
         -1   -1    0    0    0  501 -0.00000000000E+00  0.00000000000E+00  0.66610031452E+01  0.66610050520E+01  0.50400000000E-02 0. -1.
          1   -1    0    0  501    0  0.00000000000E+00 -0.00000000000E+00 -0.16906839033E+04  0.16906839033E+04  0.50400000000E-02 0.  1.
    5000001    1    1    2    0    0  0.55368255535E+02 -0.45193160611E+02 -0.96185958805E+03  0.96757993603E+03  0.77000000000E+02 0.  0.
   -5000001    1    1    2    0    0 -0.55368255535E+02  0.45193160611E+02 -0.72216331212E+03  0.72976497234E+03  0.77000000000E+02 0.  0.
<mgrwt>
<rscale>  0 0.21224187E+03</rscale>
<asrwt>0</asrwt>
<pdfrwt beam="1">  1        1 0.26010487E+00 0.21224187E+03</pdfrwt>
<pdfrwt beam="2">  1       -1 0.10247712E-02 0.21224187E+03</pdfrwt>
<totfact> 0.96632754E+03</totfact>
</mgrwt>
</event>
<event>
 4    1  0.3064919E-004  0.1888436E+03  0.7818608E-02  0.1159508E+00
         -1   -1    0    0    0  501 -0.00000000000E+00  0.00000000000E+00  0.85903443160E+01  0.85903457945E+01  0.50400000000E-02 0.  1.
          1   -1    0    0  501    0  0.00000000000E+00 -0.00000000000E+00 -0.10378483298E+04  0.10378483298E+04  0.50400000000E-02 0. -1.
    5000001    1    1    2    0    0  0.52662189362E+02  0.30649882465E+01 -0.43552709133E+03  0.44541615106E+03  0.77000000000E+02 0.  0.
   -5000001    1    1    2    0    0 -0.52662189362E+02 -0.30649882465E+01 -0.59373089415E+03  0.60102252455E+03  0.77000000000E+02 0.  0.
<mgrwt>
<rscale>  0 0.18884359E+03</rscale>
<asrwt>0</asrwt>
<pdfrwt beam="1">  1        1 0.15966887E+00 0.18884359E+03</pdfrwt>
<pdfrwt beam="2">  1       -1 0.13215924E-02 0.18884359E+03</pdfrwt>
<totfact> 0.18395457E+04</totfact>
</mgrwt>
</event>
<event>
 4    1  0.3064919E-004  0.2354137E+03  0.7818608E-02  0.1122886E+00
         -1   -1    0    0    0  501 -0.00000000000E+00  0.00000000000E+00  0.41595679422E+03  0.41595679425E+03  0.50400000000E-02 0.  1.
          1   -1    0    0  501    0  0.00000000000E+00 -0.00000000000E+00 -0.33308511267E+02  0.33308511648E+02  0.50400000000E-02 0. -1.
    5000001    1    1    2    0    0 -0.14726777331E+02 -0.76821957064E+02  0.11019076032E+03  0.15552972294E+03  0.77000000000E+02 0.  0.
   -5000001    1    1    2    0    0  0.14726777331E+02  0.76821957064E+02  0.27245752263E+03  0.29373558296E+03  0.77000000000E+02 0.  0.
<mgrwt>
<rscale>  0 0.23541369E+03</rscale>
<asrwt>0</asrwt>
<pdfrwt beam="1">  1        1 0.51243863E-02 0.23541369E+03</pdfrwt>
<pdfrwt beam="2">  1       -1 0.63993354E-01 0.23541369E+03</pdfrwt>
<totfact> 0.40781300E+03</totfact>
</mgrwt>
</event>
<event>
 4    1  0.3064919E-004  0.1870368E+03  0.7818608E-02  0.1161161E+00
          1   -1    0    0  501    0  0.00000000000E+00  0.00000000000E+00  0.60935919641E+03  0.60935919643E+03  0.50400000000E-02 0.  1.
         -1   -1    0    0    0  501 -0.00000000000E+00 -0.00000000000E+00 -0.14352269617E+02  0.14352270502E+02  0.50400000000E-02 0. -1.
    5000001    1    1    2    0    0  0.15910742650E+02  0.49823795418E+02  0.26746793434E+03  0.28320250392E+03  0.77000000000E+02 0.  0.
   -5000001    1    1    2    0    0 -0.15910742650E+02 -0.49823795418E+02  0.32753899245E+03  0.34050896302E+03  0.77000000000E+02 0.  0.
<mgrwt>
<rscale>  0 0.18703676E+03</rscale>
<asrwt>0</asrwt>
<pdfrwt beam="1">  1        1 0.93747551E-01 0.18703676E+03</pdfrwt>
<pdfrwt beam="2">  1       -1 0.22080420E-02 0.18703676E+03</pdfrwt>
<totfact> 0.19781258E+04</totfact>
</mgrwt>
</event>
<event>
 4    1  0.3064919E-004  0.1760478E+03  0.7818608E-02  0.1171684E+00
          1   -1    0    0  501    0  0.00000000000E+00  0.00000000000E+00  0.24718990066E+03  0.24718990071E+03  0.50400000000E-02 0. -1.
         -1   -1    0    0    0  501 -0.00000000000E+00 -0.00000000000E+00 -0.31345167191E+02  0.31345167596E+02  0.50400000000E-02 0.  1.
    5000001    1    1    2    0    0 -0.36793849349E+02 -0.19762996097E+02  0.94234619805E+02  0.12866051039E+03  0.77000000000E+02 0.  0.
   -5000001    1    1    2    0    0  0.36793849349E+02  0.19762996097E+02  0.12161011366E+03  0.14987455791E+03  0.77000000000E+02 0.  0.
<mgrwt>
<rscale>  0 0.17604782E+03</rscale>
<asrwt>0</asrwt>
<pdfrwt beam="1">  1        1 0.38029215E-01 0.17604782E+03</pdfrwt>
<pdfrwt beam="2">  1       -1 0.48223335E-02 0.17604782E+03</pdfrwt>
<totfact> 0.19876911E+04</totfact>
</mgrwt>
</event>
<event>
 4    1  0.3064919E-004  0.2281985E+03  0.7818608E-02  0.1127914E+00
          1   -1    0    0  501    0  0.00000000000E+00  0.00000000000E+00  0.79928963153E+03  0.79928963154E+03  0.50400000000E-02 0. -1.
         -1   -1    0    0    0  501 -0.00000000000E+00 -0.00000000000E+00 -0.16287757536E+02  0.16287758316E+02  0.50400000000E-02 0.  1.
    5000001    1    1    2    0    0  0.31744174970E+02  0.76414301462E+02  0.44719064360E+03  0.46125406213E+03  0.77000000000E+02 0.  0.
   -5000001    1    1    2    0    0 -0.31744174970E+02 -0.76414301462E+02  0.33581123039E+03  0.35432332773E+03  0.77000000000E+02 0.  0.
<mgrwt>
<rscale>  0 0.22819848E+03</rscale>
<asrwt>0</asrwt>
<pdfrwt beam="1">  1        1 0.12296763E+00 0.22819848E+03</pdfrwt>
<pdfrwt beam="2">  1       -1 0.25058091E-02 0.22819848E+03</pdfrwt>
<totfact> 0.11226951E+04</totfact>
</mgrwt>
</event>
<event>
 4    1  0.3064919E-004  0.2823439E+03  0.7818608E-02  0.1094416E+00
         -1   -1    0    0    0  501 -0.00000000000E+00  0.00000000000E+00  0.15993065376E+02  0.15993066170E+02  0.50400000000E-02 0.  1.
          1   -1    0    0  501    0  0.00000000000E+00 -0.00000000000E+00 -0.12461346370E+04  0.12461346370E+04  0.50400000000E-02 0. -1.
    5000001    1    1    2    0    0  0.43906091041E+02  0.10524907604E+03 -0.75610479786E+03  0.76852363541E+03  0.77000000000E+02 0.  0.
   -5000001    1    1    2    0    0 -0.43906091041E+02 -0.10524907604E+03 -0.47403677377E+03  0.49360406777E+03  0.77000000000E+02 0.  0.
<mgrwt>
<rscale>  0 0.28234386E+03</rscale>
<asrwt>0</asrwt>
<pdfrwt beam="1">  1        1 0.19171294E+00 0.28234386E+03</pdfrwt>
<pdfrwt beam="2">  1       -1 0.24604726E-02 0.28234386E+03</pdfrwt>
<totfact> 0.53780688E+03</totfact>
</mgrwt>
</event>
<event>
 4    1  0.3064919E-004  0.2004128E+03  0.7818608E-02  0.1149391E+00
          1   -1    0    0  501    0  0.00000000000E+00  0.00000000000E+00  0.19519180637E+04  0.19519180637E+04  0.50400000000E-02 0.  1.
         -1   -1    0    0    0  501 -0.00000000000E+00 -0.00000000000E+00 -0.51443342034E+01  0.51443366722E+01  0.50400000000E-02 0. -1.
    5000001    1    1    2    0    0  0.18642104943E+02  0.58649983980E+02  0.79735041284E+03  0.80342020734E+03  0.77000000000E+02 0.  0.
   -5000001    1    1    2    0    0 -0.18642104943E+02 -0.58649983980E+02  0.11494233166E+04  0.11536421930E+04  0.77000000000E+02 0.  0.
<mgrwt>
<rscale>  0 0.20041279E+03</rscale>
<asrwt>0</asrwt>
<pdfrwt beam="1">  1        1 0.30029492E+00 0.20041279E+03</pdfrwt>
<pdfrwt beam="2">  1       -1 0.79143666E-03 0.20041279E+03</pdfrwt>
<totfact> 0.94872663E+03</totfact>
</mgrwt>
</event>
<event>
 4    1  0.3064919E-004  0.1818124E+03  0.7818608E-02  0.1166060E+00
         -1   -1    0    0    0  501 -0.00000000000E+00  0.00000000000E+00  0.69637654328E+01  0.69637672566E+01  0.50400000000E-02 0. -1.
          1   -1    0    0  501    0  0.00000000000E+00 -0.00000000000E+00 -0.11867052408E+04  0.11867052408E+04  0.50400000000E-02 0.  1.
    5000001    1    1    2    0    0 -0.46278873019E+02 -0.32547983521E+00 -0.68110317767E+03  0.68700245899E+03  0.77000000000E+02 0.  0.
   -5000001    1    1    2    0    0  0.46278873019E+02  0.32547983521E+00 -0.49863829774E+03  0.50666654912E+03  0.77000000000E+02 0.  0.
<mgrwt>
<rscale>  0 0.18181241E+03</rscale>
<asrwt>0</asrwt>
<pdfrwt beam="1">  1        1 0.18256988E+00 0.18181241E+03</pdfrwt>
<pdfrwt beam="2">  1       -1 0.10713496E-02 0.18181241E+03</pdfrwt>
<totfact> 0.19462636E+04</totfact>
</mgrwt>
</event>
<event>
 4    1  0.3064919E-004  0.2433640E+03  0.7818608E-02  0.1117572E+00
          1   -1    0    0  501    0  0.00000000000E+00  0.00000000000E+00  0.18622081024E+04  0.18622081024E+04  0.50400000000E-02 0.  1.
         -1   -1    0    0    0  501 -0.00000000000E+00 -0.00000000000E+00 -0.79510480508E+01  0.79510496482E+01  0.50400000000E-02 0. -1.
    5000001    1    1    2    0    0 -0.29480890837E+02 -0.77889414716E+02  0.58851461884E+03  0.59934492609E+03  0.77000000000E+02 0.  0.
   -5000001    1    1    2    0    0  0.29480890837E+02  0.77889414716E+02  0.12657424355E+04  0.12708142259E+04  0.77000000000E+02 0.  0.
<mgrwt>
<rscale>  0 0.24336399E+03</rscale>
<asrwt>0</asrwt>
<pdfrwt beam="1">  1        1 0.28649366E+00 0.24336399E+03</pdfrwt>
<pdfrwt beam="2">  1       -1 0.12232378E-02 0.24336399E+03</pdfrwt>
<totfact> 0.58126775E+03</totfact>
</mgrwt>
</event>
<event>
 4    1  0.3064919E-004  0.2446228E+03  0.7818608E-02  0.1116751E+00
          1   -1    0    0  501    0  0.00000000000E+00  0.00000000000E+00  0.15128167875E+02  0.15128168715E+02  0.50400000000E-02 0.  1.
         -1   -1    0    0    0  501 -0.00000000000E+00 -0.00000000000E+00 -0.98888912311E+03  0.98888912313E+03  0.50400000000E-02 0. -1.
    5000001    1    1    2    0    0  0.73502879535E+02 -0.54271917414E+02 -0.37961894191E+03  0.39797946602E+03  0.77000000000E+02 0.  0.
   -5000001    1    1    2    0    0 -0.73502879535E+02  0.54271917414E+02 -0.59414201333E+03  0.60603782582E+03  0.77000000000E+02 0.  0.
<mgrwt>
<rscale>  0 0.24462282E+03</rscale>
<asrwt>0</asrwt>
<pdfrwt beam="1">  1        1 0.23274113E-02 0.24462282E+03</pdfrwt>
<pdfrwt beam="2">  1       -1 0.15213674E+00 0.24462282E+03</pdfrwt>
<totfact> 0.17699876E+03</totfact>
</mgrwt>
</event>
<event>
 4    1  0.3064919E-004  0.3264991E+03  0.7818608E-02  0.1072696E+00
          1   -1    0    0  501    0  0.00000000000E+00  0.00000000000E+00  0.89863696376E+03  0.89863696378E+03  0.50400000000E-02 0.  1.
         -1   -1    0    0    0  501 -0.00000000000E+00 -0.00000000000E+00 -0.29656492132E+02  0.29656492560E+02  0.50400000000E-02 0. -1.
    5000001    1    1    2    0    0  0.55014588060E+01 -0.14384414239E+03  0.43485987949E+03  0.46449275359E+03  0.77000000000E+02 0.  0.
   -5000001    1    1    2    0    0 -0.55014588060E+01  0.14384414239E+03  0.43412059214E+03  0.46380070275E+03  0.77000000000E+02 0.  0.
<mgrwt>
<rscale>  0 0.32649913E+03</rscale>
<asrwt>0</asrwt>
<pdfrwt beam="1">  1        1 0.13825185E+00 0.32649913E+03</pdfrwt>
<pdfrwt beam="2">  1       -1 0.45625371E-02 0.32649913E+03</pdfrwt>
<totfact> 0.38760270E+03</totfact>
</mgrwt>
</event>
<event>
 4    1  0.3064919E-004  0.2372385E+03  0.7818608E-02  0.1121646E+00
          1   -1    0    0  501    0  0.00000000000E+00  0.00000000000E+00  0.13252344099E+03  0.13252344108E+03  0.50400000000E-02 0.  1.
         -1   -1    0    0    0  501 -0.00000000000E+00 -0.00000000000E+00 -0.10617386175E+03  0.10617386187E+03  0.50400000000E-02 0. -1.
    5000001    1    1    2    0    0  0.62033228769E+01 -0.60825782061E+02 -0.53590378012E+02  0.11197850505E+03  0.77000000000E+02 0.  0.
   -5000001    1    1    2    0    0 -0.62033228769E+01  0.60825782061E+02  0.79939957245E+02  0.12671879790E+03  0.77000000000E+02 0.  0.
<mgrwt>
<rscale>  0 0.23723849E+03</rscale>
<asrwt>0</asrwt>
<pdfrwt beam="1">  1        1 0.20388222E-01 0.23723849E+03</pdfrwt>
<pdfrwt beam="2">  1       -1 0.16334440E-01 0.23723849E+03</pdfrwt>
<totfact> 0.68631377E+03</totfact>
</mgrwt>
</event>
<event>
 4    1  0.3064919E-004  0.2353095E+03  0.7818608E-02  0.1122958E+00
          1   -1    0    0  501    0  0.00000000000E+00  0.00000000000E+00  0.39650436197E+03  0.39650436200E+03  0.50400000000E-02 0. -1.
         -1   -1    0    0    0  501 -0.00000000000E+00 -0.00000000000E+00 -0.34911692356E+02  0.34911692720E+02  0.50400000000E-02 0.  1.
    5000001    1    1    2    0    0  0.43714536468E+02  0.70189180868E+02  0.12065201706E+03  0.16529788574E+03  0.77000000000E+02 0.  0.
   -5000001    1    1    2    0    0 -0.43714536468E+02 -0.70189180868E+02  0.24094065256E+03  0.26611816899E+03  0.77000000000E+02 0.  0.
<mgrwt>
<rscale>  0 0.23530948E+03</rscale>
<asrwt>0</asrwt>
<pdfrwt beam="1">  1        1 0.61000672E-01 0.23530948E+03</pdfrwt>
<pdfrwt beam="2">  1       -1 0.53710295E-02 0.23530948E+03</pdfrwt>
<totfact> 0.95342610E+03</totfact>
</mgrwt>
</event>
<event>
 4    1  0.3064919E-004  0.2928812E+03  0.7818608E-02  0.1088854E+00
          1   -1    0    0  501    0  0.00000000000E+00  0.00000000000E+00  0.16558528640E+03  0.16558528648E+03  0.50400000000E-02 0.  1.
         -1   -1    0    0    0  501 -0.00000000000E+00 -0.00000000000E+00 -0.12950942275E+03  0.12950942284E+03  0.50400000000E-02 0. -1.
    5000001    1    1    2    0    0 -0.34424312777E+02 -0.11363902872E+03 -0.19889521435E+02  0.14291065468E+03  0.77000000000E+02 0.  0.
   -5000001    1    1    2    0    0  0.34424312777E+02  0.11363902872E+03  0.55965385088E+02  0.15218405464E+03  0.77000000000E+02 0.  0.
<mgrwt>
<rscale>  0 0.29288124E+03</rscale>
<asrwt>0</asrwt>
<pdfrwt beam="1">  1        1 0.25474659E-01 0.29288124E+03</pdfrwt>
<pdfrwt beam="2">  1       -1 0.19924527E-01 0.29288124E+03</pdfrwt>
<totfact> 0.37771944E+03</totfact>
</mgrwt>
</event>
<event>
 4    1  0.3064919E-004  0.2238808E+03  0.7818608E-02  0.1131022E+00
         -1   -1    0    0    0  501 -0.00000000000E+00  0.00000000000E+00  0.27712027073E+03  0.27712027078E+03  0.50400000000E-02 0. -1.
          1   -1    0    0  501    0  0.00000000000E+00 -0.00000000000E+00 -0.45217372172E+02  0.45217372453E+02  0.50400000000E-02 0.  1.
    5000001    1    1    2    0    0 -0.47280237987E+02 -0.48767074592E+02  0.51756238180E+02  0.11498415830E+03  0.77000000000E+02 0.  0.
   -5000001    1    1    2    0    0  0.47280237987E+02  0.48767074592E+02  0.18014666038E+03  0.20735348493E+03  0.77000000000E+02 0.  0.
<mgrwt>
<rscale>  0 0.22388078E+03</rscale>
<asrwt>0</asrwt>
<pdfrwt beam="1">  1        1 0.69565189E-02 0.22388078E+03</pdfrwt>
<pdfrwt beam="2">  1       -1 0.42633887E-01 0.22388078E+03</pdfrwt>
<totfact> 0.57000290E+03</totfact>
</mgrwt>
</event>
<event>
 4    1  0.3064919E-004  0.2026860E+03  0.7818608E-02  0.1147492E+00
         -1   -1    0    0    0  501 -0.00000000000E+00  0.00000000000E+00  0.55249927282E+03  0.55249927284E+03  0.50400000000E-02 0.  1.
          1   -1    0    0  501    0  0.00000000000E+00 -0.00000000000E+00 -0.18588989289E+02  0.18588989972E+02  0.50400000000E-02 0. -1.
    5000001    1    1    2    0    0  0.37303708932E+02 -0.49926970187E+02  0.32719741535E+03  0.34186461891E+03  0.77000000000E+02 0.  0.
   -5000001    1    1    2    0    0 -0.37303708932E+02  0.49926970187E+02  0.20671286818E+03  0.22922364390E+03  0.77000000000E+02 0.  0.
<mgrwt>
<rscale>  0 0.20268600E+03</rscale>
<asrwt>0</asrwt>
<pdfrwt beam="1">  1        1 0.28598450E-02 0.20268600E+03</pdfrwt>
<pdfrwt beam="2">  1       -1 0.84999876E-01 0.20268600E+03</pdfrwt>
<totfact> 0.51339035E+03</totfact>
</mgrwt>
</event>
<event>
 4    1  0.3064919E-004  0.1610318E+03  0.7818608E-02  0.1187537E+00
          1   -1    0    0  501    0  0.00000000000E+00  0.00000000000E+00  0.31419409111E+02  0.31419409515E+02  0.50400000000E-02 0.  1.
         -1   -1    0    0    0  501 -0.00000000000E+00 -0.00000000000E+00 -0.20633139965E+03  0.20633139971E+03  0.50400000000E-02 0. -1.
    5000001    1    1    2    0    0 -0.17280835872E+02 -0.10239794113E+02 -0.69353717439E+02  0.10555765626E+03  0.77000000000E+02 0.  0.
   -5000001    1    1    2    0    0  0.17280835872E+02  0.10239794113E+02 -0.10555827310E+03  0.13219315296E+03  0.77000000000E+02 0.  0.
<mgrwt>
<rscale>  0 0.16103181E+03</rscale>
<asrwt>0</asrwt>
<pdfrwt beam="1">  1        1 0.48337554E-02 0.16103181E+03</pdfrwt>
<pdfrwt beam="2">  1       -1 0.31743291E-01 0.16103181E+03</pdfrwt>
<totfact> 0.15329944E+04</totfact>
</mgrwt>
</event>
<event>
 4    1  0.3064919E-004  0.1914021E+03  0.7818608E-02  0.1157203E+00
          1   -1    0    0  501    0  0.00000000000E+00  0.00000000000E+00  0.13129343829E+02  0.13129344796E+02  0.50400000000E-02 0. -1.
         -1   -1    0    0    0  501 -0.00000000000E+00 -0.00000000000E+00 -0.69757444984E+03  0.69757444986E+03  0.50400000000E-02 0.  1.
    5000001    1    1    2    0    0 -0.47280826911E+02  0.30251722575E+02 -0.30920857797E+03  0.32355770429E+03  0.77000000000E+02 0.  0.
   -5000001    1    1    2    0    0  0.47280826911E+02 -0.30251722575E+02 -0.37523652804E+03  0.38714609037E+03  0.77000000000E+02 0.  0.
<mgrwt>
<rscale>  0 0.19140214E+03</rscale>
<asrwt>0</asrwt>
<pdfrwt beam="1">  1        1 0.20198997E-02 0.19140214E+03</pdfrwt>
<pdfrwt beam="2">  1       -1 0.10731912E+00 0.19140214E+03</pdfrwt>
<totfact> 0.50088479E+03</totfact>
</mgrwt>
</event>
<event>
 4    1  0.3064919E-004  0.2507264E+03  0.7818608E-02  0.1112847E+00
         -1   -1    0    0    0  501 -0.00000000000E+00  0.00000000000E+00  0.26259154901E+02  0.26259155385E+02  0.50400000000E-02 0. -1.
          1   -1    0    0  501    0  0.00000000000E+00 -0.00000000000E+00 -0.59849362880E+03  0.59849362882E+03  0.50400000000E-02 0.  1.
    5000001    1    1    2    0    0 -0.31454600379E+02 -0.76959543262E+02 -0.15251617532E+03  0.19000617600E+03  0.77000000000E+02 0.  0.
   -5000001    1    1    2    0    0  0.31454600379E+02  0.76959543262E+02 -0.41971829857E+03  0.43474660820E+03  0.77000000000E+02 0.  0.
<mgrwt>
<rscale>  0 0.25072644E+03</rscale>
<asrwt>0</asrwt>
<pdfrwt beam="1">  1        1 0.92075933E-01 0.25072644E+03</pdfrwt>
<pdfrwt beam="2">  1       -1 0.40398705E-02 0.25072644E+03</pdfrwt>
<totfact> 0.84820679E+03</totfact>
</mgrwt>
</event>
<event>
 4    1  0.3064919E-004  0.5669259E+03  0.7818608E-02  0.9976504E-01
         -1   -1    0    0    0  501 -0.00000000000E+00  0.00000000000E+00  0.84037223893E+03  0.84037223894E+03  0.50400000000E-02 0. -1.
          1   -1    0    0  501    0  0.00000000000E+00 -0.00000000000E+00 -0.95613888988E+02  0.95613889121E+02  0.50400000000E-02 0.  1.
    5000001    1    1    2    0    0  0.36806607787E+02  0.92236720038E+02  0.79187202702E+03  0.80178092150E+03  0.77000000000E+02 0.  0.
   -5000001    1    1    2    0    0 -0.36806607787E+02 -0.92236720038E+02 -0.47113677084E+02  0.13420520656E+03  0.77000000000E+02 0.  0.
<mgrwt>
<rscale>  0 0.56692595E+03</rscale>
<asrwt>0</asrwt>
<pdfrwt beam="1">  1        1 0.14709829E-01 0.56692595E+03</pdfrwt>
<pdfrwt beam="2">  1       -1 0.12928804E+00 0.56692595E+03</pdfrwt>
<totfact> 0.20803576E+02</totfact>
</mgrwt>
</event>
<event>
 4    1  0.3064919E-004  0.8529458E+03  0.7818608E-02  0.9486392E-01
          1   -1    0    0  501    0  0.00000000000E+00  0.00000000000E+00  0.23361999057E+04  0.23361999057E+04  0.50400000000E-02 0.  1.
         -1   -1    0    0    0  501 -0.00000000000E+00 -0.00000000000E+00 -0.77852553951E+02  0.77852554114E+02  0.50400000000E-02 0. -1.
    5000001    1    1    2    0    0 -0.37850855568E+03  0.20506142634E+02  0.16375244853E+04  0.16825886807E+04  0.77000000000E+02 0.  0.
   -5000001    1    1    2    0    0  0.37850855568E+03 -0.20506142634E+02  0.62082286650E+03  0.73146377913E+03  0.77000000000E+02 0.  0.
<mgrwt>
<rscale>  0 0.85294579E+03</rscale>
<asrwt>0</asrwt>
<pdfrwt beam="1">  1        1 0.35941533E+00 0.85294579E+03</pdfrwt>
<pdfrwt beam="2">  1       -1 0.11977317E-01 0.85294579E+03</pdfrwt>
<totfact> 0.85476690E+01</totfact>
</mgrwt>
</event>
<event>
 4    1  0.3064919E-004  0.3210433E+03  0.7818608E-02  0.1075170E+00
         -1   -1    0    0    0  501 -0.00000000000E+00  0.00000000000E+00  0.11228516162E+03  0.11228516174E+03  0.50400000000E-02 0.  1.
          1   -1    0    0  501    0  0.00000000000E+00 -0.00000000000E+00 -0.22947997558E+03  0.22947997564E+03  0.50400000000E-02 0. -1.
    5000001    1    1    2    0    0  0.13439204000E+03  0.41918896253E+02 -0.53862644961E+02  0.16925896963E+03  0.77000000000E+02 0.  0.
   -5000001    1    1    2    0    0 -0.13439204000E+03 -0.41918896253E+02 -0.63332168998E+02  0.17250616774E+03  0.77000000000E+02 0.  0.
<mgrwt>
<rscale>  0 0.32104328E+03</rscale>
<asrwt>0</asrwt>
<pdfrwt beam="1">  1        1 0.35304612E-01 0.32104328E+03</pdfrwt>
<pdfrwt beam="2">  1       -1 0.17274640E-01 0.32104328E+03</pdfrwt>
<totfact> 0.31541360E+03</totfact>
</mgrwt>
</event>
<event>
 4    1  0.3064919E-004  0.1797519E+03  0.7818608E-02  0.1168043E+00
          1   -1    0    0  501    0  0.00000000000E+00  0.00000000000E+00  0.13501312858E+04  0.13501312858E+04  0.50400000000E-02 0. -1.
         -1   -1    0    0    0  501 -0.00000000000E+00 -0.00000000000E+00 -0.59828893362E+01  0.59828914591E+01  0.50400000000E-02 0.  1.
    5000001    1    1    2    0    0 -0.41632185953E+02 -0.52209706659E+01  0.52343103097E+03  0.53072548613E+03  0.77000000000E+02 0.  0.
   -5000001    1    1    2    0    0  0.41632185953E+02  0.52209706659E+01  0.82071736548E+03  0.82538869112E+03  0.77000000000E+02 0.  0.
<mgrwt>
<rscale>  0 0.17975191E+03</rscale>
<asrwt>0</asrwt>
<pdfrwt beam="1">  1        1 0.20771272E+00 0.17975191E+03</pdfrwt>
<pdfrwt beam="2">  1       -1 0.92044371E-03 0.17975191E+03</pdfrwt>
<totfact> 0.18721961E+04</totfact>
</mgrwt>
</event>
<event>
 4    1  0.3064919E-004  0.2081530E+03  0.7818608E-02  0.1143037E+00
         -1   -1    0    0    0  501 -0.00000000000E+00  0.00000000000E+00  0.13948577482E+03  0.13948577491E+03  0.50400000000E-02 0. -1.
          1   -1    0    0  501    0  0.00000000000E+00 -0.00000000000E+00 -0.77656055610E+02  0.77656055774E+02  0.50400000000E-02 0.  1.
    5000001    1    1    2    0    0  0.32589501347E+02 -0.61032110266E+02  0.42146469108E+02  0.11176904285E+03  0.77000000000E+02 0.  0.
   -5000001    1    1    2    0    0 -0.32589501347E+02  0.61032110266E+02  0.19683250103E+02  0.10537278783E+03  0.77000000000E+02 0.  0.
<mgrwt>
<rscale>  0 0.20815297E+03</rscale>
<asrwt>0</asrwt>
<pdfrwt beam="1">  1        1 0.11947085E-01 0.20815297E+03</pdfrwt>
<pdfrwt beam="2">  1       -1 0.21459350E-01 0.20815297E+03</pdfrwt>
<totfact> 0.88162278E+03</totfact>
</mgrwt>
</event>
<event>
 4    1  0.3064919E-004  0.1747329E+03  0.7818608E-02  0.1173000E+00
         -1   -1    0    0    0  501 -0.00000000000E+00  0.00000000000E+00  0.28617360160E+02  0.28617360604E+02  0.50400000000E-02 0.  1.
          1   -1    0    0  501    0  0.00000000000E+00 -0.00000000000E+00 -0.26672246663E+03  0.26672246668E+03  0.50400000000E-02 0. -1.
    5000001    1    1    2    0    0 -0.79725269176E+01  0.26548437722E+02 -0.67354740396E+02  0.10599076273E+03  0.77000000000E+02 0.  0.
   -5000001    1    1    2    0    0  0.79725269176E+01 -0.26548437722E+02 -0.17075036607E+03  0.18934906455E+03  0.77000000000E+02 0.  0.
<mgrwt>
<rscale>  0 0.17473286E+03</rscale>
<asrwt>0</asrwt>
<pdfrwt beam="1">  1        1 0.41034224E-01 0.17473286E+03</pdfrwt>
<pdfrwt beam="2">  1       -1 0.44026710E-02 0.17473286E+03</pdfrwt>
<totfact> 0.20683740E+04</totfact>
</mgrwt>
</event>
<event>
 4    1  0.3064919E-004  0.2284223E+03  0.7818608E-02  0.1127755E+00
         -1   -1    0    0    0  501 -0.00000000000E+00  0.00000000000E+00  0.26938849858E+03  0.26938849863E+03  0.50400000000E-02 0.  1.
          1   -1    0    0  501    0  0.00000000000E+00 -0.00000000000E+00 -0.48421478627E+02  0.48421478889E+02  0.50400000000E-02 0. -1.
    5000001    1    1    2    0    0  0.28567713353E+02  0.78598181861E+02  0.95153579624E+02  0.14824639002E+03  0.77000000000E+02 0.  0.
   -5000001    1    1    2    0    0 -0.28567713353E+02 -0.78598181861E+02  0.12581344033E+03  0.16956358750E+03  0.77000000000E+02 0.  0.
<mgrwt>
<rscale>  0 0.22842232E+03</rscale>
<asrwt>0</asrwt>
<pdfrwt beam="1">  1        1 0.74494583E-02 0.22842232E+03</pdfrwt>
<pdfrwt beam="2">  1       -1 0.41444385E-01 0.22842232E+03</pdfrwt>
<totfact> 0.54671103E+03</totfact>
</mgrwt>
</event>
<event>
 4    1  0.3064919E-004  0.2186606E+03  0.7818608E-02  0.1134886E+00
          1   -1    0    0  501    0  0.00000000000E+00  0.00000000000E+00  0.20828402636E+03  0.20828402643E+03  0.50400000000E-02 0.  1.
         -1   -1    0    0    0  501 -0.00000000000E+00 -0.00000000000E+00 -0.57388515856E+02  0.57388516077E+02  0.50400000000E-02 0. -1.
    5000001    1    1    2    0    0  0.55225459062E+02 -0.42415158880E+02  0.11709964438E+03  0.15649352621E+03  0.77000000000E+02 0.  0.
   -5000001    1    1    2    0    0 -0.55225459062E+02  0.42415158880E+02  0.33795866129E+02  0.10917901629E+03  0.77000000000E+02 0.  0.
<mgrwt>
<rscale>  0 0.21866057E+03</rscale>
<asrwt>0</asrwt>
<pdfrwt beam="1">  1        1 0.32043697E-01 0.21866057E+03</pdfrwt>
<pdfrwt beam="2">  1       -1 0.88290023E-02 0.21866057E+03</pdfrwt>
<totfact> 0.10052892E+04</totfact>
</mgrwt>
</event>
<event>
 4    1  0.3064919E-004  0.1807306E+03  0.7818608E-02  0.1167098E+00
          1   -1    0    0  501    0  0.00000000000E+00  0.00000000000E+00  0.25943837757E+02  0.25943838246E+02  0.50400000000E-02 0.  1.
         -1   -1    0    0    0  501 -0.00000000000E+00 -0.00000000000E+00 -0.31475243113E+03  0.31475243117E+03  0.50400000000E-02 0. -1.
    5000001    1    1    2    0    0 -0.26930528038E+01  0.46838361591E+02 -0.13312489629E+03  0.16078657488E+03  0.77000000000E+02 0.  0.
   -5000001    1    1    2    0    0  0.26930528038E+01 -0.46838361591E+02 -0.15568369708E+03  0.17990969453E+03  0.77000000000E+02 0.  0.
<mgrwt>
<rscale>  0 0.18073059E+03</rscale>
<asrwt>0</asrwt>
<pdfrwt beam="1">  1        1 0.39913599E-02 0.18073059E+03</pdfrwt>
<pdfrwt beam="2">  1       -1 0.48423448E-01 0.18073059E+03</pdfrwt>
<totfact> 0.95950821E+03</totfact>
</mgrwt>
</event>
<event>
 4    1  0.3064919E-004  0.2149265E+03  0.7818608E-02  0.1137723E+00
          1   -1    0    0  501    0  0.00000000000E+00  0.00000000000E+00  0.16705683823E+03  0.16705683831E+03  0.50400000000E-02 0. -1.
         -1   -1    0    0    0  501 -0.00000000000E+00 -0.00000000000E+00 -0.69128262533E+02  0.69128262717E+02  0.50400000000E-02 0.  1.
    5000001    1    1    2    0    0  0.58258049214E+02  0.77497417879E+01 -0.21709885855E+01  0.96890515467E+02  0.77000000000E+02 0.  0.
   -5000001    1    1    2    0    0 -0.58258049214E+02 -0.77497417879E+01  0.10009956429E+03  0.13929458556E+03  0.77000000000E+02 0.  0.
<mgrwt>
<rscale>  0 0.21492649E+03</rscale>
<asrwt>0</asrwt>
<pdfrwt beam="1">  1        1 0.25701052E-01 0.21492649E+03</pdfrwt>
<pdfrwt beam="2">  1       -1 0.10635117E-01 0.21492649E+03</pdfrwt>
<totfact> 0.99592828E+03</totfact>
</mgrwt>
</event>
<event>
 4    1  0.3064919E-004  0.1909256E+03  0.7818608E-02  0.1157629E+00
         -1   -1    0    0    0  501 -0.00000000000E+00  0.00000000000E+00  0.23088244987E+03  0.23088244993E+03  0.50400000000E-02 0. -1.
          1   -1    0    0  501    0  0.00000000000E+00 -0.00000000000E+00 -0.39470926243E+02  0.39470926565E+02  0.50400000000E-02 0.  1.
    5000001    1    1    2    0    0  0.18292470175E+02 -0.40746868139E+02  0.14453716846E+03  0.16974956493E+03  0.77000000000E+02 0.  0.
   -5000001    1    1    2    0    0 -0.18292470175E+02  0.40746868139E+02  0.46874355174E+02  0.10060381156E+03  0.77000000000E+02 0.  0.
<mgrwt>
<rscale>  0 0.19092558E+03</rscale>
<asrwt>0</asrwt>
<pdfrwt beam="1">  1        1 0.60724502E-02 0.19092558E+03</pdfrwt>
<pdfrwt beam="2">  1       -1 0.35520377E-01 0.19092558E+03</pdfrwt>
<totfact> 0.93730470E+03</totfact>
</mgrwt>
</event>
<event>
 4    1  0.3064919E-004  0.2816699E+03  0.7818608E-02  0.1094780E+00
         -1   -1    0    0    0  501 -0.00000000000E+00  0.00000000000E+00  0.12938271549E+02  0.12938272531E+02  0.50400000000E-02 0.  1.
          1   -1    0    0  501    0  0.00000000000E+00 -0.00000000000E+00 -0.15330083504E+04  0.15330083504E+04  0.50400000000E-02 0. -1.
    5000001    1    1    2    0    0 -0.68033425090E+02 -0.95275248862E+02 -0.68250145114E+03  0.69673750493E+03  0.77000000000E+02 0.  0.
   -5000001    1    1    2    0    0  0.68033425090E+02  0.95275248862E+02 -0.83756862771E+03  0.84920911800E+03  0.77000000000E+02 0.  0.
<mgrwt>
<rscale>  0 0.28166987E+03</rscale>
<asrwt>0</asrwt>
<pdfrwt beam="1">  1        1 0.23584730E+00 0.28166987E+03</pdfrwt>
<pdfrwt beam="2">  1       -1 0.19905046E-02 0.28166987E+03</pdfrwt>
<totfact> 0.46999196E+03</totfact>
</mgrwt>
</event>
<event>
 4    1  0.3064919E-004  0.1985977E+03  0.7818608E-02  0.1150928E+00
         -1   -1    0    0    0  501 -0.00000000000E+00  0.00000000000E+00  0.10586447998E+03  0.10586448010E+03  0.50400000000E-02 0. -1.
          1   -1    0    0  501    0  0.00000000000E+00 -0.00000000000E+00 -0.93140385856E+02  0.93140385993E+02  0.50400000000E-02 0.  1.
    5000001    1    1    2    0    0 -0.26048496260E+01 -0.53013225350E+02  0.39808189092E+02  0.10164093281E+03  0.77000000000E+02 0.  0.
   -5000001    1    1    2    0    0  0.26048496260E+01  0.53013225350E+02 -0.27084094971E+02  0.97363933281E+02  0.77000000000E+02 0.  0.
<mgrwt>
<rscale>  0 0.19859767E+03</rscale>
<asrwt>0</asrwt>
<pdfrwt beam="1">  1        1 0.14329290E-01 0.19859767E+03</pdfrwt>
<pdfrwt beam="2">  1       -1 0.16286843E-01 0.19859767E+03</pdfrwt>
<totfact> 0.10781876E+04</totfact>
</mgrwt>
</event>
<event>
 4    1  0.3064919E-004  0.2367757E+03  0.7818608E-02  0.1121960E+00
          1   -1    0    0  501    0  0.00000000000E+00  0.00000000000E+00  0.15803316780E+04  0.15803316780E+04  0.50400000000E-02 0. -1.
         -1   -1    0    0    0  501 -0.00000000000E+00 -0.00000000000E+00 -0.88688206850E+01  0.88688221171E+01  0.50400000000E-02 0.  1.
    5000001    1    1    2    0    0 -0.37499297303E+02 -0.58583333626E+02  0.40318742955E+03  0.41632596319E+03  0.77000000000E+02 0.  0.
   -5000001    1    1    2    0    0  0.37499297303E+02  0.58583333626E+02  0.11682754278E+04  0.11728745369E+04  0.77000000000E+02 0.  0.
<mgrwt>
<rscale>  0 0.23677567E+03</rscale>
<asrwt>0</asrwt>
<pdfrwt beam="1">  1        1 0.24312797E+00 0.23677567E+03</pdfrwt>
<pdfrwt beam="2">  1       -1 0.13644340E-02 0.23677567E+03</pdfrwt>
<totfact> 0.75625840E+03</totfact>
</mgrwt>
</event>
<event>
 4    1  0.3064919E-004  0.1882359E+03  0.7818608E-02  0.1160062E+00
         -1   -1    0    0    0  501 -0.00000000000E+00  0.00000000000E+00  0.39288934434E+03  0.39288934437E+03  0.50400000000E-02 0.  1.
          1   -1    0    0  501    0  0.00000000000E+00 -0.00000000000E+00 -0.22546263423E+02  0.22546263986E+02  0.50400000000E-02 0. -1.
    5000001    1    1    2    0    0  0.41130273426E+00 -0.54119837144E+02  0.18571588948E+03  0.20820306806E+03  0.77000000000E+02 0.  0.
   -5000001    1    1    2    0    0 -0.41130273426E+00  0.54119837144E+02  0.18462719143E+03  0.20723254030E+03  0.77000000000E+02 0.  0.
<mgrwt>
<rscale>  0 0.18823588E+03</rscale>
<asrwt>0</asrwt>
<pdfrwt beam="1">  1        1 0.34686560E-02 0.18823588E+03</pdfrwt>
<pdfrwt beam="2">  1       -1 0.60444513E-01 0.18823588E+03</pdfrwt>
<totfact> 0.77275949E+03</totfact>
</mgrwt>
</event>
<event>
 4    1  0.3064919E-004  0.1893956E+03  0.7818608E-02  0.1159008E+00
          1   -1    0    0  501    0  0.00000000000E+00  0.00000000000E+00  0.12842396645E+04  0.12842396645E+04  0.50400000000E-02 0. -1.
         -1   -1    0    0    0  501 -0.00000000000E+00 -0.00000000000E+00 -0.69828683654E+01  0.69828701843E+01  0.50400000000E-02 0.  1.
    5000001    1    1    2    0    0  0.92368313699E+01  0.54175463859E+02  0.66785494455E+03  0.67452170232E+03  0.77000000000E+02 0.  0.
   -5000001    1    1    2    0    0 -0.92368313699E+01 -0.54175463859E+02  0.60940185153E+03  0.61670083233E+03  0.77000000000E+02 0.  0.
<mgrwt>
<rscale>  0 0.18939565E+03</rscale>
<asrwt>0</asrwt>
<pdfrwt beam="1">  1        1 0.19757541E+00 0.18939565E+03</pdfrwt>
<pdfrwt beam="2">  1       -1 0.10742872E-02 0.18939565E+03</pdfrwt>
<totfact> 0.16658609E+04</totfact>
</mgrwt>
</event>
<event>
 4    1  0.3064919E-004  0.2642155E+03  0.7818608E-02  0.1104637E+00
          1   -1    0    0  501    0  0.00000000000E+00  0.00000000000E+00  0.43264233274E+03  0.43264233277E+03  0.50400000000E-02 0. -1.
         -1   -1    0    0    0  501 -0.00000000000E+00 -0.00000000000E+00 -0.40339218738E+02  0.40339219053E+02  0.50400000000E-02 0.  1.
    5000001    1    1    2    0    0 -0.58598123612E+02 -0.14490393453E+01  0.35714054297E+03  0.37001919848E+03  0.77000000000E+02 0.  0.
   -5000001    1    1    2    0    0  0.58598123612E+02  0.14490393453E+01  0.35162571034E+02  0.10296235335E+03  0.77000000000E+02 0.  0.
<mgrwt>
<rscale>  0 0.26421547E+03</rscale>
<asrwt>0</asrwt>
<pdfrwt beam="1">  1        1 0.66560365E-01 0.26421547E+03</pdfrwt>
<pdfrwt beam="2">  1       -1 0.62060331E-02 0.26421547E+03</pdfrwt>
<totfact> 0.68910805E+03</totfact>
</mgrwt>
</event>
<event>
 4    1  0.3064919E-004  0.1947754E+03  0.7818608E-02  0.1154223E+00
          1   -1    0    0  501    0  0.00000000000E+00  0.00000000000E+00  0.33345854573E+04  0.33345854573E+04  0.50400000000E-02 0. -1.
         -1   -1    0    0    0  501 -0.00000000000E+00 -0.00000000000E+00 -0.28442389435E+01  0.28442434089E+01  0.50400000000E-02 0.  1.
    5000001    1    1    2    0    0 -0.39604951376E+02 -0.44216244718E+02  0.15693412106E+04  0.15723499813E+04  0.77000000000E+02 0.  0.
   -5000001    1    1    2    0    0  0.39604951376E+02  0.44216244718E+02  0.17624000078E+04  0.17650797195E+04  0.77000000000E+02 0.  0.
<mgrwt>
<rscale>  0 0.19477541E+03</rscale>
<asrwt>0</asrwt>
<pdfrwt beam="1">  1        1 0.51301105E+00 0.19477541E+03</pdfrwt>
<pdfrwt beam="2">  1       -1 0.43757736E-03 0.19477541E+03</pdfrwt>
<totfact> 0.25904453E+03</totfact>
</mgrwt>
</event>
<event>
 4    1  0.3064919E-004  0.2358814E+03  0.7818608E-02  0.1122567E+00
         -1   -1    0    0    0  501 -0.00000000000E+00  0.00000000000E+00  0.14606163030E+02  0.14606163900E+02  0.50400000000E-02 0. -1.
          1   -1    0    0  501    0  0.00000000000E+00 -0.00000000000E+00 -0.95233815140E+03  0.95233815141E+03  0.50400000000E-02 0.  1.
    5000001    1    1    2    0    0  0.35448132072E+02 -0.75024296878E+02 -0.60456347017E+03  0.61507008109E+03  0.77000000000E+02 0.  0.
   -5000001    1    1    2    0    0 -0.35448132072E+02  0.75024296878E+02 -0.33316851820E+03  0.35187423422E+03  0.77000000000E+02 0.  0.
<mgrwt>
<rscale>  0 0.23588138E+03</rscale>
<asrwt>0</asrwt>
<pdfrwt beam="1">  1        1 0.14651351E+00 0.23588138E+03</pdfrwt>
<pdfrwt beam="2">  1       -1 0.22471028E-02 0.23588138E+03</pdfrwt>
<totfact> 0.99670824E+03</totfact>
</mgrwt>
</event>
<event>
 4    1  0.3064919E-004  0.1548907E+03  0.7818608E-02  0.1194589E+00
          1   -1    0    0  501    0  0.00000000000E+00  0.00000000000E+00  0.57070879583E+03  0.57070879585E+03  0.50400000000E-02 0.  1.
         -1   -1    0    0    0  501 -0.00000000000E+00 -0.00000000000E+00 -0.10509353211E+02  0.10509354419E+02  0.50400000000E-02 0. -1.
    5000001    1    1    2    0    0 -0.81862818120E+01 -0.67174302116E+00  0.28440150665E+03  0.29475529415E+03  0.77000000000E+02 0.  0.
   -5000001    1    1    2    0    0  0.81862818120E+01  0.67174302116E+00  0.27579793597E+03  0.28646285612E+03  0.77000000000E+02 0.  0.
<mgrwt>
<rscale>  0 0.15489068E+03</rscale>
<asrwt>0</asrwt>
<pdfrwt beam="1">  1        1 0.87801401E-01 0.15489068E+03</pdfrwt>
<pdfrwt beam="2">  1       -1 0.16168228E-02 0.15489068E+03</pdfrwt>
<totfact> 0.33439896E+04</totfact>
</mgrwt>
</event>
<event>
 4    1  0.3064919E-004  0.2650486E+03  0.7818608E-02  0.1104147E+00
         -1   -1    0    0    0  501 -0.00000000000E+00  0.00000000000E+00  0.61809673577E+01  0.61809694125E+01  0.50400000000E-02 0. -1.
          1   -1    0    0  501    0  0.00000000000E+00 -0.00000000000E+00 -0.28414131420E+04  0.28414131420E+04  0.50400000000E-02 0.  1.
    5000001    1    1    2    0    0  0.79977433260E+02  0.69539954955E+02 -0.12023429640E+04  0.12094584731E+04  0.77000000000E+02 0.  0.
   -5000001    1    1    2    0    0 -0.79977433260E+02 -0.69539954955E+02 -0.16328892107E+04  0.16381356383E+04  0.77000000000E+02 0.  0.
<mgrwt>
<rscale>  0 0.26504856E+03</rscale>
<asrwt>0</asrwt>
<pdfrwt beam="1">  1        1 0.43713944E+00 0.26504856E+03</pdfrwt>
<pdfrwt beam="2">  1       -1 0.95092048E-03 0.26504856E+03</pdfrwt>
<totfact> 0.18879075E+03</totfact>
</mgrwt>
</event>
<event>
 4    1  0.3064919E-004  0.2281744E+03  0.7818608E-02  0.1127931E+00
          1   -1    0    0  501    0  0.00000000000E+00  0.00000000000E+00  0.17928066344E+03  0.17928066351E+03  0.50400000000E-02 0.  1.
         -1   -1    0    0    0  501 -0.00000000000E+00 -0.00000000000E+00 -0.72600645810E+02  0.72600645985E+02  0.50400000000E-02 0. -1.
    5000001    1    1    2    0    0 -0.65839829690E+02 -0.15694409487E+02 -0.19177189968E+01  0.10253718988E+03  0.77000000000E+02 0.  0.
   -5000001    1    1    2    0    0  0.65839829690E+02  0.15694409487E+02  0.10859773663E+03  0.14934411961E+03  0.77000000000E+02 0.  0.
<mgrwt>
<rscale>  0 0.22817442E+03</rscale>
<asrwt>0</asrwt>
<pdfrwt beam="1">  1        1 0.27581640E-01 0.22817442E+03</pdfrwt>
<pdfrwt beam="2">  1       -1 0.11169330E-01 0.22817442E+03</pdfrwt>
<totfact> 0.84718623E+03</totfact>
</mgrwt>
</event>
<event>
 4    1  0.3064919E-004  0.5468842E+03  0.7818608E-02  0.1002218E+00
         -1   -1    0    0    0  501 -0.00000000000E+00  0.00000000000E+00  0.82421321763E+02  0.82421321917E+02  0.50400000000E-02 0. -1.
          1   -1    0    0  501    0  0.00000000000E+00 -0.00000000000E+00 -0.90717511614E+03  0.90717511616E+03  0.50400000000E-02 0.  1.
    5000001    1    1    2    0    0 -0.23902597649E+03 -0.96494013601E+02 -0.50097047478E+03  0.56863426620E+03  0.77000000000E+02 0.  0.
   -5000001    1    1    2    0    0  0.23902597649E+03  0.96494013601E+02 -0.32378331960E+03  0.42096217187E+03  0.77000000000E+02 0.  0.
<mgrwt>
<rscale>  0 0.54688416E+03</rscale>
<asrwt>0</asrwt>
<pdfrwt beam="1">  1        1 0.13956540E+00 0.54688416E+03</pdfrwt>
<pdfrwt beam="2">  1       -1 0.12680204E-01 0.54688416E+03</pdfrwt>
<totfact> 0.78509091E+02</totfact>
</mgrwt>
</event>
<event>
 4    1  0.3064919E-004  0.1728167E+03  0.7818608E-02  0.1174942E+00
          1   -1    0    0  501    0  0.00000000000E+00  0.00000000000E+00  0.14670596066E+04  0.14670596066E+04  0.50400000000E-02 0.  1.
         -1   -1    0    0    0  501 -0.00000000000E+00 -0.00000000000E+00 -0.50893621164E+01  0.50893646120E+01  0.50400000000E-02 0. -1.
    5000001    1    1    2    0    0 -0.33579565852E+02  0.17583804868E+02  0.64553501582E+03  0.65121519798E+03  0.77000000000E+02 0.  0.
   -5000001    1    1    2    0    0  0.33579565852E+02 -0.17583804868E+02  0.81643522866E+03  0.82093377323E+03  0.77000000000E+02 0.  0.
<mgrwt>
<rscale>  0 0.17281666E+03</rscale>
<asrwt>0</asrwt>
<pdfrwt beam="1">  1        1 0.22570158E+00 0.17281666E+03</pdfrwt>
<pdfrwt beam="2">  1       -1 0.78297862E-03 0.17281666E+03</pdfrwt>
<totfact> 0.19700067E+04</totfact>
</mgrwt>
</event>
<event>
 4    1  0.3064919E-004  0.2548150E+03  0.7818608E-02  0.1110299E+00
         -1   -1    0    0    0  501 -0.00000000000E+00  0.00000000000E+00  0.27682435523E+02  0.27682435982E+02  0.50400000000E-02 0. -1.
          1   -1    0    0  501    0  0.00000000000E+00 -0.00000000000E+00 -0.58638887831E+03  0.58638887833E+03  0.50400000000E-02 0.  1.
    5000001    1    1    2    0    0  0.10467405615E+02 -0.63000932752E+02 -0.89217781679E+02  0.13404289118E+03  0.77000000000E+02 0.  0.
   -5000001    1    1    2    0    0 -0.10467405615E+02  0.63000932752E+02 -0.46948866110E+03  0.48002842313E+03  0.77000000000E+02 0.  0.
<mgrwt>
<rscale>  0 0.25481501E+03</rscale>
<asrwt>0</asrwt>
<pdfrwt beam="1">  1        1 0.90213664E-01 0.25481501E+03</pdfrwt>
<pdfrwt beam="2">  1       -1 0.42588367E-02 0.25481501E+03</pdfrwt>
<totfact> 0.80712214E+03</totfact>
</mgrwt>
</event>
<event>
 4    1  0.3064919E-004  0.2367116E+03  0.7818608E-02  0.1122003E+00
         -1   -1    0    0    0  501 -0.00000000000E+00  0.00000000000E+00  0.80953899978E+02  0.80953900135E+02  0.50400000000E-02 0. -1.
          1   -1    0    0  501    0  0.00000000000E+00 -0.00000000000E+00 -0.17303792368E+03  0.17303792375E+03  0.50400000000E-02 0.  1.
    5000001    1    1    2    0    0 -0.51101426654E+02  0.71702420828E+02 -0.65430458651E+02  0.13402513898E+03  0.77000000000E+02 0.  0.
   -5000001    1    1    2    0    0  0.51101426654E+02 -0.71702420828E+02 -0.26653565050E+02  0.11996668491E+03  0.77000000000E+02 0.  0.
<mgrwt>
<rscale>  0 0.23671159E+03</rscale>
<asrwt>0</asrwt>
<pdfrwt beam="1">  1        1 0.26621219E-01 0.23671159E+03</pdfrwt>
<pdfrwt beam="2">  1       -1 0.12454446E-01 0.23671159E+03</pdfrwt>
<totfact> 0.74923550E+03</totfact>
</mgrwt>
</event>
<event>
 4    1  0.3064919E-004  0.5418766E+03  0.7818608E-02  0.1003392E+00
          1   -1    0    0  501    0  0.00000000000E+00  0.00000000000E+00  0.30914534885E+03  0.30914534889E+03  0.50400000000E-02 0.  1.
         -1   -1    0    0    0  501 -0.00000000000E+00 -0.00000000000E+00 -0.23745324185E+03  0.23745324191E+03  0.50400000000E-02 0. -1.
    5000001    1    1    2    0    0 -0.16978643618E+03 -0.12023043056E+03 -0.12105933925E+03  0.25271951639E+03  0.77000000000E+02 0.  0.
   -5000001    1    1    2    0    0  0.16978643618E+03  0.12023043056E+03  0.19275144625E+03  0.29387907441E+03  0.77000000000E+02 0.  0.
<mgrwt>
<rscale>  0 0.54187661E+03</rscale>
<asrwt>0</asrwt>
<pdfrwt beam="1">  1        1 0.47560823E-01 0.54187661E+03</pdfrwt>
<pdfrwt beam="2">  1       -1 0.36531268E-01 0.54187661E+03</pdfrwt>
<totfact> 0.61108547E+02</totfact>
</mgrwt>
</event>
<event>
 4    1  0.3064919E-004  0.2241052E+03  0.7818608E-02  0.1130859E+00
          1   -1    0    0  501    0  0.00000000000E+00  0.00000000000E+00  0.63027198007E+03  0.63027198009E+03  0.50400000000E-02 0. -1.
         -1   -1    0    0    0  501 -0.00000000000E+00 -0.00000000000E+00 -0.19921225964E+02  0.19921226602E+02  0.50400000000E-02 0.  1.
    5000001    1    1    2    0    0 -0.61167060698E+02  0.33178692777E+01  0.46072249656E+03  0.47111212721E+03  0.77000000000E+02 0.  0.
   -5000001    1    1    2    0    0  0.61167060698E+02 -0.33178692777E+01  0.14962825755E+03  0.17908107948E+03  0.77000000000E+02 0.  0.
<mgrwt>
<rscale>  0 0.22410525E+03</rscale>
<asrwt>0</asrwt>
<pdfrwt beam="1">  1        1 0.96964900E-01 0.22410525E+03</pdfrwt>
<pdfrwt beam="2">  1       -1 0.30648047E-02 0.22410525E+03</pdfrwt>
<totfact> 0.11812849E+04</totfact>
</mgrwt>
</event>
<event>
 4    1  0.3064919E-004  0.2864293E+03  0.7818608E-02  0.1092228E+00
         -1   -1    0    0    0  501 -0.00000000000E+00  0.00000000000E+00  0.20348403481E+02  0.20348404105E+02  0.50400000000E-02 0.  1.
          1   -1    0    0  501    0  0.00000000000E+00 -0.00000000000E+00 -0.10079625500E+04  0.10079625500E+04  0.50400000000E-02 0. -1.
    5000001    1    1    2    0    0 -0.48714333775E+02  0.98345283113E+02 -0.31299449716E+03  0.34049880511E+03  0.77000000000E+02 0.  0.
   -5000001    1    1    2    0    0  0.48714333775E+02 -0.98345283113E+02 -0.67461964933E+03  0.68781214898E+03  0.77000000000E+02 0.  0.
<mgrwt>
<rscale>  0 0.28642925E+03</rscale>
<asrwt>0</asrwt>
<pdfrwt beam="1">  1        1 0.15507112E+00 0.28642925E+03</pdfrwt>
<pdfrwt beam="2">  1       -1 0.31305244E-02 0.28642925E+03</pdfrwt>
<totfact> 0.55881803E+03</totfact>
</mgrwt>
</event>
<event>
 4    1  0.3064919E-004  0.2659340E+03  0.7818608E-02  0.1103629E+00
         -1   -1    0    0    0  501 -0.00000000000E+00  0.00000000000E+00  0.13673628393E+03  0.13673628402E+03  0.50400000000E-02 0. -1.
          1   -1    0    0  501    0  0.00000000000E+00 -0.00000000000E+00 -0.12930159849E+03  0.12930159858E+03  0.50400000000E-02 0.  1.
    5000001    1    1    2    0    0 -0.42556681488E+02  0.91879807020E+02  0.42439701174E+02  0.13410107499E+03  0.77000000000E+02 0.  0.
   -5000001    1    1    2    0    0  0.42556681488E+02 -0.91879807020E+02 -0.35005015732E+02  0.13193680762E+03  0.77000000000E+02 0.  0.
<mgrwt>
<rscale>  0 0.26593398E+03</rscale>
<asrwt>0</asrwt>
<pdfrwt beam="1">  1        1 0.19892554E-01 0.26593398E+03</pdfrwt>
<pdfrwt beam="2">  1       -1 0.21036351E-01 0.26593398E+03</pdfrwt>
<totfact> 0.47323573E+03</totfact>
</mgrwt>
</event>
<event>
 4    1  0.3064919E-004  0.2466247E+03  0.7818608E-02  0.1115457E+00
         -1   -1    0    0    0  501 -0.00000000000E+00  0.00000000000E+00  0.35713341134E+02  0.35713341490E+02  0.50400000000E-02 0. -1.
          1   -1    0    0  501    0  0.00000000000E+00 -0.00000000000E+00 -0.42577737380E+03  0.42577737383E+03  0.50400000000E-02 0.  1.
    5000001    1    1    2    0    0  0.61656090248E+02 -0.73849889495E+02 -0.20373936460E+03  0.23810503634E+03  0.77000000000E+02 0.  0.
   -5000001    1    1    2    0    0 -0.61656090248E+02  0.73849889495E+02 -0.18632466807E+03  0.22338567898E+03  0.77000000000E+02 0.  0.
<mgrwt>
<rscale>  0 0.24662468E+03</rscale>
<asrwt>0</asrwt>
<pdfrwt beam="1">  1        1 0.65504208E-01 0.24662468E+03</pdfrwt>
<pdfrwt beam="2">  1       -1 0.54943605E-02 0.24662468E+03</pdfrwt>
<totfact> 0.84277513E+03</totfact>
</mgrwt>
</event>
<event>
 4    1  0.3064919E-004  0.2782447E+03  0.7818608E-02  0.1096652E+00
         -1   -1    0    0    0  501 -0.00000000000E+00  0.00000000000E+00  0.16364885841E+02  0.16364886618E+02  0.50400000000E-02 0. -1.
          1   -1    0    0  501    0  0.00000000000E+00 -0.00000000000E+00 -0.11827167341E+04  0.11827167341E+04  0.50400000000E-02 0.  1.
    5000001    1    1    2    0    0 -0.10205973715E+03 -0.37985106695E+02 -0.41258664079E+03  0.43360788097E+03  0.77000000000E+02 0.  0.
   -5000001    1    1    2    0    0  0.10205973715E+03  0.37985106695E+02 -0.75376520750E+03  0.76547373980E+03  0.77000000000E+02 0.  0.
<mgrwt>
<rscale>  0 0.27824468E+03</rscale>
<asrwt>0</asrwt>
<pdfrwt beam="1">  1        1 0.18195635E+00 0.27824468E+03</pdfrwt>
<pdfrwt beam="2">  1       -1 0.25176757E-02 0.27824468E+03</pdfrwt>
<totfact> 0.57559107E+03</totfact>
</mgrwt>
</event>
<event>
 4    1  0.3064919E-004  0.3033900E+03  0.7818608E-02  0.1083558E+00
          1   -1    0    0  501    0  0.00000000000E+00  0.00000000000E+00  0.20202826104E+04  0.20202826104E+04  0.50400000000E-02 0.  1.
         -1   -1    0    0    0  501 -0.00000000000E+00 -0.00000000000E+00 -0.11390177015E+02  0.11390178130E+02  0.50400000000E-02 0. -1.
    5000001    1    1    2    0    0 -0.68590928114E+01 -0.11731006415E+03  0.62129471700E+03  0.63698102302E+03  0.77000000000E+02 0.  0.
   -5000001    1    1    2    0    0  0.68590928114E+01  0.11731006415E+03  0.13875977163E+04  0.13946917655E+04  0.77000000000E+02 0.  0.
<mgrwt>
<rscale>  0 0.30339003E+03</rscale>
<asrwt>0</asrwt>
<pdfrwt beam="1">  1        1 0.31081271E+00 0.30339003E+03</pdfrwt>
<pdfrwt beam="2">  1       -1 0.17523350E-02 0.30339003E+03</pdfrwt>
<totfact> 0.27205965E+03</totfact>
</mgrwt>
</event>
<event>
 4    1  0.3064919E-004  0.2212736E+03  0.7818608E-02  0.1132937E+00
          1   -1    0    0  501    0  0.00000000000E+00  0.00000000000E+00  0.21198148298E+02  0.21198148898E+02  0.50400000000E-02 0.  1.
         -1   -1    0    0    0  501 -0.00000000000E+00 -0.00000000000E+00 -0.57743277435E+03  0.57743277438E+03  0.50400000000E-02 0. -1.
    5000001    1    1    2    0    0 -0.46107346695E+02 -0.44489848837E+02 -0.15104264982E+03  0.18124049253E+03  0.77000000000E+02 0.  0.
   -5000001    1    1    2    0    0  0.46107346695E+02  0.44489848837E+02 -0.40519197624E+03  0.41739043074E+03  0.77000000000E+02 0.  0.
<mgrwt>
<rscale>  0 0.22127364E+03</rscale>
<asrwt>0</asrwt>
<pdfrwt beam="1">  1        1 0.32612541E-02 0.22127364E+03</pdfrwt>
<pdfrwt beam="2">  1       -1 0.88835800E-01 0.22127364E+03</pdfrwt>
<totfact> 0.39089224E+03</totfact>
</mgrwt>
</event>
<event>
 4    1  0.3064919E-004  0.3051692E+03  0.7818608E-02  0.1082685E+00
         -1   -1    0    0    0  501 -0.00000000000E+00  0.00000000000E+00  0.83943935221E+01  0.83943950351E+01  0.50400000000E-02 0. -1.
          1   -1    0    0  501    0  0.00000000000E+00 -0.00000000000E+00 -0.27735245293E+04  0.27735245293E+04  0.50400000000E-02 0.  1.
    5000001    1    1    2    0    0  0.99461589500E+02 -0.79775995868E+02 -0.10807389375E+04  0.10909548425E+04  0.77000000000E+02 0.  0.
   -5000001    1    1    2    0    0 -0.99461589500E+02  0.79775995868E+02 -0.16843911983E+04  0.16909640819E+04  0.77000000000E+02 0.  0.
<mgrwt>
<rscale>  0 0.30516919E+03</rscale>
<asrwt>0</asrwt>
<pdfrwt beam="1">  1        1 0.42669535E+00 0.30516919E+03</pdfrwt>
<pdfrwt beam="2">  1       -1 0.12914475E-02 0.30516919E+03</pdfrwt>
<totfact> 0.13428091E+03</totfact>
</mgrwt>
</event>
<event>
 4    1  0.3064919E-004  0.4792502E+03  0.7818608E-02  0.1019341E+00
         -1   -1    0    0    0  501 -0.00000000000E+00  0.00000000000E+00  0.33760319828E+03  0.33760319831E+03  0.50400000000E-02 0. -1.
          1   -1    0    0  501    0  0.00000000000E+00 -0.00000000000E+00 -0.17008187354E+03  0.17008187362E+03  0.50400000000E-02 0.  1.
    5000001    1    1    2    0    0  0.20995418497E+03 -0.45282386703E+02  0.62053284634E+01  0.22825152888E+03  0.77000000000E+02 0.  0.
   -5000001    1    1    2    0    0 -0.20995418497E+03  0.45282386703E+02  0.16131599627E+03  0.27943354306E+03  0.77000000000E+02 0.  0.
<mgrwt>
<rscale>  0 0.47925018E+03</rscale>
<asrwt>0</asrwt>
<pdfrwt beam="1">  1        1 0.26166442E-01 0.47925018E+03</pdfrwt>
<pdfrwt beam="2">  1       -1 0.51938953E-01 0.47925018E+03</pdfrwt>
<totfact> 0.69165060E+02</totfact>
</mgrwt>
</event>
