<event>
 4    1  0.1305170E-003  0.2021650E+03  0.7818608E-02  0.1147925E+00
         -2   -1    0    0    0  501 -0.00000000000E+00  0.00000000000E+00  0.19340953868E+03  0.19340953870E+03  0.25500000000E-02 0. -1.
          2   -1    0    0  501    0  0.00000000000E+00 -0.00000000000E+00 -0.52829211315E+02  0.52829211376E+02  0.25500000000E-02 0.  1.
    5000001    1    1    2    0    0  0.34324382033E+02 -0.52821701670E+02  0.48488895515E+02  0.11067279863E+03  0.77000000000E+02 0.  0.
   -5000001    1    1    2    0    0 -0.34324382033E+02  0.52821701670E+02  0.92091431850E+02  0.13556595144E+03  0.77000000000E+02 0.  0.
<mgrwt>
<rscale>  0 0.20216502E+03</rscale>
<asrwt>0</asrwt>
<pdfrwt beam="1">  1        2 0.75470303E-02 0.20216502E+03</pdfrwt>
<pdfrwt beam="2">  1       -2 0.27629934E-01 0.20216502E+03</pdfrwt>
<totfact> 0.10547660E+04</totfact>
</mgrwt>
</event>
<event>
 4    1  0.1305170E-003  0.2560350E+03  0.7818608E-02  0.1109549E+00
         -2   -1    0    0    0  501 -0.00000000000E+00  0.00000000000E+00  0.16536700390E+02  0.16536700587E+02  0.25500000000E-02 0. -1.
          2   -1    0    0  501    0  0.00000000000E+00 -0.00000000000E+00 -0.99103699117E+03  0.99103699118E+03  0.25500000000E-02 0.  1.
    5000001    1    1    2    0    0 -0.81002970904E+01 -0.73077436229E+02 -0.76700393373E+03  0.77435777317E+03  0.77000000000E+02 0.  0.
   -5000001    1    1    2    0    0  0.81002970904E+01  0.73077436229E+02 -0.20749635705E+03  0.23321591860E+03  0.77000000000E+02 0.  0.
<mgrwt>
<rscale>  0 0.25603501E+03</rscale>
<asrwt>0</asrwt>
<pdfrwt beam="1">  1        2 0.14157668E+00 0.25603501E+03</pdfrwt>
<pdfrwt beam="2">  1       -2 0.23623864E-02 0.25603501E+03</pdfrwt>
<totfact> 0.17696631E+04</totfact>
</mgrwt>
</event>
<event>
 4    1  0.1305170E-003  0.2284250E+03  0.7818608E-02  0.1127753E+00
         -2   -1    0    0    0  501 -0.00000000000E+00  0.00000000000E+00  0.13340912164E+02  0.13340912407E+02  0.25500000000E-02 0. -1.
          2   -1    0    0  501    0  0.00000000000E+00 -0.00000000000E+00 -0.97778147927E+03  0.97778147927E+03  0.25500000000E-02 0.  1.
    5000001    1    1    2    0    0 -0.65675985841E+02 -0.52926773939E+02 -0.48637851147E+03  0.49960748086E+03  0.77000000000E+02 0.  0.
   -5000001    1    1    2    0    0  0.65675985841E+02  0.52926773939E+02 -0.47806205564E+03  0.49151491082E+03  0.77000000000E+02 0.  0.
<mgrwt>
<rscale>  0 0.22842502E+03</rscale>
<asrwt>0</asrwt>
<pdfrwt beam="1">  1        2 0.13968302E+00 0.22842502E+03</pdfrwt>
<pdfrwt beam="2">  1       -2 0.19058452E-02 0.22842502E+03</pdfrwt>
<totfact> 0.24561795E+04</totfact>
</mgrwt>
</event>
<event>
 4    1  0.1305170E-003  0.4994885E+03  0.7818608E-02  0.1013913E+00
         -2   -1    0    0    0  501 -0.00000000000E+00  0.00000000000E+00  0.12187256235E+03  0.12187256238E+03  0.25500000000E-02 0. -1.
          2   -1    0    0  501    0  0.00000000000E+00 -0.00000000000E+00 -0.51178207629E+03  0.51178207630E+03  0.25500000000E-02 0.  1.
    5000001    1    1    2    0    0 -0.20123738475E+03 -0.10577274904E+03 -0.10744078950E+03  0.26297696232E+03  0.77000000000E+02 0.  0.
   -5000001    1    1    2    0    0  0.20123738475E+03  0.10577274904E+03 -0.28246872444E+03  0.37067767636E+03  0.77000000000E+02 0.  0.
<mgrwt>
<rscale>  0 0.49948851E+03</rscale>
<asrwt>0</asrwt>
<pdfrwt beam="1">  1        2 0.73111724E-01 0.49948851E+03</pdfrwt>
<pdfrwt beam="2">  1       -2 0.17410366E-01 0.49948851E+03</pdfrwt>
<totfact> 0.17685570E+03</totfact>
</mgrwt>
</event>
<event>
 4    1  0.1305170E-003  0.2076817E+03  0.7818608E-02  0.1143415E+00
          2   -1    0    0  501    0  0.00000000000E+00  0.00000000000E+00  0.13618246396E+03  0.13618246398E+03  0.25500000000E-02 0.  1.
         -2   -1    0    0    0  501 -0.00000000000E+00 -0.00000000000E+00 -0.79179988768E+02  0.79179988810E+02  0.25500000000E-02 0. -1.
    5000001    1    1    2    0    0  0.53881638813E+02  0.42721803828E+02  0.40120190227E+02  0.11075654919E+03  0.77000000000E+02 0.  0.
   -5000001    1    1    2    0    0 -0.53881638813E+02 -0.42721803828E+02  0.16882284961E+02  0.10460590361E+03  0.77000000000E+02 0.  0.
<mgrwt>
<rscale>  0 0.20768174E+03</rscale>
<asrwt>0</asrwt>
<pdfrwt beam="1">  1        2 0.19454638E-01 0.20768174E+03</pdfrwt>
<pdfrwt beam="2">  1       -2 0.11311427E-01 0.20768174E+03</pdfrwt>
<totfact> 0.15095855E+04</totfact>
</mgrwt>
</event>
<event>
 4    1  0.1305170E-003  0.2724273E+03  0.7818608E-02  0.1099898E+00
          2   -1    0    0  501    0  0.00000000000E+00  0.00000000000E+00  0.95586359398E+03  0.95586359398E+03  0.25500000000E-02 0.  1.
         -2   -1    0    0    0  501 -0.00000000000E+00 -0.00000000000E+00 -0.19410883818E+02  0.19410883985E+02  0.25500000000E-02 0. -1.
    5000001    1    1    2    0    0  0.29565269642E+00  0.87696040201E+02  0.71970244324E+03  0.72910307206E+03  0.77000000000E+02 0.  0.
   -5000001    1    1    2    0    0 -0.29565269642E+00 -0.87696040201E+02  0.21675026692E+03  0.24617140591E+03  0.77000000000E+02 0.  0.
<mgrwt>
<rscale>  0 0.27242729E+03</rscale>
<asrwt>0</asrwt>
<pdfrwt beam="1">  1        2 0.13655197E+00 0.27242729E+03</pdfrwt>
<pdfrwt beam="2">  1       -2 0.27729829E-02 0.27242729E+03</pdfrwt>
<totfact> 0.14692306E+04</totfact>
</mgrwt>
</event>
<event>
 4    1  0.1305170E-003  0.2302340E+03  0.7818608E-02  0.1126475E+00
         -2   -1    0    0    0  501 -0.00000000000E+00  0.00000000000E+00  0.35941672243E+02  0.35941672334E+02  0.25500000000E-02 0. -1.
          2   -1    0    0  501    0  0.00000000000E+00 -0.00000000000E+00 -0.36870647327E+03  0.36870647328E+03  0.25500000000E-02 0.  1.
    5000001    1    1    2    0    0  0.31088206744E+02 -0.76646412126E+02 -0.12780512208E+03  0.17059981923E+03  0.77000000000E+02 0.  0.
   -5000001    1    1    2    0    0 -0.31088206744E+02  0.76646412126E+02 -0.20495967895E+03  0.23404832639E+03  0.77000000000E+02 0.  0.
<mgrwt>
<rscale>  0 0.23023403E+03</rscale>
<asrwt>0</asrwt>
<pdfrwt beam="1">  1        2 0.52672351E-01 0.23023403E+03</pdfrwt>
<pdfrwt beam="2">  1       -2 0.51345248E-02 0.23023403E+03</pdfrwt>
<totfact> 0.17430683E+04</totfact>
</mgrwt>
</event>
<event>
 4    1  0.1305170E-003  0.2221002E+03  0.7818608E-02  0.1132327E+00
          2   -1    0    0  501    0  0.00000000000E+00  0.00000000000E+00  0.45605787707E+03  0.45605787708E+03  0.25500000000E-02 0.  1.
         -2   -1    0    0    0  501 -0.00000000000E+00 -0.00000000000E+00 -0.27040692198E+02  0.27040692318E+02  0.25500000000E-02 0. -1.
    5000001    1    1    2    0    0 -0.62996988284E+02 -0.33202387182E+02  0.13512046517E+03  0.17104841173E+03  0.77000000000E+02 0.  0.
   -5000001    1    1    2    0    0  0.62996988284E+02  0.33202387182E+02  0.29389671971E+03  0.31205015767E+03  0.77000000000E+02 0.  0.
<mgrwt>
<rscale>  0 0.22210016E+03</rscale>
<asrwt>0</asrwt>
<pdfrwt beam="1">  1        2 0.65151122E-01 0.22210016E+03</pdfrwt>
<pdfrwt beam="2">  1       -2 0.38629562E-02 0.22210016E+03</pdfrwt>
<totfact> 0.21221628E+04</totfact>
</mgrwt>
</event>
<event>
 4    1  0.1305170E-003  0.2242079E+03  0.7818608E-02  0.1130784E+00
          2   -1    0    0  501    0  0.00000000000E+00  0.00000000000E+00  0.58187659265E+02  0.58187659321E+02  0.25500000000E-02 0.  1.
         -2   -1    0    0    0  501 -0.00000000000E+00 -0.00000000000E+00 -0.21597864299E+03  0.21597864301E+03  0.25500000000E-02 0. -1.
    5000001    1    1    2    0    0  0.73357251397E+02  0.17466888847E+02 -0.11662332793E+03  0.15879665978E+03  0.77000000000E+02 0.  0.
   -5000001    1    1    2    0    0 -0.73357251397E+02 -0.17466888847E+02 -0.41167655794E+02  0.11536964255E+03  0.77000000000E+02 0.  0.
<mgrwt>
<rscale>  0 0.22420787E+03</rscale>
<asrwt>0</asrwt>
<pdfrwt beam="1">  1        2 0.83125229E-02 0.22420787E+03</pdfrwt>
<pdfrwt beam="2">  1       -2 0.30854091E-01 0.22420787E+03</pdfrwt>
<totfact> 0.76992822E+03</totfact>
</mgrwt>
</event>
<event>
 4    1  0.1305170E-003  0.3233944E+03  0.7818608E-02  0.1074098E+00
         -2   -1    0    0    0  501 -0.00000000000E+00  0.00000000000E+00  0.12280082088E+03  0.12280082090E+03  0.25500000000E-02 0. -1.
          2   -1    0    0  501    0  0.00000000000E+00 -0.00000000000E+00 -0.21291371329E+03  0.21291371331E+03  0.25500000000E-02 0.  1.
    5000001    1    1    2    0    0 -0.12159658570E+03 -0.32914871047E+02  0.23393875065E+02  0.14948375089E+03  0.77000000000E+02 0.  0.
   -5000001    1    1    2    0    0  0.12159658570E+03  0.32914871047E+02 -0.11350676748E+03  0.18623078332E+03  0.77000000000E+02 0.  0.
<mgrwt>
<rscale>  0 0.32339436E+03</rscale>
<asrwt>0</asrwt>
<pdfrwt beam="1">  1        2 0.30416244E-01 0.32339436E+03</pdfrwt>
<pdfrwt beam="2">  1       -2 0.17542975E-01 0.32339436E+03</pdfrwt>
<totfact> 0.45465813E+03</totfact>
</mgrwt>
</event>
<event>
 4    1  0.1305170E-003  0.2175222E+03  0.7818608E-02  0.1135744E+00
          2   -1    0    0  501    0  0.00000000000E+00  0.00000000000E+00  0.16843167541E+03  0.16843167543E+03  0.25500000000E-02 0.  1.
         -2   -1    0    0    0  501 -0.00000000000E+00 -0.00000000000E+00 -0.70230152699E+02  0.70230152745E+02  0.25500000000E-02 0. -1.
    5000001    1    1    2    0    0  0.54804208844E+02  0.48829829420E+02  0.73930311558E+02  0.12954746047E+03  0.77000000000E+02 0.  0.
   -5000001    1    1    2    0    0 -0.54804208844E+02 -0.48829829420E+02  0.24271211157E+02  0.10911436770E+03  0.77000000000E+02 0.  0.
<mgrwt>
<rscale>  0 0.21752225E+03</rscale>
<asrwt>0</asrwt>
<pdfrwt beam="1">  1        2 0.24061667E-01 0.21752225E+03</pdfrwt>
<pdfrwt beam="2">  1       -2 0.10032879E-01 0.21752225E+03</pdfrwt>
<totfact> 0.14415179E+04</totfact>
</mgrwt>
</event>
<event>
 4    1  0.1305170E-003  0.2255639E+03  0.7818608E-02  0.1129802E+00
          2   -1    0    0  501    0  0.00000000000E+00  0.00000000000E+00  0.14600915714E+04  0.14600915714E+04  0.25500000000E-02 0.  1.
         -2   -1    0    0    0  501 -0.00000000000E+00 -0.00000000000E+00 -0.87116209161E+01  0.87116212893E+01  0.25500000000E-02 0. -1.
    5000001    1    1    2    0    0  0.62062076486E+02  0.53802108182E+02  0.76907779092E+03  0.77727473693E+03  0.77000000000E+02 0.  0.
   -5000001    1    1    2    0    0 -0.62062076486E+02 -0.53802108182E+02  0.68230215954E+03  0.69152845574E+03  0.77000000000E+02 0.  0.
<mgrwt>
<rscale>  0 0.22556387E+03</rscale>
<asrwt>0</asrwt>
<pdfrwt beam="1">  1        2 0.20858479E+00 0.22556387E+03</pdfrwt>
<pdfrwt beam="2">  1       -2 0.12445156E-02 0.22556387E+03</pdfrwt>
<totfact> 0.25067242E+04</totfact>
</mgrwt>
</event>
<event>
 4    1  0.1305170E-003  0.1927433E+03  0.7818608E-02  0.1156010E+00
         -2   -1    0    0    0  501 -0.00000000000E+00  0.00000000000E+00  0.74610962106E+03  0.74610962107E+03  0.25500000000E-02 0. -1.
          2   -1    0    0  501    0  0.00000000000E+00 -0.00000000000E+00 -0.12447891307E+02  0.12447891569E+02  0.25500000000E-02 0.  1.
    5000001    1    1    2    0    0  0.49191092117E+02 -0.25423507508E+02  0.43412514458E+03  0.44436444439E+03  0.77000000000E+02 0.  0.
   -5000001    1    1    2    0    0 -0.49191092117E+02  0.25423507508E+02  0.29953658517E+03  0.31419306825E+03  0.77000000000E+02 0.  0.
<mgrwt>
<rscale>  0 0.19274327E+03</rscale>
<asrwt>0</asrwt>
<pdfrwt beam="1">  1        2 0.17782694E-02 0.19274327E+03</pdfrwt>
<pdfrwt beam="2">  1       -2 0.10658714E+00 0.19274327E+03</pdfrwt>
<totfact> 0.46393472E+03</totfact>
</mgrwt>
</event>
<event>
 4    1  0.1305170E-003  0.2799083E+03  0.7818608E-02  0.1095739E+00
         -2   -1    0    0    0  501 -0.00000000000E+00  0.00000000000E+00  0.18704705870E+04  0.18704705870E+04  0.25500000000E-02 0. -1.
          2   -1    0    0  501    0  0.00000000000E+00 -0.00000000000E+00 -0.10471786517E+02  0.10471786828E+02  0.25500000000E-02 0.  1.
    5000001    1    1    2    0    0 -0.54760589163E+01 -0.11658537823E+03  0.97033604818E+03  0.98035870171E+03  0.77000000000E+02 0.  0.
   -5000001    1    1    2    0    0  0.54760589163E+01  0.11658537823E+03  0.88966275230E+03  0.90058367211E+03  0.77000000000E+02 0.  0.
<mgrwt>
<rscale>  0 0.27990833E+03</rscale>
<asrwt>0</asrwt>
<pdfrwt beam="1">  1        2 0.14959679E-02 0.27990833E+03</pdfrwt>
<pdfrwt beam="2">  1       -2 0.26721038E+00 0.27990833E+03</pdfrwt>
<totfact> 0.46683866E+02</totfact>
</mgrwt>
</event>
<event>
 4    1  0.1305170E-003  0.1770920E+03  0.7818608E-02  0.1170647E+00
          2   -1    0    0  501    0  0.00000000000E+00  0.00000000000E+00  0.10515720916E+04  0.10515720916E+04  0.25500000000E-02 0.  1.
         -2   -1    0    0    0  501 -0.00000000000E+00 -0.00000000000E+00 -0.74558814587E+01  0.74558818947E+01  0.25500000000E-02 0. -1.
    5000001    1    1    2    0    0 -0.36053686201E+02 -0.12704597373E+02  0.39518384242E+03  0.40442619153E+03  0.77000000000E+02 0.  0.
   -5000001    1    1    2    0    0  0.36053686201E+02  0.12704597373E+02  0.64893236772E+03  0.65460178196E+03  0.77000000000E+02 0.  0.
<mgrwt>
<rscale>  0 0.17709203E+03</rscale>
<asrwt>0</asrwt>
<pdfrwt beam="1">  1        2 0.15022466E+00 0.17709203E+03</pdfrwt>
<pdfrwt beam="2">  1       -2 0.10651255E-02 0.17709203E+03</pdfrwt>
<totfact> 0.50849793E+04</totfact>
</mgrwt>
</event>
<event>
 4    1  0.1305170E-003  0.6246614E+03  0.7818608E-02  0.9855522E-01
         -2   -1    0    0    0  501 -0.00000000000E+00  0.00000000000E+00  0.34308986313E+02  0.34308986407E+02  0.25500000000E-02 0. -1.
          2   -1    0    0  501    0  0.00000000000E+00 -0.00000000000E+00 -0.28432919953E+04  0.28432919953E+04  0.25500000000E-02 0.  1.
    5000001    1    1    2    0    0  0.14740793420E+03  0.14999692009E+03 -0.40162220417E+03  0.45984515871E+03  0.77000000000E+02 0.  0.
   -5000001    1    1    2    0    0 -0.14740793420E+03 -0.14999692009E+03 -0.24073608049E+04  0.24177558230E+04  0.77000000000E+02 0.  0.
<mgrwt>
<rscale>  0 0.62466140E+03</rscale>
<asrwt>0</asrwt>
<pdfrwt beam="1">  1        2 0.40618442E+00 0.62466140E+03</pdfrwt>
<pdfrwt beam="2">  1       -2 0.49012856E-02 0.62466140E+03</pdfrwt>
<totfact> 0.64690087E+02</totfact>
</mgrwt>
</event>
<event>
 4    1  0.1305170E-003  0.3012978E+03  0.7818608E-02  0.1084594E+00
         -2   -1    0    0    0  501 -0.00000000000E+00  0.00000000000E+00  0.22751205300E+02  0.22751205442E+02  0.25500000000E-02 0. -1.
          2   -1    0    0  501    0  0.00000000000E+00 -0.00000000000E+00 -0.99753338705E+03  0.99753338705E+03  0.25500000000E-02 0.  1.
    5000001    1    1    2    0    0 -0.30157102930E+02  0.11692075220E+03 -0.32905943627E+03  0.35887187930E+03  0.77000000000E+02 0.  0.
   -5000001    1    1    2    0    0  0.30157102930E+02 -0.11692075220E+03 -0.64572274548E+03  0.66141271320E+03  0.77000000000E+02 0.  0.
<mgrwt>
<rscale>  0 0.30129777E+03</rscale>
<asrwt>0</asrwt>
<pdfrwt beam="1">  1        2 0.14250474E+00 0.30129777E+03</pdfrwt>
<pdfrwt beam="2">  1       -2 0.32501728E-02 0.30129777E+03</pdfrwt>
<totfact> 0.10987988E+04</totfact>
</mgrwt>
</event>
<event>
 4    1  0.1305170E-003  0.4501103E+03  0.7818608E-02  0.1027689E+00
          2   -1    0    0  501    0  0.00000000000E+00  0.00000000000E+00  0.15832645021E+03  0.15832645023E+03  0.25500000000E-02 0.  1.
         -2   -1    0    0    0  501 -0.00000000000E+00 -0.00000000000E+00 -0.31990753537E+03  0.31990753538E+03  0.25500000000E-02 0. -1.
    5000001    1    1    2    0    0 -0.19870037594E+03  0.12619153381E+02 -0.50650167907E+01  0.21353158273E+03  0.77000000000E+02 0.  0.
   -5000001    1    1    2    0    0  0.19870037594E+03 -0.12619153381E+02 -0.15651606838E+03  0.26470240288E+03  0.77000000000E+02 0.  0.
<mgrwt>
<rscale>  0 0.45011032E+03</rscale>
<asrwt>0</asrwt>
<pdfrwt beam="1">  1        2 0.22618064E-01 0.45011032E+03</pdfrwt>
<pdfrwt beam="2">  1       -2 0.45701076E-01 0.45011032E+03</pdfrwt>
<totfact> 0.11167997E+03</totfact>
</mgrwt>
</event>
<event>
 4    1  0.1305170E-003  0.2105436E+03  0.7818608E-02  0.1141136E+00
          2   -1    0    0  501    0  0.00000000000E+00  0.00000000000E+00  0.34905903031E+04  0.34905903031E+04  0.25500000000E-02 0.  1.
         -2   -1    0    0    0  501 -0.00000000000E+00 -0.00000000000E+00 -0.31748634145E+01  0.31748644386E+01  0.25500000000E-02 0. -1.
    5000001    1    1    2    0    0  0.41419985808E+02  0.80638382064E+01  0.27073775133E+04  0.27088009599E+04  0.77000000000E+02 0.  0.
   -5000001    1    1    2    0    0 -0.41419985808E+02 -0.80638382064E+01  0.78003792641E+03  0.78496420769E+03  0.77000000000E+02 0.  0.
<mgrwt>
<rscale>  0 0.21054357E+03</rscale>
<asrwt>0</asrwt>
<pdfrwt beam="1">  1        2 0.49865674E+00 0.21054357E+03</pdfrwt>
<pdfrwt beam="2">  1       -2 0.45355110E-03 0.21054357E+03</pdfrwt>
<totfact> 0.99441176E+03</totfact>
</mgrwt>
</event>
<event>
 4    1  0.1305170E-003  0.2058437E+03  0.7818608E-02  0.1144900E+00
         -2   -1    0    0    0  501 -0.00000000000E+00  0.00000000000E+00  0.62306506648E+01  0.62306511867E+01  0.25500000000E-02 0. -1.
          2   -1    0    0  501    0  0.00000000000E+00 -0.00000000000E+00 -0.17001290497E+04  0.17001290497E+04  0.25500000000E-02 0.  1.
    5000001    1    1    2    0    0  0.29005249003E+02  0.48234684788E+02 -0.52632091443E+03  0.53489306805E+03  0.77000000000E+02 0.  0.
   -5000001    1    1    2    0    0 -0.29005249003E+02 -0.48234684788E+02 -0.11675774846E+04  0.11714666328E+04  0.77000000000E+02 0.  0.
<mgrwt>
<rscale>  0 0.20584373E+03</rscale>
<asrwt>0</asrwt>
<pdfrwt beam="1">  1        2 0.24287528E+00 0.20584373E+03</pdfrwt>
<pdfrwt beam="2">  1       -2 0.89009408E-03 0.20584373E+03</pdfrwt>
<totfact> 0.30798421E+04</totfact>
</mgrwt>
</event>
<event>
 4    1  0.1305170E-003  0.4524555E+03  0.7818608E-02  0.1026992E+00
          2   -1    0    0  501    0  0.00000000000E+00  0.00000000000E+00  0.81386671411E+03  0.81386671411E+03  0.25500000000E-02 0.  1.
         -2   -1    0    0    0  501 -0.00000000000E+00 -0.00000000000E+00 -0.62883756606E+02  0.62883756658E+02  0.25500000000E-02 0. -1.
    5000001    1    1    2    0    0 -0.48904396208E+02 -0.17136426804E+03  0.15040538657E+03  0.24557714193E+03  0.77000000000E+02 0.  0.
   -5000001    1    1    2    0    0  0.48904396208E+02  0.17136426804E+03  0.60057757093E+03  0.63117332884E+03  0.77000000000E+02 0.  0.
<mgrwt>
<rscale>  0 0.45245551E+03</rscale>
<asrwt>0</asrwt>
<pdfrwt beam="1">  1        2 0.11626666E+00 0.45245551E+03</pdfrwt>
<pdfrwt beam="2">  1       -2 0.89833945E-02 0.45245551E+03</pdfrwt>
<totfact> 0.30209495E+03</totfact>
</mgrwt>
</event>
<event>
 4    1  0.1305170E-003  0.3703497E+03  0.7818608E-02  0.1054559E+00
          2   -1    0    0  501    0  0.00000000000E+00  0.00000000000E+00  0.27930822410E+03  0.27930822411E+03  0.25500000000E-02 0.  1.
         -2   -1    0    0    0  501 -0.00000000000E+00 -0.00000000000E+00 -0.12276658396E+03  0.12276658399E+03  0.25500000000E-02 0. -1.
    5000001    1    1    2    0    0  0.58422637661E+02 -0.15601911874E+03  0.51554989065E+02  0.19063600631E+03  0.77000000000E+02 0.  0.
   -5000001    1    1    2    0    0 -0.58422637661E+02  0.15601911874E+03  0.10498665107E+03  0.21143880180E+03  0.77000000000E+02 0.  0.
<mgrwt>
<rscale>  0 0.37034965E+03</rscale>
<asrwt>0</asrwt>
<pdfrwt beam="1">  1        2 0.39901175E-01 0.37034965E+03</pdfrwt>
<pdfrwt beam="2">  1       -2 0.17538083E-01 0.37034965E+03</pdfrwt>
<totfact> 0.33905388E+03</totfact>
</mgrwt>
</event>
<event>
 4    1  0.1305170E-003  0.4135475E+03  0.7818608E-02  0.1039187E+00
          2   -1    0    0  501    0  0.00000000000E+00  0.00000000000E+00  0.14276823111E+04  0.14276823111E+04  0.25500000000E-02 0.  1.
         -2   -1    0    0    0  501 -0.00000000000E+00 -0.00000000000E+00 -0.29947402611E+02  0.29947402720E+02  0.25500000000E-02 0. -1.
    5000001    1    1    2    0    0  0.15788535824E+03 -0.12954609076E+02  0.31711214593E+03  0.36274608384E+03  0.77000000000E+02 0.  0.
   -5000001    1    1    2    0    0 -0.15788535824E+03  0.12954609076E+02  0.10806227626E+04  0.10948836300E+04  0.77000000000E+02 0.  0.
<mgrwt>
<rscale>  0 0.41354747E+03</rscale>
<asrwt>0</asrwt>
<pdfrwt beam="1">  1        2 0.20395464E+00 0.41354747E+03</pdfrwt>
<pdfrwt beam="2">  1       -2 0.42781999E-02 0.41354747E+03</pdfrwt>
<totfact> 0.42303910E+03</totfact>
</mgrwt>
</event>
<event>
 4    1  0.1305170E-003  0.3753334E+03  0.7818608E-02  0.1052672E+00
          2   -1    0    0  501    0  0.00000000000E+00  0.00000000000E+00  0.99407822753E+03  0.99407822753E+03  0.25500000000E-02 0.  1.
         -2   -1    0    0    0  501 -0.00000000000E+00 -0.00000000000E+00 -0.35428599056E+02  0.35428599147E+02  0.25500000000E-02 0. -1.
    5000001    1    1    2    0    0 -0.76574113688E+02 -0.11023726063E+03  0.18808548267E+03  0.24355902223E+03  0.77000000000E+02 0.  0.
   -5000001    1    1    2    0    0  0.76574113688E+02  0.11023726063E+03  0.77056414580E+03  0.78594780445E+03  0.77000000000E+02 0.  0.
<mgrwt>
<rscale>  0 0.37533345E+03</rscale>
<asrwt>0</asrwt>
<pdfrwt beam="1">  1        2 0.14201114E+00 0.37533345E+03</pdfrwt>
<pdfrwt beam="2">  1       -2 0.50612298E-02 0.37533345E+03</pdfrwt>
<totfact> 0.56753843E+03</totfact>
</mgrwt>
</event>
<event>
 4    1  0.1305170E-003  0.2976560E+03  0.7818608E-02  0.1086418E+00
         -2   -1    0    0    0  501 -0.00000000000E+00  0.00000000000E+00  0.63159891318E+01  0.63159896466E+01  0.25500000000E-02 0. -1.
          2   -1    0    0  501    0  0.00000000000E+00 -0.00000000000E+00 -0.35069361190E+04  0.35069361190E+04  0.25500000000E-02 0.  1.
    5000001    1    1    2    0    0  0.59574636490E+02 -0.84173539565E+02 -0.86811906023E+03  0.87760698767E+03  0.77000000000E+02 0.  0.
   -5000001    1    1    2    0    0 -0.59574636490E+02  0.84173539565E+02 -0.26325010696E+04  0.26356451210E+04  0.77000000000E+02 0.  0.
<mgrwt>
<rscale>  0 0.29765598E+03</rscale>
<asrwt>0</asrwt>
<pdfrwt beam="1">  1        2 0.50098963E+00 0.29765598E+03</pdfrwt>
<pdfrwt beam="2">  1       -2 0.90228644E-03 0.29765598E+03</pdfrwt>
<totfact> 0.35937861E+03</totfact>
</mgrwt>
</event>
<event>
 4    1  0.1305170E-003  0.2452905E+03  0.7818608E-02  0.1116318E+00
          2   -1    0    0  501    0  0.00000000000E+00  0.00000000000E+00  0.31599316614E+03  0.31599316615E+03  0.25500000000E-02 0.  1.
         -2   -1    0    0    0  501 -0.00000000000E+00 -0.00000000000E+00 -0.47601835868E+02  0.47601835936E+02  0.25500000000E-02 0. -1.
    5000001    1    1    2    0    0 -0.20979094066E+02  0.56093826985E+02  0.24438792819E+03  0.26313703513E+03  0.77000000000E+02 0.  0.
   -5000001    1    1    2    0    0  0.20979094066E+02 -0.56093826985E+02  0.24003402088E+02  0.10045796696E+03  0.77000000000E+02 0.  0.
<mgrwt>
<rscale>  0 0.24529048E+03</rscale>
<asrwt>0</asrwt>
<pdfrwt beam="1">  1        2 0.45141882E-01 0.24529048E+03</pdfrwt>
<pdfrwt beam="2">  1       -2 0.68002621E-02 0.24529048E+03</pdfrwt>
<totfact> 0.13432773E+04</totfact>
</mgrwt>
</event>
<event>
 4    1  0.1305170E-003  0.2381071E+03  0.7818608E-02  0.1121060E+00
         -2   -1    0    0    0  501 -0.00000000000E+00  0.00000000000E+00  0.94795913260E+01  0.94795916690E+01  0.25500000000E-02 0. -1.
          2   -1    0    0  501    0  0.00000000000E+00 -0.00000000000E+00 -0.14951861172E+04  0.14951861172E+04  0.25500000000E-02 0.  1.
    5000001    1    1    2    0    0 -0.43967351266E+02 -0.79407190277E+02 -0.72721542389E+03  0.73689205627E+03  0.77000000000E+02 0.  0.
   -5000001    1    1    2    0    0  0.43967351266E+02  0.79407190277E+02 -0.75849110199E+03  0.76777365261E+03  0.77000000000E+02 0.  0.
<mgrwt>
<rscale>  0 0.23810715E+03</rscale>
<asrwt>0</asrwt>
<pdfrwt beam="1">  1        2 0.21359787E+00 0.23810715E+03</pdfrwt>
<pdfrwt beam="2">  1       -2 0.13542283E-02 0.23810715E+03</pdfrwt>
<totfact> 0.21341777E+04</totfact>
</mgrwt>
</event>
<event>
 4    1  0.1305170E-003  0.3048898E+03  0.7818608E-02  0.1082821E+00
          2   -1    0    0  501    0  0.00000000000E+00  0.00000000000E+00  0.65669545032E+03  0.65669545033E+03  0.25500000000E-02 0.  1.
         -2   -1    0    0    0  501 -0.00000000000E+00 -0.00000000000E+00 -0.35388478454E+02  0.35388478546E+02  0.25500000000E-02 0. -1.
    5000001    1    1    2    0    0  0.19148798820E+02  0.11325742382E+03  0.16501318008E+03  0.21529577364E+03  0.77000000000E+02 0.  0.
   -5000001    1    1    2    0    0 -0.19148798820E+02 -0.11325742382E+03  0.45629379179E+03  0.47678815524E+03  0.77000000000E+02 0.  0.
<mgrwt>
<rscale>  0 0.30488983E+03</rscale>
<asrwt>0</asrwt>
<pdfrwt beam="1">  1        2 0.93813633E-01 0.30488983E+03</pdfrwt>
<pdfrwt beam="2">  1       -2 0.50554971E-02 0.30488983E+03</pdfrwt>
<totfact> 0.95336452E+03</totfact>
</mgrwt>
</event>
<event>
 4    1  0.1305170E-003  0.2743112E+03  0.7818608E-02  0.1098837E+00
         -2   -1    0    0    0  501 -0.00000000000E+00  0.00000000000E+00  0.78720484819E+01  0.78720488949E+01  0.25500000000E-02 0. -1.
          2   -1    0    0  501    0  0.00000000000E+00 -0.00000000000E+00 -0.23896780422E+04  0.23896780422E+04  0.25500000000E-02 0.  1.
    5000001    1    1    2    0    0 -0.10349725375E+03 -0.24072300799E+02 -0.84222216418E+03  0.85238391059E+03  0.77000000000E+02 0.  0.
   -5000001    1    1    2    0    0  0.10349725375E+03  0.24072300799E+02 -0.15395838295E+04  0.15451661805E+04  0.77000000000E+02 0.  0.
<mgrwt>
<rscale>  0 0.27431122E+03</rscale>
<asrwt>0</asrwt>
<pdfrwt beam="1">  1        2 0.34138212E+00 0.27431122E+03</pdfrwt>
<pdfrwt beam="2">  1       -2 0.11245799E-02 0.27431122E+03</pdfrwt>
<totfact> 0.10223821E+04</totfact>
</mgrwt>
</event>
<event>
 4    1  0.1305170E-003  0.3075004E+03  0.7818608E-02  0.1081550E+00
         -2   -1    0    0    0  501 -0.00000000000E+00  0.00000000000E+00  0.25169556160E+03  0.25169556162E+03  0.25500000000E-02 0. -1.
          2   -1    0    0  501    0  0.00000000000E+00 -0.00000000000E+00 -0.93919534574E+02  0.93919534609E+02  0.25500000000E-02 0.  1.
    5000001    1    1    2    0    0  0.45473506038E+02 -0.12506864814E+03  0.78493013239E+02  0.17262722736E+03  0.77000000000E+02 0.  0.
   -5000001    1    1    2    0    0 -0.45473506038E+02  0.12506864814E+03  0.79283013792E+02  0.17298786887E+03  0.77000000000E+02 0.  0.
<mgrwt>
<rscale>  0 0.30750044E+03</rscale>
<asrwt>0</asrwt>
<pdfrwt beam="1">  1        2 0.13417077E-01 0.30750044E+03</pdfrwt>
<pdfrwt beam="2">  1       -2 0.35956508E-01 0.30750044E+03</pdfrwt>
<totfact> 0.32554933E+03</totfact>
</mgrwt>
</event>
<event>
 4    1  0.1305170E-003  0.3712858E+03  0.7818608E-02  0.1054202E+00
          2   -1    0    0  501    0  0.00000000000E+00  0.00000000000E+00  0.23642623352E+04  0.23642623352E+04  0.25500000000E-02 0.  1.
         -2   -1    0    0    0  501 -0.00000000000E+00 -0.00000000000E+00 -0.14576758263E+02  0.14576758486E+02  0.25500000000E-02 0. -1.
    5000001    1    1    2    0    0  0.45480399635E+01 -0.47628588358E+02  0.22128036824E+04  0.22146598619E+04  0.77000000000E+02 0.  0.
   -5000001    1    1    2    0    0 -0.45480399635E+01  0.47628588358E+02  0.13688189454E+03  0.16417923179E+03  0.77000000000E+02 0.  0.
<mgrwt>
<rscale>  0 0.37128577E+03</rscale>
<asrwt>0</asrwt>
<pdfrwt beam="1">  1        2 0.33775172E+00 0.37128577E+03</pdfrwt>
<pdfrwt beam="2">  1       -2 0.20823943E-02 0.37128577E+03</pdfrwt>
<totfact> 0.42542928E+03</totfact>
</mgrwt>
</event>
<event>
 4    1  0.1305170E-003  0.3021392E+03  0.7818608E-02  0.1084176E+00
         -2   -1    0    0    0  501 -0.00000000000E+00  0.00000000000E+00  0.15156576258E+03  0.15156576260E+03  0.25500000000E-02 0. -1.
          2   -1    0    0  501    0  0.00000000000E+00 -0.00000000000E+00 -0.15057503106E+03  0.15057503108E+03  0.25500000000E-02 0.  1.
    5000001    1    1    2    0    0  0.76589272741E+02  0.92524087894E+02  0.50158454618E+02  0.15123324406E+03  0.77000000000E+02 0.  0.
   -5000001    1    1    2    0    0 -0.76589272741E+02 -0.92524087894E+02 -0.49167723099E+02  0.15090754963E+03  0.77000000000E+02 0.  0.
<mgrwt>
<rscale>  0 0.30213917E+03</rscale>
<asrwt>0</asrwt>
<pdfrwt beam="1">  1        2 0.21510719E-01 0.30213917E+03</pdfrwt>
<pdfrwt beam="2">  1       -2 0.21652252E-01 0.30213917E+03</pdfrwt>
<totfact> 0.46658175E+03</totfact>
</mgrwt>
</event>
<event>
 4    1  0.1305170E-003  0.3074312E+03  0.7818608E-02  0.1081584E+00
         -2   -1    0    0    0  501 -0.00000000000E+00  0.00000000000E+00  0.21841196560E+02  0.21841196709E+02  0.25500000000E-02 0. -1.
          2   -1    0    0  501    0  0.00000000000E+00 -0.00000000000E+00 -0.10818314290E+04  0.10818314290E+04  0.25500000000E-02 0.  1.
    5000001    1    1    2    0    0 -0.13032717802E+03  0.23493945830E+02 -0.57573804388E+03  0.59576877561E+03  0.77000000000E+02 0.  0.
   -5000001    1    1    2    0    0  0.13032717802E+03 -0.23493945830E+02 -0.48425218855E+03  0.50790385009E+03  0.77000000000E+02 0.  0.
<mgrwt>
<rscale>  0 0.30743125E+03</rscale>
<asrwt>0</asrwt>
<pdfrwt beam="1">  1        2 0.15454731E+00 0.30743125E+03</pdfrwt>
<pdfrwt beam="2">  1       -2 0.31201716E-02 0.30743125E+03</pdfrwt>
<totfact> 0.10439495E+04</totfact>
</mgrwt>
</event>
<event>
 4    1  0.1305170E-003  0.1869278E+03  0.7818608E-02  0.1161262E+00
         -2   -1    0    0    0  501 -0.00000000000E+00  0.00000000000E+00  0.29743838005E+01  0.29743848935E+01  0.25500000000E-02 0. -1.
          2   -1    0    0  501    0  0.00000000000E+00 -0.00000000000E+00 -0.29369089954E+04  0.29369089954E+04  0.25500000000E-02 0.  1.
    5000001    1    1    2    0    0  0.43679197531E+02 -0.34387171726E+01 -0.99861902011E+03  0.10025410936E+04  0.77000000000E+02 0.  0.
   -5000001    1    1    2    0    0 -0.43679197531E+02  0.34387171726E+01 -0.19353155915E+04  0.19373422867E+04  0.77000000000E+02 0.  0.
<mgrwt>
<rscale>  0 0.18692775E+03</rscale>
<asrwt>0</asrwt>
<pdfrwt beam="1">  1        2 0.41955657E+00 0.18692775E+03</pdfrwt>
<pdfrwt beam="2">  1       -2 0.42491393E-03 0.18692775E+03</pdfrwt>
<totfact> 0.21794785E+04</totfact>
</mgrwt>
</event>
<event>
 4    1  0.1305170E-003  0.2134678E+03  0.7818608E-02  0.1138849E+00
          2   -1    0    0  501    0  0.00000000000E+00  0.00000000000E+00  0.35722608888E+02  0.35722608979E+02  0.25500000000E-02 0.  1.
         -2   -1    0    0    0  501 -0.00000000000E+00 -0.00000000000E+00 -0.31890528471E+03  0.31890528472E+03  0.25500000000E-02 0. -1.
    5000001    1    1    2    0    0 -0.37345218394E+02 -0.58402940633E+02 -0.18419119437E+03  0.21133141010E+03  0.77000000000E+02 0.  0.
   -5000001    1    1    2    0    0  0.37345218394E+02  0.58402940633E+02 -0.98991481448E+02  0.14329648359E+03  0.77000000000E+02 0.  0.
<mgrwt>
<rscale>  0 0.21346783E+03</rscale>
<asrwt>0</asrwt>
<pdfrwt beam="1">  1        2 0.51032300E-02 0.21346783E+03</pdfrwt>
<pdfrwt beam="2">  1       -2 0.45557896E-01 0.21346783E+03</pdfrwt>
<totfact> 0.69142921E+03</totfact>
</mgrwt>
</event>
<event>
 4    1  0.1305170E-003  0.2696196E+03  0.7818608E-02  0.1101497E+00
         -2   -1    0    0    0  501 -0.00000000000E+00  0.00000000000E+00  0.70954141861E+01  0.70954146443E+01  0.25500000000E-02 0. -1.
          2   -1    0    0  501    0  0.00000000000E+00 -0.00000000000E+00 -0.25613285044E+04  0.25613285044E+04  0.25500000000E-02 0.  1.
    5000001    1    1    2    0    0 -0.20832353170E+02 -0.10822919979E+03 -0.13710057173E+04  0.13775823836E+04  0.77000000000E+02 0.  0.
   -5000001    1    1    2    0    0  0.20832353170E+02  0.10822919979E+03 -0.11832273730E+04  0.11908415355E+04  0.77000000000E+02 0.  0.
<mgrwt>
<rscale>  0 0.26961964E+03</rscale>
<asrwt>0</asrwt>
<pdfrwt beam="1">  1        2 0.36590348E+00 0.26961964E+03</pdfrwt>
<pdfrwt beam="2">  1       -2 0.10136323E-02 0.26961964E+03</pdfrwt>
<totfact> 0.97646678E+03</totfact>
</mgrwt>
</event>
<event>
 4    1  0.1305170E-003  0.2117435E+03  0.7818608E-02  0.1140193E+00
          2   -1    0    0  501    0  0.00000000000E+00  0.00000000000E+00  0.19121493939E+04  0.19121493939E+04  0.25500000000E-02 0.  1.
         -2   -1    0    0    0  501 -0.00000000000E+00 -0.00000000000E+00 -0.58618993733E+01  0.58618999279E+01  0.25500000000E-02 0. -1.
    5000001    1    1    2    0    0 -0.65851535076E+02 -0.26822356939E+02  0.10887034240E+04  0.10937367183E+04  0.77000000000E+02 0.  0.
   -5000001    1    1    2    0    0  0.65851535076E+02  0.26822356939E+02  0.81758407050E+03  0.82427457551E+03  0.77000000000E+02 0.  0.
<mgrwt>
<rscale>  0 0.21174350E+03</rscale>
<asrwt>0</asrwt>
<pdfrwt beam="1">  1        2 0.27316406E+00 0.21174350E+03</pdfrwt>
<pdfrwt beam="2">  1       -2 0.83741467E-03 0.21174350E+03</pdfrwt>
<totfact> 0.26575172E+04</totfact>
</mgrwt>
</event>
<event>
 4    1  0.1305170E-003  0.1967131E+03  0.7818608E-02  0.1152542E+00
          2   -1    0    0  501    0  0.00000000000E+00  0.00000000000E+00  0.46344974857E+03  0.46344974858E+03  0.25500000000E-02 0.  1.
         -2   -1    0    0    0  501 -0.00000000000E+00 -0.00000000000E+00 -0.20873913372E+02  0.20873913527E+02  0.25500000000E-02 0. -1.
    5000001    1    1    2    0    0  0.19143393186E+02 -0.56038739958E+02  0.25928702231E+03  0.27688548141E+03  0.77000000000E+02 0.  0.
   -5000001    1    1    2    0    0 -0.19143393186E+02  0.56038739958E+02  0.18328881289E+03  0.20743818070E+03  0.77000000000E+02 0.  0.
<mgrwt>
<rscale>  0 0.19671309E+03</rscale>
<asrwt>0</asrwt>
<pdfrwt beam="1">  1        2 0.66207101E-01 0.19671309E+03</pdfrwt>
<pdfrwt beam="2">  1       -2 0.29819879E-02 0.19671309E+03</pdfrwt>
<totfact> 0.30378023E+04</totfact>
</mgrwt>
</event>
<event>
 4    1  0.1305170E-003  0.2740362E+03  0.7818608E-02  0.1098992E+00
         -2   -1    0    0    0  501 -0.00000000000E+00  0.00000000000E+00  0.17088513029E+03  0.17088513031E+03  0.25500000000E-02 0. -1.
          2   -1    0    0  501    0  0.00000000000E+00 -0.00000000000E+00 -0.10986300826E+03  0.10986300829E+03  0.25500000000E-02 0.  1.
    5000001    1    1    2    0    0  0.69048074677E+02 -0.43148096949E+02  0.11128088327E+03  0.15792982577E+03  0.77000000000E+02 0.  0.
   -5000001    1    1    2    0    0 -0.69048074677E+02  0.43148096949E+02 -0.50258761236E+02  0.12281831284E+03  0.77000000000E+02 0.  0.
<mgrwt>
<rscale>  0 0.27403616E+03</rscale>
<asrwt>0</asrwt>
<pdfrwt beam="1">  1        2 0.15694715E-01 0.27403616E+03</pdfrwt>
<pdfrwt beam="2">  1       -2 0.24412162E-01 0.27403616E+03</pdfrwt>
<totfact> 0.54347520E+03</totfact>
</mgrwt>
</event>
<event>
 4    1  0.1305170E-003  0.1865636E+03  0.7818608E-02  0.1161598E+00
          2   -1    0    0  501    0  0.00000000000E+00  0.00000000000E+00  0.44411019953E+03  0.44411019954E+03  0.25500000000E-02 0.  1.
         -2   -1    0    0    0  501 -0.00000000000E+00 -0.00000000000E+00 -0.19593087569E+02  0.19593087735E+02  0.25500000000E-02 0. -1.
    5000001    1    1    2    0    0  0.35203193281E+02 -0.38433486882E+02  0.19364346601E+03  0.21480965914E+03  0.77000000000E+02 0.  0.
   -5000001    1    1    2    0    0 -0.35203193281E+02  0.38433486882E+02  0.23087364595E+03  0.24889362813E+03  0.77000000000E+02 0.  0.
<mgrwt>
<rscale>  0 0.18656356E+03</rscale>
<asrwt>0</asrwt>
<pdfrwt beam="1">  1        2 0.63444308E-01 0.18656356E+03</pdfrwt>
<pdfrwt beam="2">  1       -2 0.27990128E-02 0.18656356E+03</pdfrwt>
<totfact> 0.34777432E+04</totfact>
</mgrwt>
</event>
<event>
 4    1  0.1305170E-003  0.1709343E+03  0.7818608E-02  0.1176877E+00
         -2   -1    0    0    0  501 -0.00000000000E+00  0.00000000000E+00  0.21036960309E+02  0.21036960463E+02  0.25500000000E-02 0. -1.
          2   -1    0    0  501    0  0.00000000000E+00 -0.00000000000E+00 -0.34722876858E+03  0.34722876859E+03  0.25500000000E-02 0.  1.
    5000001    1    1    2    0    0  0.12263289234E+02 -0.19195135742E+02 -0.10003346425E+03  0.12827523327E+03  0.77000000000E+02 0.  0.
   -5000001    1    1    2    0    0 -0.12263289234E+02  0.19195135742E+02 -0.22615834402E+03  0.23999049579E+03  0.77000000000E+02 0.  0.
<mgrwt>
<rscale>  0 0.17093435E+03</rscale>
<asrwt>0</asrwt>
<pdfrwt beam="1">  1        2 0.49604106E-01 0.17093435E+03</pdfrwt>
<pdfrwt beam="2">  1       -2 0.30052803E-02 0.17093435E+03</pdfrwt>
<totfact> 0.40434832E+04</totfact>
</mgrwt>
</event>
<event>
 4    1  0.1305170E-003  0.2248140E+03  0.7818608E-02  0.1130344E+00
         -2   -1    0    0    0  501 -0.00000000000E+00  0.00000000000E+00  0.72948934225E+03  0.72948934226E+03  0.25500000000E-02 0. -1.
          2   -1    0    0  501    0  0.00000000000E+00 -0.00000000000E+00 -0.17320788139E+02  0.17320788327E+02  0.25500000000E-02 0.  1.
    5000001    1    1    2    0    0  0.54722639808E+02  0.38279350474E+02  0.51353175584E+03  0.52354917653E+03  0.77000000000E+02 0.  0.
   -5000001    1    1    2    0    0 -0.54722639808E+02 -0.38279350474E+02  0.19863679827E+03  0.22326095406E+03  0.77000000000E+02 0.  0.
<mgrwt>
<rscale>  0 0.22481397E+03</rscale>
<asrwt>0</asrwt>
<pdfrwt beam="1">  1        2 0.24743986E-02 0.22481397E+03</pdfrwt>
<pdfrwt beam="2">  1       -2 0.10421275E+00 0.22481397E+03</pdfrwt>
<totfact> 0.31375924E+03</totfact>
</mgrwt>
</event>
<event>
 4    1  0.1305170E-003  0.2827871E+03  0.7818608E-02  0.1094176E+00
         -2   -1    0    0    0  501 -0.00000000000E+00  0.00000000000E+00  0.37289834604E+02  0.37289834691E+02  0.25500000000E-02 0.  1.
          2   -1    0    0  501    0  0.00000000000E+00 -0.00000000000E+00 -0.53612821023E+03  0.53612821023E+03  0.25500000000E-02 0. -1.
    5000001    1    1    2    0    0 -0.67569321096E+02  0.67528699912E+02 -0.10693696326E+03  0.16275826424E+03  0.77000000000E+02 0.  0.
   -5000001    1    1    2    0    0  0.67569321096E+02 -0.67528699912E+02 -0.39190141236E+03  0.41065978069E+03  0.77000000000E+02 0.  0.
<mgrwt>
<rscale>  0 0.28278707E+03</rscale>
<asrwt>0</asrwt>
<pdfrwt beam="1">  1        2 0.76589740E-01 0.28278707E+03</pdfrwt>
<pdfrwt beam="2">  1       -2 0.53271196E-02 0.28278707E+03</pdfrwt>
<totfact> 0.11068947E+04</totfact>
</mgrwt>
</event>
<event>
 4    1  0.1305170E-003  0.1893506E+03  0.7818608E-02  0.1159048E+00
          2   -1    0    0  501    0  0.00000000000E+00  0.00000000000E+00  0.39031248714E+02  0.39031248797E+02  0.25500000000E-02 0.  1.
         -2   -1    0    0    0  501 -0.00000000000E+00 -0.00000000000E+00 -0.22964716710E+03  0.22964716711E+03  0.25500000000E-02 0. -1.
    5000001    1    1    2    0    0 -0.16611143302E+02 -0.41436653352E+02 -0.14110036262E+03  0.16682697220E+03  0.77000000000E+02 0.  0.
   -5000001    1    1    2    0    0  0.16611143302E+02  0.41436653352E+02 -0.49515555768E+02  0.10185144371E+03  0.77000000000E+02 0.  0.
<mgrwt>
<rscale>  0 0.18935063E+03</rscale>
<asrwt>0</asrwt>
<pdfrwt beam="1">  1        2 0.55758928E-02 0.18935063E+03</pdfrwt>
<pdfrwt beam="2">  1       -2 0.32806738E-01 0.18935063E+03</pdfrwt>
<totfact> 0.11363757E+04</totfact>
</mgrwt>
</event>
<event>
 4    1  0.1305170E-003  0.2253538E+03  0.7818608E-02  0.1129953E+00
         -2   -1    0    0    0  501 -0.00000000000E+00  0.00000000000E+00  0.21318121102E+03  0.21318121104E+03  0.25500000000E-02 0. -1.
          2   -1    0    0  501    0  0.00000000000E+00 -0.00000000000E+00 -0.59555355494E+02  0.59555355549E+02  0.25500000000E-02 0.  1.
    5000001    1    1    2    0    0  0.56991601516E+02  0.20366681015E+02  0.14424337480E+03  0.17435020939E+03  0.77000000000E+02 0.  0.
   -5000001    1    1    2    0    0 -0.56991601516E+02 -0.20366681015E+02  0.93824807298E+01  0.98386357203E+02  0.77000000000E+02 0.  0.
<mgrwt>
<rscale>  0 0.22535379E+03</rscale>
<asrwt>0</asrwt>
<pdfrwt beam="1">  1        2 0.85079078E-02 0.22535379E+03</pdfrwt>
<pdfrwt beam="2">  1       -2 0.30454459E-01 0.22535379E+03</pdfrwt>
<totfact> 0.76585566E+03</totfact>
</mgrwt>
</event>
<event>
 4    1  0.1305170E-003  0.1824700E+03  0.7818608E-02  0.1165434E+00
         -2   -1    0    0    0  501 -0.00000000000E+00  0.00000000000E+00  0.19495433318E+01  0.19495449995E+01  0.25500000000E-02 0. -1.
          2   -1    0    0  501    0  0.00000000000E+00 -0.00000000000E+00 -0.42696274142E+04  0.42696274142E+04  0.25500000000E-02 0.  1.
    5000001    1    1    2    0    0 -0.37856229543E+02  0.20072605200E+02 -0.15804453896E+04  0.15829000705E+04  0.77000000000E+02 0.  0.
   -5000001    1    1    2    0    0  0.37856229543E+02 -0.20072605200E+02 -0.26872324813E+04  0.26886768888E+04  0.77000000000E+02 0.  0.
<mgrwt>
<rscale>  0 0.18247002E+03</rscale>
<asrwt>0</asrwt>
<pdfrwt beam="1">  1        2 0.60994078E+00 0.18247002E+03</pdfrwt>
<pdfrwt beam="2">  1       -2 0.27850905E-03 0.18247002E+03</pdfrwt>
<totfact> 0.64544229E+03</totfact>
</mgrwt>
</event>
<event>
 4    1  0.1305170E-003  0.2858653E+03  0.7818608E-02  0.1092528E+00
         -2   -1    0    0    0  501 -0.00000000000E+00  0.00000000000E+00  0.12912309324E+03  0.12912309327E+03  0.25500000000E-02 0. -1.
          2   -1    0    0  501    0  0.00000000000E+00 -0.00000000000E+00 -0.15821908269E+03  0.15821908271E+03  0.25500000000E-02 0.  1.
    5000001    1    1    2    0    0  0.97563728789E+02  0.64438774559E+02 -0.43501334883E+02  0.14660287507E+03  0.77000000000E+02 0.  0.
   -5000001    1    1    2    0    0 -0.97563728789E+02 -0.64438774559E+02  0.14405345436E+02  0.14073930090E+03  0.77000000000E+02 0.  0.
<mgrwt>
<rscale>  0 0.28586526E+03</rscale>
<asrwt>0</asrwt>
<pdfrwt beam="1">  1        2 0.22602726E-01 0.28586526E+03</pdfrwt>
<pdfrwt beam="2">  1       -2 0.18446156E-01 0.28586526E+03</pdfrwt>
<totfact> 0.57937814E+03</totfact>
</mgrwt>
</event>
<event>
 4    1  0.1305170E-003  0.2393710E+03  0.7818608E-02  0.1120213E+00
          2   -1    0    0  501    0  0.00000000000E+00  0.00000000000E+00  0.23744845963E+04  0.23744845963E+04  0.25500000000E-02 0.  1.
         -2   -1    0    0    0  501 -0.00000000000E+00 -0.00000000000E+00 -0.60327260533E+01  0.60327265922E+01  0.25500000000E-02 0. -1.
    5000001    1    1    2    0    0 -0.55995633948E+02  0.70447250949E+02  0.10127553315E+04  0.10196571423E+04  0.77000000000E+02 0.  0.
   -5000001    1    1    2    0    0  0.55995633948E+02 -0.70447250949E+02  0.13556965387E+04  0.13608601806E+04  0.77000000000E+02 0.  0.
<mgrwt>
<rscale>  0 0.23937097E+03</rscale>
<asrwt>0</asrwt>
<pdfrwt beam="1">  1        2 0.33921280E+00 0.23937097E+03</pdfrwt>
<pdfrwt beam="2">  1       -2 0.86181623E-03 0.23937097E+03</pdfrwt>
<totfact> 0.15265847E+04</totfact>
</mgrwt>
</event>
<event>
 4    1  0.1305170E-003  0.2029817E+03  0.7818608E-02  0.1147247E+00
          2   -1    0    0  501    0  0.00000000000E+00  0.00000000000E+00  0.15092108406E+03  0.15092108409E+03  0.25500000000E-02 0.  1.
         -2   -1    0    0    0  501 -0.00000000000E+00 -0.00000000000E+00 -0.68250173765E+02  0.68250173813E+02  0.25500000000E-02 0. -1.
    5000001    1    1    2    0    0  0.40436562695E+02  0.50422426953E+02  0.56369074974E+02  0.11525627686E+03  0.77000000000E+02 0.  0.
   -5000001    1    1    2    0    0 -0.40436562695E+02 -0.50422426953E+02  0.26301835324E+02  0.10391498104E+03  0.77000000000E+02 0.  0.
<mgrwt>
<rscale>  0 0.20298168E+03</rscale>
<asrwt>0</asrwt>
<pdfrwt beam="1">  1        2 0.21560155E-01 0.20298168E+03</pdfrwt>
<pdfrwt beam="2">  1       -2 0.97500247E-02 0.20298168E+03</pdfrwt>
<totfact> 0.16980064E+04</totfact>
</mgrwt>
</event>
<event>
 4    1  0.1305170E-003  0.1731726E+03  0.7818608E-02  0.1174579E+00
          2   -1    0    0  501    0  0.00000000000E+00  0.00000000000E+00  0.16661461022E+02  0.16661461218E+02  0.25500000000E-02 0.  1.
         -2   -1    0    0    0  501 -0.00000000000E+00 -0.00000000000E+00 -0.44997183620E+03  0.44997183620E+03  0.25500000000E-02 0. -1.
    5000001    1    1    2    0    0  0.19377964152E+02  0.16303997714E+02 -0.13461924759E+03  0.15713900743E+03  0.77000000000E+02 0.  0.
   -5000001    1    1    2    0    0 -0.19377964152E+02 -0.16303997714E+02 -0.29869112759E+03  0.30949428999E+03  0.77000000000E+02 0.  0.
<mgrwt>
<rscale>  0 0.17317261E+03</rscale>
<asrwt>0</asrwt>
<pdfrwt beam="1">  1        2 0.23802090E-02 0.17317261E+03</pdfrwt>
<pdfrwt beam="2">  1       -2 0.64281683E-01 0.17317261E+03</pdfrwt>
<totfact> 0.94512193E+03</totfact>
</mgrwt>
</event>
<event>
 4    1  0.1305170E-003  0.4220348E+03  0.7818608E-02  0.1036406E+00
          2   -1    0    0  501    0  0.00000000000E+00  0.00000000000E+00  0.13004092127E+04  0.13004092127E+04  0.25500000000E-02 0.  1.
         -2   -1    0    0    0  501 -0.00000000000E+00 -0.00000000000E+00 -0.34241794086E+02  0.34241794181E+02  0.25500000000E-02 0. -1.
    5000001    1    1    2    0    0 -0.18028846941E+03  0.65509509183E+02  0.76739968487E+03  0.79474946011E+03  0.77000000000E+02 0.  0.
   -5000001    1    1    2    0    0  0.18028846941E+03 -0.65509509183E+02  0.49876773377E+03  0.53990154681E+03  0.77000000000E+02 0.  0.
<mgrwt>
<rscale>  0 0.42203481E+03</rscale>
<asrwt>0</asrwt>
<pdfrwt beam="1">  1        2 0.18577271E+00 0.42203481E+03</pdfrwt>
<pdfrwt beam="2">  1       -2 0.48916859E-02 0.42203481E+03</pdfrwt>
<totfact> 0.40224741E+03</totfact>
</mgrwt>
</event>
<event>
 4    1  0.1305170E-003  0.2268974E+03  0.7818608E-02  0.1128843E+00
         -2   -1    0    0    0  501 -0.00000000000E+00  0.00000000000E+00  0.43892849820E+01  0.43892857228E+01  0.25500000000E-02 0. -1.
          2   -1    0    0  501    0  0.00000000000E+00 -0.00000000000E+00 -0.29322775306E+04  0.29322775306E+04  0.25500000000E-02 0.  1.
    5000001    1    1    2    0    0  0.21016929797E+02  0.67541234600E+02 -0.89416003881E+03  0.90025257829E+03  0.77000000000E+02 0.  0.
   -5000001    1    1    2    0    0 -0.21016929797E+02 -0.67541234600E+02 -0.20337282068E+04  0.20364142381E+04  0.77000000000E+02 0.  0.
<mgrwt>
<rscale>  0 0.22689736E+03</rscale>
<asrwt>0</asrwt>
<pdfrwt beam="1">  1        2 0.41889553E+00 0.22689736E+03</pdfrwt>
<pdfrwt beam="2">  1       -2 0.62704264E-03 0.22689736E+03</pdfrwt>
<totfact> 0.12611364E+04</totfact>
</mgrwt>
</event>
<event>
 4    1  0.1305170E-003  0.1684130E+03  0.7818608E-02  0.1179513E+00
         -2   -1    0    0    0  501 -0.00000000000E+00  0.00000000000E+00  0.11217534425E+02  0.11217534715E+02  0.25500000000E-02 0. -1.
          2   -1    0    0  501    0  0.00000000000E+00 -0.00000000000E+00 -0.63211156889E+03  0.63211156889E+03  0.25500000000E-02 0.  1.
    5000001    1    1    2    0    0 -0.18057826759E+02  0.26860140511E+02 -0.26962872953E+03  0.28226973632E+03  0.77000000000E+02 0.  0.
   -5000001    1    1    2    0    0  0.18057826759E+02 -0.26860140511E+02 -0.35126530493E+03  0.36105936729E+03  0.77000000000E+02 0.  0.
<mgrwt>
<rscale>  0 0.16841299E+03</rscale>
<asrwt>0</asrwt>
<pdfrwt beam="1">  1        2 0.90301630E-01 0.16841299E+03</pdfrwt>
<pdfrwt beam="2">  1       -2 0.16025053E-02 0.16841299E+03</pdfrwt>
<totfact> 0.52682817E+04</totfact>
</mgrwt>
</event>
<event>
 4    1  0.1305170E-003  0.2918349E+03  0.7818608E-02  0.1089395E+00
          2   -1    0    0  501    0  0.00000000000E+00  0.00000000000E+00  0.29836062219E+03  0.29836062221E+03  0.25500000000E-02 0.  1.
         -2   -1    0    0    0  501 -0.00000000000E+00 -0.00000000000E+00 -0.71362997865E+02  0.71362997910E+02  0.25500000000E-02 0. -1.
    5000001    1    1    2    0    0  0.99071760409E+02 -0.15228881614E+02  0.20586717333E+03  0.24157281635E+03  0.77000000000E+02 0.  0.
   -5000001    1    1    2    0    0 -0.99071760409E+02  0.15228881614E+02  0.21130451001E+02  0.12815080376E+03  0.77000000000E+02 0.  0.
<mgrwt>
<rscale>  0 0.29183494E+03</rscale>
<asrwt>0</asrwt>
<pdfrwt beam="1">  1        2 0.42622946E-01 0.29183494E+03</pdfrwt>
<pdfrwt beam="2">  1       -2 0.10194714E-01 0.29183494E+03</pdfrwt>
<totfact> 0.76357429E+03</totfact>
</mgrwt>
</event>
<event>
 4    1  0.1305170E-003  0.2093810E+03  0.7818608E-02  0.1142057E+00
          2   -1    0    0  501    0  0.00000000000E+00  0.00000000000E+00  0.20693634845E+04  0.20693634845E+04  0.25500000000E-02 0.  1.
         -2   -1    0    0    0  501 -0.00000000000E+00 -0.00000000000E+00 -0.52963645748E+01  0.52963651887E+01  0.25500000000E-02 0. -1.
    5000001    1    1    2    0    0 -0.70120755992E+02  0.57700160317E+01  0.11211501483E+04  0.11259915047E+04  0.77000000000E+02 0.  0.
   -5000001    1    1    2    0    0  0.70120755992E+02 -0.57700160317E+01  0.94291697154E+03  0.94866834496E+03  0.77000000000E+02 0.  0.
<mgrwt>
<rscale>  0 0.20938103E+03</rscale>
<asrwt>0</asrwt>
<pdfrwt beam="1">  1        2 0.29562259E+00 0.20938103E+03</pdfrwt>
<pdfrwt beam="2">  1       -2 0.75662552E-03 0.20938103E+03</pdfrwt>
<totfact> 0.25808233E+04</totfact>
</mgrwt>
</event>
<event>
 4    1  0.1305170E-003  0.9307638E+03  0.7818608E-02  0.9387922E-01
         -2   -1    0    0    0  501 -0.00000000000E+00  0.00000000000E+00  0.86140916158E+03  0.86140916159E+03  0.25500000000E-02 0. -1.
          2   -1    0    0  501    0  0.00000000000E+00 -0.00000000000E+00 -0.25142559724E+03  0.25142559725E+03  0.25500000000E-02 0.  1.
    5000001    1    1    2    0    0 -0.27061267037E+03 -0.41927737775E+02  0.74536465912E+03  0.79780112034E+03  0.77000000000E+02 0.  0.
   -5000001    1    1    2    0    0  0.27061267037E+03  0.41927737775E+02 -0.13538109477E+03  0.31503363849E+03  0.77000000000E+02 0.  0.
<mgrwt>
<rscale>  0 0.93076380E+03</rscale>
<asrwt>0</asrwt>
<pdfrwt beam="1">  1        2 0.35917942E-01 0.93076380E+03</pdfrwt>
<pdfrwt beam="2">  1       -2 0.12305845E+00 0.93076380E+03</pdfrwt>
<totfact> 0.72583188E+01</totfact>
</mgrwt>
</event>
<event>
 4    1  0.1305170E-003  0.2549272E+03  0.7818608E-02  0.1110230E+00
          2   -1    0    0  501    0  0.00000000000E+00  0.00000000000E+00  0.59558892594E+02  0.59558892648E+02  0.25500000000E-02 0.  1.
         -2   -1    0    0    0  501 -0.00000000000E+00 -0.00000000000E+00 -0.27278824985E+03  0.27278824986E+03  0.25500000000E-02 0. -1.
    5000001    1    1    2    0    0 -0.80607737561E+02 -0.42301698444E+02 -0.16536669328E+03  0.20386805608E+03  0.77000000000E+02 0.  0.
   -5000001    1    1    2    0    0  0.80607737561E+02  0.42301698444E+02 -0.47862663981E+02  0.12847908643E+03  0.77000000000E+02 0.  0.
<mgrwt>
<rscale>  0 0.25492717E+03</rscale>
<asrwt>0</asrwt>
<pdfrwt beam="1">  1        2 0.85084134E-02 0.25492717E+03</pdfrwt>
<pdfrwt beam="2">  1       -2 0.38969749E-01 0.25492717E+03</pdfrwt>
<totfact> 0.48750816E+03</totfact>
</mgrwt>
</event>
<event>
 4    1  0.1305170E-003  0.1948677E+03  0.7818608E-02  0.1154143E+00
          2   -1    0    0  501    0  0.00000000000E+00  0.00000000000E+00  0.23195829683E+02  0.23195829823E+02  0.25500000000E-02 0.  1.
         -2   -1    0    0    0  501 -0.00000000000E+00 -0.00000000000E+00 -0.40926990249E+03  0.40926990250E+03  0.25500000000E-02 0. -1.
    5000001    1    1    2    0    0 -0.45619299951E+02  0.25634371959E+02 -0.12925010854E+03  0.15928851845E+03  0.77000000000E+02 0.  0.
   -5000001    1    1    2    0    0  0.45619299951E+02 -0.25634371959E+02 -0.25682396428E+03  0.27317721388E+03  0.77000000000E+02 0.  0.
<mgrwt>
<rscale>  0 0.19486770E+03</rscale>
<asrwt>0</asrwt>
<pdfrwt beam="1">  1        2 0.33136902E-02 0.19486770E+03</pdfrwt>
<pdfrwt beam="2">  1       -2 0.58467125E-01 0.19486770E+03</pdfrwt>
<totfact> 0.74143472E+03</totfact>
</mgrwt>
</event>
<event>
 4    1  0.1305170E-003  0.3586660E+03  0.7818608E-02  0.1059113E+00
         -2   -1    0    0    0  501 -0.00000000000E+00  0.00000000000E+00  0.79264506107E+02  0.79264506148E+02  0.25500000000E-02 0. -1.
          2   -1    0    0  501    0  0.00000000000E+00 -0.00000000000E+00 -0.40573415629E+03  0.40573415630E+03  0.25500000000E-02 0.  1.
    5000001    1    1    2    0    0  0.16171661252E+03 -0.65037652331E+01 -0.17143292651E+03  0.24801776150E+03  0.77000000000E+02 0.  0.
   -5000001    1    1    2    0    0 -0.16171661252E+03  0.65037652331E+01 -0.15503672367E+03  0.23698090095E+03  0.77000000000E+02 0.  0.
<mgrwt>
<rscale>  0 0.35866596E+03</rscale>
<asrwt>0</asrwt>
<pdfrwt beam="1">  1        2 0.57962021E-01 0.35866596E+03</pdfrwt>
<pdfrwt beam="2">  1       -2 0.11323501E-01 0.35866596E+03</pdfrwt>
<totfact> 0.46525483E+03</totfact>
</mgrwt>
</event>
<event>
 4    1  0.1305170E-003  0.2523303E+03  0.7818608E-02  0.1111841E+00
          2   -1    0    0  501    0  0.00000000000E+00  0.00000000000E+00  0.28780428926E+03  0.28780428927E+03  0.25500000000E-02 0.  1.
         -2   -1    0    0    0  501 -0.00000000000E+00 -0.00000000000E+00 -0.55307185065E+02  0.55307185124E+02  0.25500000000E-02 0. -1.
    5000001    1    1    2    0    0 -0.10353770153E+02  0.77903721339E+02  0.20020773171E+03  0.22844764431E+03  0.77000000000E+02 0.  0.
   -5000001    1    1    2    0    0  0.10353770153E+02 -0.77903721339E+02  0.32289372491E+02  0.11466383009E+03  0.77000000000E+02 0.  0.
<mgrwt>
<rscale>  0 0.25233030E+03</rscale>
<asrwt>0</asrwt>
<pdfrwt beam="1">  1        2 0.41114899E-01 0.25233030E+03</pdfrwt>
<pdfrwt beam="2">  1       -2 0.79010264E-02 0.25233030E+03</pdfrwt>
<totfact> 0.11785233E+04</totfact>
</mgrwt>
</event>
<event>
 4    1  0.1305170E-003  0.7137907E+03  0.7818608E-02  0.9693935E-01
         -2   -1    0    0    0  501 -0.00000000000E+00  0.00000000000E+00  0.19952741582E+03  0.19952741584E+03  0.25500000000E-02 0.  1.
          2   -1    0    0  501    0  0.00000000000E+00 -0.00000000000E+00 -0.63837986842E+03  0.63837986842E+03  0.25500000000E-02 0. -1.
    5000001    1    1    2    0    0 -0.22777536996E+03  0.56800650387E+01  0.90112924453E+02  0.25683306145E+03  0.77000000000E+02 0.  0.
   -5000001    1    1    2    0    0  0.22777536996E+03 -0.56800650387E+01 -0.52896537705E+03  0.58107422281E+03  0.77000000000E+02 0.  0.
<mgrwt>
<rscale>  0 0.71379068E+03</rscale>
<asrwt>0</asrwt>
<pdfrwt beam="1">  1        2 0.91197123E-01 0.71379068E+03</pdfrwt>
<pdfrwt beam="2">  1       -2 0.28503917E-01 0.71379068E+03</pdfrwt>
<totfact> 0.57019748E+02</totfact>
</mgrwt>
</event>
<event>
 4    1  0.1305170E-003  0.2209111E+03  0.7818608E-02  0.1133206E+00
          2   -1    0    0  501    0  0.00000000000E+00  0.00000000000E+00  0.28404579292E+03  0.28404579293E+03  0.25500000000E-02 0.  1.
         -2   -1    0    0    0  501 -0.00000000000E+00 -0.00000000000E+00 -0.42952317979E+02  0.42952318054E+02  0.25500000000E-02 0. -1.
    5000001    1    1    2    0    0  0.61458574242E+02 -0.33189904295E+02  0.17578708695E+03  0.20422738806E+03  0.77000000000E+02 0.  0.
   -5000001    1    1    2    0    0 -0.61458574242E+02  0.33189904295E+02  0.65306387986E+02  0.12277072292E+03  0.77000000000E+02 0.  0.
<mgrwt>
<rscale>  0 0.22091107E+03</rscale>
<asrwt>0</asrwt>
<pdfrwt beam="1">  1        2 0.40577970E-01 0.22091107E+03</pdfrwt>
<pdfrwt beam="2">  1       -2 0.61360454E-02 0.22091107E+03</pdfrwt>
<totfact> 0.17525436E+04</totfact>
</mgrwt>
</event>
<event>
 4    1  0.1305170E-003  0.2481752E+03  0.7818608E-02  0.1114464E+00
          2   -1    0    0  501    0  0.00000000000E+00  0.00000000000E+00  0.14610494085E+04  0.14610494085E+04  0.25500000000E-02 0.  1.
         -2   -1    0    0    0  501 -0.00000000000E+00 -0.00000000000E+00 -0.10538813555E+02  0.10538813863E+02  0.25500000000E-02 0. -1.
    5000001    1    1    2    0    0  0.90317747251E+02  0.10770903314E+02  0.52023908834E+03  0.53371435887E+03  0.77000000000E+02 0.  0.
   -5000001    1    1    2    0    0 -0.90317747251E+02 -0.10770903314E+02  0.93027150663E+03  0.93787386352E+03  0.77000000000E+02 0.  0.
<mgrwt>
<rscale>  0 0.24817516E+03</rscale>
<asrwt>0</asrwt>
<pdfrwt beam="1">  1        2 0.20872124E+00 0.24817516E+03</pdfrwt>
<pdfrwt beam="2">  1       -2 0.15055455E-02 0.24817516E+03</pdfrwt>
<totfact> 0.19062976E+04</totfact>
</mgrwt>
</event>
<event>
 4    1  0.1305170E-003  0.1913760E+03  0.7818608E-02  0.1157226E+00
         -2   -1    0    0    0  501 -0.00000000000E+00  0.00000000000E+00  0.72026281007E+01  0.72026285521E+01  0.25500000000E-02 0. -1.
          2   -1    0    0  501    0  0.00000000000E+00 -0.00000000000E+00 -0.12712297340E+04  0.12712297340E+04  0.25500000000E-02 0.  1.
    5000001    1    1    2    0    0  0.48240839824E+02 -0.27666626666E+02 -0.70950816732E+03  0.71583759356E+03  0.77000000000E+02 0.  0.
   -5000001    1    1    2    0    0 -0.48240839824E+02  0.27666626666E+02 -0.55451893854E+03  0.56259476896E+03  0.77000000000E+02 0.  0.
<mgrwt>
<rscale>  0 0.19137602E+03</rscale>
<asrwt>0</asrwt>
<pdfrwt beam="1">  1        2 0.18160410E+00 0.19137602E+03</pdfrwt>
<pdfrwt beam="2">  1       -2 0.10289477E-02 0.19137602E+03</pdfrwt>
<totfact> 0.40850373E+04</totfact>
</mgrwt>
</event>
<event>
 4    1  0.1305170E-003  0.3586453E+03  0.7818608E-02  0.1059122E+00
         -2   -1    0    0    0  501 -0.00000000000E+00  0.00000000000E+00  0.11733331535E+03  0.11733331538E+03  0.25500000000E-02 0. -1.
          2   -1    0    0  501    0  0.00000000000E+00 -0.00000000000E+00 -0.27406206797E+03  0.27406206798E+03  0.25500000000E-02 0.  1.
    5000001    1    1    2    0    0 -0.13410136453E+03 -0.90572032572E+02 -0.85364299520E+02  0.19850071205E+03  0.77000000000E+02 0.  0.
   -5000001    1    1    2    0    0  0.13410136453E+03  0.90572032572E+02 -0.71364453103E+02  0.19289467131E+03  0.77000000000E+02 0.  0.
<mgrwt>
<rscale>  0 0.35864529E+03</rscale>
<asrwt>0</asrwt>
<pdfrwt beam="1">  1        2 0.39151724E-01 0.35864529E+03</pdfrwt>
<pdfrwt beam="2">  1       -2 0.16761902E-01 0.35864529E+03</pdfrwt>
<totfact> 0.37336477E+03</totfact>
</mgrwt>
</event>
<event>
 4    1  0.1305170E-003  0.4244380E+03  0.7818608E-02  0.1035631E+00
          2   -1    0    0  501    0  0.00000000000E+00  0.00000000000E+00  0.18728065507E+04  0.18728065507E+04  0.25500000000E-02 0.  1.
         -2   -1    0    0    0  501 -0.00000000000E+00 -0.00000000000E+00 -0.24047817755E+02  0.24047817890E+02  0.25500000000E-02 0. -1.
    5000001    1    1    2    0    0  0.65014433636E+02  0.82153932588E+02  0.16739597136E+04  0.16790015688E+04  0.77000000000E+02 0.  0.
   -5000001    1    1    2    0    0 -0.65014433636E+02 -0.82153932588E+02  0.17479901935E+03  0.21785279981E+03  0.77000000000E+02 0.  0.
<mgrwt>
<rscale>  0 0.42443803E+03</rscale>
<asrwt>0</asrwt>
<pdfrwt beam="1">  1        2 0.26754384E+00 0.42443803E+03</pdfrwt>
<pdfrwt beam="2">  1       -2 0.34354020E-02 0.42443803E+03</pdfrwt>
<totfact> 0.35165214E+03</totfact>
</mgrwt>
</event>
<event>
 4    1  0.1305170E-003  0.1946230E+03  0.7818608E-02  0.1154357E+00
          2   -1    0    0  501    0  0.00000000000E+00  0.00000000000E+00  0.29043393974E+04  0.29043393974E+04  0.25500000000E-02 0.  1.
         -2   -1    0    0    0  501 -0.00000000000E+00 -0.00000000000E+00 -0.32604765092E+01  0.32604775063E+01  0.25500000000E-02 0. -1.
    5000001    1    1    2    0    0  0.29803017800E+01  0.55013901717E+02  0.11147726373E+04  0.11187861478E+04  0.77000000000E+02 0.  0.
   -5000001    1    1    2    0    0 -0.29803017800E+01 -0.55013901717E+02  0.17863062835E+04  0.17888137271E+04  0.77000000000E+02 0.  0.
<mgrwt>
<rscale>  0 0.19462304E+03</rscale>
<asrwt>0</asrwt>
<pdfrwt beam="1">  1        2 0.41490669E+00 0.19462304E+03</pdfrwt>
<pdfrwt beam="2">  1       -2 0.46578124E-03 0.19462304E+03</pdfrwt>
<totfact> 0.19898826E+04</totfact>
</mgrwt>
</event>
<event>
 4    1  0.1305170E-003  0.2585574E+03  0.7818608E-02  0.1108013E+00
          2   -1    0    0  501    0  0.00000000000E+00  0.00000000000E+00  0.71341938134E+03  0.71341938134E+03  0.25500000000E-02 0.  1.
         -2   -1    0    0    0  501 -0.00000000000E+00 -0.00000000000E+00 -0.23426589681E+02  0.23426589820E+02  0.25500000000E-02 0. -1.
    5000001    1    1    2    0    0 -0.48091733907E+02  0.72717261628E+02  0.50578792439E+03  0.51899040402E+03  0.77000000000E+02 0.  0.
   -5000001    1    1    2    0    0  0.48091733907E+02 -0.72717261628E+02  0.18420486727E+03  0.21785556714E+03  0.77000000000E+02 0.  0.
<mgrwt>
<rscale>  0 0.25855741E+03</rscale>
<asrwt>0</asrwt>
<pdfrwt beam="1">  1        2 0.10191703E+00 0.25855741E+03</pdfrwt>
<pdfrwt beam="2">  1       -2 0.33466565E-02 0.25855741E+03</pdfrwt>
<totfact> 0.15993165E+04</totfact>
</mgrwt>
</event>
<event>
 4    1  0.1305170E-003  0.2658383E+03  0.7818608E-02  0.1103685E+00
          2   -1    0    0  501    0  0.00000000000E+00  0.00000000000E+00  0.11069268990E+03  0.11069268993E+03  0.25500000000E-02 0.  1.
         -2   -1    0    0    0  501 -0.00000000000E+00 -0.00000000000E+00 -0.15960860655E+03  0.15960860657E+03  0.25500000000E-02 0. -1.
    5000001    1    1    2    0    0  0.97390336562E+02 -0.44214323750E+01 -0.72517519343E+02  0.14384789651E+03  0.77000000000E+02 0.  0.
   -5000001    1    1    2    0    0 -0.97390336562E+02  0.44214323750E+01  0.23601602694E+02  0.12645339999E+03  0.77000000000E+02 0.  0.
<mgrwt>
<rscale>  0 0.26583834E+03</rscale>
<asrwt>0</asrwt>
<pdfrwt beam="1">  1        2 0.15813242E-01 0.26583834E+03</pdfrwt>
<pdfrwt beam="2">  1       -2 0.22801229E-01 0.26583834E+03</pdfrwt>
<totfact> 0.60626623E+03</totfact>
</mgrwt>
</event>
<event>
 4    1  0.1305170E-003  0.2317515E+03  0.7818608E-02  0.1125413E+00
         -2   -1    0    0    0  501 -0.00000000000E+00  0.00000000000E+00  0.12642578777E+03  0.12642578780E+03  0.25500000000E-02 0. -1.
          2   -1    0    0  501    0  0.00000000000E+00 -0.00000000000E+00 -0.10620610498E+03  0.10620610501E+03  0.25500000000E-02 0.  1.
    5000001    1    1    2    0    0  0.79351686109E+02 -0.20397580825E+02  0.38241992588E+02  0.11876111059E+03  0.77000000000E+02 0.  0.
   -5000001    1    1    2    0    0 -0.79351686109E+02  0.20397580825E+02 -0.18022309792E+02  0.11387078221E+03  0.77000000000E+02 0.  0.
<mgrwt>
<rscale>  0 0.23175151E+03</rscale>
<asrwt>0</asrwt>
<pdfrwt beam="1">  1        2 0.15172301E-01 0.23175151E+03</pdfrwt>
<pdfrwt beam="2">  1       -2 0.18060827E-01 0.23175151E+03</pdfrwt>
<totfact> 0.94242457E+03</totfact>
</mgrwt>
</event>
<event>
 4    1  0.1305170E-003  0.3526705E+03  0.7818608E-02  0.1061524E+00
          2   -1    0    0  501    0  0.00000000000E+00  0.00000000000E+00  0.28222349387E+04  0.28222349387E+04  0.25500000000E-02 0.  1.
         -2   -1    0    0    0  501 -0.00000000000E+00 -0.00000000000E+00 -0.11017549933E+02  0.11017550228E+02  0.25500000000E-02 0. -1.
    5000001    1    1    2    0    0 -0.37637633918E+02  0.73920195548E+02  0.24919234686E+04  0.24944924053E+04  0.77000000000E+02 0.  0.
   -5000001    1    1    2    0    0  0.37637633918E+02 -0.73920195548E+02  0.31929392015E+03  0.33876008360E+03  0.77000000000E+02 0.  0.
<mgrwt>
<rscale>  0 0.35267047E+03</rscale>
<asrwt>0</asrwt>
<pdfrwt beam="1">  1        2 0.40317707E+00 0.35267047E+03</pdfrwt>
<pdfrwt beam="2">  1       -2 0.15739332E-02 0.35267047E+03</pdfrwt>
<totfact> 0.37659524E+03</totfact>
</mgrwt>
</event>
<event>
 4    1  0.1305170E-003  0.3087465E+03  0.7818608E-02  0.1080948E+00
         -2   -1    0    0    0  501 -0.00000000000E+00  0.00000000000E+00  0.18308183544E+02  0.18308183721E+02  0.25500000000E-02 0. -1.
          2   -1    0    0  501    0  0.00000000000E+00 -0.00000000000E+00 -0.13016639554E+04  0.13016639554E+04  0.25500000000E-02 0.  1.
    5000001    1    1    2    0    0  0.96451230877E+02  0.69999597593E+02 -0.90170797120E+03  0.91280285326E+03  0.77000000000E+02 0.  0.
   -5000001    1    1    2    0    0 -0.96451230877E+02 -0.69999597593E+02 -0.38164780063E+03  0.40716928584E+03  0.77000000000E+02 0.  0.
<mgrwt>
<rscale>  0 0.30874652E+03</rscale>
<asrwt>0</asrwt>
<pdfrwt beam="1">  1        2 0.18595193E+00 0.30874652E+03</pdfrwt>
<pdfrwt beam="2">  1       -2 0.26154556E-02 0.30874652E+03</pdfrwt>
<totfact> 0.10292908E+04</totfact>
</mgrwt>
</event>
<event>
 4    1  0.1305170E-003  0.2435137E+03  0.7818608E-02  0.1117474E+00
          2   -1    0    0  501    0  0.00000000000E+00  0.00000000000E+00  0.15017480304E+04  0.15017480304E+04  0.25500000000E-02 0.  1.
         -2   -1    0    0    0  501 -0.00000000000E+00 -0.00000000000E+00 -0.98716535180E+01  0.98716538474E+01  0.25500000000E-02 0. -1.
    5000001    1    1    2    0    0  0.84785574379E+02 -0.20508151753E+02  0.96859389605E+03  0.97555743725E+03  0.77000000000E+02 0.  0.
   -5000001    1    1    2    0    0 -0.84785574379E+02  0.20508151753E+02  0.52328248084E+03  0.53606224700E+03  0.77000000000E+02 0.  0.
<mgrwt>
<rscale>  0 0.24351375E+03</rscale>
<asrwt>0</asrwt>
<pdfrwt beam="1">  1        2 0.21453559E+00 0.24351375E+03</pdfrwt>
<pdfrwt beam="2">  1       -2 0.14102352E-02 0.24351375E+03</pdfrwt>
<totfact> 0.19985998E+04</totfact>
</mgrwt>
</event>
<event>
 4    1  0.1305170E-003  0.2367094E+03  0.7818608E-02  0.1122005E+00
         -2   -1    0    0    0  501 -0.00000000000E+00  0.00000000000E+00  0.91895680450E+01  0.91895683988E+01  0.25500000000E-02 0. -1.
          2   -1    0    0  501    0  0.00000000000E+00 -0.00000000000E+00 -0.15243189750E+04  0.15243189750E+04  0.25500000000E-02 0.  1.
    5000001    1    1    2    0    0  0.51823015134E+02  0.72278877420E+02 -0.84177755033E+03  0.84995782558E+03  0.77000000000E+02 0.  0.
   -5000001    1    1    2    0    0 -0.51823015134E+02 -0.72278877420E+02 -0.67335185664E+03  0.68355071784E+03  0.77000000000E+02 0.  0.
<mgrwt>
<rscale>  0 0.23670938E+03</rscale>
<asrwt>0</asrwt>
<pdfrwt beam="1">  1        2 0.21775969E+00 0.23670938E+03</pdfrwt>
<pdfrwt beam="2">  1       -2 0.13127964E-02 0.23670938E+03</pdfrwt>
<totfact> 0.21583840E+04</totfact>
</mgrwt>
</event>
<event>
 4    1  0.1305170E-003  0.2006281E+03  0.7818608E-02  0.1149210E+00
         -2   -1    0    0    0  501 -0.00000000000E+00  0.00000000000E+00  0.50647092519E+01  0.50647098939E+01  0.25500000000E-02 0. -1.
          2   -1    0    0  501    0  0.00000000000E+00 -0.00000000000E+00 -0.19868670029E+04  0.19868670029E+04  0.25500000000E-02 0.  1.
    5000001    1    1    2    0    0 -0.27631137577E+02  0.52109155076E+02 -0.73679013050E+03  0.74314705154E+03  0.77000000000E+02 0.  0.
   -5000001    1    1    2    0    0  0.27631137577E+02 -0.52109155076E+02 -0.12450121631E+04  0.12487846612E+04  0.77000000000E+02 0.  0.
<mgrwt>
<rscale>  0 0.20062806E+03</rscale>
<asrwt>0</asrwt>
<pdfrwt beam="1">  1        2 0.28383764E+00 0.20062806E+03</pdfrwt>
<pdfrwt beam="2">  1       -2 0.72353121E-03 0.20062806E+03</pdfrwt>
<totfact> 0.30100123E+04</totfact>
</mgrwt>
</event>
<event>
 4    1  0.1305170E-003  0.4101454E+03  0.7818608E-02  0.1040322E+00
         -2   -1    0    0    0  501 -0.00000000000E+00  0.00000000000E+00  0.70650925814E+02  0.70650925860E+02  0.25500000000E-02 0. -1.
          2   -1    0    0  501    0  0.00000000000E+00 -0.00000000000E+00 -0.59524798426E+03  0.59524798427E+03  0.25500000000E-02 0.  1.
    5000001    1    1    2    0    0  0.18825323947E+03 -0.24944969870E+02 -0.24928084622E+03  0.32269408731E+03  0.77000000000E+02 0.  0.
   -5000001    1    1    2    0    0 -0.18825323947E+03  0.24944969870E+02 -0.27531621223E+03  0.34320482282E+03  0.77000000000E+02 0.  0.
<mgrwt>
<rscale>  0 0.41014544E+03</rscale>
<asrwt>0</asrwt>
<pdfrwt beam="1">  1        2 0.85035423E-01 0.41014544E+03</pdfrwt>
<pdfrwt beam="2">  1       -2 0.10092990E-01 0.41014544E+03</pdfrwt>
<totfact> 0.36556195E+03</totfact>
</mgrwt>
</event>
<event>
 4    1  0.1305170E-003  0.2224302E+03  0.7818608E-02  0.1132084E+00
          2   -1    0    0  501    0  0.00000000000E+00  0.00000000000E+00  0.13550151220E+03  0.13550151222E+03  0.25500000000E-02 0.  1.
         -2   -1    0    0    0  501 -0.00000000000E+00 -0.00000000000E+00 -0.91281632543E+02  0.91281632578E+02  0.25500000000E-02 0. -1.
    5000001    1    1    2    0    0  0.26979292407E+01  0.74894276410E+02  0.51365872251E+02  0.11909611368E+03  0.77000000000E+02 0.  0.
   -5000001    1    1    2    0    0 -0.26979292407E+01 -0.74894276410E+02 -0.71459925973E+01  0.10768703112E+03  0.77000000000E+02 0.  0.
<mgrwt>
<rscale>  0 0.22243021E+03</rscale>
<asrwt>0</asrwt>
<pdfrwt beam="1">  1        2 0.19357359E-01 0.22243021E+03</pdfrwt>
<pdfrwt beam="2">  1       -2 0.13040233E-01 0.22243021E+03</pdfrwt>
<totfact> 0.12129019E+04</totfact>
</mgrwt>
</event>
<event>
 4    1  0.1305170E-003  0.1953370E+03  0.7818608E-02  0.1153734E+00
          2   -1    0    0  501    0  0.00000000000E+00  0.00000000000E+00  0.10286069260E+04  0.10286069260E+04  0.25500000000E-02 0.  1.
         -2   -1    0    0    0  501 -0.00000000000E+00 -0.00000000000E+00 -0.92738425381E+01  0.92738428886E+01  0.25500000000E-02 0. -1.
    5000001    1    1    2    0    0  0.58180336787E+02  0.96035567398E+01  0.44840023708E+03  0.45876895329E+03  0.77000000000E+02 0.  0.
   -5000001    1    1    2    0    0 -0.58180336787E+02 -0.96035567398E+01  0.57093284641E+03  0.57911181563E+03  0.77000000000E+02 0.  0.
<mgrwt>
<rscale>  0 0.19533703E+03</rscale>
<asrwt>0</asrwt>
<pdfrwt beam="1">  1        2 0.14694370E+00 0.19533703E+03</pdfrwt>
<pdfrwt beam="2">  1       -2 0.13248360E-02 0.19533703E+03</pdfrwt>
<totfact> 0.38547025E+04</totfact>
</mgrwt>
</event>
<event>
 4    1  0.1305170E-003  0.3414287E+03  0.7818608E-02  0.1066189E+00
         -2   -1    0    0    0  501 -0.00000000000E+00  0.00000000000E+00  0.82768804029E+01  0.82768807957E+01  0.25500000000E-02 0. -1.
          2   -1    0    0  501    0  0.00000000000E+00 -0.00000000000E+00 -0.35210590935E+04  0.35210590935E+04  0.25500000000E-02 0.  1.
    5000001    1    1    2    0    0 -0.11583138900E+03  0.81935366813E+02 -0.23304483049E+04  0.23360326661E+04  0.77000000000E+02 0.  0.
   -5000001    1    1    2    0    0  0.11583138900E+03 -0.81935366813E+02 -0.11823339081E+04  0.11933033082E+04  0.77000000000E+02 0.  0.
<mgrwt>
<rscale>  0 0.34142868E+03</rscale>
<asrwt>0</asrwt>
<pdfrwt beam="1">  1        2 0.50300748E+00 0.34142868E+03</pdfrwt>
<pdfrwt beam="2">  1       -2 0.11824138E-02 0.34142868E+03</pdfrwt>
<totfact> 0.23654675E+03</totfact>
</mgrwt>
</event>
<event>
 4    1  0.1305170E-003  0.2093075E+03  0.7818608E-02  0.1142116E+00
         -2   -1    0    0    0  501 -0.00000000000E+00  0.00000000000E+00  0.10526003694E+02  0.10526004003E+02  0.25500000000E-02 0. -1.
          2   -1    0    0  501    0  0.00000000000E+00 -0.00000000000E+00 -0.10405095461E+04  0.10405095462E+04  0.25500000000E-02 0.  1.
    5000001    1    1    2    0    0  0.24770141615E+02  0.55200457466E+02 -0.32962075307E+03  0.34385969707E+03  0.77000000000E+02 0.  0.
   -5000001    1    1    2    0    0 -0.24770141615E+02 -0.55200457466E+02 -0.70036278939E+03  0.70717585308E+03  0.77000000000E+02 0.  0.
<mgrwt>
<rscale>  0 0.20930750E+03</rscale>
<asrwt>0</asrwt>
<pdfrwt beam="1">  1        2 0.14864416E+00 0.20930750E+03</pdfrwt>
<pdfrwt beam="2">  1       -2 0.15037155E-02 0.20930750E+03</pdfrwt>
<totfact> 0.31728509E+04</totfact>
</mgrwt>
</event>
<event>
 4    1  0.1305170E-003  0.5196461E+03  0.7818608E-02  0.1008774E+00
          2   -1    0    0  501    0  0.00000000000E+00  0.00000000000E+00  0.27990880097E+04  0.27990880097E+04  0.25500000000E-02 0.  1.
         -2   -1    0    0    0  501 -0.00000000000E+00 -0.00000000000E+00 -0.24117862571E+02  0.24117862706E+02  0.25500000000E-02 0. -1.
    5000001    1    1    2    0    0  0.24178113507E+03  0.46108342368E+01  0.16899609270E+04  0.17089108554E+04  0.77000000000E+02 0.  0.
   -5000001    1    1    2    0    0 -0.24178113507E+03 -0.46108342368E+01  0.10850092202E+04  0.11142950170E+04  0.77000000000E+02 0.  0.
<mgrwt>
<rscale>  0 0.51964611E+03</rscale>
<asrwt>0</asrwt>
<pdfrwt beam="1">  1        2 0.39986952E+00 0.51964611E+03</pdfrwt>
<pdfrwt beam="2">  1       -2 0.34454106E-02 0.51964611E+03</pdfrwt>
<totfact> 0.11840754E+03</totfact>
</mgrwt>
</event>
<event>
 4    1  0.1305170E-003  0.1703116E+03  0.7818608E-02  0.1177523E+00
          2   -1    0    0  501    0  0.00000000000E+00  0.00000000000E+00  0.10480120979E+03  0.10480120982E+03  0.25500000000E-02 0.  1.
         -2   -1    0    0    0  501 -0.00000000000E+00 -0.00000000000E+00 -0.69192989338E+02  0.69192989385E+02  0.25500000000E-02 0. -1.
    5000001    1    1    2    0    0  0.36453497824E+01  0.25906614879E+02 -0.80020844358E+01  0.81715816247E+02  0.77000000000E+02 0.  0.
   -5000001    1    1    2    0    0 -0.36453497824E+01 -0.25906614879E+02  0.43610304891E+02  0.92278382963E+02  0.77000000000E+02 0.  0.
<mgrwt>
<rscale>  0 0.17031159E+03</rscale>
<asrwt>0</asrwt>
<pdfrwt beam="1">  1        2 0.14971601E-01 0.17031159E+03</pdfrwt>
<pdfrwt beam="2">  1       -2 0.98847129E-02 0.17031159E+03</pdfrwt>
<totfact> 0.24932750E+04</totfact>
</mgrwt>
</event>
<event>
 4    1  0.1305170E-003  0.4002432E+03  0.7818608E-02  0.1043695E+00
         -2   -1    0    0    0  501 -0.00000000000E+00  0.00000000000E+00  0.37073803528E+02  0.37073803616E+02  0.25500000000E-02 0. -1.
          2   -1    0    0  501    0  0.00000000000E+00 -0.00000000000E+00 -0.10802414399E+04  0.10802414399E+04  0.25500000000E-02 0.  1.
    5000001    1    1    2    0    0  0.15227807871E+03  0.97030718009E+02 -0.63027982283E+03  0.66014030975E+03  0.77000000000E+02 0.  0.
   -5000001    1    1    2    0    0 -0.15227807871E+03 -0.97030718009E+02 -0.41288781355E+03  0.45717493377E+03  0.77000000000E+02 0.  0.
<mgrwt>
<rscale>  0 0.40024322E+03</rscale>
<asrwt>0</asrwt>
<pdfrwt beam="1">  1        2 0.15432019E+00 0.40024322E+03</pdfrwt>
<pdfrwt beam="2">  1       -2 0.52962583E-02 0.40024322E+03</pdfrwt>
<totfact> 0.47142528E+03</totfact>
</mgrwt>
</event>
<event>
 4    1  0.1305170E-003  0.3008945E+03  0.7818608E-02  0.1084794E+00
          2   -1    0    0  501    0  0.00000000000E+00  0.00000000000E+00  0.15171931465E+03  0.15171931467E+03  0.25500000000E-02 0.  1.
         -2   -1    0    0    0  501 -0.00000000000E+00 -0.00000000000E+00 -0.14918581732E+03  0.14918581735E+03  0.25500000000E-02 0. -1.
    5000001    1    1    2    0    0  0.12248494843E+03  0.13745057187E+02 -0.37643251376E+02  0.15012495983E+03  0.77000000000E+02 0.  0.
   -5000001    1    1    2    0    0 -0.12248494843E+03 -0.13745057187E+02  0.40176748704E+02  0.15078017219E+03  0.77000000000E+02 0.  0.
<mgrwt>
<rscale>  0 0.30089447E+03</rscale>
<asrwt>0</asrwt>
<pdfrwt beam="1">  1        2 0.21674188E-01 0.30089447E+03</pdfrwt>
<pdfrwt beam="2">  1       -2 0.21312260E-01 0.30089447E+03</pdfrwt>
<totfact> 0.47536205E+03</totfact>
</mgrwt>
</event>
<event>
 4    1  0.1305170E-003  0.3761189E+03  0.7818608E-02  0.1052378E+00
          2   -1    0    0  501    0  0.00000000000E+00  0.00000000000E+00  0.50465712425E+03  0.50465712425E+03  0.25500000000E-02 0.  1.
         -2   -1    0    0    0  501 -0.00000000000E+00 -0.00000000000E+00 -0.70079984898E+02  0.70079984944E+02  0.25500000000E-02 0. -1.
    5000001    1    1    2    0    0 -0.12438774982E+02 -0.16189235483E+03  0.13257342223E+03  0.22331271786E+03  0.77000000000E+02 0.  0.
   -5000001    1    1    2    0    0  0.12438774982E+02  0.16189235483E+03  0.30200371712E+03  0.35142439134E+03  0.77000000000E+02 0.  0.
<mgrwt>
<rscale>  0 0.37611894E+03</rscale>
<asrwt>0</asrwt>
<pdfrwt beam="1">  1        2 0.72093879E-01 0.37611894E+03</pdfrwt>
<pdfrwt beam="2">  1       -2 0.10011426E-01 0.37611894E+03</pdfrwt>
<totfact> 0.44620971E+03</totfact>
</mgrwt>
</event>
<event>
 4    1  0.1305170E-003  0.2663999E+03  0.7818608E-02  0.1103358E+00
         -2   -1    0    0    0  501 -0.00000000000E+00  0.00000000000E+00  0.39154182226E+02  0.39154182309E+02  0.25500000000E-02 0. -1.
          2   -1    0    0  501    0  0.00000000000E+00 -0.00000000000E+00 -0.45313745827E+03  0.45313745828E+03  0.25500000000E-02 0.  1.
    5000001    1    1    2    0    0 -0.56110035096E+02 -0.56379351434E+02 -0.70115869538E+02  0.13104275053E+03  0.77000000000E+02 0.  0.
   -5000001    1    1    2    0    0  0.56110035096E+02  0.56379351434E+02 -0.34386740651E+03  0.36124889006E+03  0.77000000000E+02 0.  0.
<mgrwt>
<rscale>  0 0.26639990E+03</rscale>
<asrwt>0</asrwt>
<pdfrwt beam="1">  1        2 0.64733919E-01 0.26639990E+03</pdfrwt>
<pdfrwt beam="2">  1       -2 0.55934549E-02 0.26639990E+03</pdfrwt>
<totfact> 0.12339127E+04</totfact>
</mgrwt>
</event>
<event>
 4    1  0.1305170E-003  0.2975911E+03  0.7818608E-02  0.1086451E+00
         -2   -1    0    0    0  501 -0.00000000000E+00  0.00000000000E+00  0.39050704393E+02  0.39050704476E+02  0.25500000000E-02 0. -1.
          2   -1    0    0  501    0  0.00000000000E+00 -0.00000000000E+00 -0.56695820399E+03  0.56695820400E+03  0.25500000000E-02 0.  1.
    5000001    1    1    2    0    0  0.50661890731E+02  0.10911313886E+03 -0.34886896119E+03  0.37697593600E+03  0.77000000000E+02 0.  0.
   -5000001    1    1    2    0    0 -0.50661890731E+02 -0.10911313886E+03 -0.17903853841E+03  0.22903297247E+03  0.77000000000E+02 0.  0.
<mgrwt>
<rscale>  0 0.29759111E+03</rscale>
<asrwt>0</asrwt>
<pdfrwt beam="1">  1        2 0.80994024E-01 0.29759111E+03</pdfrwt>
<pdfrwt beam="2">  1       -2 0.55786724E-02 0.29759111E+03</pdfrwt>
<totfact> 0.97046233E+03</totfact>
</mgrwt>
</event>
<event>
 4    1  0.1305170E-003  0.2783770E+03  0.7818608E-02  0.1096579E+00
         -2   -1    0    0    0  501 -0.00000000000E+00  0.00000000000E+00  0.59360000236E+02  0.59360000291E+02  0.25500000000E-02 0. -1.
          2   -1    0    0  501    0  0.00000000000E+00 -0.00000000000E+00 -0.32637198097E+03  0.32637198098E+03  0.25500000000E-02 0.  1.
    5000001    1    1    2    0    0  0.96110185880E+02  0.47066122362E+02 -0.71661255060E+02  0.15005573358E+03  0.77000000000E+02 0.  0.
   -5000001    1    1    2    0    0 -0.96110185880E+02 -0.47066122362E+02 -0.19535072568E+03  0.23567624769E+03  0.77000000000E+02 0.  0.
<mgrwt>
<rscale>  0 0.27837702E+03</rscale>
<asrwt>0</asrwt>
<pdfrwt beam="1">  1        2 0.46624568E-01 0.27837702E+03</pdfrwt>
<pdfrwt beam="2">  1       -2 0.84800002E-02 0.27837702E+03</pdfrwt>
<totfact> 0.92594951E+03</totfact>
</mgrwt>
</event>
<event>
 4    1  0.1305170E-003  0.3150163E+03  0.7818608E-02  0.1077966E+00
         -2   -1    0    0    0  501 -0.00000000000E+00  0.00000000000E+00  0.38236778638E+02  0.38236778723E+02  0.25500000000E-02 0.  1.
          2   -1    0    0  501    0  0.00000000000E+00 -0.00000000000E+00 -0.64882065856E+03  0.64882065856E+03  0.25500000000E-02 0. -1.
    5000001    1    1    2    0    0 -0.95450237368E+02 -0.36521408081E+02 -0.50560490878E+03  0.52154566899E+03  0.77000000000E+02 0.  0.
   -5000001    1    1    2    0    0  0.95450237368E+02  0.36521408081E+02 -0.10497897114E+03  0.16551176829E+03  0.77000000000E+02 0.  0.
<mgrwt>
<rscale>  0 0.31501627E+03</rscale>
<asrwt>0</asrwt>
<pdfrwt beam="1">  1        2 0.92688659E-01 0.31501627E+03</pdfrwt>
<pdfrwt beam="2">  1       -2 0.54623973E-02 0.31501627E+03</pdfrwt>
<totfact> 0.85996935E+03</totfact>
</mgrwt>
</event>
<event>
 4    1  0.1305170E-003  0.2689189E+03  0.7818608E-02  0.1101900E+00
          2   -1    0    0  501    0  0.00000000000E+00  0.00000000000E+00  0.21161612537E+03  0.21161612539E+03  0.25500000000E-02 0.  1.
         -2   -1    0    0    0  501 -0.00000000000E+00 -0.00000000000E+00 -0.85434636620E+02  0.85434636659E+02  0.25500000000E-02 0. -1.
    5000001    1    1    2    0    0 -0.64858707369E+02  0.79352623639E+02  0.10791748048E+03  0.16756692213E+03  0.77000000000E+02 0.  0.
   -5000001    1    1    2    0    0  0.64858707369E+02 -0.79352623639E+02  0.18264008270E+02  0.12948383991E+03  0.77000000000E+02 0.  0.
<mgrwt>
<rscale>  0 0.26891892E+03</rscale>
<asrwt>0</asrwt>
<pdfrwt beam="1">  1        2 0.30230875E-01 0.26891892E+03</pdfrwt>
<pdfrwt beam="2">  1       -2 0.12204948E-01 0.26891892E+03</pdfrwt>
<totfact> 0.82784354E+03</totfact>
</mgrwt>
</event>
<event>
 4    1  0.1305170E-003  0.2376621E+03  0.7818608E-02  0.1121360E+00
         -2   -1    0    0    0  501 -0.00000000000E+00  0.00000000000E+00  0.18764264795E+03  0.18764264797E+03  0.25500000000E-02 0. -1.
          2   -1    0    0  501    0  0.00000000000E+00 -0.00000000000E+00 -0.75253795366E+02  0.75253795409E+02  0.25500000000E-02 0.  1.
    5000001    1    1    2    0    0 -0.54090763960E+02 -0.26344402880E+02  0.13099019743E+03  0.16342359111E+03  0.77000000000E+02 0.  0.
   -5000001    1    1    2    0    0  0.54090763960E+02  0.26344402880E+02 -0.18601344841E+02  0.99472852270E+02  0.77000000000E+02 0.  0.
<mgrwt>
<rscale>  0 0.23766213E+03</rscale>
<asrwt>0</asrwt>
<pdfrwt beam="1">  1        2 0.10750542E-01 0.23766213E+03</pdfrwt>
<pdfrwt beam="2">  1       -2 0.26806092E-01 0.23766213E+03</pdfrwt>
<totfact> 0.72200428E+03</totfact>
</mgrwt>
</event>
<event>
 4    1  0.1305170E-003  0.3035121E+03  0.7818608E-02  0.1083498E+00
          2   -1    0    0  501    0  0.00000000000E+00  0.00000000000E+00  0.23099438738E+04  0.23099438738E+04  0.25500000000E-02 0.  1.
         -2   -1    0    0    0  501 -0.00000000000E+00 -0.00000000000E+00 -0.99698959555E+01  0.99698962816E+01  0.25500000000E-02 0. -1.
    5000001    1    1    2    0    0  0.78777390277E+02  0.10394792384E+03  0.10775332836E+04  0.10881259235E+04  0.77000000000E+02 0.  0.
   -5000001    1    1    2    0    0 -0.78777390277E+02 -0.10394792384E+03  0.12224406943E+04  0.12317878466E+04  0.77000000000E+02 0.  0.
<mgrwt>
<rscale>  0 0.30351211E+03</rscale>
<asrwt>0</asrwt>
<pdfrwt beam="1">  1        2 0.32999158E+00 0.30351211E+03</pdfrwt>
<pdfrwt beam="2">  1       -2 0.14242726E-02 0.30351211E+03</pdfrwt>
<totfact> 0.79345148E+03</totfact>
</mgrwt>
</event>
<event>
 4    1  0.1305170E-003  0.3023613E+03  0.7818608E-02  0.1084066E+00
          2   -1    0    0  501    0  0.00000000000E+00  0.00000000000E+00  0.46097940861E+03  0.46097940862E+03  0.25500000000E-02 0.  1.
         -2   -1    0    0    0  501 -0.00000000000E+00 -0.00000000000E+00 -0.49580488215E+02  0.49580488280E+02  0.25500000000E-02 0. -1.
    5000001    1    1    2    0    0  0.41329133682E+02  0.12314424686E+03  0.19329315873E+03  0.24528319966E+03  0.77000000000E+02 0.  0.
   -5000001    1    1    2    0    0 -0.41329133682E+02 -0.12314424686E+03  0.21810576167E+03  0.26527669724E+03  0.77000000000E+02 0.  0.
<mgrwt>
<rscale>  0 0.30236127E+03</rscale>
<asrwt>0</asrwt>
<pdfrwt beam="1">  1        2 0.65854200E-01 0.30236127E+03</pdfrwt>
<pdfrwt beam="2">  1       -2 0.70829271E-02 0.30236127E+03</pdfrwt>
<totfact> 0.84616237E+03</totfact>
</mgrwt>
</event>
<event>
 4    1  0.1305170E-003  0.3338299E+03  0.7818608E-02  0.1069455E+00
         -2   -1    0    0    0  501 -0.00000000000E+00  0.00000000000E+00  0.18515239939E+03  0.18515239941E+03  0.25500000000E-02 0. -1.
          2   -1    0    0  501    0  0.00000000000E+00 -0.00000000000E+00 -0.15047389111E+03  0.15047389113E+03  0.25500000000E-02 0.  1.
    5000001    1    1    2    0    0  0.54662419374E+02 -0.13637351817E+03  0.36037327948E+02  0.16974511939E+03  0.77000000000E+02 0.  0.
   -5000001    1    1    2    0    0 -0.54662419374E+02  0.13637351817E+03 -0.13588196668E+01  0.16588117115E+03  0.77000000000E+02 0.  0.
<mgrwt>
<rscale>  0 0.33382991E+03</rscale>
<asrwt>0</asrwt>
<pdfrwt beam="1">  1        2 0.21496270E-01 0.33382991E+03</pdfrwt>
<pdfrwt beam="2">  1       -2 0.26450343E-01 0.33382991E+03</pdfrwt>
<totfact> 0.32927325E+03</totfact>
</mgrwt>
</event>
<event>
 4    1  0.1305170E-003  0.3096198E+03  0.7818608E-02  0.1080528E+00
         -2   -1    0    0    0  501 -0.00000000000E+00  0.00000000000E+00  0.95112276151E+01  0.95112279569E+01  0.25500000000E-02 0. -1.
          2   -1    0    0  501    0  0.00000000000E+00 -0.00000000000E+00 -0.25197696651E+04  0.25197696651E+04  0.25500000000E-02 0.  1.
    5000001    1    1    2    0    0  0.14954730492E+02  0.12912345935E+03 -0.15310176100E+04  0.15384539102E+04  0.77000000000E+02 0.  0.
   -5000001    1    1    2    0    0 -0.14954730492E+02 -0.12912345935E+03 -0.97924082741E+03  0.99082698277E+03  0.77000000000E+02 0.  0.
<mgrwt>
<rscale>  0 0.30961979E+03</rscale>
<asrwt>0</asrwt>
<pdfrwt beam="1">  1        2 0.35996667E+00 0.30961979E+03</pdfrwt>
<pdfrwt beam="2">  1       -2 0.13587484E-02 0.30961979E+03</pdfrwt>
<totfact> 0.66840799E+03</totfact>
</mgrwt>
</event>
<event>
 4    1  0.1305170E-003  0.2855738E+03  0.7818608E-02  0.1092683E+00
          2   -1    0    0  501    0  0.00000000000E+00  0.00000000000E+00  0.30582320435E+04  0.30582320435E+04  0.25500000000E-02 0.  1.
         -2   -1    0    0    0  501 -0.00000000000E+00 -0.00000000000E+00 -0.66666304325E+01  0.66666309202E+01  0.25500000000E-02 0. -1.
    5000001    1    1    2    0    0 -0.90211567823E+02  0.59346499131E+02  0.95798085620E+03  0.96711760132E+03  0.77000000000E+02 0.  0.
   -5000001    1    1    2    0    0  0.90211567823E+02 -0.59346499131E+02  0.20935845569E+04  0.20977810732E+04  0.77000000000E+02 0.  0.
<mgrwt>
<rscale>  0 0.28557383E+03</rscale>
<asrwt>0</asrwt>
<pdfrwt beam="1">  1        2 0.43689075E+00 0.28557383E+03</pdfrwt>
<pdfrwt beam="2">  1       -2 0.95237481E-03 0.28557383E+03</pdfrwt>
<totfact> 0.59144362E+03</totfact>
</mgrwt>
</event>
<event>
 4    1  0.1305170E-003  0.2146367E+03  0.7818608E-02  0.1137946E+00
          2   -1    0    0  501    0  0.00000000000E+00  0.00000000000E+00  0.55611463330E+03  0.55611463331E+03  0.25500000000E-02 0.  1.
         -2   -1    0    0    0  501 -0.00000000000E+00 -0.00000000000E+00 -0.20710162288E+02  0.20710162445E+02  0.25500000000E-02 0. -1.
    5000001    1    1    2    0    0 -0.94335917491E+01  0.53886066925E+02  0.13078677426E+03  0.16132848845E+03  0.77000000000E+02 0.  0.
   -5000001    1    1    2    0    0  0.94335917491E+01 -0.53886066925E+02  0.40461769675E+03  0.41549630731E+03  0.77000000000E+02 0.  0.
<mgrwt>
<rscale>  0 0.21463666E+03</rscale>
<asrwt>0</asrwt>
<pdfrwt beam="1">  1        2 0.79444942E-01 0.21463666E+03</pdfrwt>
<pdfrwt beam="2">  1       -2 0.29585949E-02 0.21463666E+03</pdfrwt>
<totfact> 0.25309534E+04</totfact>
</mgrwt>
</event>
<event>
 4    1  0.1305170E-003  0.4502477E+03  0.7818608E-02  0.1027648E+00
          2   -1    0    0  501    0  0.00000000000E+00  0.00000000000E+00  0.18734102699E+04  0.18734102699E+04  0.25500000000E-02 0.  1.
         -2   -1    0    0    0  501 -0.00000000000E+00 -0.00000000000E+00 -0.27052674353E+02  0.27052674474E+02  0.25500000000E-02 0. -1.
    5000001    1    1    2    0    0  0.17383835039E+03  0.11007159076E+03  0.71569839713E+03  0.74865794781E+03  0.77000000000E+02 0.  0.
   -5000001    1    1    2    0    0 -0.17383835039E+03 -0.11007159076E+03  0.11306591984E+04  0.11518049965E+04  0.77000000000E+02 0.  0.
<mgrwt>
<rscale>  0 0.45024775E+03</rscale>
<asrwt>0</asrwt>
<pdfrwt beam="1">  1        2 0.26763017E+00 0.45024775E+03</pdfrwt>
<pdfrwt beam="2">  1       -2 0.38646659E-02 0.45024775E+03</pdfrwt>
<totfact> 0.29370070E+03</totfact>
</mgrwt>
</event>
<event>
 4    1  0.1305170E-003  0.3888493E+03  0.7818608E-02  0.1047711E+00
         -2   -1    0    0    0  501 -0.00000000000E+00  0.00000000000E+00  0.63898866003E+02  0.63898866054E+02  0.25500000000E-02 0. -1.
          2   -1    0    0  501    0  0.00000000000E+00 -0.00000000000E+00 -0.59157467188E+03  0.59157467189E+03  0.25500000000E-02 0.  1.
    5000001    1    1    2    0    0 -0.17825095827E+03  0.79864692879E+01 -0.27377665252E+03  0.33573775969E+03  0.77000000000E+02 0.  0.
   -5000001    1    1    2    0    0  0.17825095827E+03 -0.79864692879E+01 -0.25389915337E+03  0.31973577826E+03  0.77000000000E+02 0.  0.
<mgrwt>
<rscale>  0 0.38884933E+03</rscale>
<asrwt>0</asrwt>
<pdfrwt beam="1">  1        2 0.84510664E-01 0.38884933E+03</pdfrwt>
<pdfrwt beam="2">  1       -2 0.91284098E-02 0.38884933E+03</pdfrwt>
<totfact> 0.43195710E+03</totfact>
</mgrwt>
</event>
<event>
 4    1  0.1305170E-003  0.3271945E+03  0.7818608E-02  0.1072385E+00
          2   -1    0    0  501    0  0.00000000000E+00  0.00000000000E+00  0.23746310557E+03  0.23746310558E+03  0.25500000000E-02 0.  1.
         -2   -1    0    0    0  501 -0.00000000000E+00 -0.00000000000E+00 -0.11270826181E+03  0.11270826184E+03  0.25500000000E-02 0. -1.
    5000001    1    1    2    0    0 -0.94619978002E+01 -0.71676731493E+02 -0.71327658191E+02  0.12745084567E+03  0.77000000000E+02 0.  0.
   -5000001    1    1    2    0    0  0.94619978002E+01  0.71676731493E+02  0.19608250194E+03  0.22272052175E+03  0.77000000000E+02 0.  0.
<mgrwt>
<rscale>  0 0.32719446E+03</rscale>
<asrwt>0</asrwt>
<pdfrwt beam="1">  1        2 0.33923301E-01 0.32719446E+03</pdfrwt>
<pdfrwt beam="2">  1       -2 0.16101180E-01 0.32719446E+03</pdfrwt>
<totfact> 0.46599289E+03</totfact>
</mgrwt>
</event>
<event>
 4    1  0.1305170E-003  0.3027713E+03  0.7818608E-02  0.1083863E+00
          2   -1    0    0  501    0  0.00000000000E+00  0.00000000000E+00  0.39478191438E+04  0.39478191438E+04  0.25500000000E-02 0.  1.
         -2   -1    0    0    0  501 -0.00000000000E+00 -0.00000000000E+00 -0.58051345796E+01  0.58051351397E+01  0.25500000000E-02 0. -1.
    5000001    1    1    2    0    0  0.90031235810E+02  0.59122103442E+00  0.32017061043E+04  0.32038971506E+04  0.77000000000E+02 0.  0.
   -5000001    1    1    2    0    0 -0.90031235810E+02 -0.59122103442E+00  0.74030790493E+03  0.74972712841E+03  0.77000000000E+02 0.  0.
<mgrwt>
<rscale>  0 0.30277135E+03</rscale>
<asrwt>0</asrwt>
<pdfrwt beam="1">  1        2 0.56397437E+00 0.30277135E+03</pdfrwt>
<pdfrwt beam="2">  1       -2 0.82930468E-03 0.30277135E+03</pdfrwt>
<totfact> 0.21817441E+03</totfact>
</mgrwt>
</event>
<event>
 4    1  0.1305170E-003  0.1070060E+04  0.7818608E-02  0.9234875E-01
         -2   -1    0    0    0  501 -0.00000000000E+00  0.00000000000E+00  0.22181398736E+03  0.22181398737E+03  0.25500000000E-02 0. -1.
          2   -1    0    0  501    0  0.00000000000E+00 -0.00000000000E+00 -0.12905274033E+04  0.12905274033E+04  0.25500000000E-02 0.  1.
    5000001    1    1    2    0    0 -0.10207490135E+02  0.47599726860E+03 -0.86171880414E+03  0.98750488099E+03  0.77000000000E+02 0.  0.
   -5000001    1    1    2    0    0  0.10207490135E+02 -0.47599726860E+03 -0.20699461179E+03  0.52483650967E+03  0.77000000000E+02 0.  0.
<mgrwt>
<rscale>  0 0.10700599E+04</rscale>
<asrwt>0</asrwt>
<pdfrwt beam="1">  1        2 0.18436105E+00 0.10700599E+04</pdfrwt>
<pdfrwt beam="2">  1       -2 0.31687713E-01 0.10700599E+04</pdfrwt>
<totfact> 0.17451927E+02</totfact>
</mgrwt>
</event>
<event>
 4    1  0.1305170E-003  0.1699632E+03  0.7818608E-02  0.1177886E+00
         -2   -1    0    0    0  501 -0.00000000000E+00  0.00000000000E+00  0.16743681983E+03  0.16743681985E+03  0.25500000000E-02 0. -1.
          2   -1    0    0  501    0  0.00000000000E+00 -0.00000000000E+00 -0.43131931386E+02  0.43131931461E+02  0.25500000000E-02 0.  1.
    5000001    1    1    2    0    0  0.26967785378E+02  0.23781837732E+02  0.62388098799E+02  0.10542348944E+03  0.77000000000E+02 0.  0.
   -5000001    1    1    2    0    0 -0.26967785378E+02 -0.23781837732E+02  0.61916789650E+02  0.10514526187E+03  0.77000000000E+02 0.  0.
<mgrwt>
<rscale>  0 0.16996321E+03</rscale>
<asrwt>0</asrwt>
<pdfrwt beam="1">  1        2 0.61617046E-02 0.16996321E+03</pdfrwt>
<pdfrwt beam="2">  1       -2 0.23919545E-01 0.16996321E+03</pdfrwt>
<totfact> 0.17393784E+04</totfact>
</mgrwt>
</event>
<event>
 4    1  0.1305170E-003  0.2281324E+03  0.7818608E-02  0.1127961E+00
         -2   -1    0    0    0  501 -0.00000000000E+00  0.00000000000E+00  0.57211749223E+02  0.57211749280E+02  0.25500000000E-02 0. -1.
          2   -1    0    0  501    0  0.00000000000E+00 -0.00000000000E+00 -0.22741996260E+03  0.22741996261E+03  0.25500000000E-02 0.  1.
    5000001    1    1    2    0    0  0.69549246026E+02 -0.40517472876E+02 -0.11575012645E+03  0.16064200884E+03  0.77000000000E+02 0.  0.
   -5000001    1    1    2    0    0 -0.69549246026E+02  0.40517472876E+02 -0.54458086924E+02  0.12398970305E+03  0.77000000000E+02 0.  0.
<mgrwt>
<rscale>  0 0.22813236E+03</rscale>
<asrwt>0</asrwt>
<pdfrwt beam="1">  1        2 0.32488566E-01 0.22813236E+03</pdfrwt>
<pdfrwt beam="2">  1       -2 0.81731072E-02 0.22813236E+03</pdfrwt>
<totfact> 0.14338289E+04</totfact>
</mgrwt>
</event>
<event>
 4    1  0.1305170E-003  0.3059484E+03  0.7818608E-02  0.1082304E+00
          2   -1    0    0  501    0  0.00000000000E+00  0.00000000000E+00  0.87734023378E+03  0.87734023379E+03  0.25500000000E-02 0.  1.
         -2   -1    0    0    0  501 -0.00000000000E+00 -0.00000000000E+00 -0.26672790409E+02  0.26672790531E+02  0.25500000000E-02 0. -1.
    5000001    1    1    2    0    0 -0.10879412979E+03  0.69074205275E+02  0.33844566070E+03  0.37024569377E+03  0.77000000000E+02 0.  0.
   -5000001    1    1    2    0    0  0.10879412979E+03 -0.69074205275E+02  0.51222178268E+03  0.53376733055E+03  0.77000000000E+02 0.  0.
<mgrwt>
<rscale>  0 0.30594844E+03</rscale>
<asrwt>0</asrwt>
<pdfrwt beam="1">  1        2 0.12533433E+00 0.30594844E+03</pdfrwt>
<pdfrwt beam="2">  1       -2 0.38103983E-02 0.30594844E+03</pdfrwt>
<totfact> 0.10263464E+04</totfact>
</mgrwt>
</event>
<event>
 4    1  0.1305170E-003  0.6221124E+03  0.7818608E-02  0.9860563E-01
         -2   -1    0    0    0  501 -0.00000000000E+00  0.00000000000E+00  0.56728410327E+02  0.56728410384E+02  0.25500000000E-02 0. -1.
          2   -1    0    0  501    0  0.00000000000E+00 -0.00000000000E+00 -0.17055997932E+04  0.17055997932E+04  0.25500000000E-02 0.  1.
    5000001    1    1    2    0    0  0.23565677798E+03 -0.15214359926E+03 -0.11366262591E+04  0.11732561718E+04  0.77000000000E+02 0.  0.
   -5000001    1    1    2    0    0 -0.23565677798E+03  0.15214359926E+03 -0.51224512381E+03  0.58907203182E+03  0.77000000000E+02 0.  0.
<mgrwt>
<rscale>  0 0.62211242E+03</rscale>
<asrwt>0</asrwt>
<pdfrwt beam="1">  1        2 0.24365708E+00 0.62211242E+03</pdfrwt>
<pdfrwt beam="2">  1       -2 0.81040597E-02 0.62211242E+03</pdfrwt>
<totfact> 0.11189083E+03</totfact>
</mgrwt>
</event>
<event>
 4    1  0.1305170E-003  0.2645953E+03  0.7818608E-02  0.1104413E+00
         -2   -1    0    0    0  501 -0.00000000000E+00  0.00000000000E+00  0.75371824160E+01  0.75371828473E+01  0.25500000000E-02 0. -1.
          2   -1    0    0  501    0  0.00000000000E+00 -0.00000000000E+00 -0.23221761062E+04  0.23221761062E+04  0.25500000000E-02 0.  1.
    5000001    1    1    2    0    0 -0.97791619913E+02  0.43008802195E+02 -0.12689385216E+04  0.12757534752E+04  0.77000000000E+02 0.  0.
   -5000001    1    1    2    0    0  0.97791619913E+02 -0.43008802195E+02 -0.10457004022E+04  0.10539598138E+04  0.77000000000E+02 0.  0.
<mgrwt>
<rscale>  0 0.26459528E+03</rscale>
<asrwt>0</asrwt>
<pdfrwt beam="1">  1        2 0.33173899E+00 0.26459528E+03</pdfrwt>
<pdfrwt beam="2">  1       -2 0.10767419E-02 0.26459528E+03</pdfrwt>
<totfact> 0.11753730E+04</totfact>
</mgrwt>
</event>
<event>
 4    1  0.1305170E-003  0.2233423E+03  0.7818608E-02  0.1131415E+00
          2   -1    0    0  501    0  0.00000000000E+00  0.00000000000E+00  0.51880156493E+03  0.51880156494E+03  0.25500000000E-02 0.  1.
         -2   -1    0    0    0  501 -0.00000000000E+00 -0.00000000000E+00 -0.24037025227E+02  0.24037025363E+02  0.25500000000E-02 0. -1.
    5000001    1    1    2    0    0  0.47398018800E+02  0.65531168010E+02  0.24916862258E+03  0.27304744761E+03  0.77000000000E+02 0.  0.
   -5000001    1    1    2    0    0 -0.47398018800E+02 -0.65531168010E+02  0.24559591713E+03  0.26979114269E+03  0.77000000000E+02 0.  0.
<mgrwt>
<rscale>  0 0.22334231E+03</rscale>
<asrwt>0</asrwt>
<pdfrwt beam="1">  1        2 0.74114503E-01 0.22334231E+03</pdfrwt>
<pdfrwt beam="2">  1       -2 0.34338610E-02 0.22334231E+03</pdfrwt>
<totfact> 0.21974012E+04</totfact>
</mgrwt>
</event>
<event>
 4    1  0.1305170E-003  0.3907395E+03  0.7818608E-02  0.1047034E+00
          2   -1    0    0  501    0  0.00000000000E+00  0.00000000000E+00  0.12353649935E+03  0.12353649938E+03  0.25500000000E-02 0.  1.
         -2   -1    0    0    0  501 -0.00000000000E+00 -0.00000000000E+00 -0.30897208657E+03  0.30897208659E+03  0.25500000000E-02 0. -1.
    5000001    1    1    2    0    0 -0.98565857772E+02  0.14605550793E+03 -0.13094809453E+03  0.23264531626E+03  0.77000000000E+02 0.  0.
   -5000001    1    1    2    0    0  0.98565857772E+02 -0.14605550793E+03 -0.54487492689E+02  0.19986326970E+03  0.77000000000E+02 0.  0.
<mgrwt>
<rscale>  0 0.39073945E+03</rscale>
<asrwt>0</asrwt>
<pdfrwt beam="1">  1        2 0.17648071E-01 0.39073945E+03</pdfrwt>
<pdfrwt beam="2">  1       -2 0.44138869E-01 0.39073945E+03</pdfrwt>
<totfact> 0.15929585E+03</totfact>
</mgrwt>
</event>
<event>
 4    1  0.1305170E-003  0.2415220E+03  0.7818608E-02  0.1118783E+00
         -2   -1    0    0    0  501 -0.00000000000E+00  0.00000000000E+00  0.70785364266E+01  0.70785368859E+01  0.25500000000E-02 0. -1.
          2   -1    0    0  501    0  0.00000000000E+00 -0.00000000000E+00 -0.20602023227E+04  0.20602023227E+04  0.25500000000E-02 0.  1.
    5000001    1    1    2    0    0 -0.39100466221E+02 -0.83691468134E+02 -0.93236606349E+03  0.94008966841E+03  0.77000000000E+02 0.  0.
   -5000001    1    1    2    0    0  0.39100466221E+02  0.83691468134E+02 -0.11207577228E+04  0.11271911912E+04  0.77000000000E+02 0.  0.
<mgrwt>
<rscale>  0 0.24152199E+03</rscale>
<asrwt>0</asrwt>
<pdfrwt beam="1">  1        2 0.29431424E+00 0.24152199E+03</pdfrwt>
<pdfrwt beam="2">  1       -2 0.10112208E-02 0.24152199E+03</pdfrwt>
<totfact> 0.17246524E+04</totfact>
</mgrwt>
</event>
<event>
 4    1  0.1305170E-003  0.2140074E+03  0.7818608E-02  0.1138431E+00
         -2   -1    0    0    0  501 -0.00000000000E+00  0.00000000000E+00  0.32459101237E+02  0.32459101337E+02  0.25500000000E-02 0. -1.
          2   -1    0    0  501    0  0.00000000000E+00 -0.00000000000E+00 -0.35274510603E+03  0.35274510604E+03  0.25500000000E-02 0.  1.
    5000001    1    1    2    0    0  0.72481878504E+02  0.15198190102E+02 -0.14931607624E+03  0.18359983202E+03  0.77000000000E+02 0.  0.
   -5000001    1    1    2    0    0 -0.72481878504E+02 -0.15198190102E+02 -0.17096992856E+03  0.20160437536E+03  0.77000000000E+02 0.  0.
<mgrwt>
<rscale>  0 0.21400737E+03</rscale>
<asrwt>0</asrwt>
<pdfrwt beam="1">  1        2 0.50392156E-01 0.21400737E+03</pdfrwt>
<pdfrwt beam="2">  1       -2 0.46370147E-02 0.21400737E+03</pdfrwt>
<totfact> 0.21220044E+04</totfact>
</mgrwt>
</event>
<event>
 4    1  0.1305170E-003  0.3734333E+03  0.7818608E-02  0.1053388E+00
          2   -1    0    0  501    0  0.00000000000E+00  0.00000000000E+00  0.11373853917E+04  0.11373853917E+04  0.25500000000E-02 0.  1.
         -2   -1    0    0    0  501 -0.00000000000E+00 -0.00000000000E+00 -0.30651979834E+02  0.30651979940E+02  0.25500000000E-02 0. -1.
    5000001    1    1    2    0    0 -0.15036207140E+03  0.55231288206E+02  0.73236152068E+03  0.75361903153E+03  0.77000000000E+02 0.  0.
   -5000001    1    1    2    0    0  0.15036207140E+03 -0.55231288206E+02  0.37437189121E+03  0.41441834013E+03  0.77000000000E+02 0.  0.
<mgrwt>
<rscale>  0 0.37343334E+03</rscale>
<asrwt>0</asrwt>
<pdfrwt beam="1">  1        2 0.16248365E+00 0.37343334E+03</pdfrwt>
<pdfrwt beam="2">  1       -2 0.43788536E-02 0.37343334E+03</pdfrwt>
<totfact> 0.58476054E+03</totfact>
</mgrwt>
</event>
<event>
 4    1  0.1305170E-003  0.6350251E+03  0.7818608E-02  0.9835292E-01
         -2   -1    0    0    0  501 -0.00000000000E+00  0.00000000000E+00  0.37491553341E+03  0.37491553342E+03  0.25500000000E-02 0. -1.
          2   -1    0    0  501    0  0.00000000000E+00 -0.00000000000E+00 -0.26889845892E+03  0.26889845893E+03  0.25500000000E-02 0.  1.
    5000001    1    1    2    0    0 -0.68411107039E+02  0.28629544658E+03  0.14503958845E+03  0.33706178145E+03  0.77000000000E+02 0.  0.
   -5000001    1    1    2    0    0  0.68411107039E+02 -0.28629544658E+03 -0.39022513967E+02  0.30675221090E+03  0.77000000000E+02 0.  0.
<mgrwt>
<rscale>  0 0.63502507E+03</rscale>
<asrwt>0</asrwt>
<pdfrwt beam="1">  1        2 0.38414066E-01 0.63502507E+03</pdfrwt>
<pdfrwt beam="2">  1       -2 0.53559361E-01 0.63502507E+03</pdfrwt>
<totfact> 0.44642103E+02</totfact>
</mgrwt>
</event>
<event>
 4    1  0.1305170E-003  0.2919936E+03  0.7818608E-02  0.1089313E+00
         -2   -1    0    0    0  501 -0.00000000000E+00  0.00000000000E+00  0.53256607843E+02  0.53256607904E+02  0.25500000000E-02 0. -1.
          2   -1    0    0  501    0  0.00000000000E+00 -0.00000000000E+00 -0.40023329107E+03  0.40023329108E+03  0.25500000000E-02 0.  1.
    5000001    1    1    2    0    0  0.10005082774E+03  0.72424157108E+02 -0.15573689914E+03  0.21316286829E+03  0.77000000000E+02 0.  0.
   -5000001    1    1    2    0    0 -0.10005082774E+03 -0.72424157108E+02 -0.19123978409E+03  0.24032703069E+03  0.77000000000E+02 0.  0.
<mgrwt>
<rscale>  0 0.29199361E+03</rscale>
<asrwt>0</asrwt>
<pdfrwt beam="1">  1        2 0.57176183E-01 0.29199361E+03</pdfrwt>
<pdfrwt beam="2">  1       -2 0.76080870E-02 0.29199361E+03</pdfrwt>
<totfact> 0.88197987E+03</totfact>
</mgrwt>
</event>
<event>
 4    1  0.1305170E-003  0.2603330E+03  0.7818608E-02  0.1106943E+00
         -2   -1    0    0    0  501 -0.00000000000E+00  0.00000000000E+00  0.39884065868E+01  0.39884074020E+01  0.25500000000E-02 0. -1.
          2   -1    0    0  501    0  0.00000000000E+00 -0.00000000000E+00 -0.42481402506E+04  0.42481402506E+04  0.25500000000E-02 0.  1.
    5000001    1    1    2    0    0 -0.81558385805E+02  0.64261477570E+02 -0.18727546149E+04  0.18772107381E+04  0.77000000000E+02 0.  0.
   -5000001    1    1    2    0    0  0.81558385805E+02 -0.64261477570E+02 -0.23713972292E+04  0.23749179199E+04  0.77000000000E+02 0.  0.
<mgrwt>
<rscale>  0 0.26033296E+03</rscale>
<asrwt>0</asrwt>
<pdfrwt beam="1">  1        2 0.60687428E+00 0.26033296E+03</pdfrwt>
<pdfrwt beam="2">  1       -2 0.56977515E-03 0.26033296E+03</pdfrwt>
<totfact> 0.23774901E+03</totfact>
</mgrwt>
</event>
<event>
 4    1  0.1305170E-003  0.1932867E+03  0.7818608E-02  0.1155530E+00
         -2   -1    0    0    0  501 -0.00000000000E+00  0.00000000000E+00  0.11090505331E+03  0.11090505333E+03  0.25500000000E-02 0. -1.
          2   -1    0    0  501    0  0.00000000000E+00 -0.00000000000E+00 -0.84215572096E+02  0.84215572135E+02  0.25500000000E-02 0.  1.
    5000001    1    1    2    0    0 -0.40966447217E+02 -0.76982031057E+01  0.54640346528E+02  0.10320891239E+03  0.77000000000E+02 0.  0.
   -5000001    1    1    2    0    0  0.40966447217E+02  0.76982031057E+01 -0.27950865319E+02  0.91911713077E+02  0.77000000000E+02 0.  0.
<mgrwt>
<rscale>  0 0.19328665E+03</rscale>
<asrwt>0</asrwt>
<pdfrwt beam="1">  1        2 0.12030796E-01 0.19328665E+03</pdfrwt>
<pdfrwt beam="2">  1       -2 0.15843579E-01 0.19328665E+03</pdfrwt>
<totfact> 0.15289314E+04</totfact>
</mgrwt>
</event>
<event>
 4    1  0.1305170E-003  0.2754593E+03  0.7818608E-02  0.1098195E+00
         -2   -1    0    0    0  501 -0.00000000000E+00  0.00000000000E+00  0.23782842118E+02  0.23782842255E+02  0.25500000000E-02 0. -1.
          2   -1    0    0  501    0  0.00000000000E+00 -0.00000000000E+00 -0.79761077079E+03  0.79761077080E+03  0.25500000000E-02 0.  1.
    5000001    1    1    2    0    0  0.94433437531E+02  0.13418663565E+02 -0.19967694647E+03  0.23430240632E+03  0.77000000000E+02 0.  0.
   -5000001    1    1    2    0    0 -0.94433437531E+02 -0.13418663565E+02 -0.57415098220E+03  0.58709120673E+03  0.77000000000E+02 0.  0.
<mgrwt>
<rscale>  0 0.27545926E+03</rscale>
<asrwt>0</asrwt>
<pdfrwt beam="1">  1        2 0.11394438E+00 0.27545926E+03</pdfrwt>
<pdfrwt beam="2">  1       -2 0.33975494E-02 0.27545926E+03</pdfrwt>
<totfact> 0.13696000E+04</totfact>
</mgrwt>
</event>
<event>
 4    1  0.1305170E-003  0.3704665E+03  0.7818608E-02  0.1054515E+00
         -2   -1    0    0    0  501 -0.00000000000E+00  0.00000000000E+00  0.18685662574E+02  0.18685662748E+02  0.25500000000E-02 0. -1.
          2   -1    0    0  501    0  0.00000000000E+00 -0.00000000000E+00 -0.18362393948E+04  0.18362393948E+04  0.25500000000E-02 0.  1.
    5000001    1    1    2    0    0  0.12160156231E+03 -0.81321667634E+02 -0.13271593537E+04  0.13374158305E+04  0.77000000000E+02 0.  0.
   -5000001    1    1    2    0    0 -0.12160156231E+03  0.81321667634E+02 -0.49039437855E+03  0.51750922706E+03  0.77000000000E+02 0.  0.
<mgrwt>
<rscale>  0 0.37046646E+03</rscale>
<asrwt>0</asrwt>
<pdfrwt beam="1">  1        2 0.26231980E+00 0.37046646E+03</pdfrwt>
<pdfrwt beam="2">  1       -2 0.26693816E-02 0.37046646E+03</pdfrwt>
<totfact> 0.53620657E+03</totfact>
</mgrwt>
</event>
<event>
 4    1  0.1305170E-003  0.5005508E+03  0.7818608E-02  0.1013635E+00
          2   -1    0    0  501    0  0.00000000000E+00  0.00000000000E+00  0.35912827789E+04  0.35912827789E+04  0.25500000000E-02 0.  1.
         -2   -1    0    0    0  501 -0.00000000000E+00 -0.00000000000E+00 -0.17441615278E+02  0.17441615464E+02  0.25500000000E-02 0. -1.
    5000001    1    1    2    0    0  0.15406371429E+03 -0.47824520443E+01  0.47823573324E+03  0.50832756807E+03  0.77000000000E+02 0.  0.
   -5000001    1    1    2    0    0 -0.15406371429E+03  0.47824520443E+01  0.30956054304E+04  0.31003968263E+04  0.77000000000E+02 0.  0.
<mgrwt>
<rscale>  0 0.50055079E+03</rscale>
<asrwt>0</asrwt>
<pdfrwt beam="1">  1        2 0.51304002E+00 0.50055079E+03</pdfrwt>
<pdfrwt beam="2">  1       -2 0.24916612E-02 0.50055079E+03</pdfrwt>
<totfact> 0.69711927E+02</totfact>
</mgrwt>
</event>
<event>
 4    1  0.1305170E-003  0.6682214E+03  0.7818608E-02  0.9773176E-01
          2   -1    0    0  501    0  0.00000000000E+00  0.00000000000E+00  0.22939646106E+04  0.22939646106E+04  0.25500000000E-02 0.  1.
         -2   -1    0    0    0  501 -0.00000000000E+00 -0.00000000000E+00 -0.48662455805E+02  0.48662455872E+02  0.25500000000E-02 0. -1.
    5000001    1    1    2    0    0 -0.28918529752E+03  0.24320568919E+02  0.60882832909E+03  0.67883765414E+03  0.77000000000E+02 0.  0.
   -5000001    1    1    2    0    0  0.28918529752E+03 -0.24320568919E+02  0.16364738257E+04  0.16637894124E+04  0.77000000000E+02 0.  0.
<mgrwt>
<rscale>  0 0.66822138E+03</rscale>
<asrwt>0</asrwt>
<pdfrwt beam="1">  1        2 0.32770918E+00 0.66822138E+03</pdfrwt>
<pdfrwt beam="2">  1       -2 0.69517804E-02 0.66822138E+03</pdfrwt>
<totfact> 0.71842388E+02</totfact>
</mgrwt>
</event>
<event>
 4    1  0.1305170E-003  0.2708163E+03  0.7818608E-02  0.1100813E+00
         -2   -1    0    0    0  501 -0.00000000000E+00  0.00000000000E+00  0.37573004615E+02  0.37573004702E+02  0.25500000000E-02 0. -1.
          2   -1    0    0  501    0  0.00000000000E+00 -0.00000000000E+00 -0.48799315019E+03  0.48799315020E+03  0.25500000000E-02 0.  1.
    5000001    1    1    2    0    0  0.93387478203E+02  0.16825944902E+02 -0.33840370147E+03  0.35979216039E+03  0.77000000000E+02 0.  0.
   -5000001    1    1    2    0    0 -0.93387478203E+02 -0.16825944902E+02 -0.11201644411E+03  0.16577399451E+03  0.77000000000E+02 0.  0.
<mgrwt>
<rscale>  0 0.27081631E+03</rscale>
<asrwt>0</asrwt>
<pdfrwt beam="1">  1        2 0.69713304E-01 0.27081631E+03</pdfrwt>
<pdfrwt beam="2">  1       -2 0.53675724E-02 0.27081631E+03</pdfrwt>
<totfact> 0.12123851E+04</totfact>
</mgrwt>
</event>
<event>
 4    1  0.1305170E-003  0.3621715E+03  0.7818608E-02  0.1057727E+00
         -2   -1    0    0    0  501 -0.00000000000E+00  0.00000000000E+00  0.32143516276E+02  0.32143516377E+02  0.25500000000E-02 0. -1.
          2   -1    0    0  501    0  0.00000000000E+00 -0.00000000000E+00 -0.10201762838E+04  0.10201762839E+04  0.25500000000E-02 0.  1.
    5000001    1    1    2    0    0  0.13515339037E+02 -0.13239822760E+03 -0.21606422901E+03  0.26518805802E+03  0.77000000000E+02 0.  0.
   -5000001    1    1    2    0    0 -0.13515339037E+02  0.13239822760E+03 -0.77196853856E+03  0.78713174220E+03  0.77000000000E+02 0.  0.
<mgrwt>
<rscale>  0 0.36217152E+03</rscale>
<asrwt>0</asrwt>
<pdfrwt beam="1">  1        2 0.14573945E+00 0.36217152E+03</pdfrwt>
<pdfrwt beam="2">  1       -2 0.45919315E-02 0.36217152E+03</pdfrwt>
<totfact> 0.63506618E+03</totfact>
</mgrwt>
</event>
<event>
 4    1  0.1305170E-003  0.3128521E+03  0.7818608E-02  0.1078987E+00
          2   -1    0    0  501    0  0.00000000000E+00  0.00000000000E+00  0.96354137792E+03  0.96354137792E+03  0.25500000000E-02 0.  1.
         -2   -1    0    0    0  501 -0.00000000000E+00 -0.00000000000E+00 -0.25394970573E+02  0.25394970701E+02  0.25500000000E-02 0. -1.
    5000001    1    1    2    0    0  0.11462354989E+03  0.68674612222E+02  0.38632020268E+03  0.41596521435E+03  0.77000000000E+02 0.  0.
   -5000001    1    1    2    0    0 -0.11462354989E+03 -0.68674612222E+02  0.55182620466E+03  0.57297113427E+03  0.77000000000E+02 0.  0.
<mgrwt>
<rscale>  0 0.31285207E+03</rscale>
<asrwt>0</asrwt>
<pdfrwt beam="1">  1        2 0.13764875E+00 0.31285207E+03</pdfrwt>
<pdfrwt beam="2">  1       -2 0.36278533E-02 0.31285207E+03</pdfrwt>
<totfact> 0.97759400E+03</totfact>
</mgrwt>
</event>
<event>
 4    1  0.1305170E-003  0.2105760E+03  0.7818608E-02  0.1141111E+00
          2   -1    0    0  501    0  0.00000000000E+00  0.00000000000E+00  0.21900347638E+02  0.21900347786E+02  0.25500000000E-02 0.  1.
         -2   -1    0    0    0  501 -0.00000000000E+00 -0.00000000000E+00 -0.50618205311E+03  0.50618205312E+03  0.25500000000E-02 0. -1.
    5000001    1    1    2    0    0  0.34546647018E+02  0.58229069109E+02 -0.30214320850E+03  0.31906678572E+03  0.77000000000E+02 0.  0.
   -5000001    1    1    2    0    0 -0.34546647018E+02 -0.58229069109E+02 -0.18213849698E+03  0.20901561518E+03  0.77000000000E+02 0.  0.
<mgrwt>
<rscale>  0 0.21057600E+03</rscale>
<asrwt>0</asrwt>
<pdfrwt beam="1">  1        2 0.31286214E-02 0.21057600E+03</pdfrwt>
<pdfrwt beam="2">  1       -2 0.72311715E-01 0.21057600E+03</pdfrwt>
<totfact> 0.51542716E+03</totfact>
</mgrwt>
</event>
<event>
 4    1  0.1305170E-003  0.3342546E+03  0.7818608E-02  0.1069270E+00
          2   -1    0    0  501    0  0.00000000000E+00  0.00000000000E+00  0.15932495448E+04  0.15932495448E+04  0.25500000000E-02 0.  1.
         -2   -1    0    0    0  501 -0.00000000000E+00 -0.00000000000E+00 -0.17531178695E+02  0.17531178881E+02  0.25500000000E-02 0. -1.
    5000001    1    1    2    0    0  0.31014782907E+02  0.14388700954E+03  0.69937342978E+03  0.71883070507E+03  0.77000000000E+02 0.  0.
   -5000001    1    1    2    0    0 -0.31014782907E+02 -0.14388700954E+03  0.87634493628E+03  0.89195001857E+03  0.77000000000E+02 0.  0.
<mgrwt>
<rscale>  0 0.33425465E+03</rscale>
<asrwt>0</asrwt>
<pdfrwt beam="1">  1        2 0.22760713E+00 0.33425465E+03</pdfrwt>
<pdfrwt beam="2">  1       -2 0.25044535E-02 0.33425465E+03</pdfrwt>
<totfact> 0.77865019E+03</totfact>
</mgrwt>
</event>
<event>
 4    1  0.1305170E-003  0.2204878E+03  0.7818608E-02  0.1133520E+00
         -2   -1    0    0    0  501 -0.00000000000E+00  0.00000000000E+00  0.82919548859E+03  0.82919548859E+03  0.25500000000E-02 0. -1.
          2   -1    0    0  501    0  0.00000000000E+00 -0.00000000000E+00 -0.14657243746E+02  0.14657243968E+02  0.25500000000E-02 0.  1.
    5000001    1    1    2    0    0  0.28460355108E+02  0.68462440434E+02  0.51050608759E+03  0.52157699626E+03  0.77000000000E+02 0.  0.
   -5000001    1    1    2    0    0 -0.28460355108E+02 -0.68462440434E+02  0.30403215725E+03  0.32227573630E+03  0.77000000000E+02 0.  0.
<mgrwt>
<rscale>  0 0.22048783E+03</rscale>
<asrwt>0</asrwt>
<pdfrwt beam="1">  1        2 0.20938914E-02 0.22048783E+03</pdfrwt>
<pdfrwt beam="2">  1       -2 0.11845653E+00 0.22048783E+03</pdfrwt>
<totfact> 0.29080128E+03</totfact>
</mgrwt>
</event>
<event>
 4    1  0.1305170E-003  0.3118077E+03  0.7818608E-02  0.1079483E+00
          2   -1    0    0  501    0  0.00000000000E+00  0.00000000000E+00  0.23638172695E+02  0.23638172832E+02  0.25500000000E-02 0.  1.
         -2   -1    0    0    0  501 -0.00000000000E+00 -0.00000000000E+00 -0.10282525113E+04  0.10282525113E+04  0.25500000000E-02 0. -1.
    5000001    1    1    2    0    0 -0.11590665002E+02  0.13156187608E+03 -0.60541453718E+03  0.62441863568E+03  0.77000000000E+02 0.  0.
   -5000001    1    1    2    0    0  0.11590665002E+02 -0.13156187608E+03 -0.39919980142E+03  0.42747204846E+03  0.77000000000E+02 0.  0.
<mgrwt>
<rscale>  0 0.31180770E+03</rscale>
<asrwt>0</asrwt>
<pdfrwt beam="1">  1        2 0.33768825E-02 0.31180770E+03</pdfrwt>
<pdfrwt beam="2">  1       -2 0.14689319E+00 0.31180770E+03</pdfrwt>
<totfact> 0.89608491E+02</totfact>
</mgrwt>
</event>
<event>
 4    1  0.1305170E-003  0.2883136E+03  0.7818608E-02  0.1091233E+00
         -2   -1    0    0    0  501 -0.00000000000E+00  0.00000000000E+00  0.13189326232E+03  0.13189326235E+03  0.25500000000E-02 0. -1.
          2   -1    0    0  501    0  0.00000000000E+00 -0.00000000000E+00 -0.15756059334E+03  0.15756059336E+03  0.25500000000E-02 0.  1.
    5000001    1    1    2    0    0 -0.11129438753E+03  0.44636545399E+02  0.90082694300E+01  0.14279009349E+03  0.77000000000E+02 0.  0.
   -5000001    1    1    2    0    0  0.11129438753E+03 -0.44636545399E+02 -0.34675600444E+02  0.14666376222E+03  0.77000000000E+02 0.  0.
<mgrwt>
<rscale>  0 0.28831358E+03</rscale>
<asrwt>0</asrwt>
<pdfrwt beam="1">  1        2 0.22508656E-01 0.28831358E+03</pdfrwt>
<pdfrwt beam="2">  1       -2 0.18841895E-01 0.28831358E+03</pdfrwt>
<totfact> 0.56169473E+03</totfact>
</mgrwt>
</event>
<event>
 4    1  0.1305170E-003  0.3108060E+03  0.7818608E-02  0.1079960E+00
         -2   -1    0    0    0  501 -0.00000000000E+00  0.00000000000E+00  0.16351794956E+02  0.16351795155E+02  0.25500000000E-02 0. -1.
          2   -1    0    0  501    0  0.00000000000E+00 -0.00000000000E+00 -0.14769081569E+04  0.14769081569E+04  0.25500000000E-02 0.  1.
    5000001    1    1    2    0    0  0.37161869008E+01  0.13335932619E+03 -0.82904253106E+03  0.84323130766E+03  0.77000000000E+02 0.  0.
   -5000001    1    1    2    0    0 -0.37161869008E+01 -0.13335932619E+03 -0.63151383092E+03  0.65002864443E+03  0.77000000000E+02 0.  0.
<mgrwt>
<rscale>  0 0.31080605E+03</rscale>
<asrwt>0</asrwt>
<pdfrwt beam="1">  1        2 0.21098679E+00 0.31080605E+03</pdfrwt>
<pdfrwt beam="2">  1       -2 0.23359717E-02 0.31080605E+03</pdfrwt>
<totfact> 0.98761759E+03</totfact>
</mgrwt>
</event>
<event>
 4    1  0.1305170E-003  0.2314130E+03  0.7818608E-02  0.1125649E+00
          2   -1    0    0  501    0  0.00000000000E+00  0.00000000000E+00  0.32488368819E+02  0.32488368919E+02  0.25500000000E-02 0.  1.
         -2   -1    0    0    0  501 -0.00000000000E+00 -0.00000000000E+00 -0.41208577961E+03  0.41208577962E+03  0.25500000000E-02 0. -1.
    5000001    1    1    2    0    0 -0.43750982142E+02  0.63518087499E+02 -0.11513872000E+03  0.15853901956E+03  0.77000000000E+02 0.  0.
   -5000001    1    1    2    0    0  0.43750982142E+02 -0.63518087499E+02 -0.26445869079E+03  0.28603512899E+03  0.77000000000E+02 0.  0.
<mgrwt>
<rscale>  0 0.23141301E+03</rscale>
<asrwt>0</asrwt>
<pdfrwt beam="1">  1        2 0.46411958E-02 0.23141301E+03</pdfrwt>
<pdfrwt beam="2">  1       -2 0.58869394E-01 0.23141301E+03</pdfrwt>
<totfact> 0.47097145E+03</totfact>
</mgrwt>
</event>
<event>
 4    1  0.1305170E-003  0.2204256E+03  0.7818608E-02  0.1133566E+00
         -2   -1    0    0    0  501 -0.00000000000E+00  0.00000000000E+00  0.14353292404E+02  0.14353292630E+02  0.25500000000E-02 0. -1.
          2   -1    0    0  501    0  0.00000000000E+00 -0.00000000000E+00 -0.84627717622E+03  0.84627717622E+03  0.25500000000E-02 0.  1.
    5000001    1    1    2    0    0 -0.25634911426E+02  0.74315411544E+02 -0.44000963752E+03  0.45356081201E+03  0.77000000000E+02 0.  0.
   -5000001    1    1    2    0    0  0.25634911426E+02 -0.74315411544E+02 -0.39191424629E+03  0.40706965685E+03  0.77000000000E+02 0.  0.
<mgrwt>
<rscale>  0 0.22042562E+03</rscale>
<asrwt>0</asrwt>
<pdfrwt beam="1">  1        2 0.12089671E+00 0.22042562E+03</pdfrwt>
<pdfrwt beam="2">  1       -2 0.20504709E-02 0.22042562E+03</pdfrwt>
<totfact> 0.26544356E+04</totfact>
</mgrwt>
</event>
<event>
 4    1  0.1305170E-003  0.3402433E+03  0.7818608E-02  0.1066692E+00
          2   -1    0    0  501    0  0.00000000000E+00  0.00000000000E+00  0.10505677112E+04  0.10505677112E+04  0.25500000000E-02 0.  1.
         -2   -1    0    0    0  501 -0.00000000000E+00 -0.00000000000E+00 -0.27548319344E+02  0.27548319462E+02  0.25500000000E-02 0. -1.
    5000001    1    1    2    0    0 -0.57953656859E+02  0.13867512126E+03  0.44634307531E+03  0.47722170579E+03  0.77000000000E+02 0.  0.
   -5000001    1    1    2    0    0  0.57953656859E+02 -0.13867512126E+03  0.57667631654E+03  0.60089432487E+03  0.77000000000E+02 0.  0.
<mgrwt>
<rscale>  0 0.34024329E+03</rscale>
<asrwt>0</asrwt>
<pdfrwt beam="1">  1        2 0.15008111E+00 0.34024329E+03</pdfrwt>
<pdfrwt beam="2">  1       -2 0.39354740E-02 0.34024329E+03</pdfrwt>
<totfact> 0.76952044E+03</totfact>
</mgrwt>
</event>
<event>
 4    1  0.1305170E-003  0.4515773E+03  0.7818608E-02  0.1027253E+00
         -2   -1    0    0    0  501 -0.00000000000E+00  0.00000000000E+00  0.52581104079E+02  0.52581104141E+02  0.25500000000E-02 0. -1.
          2   -1    0    0  501    0  0.00000000000E+00 -0.00000000000E+00 -0.96955970256E+03  0.96955970256E+03  0.25500000000E-02 0.  1.
    5000001    1    1    2    0    0  0.19102810757E+03 -0.90651906629E+02 -0.50034940236E+03  0.54862376042E+03  0.77000000000E+02 0.  0.
   -5000001    1    1    2    0    0 -0.19102810757E+03  0.90651906629E+02 -0.41662919612E+03  0.47351704628E+03  0.77000000000E+02 0.  0.
<mgrwt>
<rscale>  0 0.45157732E+03</rscale>
<asrwt>0</asrwt>
<pdfrwt beam="1">  1        2 0.13850852E+00 0.45157732E+03</pdfrwt>
<pdfrwt beam="2">  1       -2 0.75115869E-02 0.45157732E+03</pdfrwt>
<totfact> 0.31859648E+03</totfact>
</mgrwt>
</event>
<event>
 4    1  0.1305170E-003  0.3346621E+03  0.7818608E-02  0.1069092E+00
          2   -1    0    0  501    0  0.00000000000E+00  0.00000000000E+00  0.12687384085E+04  0.12687384085E+04  0.25500000000E-02 0.  1.
         -2   -1    0    0    0  501 -0.00000000000E+00 -0.00000000000E+00 -0.22068921048E+02  0.22068921195E+02  0.25500000000E-02 0. -1.
    5000001    1    1    2    0    0 -0.74493069198E+02  0.70721143825E+02  0.20935328614E+03  0.24557788166E+03  0.77000000000E+02 0.  0.
   -5000001    1    1    2    0    0  0.74493069198E+02 -0.70721143825E+02  0.10373162013E+04  0.10452294481E+04  0.77000000000E+02 0.  0.
<mgrwt>
<rscale>  0 0.33466215E+03</rscale>
<asrwt>0</asrwt>
<pdfrwt beam="1">  1        2 0.18124833E+00 0.33466215E+03</pdfrwt>
<pdfrwt beam="2">  1       -2 0.31527033E-02 0.33466215E+03</pdfrwt>
<totfact> 0.81228333E+03</totfact>
</mgrwt>
</event>
<event>
 4    1  0.1305170E-003  0.2450752E+03  0.7818608E-02  0.1116457E+00
         -2   -1    0    0    0  501 -0.00000000000E+00  0.00000000000E+00  0.15682374819E+02  0.15682375026E+02  0.25500000000E-02 0. -1.
          2   -1    0    0  501    0  0.00000000000E+00 -0.00000000000E+00 -0.95747411041E+03  0.95747411041E+03  0.25500000000E-02 0.  1.
    5000001    1    1    2    0    0 -0.45406045919E+02  0.67336196439E+02 -0.66906447631E+03  0.67835989403E+03  0.77000000000E+02 0.  0.
   -5000001    1    1    2    0    0  0.45406045919E+02 -0.67336196439E+02 -0.27272725928E+03  0.29479659142E+03  0.77000000000E+02 0.  0.
<mgrwt>
<rscale>  0 0.24507524E+03</rscale>
<asrwt>0</asrwt>
<pdfrwt beam="1">  1        2 0.13678198E+00 0.24507524E+03</pdfrwt>
<pdfrwt beam="2">  1       -2 0.22403399E-02 0.24507524E+03</pdfrwt>
<totfact> 0.19996625E+04</totfact>
</mgrwt>
</event>
<event>
 4    1  0.1305170E-003  0.2197745E+03  0.7818608E-02  0.1134051E+00
          2   -1    0    0  501    0  0.00000000000E+00  0.00000000000E+00  0.76763991338E+03  0.76763991338E+03  0.25500000000E-02 0.  1.
         -2   -1    0    0    0  501 -0.00000000000E+00 -0.00000000000E+00 -0.15730305305E+02  0.15730305512E+02  0.25500000000E-02 0. -1.
    5000001    1    1    2    0    0 -0.71224656366E+02  0.31166772449E+02  0.41193449430E+03  0.42621983409E+03  0.77000000000E+02 0.  0.
   -5000001    1    1    2    0    0  0.71224656366E+02 -0.31166772449E+02  0.33997511377E+03  0.35715038480E+03  0.77000000000E+02 0.  0.
<mgrwt>
<rscale>  0 0.21977452E+03</rscale>
<asrwt>0</asrwt>
<pdfrwt beam="1">  1        2 0.10966288E+00 0.21977452E+03</pdfrwt>
<pdfrwt beam="2">  1       -2 0.22471857E-02 0.21977452E+03</pdfrwt>
<totfact> 0.26166797E+04</totfact>
</mgrwt>
</event>
<event>
 4    1  0.1305170E-003  0.2377823E+03  0.7818608E-02  0.1121279E+00
         -2   -1    0    0    0  501 -0.00000000000E+00  0.00000000000E+00  0.34791884109E+03  0.34791884110E+03  0.25500000000E-02 0. -1.
          2   -1    0    0  501    0  0.00000000000E+00 -0.00000000000E+00 -0.40627578650E+02  0.40627578730E+02  0.25500000000E-02 0.  1.
    5000001    1    1    2    0    0 -0.61469138119E+02 -0.62048416690E+02  0.11437283907E+03  0.16321337957E+03  0.77000000000E+02 0.  0.
   -5000001    1    1    2    0    0  0.61469138119E+02  0.62048416690E+02  0.19291842337E+03  0.22533304025E+03  0.77000000000E+02 0.  0.
<mgrwt>
<rscale>  0 0.23778225E+03</rscale>
<asrwt>0</asrwt>
<pdfrwt beam="1">  1        2 0.58039398E-02 0.23778225E+03</pdfrwt>
<pdfrwt beam="2">  1       -2 0.49702692E-01 0.23778225E+03</pdfrwt>
<totfact> 0.49505997E+03</totfact>
</mgrwt>
</event>
<event>
 4    1  0.1305170E-003  0.2421470E+03  0.7818608E-02  0.1118371E+00
          2   -1    0    0  501    0  0.00000000000E+00  0.00000000000E+00  0.75203000731E+02  0.75203000774E+02  0.25500000000E-02 0.  1.
         -2   -1    0    0    0  501 -0.00000000000E+00 -0.00000000000E+00 -0.19492294662E+03  0.19492294663E+03  0.25500000000E-02 0. -1.
    5000001    1    1    2    0    0 -0.10439528092E+02 -0.86243861547E+02 -0.98225702936E+02  0.15206668313E+03  0.77000000000E+02 0.  0.
   -5000001    1    1    2    0    0  0.10439528092E+02  0.86243861547E+02 -0.21494242951E+02  0.11805926428E+03  0.77000000000E+02 0.  0.
<mgrwt>
<rscale>  0 0.24214698E+03</rscale>
<asrwt>0</asrwt>
<pdfrwt beam="1">  1        2 0.10743286E-01 0.24214698E+03</pdfrwt>
<pdfrwt beam="2">  1       -2 0.27846135E-01 0.24214698E+03</pdfrwt>
<totfact> 0.67574140E+03</totfact>
</mgrwt>
</event>
<event>
 4    1  0.1305170E-003  0.1810683E+03  0.7818608E-02  0.1166773E+00
          2   -1    0    0  501    0  0.00000000000E+00  0.00000000000E+00  0.15187426211E+04  0.15187426211E+04  0.25500000000E-02 0.  1.
         -2   -1    0    0    0  501 -0.00000000000E+00 -0.00000000000E+00 -0.53968518812E+01  0.53968524836E+01  0.25500000000E-02 0. -1.
    5000001    1    1    2    0    0  0.34151541236E+02  0.18455140235E+02  0.52454106577E+03  0.53158183720E+03  0.77000000000E+02 0.  0.
   -5000001    1    1    2    0    0 -0.34151541236E+02 -0.18455140235E+02  0.98880470344E+03  0.99255763637E+03  0.77000000000E+02 0.  0.
<mgrwt>
<rscale>  0 0.18106827E+03</rscale>
<asrwt>0</asrwt>
<pdfrwt beam="1">  1        2 0.21696338E+00 0.18106827E+03</pdfrwt>
<pdfrwt beam="2">  1       -2 0.77097835E-03 0.18106827E+03</pdfrwt>
<totfact> 0.46106203E+04</totfact>
</mgrwt>
</event>
<event>
 4    1  0.1305170E-003  0.6575580E+03  0.7818608E-02  0.9792700E-01
          2   -1    0    0  501    0  0.00000000000E+00  0.00000000000E+00  0.62659713132E+03  0.62659713132E+03  0.25500000000E-02 0.  1.
         -2   -1    0    0    0  501 -0.00000000000E+00 -0.00000000000E+00 -0.17251216925E+03  0.17251216927E+03  0.25500000000E-02 0. -1.
    5000001    1    1    2    0    0  0.56313055093E+02 -0.12621797647E+02  0.60910114550E+03  0.61665523220E+03  0.77000000000E+02 0.  0.
   -5000001    1    1    2    0    0 -0.56313055093E+02  0.12621797647E+02 -0.15501618343E+03  0.18245406840E+03  0.77000000000E+02 0.  0.
<mgrwt>
<rscale>  0 0.65755800E+03</rscale>
<asrwt>0</asrwt>
<pdfrwt beam="1">  1        2 0.89513877E-01 0.65755800E+03</pdfrwt>
<pdfrwt beam="2">  1       -2 0.24644595E-01 0.65755800E+03</pdfrwt>
<totfact> 0.76037623E+02</totfact>
</mgrwt>
</event>
<event>
 4    1  0.1305170E-003  0.2169412E+03  0.7818608E-02  0.1136184E+00
          2   -1    0    0  501    0  0.00000000000E+00  0.00000000000E+00  0.13873659778E+04  0.13873659778E+04  0.25500000000E-02 0.  1.
         -2   -1    0    0    0  501 -0.00000000000E+00 -0.00000000000E+00 -0.84807292952E+01  0.84807296786E+01  0.25500000000E-02 0. -1.
    5000001    1    1    2    0    0  0.22126558807E+02  0.61302169086E+02  0.43293319638E+03  0.44453086852E+03  0.77000000000E+02 0.  0.
   -5000001    1    1    2    0    0 -0.22126558807E+02 -0.61302169086E+02  0.94595205214E+03  0.95131583898E+03  0.77000000000E+02 0.  0.
<mgrwt>
<rscale>  0 0.21694124E+03</rscale>
<asrwt>0</asrwt>
<pdfrwt beam="1">  1        2 0.19819505E+00 0.21694124E+03</pdfrwt>
<pdfrwt beam="2">  1       -2 0.12115333E-02 0.21694124E+03</pdfrwt>
<totfact> 0.28318259E+04</totfact>
</mgrwt>
</event>
<event>
 4    1  0.1305170E-003  0.3265250E+03  0.7818608E-02  0.1072685E+00
         -2   -1    0    0    0  501 -0.00000000000E+00  0.00000000000E+00  0.39461182704E+02  0.39461182787E+02  0.25500000000E-02 0. -1.
          2   -1    0    0  501    0  0.00000000000E+00 -0.00000000000E+00 -0.67546498316E+03  0.67546498316E+03  0.25500000000E-02 0.  1.
    5000001    1    1    2    0    0 -0.90841612207E+02 -0.10400711793E+03 -0.40710046428E+03  0.43672584891E+03  0.77000000000E+02 0.  0.
   -5000001    1    1    2    0    0  0.90841612207E+02  0.10400711793E+03 -0.22890333617E+03  0.27820031704E+03  0.77000000000E+02 0.  0.
<mgrwt>
<rscale>  0 0.32652502E+03</rscale>
<asrwt>0</asrwt>
<pdfrwt beam="1">  1        2 0.96494990E-01 0.32652502E+03</pdfrwt>
<pdfrwt beam="2">  1       -2 0.56373122E-02 0.32652502E+03</pdfrwt>
<totfact> 0.78237374E+03</totfact>
</mgrwt>
</event>
<event>
 4    1  0.1305170E-003  0.1954741E+03  0.7818608E-02  0.1153615E+00
          2   -1    0    0  501    0  0.00000000000E+00  0.00000000000E+00  0.90353518060E+03  0.90353518060E+03  0.25500000000E-02 0.  1.
         -2   -1    0    0    0  501 -0.00000000000E+00 -0.00000000000E+00 -0.10572392217E+02  0.10572392524E+02  0.25500000000E-02 0. -1.
    5000001    1    1    2    0    0  0.41558728618E+01 -0.57710722065E+02  0.36882987782E+03  0.38119847520E+03  0.77000000000E+02 0.  0.
   -5000001    1    1    2    0    0 -0.41558728618E+01  0.57710722065E+02  0.52413291056E+03  0.53290909793E+03  0.77000000000E+02 0.  0.
<mgrwt>
<rscale>  0 0.19547407E+03</rscale>
<asrwt>0</asrwt>
<pdfrwt beam="1">  1        2 0.12907644E+00 0.19547407E+03</pdfrwt>
<pdfrwt beam="2">  1       -2 0.15103419E-02 0.19547407E+03</pdfrwt>
<totfact> 0.37835390E+04</totfact>
</mgrwt>
</event>
<event>
 4    1  0.1305170E-003  0.2315276E+03  0.7818608E-02  0.1125569E+00
         -2   -1    0    0    0  501 -0.00000000000E+00  0.00000000000E+00  0.17581326590E+03  0.17581326591E+03  0.25500000000E-02 0. -1.
          2   -1    0    0  501    0  0.00000000000E+00 -0.00000000000E+00 -0.76224411942E+02  0.76224411985E+02  0.25500000000E-02 0.  1.
    5000001    1    1    2    0    0  0.86409860699E+02 -0.44935653620E-01  0.52369747136E+02  0.12703643753E+03  0.77000000000E+02 0.  0.
   -5000001    1    1    2    0    0 -0.86409860699E+02  0.44935653620E-01  0.47219106818E+02  0.12500124037E+03  0.77000000000E+02 0.  0.
<mgrwt>
<rscale>  0 0.23152765E+03</rscale>
<asrwt>0</asrwt>
<pdfrwt beam="1">  1        2 0.10889202E-01 0.23152765E+03</pdfrwt>
<pdfrwt beam="2">  1       -2 0.25116181E-01 0.23152765E+03</pdfrwt>
<totfact> 0.79648104E+03</totfact>
</mgrwt>
</event>
<event>
 4    1  0.1305170E-003  0.1965376E+03  0.7818608E-02  0.1152694E+00
         -2   -1    0    0    0  501 -0.00000000000E+00  0.00000000000E+00  0.16097566065E+03  0.16097566067E+03  0.25500000000E-02 0. -1.
          2   -1    0    0  501    0  0.00000000000E+00 -0.00000000000E+00 -0.59988934202E+02  0.59988934256E+02  0.25500000000E-02 0.  1.
    5000001    1    1    2    0    0 -0.33854667508E+02 -0.41382690379E+02  0.17348969564E+02  0.95334423583E+02  0.77000000000E+02 0.  0.
   -5000001    1    1    2    0    0  0.33854667508E+02  0.41382690379E+02  0.83637756885E+02  0.12563017134E+03  0.77000000000E+02 0.  0.
<mgrwt>
<rscale>  0 0.19653761E+03</rscale>
<asrwt>0</asrwt>
<pdfrwt beam="1">  1        2 0.85698477E-02 0.19653761E+03</pdfrwt>
<pdfrwt beam="2">  1       -2 0.22996523E-01 0.19653761E+03</pdfrwt>
<totfact> 0.12380984E+04</totfact>
</mgrwt>
</event>
<event>
 4    1  0.1305170E-003  0.2020677E+03  0.7818608E-02  0.1148006E+00
          2   -1    0    0  501    0  0.00000000000E+00  0.00000000000E+00  0.43128288893E+03  0.43128288894E+03  0.25500000000E-02 0.  1.
         -2   -1    0    0    0  501 -0.00000000000E+00 -0.00000000000E+00 -0.23668543503E+02  0.23668543640E+02  0.25500000000E-02 0. -1.
    5000001    1    1    2    0    0  0.49811302723E+02 -0.26324499752E+02  0.27863943919E+03  0.29452178568E+03  0.77000000000E+02 0.  0.
   -5000001    1    1    2    0    0 -0.49811302723E+02  0.26324499752E+02  0.12897490624E+03  0.16042964690E+03  0.77000000000E+02 0.  0.
<mgrwt>
<rscale>  0 0.20206769E+03</rscale>
<asrwt>0</asrwt>
<pdfrwt beam="1">  1        2 0.61611829E-01 0.20206769E+03</pdfrwt>
<pdfrwt beam="2">  1       -2 0.33812212E-02 0.20206769E+03</pdfrwt>
<totfact> 0.27314075E+04</totfact>
</mgrwt>
</event>
<event>
 4    1  0.1305170E-003  0.2251652E+03  0.7818608E-02  0.1130090E+00
         -2   -1    0    0    0  501 -0.00000000000E+00  0.00000000000E+00  0.36258104490E+02  0.36258104579E+02  0.25500000000E-02 0. -1.
          2   -1    0    0  501    0  0.00000000000E+00 -0.00000000000E+00 -0.34957265808E+03  0.34957265809E+03  0.25500000000E-02 0.  1.
    5000001    1    1    2    0    0  0.56369336453E+02 -0.34614362496E+02 -0.73234090235E+02  0.12517143506E+03  0.77000000000E+02 0.  0.
   -5000001    1    1    2    0    0 -0.56369336453E+02  0.34614362496E+02 -0.24008046335E+03  0.26065932760E+03  0.77000000000E+02 0.  0.
<mgrwt>
<rscale>  0 0.22516520E+03</rscale>
<asrwt>0</asrwt>
<pdfrwt beam="1">  1        2 0.49938949E-01 0.22516520E+03</pdfrwt>
<pdfrwt beam="2">  1       -2 0.51797294E-02 0.22516520E+03</pdfrwt>
<totfact> 0.18186650E+04</totfact>
</mgrwt>
</event>
<event>
 4    1  0.1305170E-003  0.2018229E+03  0.7818608E-02  0.1148210E+00
         -2   -1    0    0    0  501 -0.00000000000E+00  0.00000000000E+00  0.19156342912E+02  0.19156343082E+02  0.25500000000E-02 0. -1.
          2   -1    0    0  501    0  0.00000000000E+00 -0.00000000000E+00 -0.53157934734E+03  0.53157934734E+03  0.25500000000E-02 0.  1.
    5000001    1    1    2    0    0  0.12008378664E+02 -0.60976908574E+02 -0.31022064364E+03  0.32561976641E+03  0.77000000000E+02 0.  0.
   -5000001    1    1    2    0    0 -0.12008378664E+02  0.60976908574E+02 -0.20220236079E+03  0.22511592401E+03  0.77000000000E+02 0.  0.
<mgrwt>
<rscale>  0 0.20182286E+03</rscale>
<asrwt>0</asrwt>
<pdfrwt beam="1">  1        2 0.75939898E-01 0.20182286E+03</pdfrwt>
<pdfrwt beam="2">  1       -2 0.27366208E-02 0.20182286E+03</pdfrwt>
<totfact> 0.29730288E+04</totfact>
</mgrwt>
</event>
<event>
 4    1  0.1305170E-003  0.2142322E+03  0.7818608E-02  0.1138258E+00
          2   -1    0    0  501    0  0.00000000000E+00  0.00000000000E+00  0.46749620983E+03  0.46749620984E+03  0.25500000000E-02 0.  1.
         -2   -1    0    0    0  501 -0.00000000000E+00 -0.00000000000E+00 -0.24543211598E+02  0.24543211731E+02  0.25500000000E-02 0. -1.
    5000001    1    1    2    0    0  0.18387536358E+01  0.63927738457E+02  0.30907670257E+03  0.32488081634E+03  0.77000000000E+02 0.  0.
   -5000001    1    1    2    0    0 -0.18387536358E+01 -0.63927738457E+02  0.13387629567E+03  0.16715860522E+03  0.77000000000E+02 0.  0.
<mgrwt>
<rscale>  0 0.21423220E+03</rscale>
<asrwt>0</asrwt>
<pdfrwt beam="1">  1        2 0.66785175E-01 0.21423220E+03</pdfrwt>
<pdfrwt beam="2">  1       -2 0.35061730E-02 0.21423220E+03</pdfrwt>
<totfact> 0.23813767E+04</totfact>
</mgrwt>
</event>
<event>
 4    1  0.1305170E-003  0.2360660E+03  0.7818608E-02  0.1122442E+00
         -2   -1    0    0    0  501 -0.00000000000E+00  0.00000000000E+00  0.22081124188E+02  0.22081124336E+02  0.25500000000E-02 0. -1.
          2   -1    0    0  501    0  0.00000000000E+00 -0.00000000000E+00 -0.63093644521E+03  0.63093644522E+03  0.25500000000E-02 0.  1.
    5000001    1    1    2    0    0 -0.52216379229E+02 -0.57412418137E+02 -0.42751958303E+03  0.44127625122E+03  0.77000000000E+02 0.  0.
   -5000001    1    1    2    0    0  0.52216379229E+02  0.57412418137E+02 -0.18133573800E+03  0.21174131834E+03  0.77000000000E+02 0.  0.
<mgrwt>
<rscale>  0 0.23606597E+03</rscale>
<asrwt>0</asrwt>
<pdfrwt beam="1">  1        2 0.90133767E-01 0.23606597E+03</pdfrwt>
<pdfrwt beam="2">  1       -2 0.31544467E-02 0.23606597E+03</pdfrwt>
<totfact> 0.20069171E+04</totfact>
</mgrwt>
</event>
<event>
 4    1  0.1305170E-003  0.2011113E+03  0.7818608E-02  0.1148805E+00
          2   -1    0    0  501    0  0.00000000000E+00  0.00000000000E+00  0.10511469455E+04  0.10511469455E+04  0.25500000000E-02 0.  1.
         -2   -1    0    0    0  501 -0.00000000000E+00 -0.00000000000E+00 -0.96194378222E+01  0.96194381602E+01  0.25500000000E-02 0. -1.
    5000001    1    1    2    0    0 -0.13895893573E+02  0.62136098287E+02  0.46098399983E+03  0.47168764947E+03  0.77000000000E+02 0.  0.
   -5000001    1    1    2    0    0  0.13895893573E+02 -0.62136098287E+02  0.58054350788E+03  0.58907873422E+03  0.77000000000E+02 0.  0.
<mgrwt>
<rscale>  0 0.20111134E+03</rscale>
<asrwt>0</asrwt>
<pdfrwt beam="1">  1        2 0.15016379E+00 0.20111134E+03</pdfrwt>
<pdfrwt beam="2">  1       -2 0.13742060E-02 0.20111134E+03</pdfrwt>
<totfact> 0.35561299E+04</totfact>
</mgrwt>
</event>
<event>
 4    1  0.1305170E-003  0.2262987E+03  0.7818608E-02  0.1129272E+00
          2   -1    0    0  501    0  0.00000000000E+00  0.00000000000E+00  0.14120014825E+04  0.14120014825E+04  0.25500000000E-02 0.  1.
         -2   -1    0    0    0  501 -0.00000000000E+00 -0.00000000000E+00 -0.90671152269E+01  0.90671155855E+01  0.25500000000E-02 0. -1.
    5000001    1    1    2    0    0  0.51357870874E+02 -0.37749240338E+02  0.36852066930E+03  0.38183650919E+03  0.77000000000E+02 0.  0.
   -5000001    1    1    2    0    0 -0.51357870874E+02  0.37749240338E+02  0.10344136980E+04  0.10392320889E+04  0.77000000000E+02 0.  0.
<mgrwt>
<rscale>  0 0.22629874E+03</rscale>
<asrwt>0</asrwt>
<pdfrwt beam="1">  1        2 0.20171431E+00 0.22629874E+03</pdfrwt>
<pdfrwt beam="2">  1       -2 0.12953034E-02 0.22629874E+03</pdfrwt>
<totfact> 0.25024106E+04</totfact>
</mgrwt>
</event>
<event>
 4    1  0.1305170E-003  0.1863052E+03  0.7818608E-02  0.1161837E+00
          2   -1    0    0  501    0  0.00000000000E+00  0.00000000000E+00  0.11129003108E+04  0.11129003108E+04  0.25500000000E-02 0.  1.
         -2   -1    0    0    0  501 -0.00000000000E+00 -0.00000000000E+00 -0.77971079108E+01  0.77971083278E+01  0.25500000000E-02 0. -1.
    5000001    1    1    2    0    0 -0.12558052721E+02  0.48950457272E+02  0.46864784127E+03  0.47761244862E+03  0.77000000000E+02 0.  0.
   -5000001    1    1    2    0    0  0.12558052721E+02 -0.48950457272E+02  0.63645536161E+03  0.64308497049E+03  0.77000000000E+02 0.  0.
<mgrwt>
<rscale>  0 0.18630517E+03</rscale>
<asrwt>0</asrwt>
<pdfrwt beam="1">  1        2 0.15898588E+00 0.18630517E+03</pdfrwt>
<pdfrwt beam="2">  1       -2 0.11138718E-02 0.18630517E+03</pdfrwt>
<totfact> 0.44234657E+04</totfact>
</mgrwt>
</event>
<event>
 4    1  0.1305170E-003  0.2746344E+03  0.7818608E-02  0.1098656E+00
         -2   -1    0    0    0  501 -0.00000000000E+00  0.00000000000E+00  0.51593387281E+03  0.51593387281E+03  0.25500000000E-02 0. -1.
          2   -1    0    0  501    0  0.00000000000E+00 -0.00000000000E+00 -0.36547356429E+02  0.36547356518E+02  0.25500000000E-02 0.  1.
    5000001    1    1    2    0    0  0.19257665754E+02 -0.75960827613E+02  0.40541256440E+03  0.42003482284E+03  0.77000000000E+02 0.  0.
   -5000001    1    1    2    0    0 -0.19257665754E+02  0.75960827613E+02  0.73973951976E+02  0.13244640649E+03  0.77000000000E+02 0.  0.
<mgrwt>
<rscale>  0 0.27463444E+03</rscale>
<asrwt>0</asrwt>
<pdfrwt beam="1">  1        2 0.52210508E-02 0.27463444E+03</pdfrwt>
<pdfrwt beam="2">  1       -2 0.73704841E-01 0.27463444E+03</pdfrwt>
<totfact> 0.25260085E+03</totfact>
</mgrwt>
</event>
<event>
 4    1  0.1305170E-003  0.2746811E+03  0.7818608E-02  0.1098630E+00
          2   -1    0    0  501    0  0.00000000000E+00  0.00000000000E+00  0.19319628404E+03  0.19319628405E+03  0.25500000000E-02 0.  1.
         -2   -1    0    0    0  501 -0.00000000000E+00 -0.00000000000E+00 -0.97633472685E+02  0.97633472718E+02  0.25500000000E-02 0. -1.
    5000001    1    1    2    0    0 -0.93254074568E+02  0.30103406204E+02 -0.13325461334E+02  0.12533597013E+03  0.77000000000E+02 0.  0.
   -5000001    1    1    2    0    0  0.93254074568E+02 -0.30103406204E+02  0.10888827269E+03  0.16549378664E+03  0.77000000000E+02 0.  0.
<mgrwt>
<rscale>  0 0.27468108E+03</rscale>
<asrwt>0</asrwt>
<pdfrwt beam="1">  1        2 0.27599469E-01 0.27468108E+03</pdfrwt>
<pdfrwt beam="2">  1       -2 0.13947639E-01 0.27468108E+03</pdfrwt>
<totfact> 0.73707696E+03</totfact>
</mgrwt>
</event>
<event>
 4    1  0.1305170E-003  0.2433078E+03  0.7818608E-02  0.1117609E+00
          2   -1    0    0  501    0  0.00000000000E+00  0.00000000000E+00  0.63595488256E+01  0.63595493368E+01  0.25500000000E-02 0.  1.
         -2   -1    0    0    0  501 -0.00000000000E+00 -0.00000000000E+00 -0.23271579349E+04  0.23271579349E+04  0.25500000000E-02 0. -1.
    5000001    1    1    2    0    0 -0.71376435789E+02 -0.44638332009E+02 -0.75536527947E+03  0.76393251122E+03  0.77000000000E+02 0.  0.
   -5000001    1    1    2    0    0  0.71376435789E+02  0.44638332009E+02 -0.15654331066E+04  0.15695849730E+04  0.77000000000E+02 0.  0.
<mgrwt>
<rscale>  0 0.24330783E+03</rscale>
<asrwt>0</asrwt>
<pdfrwt beam="1">  1        2 0.90850850E-03 0.24330783E+03</pdfrwt>
<pdfrwt beam="2">  1       -2 0.33245059E+00 0.24330783E+03</pdfrwt>
<totfact> 0.38894139E+02</totfact>
</mgrwt>
</event>
<event>
 4    1  0.1305170E-003  0.1619197E+03  0.7818608E-02  0.1186546E+00
         -2   -1    0    0    0  501 -0.00000000000E+00  0.00000000000E+00  0.24931814759E+01  0.24931827800E+01  0.25500000000E-02 0. -1.
          2   -1    0    0  501    0  0.00000000000E+00 -0.00000000000E+00 -0.26289670107E+04  0.26289670107E+04  0.25500000000E-02 0.  1.
    5000001    1    1    2    0    0  0.21733535864E+02 -0.87789934845E+01 -0.11714873218E+04  0.11742491058E+04  0.77000000000E+02 0.  0.
   -5000001    1    1    2    0    0 -0.21733535864E+02  0.87789934845E+01 -0.14549865074E+04  0.14572110877E+04  0.77000000000E+02 0.  0.
<mgrwt>
<rscale>  0 0.16191965E+03</rscale>
<asrwt>0</asrwt>
<pdfrwt beam="1">  1        2 0.37556494E+00 0.16191965E+03</pdfrwt>
<pdfrwt beam="2">  1       -2 0.35617056E-03 0.16191965E+03</pdfrwt>
<totfact> 0.39864443E+04</totfact>
</mgrwt>
</event>
<event>
 4    1  0.1305170E-003  0.7116905E+03  0.7818608E-02  0.9697446E-01
          2   -1    0    0  501    0  0.00000000000E+00  0.00000000000E+00  0.34432574280E+03  0.34432574281E+03  0.25500000000E-02 0.  1.
         -2   -1    0    0    0  501 -0.00000000000E+00 -0.00000000000E+00 -0.36775019246E+03  0.36775019247E+03  0.25500000000E-02 0. -1.
    5000001    1    1    2    0    0  0.27048339411E+03  0.14885702179E+02  0.20592339666E+03  0.34887862633E+03  0.77000000000E+02 0.  0.
   -5000001    1    1    2    0    0 -0.27048339411E+03 -0.14885702179E+02 -0.22934784632E+03  0.36319730895E+03  0.77000000000E+02 0.  0.
<mgrwt>
<rscale>  0 0.71169055E+03</rscale>
<asrwt>0</asrwt>
<pdfrwt beam="1">  1        2 0.49189392E-01 0.71169055E+03</pdfrwt>
<pdfrwt beam="2">  1       -2 0.52535742E-01 0.71169055E+03</pdfrwt>
<totfact> 0.35254179E+02</totfact>
</mgrwt>
</event>
<event>
 4    1  0.1305170E-003  0.5239958E+03  0.7818608E-02  0.1007699E+00
          2   -1    0    0  501    0  0.00000000000E+00  0.00000000000E+00  0.25261410209E+03  0.25261410211E+03  0.25500000000E-02 0.  1.
         -2   -1    0    0    0  501 -0.00000000000E+00 -0.00000000000E+00 -0.27173022873E+03  0.27173022874E+03  0.25500000000E-02 0. -1.
    5000001    1    1    2    0    0  0.94038495446E+02 -0.19684650387E+03  0.11349570131E+03  0.25768596960E+03  0.77000000000E+02 0.  0.
   -5000001    1    1    2    0    0 -0.94038495446E+02  0.19684650387E+03 -0.13261182795E+03  0.26665836125E+03  0.77000000000E+02 0.  0.
<mgrwt>
<rscale>  0 0.52399575E+03</rscale>
<asrwt>0</asrwt>
<pdfrwt beam="1">  1        2 0.36087729E-01 0.52399575E+03</pdfrwt>
<pdfrwt beam="2">  1       -2 0.38818604E-01 0.52399575E+03</pdfrwt>
<totfact> 0.90884095E+02</totfact>
</mgrwt>
</event>
<event>
 4    1  0.1305170E-003  0.2448282E+03  0.7818608E-02  0.1116618E+00
          2   -1    0    0  501    0  0.00000000000E+00  0.00000000000E+00  0.31465852414E+04  0.31465852414E+04  0.25500000000E-02 0.  1.
         -2   -1    0    0    0  501 -0.00000000000E+00 -0.00000000000E+00 -0.47623740697E+01  0.47623747524E+01  0.25500000000E-02 0. -1.
    5000001    1    1    2    0    0 -0.33926090175E+02 -0.61371789847E+02  0.23989849866E+04  0.24012445611E+04  0.77000000000E+02 0.  0.
   -5000001    1    1    2    0    0  0.33926090175E+02  0.61371789847E+02  0.74283788079E+03  0.75010305513E+03  0.77000000000E+02 0.  0.
<mgrwt>
<rscale>  0 0.24482824E+03</rscale>
<asrwt>0</asrwt>
<pdfrwt beam="1">  1        2 0.44951223E+00 0.24482824E+03</pdfrwt>
<pdfrwt beam="2">  1       -2 0.68033912E-03 0.24482824E+03</pdfrwt>
<totfact> 0.86339130E+03</totfact>
</mgrwt>
</event>
<event>
 4    1  0.1305170E-003  0.2556980E+03  0.7818608E-02  0.1109756E+00
          2   -1    0    0  501    0  0.00000000000E+00  0.00000000000E+00  0.19233507139E+04  0.19233507139E+04  0.25500000000E-02 0.  1.
         -2   -1    0    0    0  501 -0.00000000000E+00 -0.00000000000E+00 -0.84983797863E+01  0.84983801688E+01  0.25500000000E-02 0. -1.
    5000001    1    1    2    0    0  0.45474048307E+01 -0.50138945536E+02  0.28668056314E+03  0.30108028502E+03  0.77000000000E+02 0.  0.
   -5000001    1    1    2    0    0 -0.45474048307E+01  0.50138945536E+02  0.16281717709E+04  0.16307688090E+04  0.77000000000E+02 0.  0.
<mgrwt>
<rscale>  0 0.25569799E+03</rscale>
<asrwt>0</asrwt>
<pdfrwt beam="1">  1        2 0.27476452E+00 0.25569799E+03</pdfrwt>
<pdfrwt beam="2">  1       -2 0.12140537E-02 0.25569799E+03</pdfrwt>
<totfact> 0.15440264E+04</totfact>
</mgrwt>
</event>
<event>
 4    1  0.1305170E-003  0.5705239E+03  0.7818608E-02  0.9968520E-01
         -2   -1    0    0    0  501 -0.00000000000E+00  0.00000000000E+00  0.53988397016E+02  0.53988397076E+02  0.25500000000E-02 0. -1.
          2   -1    0    0  501    0  0.00000000000E+00 -0.00000000000E+00 -0.15072569388E+04  0.15072569388E+04  0.25500000000E-02 0.  1.
    5000001    1    1    2    0    0 -0.81447350416E+02  0.26067266627E+03 -0.80695339194E+03  0.85538686370E+03  0.77000000000E+02 0.  0.
   -5000001    1    1    2    0    0  0.81447350416E+02 -0.26067266627E+03 -0.64631514987E+03  0.70585847221E+03  0.77000000000E+02 0.  0.
<mgrwt>
<rscale>  0 0.57052392E+03</rscale>
<asrwt>0</asrwt>
<pdfrwt beam="1">  1        2 0.21532239E+00 0.57052392E+03</pdfrwt>
<pdfrwt beam="2">  1       -2 0.77126291E-02 0.57052392E+03</pdfrwt>
<totfact> 0.15339309E+03</totfact>
</mgrwt>
</event>
<event>
 4    1  0.1305170E-003  0.2032052E+03  0.7818608E-02  0.1147063E+00
          2   -1    0    0  501    0  0.00000000000E+00  0.00000000000E+00  0.39557882635E+04  0.39557882635E+04  0.25500000000E-02 0.  1.
         -2   -1    0    0    0  501 -0.00000000000E+00 -0.00000000000E+00 -0.26096166410E+01  0.26096178869E+01  0.25500000000E-02 0. -1.
    5000001    1    1    2    0    0  0.16654834685E+02 -0.61544330125E+02  0.16232549061E+04  0.16263304026E+04  0.77000000000E+02 0.  0.
   -5000001    1    1    2    0    0 -0.16654834685E+02  0.61544330125E+02  0.23299237408E+04  0.23320674788E+04  0.77000000000E+02 0.  0.
<mgrwt>
<rscale>  0 0.20320525E+03</rscale>
<asrwt>0</asrwt>
<pdfrwt beam="1">  1        2 0.56510943E+00 0.20320525E+03</pdfrwt>
<pdfrwt beam="2">  1       -2 0.37280456E-03 0.20320525E+03</pdfrwt>
<totfact> 0.68885177E+03</totfact>
</mgrwt>
</event>
<event>
 4    1  0.1305170E-003  0.3245523E+03  0.7818608E-02  0.1073573E+00
          2   -1    0    0  501    0  0.00000000000E+00  0.00000000000E+00  0.96264409561E+02  0.96264409595E+02  0.25500000000E-02 0.  1.
         -2   -1    0    0    0  501 -0.00000000000E+00 -0.00000000000E+00 -0.27355440084E+03  0.27355440085E+03  0.25500000000E-02 0. -1.
    5000001    1    1    2    0    0 -0.11312217524E+03 -0.79537006642E+02 -0.12944055295E+03  0.20446666893E+03  0.77000000000E+02 0.  0.
   -5000001    1    1    2    0    0  0.11312217524E+03  0.79537006642E+02 -0.47849438333E+02  0.16535214152E+03  0.77000000000E+02 0.  0.
<mgrwt>
<rscale>  0 0.32455232E+03</rscale>
<asrwt>0</asrwt>
<pdfrwt beam="1">  1        2 0.13752059E-01 0.32455232E+03</pdfrwt>
<pdfrwt beam="2">  1       -2 0.39079200E-01 0.32455232E+03</pdfrwt>
<totfact> 0.27030960E+03</totfact>
</mgrwt>
</event>
<event>
 4    1  0.1305170E-003  0.2108464E+03  0.7818608E-02  0.1140897E+00
          2   -1    0    0  501    0  0.00000000000E+00  0.00000000000E+00  0.10077197107E+04  0.10077197107E+04  0.25500000000E-02 0.  1.
         -2   -1    0    0    0  501 -0.00000000000E+00 -0.00000000000E+00 -0.11028909942E+02  0.11028910237E+02  0.25500000000E-02 0. -1.
    5000001    1    1    2    0    0 -0.48661979768E+01  0.71205720712E+02  0.45222457218E+03  0.46425208479E+03  0.77000000000E+02 0.  0.
   -5000001    1    1    2    0    0  0.48661979768E+01 -0.71205720712E+02  0.54446622858E+03  0.55449653616E+03  0.77000000000E+02 0.  0.
<mgrwt>
<rscale>  0 0.21084639E+03</rscale>
<asrwt>0</asrwt>
<pdfrwt beam="1">  1        2 0.14396000E+00 0.21084639E+03</pdfrwt>
<pdfrwt beam="2">  1       -2 0.15755582E-02 0.21084639E+03</pdfrwt>
<totfact> 0.30983113E+04</totfact>
</mgrwt>
</event>
<event>
 4    1  0.1305170E-003  0.2025553E+03  0.7818608E-02  0.1147601E+00
         -2   -1    0    0    0  501 -0.00000000000E+00  0.00000000000E+00  0.50789178271E+02  0.50789178335E+02  0.25500000000E-02 0. -1.
          2   -1    0    0  501    0  0.00000000000E+00 -0.00000000000E+00 -0.20195570917E+03  0.20195570919E+03  0.25500000000E-02 0.  1.
    5000001    1    1    2    0    0 -0.46558914213E+02  0.46208958681E+02 -0.69323903903E+02  0.12262872423E+03  0.77000000000E+02 0.  0.
   -5000001    1    1    2    0    0  0.46558914213E+02 -0.46208958681E+02 -0.81842626997E+02  0.13011616329E+03  0.77000000000E+02 0.  0.
<mgrwt>
<rscale>  0 0.20255532E+03</rscale>
<asrwt>0</asrwt>
<pdfrwt beam="1">  1        2 0.28850815E-01 0.20255532E+03</pdfrwt>
<pdfrwt beam="2">  1       -2 0.72555970E-02 0.20255532E+03</pdfrwt>
<totfact> 0.19476511E+04</totfact>
</mgrwt>
</event>
<event>
 4    1  0.1305170E-003  0.2393951E+03  0.7818608E-02  0.1120196E+00
         -2   -1    0    0    0  501 -0.00000000000E+00  0.00000000000E+00  0.12191827071E+02  0.12191827337E+02  0.25500000000E-02 0. -1.
          2   -1    0    0  501    0  0.00000000000E+00 -0.00000000000E+00 -0.11751724927E+04  0.11751724928E+04  0.25500000000E-02 0.  1.
    5000001    1    1    2    0    0  0.54622706044E+02 -0.26770155043E+02 -0.24152439373E+03  0.26069774449E+03  0.77000000000E+02 0.  0.
   -5000001    1    1    2    0    0 -0.54622706044E+02  0.26770155043E+02 -0.92145627195E+03  0.92666657559E+03  0.77000000000E+02 0.  0.
<mgrwt>
<rscale>  0 0.23939507E+03</rscale>
<asrwt>0</asrwt>
<pdfrwt beam="1">  1        2 0.16788171E+00 0.23939507E+03</pdfrwt>
<pdfrwt beam="2">  1       -2 0.17416903E-02 0.23939507E+03</pdfrwt>
<totfact> 0.21709493E+04</totfact>
</mgrwt>
</event>
<event>
 4    1  0.1305170E-003  0.2268726E+03  0.7818608E-02  0.1128861E+00
          2   -1    0    0  501    0  0.00000000000E+00  0.00000000000E+00  0.86662577425E+03  0.86662577425E+03  0.25500000000E-02 0.  1.
         -2   -1    0    0    0  501 -0.00000000000E+00 -0.00000000000E+00 -0.14848151578E+02  0.14848151797E+02  0.25500000000E-02 0. -1.
    5000001    1    1    2    0    0 -0.15916062571E+02 -0.76351563231E+02  0.53955759082E+03  0.55057631266E+03  0.77000000000E+02 0.  0.
   -5000001    1    1    2    0    0  0.15916062571E+02  0.76351563231E+02  0.31222003185E+03  0.33089761339E+03  0.77000000000E+02 0.  0.
<mgrwt>
<rscale>  0 0.22687257E+03</rscale>
<asrwt>0</asrwt>
<pdfrwt beam="1">  1        2 0.12380369E+00 0.22687257E+03</pdfrwt>
<pdfrwt beam="2">  1       -2 0.21211643E-02 0.22687257E+03</pdfrwt>
<totfact> 0.24555049E+04</totfact>
</mgrwt>
</event>
<event>
 4    1  0.1305170E-003  0.2241189E+03  0.7818608E-02  0.1130849E+00
         -2   -1    0    0    0  501 -0.00000000000E+00  0.00000000000E+00  0.35174413310E+03  0.35174413311E+03  0.25500000000E-02 0. -1.
          2   -1    0    0  501    0  0.00000000000E+00 -0.00000000000E+00 -0.35700150031E+02  0.35700150122E+02  0.25500000000E-02 0.  1.
    5000001    1    1    2    0    0  0.59086647927E+02  0.43396895140E+02  0.96808912196E+02  0.14378973521E+03  0.77000000000E+02 0.  0.
   -5000001    1    1    2    0    0 -0.59086647927E+02 -0.43396895140E+02  0.21923507087E+03  0.24365454802E+03  0.77000000000E+02 0.  0.
<mgrwt>
<rscale>  0 0.22411888E+03</rscale>
<asrwt>0</asrwt>
<pdfrwt beam="1">  1        2 0.51000212E-02 0.22411888E+03</pdfrwt>
<pdfrwt beam="2">  1       -2 0.50249164E-01 0.22411888E+03</pdfrwt>
<totfact> 0.57203368E+03</totfact>
</mgrwt>
</event>
<event>
 4    1  0.1305170E-003  0.2386259E+03  0.7818608E-02  0.1120712E+00
          2   -1    0    0  501    0  0.00000000000E+00  0.00000000000E+00  0.65928421608E+02  0.65928421657E+02  0.25500000000E-02 0.  1.
         -2   -1    0    0    0  501 -0.00000000000E+00 -0.00000000000E+00 -0.21592476523E+03  0.21592476524E+03  0.25500000000E-02 0. -1.
    5000001    1    1    2    0    0 -0.53233544276E+02  0.66632593447E+02 -0.37038065163E+02  0.12072502233E+03  0.77000000000E+02 0.  0.
   -5000001    1    1    2    0    0  0.53233544276E+02 -0.66632593447E+02 -0.11295827846E+03  0.16112816457E+03  0.77000000000E+02 0.  0.
<mgrwt>
<rscale>  0 0.23862589E+03</rscale>
<asrwt>0</asrwt>
<pdfrwt beam="1">  1        2 0.94183461E-02 0.23862589E+03</pdfrwt>
<pdfrwt beam="2">  1       -2 0.30846395E-01 0.23862589E+03</pdfrwt>
<totfact> 0.66074173E+03</totfact>
</mgrwt>
</event>
<event>
 4    1  0.1305170E-003  0.2264525E+03  0.7818608E-02  0.1129162E+00
         -2   -1    0    0    0  501 -0.00000000000E+00  0.00000000000E+00  0.92056565582E+02  0.92056565617E+02  0.25500000000E-02 0. -1.
          2   -1    0    0  501    0  0.00000000000E+00 -0.00000000000E+00 -0.13926423634E+03  0.13926423636E+03  0.25500000000E-02 0.  1.
    5000001    1    1    2    0    0 -0.58823765292E+02  0.49034061647E+02 -0.56333445710E+02  0.12233982046E+03  0.77000000000E+02 0.  0.
   -5000001    1    1    2    0    0  0.58823765292E+02 -0.49034061647E+02  0.91257749517E+01  0.10898098152E+03  0.77000000000E+02 0.  0.
<mgrwt>
<rscale>  0 0.22645253E+03</rscale>
<asrwt>0</asrwt>
<pdfrwt beam="1">  1        2 0.19894891E-01 0.22645253E+03</pdfrwt>
<pdfrwt beam="2">  1       -2 0.13150938E-01 0.22645253E+03</pdfrwt>
<totfact> 0.11607565E+04</totfact>
</mgrwt>
</event>
<event>
 4    1  0.1305170E-003  0.2144565E+03  0.7818608E-02  0.1138085E+00
          2   -1    0    0  501    0  0.00000000000E+00  0.00000000000E+00  0.14583595016E+03  0.14583595018E+03  0.25500000000E-02 0.  1.
         -2   -1    0    0    0  501 -0.00000000000E+00 -0.00000000000E+00 -0.78841276592E+02  0.78841276633E+02  0.25500000000E-02 0. -1.
    5000001    1    1    2    0    0  0.45744002833E+01  0.67119774209E+02  0.67330449089E+02  0.12242703379E+03  0.77000000000E+02 0.  0.
   -5000001    1    1    2    0    0 -0.45744002833E+01 -0.67119774209E+02 -0.33577552541E+00  0.10225019302E+03  0.77000000000E+02 0.  0.
<mgrwt>
<rscale>  0 0.21445645E+03</rscale>
<asrwt>0</asrwt>
<pdfrwt beam="1">  1        2 0.20833707E-01 0.21445645E+03</pdfrwt>
<pdfrwt beam="2">  1       -2 0.11263040E-01 0.21445645E+03</pdfrwt>
<totfact> 0.14089783E+04</totfact>
</mgrwt>
</event>
<event>
 4    1  0.1305170E-003  0.2217529E+03  0.7818608E-02  0.1132583E+00
         -2   -1    0    0    0  501 -0.00000000000E+00  0.00000000000E+00  0.13959977686E+02  0.13959977919E+02  0.25500000000E-02 0. -1.
          2   -1    0    0  501    0  0.00000000000E+00 -0.00000000000E+00 -0.88063088486E+03  0.88063088486E+03  0.25500000000E-02 0.  1.
    5000001    1    1    2    0    0  0.71783700123E+02  0.32692300175E+02 -0.38511030697E+03  0.40057537946E+03  0.77000000000E+02 0.  0.
   -5000001    1    1    2    0    0 -0.71783700123E+02 -0.32692300175E+02 -0.48156060020E+03  0.49401548332E+03  0.77000000000E+02 0.  0.
<mgrwt>
<rscale>  0 0.22175290E+03</rscale>
<asrwt>0</asrwt>
<pdfrwt beam="1">  1        2 0.12580438E+00 0.22175290E+03</pdfrwt>
<pdfrwt beam="2">  1       -2 0.19942831E-02 0.22175290E+03</pdfrwt>
<totfact> 0.26299507E+04</totfact>
</mgrwt>
</event>
<event>
 4    1  0.1305170E-003  0.2281698E+03  0.7818608E-02  0.1127935E+00
          2   -1    0    0  501    0  0.00000000000E+00  0.00000000000E+00  0.13884604351E+04  0.13884604352E+04  0.25500000000E-02 0.  1.
         -2   -1    0    0    0  501 -0.00000000000E+00 -0.00000000000E+00 -0.93739566511E+01  0.93739569980E+01  0.25500000000E-02 0. -1.
    5000001    1    1    2    0    0  0.78210080915E+02  0.31129937017E+02  0.69378075191E+03  0.70309787473E+03  0.77000000000E+02 0.  0.
   -5000001    1    1    2    0    0 -0.78210080915E+02 -0.31129937017E+02  0.68530572659E+03  0.69473651741E+03  0.77000000000E+02 0.  0.
<mgrwt>
<rscale>  0 0.22816983E+03</rscale>
<asrwt>0</asrwt>
<pdfrwt beam="1">  1        2 0.19835135E+00 0.22816983E+03</pdfrwt>
<pdfrwt beam="2">  1       -2 0.13391377E-02 0.22816983E+03</pdfrwt>
<totfact> 0.24523039E+04</totfact>
</mgrwt>
</event>
<event>
 4    1  0.1305170E-003  0.6142983E+03  0.7818608E-02  0.9876178E-01
         -2   -1    0    0    0  501 -0.00000000000E+00  0.00000000000E+00  0.50827417797E+02  0.50827417861E+02  0.25500000000E-02 0. -1.
          2   -1    0    0  501    0  0.00000000000E+00 -0.00000000000E+00 -0.18560963721E+04  0.18560963721E+04  0.25500000000E-02 0.  1.
    5000001    1    1    2    0    0 -0.14501348429E+02 -0.25829689945E+03 -0.13576348099E+04  0.13842069406E+04  0.77000000000E+02 0.  0.
   -5000001    1    1    2    0    0  0.14501348429E+02  0.25829689945E+03 -0.44763414444E+03  0.52271684939E+03  0.77000000000E+02 0.  0.
<mgrwt>
<rscale>  0 0.61429825E+03</rscale>
<asrwt>0</asrwt>
<pdfrwt beam="1">  1        2 0.26515658E+00 0.61429825E+03</pdfrwt>
<pdfrwt beam="2">  1       -2 0.72610608E-02 0.61429825E+03</pdfrwt>
<totfact> 0.11184867E+03</totfact>
</mgrwt>
</event>
<event>
 4    1  0.1305170E-003  0.1782331E+03  0.7818608E-02  0.1169524E+00
         -2   -1    0    0    0  501 -0.00000000000E+00  0.00000000000E+00  0.79188185522E+01  0.79188189627E+01  0.25500000000E-02 0. -1.
          2   -1    0    0  501    0  0.00000000000E+00 -0.00000000000E+00 -0.10028970328E+04  0.10028970328E+04  0.25500000000E-02 0.  1.
    5000001    1    1    2    0    0  0.37366524945E+02  0.74787835143E+01 -0.36321299028E+03  0.37323567045E+03  0.77000000000E+02 0.  0.
   -5000001    1    1    2    0    0 -0.37366524945E+02 -0.74787835143E+01 -0.63176522393E+03  0.63758018128E+03  0.77000000000E+02 0.  0.
<mgrwt>
<rscale>  0 0.17823310E+03</rscale>
<asrwt>0</asrwt>
<pdfrwt beam="1">  1        2 0.14327092E+00 0.17823310E+03</pdfrwt>
<pdfrwt beam="2">  1       -2 0.11312605E-02 0.17823310E+03</pdfrwt>
<totfact> 0.49746706E+04</totfact>
</mgrwt>
</event>
<event>
 4    1  0.1305170E-003  0.1948686E+03  0.7818608E-02  0.1154142E+00
          2   -1    0    0  501    0  0.00000000000E+00  0.00000000000E+00  0.59356639077E+03  0.59356639078E+03  0.25500000000E-02 0.  1.
         -2   -1    0    0    0  501 -0.00000000000E+00 -0.00000000000E+00 -0.15993896776E+02  0.15993896979E+02  0.25500000000E-02 0. -1.
    5000001    1    1    2    0    0  0.45730330588E+02 -0.32437211813E+02  0.22460356199E+03  0.24396556294E+03  0.77000000000E+02 0.  0.
   -5000001    1    1    2    0    0 -0.45730330588E+02  0.32437211813E+02  0.35296893201E+03  0.36559472482E+03  0.77000000000E+02 0.  0.
<mgrwt>
<rscale>  0 0.19486857E+03</rscale>
<asrwt>0</asrwt>
<pdfrwt beam="1">  1        2 0.84795206E-01 0.19486857E+03</pdfrwt>
<pdfrwt beam="2">  1       -2 0.22848422E-02 0.19486857E+03</pdfrwt>
<totfact> 0.34175916E+04</totfact>
</mgrwt>
</event>
<event>
 4    1  0.1305170E-003  0.3039881E+03  0.7818608E-02  0.1083264E+00
          2   -1    0    0  501    0  0.00000000000E+00  0.00000000000E+00  0.16394688671E+04  0.16394688671E+04  0.25500000000E-02 0.  1.
         -2   -1    0    0    0  501 -0.00000000000E+00 -0.00000000000E+00 -0.14091264346E+02  0.14091264577E+02  0.25500000000E-02 0. -1.
    5000001    1    1    2    0    0  0.67954189796E+02  0.11119740443E+03  0.88777727653E+03  0.90058876708E+03  0.77000000000E+02 0.  0.
   -5000001    1    1    2    0    0 -0.67954189796E+02 -0.11119740443E+03  0.73760032625E+03  0.75297136463E+03  0.77000000000E+02 0.  0.
<mgrwt>
<rscale>  0 0.30398809E+03</rscale>
<asrwt>0</asrwt>
<pdfrwt beam="1">  1        2 0.23420998E+00 0.30398809E+03</pdfrwt>
<pdfrwt beam="2">  1       -2 0.20130365E-02 0.30398809E+03</pdfrwt>
<totfact> 0.10189725E+04</totfact>
</mgrwt>
</event>
<event>
 4    1  0.1305170E-003  0.2817130E+03  0.7818608E-02  0.1094757E+00
         -2   -1    0    0    0  501 -0.00000000000E+00  0.00000000000E+00  0.18717484338E+02  0.18717484511E+02  0.25500000000E-02 0. -1.
          2   -1    0    0  501    0  0.00000000000E+00 -0.00000000000E+00 -0.10600011673E+04  0.10600011673E+04  0.25500000000E-02 0.  1.
    5000001    1    1    2    0    0  0.69341347373E+01  0.78337986915E+02 -0.85722813026E+03  0.86426499971E+03  0.77000000000E+02 0.  0.
   -5000001    1    1    2    0    0 -0.69341347373E+01 -0.78337986915E+02 -0.18405555269E+03  0.21445365209E+03  0.77000000000E+02 0.  0.
<mgrwt>
<rscale>  0 0.28171301E+03</rscale>
<asrwt>0</asrwt>
<pdfrwt beam="1">  1        2 0.15142870E+00 0.28171301E+03</pdfrwt>
<pdfrwt beam="2">  1       -2 0.26739270E-02 0.28171301E+03</pdfrwt>
<totfact> 0.13483705E+04</totfact>
</mgrwt>
</event>
<event>
 4    1  0.1305170E-003  0.8044586E+03  0.7818608E-02  0.9553586E-01
          2   -1    0    0  501    0  0.00000000000E+00  0.00000000000E+00  0.10253393576E+04  0.10253393576E+04  0.25500000000E-02 0.  1.
         -2   -1    0    0    0  501 -0.00000000000E+00 -0.00000000000E+00 -0.15779012693E+03  0.15779012695E+03  0.25500000000E-02 0. -1.
    5000001    1    1    2    0    0 -0.14910449132E+03 -0.31581334271E+03  0.70451889000E+03  0.79009245227E+03  0.77000000000E+02 0.  0.
   -5000001    1    1    2    0    0  0.14910449132E+03  0.31581334271E+03  0.16303034068E+03  0.39303703229E+03  0.77000000000E+02 0.  0.
<mgrwt>
<rscale>  0 0.80445864E+03</rscale>
<asrwt>0</asrwt>
<pdfrwt beam="1">  1        2 0.14647705E+00 0.80445864E+03</pdfrwt>
<pdfrwt beam="2">  1       -2 0.22541447E-01 0.80445864E+03</pdfrwt>
<totfact> 0.46899294E+02</totfact>
</mgrwt>
</event>
<event>
 4    1  0.1305170E-003  0.2834836E+03  0.7818608E-02  0.1093801E+00
          2   -1    0    0  501    0  0.00000000000E+00  0.00000000000E+00  0.27335715385E+03  0.27335715386E+03  0.25500000000E-02 0.  1.
         -2   -1    0    0    0  501 -0.00000000000E+00 -0.00000000000E+00 -0.73496299067E+02  0.73496299111E+02  0.25500000000E-02 0. -1.
    5000001    1    1    2    0    0 -0.92283724798E+02  0.74439806873E+02  0.87442621754E+02  0.16623111264E+03  0.77000000000E+02 0.  0.
   -5000001    1    1    2    0    0  0.92283724798E+02 -0.74439806873E+02  0.11241823303E+03  0.18062234033E+03  0.77000000000E+02 0.  0.
<mgrwt>
<rscale>  0 0.28348361E+03</rscale>
<asrwt>0</asrwt>
<pdfrwt beam="1">  1        2 0.39051022E-01 0.28348361E+03</pdfrwt>
<pdfrwt beam="2">  1       -2 0.10499471E-01 0.28348361E+03</pdfrwt>
<totfact> 0.79979556E+03</totfact>
</mgrwt>
</event>
<event>
 4    1  0.1305170E-003  0.1638843E+03  0.7818608E-02  0.1184380E+00
          2   -1    0    0  501    0  0.00000000000E+00  0.00000000000E+00  0.12001807563E+03  0.12001807565E+03  0.25500000000E-02 0.  1.
         -2   -1    0    0    0  501 -0.00000000000E+00 -0.00000000000E+00 -0.55945866766E+02  0.55945866824E+02  0.25500000000E-02 0. -1.
    5000001    1    1    2    0    0  0.23225013732E+02  0.17709227159E+01  0.48772799115E+02  0.94076157254E+02  0.77000000000E+02 0.  0.
   -5000001    1    1    2    0    0 -0.23225013732E+02 -0.17709227159E+01  0.15299409745E+02  0.81887785222E+02  0.77000000000E+02 0.  0.
<mgrwt>
<rscale>  0 0.16388429E+03</rscale>
<asrwt>0</asrwt>
<pdfrwt beam="1">  1        2 0.17145439E-01 0.16388429E+03</pdfrwt>
<pdfrwt beam="2">  1       -2 0.79922667E-02 0.16388429E+03</pdfrwt>
<totfact> 0.29561094E+04</totfact>
</mgrwt>
</event>
<event>
 4    1  0.1305170E-003  0.2865874E+03  0.7818608E-02  0.1092144E+00
         -2   -1    0    0    0  501 -0.00000000000E+00  0.00000000000E+00  0.84185157791E+02  0.84185157830E+02  0.25500000000E-02 0. -1.
          2   -1    0    0  501    0  0.00000000000E+00 -0.00000000000E+00 -0.24390384320E+03  0.24390384321E+03  0.25500000000E-02 0.  1.
    5000001    1    1    2    0    0 -0.36510705417E+02  0.89835582994E+02 -0.16241790996E+03  0.20423525909E+03  0.77000000000E+02 0.  0.
   -5000001    1    1    2    0    0  0.36510705417E+02 -0.89835582994E+02  0.26992245493E+01  0.12385374195E+03  0.77000000000E+02 0.  0.
<mgrwt>
<rscale>  0 0.28658739E+03</rscale>
<asrwt>0</asrwt>
<pdfrwt beam="1">  1        2 0.34843406E-01 0.28658739E+03</pdfrwt>
<pdfrwt beam="2">  1       -2 0.12026451E-01 0.28658739E+03</pdfrwt>
<totfact> 0.72793723E+03</totfact>
</mgrwt>
</event>
<event>
 4    1  0.1305170E-003  0.2640325E+03  0.7818608E-02  0.1104744E+00
          2   -1    0    0  501    0  0.00000000000E+00  0.00000000000E+00  0.60393765832E+03  0.60393765832E+03  0.25500000000E-02 0.  1.
         -2   -1    0    0    0  501 -0.00000000000E+00 -0.00000000000E+00 -0.28857771528E+02  0.28857771641E+02  0.25500000000E-02 0. -1.
    5000001    1    1    2    0    0 -0.92016020869E+02 -0.26621304899E+02  0.17201080709E+03  0.21140567572E+03  0.77000000000E+02 0.  0.
   -5000001    1    1    2    0    0  0.92016020869E+02  0.26621304899E+02  0.40306907970E+03  0.42138975424E+03  0.77000000000E+02 0.  0.
<mgrwt>
<rscale>  0 0.26403254E+03</rscale>
<asrwt>0</asrwt>
<pdfrwt beam="1">  1        2 0.86276800E-01 0.26403254E+03</pdfrwt>
<pdfrwt beam="2">  1       -2 0.41225392E-02 0.26403254E+03</pdfrwt>
<totfact> 0.14223068E+04</totfact>
</mgrwt>
</event>
<event>
 4    1  0.1305170E-003  0.1841635E+03  0.7818608E-02  0.1163833E+00
         -2   -1    0    0    0  501 -0.00000000000E+00  0.00000000000E+00  0.51702917724E+01  0.51702924012E+01  0.25500000000E-02 0. -1.
          2   -1    0    0  501    0  0.00000000000E+00 -0.00000000000E+00 -0.16399563067E+04  0.16399563068E+04  0.25500000000E-02 0.  1.
    5000001    1    1    2    0    0 -0.14912784025E+02 -0.45106960532E+02 -0.97030703360E+03  0.97451617148E+03  0.77000000000E+02 0.  0.
   -5000001    1    1    2    0    0  0.14912784025E+02  0.45106960532E+02 -0.66447898137E+03  0.67061042767E+03  0.77000000000E+02 0.  0.
<mgrwt>
<rscale>  0 0.18416355E+03</rscale>
<asrwt>0</asrwt>
<pdfrwt beam="1">  1        2 0.23427914E+00 0.18416355E+03</pdfrwt>
<pdfrwt beam="2">  1       -2 0.73861420E-03 0.18416355E+03</pdfrwt>
<totfact> 0.42789989E+04</totfact>
</mgrwt>
</event>
<event>
 4    1  0.1305170E-003  0.2633511E+03  0.7818608E-02  0.1105146E+00
         -2   -1    0    0    0  501 -0.00000000000E+00  0.00000000000E+00  0.29532391527E+02  0.29532391637E+02  0.25500000000E-02 0. -1.
          2   -1    0    0  501    0  0.00000000000E+00 -0.00000000000E+00 -0.58709922205E+03  0.58709922205E+03  0.25500000000E-02 0.  1.
    5000001    1    1    2    0    0 -0.93636280348E+02  0.47072969916E+02 -0.23046561667E+03  0.26462618532E+03  0.77000000000E+02 0.  0.
   -5000001    1    1    2    0    0  0.93636280348E+02 -0.47072969916E+02 -0.32710121385E+03  0.35200542836E+03  0.77000000000E+02 0.  0.
<mgrwt>
<rscale>  0 0.26335105E+03</rscale>
<asrwt>0</asrwt>
<pdfrwt beam="1">  1        2 0.83871310E-01 0.26335105E+03</pdfrwt>
<pdfrwt beam="2">  1       -2 0.42189135E-02 0.26335105E+03</pdfrwt>
<totfact> 0.14184466E+04</totfact>
</mgrwt>
</event>
<event>
 4    1  0.1305170E-003  0.2024154E+03  0.7818608E-02  0.1147717E+00
         -2   -1    0    0    0  501 -0.00000000000E+00  0.00000000000E+00  0.72816585536E+01  0.72816590001E+01  0.25500000000E-02 0. -1.
          2   -1    0    0  501    0  0.00000000000E+00 -0.00000000000E+00 -0.14066854171E+04  0.14066854171E+04  0.25500000000E-02 0.  1.
    5000001    1    1    2    0    0  0.31171071813E+01  0.64896972960E+02 -0.63245615633E+03  0.64043042021E+03  0.77000000000E+02 0.  0.
   -5000001    1    1    2    0    0 -0.31171071813E+01 -0.64896972960E+02 -0.76694760221E+03  0.77353665589E+03  0.77000000000E+02 0.  0.
<mgrwt>
<rscale>  0 0.20241545E+03</rscale>
<asrwt>0</asrwt>
<pdfrwt beam="1">  1        2 0.20095489E+00 0.20241545E+03</pdfrwt>
<pdfrwt beam="2">  1       -2 0.10402379E-02 0.20241545E+03</pdfrwt>
<totfact> 0.34368744E+04</totfact>
</mgrwt>
</event>
<event>
 4    1  0.1305170E-003  0.1813522E+03  0.7818608E-02  0.1166501E+00
          2   -1    0    0  501    0  0.00000000000E+00  0.00000000000E+00  0.16344946733E+04  0.16344946733E+04  0.25500000000E-02 0.  1.
         -2   -1    0    0    0  501 -0.00000000000E+00 -0.00000000000E+00 -0.50303974075E+01  0.50303980539E+01  0.25500000000E-02 0. -1.
    5000001    1    1    2    0    0  0.39765607637E+02  0.26635968707E+02  0.82867899153E+03  0.83362380567E+03  0.77000000000E+02 0.  0.
   -5000001    1    1    2    0    0 -0.39765607637E+02 -0.26635968707E+02  0.80078528438E+03  0.80590126570E+03  0.77000000000E+02 0.  0.
<mgrwt>
<rscale>  0 0.18135224E+03</rscale>
<asrwt>0</asrwt>
<pdfrwt beam="1">  1        2 0.23349931E+00 0.18135224E+03</pdfrwt>
<pdfrwt beam="2">  1       -2 0.71862803E-03 0.18135224E+03</pdfrwt>
<totfact> 0.44731913E+04</totfact>
</mgrwt>
</event>
<event>
 4    1  0.1305170E-003  0.2323366E+03  0.7818608E-02  0.1125006E+00
         -2   -1    0    0    0  501 -0.00000000000E+00  0.00000000000E+00  0.10548800729E+02  0.10548801037E+02  0.25500000000E-02 0. -1.
          2   -1    0    0  501    0  0.00000000000E+00 -0.00000000000E+00 -0.12792991200E+04  0.12792991200E+04  0.25500000000E-02 0.  1.
    5000001    1    1    2    0    0 -0.30009938250E+02  0.21692071149E+02 -0.10713325540E+04  0.10747341921E+04  0.77000000000E+02 0.  0.
   -5000001    1    1    2    0    0  0.30009938250E+02 -0.21692071149E+02 -0.19741776520E+03  0.21511372890E+03  0.77000000000E+02 0.  0.
<mgrwt>
<rscale>  0 0.23233658E+03</rscale>
<asrwt>0</asrwt>
<pdfrwt beam="1">  1        2 0.18275692E+00 0.23233658E+03</pdfrwt>
<pdfrwt beam="2">  1       -2 0.15069724E-02 0.23233658E+03</pdfrwt>
<totfact> 0.23551856E+04</totfact>
</mgrwt>
</event>
<event>
 4    1  0.1305170E-003  0.1861883E+03  0.7818608E-02  0.1161945E+00
          2   -1    0    0  501    0  0.00000000000E+00  0.00000000000E+00  0.10406539349E+04  0.10406539349E+04  0.25500000000E-02 0.  1.
         -2   -1    0    0    0  501 -0.00000000000E+00 -0.00000000000E+00 -0.83279563500E+01  0.83279567404E+01  0.25500000000E-02 0. -1.
    5000001    1    1    2    0    0  0.32175578307E+02 -0.29253874236E+02  0.35224757788E+03  0.36317821124E+03  0.77000000000E+02 0.  0.
   -5000001    1    1    2    0    0 -0.32175578307E+02  0.29253874236E+02  0.68007840068E+03  0.68580368042E+03  0.77000000000E+02 0.  0.
<mgrwt>
<rscale>  0 0.18618830E+03</rscale>
<asrwt>0</asrwt>
<pdfrwt beam="1">  1        2 0.14866487E+00 0.18618830E+03</pdfrwt>
<pdfrwt beam="2">  1       -2 0.11897079E-02 0.18618830E+03</pdfrwt>
<totfact> 0.44160576E+04</totfact>
</mgrwt>
</event>
<event>
 4    1  0.1305170E-003  0.1884402E+03  0.7818608E-02  0.1159876E+00
          2   -1    0    0  501    0  0.00000000000E+00  0.00000000000E+00  0.89107410850E+02  0.89107410886E+02  0.25500000000E-02 0.  1.
         -2   -1    0    0    0  501 -0.00000000000E+00 -0.00000000000E+00 -0.99626126549E+02  0.99626126581E+02  0.25500000000E-02 0. -1.
    5000001    1    1    2    0    0 -0.40459422758E+02  0.34645753930E+02  0.52990187476E+01  0.93778317083E+02  0.77000000000E+02 0.  0.
   -5000001    1    1    2    0    0  0.40459422758E+02 -0.34645753930E+02 -0.15817734446E+02  0.94955220385E+02  0.77000000000E+02 0.  0.
<mgrwt>
<rscale>  0 0.18844019E+03</rscale>
<asrwt>0</asrwt>
<pdfrwt beam="1">  1        2 0.12729630E-01 0.18844019E+03</pdfrwt>
<pdfrwt beam="2">  1       -2 0.14232304E-01 0.18844019E+03</pdfrwt>
<totfact> 0.17001597E+04</totfact>
</mgrwt>
</event>
<event>
 4    1  0.1305170E-003  0.1940634E+03  0.7818608E-02  0.1154847E+00
         -2   -1    0    0    0  501 -0.00000000000E+00  0.00000000000E+00  0.40446933698E+02  0.40446933778E+02  0.25500000000E-02 0. -1.
          2   -1    0    0  501    0  0.00000000000E+00 -0.00000000000E+00 -0.23277786828E+03  0.23277786830E+03  0.25500000000E-02 0.  1.
    5000001    1    1    2    0    0  0.10810136931E+02  0.57931520191E+02 -0.91044268996E+02  0.13300743968E+03  0.77000000000E+02 0.  0.
   -5000001    1    1    2    0    0 -0.10810136931E+02 -0.57931520191E+02 -0.10128666559E+03  0.14021736240E+03  0.77000000000E+02 0.  0.
<mgrwt>
<rscale>  0 0.19406340E+03</rscale>
<asrwt>0</asrwt>
<pdfrwt beam="1">  1        2 0.33253980E-01 0.19406340E+03</pdfrwt>
<pdfrwt beam="2">  1       -2 0.57781335E-02 0.19406340E+03</pdfrwt>
<totfact> 0.23580901E+04</totfact>
</mgrwt>
</event>
<event>
 4    1  0.1305170E-003  0.4771682E+03  0.7818608E-02  0.1019916E+00
          2   -1    0    0  501    0  0.00000000000E+00  0.00000000000E+00  0.25592527930E+04  0.25592527930E+04  0.25500000000E-02 0.  1.
         -2   -1    0    0    0  501 -0.00000000000E+00 -0.00000000000E+00 -0.22241797677E+02  0.22241797823E+02  0.25500000000E-02 0. -1.
    5000001    1    1    2    0    0  0.20352085128E+03 -0.86744367680E+02  0.10236718471E+04  0.10501325501E+04  0.77000000000E+02 0.  0.
   -5000001    1    1    2    0    0 -0.20352085128E+03  0.86744367680E+02  0.15133391482E+04  0.15313620407E+04  0.77000000000E+02 0.  0.
<mgrwt>
<rscale>  0 0.47716824E+03</rscale>
<asrwt>0</asrwt>
<pdfrwt beam="1">  1        2 0.36560742E+00 0.47716824E+03</pdfrwt>
<pdfrwt beam="2">  1       -2 0.31774007E-02 0.47716824E+03</pdfrwt>
<totfact> 0.17892510E+03</totfact>
</mgrwt>
</event>
<event>
 4    1  0.1305170E-003  0.3120632E+03  0.7818608E-02  0.1079361E+00
         -2   -1    0    0    0  501 -0.00000000000E+00  0.00000000000E+00  0.93295461123E+01  0.93295464608E+01  0.25500000000E-02 0. -1.
          2   -1    0    0  501    0  0.00000000000E+00 -0.00000000000E+00 -0.26095437045E+04  0.26095437045E+04  0.25500000000E-02 0.  1.
    5000001    1    1    2    0    0  0.99918307273E+02 -0.73689825428E+02 -0.84022168017E+03  0.85282784332E+03  0.77000000000E+02 0.  0.
   -5000001    1    1    2    0    0 -0.99918307273E+02  0.73689825428E+02 -0.17599924782E+04  0.17660454076E+04  0.77000000000E+02 0.  0.
<mgrwt>
<rscale>  0 0.31206319E+03</rscale>
<asrwt>0</asrwt>
<pdfrwt beam="1">  1        2 0.37279149E+00 0.31206319E+03</pdfrwt>
<pdfrwt beam="2">  1       -2 0.13327940E-02 0.31206319E+03</pdfrwt>
<totfact> 0.61945783E+03</totfact>
</mgrwt>
</event>
<event>
 4    1  0.1305170E-003  0.2904081E+03  0.7818608E-02  0.1090136E+00
         -2   -1    0    0    0  501 -0.00000000000E+00  0.00000000000E+00  0.21671034530E+02  0.21671034680E+02  0.25500000000E-02 0. -1.
          2   -1    0    0  501    0  0.00000000000E+00 -0.00000000000E+00 -0.97292177285E+03  0.97292177286E+03  0.25500000000E-02 0.  1.
    5000001    1    1    2    0    0  0.56485311312E+02 -0.49448286380E+01 -0.84985826978E+03  0.85522109447E+03  0.77000000000E+02 0.  0.
   -5000001    1    1    2    0    0 -0.56485311312E+02  0.49448286380E+01 -0.10139246855E+03  0.13937171306E+03  0.77000000000E+02 0.  0.
<mgrwt>
<rscale>  0 0.29040814E+03</rscale>
<asrwt>0</asrwt>
<pdfrwt beam="1">  1        2 0.13898880E+00 0.29040814E+03</pdfrwt>
<pdfrwt beam="2">  1       -2 0.30958627E-02 0.29040814E+03</pdfrwt>
<totfact> 0.12208260E+04</totfact>
</mgrwt>
</event>
<event>
 4    1  0.1305170E-003  0.2046606E+03  0.7818608E-02  0.1145865E+00
         -2   -1    0    0    0  501 -0.00000000000E+00  0.00000000000E+00  0.56773901463E+02  0.56773901520E+02  0.25500000000E-02 0. -1.
          2   -1    0    0  501    0  0.00000000000E+00 -0.00000000000E+00 -0.18444200875E+03  0.18444200877E+03  0.25500000000E-02 0.  1.
    5000001    1    1    2    0    0 -0.59261543118E+01  0.64585148169E+02 -0.42225462913E+02  0.10917119761E+03  0.77000000000E+02 0.  0.
   -5000001    1    1    2    0    0  0.59261543118E+01 -0.64585148169E+02 -0.85442644372E+02  0.13204471268E+03  0.77000000000E+02 0.  0.
<mgrwt>
<rscale>  0 0.20466062E+03</rscale>
<asrwt>0</asrwt>
<pdfrwt beam="1">  1        2 0.26348858E-01 0.20466062E+03</pdfrwt>
<pdfrwt beam="2">  1       -2 0.81105574E-02 0.20466062E+03</pdfrwt>
<totfact> 0.18120809E+04</totfact>
</mgrwt>
</event>
<event>
 4    1  0.1305170E-003  0.2520476E+03  0.7818608E-02  0.1112018E+00
          2   -1    0    0  501    0  0.00000000000E+00  0.00000000000E+00  0.55128993370E+03  0.55128993370E+03  0.25500000000E-02 0.  1.
         -2   -1    0    0    0  501 -0.00000000000E+00 -0.00000000000E+00 -0.28808793164E+02  0.28808793277E+02  0.25500000000E-02 0. -1.
    5000001    1    1    2    0    0  0.28043395042E+02  0.93381680477E+02  0.30986950984E+03  0.33384829396E+03  0.77000000000E+02 0.  0.
   -5000001    1    1    2    0    0 -0.28043395042E+02 -0.93381680477E+02  0.21261163069E+03  0.24625043302E+03  0.77000000000E+02 0.  0.
<mgrwt>
<rscale>  0 0.25204760E+03</rscale>
<asrwt>0</asrwt>
<pdfrwt beam="1">  1        2 0.78755699E-01 0.25204760E+03</pdfrwt>
<pdfrwt beam="2">  1       -2 0.41155422E-02 0.25204760E+03</pdfrwt>
<totfact> 0.15773044E+04</totfact>
</mgrwt>
</event>
<event>
 4    1  0.1305170E-003  0.2087929E+03  0.7818608E-02  0.1142525E+00
          2   -1    0    0  501    0  0.00000000000E+00  0.00000000000E+00  0.21849101914E+03  0.21849101915E+03  0.25500000000E-02 0.  1.
         -2   -1    0    0    0  501 -0.00000000000E+00 -0.00000000000E+00 -0.49881311821E+02  0.49881311886E+02  0.25500000000E-02 0. -1.
    5000001    1    1    2    0    0  0.31347067631E+02 -0.59235748300E+02  0.56199815778E+02  0.11652867381E+03  0.77000000000E+02 0.  0.
   -5000001    1    1    2    0    0 -0.31347067631E+02  0.59235748300E+02  0.11240989154E+03  0.15184365723E+03  0.77000000000E+02 0.  0.
<mgrwt>
<rscale>  0 0.20879290E+03</rscale>
<asrwt>0</asrwt>
<pdfrwt beam="1">  1        2 0.31213002E-01 0.20879290E+03</pdfrwt>
<pdfrwt beam="2">  1       -2 0.71259019E-02 0.20879290E+03</pdfrwt>
<totfact> 0.18418052E+04</totfact>
</mgrwt>
</event>
<event>
 4    1  0.1305170E-003  0.2736654E+03  0.7818608E-02  0.1099200E+00
         -2   -1    0    0    0  501 -0.00000000000E+00  0.00000000000E+00  0.29295879487E+03  0.29295879488E+03  0.25500000000E-02 0. -1.
          2   -1    0    0  501    0  0.00000000000E+00 -0.00000000000E+00 -0.63910657430E+02  0.63910657481E+02  0.25500000000E-02 0.  1.
    5000001    1    1    2    0    0 -0.94028588854E+02  0.58487831039E+02  0.14460145504E+03  0.19773917847E+03  0.77000000000E+02 0.  0.
   -5000001    1    1    2    0    0  0.94028588854E+02 -0.58487831039E+02  0.84446682402E+02  0.15913027390E+03  0.77000000000E+02 0.  0.
<mgrwt>
<rscale>  0 0.27366541E+03</rscale>
<asrwt>0</asrwt>
<pdfrwt beam="1">  1        2 0.91300939E-02 0.27366541E+03</pdfrwt>
<pdfrwt beam="2">  1       -2 0.41851257E-01 0.27366541E+03</pdfrwt>
<totfact> 0.39029342E+03</totfact>
</mgrwt>
</event>
<event>
 4    1  0.1305170E-003  0.6340222E+03  0.7818608E-02  0.9837231E-01
          2   -1    0    0  501    0  0.00000000000E+00  0.00000000000E+00  0.76179469212E+02  0.76179469255E+02  0.25500000000E-02 0.  1.
         -2   -1    0    0    0  501 -0.00000000000E+00 -0.00000000000E+00 -0.13192009088E+04  0.13192009088E+04  0.25500000000E-02 0. -1.
    5000001    1    1    2    0    0  0.13389998524E+02 -0.30721270762E+03 -0.61525272593E+03  0.69211549365E+03  0.77000000000E+02 0.  0.
   -5000001    1    1    2    0    0 -0.13389998524E+02  0.30721270762E+03 -0.62776871362E+03  0.70326488436E+03  0.77000000000E+02 0.  0.
<mgrwt>
<rscale>  0 0.63402216E+03</rscale>
<asrwt>0</asrwt>
<pdfrwt beam="1">  1        2 0.10882782E-01 0.63402216E+03</pdfrwt>
<pdfrwt beam="2">  1       -2 0.18845726E+00 0.63402216E+03</pdfrwt>
<totfact> 0.96826065E+01</totfact>
</mgrwt>
</event>
<event>
 4    1  0.1305170E-003  0.7716797E+03  0.7818608E-02  0.9601939E-01
         -2   -1    0    0    0  501 -0.00000000000E+00  0.00000000000E+00  0.27551337032E+03  0.27551337033E+03  0.25500000000E-02 0. -1.
          2   -1    0    0  501    0  0.00000000000E+00 -0.00000000000E+00 -0.54034541470E+03  0.54034541470E+03  0.25500000000E-02 0.  1.
    5000001    1    1    2    0    0 -0.84110455417E+01 -0.15185189628E+03 -0.49837386506E+03  0.52672122936E+03  0.77000000000E+02 0.  0.
   -5000001    1    1    2    0    0  0.84110455417E+01  0.15185189628E+03  0.23354182068E+03  0.28913755567E+03  0.77000000000E+02 0.  0.
<mgrwt>
<rscale>  0 0.77167969E+03</rscale>
<asrwt>0</asrwt>
<pdfrwt beam="1">  1        2 0.77192202E-01 0.77167969E+03</pdfrwt>
<pdfrwt beam="2">  1       -2 0.39359053E-01 0.77167969E+03</pdfrwt>
<totfact> 0.37667127E+02</totfact>
</mgrwt>
</event>
<event>
 4    1  0.1305170E-003  0.2367977E+03  0.7818608E-02  0.1121945E+00
          2   -1    0    0  501    0  0.00000000000E+00  0.00000000000E+00  0.19799739594E+04  0.19799739594E+04  0.25500000000E-02 0.  1.
         -2   -1    0    0    0  501 -0.00000000000E+00 -0.00000000000E+00 -0.70800341405E+01  0.70800345997E+01  0.25500000000E-02 0. -1.
    5000001    1    1    2    0    0 -0.43934294440E+02  0.43106164500E+02  0.43612995531E+03  0.44713163785E+03  0.77000000000E+02 0.  0.
   -5000001    1    1    2    0    0  0.43934294440E+02 -0.43106164500E+02  0.15367639699E+04  0.15399223561E+04  0.77000000000E+02 0.  0.
<mgrwt>
<rscale>  0 0.23679767E+03</rscale>
<asrwt>0</asrwt>
<pdfrwt beam="1">  1        2 0.28285381E+00 0.23679767E+03</pdfrwt>
<pdfrwt beam="2">  1       -2 0.10114321E-02 0.23679767E+03</pdfrwt>
<totfact> 0.18845263E+04</totfact>
</mgrwt>
</event>
<event>
 4    1  0.1305170E-003  0.2222040E+03  0.7818608E-02  0.1132251E+00
         -2   -1    0    0    0  501 -0.00000000000E+00  0.00000000000E+00  0.12613934935E+02  0.12613935192E+02  0.25500000000E-02 0. -1.
          2   -1    0    0  501    0  0.00000000000E+00 -0.00000000000E+00 -0.97857242154E+03  0.97857242155E+03  0.25500000000E-02 0.  1.
    5000001    1    1    2    0    0 -0.29919054306E+02 -0.65389794789E+02 -0.64028941324E+03  0.64889945892E+03  0.77000000000E+02 0.  0.
   -5000001    1    1    2    0    0  0.29919054306E+02  0.65389794789E+02 -0.32566907337E+03  0.34228689782E+03  0.77000000000E+02 0.  0.
<mgrwt>
<rscale>  0 0.22220395E+03</rscale>
<asrwt>0</asrwt>
<pdfrwt beam="1">  1        2 0.13979601E+00 0.22220395E+03</pdfrwt>
<pdfrwt beam="2">  1       -2 0.18019913E-02 0.22220395E+03</pdfrwt>
<totfact> 0.26586587E+04</totfact>
</mgrwt>
</event>
<event>
 4    1  0.1305170E-003  0.3949914E+03  0.7818608E-02  0.1045528E+00
         -2   -1    0    0    0  501 -0.00000000000E+00  0.00000000000E+00  0.10505817972E+02  0.10505818281E+02  0.25500000000E-02 0. -1.
          2   -1    0    0  501    0  0.00000000000E+00 -0.00000000000E+00 -0.37126621428E+04  0.37126621428E+04  0.25500000000E-02 0.  1.
    5000001    1    1    2    0    0  0.97078608189E+02  0.14538345756E+03 -0.23237823255E+04  0.23316204455E+04  0.77000000000E+02 0.  0.
   -5000001    1    1    2    0    0 -0.97078608189E+02 -0.14538345756E+03 -0.13783739993E+04  0.13915475155E+04  0.77000000000E+02 0.  0.
<mgrwt>
<rscale>  0 0.39499141E+03</rscale>
<asrwt>0</asrwt>
<pdfrwt beam="1">  1        2 0.53037947E+00 0.39499141E+03</pdfrwt>
<pdfrwt beam="2">  1       -2 0.15008335E-02 0.39499141E+03</pdfrwt>
<totfact> 0.12698406E+03</totfact>
</mgrwt>
</event>
<event>
 4    1  0.1305170E-003  0.2122842E+03  0.7818608E-02  0.1139770E+00
          2   -1    0    0  501    0  0.00000000000E+00  0.00000000000E+00  0.40683011858E+03  0.40683011859E+03  0.25500000000E-02 0.  1.
         -2   -1    0    0    0  501 -0.00000000000E+00 -0.00000000000E+00 -0.27692509948E+02  0.27692510065E+02  0.25500000000E-02 0. -1.
    5000001    1    1    2    0    0 -0.24155429178E+02  0.68271212140E+02  0.20927686331E+03  0.23445734939E+03  0.77000000000E+02 0.  0.
   -5000001    1    1    2    0    0  0.24155429178E+02 -0.68271212140E+02  0.16986074533E+03  0.20006527927E+03  0.77000000000E+02 0.  0.
<mgrwt>
<rscale>  0 0.21228422E+03</rscale>
<asrwt>0</asrwt>
<pdfrwt beam="1">  1        2 0.58118588E-01 0.21228422E+03</pdfrwt>
<pdfrwt beam="2">  1       -2 0.39560729E-02 0.21228422E+03</pdfrwt>
<totfact> 0.23098395E+04</totfact>
</mgrwt>
</event>
<event>
 4    1  0.1305170E-003  0.5677987E+03  0.7818608E-02  0.9974562E-01
          2   -1    0    0  501    0  0.00000000000E+00  0.00000000000E+00  0.24100707461E+04  0.24100707461E+04  0.25500000000E-02 0.  1.
         -2   -1    0    0    0  501 -0.00000000000E+00 -0.00000000000E+00 -0.33442516950E+02  0.33442517047E+02  0.25500000000E-02 0. -1.
    5000001    1    1    2    0    0  0.17393386467E+03 -0.15505033534E+03  0.57401157101E+03  0.62426907613E+03  0.77000000000E+02 0.  0.
   -5000001    1    1    2    0    0 -0.17393386467E+03  0.15505033534E+03  0.18026166582E+04  0.18192441871E+04  0.77000000000E+02 0.  0.
<mgrwt>
<rscale>  0 0.56779867E+03</rscale>
<asrwt>0</asrwt>
<pdfrwt beam="1">  1        2 0.34429579E+00 0.56779867E+03</pdfrwt>
<pdfrwt beam="2">  1       -2 0.47775028E-02 0.56779867E+03</pdfrwt>
<totfact> 0.11353841E+03</totfact>
</mgrwt>
</event>
<event>
 4    1  0.1305170E-003  0.4406415E+03  0.7818608E-02  0.1030550E+00
          2   -1    0    0  501    0  0.00000000000E+00  0.00000000000E+00  0.22613823032E+03  0.22613823033E+03  0.25500000000E-02 0.  1.
         -2   -1    0    0    0  501 -0.00000000000E+00 -0.00000000000E+00 -0.21465287774E+03  0.21465287776E+03  0.25500000000E-02 0. -1.
    5000001    1    1    2    0    0 -0.12531875451E+03  0.12639104304E+03 -0.98852560173E+02  0.21767019696E+03  0.77000000000E+02 0.  0.
   -5000001    1    1    2    0    0  0.12531875451E+03 -0.12639104304E+03  0.11033791275E+03  0.22312091113E+03  0.77000000000E+02 0.  0.
<mgrwt>
<rscale>  0 0.44064145E+03</rscale>
<asrwt>0</asrwt>
<pdfrwt beam="1">  1        2 0.32305462E-01 0.44064145E+03</pdfrwt>
<pdfrwt beam="2">  1       -2 0.30664697E-01 0.44064145E+03</pdfrwt>
<totfact> 0.16004329E+03</totfact>
</mgrwt>
</event>
<event>
 4    1  0.1305170E-003  0.2583467E+03  0.7818608E-02  0.1108141E+00
         -2   -1    0    0    0  501 -0.00000000000E+00  0.00000000000E+00  0.12901335011E+02  0.12901335263E+02  0.25500000000E-02 0. -1.
          2   -1    0    0  501    0  0.00000000000E+00 -0.00000000000E+00 -0.12933356911E+04  0.12933356911E+04  0.25500000000E-02 0.  1.
    5000001    1    1    2    0    0 -0.75523700758E+02 -0.71066726932E+02 -0.64812829286E+03  0.66087335630E+03  0.77000000000E+02 0.  0.
   -5000001    1    1    2    0    0  0.75523700758E+02  0.71066726932E+02 -0.63230606322E+03  0.64536367007E+03  0.77000000000E+02 0.  0.
<mgrwt>
<rscale>  0 0.25834672E+03</rscale>
<asrwt>0</asrwt>
<pdfrwt beam="1">  1        2 0.18476216E+00 0.25834672E+03</pdfrwt>
<pdfrwt beam="2">  1       -2 0.18430487E-02 0.25834672E+03</pdfrwt>
<totfact> 0.17334242E+04</totfact>
</mgrwt>
</event>
<event>
 4    1  0.1305170E-003  0.1678615E+03  0.7818608E-02  0.1180096E+00
          2   -1    0    0  501    0  0.00000000000E+00  0.00000000000E+00  0.15148487163E+03  0.15148487165E+03  0.25500000000E-02 0.  1.
         -2   -1    0    0    0  501 -0.00000000000E+00 -0.00000000000E+00 -0.46502153538E+02  0.46502153608E+02  0.25500000000E-02 0. -1.
    5000001    1    1    2    0    0 -0.27480193958E+02  0.15767533022E+02  0.40031559010E+02  0.92386697497E+02  0.77000000000E+02 0.  0.
   -5000001    1    1    2    0    0  0.27480193958E+02 -0.15767533022E+02  0.64951159084E+02  0.10560032776E+03  0.77000000000E+02 0.  0.
<mgrwt>
<rscale>  0 0.16786152E+03</rscale>
<asrwt>0</asrwt>
<pdfrwt beam="1">  1        2 0.21640696E-01 0.16786152E+03</pdfrwt>
<pdfrwt beam="2">  1       -2 0.66431647E-02 0.16786152E+03</pdfrwt>
<totfact> 0.30203618E+04</totfact>
</mgrwt>
</event>
<event>
 4    1  0.1305170E-003  0.2866764E+03  0.7818608E-02  0.1092097E+00
          2   -1    0    0  501    0  0.00000000000E+00  0.00000000000E+00  0.10371586706E+04  0.10371586706E+04  0.25500000000E-02 0.  1.
         -2   -1    0    0    0  501 -0.00000000000E+00 -0.00000000000E+00 -0.19809741658E+02  0.19809741822E+02  0.25500000000E-02 0. -1.
    5000001    1    1    2    0    0 -0.62975329804E+01  0.73884430076E+02  0.86074234601E+03  0.86735514880E+03  0.77000000000E+02 0.  0.
   -5000001    1    1    2    0    0  0.62975329804E+01 -0.73884430076E+02  0.15660658298E+03  0.18961326367E+03  0.77000000000E+02 0.  0.
<mgrwt>
<rscale>  0 0.28667644E+03</rscale>
<asrwt>0</asrwt>
<pdfrwt beam="1">  1        2 0.14816550E+00 0.28667644E+03</pdfrwt>
<pdfrwt beam="2">  1       -2 0.28299636E-02 0.28667644E+03</pdfrwt>
<totfact> 0.12783864E+04</totfact>
</mgrwt>
</event>
<event>
 4    1  0.1305170E-003  0.1813638E+03  0.7818608E-02  0.1166490E+00
          2   -1    0    0  501    0  0.00000000000E+00  0.00000000000E+00  0.31920746342E+03  0.31920746343E+03  0.25500000000E-02 0.  1.
         -2   -1    0    0    0  501 -0.00000000000E+00 -0.00000000000E+00 -0.25761322340E+02  0.25761322466E+02  0.25500000000E-02 0. -1.
    5000001    1    1    2    0    0  0.22349325054E+02 -0.35467234443E+02  0.10265427835E+03  0.13499747373E+03  0.77000000000E+02 0.  0.
   -5000001    1    1    2    0    0 -0.22349325054E+02  0.35467234443E+02  0.19079186273E+03  0.20997131217E+03  0.77000000000E+02 0.  0.
<mgrwt>
<rscale>  0 0.18136379E+03</rscale>
<asrwt>0</asrwt>
<pdfrwt beam="1">  1        2 0.45601065E-01 0.18136379E+03</pdfrwt>
<pdfrwt beam="2">  1       -2 0.36801890E-02 0.18136379E+03</pdfrwt>
<totfact> 0.32938382E+04</totfact>
</mgrwt>
</event>
<event>
 4    1  0.1305170E-003  0.2011486E+03  0.7818608E-02  0.1148774E+00
         -2   -1    0    0    0  501 -0.00000000000E+00  0.00000000000E+00  0.12021460374E+03  0.12021460376E+03  0.25500000000E-02 0. -1.
          2   -1    0    0  501    0  0.00000000000E+00 -0.00000000000E+00 -0.84142791781E+02  0.84142791820E+02  0.25500000000E-02 0.  1.
    5000001    1    1    2    0    0  0.28939959364E+02 -0.57784980168E+02  0.21178336229E+02  0.10273337874E+03  0.77000000000E+02 0.  0.
   -5000001    1    1    2    0    0 -0.28939959364E+02  0.57784980168E+02  0.14893475725E+02  0.10162401685E+03  0.77000000000E+02 0.  0.
<mgrwt>
<rscale>  0 0.20114863E+03</rscale>
<asrwt>0</asrwt>
<pdfrwt beam="1">  1        2 0.12020399E-01 0.20114863E+03</pdfrwt>
<pdfrwt beam="2">  1       -2 0.17173515E-01 0.20114863E+03</pdfrwt>
<totfact> 0.13425465E+04</totfact>
</mgrwt>
</event>
<event>
 4    1  0.1305170E-003  0.2337676E+03  0.7818608E-02  0.1124016E+00
          2   -1    0    0  501    0  0.00000000000E+00  0.00000000000E+00  0.14590694810E+04  0.14590694810E+04  0.25500000000E-02 0.  1.
         -2   -1    0    0    0  501 -0.00000000000E+00 -0.00000000000E+00 -0.93633824181E+01  0.93633827653E+01  0.25500000000E-02 0. -1.
    5000001    1    1    2    0    0 -0.64834923434E+02 -0.50704956007E+01  0.10966653890E+04  0.11012870892E+04  0.77000000000E+02 0.  0.
   -5000001    1    1    2    0    0  0.64834923434E+02  0.50704956007E+01  0.35304070957E+03  0.36714577464E+03  0.77000000000E+02 0.  0.
<mgrwt>
<rscale>  0 0.23376763E+03</rscale>
<asrwt>0</asrwt>
<pdfrwt beam="1">  1        2 0.20843855E+00 0.23376763E+03</pdfrwt>
<pdfrwt beam="2">  1       -2 0.13376257E-02 0.23376763E+03</pdfrwt>
<totfact> 0.22639716E+04</totfact>
</mgrwt>
</event>
<event>
 4    1  0.1305170E-003  0.3438789E+03  0.7818608E-02  0.1065156E+00
          2   -1    0    0  501    0  0.00000000000E+00  0.00000000000E+00  0.89721443727E+02  0.89721443763E+02  0.25500000000E-02 0.  1.
         -2   -1    0    0    0  501 -0.00000000000E+00 -0.00000000000E+00 -0.32949957736E+03  0.32949957737E+03  0.25500000000E-02 0. -1.
    5000001    1    1    2    0    0  0.92707629594E+02 -0.51042514487E+02  0.16050313563E+02  0.13185846744E+03  0.77000000000E+02 0.  0.
   -5000001    1    1    2    0    0 -0.92707629594E+02  0.51042514487E+02 -0.25582844719E+03  0.28736255369E+03  0.77000000000E+02 0.  0.
<mgrwt>
<rscale>  0 0.34387892E+03</rscale>
<asrwt>0</asrwt>
<pdfrwt beam="1">  1        2 0.12817349E-01 0.34387892E+03</pdfrwt>
<pdfrwt beam="2">  1       -2 0.47071368E-01 0.34387892E+03</pdfrwt>
<totfact> 0.20526626E+03</totfact>
</mgrwt>
</event>
<event>
 4    1  0.1305170E-003  0.2591209E+03  0.7818608E-02  0.1107673E+00
         -2   -1    0    0    0  501 -0.00000000000E+00  0.00000000000E+00  0.29221576995E+02  0.29221577107E+02  0.25500000000E-02 0. -1.
          2   -1    0    0  501    0  0.00000000000E+00 -0.00000000000E+00 -0.57443558001E+03  0.57443558002E+03  0.25500000000E-02 0.  1.
    5000001    1    1    2    0    0 -0.85046949286E+02 -0.43820145748E+02 -0.36876548178E+03  0.38867746180E+03  0.77000000000E+02 0.  0.
   -5000001    1    1    2    0    0  0.85046949286E+02  0.43820145748E+02 -0.17644852123E+03  0.21497969532E+03  0.77000000000E+02 0.  0.
<mgrwt>
<rscale>  0 0.25912093E+03</rscale>
<asrwt>0</asrwt>
<pdfrwt beam="1">  1        2 0.82062218E-01 0.25912093E+03</pdfrwt>
<pdfrwt beam="2">  1       -2 0.41745114E-02 0.25912093E+03</pdfrwt>
<totfact> 0.14761165E+04</totfact>
</mgrwt>
</event>
<event>
 4    1  0.1305170E-003  0.5764376E+03  0.7818608E-02  0.9955534E-01
         -2   -1    0    0    0  501 -0.00000000000E+00  0.00000000000E+00  0.95003032655E+03  0.95003032656E+03  0.25500000000E-02 0. -1.
          2   -1    0    0  501    0  0.00000000000E+00 -0.00000000000E+00 -0.87439389571E+02  0.87439389608E+02  0.25500000000E-02 0.  1.
    5000001    1    1    2    0    0 -0.32636121071E+01  0.24834459504E+03  0.20754547937E+03  0.33270078908E+03  0.77000000000E+02 0.  0.
   -5000001    1    1    2    0    0  0.32636121071E+01 -0.24834459504E+03  0.65504545761E+03  0.70476892708E+03  0.77000000000E+02 0.  0.
<mgrwt>
<rscale>  0 0.57643758E+03</rscale>
<asrwt>0</asrwt>
<pdfrwt beam="1">  1        2 0.12491342E-01 0.57643758E+03</pdfrwt>
<pdfrwt beam="2">  1       -2 0.13571861E+00 0.57643758E+03</pdfrwt>
<totfact> 0.19839547E+02</totfact>
</mgrwt>
</event>
<event>
 4    1  0.1305170E-003  0.2760348E+03  0.7818608E-02  0.1097875E+00
         -2   -1    0    0    0  501 -0.00000000000E+00  0.00000000000E+00  0.13901380675E+03  0.13901380677E+03  0.25500000000E-02 0.  1.
          2   -1    0    0  501    0  0.00000000000E+00 -0.00000000000E+00 -0.13702811359E+03  0.13702811362E+03  0.25500000000E-02 0. -1.
    5000001    1    1    2    0    0 -0.39626240636E+01 -0.11283851581E+03  0.20269409947E+02  0.13815962515E+03  0.77000000000E+02 0.  0.
   -5000001    1    1    2    0    0  0.39626240636E+01  0.11283851581E+03 -0.18283716793E+02  0.13788229524E+03  0.77000000000E+02 0.  0.
<mgrwt>
<rscale>  0 0.27603478E+03</rscale>
<asrwt>0</asrwt>
<pdfrwt beam="1">  1        2 0.19575445E-01 0.27603478E+03</pdfrwt>
<pdfrwt beam="2">  1       -2 0.19859115E-01 0.27603478E+03</pdfrwt>
<totfact> 0.60117639E+03</totfact>
</mgrwt>
</event>
<event>
 4    1  0.1305170E-003  0.1688597E+03  0.7818608E-02  0.1179042E+00
         -2   -1    0    0    0  501 -0.00000000000E+00  0.00000000000E+00  0.34036507224E+02  0.34036507320E+02  0.25500000000E-02 0. -1.
          2   -1    0    0  501    0  0.00000000000E+00 -0.00000000000E+00 -0.20943399508E+03  0.20943399510E+03  0.25500000000E-02 0.  1.
    5000001    1    1    2    0    0  0.30590679603E+02 -0.64366327915E+01 -0.10919062826E+03  0.13721812278E+03  0.77000000000E+02 0.  0.
   -5000001    1    1    2    0    0 -0.30590679603E+02  0.64366327915E+01 -0.66206859597E+02  0.10625237963E+03  0.77000000000E+02 0.  0.
<mgrwt>
<rscale>  0 0.16885973E+03</rscale>
<asrwt>0</asrwt>
<pdfrwt beam="1">  1        2 0.29919142E-01 0.16885973E+03</pdfrwt>
<pdfrwt beam="2">  1       -2 0.48623583E-02 0.16885973E+03</pdfrwt>
<totfact> 0.33916554E+04</totfact>
</mgrwt>
</event>
<event>
 4    1  0.1305170E-003  0.2922813E+03  0.7818608E-02  0.1089164E+00
          2   -1    0    0  501    0  0.00000000000E+00  0.00000000000E+00  0.20373857996E+04  0.20373857996E+04  0.25500000000E-02 0.  1.
         -2   -1    0    0    0  501 -0.00000000000E+00 -0.00000000000E+00 -0.10482594474E+02  0.10482594785E+02  0.25500000000E-02 0. -1.
    5000001    1    1    2    0    0 -0.12341983154E+03  0.46155949088E+01  0.92094170184E+03  0.93237137275E+03  0.77000000000E+02 0.  0.
   -5000001    1    1    2    0    0  0.12341983154E+03 -0.46155949088E+01  0.11059615033E+04  0.11154970216E+04  0.77000000000E+02 0.  0.
<mgrwt>
<rscale>  0 0.29228130E+03</rscale>
<asrwt>0</asrwt>
<pdfrwt beam="1">  1        2 0.29105541E+00 0.29228130E+03</pdfrwt>
<pdfrwt beam="2">  1       -2 0.14975120E-02 0.29228130E+03</pdfrwt>
<totfact> 0.10028127E+04</totfact>
</mgrwt>
</event>
<event>
 4    1  0.1305170E-003  0.2139571E+03  0.7818608E-02  0.1138470E+00
          2   -1    0    0  501    0  0.00000000000E+00  0.00000000000E+00  0.29425171891E+03  0.29425171892E+03  0.25500000000E-02 0.  1.
         -2   -1    0    0    0  501 -0.00000000000E+00 -0.00000000000E+00 -0.38893250251E+02  0.38893250335E+02  0.25500000000E-02 0. -1.
    5000001    1    1    2    0    0 -0.29641935114E+02 -0.31848355097E+02  0.22139387913E+03  0.23840556150E+03  0.77000000000E+02 0.  0.
   -5000001    1    1    2    0    0  0.29641935114E+02  0.31848355097E+02  0.33964589531E+02  0.94739407754E+02  0.77000000000E+02 0.  0.
<mgrwt>
<rscale>  0 0.21395706E+03</rscale>
<asrwt>0</asrwt>
<pdfrwt beam="1">  1        2 0.42035960E-01 0.21395706E+03</pdfrwt>
<pdfrwt beam="2">  1       -2 0.55561786E-02 0.21395706E+03</pdfrwt>
<totfact> 0.19591832E+04</totfact>
</mgrwt>
</event>
<event>
 4    1  0.1305170E-003  0.1756842E+03  0.7818608E-02  0.1172046E+00
          2   -1    0    0  501    0  0.00000000000E+00  0.00000000000E+00  0.18444282911E+03  0.18444282912E+03  0.25500000000E-02 0.  1.
         -2   -1    0    0    0  501 -0.00000000000E+00 -0.00000000000E+00 -0.41835377428E+02  0.41835377506E+02  0.25500000000E-02 0. -1.
    5000001    1    1    2    0    0  0.17867642390E+02 -0.24379496664E+02  0.33234679441E+02  0.89146825068E+02  0.77000000000E+02 0.  0.
   -5000001    1    1    2    0    0 -0.17867642390E+02  0.24379496664E+02  0.10937277224E+03  0.13713138156E+03  0.77000000000E+02 0.  0.
<mgrwt>
<rscale>  0 0.17568421E+03</rscale>
<asrwt>0</asrwt>
<pdfrwt beam="1">  1        2 0.26348976E-01 0.17568421E+03</pdfrwt>
<pdfrwt beam="2">  1       -2 0.59764824E-02 0.17568421E+03</pdfrwt>
<totfact> 0.28630087E+04</totfact>
</mgrwt>
</event>
<event>
 4    1  0.1305170E-003  0.1840816E+03  0.7818608E-02  0.1163910E+00
         -2   -1    0    0    0  501 -0.00000000000E+00  0.00000000000E+00  0.10257363639E+03  0.10257363642E+03  0.25500000000E-02 0. -1.
          2   -1    0    0  501    0  0.00000000000E+00 -0.00000000000E+00 -0.82589563481E+02  0.82589563520E+02  0.25500000000E-02 0.  1.
    5000001    1    1    2    0    0  0.30192403039E+02  0.20263973348E+02 -0.25146032401E+02  0.88789260402E+02  0.77000000000E+02 0.  0.
   -5000001    1    1    2    0    0 -0.30192403039E+02 -0.20263973348E+02  0.45130105311E+02  0.96373939540E+02  0.77000000000E+02 0.  0.
<mgrwt>
<rscale>  0 0.18408163E+03</rscale>
<asrwt>0</asrwt>
<pdfrwt beam="1">  1        2 0.11798509E-01 0.18408163E+03</pdfrwt>
<pdfrwt beam="2">  1       -2 0.14653377E-01 0.18408163E+03</pdfrwt>
<totfact> 0.17731540E+04</totfact>
</mgrwt>
</event>
<event>
 4    1  0.1305170E-003  0.1658678E+03  0.7818608E-02  0.1182227E+00
         -2   -1    0    0    0  501 -0.00000000000E+00  0.00000000000E+00  0.46440114888E+02  0.46440114958E+02  0.25500000000E-02 0. -1.
          2   -1    0    0  501    0  0.00000000000E+00 -0.00000000000E+00 -0.14810547974E+03  0.14810547976E+03  0.25500000000E-02 0.  1.
    5000001    1    1    2    0    0 -0.16762696201E+02  0.20648523834E+02 -0.69066807544E+02  0.10680156097E+03  0.77000000000E+02 0.  0.
   -5000001    1    1    2    0    0  0.16762696201E+02 -0.20648523834E+02 -0.32598557306E+02  0.87744033751E+02  0.77000000000E+02 0.  0.
<mgrwt>
<rscale>  0 0.16586785E+03</rscale>
<asrwt>0</asrwt>
<pdfrwt beam="1">  1        2 0.21157925E-01 0.16586785E+03</pdfrwt>
<pdfrwt beam="2">  1       -2 0.66343022E-02 0.16586785E+03</pdfrwt>
<totfact> 0.31008973E+04</totfact>
</mgrwt>
</event>
<event>
 4    1  0.1305170E-003  0.2378595E+03  0.7818608E-02  0.1121227E+00
         -2   -1    0    0    0  501 -0.00000000000E+00  0.00000000000E+00  0.29293693088E+02  0.29293693199E+02  0.25500000000E-02 0. -1.
          2   -1    0    0  501    0  0.00000000000E+00 -0.00000000000E+00 -0.48284385046E+03  0.48284385047E+03  0.25500000000E-02 0.  1.
    5000001    1    1    2    0    0 -0.31176970665E+02  0.55973518907E+02 -0.36481346075E+03  0.37831587260E+03  0.77000000000E+02 0.  0.
   -5000001    1    1    2    0    0  0.31176970665E+02 -0.55973518907E+02 -0.88736696622E+02  0.13382167106E+03  0.77000000000E+02 0.  0.
<mgrwt>
<rscale>  0 0.23785945E+03</rscale>
<asrwt>0</asrwt>
<pdfrwt beam="1">  1        2 0.68977688E-01 0.23785945E+03</pdfrwt>
<pdfrwt beam="2">  1       -2 0.41848136E-02 0.23785945E+03</pdfrwt>
<totfact> 0.17760290E+04</totfact>
</mgrwt>
</event>
<event>
 4    1  0.1305170E-003  0.1985948E+03  0.7818608E-02  0.1150930E+00
          2   -1    0    0  501    0  0.00000000000E+00  0.00000000000E+00  0.25540436901E+04  0.25540436901E+04  0.25500000000E-02 0.  1.
         -2   -1    0    0    0  501 -0.00000000000E+00 -0.00000000000E+00 -0.38605338048E+01  0.38605346470E+01  0.25500000000E-02 0. -1.
    5000001    1    1    2    0    0  0.61904563575E+02  0.36825980678E+01  0.13940045914E+04  0.13975061851E+04  0.77000000000E+02 0.  0.
   -5000001    1    1    2    0    0 -0.61904563575E+02 -0.36825980678E+01  0.11561785649E+04  0.11603980397E+04  0.77000000000E+02 0.  0.
<mgrwt>
<rscale>  0 0.19859479E+03</rscale>
<asrwt>0</asrwt>
<pdfrwt beam="1">  1        2 0.36486432E+00 0.19859479E+03</pdfrwt>
<pdfrwt beam="2">  1       -2 0.55150348E-03 0.19859479E+03</pdfrwt>
<totfact> 0.23517739E+04</totfact>
</mgrwt>
</event>
<event>
 4    1  0.1305170E-003  0.2630792E+03  0.7818608E-02  0.1105307E+00
          2   -1    0    0  501    0  0.00000000000E+00  0.00000000000E+00  0.16923244162E+02  0.16923244354E+02  0.25500000000E-02 0.  1.
         -2   -1    0    0    0  501 -0.00000000000E+00 -0.00000000000E+00 -0.10224203675E+04  0.10224203675E+04  0.25500000000E-02 0. -1.
    5000001    1    1    2    0    0  0.87201369668E+02 -0.46414766142E+02 -0.34396927454E+03  0.36606320659E+03  0.77000000000E+02 0.  0.
   -5000001    1    1    2    0    0 -0.87201369668E+02  0.46414766142E+02 -0.66152784881E+03  0.67328040528E+03  0.77000000000E+02 0.  0.
<mgrwt>
<rscale>  0 0.26307922E+03</rscale>
<asrwt>0</asrwt>
<pdfrwt beam="1">  1        2 0.24176070E-02 0.26307922E+03</pdfrwt>
<pdfrwt beam="2">  1       -2 0.14606001E+00 0.26307922E+03</pdfrwt>
<totfact> 0.14293425E+03</totfact>
</mgrwt>
</event>
<event>
 4    1  0.1305170E-003  0.3598750E+03  0.7818608E-02  0.1058633E+00
          2   -1    0    0  501    0  0.00000000000E+00  0.00000000000E+00  0.28379677403E+03  0.28379677404E+03  0.25500000000E-02 0.  1.
         -2   -1    0    0    0  501 -0.00000000000E+00 -0.00000000000E+00 -0.11408694998E+03  0.11408695000E+03  0.25500000000E-02 0. -1.
    5000001    1    1    2    0    0  0.11871577206E+03 -0.18760824051E+01  0.20773040399E+03  0.25135209361E+03  0.77000000000E+02 0.  0.
   -5000001    1    1    2    0    0 -0.11871577206E+03  0.18760824051E+01 -0.38020579934E+02  0.14653163044E+03  0.77000000000E+02 0.  0.
<mgrwt>
<rscale>  0 0.35987502E+03</rscale>
<asrwt>0</asrwt>
<pdfrwt beam="1">  1        2 0.40542395E-01 0.35987502E+03</pdfrwt>
<pdfrwt beam="2">  1       -2 0.16298136E-01 0.35987502E+03</pdfrwt>
<totfact> 0.37684102E+03</totfact>
</mgrwt>
</event>
<event>
 4    1  0.1305170E-003  0.3368428E+03  0.7818608E-02  0.1068149E+00
          2   -1    0    0  501    0  0.00000000000E+00  0.00000000000E+00  0.81939882706E+03  0.81939882706E+03  0.25500000000E-02 0.  1.
         -2   -1    0    0    0  501 -0.00000000000E+00 -0.00000000000E+00 -0.34617770694E+02  0.34617770788E+02  0.25500000000E-02 0. -1.
    5000001    1    1    2    0    0 -0.41750120384E+02  0.69407107054E+02  0.72932125066E+02  0.13344854412E+03  0.77000000000E+02 0.  0.
   -5000001    1    1    2    0    0  0.41750120384E+02 -0.69407107054E+02  0.71184893130E+03  0.72056805373E+03  0.77000000000E+02 0.  0.
<mgrwt>
<rscale>  0 0.33684276E+03</rscale>
<asrwt>0</asrwt>
<pdfrwt beam="1">  1        2 0.11705697E+00 0.33684276E+03</pdfrwt>
<pdfrwt beam="2">  1       -2 0.49453958E-02 0.33684276E+03</pdfrwt>
<totfact> 0.75617371E+03</totfact>
</mgrwt>
</event>
<event>
 4    1  0.1305170E-003  0.4930080E+03  0.7818608E-02  0.1015620E+00
          2   -1    0    0  501    0  0.00000000000E+00  0.00000000000E+00  0.15958750431E+04  0.15958750431E+04  0.25500000000E-02 0.  1.
         -2   -1    0    0    0  501 -0.00000000000E+00 -0.00000000000E+00 -0.38075804565E+02  0.38075804651E+02  0.25500000000E-02 0. -1.
    5000001    1    1    2    0    0  0.11633155521E+03 -0.14063270133E+03  0.12651421501E+04  0.12805562258E+04  0.77000000000E+02 0.  0.
   -5000001    1    1    2    0    0 -0.11633155521E+03  0.14063270133E+03  0.29265708838E+03  0.35339462192E+03  0.77000000000E+02 0.  0.
<mgrwt>
<rscale>  0 0.49300802E+03</rscale>
<asrwt>0</asrwt>
<pdfrwt beam="1">  1        2 0.22798214E+00 0.49300802E+03</pdfrwt>
<pdfrwt beam="2">  1       -2 0.54394009E-02 0.49300802E+03</pdfrwt>
<totfact> 0.23934779E+03</totfact>
</mgrwt>
</event>
<event>
 4    1  0.1305170E-003  0.3913011E+03  0.7818608E-02  0.1046834E+00
          2   -1    0    0  501    0  0.00000000000E+00  0.00000000000E+00  0.13862781655E+03  0.13862781658E+03  0.25500000000E-02 0.  1.
         -2   -1    0    0    0  501 -0.00000000000E+00 -0.00000000000E+00 -0.27612885858E+03  0.27612885859E+03  0.25500000000E-02 0. -1.
    5000001    1    1    2    0    0  0.43396887911E+02  0.14821535769E+03 -0.16646697775E+03  0.23977351150E+03  0.77000000000E+02 0.  0.
   -5000001    1    1    2    0    0 -0.43396887911E+02 -0.14821535769E+03  0.28965935729E+02  0.17498316367E+03  0.77000000000E+02 0.  0.
<mgrwt>
<rscale>  0 0.39130112E+03</rscale>
<asrwt>0</asrwt>
<pdfrwt beam="1">  1        2 0.19803974E-01 0.39130112E+03</pdfrwt>
<pdfrwt beam="2">  1       -2 0.39446980E-01 0.39130112E+03</pdfrwt>
<totfact> 0.17317885E+03</totfact>
</mgrwt>
</event>
<event>
 4    1  0.1305170E-003  0.1650936E+03  0.7818608E-02  0.1183063E+00
         -2   -1    0    0    0  501 -0.00000000000E+00  0.00000000000E+00  0.29945756948E+02  0.29945757056E+02  0.25500000000E-02 0. -1.
          2   -1    0    0  501    0  0.00000000000E+00 -0.00000000000E+00 -0.22754377487E+03  0.22754377489E+03  0.25500000000E-02 0.  1.
    5000001    1    1    2    0    0 -0.13060706647E+02  0.26105142192E+02 -0.10774634944E+03  0.13561097420E+03  0.77000000000E+02 0.  0.
   -5000001    1    1    2    0    0  0.13060706647E+02 -0.26105142192E+02 -0.89851668491E+02  0.12187855774E+03  0.77000000000E+02 0.  0.
<mgrwt>
<rscale>  0 0.16509356E+03</rscale>
<asrwt>0</asrwt>
<pdfrwt beam="1">  1        2 0.32506253E-01 0.16509356E+03</pdfrwt>
<pdfrwt beam="2">  1       -2 0.42779654E-02 0.16509356E+03</pdfrwt>
<totfact> 0.37483867E+04</totfact>
</mgrwt>
</event>
<event>
 4    1  0.1305170E-003  0.2152395E+03  0.7818608E-02  0.1137483E+00
         -2   -1    0    0    0  501 -0.00000000000E+00  0.00000000000E+00  0.69352192196E+02  0.69352192243E+02  0.25500000000E-02 0. -1.
          2   -1    0    0  501    0  0.00000000000E+00 -0.00000000000E+00 -0.16700286658E+03  0.16700286659E+03  0.25500000000E-02 0.  1.
    5000001    1    1    2    0    0  0.67390805428E+02 -0.20355985820E+02 -0.19831937746E+02  0.10619883507E+03  0.77000000000E+02 0.  0.
   -5000001    1    1    2    0    0 -0.67390805428E+02  0.20355985820E+02 -0.77818736633E+02  0.13015622377E+03  0.77000000000E+02 0.  0.
<mgrwt>
<rscale>  0 0.21523954E+03</rscale>
<asrwt>0</asrwt>
<pdfrwt beam="1">  1        2 0.23857552E-01 0.21523954E+03</pdfrwt>
<pdfrwt beam="2">  1       -2 0.99074561E-02 0.21523954E+03</pdfrwt>
<totfact> 0.14835442E+04</totfact>
</mgrwt>
</event>
<event>
 4    1  0.1305170E-003  0.2501518E+03  0.7818608E-02  0.1113209E+00
         -2   -1    0    0    0  501 -0.00000000000E+00  0.00000000000E+00  0.16129216383E+03  0.16129216385E+03  0.25500000000E-02 0. -1.
          2   -1    0    0  501    0  0.00000000000E+00 -0.00000000000E+00 -0.96991573205E+02  0.96991573239E+02  0.25500000000E-02 0.  1.
    5000001    1    1    2    0    0 -0.95205960520E+02  0.38699133812E+01  0.61149230337E+01  0.12266027650E+03  0.77000000000E+02 0.  0.
   -5000001    1    1    2    0    0  0.95205960520E+02 -0.38699133812E+01  0.58185667589E+02  0.13562346058E+03  0.77000000000E+02 0.  0.
<mgrwt>
<rscale>  0 0.25015180E+03</rscale>
<asrwt>0</asrwt>
<pdfrwt beam="1">  1        2 0.13855939E-01 0.25015180E+03</pdfrwt>
<pdfrwt beam="2">  1       -2 0.23041738E-01 0.25015180E+03</pdfrwt>
<totfact> 0.69445513E+03</totfact>
</mgrwt>
</event>
<event>
 4    1  0.1305170E-003  0.2468465E+03  0.7818608E-02  0.1115314E+00
         -2   -1    0    0    0  501 -0.00000000000E+00  0.00000000000E+00  0.24077803001E+02  0.24077803136E+02  0.25500000000E-02 0. -1.
          2   -1    0    0  501    0  0.00000000000E+00 -0.00000000000E+00 -0.63266987450E+03  0.63266987451E+03  0.25500000000E-02 0.  1.
    5000001    1    1    2    0    0  0.91656800512E+02  0.30045685693E+02 -0.30633676683E+03  0.33026493459E+03  0.77000000000E+02 0.  0.
   -5000001    1    1    2    0    0 -0.91656800512E+02 -0.30045685693E+02 -0.30225530467E+03  0.32648274305E+03  0.77000000000E+02 0.  0.
<mgrwt>
<rscale>  0 0.24684652E+03</rscale>
<asrwt>0</asrwt>
<pdfrwt beam="1">  1        2 0.90381400E-01 0.24684652E+03</pdfrwt>
<pdfrwt beam="2">  1       -2 0.34396866E-02 0.24684652E+03</pdfrwt>
<totfact> 0.17629109E+04</totfact>
</mgrwt>
</event>
<event>
 4    1  0.1305170E-003  0.1790812E+03  0.7818608E-02  0.1168695E+00
          2   -1    0    0  501    0  0.00000000000E+00  0.00000000000E+00  0.92820688478E+03  0.92820688478E+03  0.25500000000E-02 0.  1.
         -2   -1    0    0    0  501 -0.00000000000E+00 -0.00000000000E+00 -0.86376397123E+01  0.86376400888E+01  0.25500000000E-02 0. -1.
    5000001    1    1    2    0    0  0.19012980171E+02 -0.17201193705E+01  0.24256735070E+03  0.25521044620E+03  0.77000000000E+02 0.  0.
   -5000001    1    1    2    0    0 -0.19012980171E+02  0.17201193705E+01  0.67700189437E+03  0.68163407867E+03  0.77000000000E+02 0.  0.
<mgrwt>
<rscale>  0 0.17908118E+03</rscale>
<asrwt>0</asrwt>
<pdfrwt beam="1">  1        2 0.13260102E+00 0.17908118E+03</pdfrwt>
<pdfrwt beam="2">  1       -2 0.12339482E-02 0.17908118E+03</pdfrwt>
<totfact> 0.48617350E+04</totfact>
</mgrwt>
</event>
<event>
 4    1  0.1305170E-003  0.2680280E+03  0.7818608E-02  0.1102414E+00
         -2   -1    0    0    0  501 -0.00000000000E+00  0.00000000000E+00  0.86884505165E+01  0.86884508907E+01  0.25500000000E-02 0. -1.
          2   -1    0    0  501    0  0.00000000000E+00 -0.00000000000E+00 -0.20670832046E+04  0.20670832046E+04  0.25500000000E-02 0.  1.
    5000001    1    1    2    0    0  0.91194428611E+02  0.59244956325E+02 -0.11399105667E+04  0.11476722044E+04  0.77000000000E+02 0.  0.
   -5000001    1    1    2    0    0 -0.91194428611E+02 -0.59244956325E+02 -0.91848418744E+03  0.92809945116E+03  0.77000000000E+02 0.  0.
<mgrwt>
<rscale>  0 0.26802799E+03</rscale>
<asrwt>0</asrwt>
<pdfrwt beam="1">  1        2 0.29529729E+00 0.26802799E+03</pdfrwt>
<pdfrwt beam="2">  1       -2 0.12412086E-02 0.26802799E+03</pdfrwt>
<totfact> 0.12741080E+04</totfact>
</mgrwt>
</event>
<event>
 4    1  0.1305170E-003  0.3360076E+03  0.7818608E-02  0.1068509E+00
         -2   -1    0    0    0  501 -0.00000000000E+00  0.00000000000E+00  0.63037649040E+02  0.63037649091E+02  0.25500000000E-02 0. -1.
          2   -1    0    0  501    0  0.00000000000E+00 -0.00000000000E+00 -0.44775272056E+03  0.44775272056E+03  0.25500000000E-02 0.  1.
    5000001    1    1    2    0    0 -0.79027798050E+02  0.11775575834E+03 -0.26340790946E+03  0.30890862443E+03  0.77000000000E+02 0.  0.
   -5000001    1    1    2    0    0  0.79027798050E+02 -0.11775575834E+03 -0.12130716206E+03  0.20188174522E+03  0.77000000000E+02 0.  0.
<mgrwt>
<rscale>  0 0.33600761E+03</rscale>
<asrwt>0</asrwt>
<pdfrwt beam="1">  1        2 0.63964673E-01 0.33600761E+03</pdfrwt>
<pdfrwt beam="2">  1       -2 0.90053787E-02 0.33600761E+03</pdfrwt>
<totfact> 0.60155472E+03</totfact>
</mgrwt>
</event>
<event>
 4    1  0.1305170E-003  0.9488369E+03  0.7818608E-02  0.9366511E-01
          2   -1    0    0  501    0  0.00000000000E+00  0.00000000000E+00  0.16869229306E+04  0.16869229306E+04  0.25500000000E-02 0.  1.
         -2   -1    0    0    0  501 -0.00000000000E+00 -0.00000000000E+00 -0.13342212573E+03  0.13342212575E+03  0.25500000000E-02 0. -1.
    5000001    1    1    2    0    0  0.21556992528E+03  0.36639727221E+03  0.11528280574E+04  0.12311209867E+04  0.77000000000E+02 0.  0.
   -5000001    1    1    2    0    0 -0.21556992528E+03 -0.36639727221E+03  0.40067274743E+03  0.58922406969E+03  0.77000000000E+02 0.  0.
<mgrwt>
<rscale>  0 0.94883685E+03</rscale>
<asrwt>0</asrwt>
<pdfrwt beam="1">  1        2 0.24098898E+00 0.94883685E+03</pdfrwt>
<pdfrwt beam="2">  1       -2 0.19060305E-01 0.94883685E+03</pdfrwt>
<totfact> 0.27093288E+02</totfact>
</mgrwt>
</event>
<event>
 4    1  0.1305170E-003  0.3072169E+03  0.7818608E-02  0.1081688E+00
          2   -1    0    0  501    0  0.00000000000E+00  0.00000000000E+00  0.38127832593E+04  0.38127832593E+04  0.25500000000E-02 0.  1.
         -2   -1    0    0    0  501 -0.00000000000E+00 -0.00000000000E+00 -0.61885364568E+01  0.61885369822E+01  0.25500000000E-02 0. -1.
    5000001    1    1    2    0    0  0.25119900607E+02 -0.13037058791E+03  0.18256172667E+04  0.18320575602E+04  0.77000000000E+02 0.  0.
   -5000001    1    1    2    0    0 -0.25119900607E+02  0.13037058791E+03  0.19809774562E+04  0.19869142361E+04  0.77000000000E+02 0.  0.
<mgrwt>
<rscale>  0 0.30721686E+03</rscale>
<asrwt>0</asrwt>
<pdfrwt beam="1">  1        2 0.54468262E+00 0.30721686E+03</pdfrwt>
<pdfrwt beam="2">  1       -2 0.88407782E-03 0.30721686E+03</pdfrwt>
<totfact> 0.24199810E+03</totfact>
</mgrwt>
</event>
<event>
 4    1  0.1305170E-003  0.6642005E+03  0.7818608E-02  0.9780492E-01
         -2   -1    0    0    0  501 -0.00000000000E+00  0.00000000000E+00  0.79919009918E+02  0.79919009959E+02  0.25500000000E-02 0.  1.
          2   -1    0    0  501    0  0.00000000000E+00 -0.00000000000E+00 -0.13800291458E+04  0.13800291458E+04  0.25500000000E-02 0. -1.
    5000001    1    1    2    0    0 -0.18780914290E+03  0.26274226151E+03 -0.63363678756E+03  0.71535330340E+03  0.77000000000E+02 0.  0.
   -5000001    1    1    2    0    0  0.18780914290E+03 -0.26274226151E+03 -0.66647334833E+03  0.74459485237E+03  0.77000000000E+02 0.  0.
<mgrwt>
<rscale>  0 0.66420046E+03</rscale>
<asrwt>0</asrwt>
<pdfrwt beam="1">  1        2 0.19714701E+00 0.66420046E+03</pdfrwt>
<pdfrwt beam="2">  1       -2 0.11417002E-01 0.66420046E+03</pdfrwt>
<totfact> 0.94719340E+02</totfact>
</mgrwt>
</event>
<event>
 4    1  0.1305170E-003  0.3009196E+03  0.7818608E-02  0.1084782E+00
         -2   -1    0    0    0  501 -0.00000000000E+00  0.00000000000E+00  0.30618366354E+02  0.30618366460E+02  0.25500000000E-02 0. -1.
          2   -1    0    0  501    0  0.00000000000E+00 -0.00000000000E+00 -0.73936492099E+03  0.73936492099E+03  0.25500000000E-02 0.  1.
    5000001    1    1    2    0    0  0.30218289484E+02 -0.10198345496E+03 -0.16642353677E+03  0.21198953676E+03  0.77000000000E+02 0.  0.
   -5000001    1    1    2    0    0 -0.30218289484E+02  0.10198345496E+03 -0.54232301787E+03  0.55799375069E+03  0.77000000000E+02 0.  0.
<mgrwt>
<rscale>  0 0.30091956E+03</rscale>
<asrwt>0</asrwt>
<pdfrwt beam="1">  1        2 0.10562355E+00 0.30091956E+03</pdfrwt>
<pdfrwt beam="2">  1       -2 0.43740528E-02 0.30091956E+03</pdfrwt>
<totfact> 0.10310952E+04</totfact>
</mgrwt>
</event>
<event>
 4    1  0.1305170E-003  0.2665298E+03  0.7818608E-02  0.1103282E+00
          2   -1    0    0  501    0  0.00000000000E+00  0.00000000000E+00  0.19516960791E+04  0.19516960791E+04  0.25500000000E-02 0.  1.
         -2   -1    0    0    0  501 -0.00000000000E+00 -0.00000000000E+00 -0.90995349107E+01  0.90995352680E+01  0.25500000000E-02 0. -1.
    5000001    1    1    2    0    0 -0.17306199819E+02  0.98507886466E+02  0.65682633114E+03  0.66884462884E+03  0.77000000000E+02 0.  0.
   -5000001    1    1    2    0    0  0.17306199819E+02 -0.98507886466E+02  0.12857702130E+04  0.12919509855E+04  0.77000000000E+02 0.  0.
<mgrwt>
<rscale>  0 0.26652975E+03</rscale>
<asrwt>0</asrwt>
<pdfrwt beam="1">  1        2 0.27881400E+00 0.26652975E+03</pdfrwt>
<pdfrwt beam="2">  1       -2 0.12999323E-02 0.26652975E+03</pdfrwt>
<totfact> 0.13554775E+04</totfact>
</mgrwt>
</event>
<event>
 4    1  0.1305170E-003  0.1834558E+03  0.7818608E-02  0.1164500E+00
          2   -1    0    0  501    0  0.00000000000E+00  0.00000000000E+00  0.87431866091E+03  0.87431866092E+03  0.25500000000E-02 0.  1.
         -2   -1    0    0    0  501 -0.00000000000E+00 -0.00000000000E+00 -0.96235037923E+01  0.96235041301E+01  0.25500000000E-02 0. -1.
    5000001    1    1    2    0    0 -0.13995359320E+02 -0.33830820239E+02  0.59536049247E+03  0.60143454380E+03  0.77000000000E+02 0.  0.
   -5000001    1    1    2    0    0  0.13995359320E+02  0.33830820239E+02  0.26933466465E+03  0.28250762125E+03  0.77000000000E+02 0.  0.
<mgrwt>
<rscale>  0 0.18345582E+03</rscale>
<asrwt>0</asrwt>
<pdfrwt beam="1">  1        2 0.12490271E+00 0.18345582E+03</pdfrwt>
<pdfrwt beam="2">  1       -2 0.13747858E-02 0.18345582E+03</pdfrwt>
<totfact> 0.44985056E+04</totfact>
</mgrwt>
</event>
<event>
 4    1  0.1305170E-003  0.3769970E+03  0.7818608E-02  0.1052049E+00
          2   -1    0    0  501    0  0.00000000000E+00  0.00000000000E+00  0.93316284687E+02  0.93316284722E+02  0.25500000000E-02 0.  1.
         -2   -1    0    0    0  501 -0.00000000000E+00 -0.00000000000E+00 -0.38076617173E+03  0.38076617174E+03  0.25500000000E-02 0. -1.
    5000001    1    1    2    0    0  0.94147787564E+02 -0.12913455365E+03 -0.22388300117E+03  0.28564337392E+03  0.77000000000E+02 0.  0.
   -5000001    1    1    2    0    0 -0.94147787564E+02  0.12913455365E+03 -0.63566885871E+02  0.18843908254E+03  0.77000000000E+02 0.  0.
<mgrwt>
<rscale>  0 0.37699700E+03</rscale>
<asrwt>0</asrwt>
<pdfrwt beam="1">  1        2 0.13330898E-01 0.37699700E+03</pdfrwt>
<pdfrwt beam="2">  1       -2 0.54395167E-01 0.37699700E+03</pdfrwt>
<totfact> 0.14652731E+03</totfact>
</mgrwt>
</event>
<event>
 4    1  0.1305170E-003  0.2014024E+03  0.7818608E-02  0.1148561E+00
          2   -1    0    0  501    0  0.00000000000E+00  0.00000000000E+00  0.13298968016E+04  0.13298968016E+04  0.25500000000E-02 0.  1.
         -2   -1    0    0    0  501 -0.00000000000E+00 -0.00000000000E+00 -0.76252000374E+01  0.76252004638E+01  0.25500000000E-02 0. -1.
    5000001    1    1    2    0    0  0.40072576997E+02 -0.50075054832E+02  0.59525648468E+03  0.60363283964E+03  0.77000000000E+02 0.  0.
   -5000001    1    1    2    0    0 -0.40072576997E+02  0.50075054832E+02  0.72701511685E+03  0.73388916239E+03  0.77000000000E+02 0.  0.
<mgrwt>
<rscale>  0 0.20140238E+03</rscale>
<asrwt>0</asrwt>
<pdfrwt beam="1">  1        2 0.18998531E+00 0.20140238E+03</pdfrwt>
<pdfrwt beam="2">  1       -2 0.10893140E-02 0.20140238E+03</pdfrwt>
<totfact> 0.35193336E+04</totfact>
</mgrwt>
</event>
<event>
 4    1  0.1305170E-003  0.2350218E+03  0.7818608E-02  0.1123154E+00
          2   -1    0    0  501    0  0.00000000000E+00  0.00000000000E+00  0.23825663579E+04  0.23825663579E+04  0.25500000000E-02 0.  1.
         -2   -1    0    0    0  501 -0.00000000000E+00 -0.00000000000E+00 -0.57957720930E+01  0.57957726540E+01  0.25500000000E-02 0. -1.
    5000001    1    1    2    0    0 -0.43897371850E+02 -0.27929129216E+02  0.45749073916E+03  0.46683379476E+03  0.77000000000E+02 0.  0.
   -5000001    1    1    2    0    0  0.43897371850E+02  0.27929129216E+02  0.19192798466E+04  0.19215283358E+04  0.77000000000E+02 0.  0.
<mgrwt>
<rscale>  0 0.23502181E+03</rscale>
<asrwt>0</asrwt>
<pdfrwt beam="1">  1        2 0.34036763E+00 0.23502181E+03</pdfrwt>
<pdfrwt beam="2">  1       -2 0.82796503E-03 0.23502181E+03</pdfrwt>
<totfact> 0.16020731E+04</totfact>
</mgrwt>
</event>
<event>
 4    1  0.1305170E-003  0.3547775E+03  0.7818608E-02  0.1060671E+00
         -2   -1    0    0    0  501 -0.00000000000E+00  0.00000000000E+00  0.16698514275E+02  0.16698514469E+02  0.25500000000E-02 0. -1.
          2   -1    0    0  501    0  0.00000000000E+00 -0.00000000000E+00 -0.18844054791E+04  0.18844054791E+04  0.25500000000E-02 0.  1.
    5000001    1    1    2    0    0 -0.14447845304E+03  0.43107553849E+02 -0.65002632858E+03  0.67171088456E+03  0.77000000000E+02 0.  0.
   -5000001    1    1    2    0    0  0.14447845304E+03 -0.43107553849E+02 -0.12176806363E+04  0.12293931090E+04  0.77000000000E+02 0.  0.
<mgrwt>
<rscale>  0 0.35477752E+03</rscale>
<asrwt>0</asrwt>
<pdfrwt beam="1">  1        2 0.26920065E+00 0.35477752E+03</pdfrwt>
<pdfrwt beam="2">  1       -2 0.23855033E-02 0.35477752E+03</pdfrwt>
<totfact> 0.60030374E+03</totfact>
</mgrwt>
</event>
<event>
 4    1  0.1305170E-003  0.1783617E+03  0.7818608E-02  0.1169398E+00
          2   -1    0    0  501    0  0.00000000000E+00  0.00000000000E+00  0.32913657405E+03  0.32913657406E+03  0.25500000000E-02 0.  1.
         -2   -1    0    0    0  501 -0.00000000000E+00 -0.00000000000E+00 -0.24163903177E+02  0.24163903311E+02  0.25500000000E-02 0. -1.
    5000001    1    1    2    0    0 -0.37628444683E+02  0.22998546997E+02  0.13483696890E+03  0.16141512071E+03  0.77000000000E+02 0.  0.
   -5000001    1    1    2    0    0  0.37628444683E+02 -0.22998546997E+02  0.17013570197E+03  0.19188535665E+03  0.77000000000E+02 0.  0.
<mgrwt>
<rscale>  0 0.17836170E+03</rscale>
<asrwt>0</asrwt>
<pdfrwt beam="1">  1        2 0.47019507E-01 0.17836170E+03</pdfrwt>
<pdfrwt beam="2">  1       -2 0.34519864E-02 0.17836170E+03</pdfrwt>
<totfact> 0.35009353E+04</totfact>
</mgrwt>
</event>
<event>
 4    1  0.1305170E-003  0.3092319E+03  0.7818608E-02  0.1080715E+00
         -2   -1    0    0    0  501 -0.00000000000E+00  0.00000000000E+00  0.76756847873E+02  0.76756847916E+02  0.25500000000E-02 0. -1.
          2   -1    0    0  501    0  0.00000000000E+00 -0.00000000000E+00 -0.31145222929E+03  0.31145222930E+03  0.25500000000E-02 0.  1.
    5000001    1    1    2    0    0  0.16997490560E+02  0.10549797008E+03 -0.15680958720E+02  0.13264097724E+03  0.77000000000E+02 0.  0.
   -5000001    1    1    2    0    0 -0.16997490560E+02 -0.10549797008E+03 -0.21901442270E+03  0.25556809998E+03  0.77000000000E+02 0.  0.
<mgrwt>
<rscale>  0 0.30923190E+03</rscale>
<asrwt>0</asrwt>
<pdfrwt beam="1">  1        2 0.44493175E-01 0.30923190E+03</pdfrwt>
<pdfrwt beam="2">  1       -2 0.10965264E-01 0.30923190E+03</pdfrwt>
<totfact> 0.65008620E+03</totfact>
</mgrwt>
</event>
<event>
 4    1  0.1305170E-003  0.2670928E+03  0.7818608E-02  0.1102955E+00
          2   -1    0    0  501    0  0.00000000000E+00  0.00000000000E+00  0.70141355676E+03  0.70141355677E+03  0.25500000000E-02 0.  1.
         -2   -1    0    0    0  501 -0.00000000000E+00 -0.00000000000E+00 -0.25426713127E+02  0.25426713255E+02  0.25500000000E-02 0. -1.
    5000001    1    1    2    0    0 -0.76602632811E+02  0.61303924538E+02  0.46791977346E+03  0.48425618108E+03  0.77000000000E+02 0.  0.
   -5000001    1    1    2    0    0  0.76602632811E+02 -0.61303924538E+02  0.20806707018E+03  0.24258408895E+03  0.77000000000E+02 0.  0.
<mgrwt>
<rscale>  0 0.26709280E+03</rscale>
<asrwt>0</asrwt>
<pdfrwt beam="1">  1        2 0.10020193E+00 0.26709280E+03</pdfrwt>
<pdfrwt beam="2">  1       -2 0.36323877E-02 0.26709280E+03</pdfrwt>
<totfact> 0.14459857E+04</totfact>
</mgrwt>
</event>
<event>
 4    1  0.1305170E-003  0.7309262E+03  0.7818608E-02  0.9665759E-01
          2   -1    0    0  501    0  0.00000000000E+00  0.00000000000E+00  0.21041022161E+04  0.21041022161E+04  0.25500000000E-02 0.  1.
         -2   -1    0    0    0  501 -0.00000000000E+00 -0.00000000000E+00 -0.63477555662E+02  0.63477555714E+02  0.25500000000E-02 0. -1.
    5000001    1    1    2    0    0  0.30899920904E+03  0.13619409789E+03  0.13662115713E+04  0.14094298142E+04  0.77000000000E+02 0.  0.
   -5000001    1    1    2    0    0 -0.30899920904E+03 -0.13619409789E+03  0.67441308908E+03  0.75814995760E+03  0.77000000000E+02 0.  0.
<mgrwt>
<rscale>  0 0.73092617E+03</rscale>
<asrwt>0</asrwt>
<pdfrwt beam="1">  1        2 0.30058604E+00 0.73092617E+03</pdfrwt>
<pdfrwt beam="2">  1       -2 0.90682220E-02 0.73092617E+03</pdfrwt>
<totfact> 0.58371712E+02</totfact>
</mgrwt>
</event>
<event>
 4    1  0.1305170E-003  0.1963513E+03  0.7818608E-02  0.1152854E+00
          2   -1    0    0  501    0  0.00000000000E+00  0.00000000000E+00  0.41176888154E+04  0.41176888154E+04  0.25500000000E-02 0.  1.
         -2   -1    0    0    0  501 -0.00000000000E+00 -0.00000000000E+00 -0.23407446787E+01  0.23407460677E+01  0.25500000000E-02 0. -1.
    5000001    1    1    2    0    0  0.16301563539E+01 -0.60333930695E+02  0.18864083935E+04  0.18889437439E+04  0.77000000000E+02 0.  0.
   -5000001    1    1    2    0    0 -0.16301563539E+01  0.60333930695E+02  0.22289396772E+04  0.22310858176E+04  0.77000000000E+02 0.  0.
<mgrwt>
<rscale>  0 0.19635133E+03</rscale>
<asrwt>0</asrwt>
<pdfrwt beam="1">  1        2 0.58823141E+00 0.19635133E+03</pdfrwt>
<pdfrwt beam="2">  1       -2 0.33439779E-03 0.19635133E+03</pdfrwt>
<totfact> 0.63090926E+03</totfact>
</mgrwt>
</event>
<event>
 4    1  0.1305170E-003  0.2080200E+03  0.7818608E-02  0.1143144E+00
         -2   -1    0    0    0  501 -0.00000000000E+00  0.00000000000E+00  0.87377516295E+01  0.87377520016E+01  0.25500000000E-02 0. -1.
          2   -1    0    0  501    0  0.00000000000E+00 -0.00000000000E+00 -0.12380846629E+04  0.12380846629E+04  0.25500000000E-02 0.  1.
    5000001    1    1    2    0    0 -0.49283800518E+02  0.28973965902E+02 -0.37337755967E+03  0.38549732264E+03  0.77000000000E+02 0.  0.
   -5000001    1    1    2    0    0  0.49283800518E+02 -0.28973965902E+02 -0.85596935161E+03  0.86132509228E+03  0.77000000000E+02 0.  0.
<mgrwt>
<rscale>  0 0.20801997E+03</rscale>
<asrwt>0</asrwt>
<pdfrwt beam="1">  1        2 0.17686913E+00 0.20801997E+03</pdfrwt>
<pdfrwt beam="2">  1       -2 0.12482510E-02 0.20801997E+03</pdfrwt>
<totfact> 0.32351571E+04</totfact>
</mgrwt>
</event>
<event>
 4    1  0.1305170E-003  0.2408629E+03  0.7818608E-02  0.1119219E+00
          2   -1    0    0  501    0  0.00000000000E+00  0.00000000000E+00  0.15210456170E+02  0.15210456384E+02  0.25500000000E-02 0.  1.
         -2   -1    0    0    0  501 -0.00000000000E+00 -0.00000000000E+00 -0.95353737090E+03  0.95353737090E+03  0.25500000000E-02 0. -1.
    5000001    1    1    2    0    0  0.48760839294E+02 -0.69915901739E+02 -0.61467305221E+03  0.62531417214E+03  0.77000000000E+02 0.  0.
   -5000001    1    1    2    0    0 -0.48760839294E+02  0.69915901739E+02 -0.32365386252E+03  0.34343365515E+03  0.77000000000E+02 0.  0.
<mgrwt>
<rscale>  0 0.24086294E+03</rscale>
<asrwt>0</asrwt>
<pdfrwt beam="1">  1        2 0.21729229E-02 0.24086294E+03</pdfrwt>
<pdfrwt beam="2">  1       -2 0.13621959E+00 0.24086294E+03</pdfrwt>
<totfact> 0.19688853E+03</totfact>
</mgrwt>
</event>
<event>
 4    1  0.1305170E-003  0.3189880E+03  0.7818608E-02  0.1076116E+00
         -2   -1    0    0    0  501 -0.00000000000E+00  0.00000000000E+00  0.54866401546E+02  0.54866401606E+02  0.25500000000E-02 0. -1.
          2   -1    0    0  501    0  0.00000000000E+00 -0.00000000000E+00 -0.46364135680E+03  0.46364135680E+03  0.25500000000E-02 0.  1.
    5000001    1    1    2    0    0 -0.32340379361E+02 -0.13313470281E+03 -0.16021204787E+03  0.22442738138E+03  0.77000000000E+02 0.  0.
   -5000001    1    1    2    0    0  0.32340379361E+02  0.13313470281E+03 -0.24856290738E+03  0.29408037703E+03  0.77000000000E+02 0.  0.
<mgrwt>
<rscale>  0 0.31898798E+03</rscale>
<asrwt>0</asrwt>
<pdfrwt beam="1">  1        2 0.66234477E-01 0.31898798E+03</pdfrwt>
<pdfrwt beam="2">  1       -2 0.78380577E-02 0.31898798E+03</pdfrwt>
<totfact> 0.71923257E+03</totfact>
</mgrwt>
</event>
<event>
 4    1  0.1305170E-003  0.2679627E+03  0.7818608E-02  0.1102451E+00
          2   -1    0    0  501    0  0.00000000000E+00  0.00000000000E+00  0.19772048973E+03  0.19772048974E+03  0.25500000000E-02 0.  1.
         -2   -1    0    0    0  501 -0.00000000000E+00 -0.00000000000E+00 -0.90789775667E+02  0.90789775703E+02  0.25500000000E-02 0. -1.
    5000001    1    1    2    0    0  0.78380094951E+02 -0.76568283616E+02  0.57752868976E+02  0.14584421557E+03  0.77000000000E+02 0.  0.
   -5000001    1    1    2    0    0 -0.78380094951E+02  0.76568283616E+02  0.49177845084E+02  0.14266604988E+03  0.77000000000E+02 0.  0.
<mgrwt>
<rscale>  0 0.26796268E+03</rscale>
<asrwt>0</asrwt>
<pdfrwt beam="1">  1        2 0.28245784E-01 0.26796268E+03</pdfrwt>
<pdfrwt beam="2">  1       -2 0.12969968E-01 0.26796268E+03</pdfrwt>
<totfact> 0.80816632E+03</totfact>
</mgrwt>
</event>
<event>
 4    1  0.1305170E-003  0.1866676E+03  0.7818608E-02  0.1161502E+00
         -2   -1    0    0    0  501 -0.00000000000E+00  0.00000000000E+00  0.38377100268E+03  0.38377100269E+03  0.25500000000E-02 0. -1.
          2   -1    0    0  501    0  0.00000000000E+00 -0.00000000000E+00 -0.22698955409E+02  0.22698955552E+02  0.25500000000E-02 0.  1.
    5000001    1    1    2    0    0  0.39548069141E+02  0.62280404990E+01  0.10575642559E+03  0.13680738217E+03  0.77000000000E+02 0.  0.
   -5000001    1    1    2    0    0 -0.39548069141E+02 -0.62280404990E+01  0.25531562168E+03  0.26966257607E+03  0.77000000000E+02 0.  0.
<mgrwt>
<rscale>  0 0.18666763E+03</rscale>
<asrwt>0</asrwt>
<pdfrwt beam="1">  1        2 0.32427082E-02 0.18666763E+03</pdfrwt>
<pdfrwt beam="2">  1       -2 0.54824424E-01 0.18666763E+03</pdfrwt>
<totfact> 0.86748281E+03</totfact>
</mgrwt>
</event>
<event>
 4    1  0.1305170E-003  0.2249457E+03  0.7818608E-02  0.1130249E+00
         -2   -1    0    0    0  501 -0.00000000000E+00  0.00000000000E+00  0.20480310078E+03  0.20480310079E+03  0.25500000000E-02 0. -1.
          2   -1    0    0  501    0  0.00000000000E+00 -0.00000000000E+00 -0.61767362771E+02  0.61767362824E+02  0.25500000000E-02 0.  1.
    5000001    1    1    2    0    0  0.71947788513E+02 -0.25659908565E+02  0.10679619861E+03  0.15221479303E+03  0.77000000000E+02 0.  0.
   -5000001    1    1    2    0    0 -0.71947788513E+02  0.25659908565E+02  0.36239539394E+02  0.11435567059E+03  0.77000000000E+02 0.  0.
<mgrwt>
<rscale>  0 0.22494575E+03</rscale>
<asrwt>0</asrwt>
<pdfrwt beam="1">  1        2 0.88239090E-02 0.22494575E+03</pdfrwt>
<pdfrwt beam="2">  1       -2 0.29257586E-01 0.22494575E+03</pdfrwt>
<totfact> 0.78650602E+03</totfact>
</mgrwt>
</event>
<event>
 4    1  0.1305170E-003  0.1963578E+03  0.7818608E-02  0.1152849E+00
         -2   -1    0    0    0  501 -0.00000000000E+00  0.00000000000E+00  0.71882468416E+01  0.71882472939E+01  0.25500000000E-02 0. -1.
          2   -1    0    0  501    0  0.00000000000E+00 -0.00000000000E+00 -0.13409517612E+04  0.13409517612E+04  0.25500000000E-02 0.  1.
    5000001    1    1    2    0    0  0.17809529180E+02  0.52231234205E+02 -0.48985612284E+03  0.49893216196E+03  0.77000000000E+02 0.  0.
   -5000001    1    1    2    0    0 -0.17809529180E+02 -0.52231234205E+02 -0.84390739153E+03  0.84920784655E+03  0.77000000000E+02 0.  0.
<mgrwt>
<rscale>  0 0.19635776E+03</rscale>
<asrwt>0</asrwt>
<pdfrwt beam="1">  1        2 0.19156438E+00 0.19635776E+03</pdfrwt>
<pdfrwt beam="2">  1       -2 0.10268933E-02 0.19635776E+03</pdfrwt>
<totfact> 0.37758078E+04</totfact>
</mgrwt>
</event>
<event>
 4    1  0.1305170E-003  0.2546125E+03  0.7818608E-02  0.1110424E+00
          2   -1    0    0  501    0  0.00000000000E+00  0.00000000000E+00  0.32313086310E+03  0.32313086311E+03  0.25500000000E-02 0.  1.
         -2   -1    0    0    0  501 -0.00000000000E+00 -0.00000000000E+00 -0.50155767543E+02  0.50155767607E+02  0.25500000000E-02 0. -1.
    5000001    1    1    2    0    0 -0.76156463835E+02  0.65541465541E+02  0.11668786341E+03  0.17216430570E+03  0.77000000000E+02 0.  0.
   -5000001    1    1    2    0    0  0.76156463835E+02 -0.65541465541E+02  0.15628723215E+03  0.20112232502E+03  0.77000000000E+02 0.  0.
<mgrwt>
<rscale>  0 0.25461246E+03</rscale>
<asrwt>0</asrwt>
<pdfrwt beam="1">  1        2 0.46161549E-01 0.25461246E+03</pdfrwt>
<pdfrwt beam="2">  1       -2 0.71651101E-02 0.25461246E+03</pdfrwt>
<totfact> 0.12120221E+04</totfact>
</mgrwt>
</event>
<event>
 4    1  0.1305170E-003  0.2969790E+03  0.7818608E-02  0.1086761E+00
         -2   -1    0    0    0  501 -0.00000000000E+00  0.00000000000E+00  0.12462778908E+03  0.12462778911E+03  0.25500000000E-02 0. -1.
          2   -1    0    0  501    0  0.00000000000E+00 -0.00000000000E+00 -0.17691991744E+03  0.17691991746E+03  0.25500000000E-02 0.  1.
    5000001    1    1    2    0    0 -0.11220429257E+03  0.35469237693E+02  0.22255568056E+02  0.14238040737E+03  0.77000000000E+02 0.  0.
   -5000001    1    1    2    0    0  0.11220429257E+03 -0.35469237693E+02 -0.74547696414E+02  0.15916729920E+03  0.77000000000E+02 0.  0.
<mgrwt>
<rscale>  0 0.29697904E+03</rscale>
<asrwt>0</asrwt>
<pdfrwt beam="1">  1        2 0.25274274E-01 0.29697904E+03</pdfrwt>
<pdfrwt beam="2">  1       -2 0.17803970E-01 0.29697904E+03</pdfrwt>
<totfact> 0.54321618E+03</totfact>
</mgrwt>
</event>
<event>
 4    1  0.1305170E-003  0.2056559E+03  0.7818608E-02  0.1145053E+00
          2   -1    0    0  501    0  0.00000000000E+00  0.00000000000E+00  0.47897357005E+03  0.47897357006E+03  0.25500000000E-02 0.  1.
         -2   -1    0    0    0  501 -0.00000000000E+00 -0.00000000000E+00 -0.22075503120E+02  0.22075503267E+02  0.25500000000E-02 0. -1.
    5000001    1    1    2    0    0  0.27064689617E+02  0.60640135724E+02  0.26578633073E+03  0.28457177844E+03  0.77000000000E+02 0.  0.
   -5000001    1    1    2    0    0 -0.27064689617E+02 -0.60640135724E+02  0.19111173620E+03  0.21647729488E+03  0.77000000000E+02 0.  0.
<mgrwt>
<rscale>  0 0.20565585E+03</rscale>
<asrwt>0</asrwt>
<pdfrwt beam="1">  1        2 0.68424787E-01 0.20565585E+03</pdfrwt>
<pdfrwt beam="2">  1       -2 0.31536437E-02 0.20565585E+03</pdfrwt>
<totfact> 0.27068111E+04</totfact>
</mgrwt>
</event>
<event>
 4    1  0.1305170E-003  0.2448445E+03  0.7818608E-02  0.1116607E+00
          2   -1    0    0  501    0  0.00000000000E+00  0.00000000000E+00  0.50777012216E+03  0.50777012216E+03  0.25500000000E-02 0.  1.
         -2   -1    0    0    0  501 -0.00000000000E+00 -0.00000000000E+00 -0.29515724261E+02  0.29515724371E+02  0.25500000000E-02 0. -1.
    5000001    1    1    2    0    0 -0.43952392016E+02  0.83444763638E+02  0.26717443713E+03  0.29360861908E+03  0.77000000000E+02 0.  0.
   -5000001    1    1    2    0    0  0.43952392016E+02 -0.83444763638E+02  0.21107996076E+03  0.24367722745E+03  0.77000000000E+02 0.  0.
<mgrwt>
<rscale>  0 0.24484446E+03</rscale>
<asrwt>0</asrwt>
<pdfrwt beam="1">  1        2 0.72538587E-01 0.24484446E+03</pdfrwt>
<pdfrwt beam="2">  1       -2 0.42165321E-02 0.24484446E+03</pdfrwt>
<totfact> 0.16640070E+04</totfact>
</mgrwt>
</event>
<event>
 4    1  0.1305170E-003  0.2218052E+03  0.7818608E-02  0.1132544E+00
          2   -1    0    0  501    0  0.00000000000E+00  0.00000000000E+00  0.52065861597E+04  0.52065861597E+04  0.25500000000E-02 0.  1.
         -2   -1    0    0    0  501 -0.00000000000E+00 -0.00000000000E+00 -0.23622737168E+01  0.23622750931E+01  0.25500000000E-02 0. -1.
    5000001    1    1    2    0    0 -0.76824151201E+02 -0.48715138840E+01  0.21068743878E+04  0.21096858458E+04  0.77000000000E+02 0.  0.
   -5000001    1    1    2    0    0  0.76824151201E+02  0.48715138840E+01  0.30973494982E+04  0.30992625891E+04  0.77000000000E+02 0.  0.
<mgrwt>
<rscale>  0 0.22180519E+03</rscale>
<asrwt>0</asrwt>
<pdfrwt beam="1">  1        2 0.74380054E+00 0.22180519E+03</pdfrwt>
<pdfrwt beam="2">  1       -2 0.33746663E-03 0.22180519E+03</pdfrwt>
<totfact> 0.81313982E+02</totfact>
</mgrwt>
</event>
<event>
 4    1  0.1305170E-003  0.1683180E+03  0.7818608E-02  0.1179613E+00
         -2   -1    0    0    0  501 -0.00000000000E+00  0.00000000000E+00  0.38196611603E+02  0.38196611688E+02  0.25500000000E-02 0. -1.
          2   -1    0    0  501    0  0.00000000000E+00 -0.00000000000E+00 -0.18542836879E+03  0.18542836880E+03  0.25500000000E-02 0.  1.
    5000001    1    1    2    0    0  0.91824719573E+01 -0.31016942951E+02 -0.87382422465E+02  0.12087620236E+03  0.77000000000E+02 0.  0.
   -5000001    1    1    2    0    0 -0.91824719573E+01  0.31016942951E+02 -0.59849334718E+02  0.10274877813E+03  0.77000000000E+02 0.  0.
<mgrwt>
<rscale>  0 0.16831798E+03</rscale>
<asrwt>0</asrwt>
<pdfrwt beam="1">  1        2 0.26489766E-01 0.16831798E+03</pdfrwt>
<pdfrwt beam="2">  1       -2 0.54566589E-02 0.16831798E+03</pdfrwt>
<totfact> 0.32548538E+04</totfact>
</mgrwt>
</event>
<event>
 4    1  0.1305170E-003  0.2204908E+03  0.7818608E-02  0.1133518E+00
         -2   -1    0    0    0  501 -0.00000000000E+00  0.00000000000E+00  0.13104631254E+03  0.13104631256E+03  0.25500000000E-02 0. -1.
          2   -1    0    0  501    0  0.00000000000E+00 -0.00000000000E+00 -0.92746183606E+02  0.92746183641E+02  0.25500000000E-02 0.  1.
    5000001    1    1    2    0    0 -0.14134766339E+02 -0.36834981859E+02  0.88499174092E+02  0.12376474184E+03  0.77000000000E+02 0.  0.
   -5000001    1    1    2    0    0  0.14134766339E+02  0.36834981859E+02 -0.50199045160E+02  0.10002775436E+03  0.77000000000E+02 0.  0.
<mgrwt>
<rscale>  0 0.22049077E+03</rscale>
<asrwt>0</asrwt>
<pdfrwt beam="1">  1        2 0.13249455E-01 0.22049077E+03</pdfrwt>
<pdfrwt beam="2">  1       -2 0.18720902E-01 0.22049077E+03</pdfrwt>
<totfact> 0.10391551E+04</totfact>
</mgrwt>
</event>
<event>
 4    1  0.1305170E-003  0.3729856E+03  0.7818608E-02  0.1053557E+00
         -2   -1    0    0    0  501 -0.00000000000E+00  0.00000000000E+00  0.10849125483E+02  0.10849125783E+02  0.25500000000E-02 0. -1.
          2   -1    0    0  501    0  0.00000000000E+00 -0.00000000000E+00 -0.32057474034E+04  0.32057474034E+04  0.25500000000E-02 0.  1.
    5000001    1    1    2    0    0 -0.96917814707E+02  0.13916188883E+03 -0.15149735466E+04  0.15263790293E+04  0.77000000000E+02 0.  0.
   -5000001    1    1    2    0    0  0.96917814707E+02 -0.13916188883E+03 -0.16799247314E+04  0.16902174999E+04  0.77000000000E+02 0.  0.
<mgrwt>
<rscale>  0 0.37298556E+03</rscale>
<asrwt>0</asrwt>
<pdfrwt beam="1">  1        2 0.45796331E+00 0.37298556E+03</pdfrwt>
<pdfrwt beam="2">  1       -2 0.15498771E-02 0.37298556E+03</pdfrwt>
<totfact> 0.23946141E+03</totfact>
</mgrwt>
</event>
<event>
 4    1  0.1305170E-003  0.5775373E+03  0.7818608E-02  0.9953137E-01
          2   -1    0    0  501    0  0.00000000000E+00  0.00000000000E+00  0.46123899109E+03  0.46123899109E+03  0.25500000000E-02 0.  1.
         -2   -1    0    0    0  501 -0.00000000000E+00 -0.00000000000E+00 -0.18078983605E+03  0.18078983607E+03  0.25500000000E-02 0. -1.
    5000001    1    1    2    0    0 -0.24712222000E+03  0.71013882586E+02  0.25863641349E+03  0.37273872554E+03  0.77000000000E+02 0.  0.
   -5000001    1    1    2    0    0  0.24712222000E+03 -0.71013882586E+02  0.21812741547E+02  0.26929010162E+03  0.77000000000E+02 0.  0.
<mgrwt>
<rscale>  0 0.57753726E+03</rscale>
<asrwt>0</asrwt>
<pdfrwt beam="1">  1        2 0.65891284E-01 0.57753726E+03</pdfrwt>
<pdfrwt beam="2">  1       -2 0.25827120E-01 0.57753726E+03</pdfrwt>
<totfact> 0.99668061E+02</totfact>
</mgrwt>
</event>
<event>
 4    1  0.1305170E-003  0.4704483E+03  0.7818608E-02  0.1021794E+00
         -2   -1    0    0    0  501 -0.00000000000E+00  0.00000000000E+00  0.35741253102E+03  0.35741253103E+03  0.25500000000E-02 0. -1.
          2   -1    0    0  501    0  0.00000000000E+00 -0.00000000000E+00 -0.15480823124E+03  0.15480823126E+03  0.25500000000E-02 0.  1.
    5000001    1    1    2    0    0 -0.21821236645E+03 -0.15042482404E+02  0.58319113963E+02  0.23910882921E+03  0.77000000000E+02 0.  0.
   -5000001    1    1    2    0    0  0.21821236645E+03  0.15042482404E+02  0.14428518582E+03  0.27311193309E+03  0.77000000000E+02 0.  0.
<mgrwt>
<rscale>  0 0.47044830E+03</rscale>
<asrwt>0</asrwt>
<pdfrwt beam="1">  1        2 0.22115462E-01 0.47044830E+03</pdfrwt>
<pdfrwt beam="2">  1       -2 0.51058933E-01 0.47044830E+03</pdfrwt>
<totfact> 0.91802874E+02</totfact>
</mgrwt>
</event>
<event>
 4    1  0.1305170E-003  0.1942396E+03  0.7818608E-02  0.1154692E+00
         -2   -1    0    0    0  501 -0.00000000000E+00  0.00000000000E+00  0.11890356626E+02  0.11890356900E+02  0.25500000000E-02 0. -1.
          2   -1    0    0  501    0  0.00000000000E+00 -0.00000000000E+00 -0.79326918618E+03  0.79326918619E+03  0.25500000000E-02 0.  1.
    5000001    1    1    2    0    0  0.45870086383E+02 -0.25992306353E+02 -0.27918549407E+03  0.29436916434E+03  0.77000000000E+02 0.  0.
   -5000001    1    1    2    0    0 -0.45870086383E+02  0.25992306353E+02 -0.50219333548E+03  0.51079037874E+03  0.77000000000E+02 0.  0.
<mgrwt>
<rscale>  0 0.19423958E+03</rscale>
<asrwt>0</asrwt>
<pdfrwt beam="1">  1        2 0.11332414E+00 0.19423958E+03</pdfrwt>
<pdfrwt beam="2">  1       -2 0.16986229E-02 0.19423958E+03</pdfrwt>
<totfact> 0.37519628E+04</totfact>
</mgrwt>
</event>
<event>
 4    1  0.1305170E-003  0.2895155E+03  0.7818608E-02  0.1090602E+00
         -2   -1    0    0    0  501 -0.00000000000E+00  0.00000000000E+00  0.12558163279E+03  0.12558163282E+03  0.25500000000E-02 0. -1.
          2   -1    0    0  501    0  0.00000000000E+00 -0.00000000000E+00 -0.16686204197E+03  0.16686204199E+03  0.25500000000E-02 0.  1.
    5000001    1    1    2    0    0 -0.81504103423E+02 -0.87152348546E+02  0.77034751219E+01  0.14222093468E+03  0.77000000000E+02 0.  0.
   -5000001    1    1    2    0    0  0.81504103423E+02  0.87152348546E+02 -0.48983884302E+02  0.15022274013E+03  0.77000000000E+02 0.  0.
<mgrwt>
<rscale>  0 0.28951551E+03</rscale>
<asrwt>0</asrwt>
<pdfrwt beam="1">  1        2 0.23837434E-01 0.28951551E+03</pdfrwt>
<pdfrwt beam="2">  1       -2 0.17940233E-01 0.28951551E+03</pdfrwt>
<totfact> 0.57217209E+03</totfact>
</mgrwt>
</event>
<event>
 4    1  0.1305170E-003  0.3621792E+03  0.7818608E-02  0.1057724E+00
         -2   -1    0    0    0  501 -0.00000000000E+00  0.00000000000E+00  0.17371196986E+03  0.17371196988E+03  0.25500000000E-02 0. -1.
          2   -1    0    0  501    0  0.00000000000E+00 -0.00000000000E+00 -0.18878055478E+03  0.18878055479E+03  0.25500000000E-02 0.  1.
    5000001    1    1    2    0    0 -0.31446557999E+02 -0.13673054119E+03 -0.92344340779E+02  0.18477176239E+03  0.77000000000E+02 0.  0.
   -5000001    1    1    2    0    0  0.31446557999E+02  0.13673054119E+03  0.77275755866E+02  0.17772076229E+03  0.77000000000E+02 0.  0.
<mgrwt>
<rscale>  0 0.36217919E+03</rscale>
<asrwt>0</asrwt>
<pdfrwt beam="1">  1        2 0.26968651E-01 0.36217919E+03</pdfrwt>
<pdfrwt beam="2">  1       -2 0.24815996E-01 0.36217919E+03</pdfrwt>
<totfact> 0.28597569E+03</totfact>
</mgrwt>
</event>
<event>
 4    1  0.1305170E-003  0.1789282E+03  0.7818608E-02  0.1168844E+00
         -2   -1    0    0    0  501 -0.00000000000E+00  0.00000000000E+00  0.39729469187E+01  0.39729477370E+01  0.25500000000E-02 0. -1.
          2   -1    0    0  501    0  0.00000000000E+00 -0.00000000000E+00 -0.20145802686E+04  0.20145802686E+04  0.25500000000E-02 0.  1.
    5000001    1    1    2    0    0 -0.37000184031E+02 -0.26125051832E+02 -0.10597464252E+04  0.10635050623E+04  0.77000000000E+02 0.  0.
   -5000001    1    1    2    0    0  0.37000184031E+02  0.26125051832E+02 -0.95086089652E+03  0.95504815401E+03  0.77000000000E+02 0.  0.
<mgrwt>
<rscale>  0 0.17892816E+03</rscale>
<asrwt>0</asrwt>
<pdfrwt beam="1">  1        2 0.28779653E+00 0.17892816E+03</pdfrwt>
<pdfrwt beam="2">  1       -2 0.56756519E-03 0.17892816E+03</pdfrwt>
<totfact> 0.41059581E+04</totfact>
</mgrwt>
</event>
<event>
 4    1  0.1305170E-003  0.3212388E+03  0.7818608E-02  0.1075081E+00
          2   -1    0    0  501    0  0.00000000000E+00  0.00000000000E+00  0.64542562001E+03  0.64542562002E+03  0.25500000000E-02 0.  1.
         -2   -1    0    0    0  501 -0.00000000000E+00 -0.00000000000E+00 -0.39971437982E+02  0.39971438063E+02  0.25500000000E-02 0. -1.
    5000001    1    1    2    0    0  0.83670298112E+01  0.10100682055E+03  0.93707668482E+02  0.15805857180E+03  0.77000000000E+02 0.  0.
   -5000001    1    1    2    0    0 -0.83670298112E+01 -0.10100682055E+03  0.51174651355E+03  0.52733848628E+03  0.77000000000E+02 0.  0.
<mgrwt>
<rscale>  0 0.32123879E+03</rscale>
<asrwt>0</asrwt>
<pdfrwt beam="1">  1        2 0.92203652E-01 0.32123879E+03</pdfrwt>
<pdfrwt beam="2">  1       -2 0.57102059E-02 0.32123879E+03</pdfrwt>
<totfact> 0.80882802E+03</totfact>
</mgrwt>
</event>
<event>
 4    1  0.1305170E-003  0.2181853E+03  0.7818608E-02  0.1135243E+00
          2   -1    0    0  501    0  0.00000000000E+00  0.00000000000E+00  0.25247170728E+02  0.25247170857E+02  0.25500000000E-02 0.  1.
         -2   -1    0    0    0  501 -0.00000000000E+00 -0.00000000000E+00 -0.47138772554E+03  0.47138772555E+03  0.25500000000E-02 0. -1.
    5000001    1    1    2    0    0  0.30000291354E+02  0.60850253873E+02 -0.30730333011E+03  0.32398627683E+03  0.77000000000E+02 0.  0.
   -5000001    1    1    2    0    0 -0.30000291354E+02 -0.60850253873E+02 -0.13883722471E+03  0.17264861958E+03  0.77000000000E+02 0.  0.
<mgrwt>
<rscale>  0 0.21818530E+03</rscale>
<asrwt>0</asrwt>
<pdfrwt beam="1">  1        2 0.36067390E-02 0.21818530E+03</pdfrwt>
<pdfrwt beam="2">  1       -2 0.67341098E-01 0.21818530E+03</pdfrwt>
<totfact> 0.49640089E+03</totfact>
</mgrwt>
</event>
<event>
 4    1  0.1305170E-003  0.1872993E+03  0.7818608E-02  0.1160920E+00
          2   -1    0    0  501    0  0.00000000000E+00  0.00000000000E+00  0.12625285405E+03  0.12625285408E+03  0.25500000000E-02 0.  1.
         -2   -1    0    0    0  501 -0.00000000000E+00 -0.00000000000E+00 -0.69465823038E+02  0.69465823084E+02  0.25500000000E-02 0. -1.
    5000001    1    1    2    0    0 -0.10525509970E+02 -0.52238189948E+02  0.29733164076E+02  0.98248032526E+02  0.77000000000E+02 0.  0.
   -5000001    1    1    2    0    0  0.10525509970E+02  0.52238189948E+02  0.27053866936E+02  0.97470644634E+02  0.77000000000E+02 0.  0.
<mgrwt>
<rscale>  0 0.18729932E+03</rscale>
<asrwt>0</asrwt>
<pdfrwt beam="1">  1        2 0.18036122E-01 0.18729932E+03</pdfrwt>
<pdfrwt beam="2">  1       -2 0.99236891E-02 0.18729932E+03</pdfrwt>
<totfact> 0.20115744E+04</totfact>
</mgrwt>
</event>
<event>
 4    1  0.1305170E-003  0.1701733E+03  0.7818608E-02  0.1177667E+00
          2   -1    0    0  501    0  0.00000000000E+00  0.00000000000E+00  0.18338503263E+04  0.18338503263E+04  0.25500000000E-02 0.  1.
         -2   -1    0    0    0  501 -0.00000000000E+00 -0.00000000000E+00 -0.39478343514E+01  0.39478351749E+01  0.25500000000E-02 0. -1.
    5000001    1    1    2    0    0 -0.28508495814E+02 -0.21412625768E+02  0.84707426661E+03  0.85131371892E+03  0.77000000000E+02 0.  0.
   -5000001    1    1    2    0    0  0.28508495814E+02  0.21412625768E+02  0.98282822536E+03  0.98648444257E+03  0.77000000000E+02 0.  0.
<mgrwt>
<rscale>  0 0.17017330E+03</rscale>
<asrwt>0</asrwt>
<pdfrwt beam="1">  1        2 0.26197800E+00 0.17017330E+03</pdfrwt>
<pdfrwt beam="2">  1       -2 0.56397772E-03 0.17017330E+03</pdfrwt>
<totfact> 0.50417512E+04</totfact>
</mgrwt>
</event>
<event>
 4    1  0.1305170E-003  0.4930793E+03  0.7818608E-02  0.1015601E+00
         -2   -1    0    0    0  501 -0.00000000000E+00  0.00000000000E+00  0.70511220247E+03  0.70511220248E+03  0.25500000000E-02 0. -1.
          2   -1    0    0  501    0  0.00000000000E+00 -0.00000000000E+00 -0.86201615039E+02  0.86201615077E+02  0.25500000000E-02 0.  1.
    5000001    1    1    2    0    0  0.11801214034E+03 -0.17338487706E+03  0.14218477040E+03  0.26482954857E+03  0.77000000000E+02 0.  0.
   -5000001    1    1    2    0    0 -0.11801214034E+03  0.17338487706E+03  0.47672581704E+03  0.52648426899E+03  0.77000000000E+02 0.  0.
<mgrwt>
<rscale>  0 0.49307935E+03</rscale>
<asrwt>0</asrwt>
<pdfrwt beam="1">  1        2 0.12314517E-01 0.49307935E+03</pdfrwt>
<pdfrwt beam="2">  1       -2 0.10073031E+00 0.49307935E+03</pdfrwt>
<totfact> 0.41935483E+02</totfact>
</mgrwt>
</event>
<event>
 4    1  0.1305170E-003  0.2072181E+03  0.7818608E-02  0.1143788E+00
          2   -1    0    0  501    0  0.00000000000E+00  0.00000000000E+00  0.20370651625E+04  0.20370651625E+04  0.25500000000E-02 0.  1.
         -2   -1    0    0    0  501 -0.00000000000E+00 -0.00000000000E+00 -0.52697560381E+01  0.52697566550E+01  0.25500000000E-02 0. -1.
    5000001    1    1    2    0    0 -0.23285291672E+02  0.36850918352E+02  0.15471738247E+04  0.15497019194E+04  0.77000000000E+02 0.  0.
   -5000001    1    1    2    0    0  0.23285291672E+02 -0.36850918352E+02  0.48462158175E+03  0.49263299980E+03  0.77000000000E+02 0.  0.
<mgrwt>
<rscale>  0 0.20721812E+03</rscale>
<asrwt>0</asrwt>
<pdfrwt beam="1">  1        2 0.29100938E+00 0.20721812E+03</pdfrwt>
<pdfrwt beam="2">  1       -2 0.75282216E-03 0.20721812E+03</pdfrwt>
<totfact> 0.26933125E+04</totfact>
</mgrwt>
</event>
<event>
 4    1  0.1305170E-003  0.3422449E+03  0.7818608E-02  0.1065844E+00
         -2   -1    0    0    0  501 -0.00000000000E+00  0.00000000000E+00  0.19443329072E+02  0.19443329239E+02  0.25500000000E-02 0. -1.
          2   -1    0    0  501    0  0.00000000000E+00 -0.00000000000E+00 -0.15060638232E+04  0.15060638232E+04  0.25500000000E-02 0.  1.
    5000001    1    1    2    0    0 -0.45481149572E+02 -0.13937557553E+03 -0.55108457904E+03  0.57542792709E+03  0.77000000000E+02 0.  0.
   -5000001    1    1    2    0    0  0.45481149572E+02  0.13937557553E+03 -0.93553591506E+03  0.95007922533E+03  0.77000000000E+02 0.  0.
<mgrwt>
<rscale>  0 0.34224491E+03</rscale>
<asrwt>0</asrwt>
<pdfrwt beam="1">  1        2 0.21515190E+00 0.34224491E+03</pdfrwt>
<pdfrwt beam="2">  1       -2 0.27776194E-02 0.34224491E+03</pdfrwt>
<totfact> 0.73880635E+03</totfact>
</mgrwt>
</event>
<event>
 4    1  0.1305170E-003  0.4067242E+03  0.7818608E-02  0.1041476E+00
         -2   -1    0    0    0  501 -0.00000000000E+00  0.00000000000E+00  0.50251105612E+02  0.50251105677E+02  0.25500000000E-02 0. -1.
          2   -1    0    0  501    0  0.00000000000E+00 -0.00000000000E+00 -0.82298956055E+03  0.82298956056E+03  0.25500000000E-02 0.  1.
    5000001    1    1    2    0    0  0.35179457146E+02  0.97199280140E+02 -0.72408394634E+03  0.73546710030E+03  0.77000000000E+02 0.  0.
   -5000001    1    1    2    0    0 -0.35179457146E+02 -0.97199280140E+02 -0.48654508599E+02  0.13777356594E+03  0.77000000000E+02 0.  0.
<mgrwt>
<rscale>  0 0.40672416E+03</rscale>
<asrwt>0</asrwt>
<pdfrwt beam="1">  1        2 0.11756993E+00 0.40672416E+03</pdfrwt>
<pdfrwt beam="2">  1       -2 0.71787299E-02 0.40672416E+03</pdfrwt>
<totfact> 0.42416273E+03</totfact>
</mgrwt>
</event>
<event>
 4    1  0.1305170E-003  0.3050769E+03  0.7818608E-02  0.1082730E+00
         -2   -1    0    0    0  501 -0.00000000000E+00  0.00000000000E+00  0.24398171445E+03  0.24398171447E+03  0.25500000000E-02 0. -1.
          2   -1    0    0  501    0  0.00000000000E+00 -0.00000000000E+00 -0.95367739026E+02  0.95367739060E+02  0.25500000000E-02 0.  1.
    5000001    1    1    2    0    0  0.10682382335E+03 -0.38000333780E+02  0.14878921463E+03  0.20229331426E+03  0.77000000000E+02 0.  0.
   -5000001    1    1    2    0    0 -0.10682382335E+03  0.38000333780E+02 -0.17523920512E+00  0.13705613927E+03  0.77000000000E+02 0.  0.
<mgrwt>
<rscale>  0 0.30507694E+03</rscale>
<asrwt>0</asrwt>
<pdfrwt beam="1">  1        2 0.13623963E-01 0.30507694E+03</pdfrwt>
<pdfrwt beam="2">  1       -2 0.34854531E-01 0.30507694E+03</pdfrwt>
<totfact> 0.33871284E+03</totfact>
</mgrwt>
</event>
<event>
 4    1  0.1305170E-003  0.1710316E+03  0.7818608E-02  0.1176776E+00
         -2   -1    0    0    0  501 -0.00000000000E+00  0.00000000000E+00  0.70379411238E+02  0.70379411284E+02  0.25500000000E-02 0. -1.
          2   -1    0    0  501    0  0.00000000000E+00 -0.00000000000E+00 -0.10390755968E+03  0.10390755971E+03  0.25500000000E-02 0.  1.
    5000001    1    1    2    0    0  0.35837841132E+02 -0.75778579116E+01 -0.23382154126E+02  0.88416626938E+02  0.77000000000E+02 0.  0.
   -5000001    1    1    2    0    0 -0.35837841132E+02  0.75778579116E+01 -0.10145994313E+02  0.85870344055E+02  0.77000000000E+02 0.  0.
<mgrwt>
<rscale>  0 0.17103161E+03</rscale>
<asrwt>0</asrwt>
<pdfrwt beam="1">  1        2 0.14843937E-01 0.17103161E+03</pdfrwt>
<pdfrwt beam="2">  1       -2 0.10054202E-01 0.17103161E+03</pdfrwt>
<totfact> 0.24528428E+04</totfact>
</mgrwt>
</event>
<event>
 4    1  0.1305170E-003  0.3895176E+03  0.7818608E-02  0.1047471E+00
          2   -1    0    0  501    0  0.00000000000E+00  0.00000000000E+00  0.35370048723E+04  0.35370048723E+04  0.25500000000E-02 0.  1.
         -2   -1    0    0    0  501 -0.00000000000E+00 -0.00000000000E+00 -0.10724040027E+02  0.10724040330E+02  0.25500000000E-02 0. -1.
    5000001    1    1    2    0    0  0.13626251954E+02  0.17444260301E+03  0.21022331285E+04  0.21109071564E+04  0.77000000000E+02 0.  0.
   -5000001    1    1    2    0    0 -0.13626251954E+02 -0.17444260301E+03  0.14240477038E+04  0.14368217563E+04  0.77000000000E+02 0.  0.
<mgrwt>
<rscale>  0 0.38951756E+03</rscale>
<asrwt>0</asrwt>
<pdfrwt beam="1">  1        2 0.50528634E+00 0.38951756E+03</pdfrwt>
<pdfrwt beam="2">  1       -2 0.15320059E-02 0.38951756E+03</pdfrwt>
<totfact> 0.15726081E+03</totfact>
</mgrwt>
</event>
<event>
 4    1  0.1305170E-003  0.1949617E+03  0.7818608E-02  0.1154061E+00
         -2   -1    0    0    0  501 -0.00000000000E+00  0.00000000000E+00  0.72239460751E+01  0.72239465251E+01  0.25500000000E-02 0.  1.
          2   -1    0    0  501    0  0.00000000000E+00 -0.00000000000E+00 -0.13154187004E+04  0.13154187004E+04  0.25500000000E-02 0. -1.
    5000001    1    1    2    0    0 -0.12012616501E+02  0.50353542604E+02 -0.45128386622E+03  0.46072324678E+03  0.77000000000E+02 0.  0.
   -5000001    1    1    2    0    0  0.12012616501E+02 -0.50353542604E+02 -0.85691088813E+03  0.86191940018E+03  0.77000000000E+02 0.  0.
<mgrwt>
<rscale>  0 0.19496168E+03</rscale>
<asrwt>0</asrwt>
<pdfrwt beam="1">  1        2 0.18791680E+00 0.19496168E+03</pdfrwt>
<pdfrwt beam="2">  1       -2 0.10319932E-02 0.19496168E+03</pdfrwt>
<totfact> 0.38626672E+04</totfact>
</mgrwt>
</event>
<event>
 4    1  0.1305170E-003  0.2621457E+03  0.7818608E-02  0.1105861E+00
         -2   -1    0    0    0  501 -0.00000000000E+00  0.00000000000E+00  0.91998354622E+01  0.91998358156E+01  0.25500000000E-02 0. -1.
          2   -1    0    0  501    0  0.00000000000E+00 -0.00000000000E+00 -0.18674340826E+04  0.18674340826E+04  0.25500000000E-02 0.  1.
    5000001    1    1    2    0    0  0.22617016344E+02  0.10348077825E+03 -0.88907564822E+03  0.89866807507E+03  0.77000000000E+02 0.  0.
   -5000001    1    1    2    0    0 -0.22617016344E+02 -0.10348077825E+03 -0.96915859896E+03  0.97796584339E+03  0.77000000000E+02 0.  0.
<mgrwt>
<rscale>  0 0.26214566E+03</rscale>
<asrwt>0</asrwt>
<pdfrwt beam="1">  1        2 0.26677606E+00 0.26214566E+03</pdfrwt>
<pdfrwt beam="2">  1       -2 0.13142634E-02 0.26214566E+03</pdfrwt>
<totfact> 0.14656615E+04</totfact>
</mgrwt>
</event>
<event>
 4    1  0.1305170E-003  0.3138447E+03  0.7818608E-02  0.1078518E+00
         -2   -1    0    0    0  501 -0.00000000000E+00  0.00000000000E+00  0.61024783467E+02  0.61024783521E+02  0.25500000000E-02 0. -1.
          2   -1    0    0  501    0  0.00000000000E+00 -0.00000000000E+00 -0.40351835277E+03  0.40351835278E+03  0.25500000000E-02 0.  1.
    5000001    1    1    2    0    0 -0.81440739056E+02 -0.80116230969E+02 -0.28245087885E+03  0.31425897506E+03  0.77000000000E+02 0.  0.
   -5000001    1    1    2    0    0  0.81440739056E+02  0.80116230969E+02 -0.60042690455E+02  0.15028416124E+03  0.77000000000E+02 0.  0.
<mgrwt>
<rscale>  0 0.31384468E+03</rscale>
<asrwt>0</asrwt>
<pdfrwt beam="1">  1        2 0.57645477E-01 0.31384468E+03</pdfrwt>
<pdfrwt beam="2">  1       -2 0.87178265E-02 0.31384468E+03</pdfrwt>
<totfact> 0.70791826E+03</totfact>
</mgrwt>
</event>
<event>
 4    1  0.1305170E-003  0.3026900E+03  0.7818608E-02  0.1083904E+00
         -2   -1    0    0    0  501 -0.00000000000E+00  0.00000000000E+00  0.50016257597E+02  0.50016257662E+02  0.25500000000E-02 0. -1.
          2   -1    0    0  501    0  0.00000000000E+00 -0.00000000000E+00 -0.45795722008E+03  0.45795722009E+03  0.25500000000E-02 0.  1.
    5000001    1    1    2    0    0 -0.10745210258E+03 -0.72635408661E+02 -0.18311423939E+03  0.23723760580E+03  0.77000000000E+02 0.  0.
   -5000001    1    1    2    0    0  0.10745210258E+03  0.72635408661E+02 -0.22482672309E+03  0.27073587194E+03  0.77000000000E+02 0.  0.
<mgrwt>
<rscale>  0 0.30268998E+03</rscale>
<asrwt>0</asrwt>
<pdfrwt beam="1">  1        2 0.65422458E-01 0.30268998E+03</pdfrwt>
<pdfrwt beam="2">  1       -2 0.71451799E-02 0.30268998E+03</pdfrwt>
<totfact> 0.84081603E+03</totfact>
</mgrwt>
</event>
<event>
 4    1  0.1305170E-003  0.2629283E+03  0.7818608E-02  0.1105396E+00
          2   -1    0    0  501    0  0.00000000000E+00  0.00000000000E+00  0.13554692781E+04  0.13554692781E+04  0.25500000000E-02 0.  1.
         -2   -1    0    0    0  501 -0.00000000000E+00 -0.00000000000E+00 -0.12750439201E+02  0.12750439456E+02  0.25500000000E-02 0. -1.
    5000001    1    1    2    0    0  0.90536111295E+01 -0.76682342313E+02  0.28925640732E+03  0.30912848247E+03  0.77000000000E+02 0.  0.
   -5000001    1    1    2    0    0 -0.90536111295E+01  0.76682342313E+02  0.10534624315E+04  0.10590912350E+04  0.77000000000E+02 0.  0.
<mgrwt>
<rscale>  0 0.26292835E+03</rscale>
<asrwt>0</asrwt>
<pdfrwt beam="1">  1        2 0.19363857E+00 0.26292835E+03</pdfrwt>
<pdfrwt beam="2">  1       -2 0.18214904E-02 0.26292835E+03</pdfrwt>
<totfact> 0.16376581E+04</totfact>
</mgrwt>
</event>
<event>
 4    1  0.1305170E-003  0.2072429E+03  0.7818608E-02  0.1143768E+00
          2   -1    0    0  501    0  0.00000000000E+00  0.00000000000E+00  0.18246852942E+04  0.18246852942E+04  0.25500000000E-02 0.  1.
         -2   -1    0    0    0  501 -0.00000000000E+00 -0.00000000000E+00 -0.58845221997E+01  0.58845227522E+01  0.25500000000E-02 0. -1.
    5000001    1    1    2    0    0 -0.35249441320E+02 -0.11274358664E+02  0.39142621975E+03  0.40064088631E+03  0.77000000000E+02 0.  0.
   -5000001    1    1    2    0    0  0.35249441320E+02  0.11274358664E+02  0.14273745523E+04  0.14299289307E+04  0.77000000000E+02 0.  0.
<mgrwt>
<rscale>  0 0.20724287E+03</rscale>
<asrwt>0</asrwt>
<pdfrwt beam="1">  1        2 0.26066923E+00 0.20724287E+03</pdfrwt>
<pdfrwt beam="2">  1       -2 0.84064639E-03 0.20724287E+03</pdfrwt>
<totfact> 0.29101131E+04</totfact>
</mgrwt>
</event>
<event>
 4    1  0.1305170E-003  0.2657962E+03  0.7818608E-02  0.1103710E+00
          2   -1    0    0  501    0  0.00000000000E+00  0.00000000000E+00  0.20413454897E+04  0.20413454897E+04  0.25500000000E-02 0.  1.
         -2   -1    0    0    0  501 -0.00000000000E+00 -0.00000000000E+00 -0.86520912607E+01  0.86520916365E+01  0.25500000000E-02 0. -1.
    5000001    1    1    2    0    0  0.43226755645E+02 -0.26578371063E+01  0.17820902404E+04  0.17842786333E+04  0.77000000000E+02 0.  0.
   -5000001    1    1    2    0    0 -0.43226755645E+02  0.26578371063E+01  0.25060315808E+03  0.26571894803E+03  0.77000000000E+02 0.  0.
<mgrwt>
<rscale>  0 0.26579622E+03</rscale>
<asrwt>0</asrwt>
<pdfrwt beam="1">  1        2 0.29162081E+00 0.26579622E+03</pdfrwt>
<pdfrwt beam="2">  1       -2 0.12360130E-02 0.26579622E+03</pdfrwt>
<totfact> 0.13192302E+04</totfact>
</mgrwt>
</event>
<event>
 4    1  0.1305170E-003  0.3422701E+03  0.7818608E-02  0.1065833E+00
          2   -1    0    0  501    0  0.00000000000E+00  0.00000000000E+00  0.10706423497E+04  0.10706423497E+04  0.25500000000E-02 0.  1.
         -2   -1    0    0    0  501 -0.00000000000E+00 -0.00000000000E+00 -0.27354792481E+02  0.27354792600E+02  0.25500000000E-02 0. -1.
    5000001    1    1    2    0    0  0.11538772679E+03  0.75473986013E+02  0.73316529458E+03  0.74998066591E+03  0.77000000000E+02 0.  0.
   -5000001    1    1    2    0    0 -0.11538772679E+03 -0.75473986013E+02  0.31012226262E+03  0.34801647638E+03  0.77000000000E+02 0.  0.
<mgrwt>
<rscale>  0 0.34227007E+03</rscale>
<asrwt>0</asrwt>
<pdfrwt beam="1">  1        2 0.15294887E+00 0.34227007E+03</pdfrwt>
<pdfrwt beam="2">  1       -2 0.39078283E-02 0.34227007E+03</pdfrwt>
<totfact> 0.75734091E+03</totfact>
</mgrwt>
</event>
<event>
 4    1  0.1305170E-003  0.2027484E+03  0.7818608E-02  0.1147441E+00
         -2   -1    0    0    0  501 -0.00000000000E+00  0.00000000000E+00  0.76122768626E+01  0.76122772897E+01  0.25500000000E-02 0. -1.
          2   -1    0    0  501    0  0.00000000000E+00 -0.00000000000E+00 -0.13500207082E+04  0.13500207082E+04  0.25500000000E-02 0.  1.
    5000001    1    1    2    0    0  0.39782912420E+02  0.34703810550E+02 -0.40666857712E+03  0.41724736812E+03  0.77000000000E+02 0.  0.
   -5000001    1    1    2    0    0 -0.39782912420E+02 -0.34703810550E+02 -0.93573985425E+03  0.94038561741E+03  0.77000000000E+02 0.  0.
<mgrwt>
<rscale>  0 0.20274843E+03</rscale>
<asrwt>0</asrwt>
<pdfrwt beam="1">  1        2 0.19285995E+00 0.20274843E+03</pdfrwt>
<pdfrwt beam="2">  1       -2 0.10874690E-02 0.20274843E+03</pdfrwt>
<totfact> 0.34461396E+04</totfact>
</mgrwt>
</event>
<event>
 4    1  0.1305170E-003  0.3313499E+03  0.7818608E-02  0.1070541E+00
         -2   -1    0    0    0  501 -0.00000000000E+00  0.00000000000E+00  0.84409519648E+01  0.84409523500E+01  0.25500000000E-02 0. -1.
          2   -1    0    0  501    0  0.00000000000E+00 -0.00000000000E+00 -0.32517888723E+04  0.32517888723E+04  0.25500000000E-02 0.  1.
    5000001    1    1    2    0    0  0.71663578336E+02  0.64318114988E+02 -0.27105312811E+04  0.27133339850E+04  0.77000000000E+02 0.  0.
   -5000001    1    1    2    0    0 -0.71663578336E+02 -0.64318114988E+02 -0.53281663931E+03  0.54689583972E+03  0.77000000000E+02 0.  0.
<mgrwt>
<rscale>  0 0.33134993E+03</rscale>
<asrwt>0</asrwt>
<pdfrwt beam="1">  1        2 0.46454047E+00 0.33134993E+03</pdfrwt>
<pdfrwt beam="2">  1       -2 0.12058524E-02 0.33134993E+03</pdfrwt>
<totfact> 0.32773913E+03</totfact>
</mgrwt>
</event>
<event>
 4    1  0.1305170E-003  0.1668501E+03  0.7818608E-02  0.1181173E+00
          2   -1    0    0  501    0  0.00000000000E+00  0.00000000000E+00  0.11175476093E+04  0.11175476093E+04  0.25500000000E-02 0.  1.
         -2   -1    0    0    0  501 -0.00000000000E+00 -0.00000000000E+00 -0.62276902724E+01  0.62276907945E+01  0.25500000000E-02 0. -1.
    5000001    1    1    2    0    0  0.31194796587E+02 -0.73861009124E+01  0.56746268319E+03  0.57355955805E+03  0.77000000000E+02 0.  0.
   -5000001    1    1    2    0    0 -0.31194796587E+02  0.73861009124E+01  0.54385723586E+03  0.55021574206E+03  0.77000000000E+02 0.  0.
<mgrwt>
<rscale>  0 0.16685012E+03</rscale>
<asrwt>0</asrwt>
<pdfrwt beam="1">  1        2 0.15964977E+00 0.16685012E+03</pdfrwt>
<pdfrwt beam="2">  1       -2 0.88966946E-03 0.16685012E+03</pdfrwt>
<totfact> 0.60188587E+04</totfact>
</mgrwt>
</event>
<event>
 4    1  0.1305170E-003  0.2350315E+03  0.7818608E-02  0.1123148E+00
         -2   -1    0    0    0  501 -0.00000000000E+00  0.00000000000E+00  0.10530551144E+02  0.10530551452E+02  0.25500000000E-02 0. -1.
          2   -1    0    0  501    0  0.00000000000E+00 -0.00000000000E+00 -0.13114181634E+04  0.13114181634E+04  0.25500000000E-02 0.  1.
    5000001    1    1    2    0    0 -0.19947300861E+02  0.83276147403E+02 -0.51875887742E+03  0.53138741464E+03  0.77000000000E+02 0.  0.
   -5000001    1    1    2    0    0  0.19947300861E+02 -0.83276147403E+02 -0.78212873487E+03  0.79056130025E+03  0.77000000000E+02 0.  0.
<mgrwt>
<rscale>  0 0.23503154E+03</rscale>
<asrwt>0</asrwt>
<pdfrwt beam="1">  1        2 0.18734535E+00 0.23503154E+03</pdfrwt>
<pdfrwt beam="2">  1       -2 0.15043653E-02 0.23503154E+03</pdfrwt>
<totfact> 0.22726140E+04</totfact>
</mgrwt>
</event>
<event>
 4    1  0.1305170E-003  0.3074580E+03  0.7818608E-02  0.1081571E+00
         -2   -1    0    0    0  501 -0.00000000000E+00  0.00000000000E+00  0.24733623304E+02  0.24733623435E+02  0.25500000000E-02 0. -1.
          2   -1    0    0  501    0  0.00000000000E+00 -0.00000000000E+00 -0.95548527048E+03  0.95548527048E+03  0.25500000000E-02 0.  1.
    5000001    1    1    2    0    0 -0.28246030210E+02 -0.12303818491E+03 -0.59940585790E+03  0.61737558719E+03  0.77000000000E+02 0.  0.
   -5000001    1    1    2    0    0  0.28246030210E+02  0.12303818491E+03 -0.33134578927E+03  0.36284330673E+03  0.77000000000E+02 0.  0.
<mgrwt>
<rscale>  0 0.30745805E+03</rscale>
<asrwt>0</asrwt>
<pdfrwt beam="1">  1        2 0.13649787E+00 0.30745805E+03</pdfrwt>
<pdfrwt beam="2">  1       -2 0.35333754E-02 0.30745805E+03</pdfrwt>
<totfact> 0.10281127E+04</totfact>
</mgrwt>
</event>
<event>
 4    1  0.1305170E-003  0.5891357E+03  0.7818608E-02  0.9928206E-01
         -2   -1    0    0    0  501 -0.00000000000E+00  0.00000000000E+00  0.24854564785E+03  0.24854564786E+03  0.25500000000E-02 0. -1.
          2   -1    0    0  501    0  0.00000000000E+00 -0.00000000000E+00 -0.34911181770E+03  0.34911181771E+03  0.25500000000E-02 0.  1.
    5000001    1    1    2    0    0  0.73061477735E+02  0.26731688950E+03  0.14236591082E+02  0.28797218523E+03  0.77000000000E+02 0.  0.
   -5000001    1    1    2    0    0 -0.73061477735E+02 -0.26731688950E+03 -0.11480276094E+03  0.30968528034E+03  0.77000000000E+02 0.  0.
<mgrwt>
<rscale>  0 0.58913572E+03</rscale>
<asrwt>0</asrwt>
<pdfrwt beam="1">  1        2 0.49873117E-01 0.58913572E+03</pdfrwt>
<pdfrwt beam="2">  1       -2 0.35506521E-01 0.58913572E+03</pdfrwt>
<totfact> 0.75399502E+02</totfact>
</mgrwt>
</event>
<event>
 4    1  0.1305170E-003  0.2668700E+03  0.7818608E-02  0.1103084E+00
         -2   -1    0    0    0  501 -0.00000000000E+00  0.00000000000E+00  0.22362772565E+03  0.22362772567E+03  0.25500000000E-02 0. -1.
          2   -1    0    0  501    0  0.00000000000E+00 -0.00000000000E+00 -0.79618504219E+02  0.79618504259E+02  0.25500000000E-02 0.  1.
    5000001    1    1    2    0    0 -0.85331128437E+02 -0.65790344335E+02  0.53467336356E+02  0.14281991088E+03  0.77000000000E+02 0.  0.
   -5000001    1    1    2    0    0  0.85331128437E+02  0.65790344335E+02  0.90541885080E+02  0.16042631904E+03  0.77000000000E+02 0.  0.
<mgrwt>
<rscale>  0 0.26687004E+03</rscale>
<asrwt>0</asrwt>
<pdfrwt beam="1">  1        2 0.11374072E-01 0.26687004E+03</pdfrwt>
<pdfrwt beam="2">  1       -2 0.31946818E-01 0.26687004E+03</pdfrwt>
<totfact> 0.49324282E+03</totfact>
</mgrwt>
</event>
<event>
 4    1  0.1305170E-003  0.1641267E+03  0.7818608E-02  0.1184115E+00
          2   -1    0    0  501    0  0.00000000000E+00  0.00000000000E+00  0.20372512179E+03  0.20372512181E+03  0.25500000000E-02 0.  1.
         -2   -1    0    0    0  501 -0.00000000000E+00 -0.00000000000E+00 -0.33056275673E+02  0.33056275771E+02  0.25500000000E-02 0. -1.
    5000001    1    1    2    0    0  0.17742331745E+02 -0.15610839493E+02  0.10800347767E+03  0.13473024840E+03  0.77000000000E+02 0.  0.
   -5000001    1    1    2    0    0 -0.17742331745E+02  0.15610839493E+02  0.62665368444E+02  0.10205114917E+03  0.77000000000E+02 0.  0.
<mgrwt>
<rscale>  0 0.16412670E+03</rscale>
<asrwt>0</asrwt>
<pdfrwt beam="1">  1        2 0.29103588E-01 0.16412670E+03</pdfrwt>
<pdfrwt beam="2">  1       -2 0.47223252E-02 0.16412670E+03</pdfrwt>
<totfact> 0.36422233E+04</totfact>
</mgrwt>
</event>
<event>
 4    1  0.1305170E-003  0.1660434E+03  0.7818608E-02  0.1182038E+00
          2   -1    0    0  501    0  0.00000000000E+00  0.00000000000E+00  0.61351827971E+03  0.61351827971E+03  0.25500000000E-02 0.  1.
         -2   -1    0    0    0  501 -0.00000000000E+00 -0.00000000000E+00 -0.11234557208E+02  0.11234557497E+02  0.25500000000E-02 0. -1.
    5000001    1    1    2    0    0 -0.12668313569E+02  0.16670500367E+02  0.38737116517E+03  0.39550450232E+03  0.77000000000E+02 0.  0.
   -5000001    1    1    2    0    0  0.12668313569E+02 -0.16670500367E+02  0.21491255733E+03  0.22924833489E+03  0.77000000000E+02 0.  0.
<mgrwt>
<rscale>  0 0.16604344E+03</rscale>
<asrwt>0</asrwt>
<pdfrwt beam="1">  1        2 0.87645474E-01 0.16604344E+03</pdfrwt>
<pdfrwt beam="2">  1       -2 0.16049367E-02 0.16604344E+03</pdfrwt>
<totfact> 0.54304321E+04</totfact>
</mgrwt>
</event>
<event>
 4    1  0.1305170E-003  0.4591540E+03  0.7818608E-02  0.1025027E+00
          2   -1    0    0  501    0  0.00000000000E+00  0.00000000000E+00  0.40728545272E+03  0.40728545273E+03  0.25500000000E-02 0.  1.
         -2   -1    0    0    0  501 -0.00000000000E+00 -0.00000000000E+00 -0.12940702814E+03  0.12940702817E+03  0.25500000000E-02 0. -1.
    5000001    1    1    2    0    0  0.68227500845E+02  0.20513449123E+03  0.13141393458E+03  0.26444994529E+03  0.77000000000E+02 0.  0.
   -5000001    1    1    2    0    0 -0.68227500845E+02 -0.20513449123E+03  0.14646449000E+03  0.27224253561E+03  0.77000000000E+02 0.  0.
<mgrwt>
<rscale>  0 0.45915400E+03</rscale>
<asrwt>0</asrwt>
<pdfrwt beam="1">  1        2 0.58183637E-01 0.45915400E+03</pdfrwt>
<pdfrwt beam="2">  1       -2 0.18486718E-01 0.45915400E+03</pdfrwt>
<totfact> 0.20589587E+03</totfact>
</mgrwt>
</event>
<event>
 4    1  0.1305170E-003  0.2971391E+03  0.7818608E-02  0.1086680E+00
          2   -1    0    0  501    0  0.00000000000E+00  0.00000000000E+00  0.78982485933E+03  0.78982485934E+03  0.25500000000E-02 0.  1.
         -2   -1    0    0    0  501 -0.00000000000E+00 -0.00000000000E+00 -0.27946592582E+02  0.27946592698E+02  0.25500000000E-02 0. -1.
    5000001    1    1    2    0    0  0.96506097483E+02  0.41890599817E+02  0.18486578400E+03  0.22621363199E+03  0.77000000000E+02 0.  0.
   -5000001    1    1    2    0    0 -0.96506097483E+02 -0.41890599817E+02  0.57701248275E+03  0.59155782005E+03  0.77000000000E+02 0.  0.
<mgrwt>
<rscale>  0 0.29713912E+03</rscale>
<asrwt>0</asrwt>
<pdfrwt beam="1">  1        2 0.11283212E+00 0.29713912E+03</pdfrwt>
<pdfrwt beam="2">  1       -2 0.39923706E-02 0.29713912E+03</pdfrwt>
<totfact> 0.10912620E+04</totfact>
</mgrwt>
</event>
<event>
 4    1  0.1305170E-003  0.2509725E+03  0.7818608E-02  0.1112692E+00
         -2   -1    0    0    0  501 -0.00000000000E+00  0.00000000000E+00  0.16860658362E+03  0.16860658364E+03  0.25500000000E-02 0. -1.
          2   -1    0    0  501    0  0.00000000000E+00 -0.00000000000E+00 -0.93393707743E+02  0.93393707778E+02  0.25500000000E-02 0.  1.
    5000001    1    1    2    0    0  0.81576702743E+02 -0.33033624480E+02  0.85123678879E+02  0.14464100208E+03  0.77000000000E+02 0.  0.
   -5000001    1    1    2    0    0 -0.81576702743E+02  0.33033624480E+02 -0.99108030052E+01  0.11735928933E+03  0.77000000000E+02 0.  0.
<mgrwt>
<rscale>  0 0.25097246E+03</rscale>
<asrwt>0</asrwt>
<pdfrwt beam="1">  1        2 0.13341958E-01 0.25097246E+03</pdfrwt>
<pdfrwt beam="2">  1       -2 0.24086654E-01 0.25097246E+03</pdfrwt>
<totfact> 0.67254714E+03</totfact>
</mgrwt>
</event>
<event>
 4    1  0.1305170E-003  0.3607602E+03  0.7818608E-02  0.1058283E+00
         -2   -1    0    0    0  501 -0.00000000000E+00  0.00000000000E+00  0.92570500030E+02  0.92570500065E+02  0.25500000000E-02 0. -1.
          2   -1    0    0  501    0  0.00000000000E+00 -0.00000000000E+00 -0.35148327269E+03  0.35148327270E+03  0.25500000000E-02 0.  1.
    5000001    1    1    2    0    0 -0.75625332493E+02 -0.40352925773E+02 -0.30028080589E+03  0.32162884186E+03  0.77000000000E+02 0.  0.
   -5000001    1    1    2    0    0  0.75625332493E+02  0.40352925773E+02  0.41368033228E+02  0.12242493090E+03  0.77000000000E+02 0.  0.
<mgrwt>
<rscale>  0 0.36076021E+03</rscale>
<asrwt>0</asrwt>
<pdfrwt beam="1">  1        2 0.50211895E-01 0.36076021E+03</pdfrwt>
<pdfrwt beam="2">  1       -2 0.13224357E-01 0.36076021E+03</pdfrwt>
<totfact> 0.42259439E+03</totfact>
</mgrwt>
</event>
<event>
 4    1  0.1305170E-003  0.2527919E+03  0.7818608E-02  0.1111553E+00
          2   -1    0    0  501    0  0.00000000000E+00  0.00000000000E+00  0.75714986515E+03  0.75714986516E+03  0.25500000000E-02 0.  1.
         -2   -1    0    0    0  501 -0.00000000000E+00 -0.00000000000E+00 -0.21100105409E+02  0.21100105563E+02  0.25500000000E-02 0. -1.
    5000001    1    1    2    0    0  0.87894454637E+02  0.39941041448E+02  0.28506081821E+03  0.31065960797E+03  0.77000000000E+02 0.  0.
   -5000001    1    1    2    0    0 -0.87894454637E+02 -0.39941041448E+02  0.45098894153E+03  0.46759036274E+03  0.77000000000E+02 0.  0.
<mgrwt>
<rscale>  0 0.25279195E+03</rscale>
<asrwt>0</asrwt>
<pdfrwt beam="1">  1        2 0.10816428E+00 0.25279195E+03</pdfrwt>
<pdfrwt beam="2">  1       -2 0.30143004E-02 0.25279195E+03</pdfrwt>
<totfact> 0.17380242E+04</totfact>
</mgrwt>
</event>
<event>
 4    1  0.1305170E-003  0.2440328E+03  0.7818608E-02  0.1117135E+00
         -2   -1    0    0    0  501 -0.00000000000E+00  0.00000000000E+00  0.13844620460E+02  0.13844620695E+02  0.25500000000E-02 0. -1.
          2   -1    0    0  501    0  0.00000000000E+00 -0.00000000000E+00 -0.10753636096E+04  0.10753636096E+04  0.25500000000E-02 0.  1.
    5000001    1    1    2    0    0 -0.17506304484E+02 -0.93008695141E+02 -0.52458600558E+03  0.53858756514E+03  0.77000000000E+02 0.  0.
   -5000001    1    1    2    0    0  0.17506304484E+02  0.93008695141E+02 -0.53693298353E+03  0.55062066513E+03  0.77000000000E+02 0.  0.
<mgrwt>
<rscale>  0 0.24403279E+03</rscale>
<asrwt>0</asrwt>
<pdfrwt beam="1">  1        2 0.15362332E+00 0.24403279E+03</pdfrwt>
<pdfrwt beam="2">  1       -2 0.19778036E-02 0.24403279E+03</pdfrwt>
<totfact> 0.20494122E+04</totfact>
</mgrwt>
</event>
<event>
 4    1  0.1305170E-003  0.1978100E+03  0.7818608E-02  0.1151600E+00
         -2   -1    0    0    0  501 -0.00000000000E+00  0.00000000000E+00  0.28409056347E+02  0.28409056462E+02  0.25500000000E-02 0. -1.
          2   -1    0    0  501    0  0.00000000000E+00 -0.00000000000E+00 -0.34433374474E+03  0.34433374475E+03  0.25500000000E-02 0.  1.
    5000001    1    1    2    0    0  0.44215354950E+02  0.22524335395E+02 -0.87687197232E+02  0.12680846918E+03  0.77000000000E+02 0.  0.
   -5000001    1    1    2    0    0 -0.44215354950E+02 -0.22524335395E+02 -0.22823749116E+03  0.24593433203E+03  0.77000000000E+02 0.  0.
<mgrwt>
<rscale>  0 0.19780998E+03</rscale>
<asrwt>0</asrwt>
<pdfrwt beam="1">  1        2 0.49190533E-01 0.19780998E+03</pdfrwt>
<pdfrwt beam="2">  1       -2 0.40584368E-02 0.19780998E+03</pdfrwt>
<totfact> 0.26446347E+04</totfact>
</mgrwt>
</event>
<event>
 4    1  0.1305170E-003  0.6680860E+03  0.7818608E-02  0.9773422E-01
          2   -1    0    0  501    0  0.00000000000E+00  0.00000000000E+00  0.16890420973E+04  0.16890420973E+04  0.25500000000E-02 0.  1.
         -2   -1    0    0    0  501 -0.00000000000E+00 -0.00000000000E+00 -0.66063919256E+02  0.66063919305E+02  0.25500000000E-02 0. -1.
    5000001    1    1    2    0    0 -0.26922079459E+03 -0.15282732366E+03  0.55116139737E+03  0.63682329813E+03  0.77000000000E+02 0.  0.
   -5000001    1    1    2    0    0  0.26922079459E+03  0.15282732366E+03  0.10718167807E+04  0.11182827185E+04  0.77000000000E+02 0.  0.
<mgrwt>
<rscale>  0 0.66808604E+03</rscale>
<asrwt>0</asrwt>
<pdfrwt beam="1">  1        2 0.24129169E+00 0.66808604E+03</pdfrwt>
<pdfrwt beam="2">  1       -2 0.94377044E-02 0.66808604E+03</pdfrwt>
<totfact> 0.89125291E+02</totfact>
</mgrwt>
</event>
<event>
 4    1  0.1305170E-003  0.2372250E+03  0.7818608E-02  0.1121655E+00
         -2   -1    0    0    0  501 -0.00000000000E+00  0.00000000000E+00  0.21810868117E+02  0.21810868266E+02  0.25500000000E-02 0. -1.
          2   -1    0    0  501    0  0.00000000000E+00 -0.00000000000E+00 -0.64504170775E+03  0.64504170775E+03  0.25500000000E-02 0.  1.
    5000001    1    1    2    0    0 -0.55503738655E+02 -0.58148086229E+02 -0.42676769508E+03  0.44104595056E+03  0.77000000000E+02 0.  0.
   -5000001    1    1    2    0    0  0.55503738655E+02  0.58148086229E+02 -0.19646314455E+03  0.22580662546E+03  0.77000000000E+02 0.  0.
<mgrwt>
<rscale>  0 0.23722495E+03</rscale>
<asrwt>0</asrwt>
<pdfrwt beam="1">  1        2 0.92148804E-01 0.23722495E+03</pdfrwt>
<pdfrwt beam="2">  1       -2 0.31158387E-02 0.23722495E+03</pdfrwt>
<totfact> 0.19930930E+04</totfact>
</mgrwt>
</event>
<event>
 4    1  0.1305170E-003  0.1864834E+03  0.7818608E-02  0.1161672E+00
          2   -1    0    0  501    0  0.00000000000E+00  0.00000000000E+00  0.18663833107E+04  0.18663833107E+04  0.25500000000E-02 0.  1.
         -2   -1    0    0    0  501 -0.00000000000E+00 -0.00000000000E+00 -0.46582149856E+01  0.46582156836E+01  0.25500000000E-02 0. -1.
    5000001    1    1    2    0    0  0.26959644304E+02 -0.44735903391E+02  0.99180342085E+03  0.99615819481E+03  0.77000000000E+02 0.  0.
   -5000001    1    1    2    0    0 -0.26959644304E+02  0.44735903391E+02  0.86992167486E+03  0.87488333157E+03  0.77000000000E+02 0.  0.
<mgrwt>
<rscale>  0 0.18648341E+03</rscale>
<asrwt>0</asrwt>
<pdfrwt beam="1">  1        2 0.26662619E+00 0.18648341E+03</pdfrwt>
<pdfrwt beam="2">  1       -2 0.66545933E-03 0.18648341E+03</pdfrwt>
<totfact> 0.38628123E+04</totfact>
</mgrwt>
</event>
<event>
 4    1  0.1305170E-003  0.3425902E+03  0.7818608E-02  0.1065698E+00
         -2   -1    0    0    0  501 -0.00000000000E+00  0.00000000000E+00  0.12475321822E+02  0.12475322083E+02  0.25500000000E-02 0.  1.
          2   -1    0    0  501    0  0.00000000000E+00 -0.00000000000E+00 -0.23520049138E+04  0.23520049138E+04  0.25500000000E-02 0. -1.
    5000001    1    1    2    0    0 -0.12927037863E+03  0.68302524435E+02 -0.14812598767E+04  0.14904482171E+04  0.77000000000E+02 0.  0.
   -5000001    1    1    2    0    0  0.12927037863E+03 -0.68302524435E+02 -0.85826971527E+03  0.87403201875E+03  0.77000000000E+02 0.  0.
<mgrwt>
<rscale>  0 0.34259024E+03</rscale>
<asrwt>0</asrwt>
<pdfrwt beam="1">  1        2 0.33600042E+00 0.34259024E+03</pdfrwt>
<pdfrwt beam="2">  1       -2 0.17821904E-02 0.34259024E+03</pdfrwt>
<totfact> 0.54372209E+03</totfact>
</mgrwt>
</event>
<event>
 4    1  0.1305170E-003  0.2265621E+03  0.7818608E-02  0.1129083E+00
         -2   -1    0    0    0  501 -0.00000000000E+00  0.00000000000E+00  0.33644781880E+03  0.33644781881E+03  0.25500000000E-02 0. -1.
          2   -1    0    0  501    0  0.00000000000E+00 -0.00000000000E+00 -0.38141432600E+02  0.38141432685E+02  0.25500000000E-02 0.  1.
    5000001    1    1    2    0    0  0.13860839884E+02 -0.67755677060E+02  0.73015070371E+02  0.12666157727E+03  0.77000000000E+02 0.  0.
   -5000001    1    1    2    0    0 -0.13860839884E+02  0.67755677060E+02  0.22529131583E+03  0.24792767422E+03  0.77000000000E+02 0.  0.
<mgrwt>
<rscale>  0 0.22656215E+03</rscale>
<asrwt>0</asrwt>
<pdfrwt beam="1">  1        2 0.54487761E-02 0.22656215E+03</pdfrwt>
<pdfrwt beam="2">  1       -2 0.48063974E-01 0.22656215E+03</pdfrwt>
<totfact> 0.57314981E+03</totfact>
</mgrwt>
</event>
<event>
 4    1  0.1305170E-003  0.2243136E+03  0.7818608E-02  0.1130707E+00
         -2   -1    0    0    0  501 -0.00000000000E+00  0.00000000000E+00  0.21835063772E+03  0.21835063774E+03  0.25500000000E-02 0. -1.
          2   -1    0    0  501    0  0.00000000000E+00 -0.00000000000E+00 -0.57609875129E+02  0.57609875186E+02  0.25500000000E-02 0.  1.
    5000001    1    1    2    0    0 -0.92154901440E+01 -0.77646451230E+02  0.51881364142E+02  0.12138604777E+03  0.77000000000E+02 0.  0.
   -5000001    1    1    2    0    0  0.92154901440E+01  0.77646451230E+02  0.10885939845E+03  0.15457446516E+03  0.77000000000E+02 0.  0.
<mgrwt>
<rscale>  0 0.22431365E+03</rscale>
<asrwt>0</asrwt>
<pdfrwt beam="1">  1        2 0.82299821E-02 0.22431365E+03</pdfrwt>
<pdfrwt beam="2">  1       -2 0.31192949E-01 0.22431365E+03</pdfrwt>
<totfact> 0.76435745E+03</totfact>
</mgrwt>
</event>
<event>
 4    1  0.1305170E-003  0.2167247E+03  0.7818608E-02  0.1136349E+00
          2   -1    0    0  501    0  0.00000000000E+00  0.00000000000E+00  0.42884430445E+03  0.42884430446E+03  0.25500000000E-02 0.  1.
         -2   -1    0    0    0  501 -0.00000000000E+00 -0.00000000000E+00 -0.27381500248E+02  0.27381500367E+02  0.25500000000E-02 0. -1.
    5000001    1    1    2    0    0  0.22135415741E+02  0.52039267520E+02  0.30838668764E+03  0.32284580082E+03  0.77000000000E+02 0.  0.
   -5000001    1    1    2    0    0 -0.22135415741E+02 -0.52039267520E+02  0.93076116563E+02  0.13338000401E+03  0.77000000000E+02 0.  0.
<mgrwt>
<rscale>  0 0.21672471E+03</rscale>
<asrwt>0</asrwt>
<pdfrwt beam="1">  1        2 0.61263469E-01 0.21672471E+03</pdfrwt>
<pdfrwt beam="2">  1       -2 0.39116431E-02 0.21672471E+03</pdfrwt>
<totfact> 0.22226937E+04</totfact>
</mgrwt>
</event>
<event>
 4    1  0.1305170E-003  0.2241972E+03  0.7818608E-02  0.1130792E+00
          2   -1    0    0  501    0  0.00000000000E+00  0.00000000000E+00  0.57568112704E+03  0.57568112705E+03  0.25500000000E-02 0.  1.
         -2   -1    0    0    0  501 -0.00000000000E+00 -0.00000000000E+00 -0.21828221759E+02  0.21828221908E+02  0.25500000000E-02 0. -1.
    5000001    1    1    2    0    0 -0.41258739779E+02  0.53652302321E+02  0.39777784753E+03  0.41077617888E+03  0.77000000000E+02 0.  0.
   -5000001    1    1    2    0    0  0.41258739779E+02 -0.53652302321E+02  0.15607505775E+03  0.18673317007E+03  0.77000000000E+02 0.  0.
<mgrwt>
<rscale>  0 0.22419719E+03</rscale>
<asrwt>0</asrwt>
<pdfrwt beam="1">  1        2 0.82240155E-01 0.22419719E+03</pdfrwt>
<pdfrwt beam="2">  1       -2 0.31183176E-02 0.22419719E+03</pdfrwt>
<totfact> 0.22586669E+04</totfact>
</mgrwt>
</event>
<event>
 4    1  0.1305170E-003  0.2741850E+03  0.7818608E-02  0.1098908E+00
         -2   -1    0    0    0  501 -0.00000000000E+00  0.00000000000E+00  0.54438525407E+02  0.54438525467E+02  0.25500000000E-02 0. -1.
          2   -1    0    0  501    0  0.00000000000E+00 -0.00000000000E+00 -0.34523993795E+03  0.34523993796E+03  0.25500000000E-02 0.  1.
    5000001    1    1    2    0    0 -0.33546343167E+02  0.10771256354E+03 -0.16252473995E+03  0.21229847993E+03  0.77000000000E+02 0.  0.
   -5000001    1    1    2    0    0  0.33546343167E+02 -0.10771256354E+03 -0.12827667259E+03  0.18737998350E+03  0.77000000000E+02 0.  0.
<mgrwt>
<rscale>  0 0.27418500E+03</rscale>
<asrwt>0</asrwt>
<pdfrwt beam="1">  1        2 0.49319990E-01 0.27418500E+03</pdfrwt>
<pdfrwt beam="2">  1       -2 0.77769324E-02 0.27418500E+03</pdfrwt>
<totfact> 0.99731504E+03</totfact>
</mgrwt>
</event>
<event>
 4    1  0.1305170E-003  0.2865603E+03  0.7818608E-02  0.1092159E+00
          2   -1    0    0  501    0  0.00000000000E+00  0.00000000000E+00  0.59067477210E+03  0.59067477210E+03  0.25500000000E-02 0.  1.
         -2   -1    0    0    0  501 -0.00000000000E+00 -0.00000000000E+00 -0.34755505053E+02  0.34755505146E+02  0.25500000000E-02 0. -1.
    5000001    1    1    2    0    0 -0.89001850264E+02  0.81602764968E+02  0.28768590912E+03  0.32136042523E+03  0.77000000000E+02 0.  0.
   -5000001    1    1    2    0    0  0.89001850264E+02 -0.81602764968E+02  0.26823335793E+03  0.30406985202E+03  0.77000000000E+02 0.  0.
<mgrwt>
<rscale>  0 0.28656029E+03</rscale>
<asrwt>0</asrwt>
<pdfrwt beam="1">  1        2 0.84382106E-01 0.28656029E+03</pdfrwt>
<pdfrwt beam="2">  1       -2 0.49650724E-02 0.28656029E+03</pdfrwt>
<totfact> 0.11050031E+04</totfact>
</mgrwt>
</event>
<event>
 4    1  0.1305170E-003  0.2145709E+03  0.7818608E-02  0.1137997E+00
          2   -1    0    0  501    0  0.00000000000E+00  0.00000000000E+00  0.51546521784E+03  0.51546521784E+03  0.25500000000E-02 0.  1.
         -2   -1    0    0    0  501 -0.00000000000E+00 -0.00000000000E+00 -0.22329671905E+02  0.22329672051E+02  0.25500000000E-02 0. -1.
    5000001    1    1    2    0    0  0.27927518692E+01 -0.72425863159E+02  0.20118481857E+03  0.22728316334E+03  0.77000000000E+02 0.  0.
   -5000001    1    1    2    0    0 -0.27927518692E+01  0.72425863159E+02  0.29195072736E+03  0.31051172655E+03  0.77000000000E+02 0.  0.
<mgrwt>
<rscale>  0 0.21457091E+03</rscale>
<asrwt>0</asrwt>
<pdfrwt beam="1">  1        2 0.73637892E-01 0.21457091E+03</pdfrwt>
<pdfrwt beam="2">  1       -2 0.31899530E-02 0.21457091E+03</pdfrwt>
<totfact> 0.24626815E+04</totfact>
</mgrwt>
</event>
<event>
 4    1  0.1305170E-003  0.2030681E+03  0.7818608E-02  0.1147176E+00
         -2   -1    0    0    0  501 -0.00000000000E+00  0.00000000000E+00  0.86470437013E+03  0.86470437013E+03  0.25500000000E-02 0. -1.
          2   -1    0    0  501    0  0.00000000000E+00 -0.00000000000E+00 -0.11922186607E+02  0.11922186880E+02  0.25500000000E-02 0.  1.
    5000001    1    1    2    0    0  0.64057928474E+02  0.16321073115E+02  0.41248866649E+03  0.42478900128E+03  0.77000000000E+02 0.  0.
   -5000001    1    1    2    0    0 -0.64057928474E+02 -0.16321073115E+02  0.44029351703E+03  0.45183755573E+03  0.77000000000E+02 0.  0.
<mgrwt>
<rscale>  0 0.20306814E+03</rscale>
<asrwt>0</asrwt>
<pdfrwt beam="1">  1        2 0.17031695E-02 0.20306814E+03</pdfrwt>
<pdfrwt beam="2">  1       -2 0.12352920E+00 0.20306814E+03</pdfrwt>
<totfact> 0.34739617E+03</totfact>
</mgrwt>
</event>
<event>
 4    1  0.1305170E-003  0.3141614E+03  0.7818608E-02  0.1078368E+00
         -2   -1    0    0    0  501 -0.00000000000E+00  0.00000000000E+00  0.12019963992E+02  0.12019964263E+02  0.25500000000E-02 0. -1.
          2   -1    0    0  501    0  0.00000000000E+00 -0.00000000000E+00 -0.20527803036E+04  0.20527803036E+04  0.25500000000E-02 0.  1.
    5000001    1    1    2    0    0 -0.46274570490E+02  0.11332837150E+03 -0.61733010495E+03  0.63404267533E+03  0.77000000000E+02 0.  0.
   -5000001    1    1    2    0    0  0.46274570490E+02 -0.11332837150E+03 -0.14234302347E+04  0.14307575926E+04  0.77000000000E+02 0.  0.
<mgrwt>
<rscale>  0 0.31416140E+03</rscale>
<asrwt>0</asrwt>
<pdfrwt beam="1">  1        2 0.29325411E+00 0.31416140E+03</pdfrwt>
<pdfrwt beam="2">  1       -2 0.17171390E-02 0.31416140E+03</pdfrwt>
<totfact> 0.80673167E+03</totfact>
</mgrwt>
</event>
<event>
 4    1  0.1305170E-003  0.3037544E+03  0.7818608E-02  0.1083379E+00
          2   -1    0    0  501    0  0.00000000000E+00  0.00000000000E+00  0.27528508300E+04  0.27528508300E+04  0.25500000000E-02 0.  1.
         -2   -1    0    0    0  501 -0.00000000000E+00 -0.00000000000E+00 -0.83791987014E+01  0.83791990894E+01  0.25500000000E-02 0. -1.
    5000001    1    1    2    0    0 -0.69297874426E+02 -0.10061261006E+03  0.17998288930E+04  0.18056129532E+04  0.77000000000E+02 0.  0.
   -5000001    1    1    2    0    0  0.69297874426E+02  0.10061261006E+03  0.94464273829E+03  0.95561707587E+03  0.77000000000E+02 0.  0.
<mgrwt>
<rscale>  0 0.30375440E+03</rscale>
<asrwt>0</asrwt>
<pdfrwt beam="1">  1        2 0.39326454E+00 0.30375440E+03</pdfrwt>
<pdfrwt beam="2">  1       -2 0.11970280E-02 0.30375440E+03</pdfrwt>
<totfact> 0.61260535E+03</totfact>
</mgrwt>
</event>
<event>
 4    1  0.1305170E-003  0.3322668E+03  0.7818608E-02  0.1070138E+00
          2   -1    0    0  501    0  0.00000000000E+00  0.00000000000E+00  0.10983061725E+04  0.10983061725E+04  0.25500000000E-02 0.  1.
         -2   -1    0    0    0  501 -0.00000000000E+00 -0.00000000000E+00 -0.25129877542E+02  0.25129877671E+02  0.25500000000E-02 0. -1.
    5000001    1    1    2    0    0 -0.99755040337E+02  0.10741316611E+03  0.49089370163E+03  0.51806783593E+03  0.77000000000E+02 0.  0.
   -5000001    1    1    2    0    0  0.99755040337E+02 -0.10741316611E+03  0.58228259337E+03  0.60536821429E+03  0.77000000000E+02 0.  0.
<mgrwt>
<rscale>  0 0.33226676E+03</rscale>
<asrwt>0</asrwt>
<pdfrwt beam="1">  1        2 0.15690085E+00 0.33226676E+03</pdfrwt>
<pdfrwt beam="2">  1       -2 0.35899832E-02 0.33226676E+03</pdfrwt>
<totfact> 0.82941612E+03</totfact>
</mgrwt>
</event>
<event>
 4    1  0.1305170E-003  0.2497317E+03  0.7818608E-02  0.1113474E+00
         -2   -1    0    0    0  501 -0.00000000000E+00  0.00000000000E+00  0.23565873919E+02  0.23565874057E+02  0.25500000000E-02 0. -1.
          2   -1    0    0  501    0  0.00000000000E+00 -0.00000000000E+00 -0.66161264711E+03  0.66161264712E+03  0.25500000000E-02 0.  1.
    5000001    1    1    2    0    0 -0.21326302416E+02  0.88721759308E+02 -0.21873455710E+03  0.24919905341E+03  0.77000000000E+02 0.  0.
   -5000001    1    1    2    0    0  0.21326302416E+02 -0.88721759308E+02 -0.41931221609E+03  0.43597946776E+03  0.77000000000E+02 0.  0.
<mgrwt>
<rscale>  0 0.24973170E+03</rscale>
<asrwt>0</asrwt>
<pdfrwt beam="1">  1        2 0.94516081E-01 0.24973170E+03</pdfrwt>
<pdfrwt beam="2">  1       -2 0.33665538E-02 0.24973170E+03</pdfrwt>
<totfact> 0.17294594E+04</totfact>
</mgrwt>
</event>
<event>
 4    1  0.1305170E-003  0.2443638E+03  0.7818608E-02  0.1116919E+00
         -2   -1    0    0    0  501 -0.00000000000E+00  0.00000000000E+00  0.10678573507E+02  0.10678573811E+02  0.25500000000E-02 0. -1.
          2   -1    0    0  501    0  0.00000000000E+00 -0.00000000000E+00 -0.13979786486E+04  0.13979786486E+04  0.25500000000E-02 0.  1.
    5000001    1    1    2    0    0 -0.14830187773E+02  0.61569059484E+02 -0.11008086539E+04  0.11053141527E+04  0.77000000000E+02 0.  0.
   -5000001    1    1    2    0    0  0.14830187773E+02 -0.61569059484E+02 -0.28649142123E+03  0.30334306979E+03  0.77000000000E+02 0.  0.
<mgrwt>
<rscale>  0 0.24436381E+03</rscale>
<asrwt>0</asrwt>
<pdfrwt beam="1">  1        2 0.19971112E+00 0.24436381E+03</pdfrwt>
<pdfrwt beam="2">  1       -2 0.15255114E-02 0.24436381E+03</pdfrwt>
<totfact> 0.20123006E+04</totfact>
</mgrwt>
</event>
<event>
 4    1  0.1305170E-003  0.2952247E+03  0.7818608E-02  0.1087652E+00
         -2   -1    0    0    0  501 -0.00000000000E+00  0.00000000000E+00  0.11098987621E+03  0.11098987624E+03  0.25500000000E-02 0. -1.
          2   -1    0    0  501    0  0.00000000000E+00 -0.00000000000E+00 -0.19631884229E+03  0.19631884231E+03  0.25500000000E-02 0.  1.
    5000001    1    1    2    0    0 -0.87354309388E+02 -0.54535634793E+02  0.32797627709E+02  0.13270115001E+03  0.77000000000E+02 0.  0.
   -5000001    1    1    2    0    0  0.87354309388E+02  0.54535634793E+02 -0.11812659379E+03  0.17460756854E+03  0.77000000000E+02 0.  0.
<mgrwt>
<rscale>  0 0.29522469E+03</rscale>
<asrwt>0</asrwt>
<pdfrwt beam="1">  1        2 0.28045549E-01 0.29522469E+03</pdfrwt>
<pdfrwt beam="2">  1       -2 0.15855697E-01 0.29522469E+03</pdfrwt>
<totfact> 0.58745677E+03</totfact>
</mgrwt>
</event>
<event>
 4    1  0.1305170E-003  0.2097141E+03  0.7818608E-02  0.1141793E+00
         -2   -1    0    0    0  501 -0.00000000000E+00  0.00000000000E+00  0.47963955394E+03  0.47963955395E+03  0.25500000000E-02 0. -1.
          2   -1    0    0  501    0  0.00000000000E+00 -0.00000000000E+00 -0.22923458613E+02  0.22923458755E+02  0.25500000000E-02 0.  1.
    5000001    1    1    2    0    0 -0.36940614187E+02 -0.57732006542E+02  0.27435458045E+03  0.29308194992E+03  0.77000000000E+02 0.  0.
   -5000001    1    1    2    0    0  0.36940614187E+02  0.57732006542E+02  0.18236151488E+03  0.20948106279E+03  0.77000000000E+02 0.  0.
<mgrwt>
<rscale>  0 0.20971407E+03</rscale>
<asrwt>0</asrwt>
<pdfrwt beam="1">  1        2 0.32747801E-02 0.20971407E+03</pdfrwt>
<pdfrwt beam="2">  1       -2 0.68519931E-01 0.20971407E+03</pdfrwt>
<totfact> 0.54358556E+03</totfact>
</mgrwt>
</event>
<event>
 4    1  0.1305170E-003  0.2108203E+03  0.7818608E-02  0.1140918E+00
         -2   -1    0    0    0  501 -0.00000000000E+00  0.00000000000E+00  0.15678031839E+02  0.15678032046E+02  0.25500000000E-02 0. -1.
          2   -1    0    0  501    0  0.00000000000E+00 -0.00000000000E+00 -0.70871777075E+03  0.70871777076E+03  0.25500000000E-02 0.  1.
    5000001    1    1    2    0    0  0.17311708248E+02 -0.57393139758E+02 -0.20956572948E+03  0.23117193322E+03  0.77000000000E+02 0.  0.
   -5000001    1    1    2    0    0 -0.17311708248E+02  0.57393139758E+02 -0.48347400943E+03  0.49322386959E+03  0.77000000000E+02 0.  0.
<mgrwt>
<rscale>  0 0.21082030E+03</rscale>
<asrwt>0</asrwt>
<pdfrwt beam="1">  1        2 0.10124538E+00 0.21082030E+03</pdfrwt>
<pdfrwt beam="2">  1       -2 0.22397193E-02 0.21082030E+03</pdfrwt>
<totfact> 0.28850888E+04</totfact>
</mgrwt>
</event>
<event>
 4    1  0.1305170E-003  0.4703285E+03  0.7818608E-02  0.1021828E+00
          2   -1    0    0  501    0  0.00000000000E+00  0.00000000000E+00  0.71387614364E+03  0.71387614364E+03  0.25500000000E-02 0.  1.
         -2   -1    0    0    0  501 -0.00000000000E+00 -0.00000000000E+00 -0.77467528264E+02  0.77467528306E+02  0.25500000000E-02 0. -1.
    5000001    1    1    2    0    0 -0.57932985883E+02  0.17551518340E+03  0.52571887474E+03  0.56255768213E+03  0.77000000000E+02 0.  0.
   -5000001    1    1    2    0    0  0.57932985883E+02 -0.17551518340E+03  0.11068974063E+03  0.22878598982E+03  0.77000000000E+02 0.  0.
<mgrwt>
<rscale>  0 0.47032848E+03</rscale>
<asrwt>0</asrwt>
<pdfrwt beam="1">  1        2 0.10198231E+00 0.47032848E+03</pdfrwt>
<pdfrwt beam="2">  1       -2 0.11066790E-01 0.47032848E+03</pdfrwt>
<totfact> 0.25423680E+03</totfact>
</mgrwt>
</event>
<event>
 4    1  0.1305170E-003  0.2772007E+03  0.7818608E-02  0.1097228E+00
         -2   -1    0    0    0  501 -0.00000000000E+00  0.00000000000E+00  0.14211397029E+02  0.14211397257E+02  0.25500000000E-02 0. -1.
          2   -1    0    0  501    0  0.00000000000E+00 -0.00000000000E+00 -0.13517357399E+04  0.13517357399E+04  0.25500000000E-02 0.  1.
    5000001    1    1    2    0    0  0.95839931790E+02 -0.51020557515E+02 -0.85914184778E+03  0.86939180144E+03  0.77000000000E+02 0.  0.
   -5000001    1    1    2    0    0 -0.95839931790E+02  0.51020557515E+02 -0.47838249506E+03  0.49655533569E+03  0.77000000000E+02 0.  0.
<mgrwt>
<rscale>  0 0.27720067E+03</rscale>
<asrwt>0</asrwt>
<pdfrwt beam="1">  1        2 0.19310502E+00 0.27720067E+03</pdfrwt>
<pdfrwt beam="2">  1       -2 0.20302004E-02 0.27720067E+03</pdfrwt>
<totfact> 0.14051532E+04</totfact>
</mgrwt>
</event>
<event>
 4    1  0.1305170E-003  0.7805759E+03  0.7818608E-02  0.9588566E-01
          2   -1    0    0  501    0  0.00000000000E+00  0.00000000000E+00  0.64090771838E+03  0.64090771838E+03  0.25500000000E-02 0.  1.
         -2   -1    0    0    0  501 -0.00000000000E+00 -0.00000000000E+00 -0.23767020572E+03  0.23767020573E+03  0.25500000000E-02 0. -1.
    5000001    1    1    2    0    0 -0.18346279268E+03 -0.33030252690E+03  0.13373661267E+03  0.40813335706E+03  0.77000000000E+02 0.  0.
   -5000001    1    1    2    0    0  0.18346279268E+03  0.33030252690E+03  0.26950089999E+03  0.47044456706E+03  0.77000000000E+02 0.  0.
<mgrwt>
<rscale>  0 0.78057586E+03</rscale>
<asrwt>0</asrwt>
<pdfrwt beam="1">  1        2 0.91558246E-01 0.78057586E+03</pdfrwt>
<pdfrwt beam="2">  1       -2 0.33952886E-01 0.78057586E+03</pdfrwt>
<totfact> 0.40864561E+02</totfact>
</mgrwt>
</event>
<event>
 4    1  0.1305170E-003  0.1927277E+03  0.7818608E-02  0.1156024E+00
         -2   -1    0    0    0  501 -0.00000000000E+00  0.00000000000E+00  0.16011340822E+03  0.16011340824E+03  0.25500000000E-02 0. -1.
          2   -1    0    0  501    0  0.00000000000E+00 -0.00000000000E+00 -0.57996352270E+02  0.57996352326E+02  0.25500000000E-02 0.  1.
    5000001    1    1    2    0    0  0.45109169723E+02  0.25354667571E+02  0.80554373523E+02  0.12286457363E+03  0.77000000000E+02 0.  0.
   -5000001    1    1    2    0    0 -0.45109169723E+02 -0.25354667571E+02  0.21562682430E+02  0.95245186935E+02  0.77000000000E+02 0.  0.
<mgrwt>
<rscale>  0 0.19272772E+03</rscale>
<asrwt>0</asrwt>
<pdfrwt beam="1">  1        2 0.82851930E-02 0.19272772E+03</pdfrwt>
<pdfrwt beam="2">  1       -2 0.22873344E-01 0.19272772E+03</pdfrwt>
<totfact> 0.13020644E+04</totfact>
</mgrwt>
</event>
<event>
 4    1  0.1305170E-003  0.3628365E+03  0.7818608E-02  0.1057466E+00
         -2   -1    0    0    0  501 -0.00000000000E+00  0.00000000000E+00  0.10319753365E+04  0.10319753365E+04  0.25500000000E-02 0. -1.
          2   -1    0    0  501    0  0.00000000000E+00 -0.00000000000E+00 -0.31892806362E+02  0.31892806464E+02  0.25500000000E-02 0.  1.
    5000001    1    1    2    0    0 -0.79888059575E+02  0.14199215776E+03  0.56152528802E+03  0.58973173903E+03  0.77000000000E+02 0.  0.
   -5000001    1    1    2    0    0  0.79888059575E+02 -0.14199215776E+03  0.43855724208E+03  0.47413640390E+03  0.77000000000E+02 0.  0.
<mgrwt>
<rscale>  0 0.36283655E+03</rscale>
<asrwt>0</asrwt>
<pdfrwt beam="1">  1        2 0.45561144E-02 0.36283655E+03</pdfrwt>
<pdfrwt beam="2">  1       -2 0.14742507E+00 0.36283655E+03</pdfrwt>
<totfact> 0.59349811E+02</totfact>
</mgrwt>
</event>
<event>
 4    1  0.1305170E-003  0.3343770E+03  0.7818608E-02  0.1069216E+00
          2   -1    0    0  501    0  0.00000000000E+00  0.00000000000E+00  0.42626151303E+04  0.42626151303E+04  0.25500000000E-02 0.  1.
         -2   -1    0    0    0  501 -0.00000000000E+00 -0.00000000000E+00 -0.65574737093E+01  0.65574742051E+01  0.25500000000E-02 0. -1.
    5000001    1    1    2    0    0 -0.73740070837E+02 -0.13286073028E+02  0.37635143583E+04  0.37650476017E+04  0.77000000000E+02 0.  0.
   -5000001    1    1    2    0    0  0.73740070837E+02  0.13286073028E+02  0.49254329829E+03  0.50412500283E+03  0.77000000000E+02 0.  0.
<mgrwt>
<rscale>  0 0.33437696E+03</rscale>
<asrwt>0</asrwt>
<pdfrwt beam="1">  1        2 0.60894329E+00 0.33437696E+03</pdfrwt>
<pdfrwt beam="2">  1       -2 0.93678466E-03 0.33437696E+03</pdfrwt>
<totfact> 0.11145638E+03</totfact>
</mgrwt>
</event>
<event>
 4    1  0.1305170E-003  0.3583330E+03  0.7818608E-02  0.1059246E+00
          2   -1    0    0  501    0  0.00000000000E+00  0.00000000000E+00  0.68023827559E+03  0.68023827560E+03  0.25500000000E-02 0.  1.
         -2   -1    0    0    0  501 -0.00000000000E+00 -0.00000000000E+00 -0.47190267771E+02  0.47190267840E+02  0.25500000000E-02 0. -1.
    5000001    1    1    2    0    0  0.11341042550E+01 -0.12695941823E+03  0.52005107777E+03  0.54083463605E+03  0.77000000000E+02 0.  0.
   -5000001    1    1    2    0    0 -0.11341042550E+01  0.12695941823E+03  0.11299693005E+03  0.18659390738E+03  0.77000000000E+02 0.  0.
<mgrwt>
<rscale>  0 0.35833295E+03</rscale>
<asrwt>0</asrwt>
<pdfrwt beam="1">  1        2 0.97176890E-01 0.35833295E+03</pdfrwt>
<pdfrwt beam="2">  1       -2 0.67414673E-02 0.35833295E+03</pdfrwt>
<totfact> 0.58987737E+03</totfact>
</mgrwt>
</event>
<event>
 4    1  0.1305170E-003  0.1798652E+03  0.7818608E-02  0.1167934E+00
          2   -1    0    0  501    0  0.00000000000E+00  0.00000000000E+00  0.20810906666E+03  0.20810906668E+03  0.25500000000E-02 0.  1.
         -2   -1    0    0    0  501 -0.00000000000E+00 -0.00000000000E+00 -0.38863618934E+02  0.38863619017E+02  0.25500000000E-02 0. -1.
    5000001    1    1    2    0    0  0.71645079400E+01 -0.37460908993E+02  0.12106088724E+03  0.14845668828E+03  0.77000000000E+02 0.  0.
   -5000001    1    1    2    0    0 -0.71645079400E+01  0.37460908993E+02  0.48184560489E+02  0.98515997412E+02  0.77000000000E+02 0.  0.
<mgrwt>
<rscale>  0 0.17986519E+03</rscale>
<asrwt>0</asrwt>
<pdfrwt beam="1">  1        2 0.29729867E-01 0.17986519E+03</pdfrwt>
<pdfrwt beam="2">  1       -2 0.55519455E-02 0.17986519E+03</pdfrwt>
<totfact> 0.28113901E+04</totfact>
</mgrwt>
</event>
<event>
 4    1  0.1305170E-003  0.5889826E+03  0.7818608E-02  0.9928531E-01
          2   -1    0    0  501    0  0.00000000000E+00  0.00000000000E+00  0.16261144810E+04  0.16261144810E+04  0.25500000000E-02 0.  1.
         -2   -1    0    0    0  501 -0.00000000000E+00 -0.00000000000E+00 -0.53332727781E+02  0.53332727842E+02  0.25500000000E-02 0. -1.
    5000001    1    1    2    0    0  0.19273058269E+03 -0.19843257310E+03  0.59994178293E+03  0.66511631048E+03  0.77000000000E+02 0.  0.
   -5000001    1    1    2    0    0 -0.19273058269E+03  0.19843257310E+03  0.97283997024E+03  0.10143308983E+04  0.77000000000E+02 0.  0.
<mgrwt>
<rscale>  0 0.58898258E+03</rscale>
<asrwt>0</asrwt>
<pdfrwt beam="1">  1        2 0.23230205E+00 0.58898258E+03</pdfrwt>
<pdfrwt beam="2">  1       -2 0.76189617E-02 0.58898258E+03</pdfrwt>
<totfact> 0.13572551E+03</totfact>
</mgrwt>
</event>
<event>
 4    1  0.1305170E-003  0.2597382E+03  0.7818608E-02  0.1107301E+00
          2   -1    0    0  501    0  0.00000000000E+00  0.00000000000E+00  0.20379839835E+04  0.20379839835E+04  0.25500000000E-02 0.  1.
         -2   -1    0    0    0  501 -0.00000000000E+00 -0.00000000000E+00 -0.82758147965E+01  0.82758151894E+01  0.25500000000E-02 0. -1.
    5000001    1    1    2    0    0  0.86984696732E+02 -0.51310523085E+02  0.80085334401E+03  0.81086015185E+03  0.77000000000E+02 0.  0.
   -5000001    1    1    2    0    0 -0.86984696732E+02  0.51310523085E+02  0.12288548247E+04  0.12353996469E+04  0.77000000000E+02 0.  0.
<mgrwt>
<rscale>  0 0.25973816E+03</rscale>
<asrwt>0</asrwt>
<pdfrwt beam="1">  1        2 0.29114074E+00 0.25973816E+03</pdfrwt>
<pdfrwt beam="2">  1       -2 0.11822586E-02 0.25973816E+03</pdfrwt>
<totfact> 0.14120100E+04</totfact>
</mgrwt>
</event>
<event>
 4    1  0.1305170E-003  0.2678910E+03  0.7818608E-02  0.1102493E+00
          2   -1    0    0  501    0  0.00000000000E+00  0.00000000000E+00  0.60028771560E+03  0.60028771561E+03  0.25500000000E-02 0.  1.
         -2   -1    0    0    0  501 -0.00000000000E+00 -0.00000000000E+00 -0.29887987457E+02  0.29887987566E+02  0.25500000000E-02 0. -1.
    5000001    1    1    2    0    0  0.11183775727E+02 -0.10122705873E+03  0.38047468536E+03  0.40132528012E+03  0.77000000000E+02 0.  0.
   -5000001    1    1    2    0    0 -0.11183775727E+02  0.10122705873E+03  0.18992504278E+03  0.22885042306E+03  0.77000000000E+02 0.  0.
<mgrwt>
<rscale>  0 0.26789096E+03</rscale>
<asrwt>0</asrwt>
<pdfrwt beam="1">  1        2 0.85755390E-01 0.26789096E+03</pdfrwt>
<pdfrwt beam="2">  1       -2 0.42697124E-02 0.26789096E+03</pdfrwt>
<totfact> 0.13593896E+04</totfact>
</mgrwt>
</event>
<event>
 4    1  0.1305170E-003  0.1826046E+03  0.7818608E-02  0.1165306E+00
         -2   -1    0    0    0  501 -0.00000000000E+00  0.00000000000E+00  0.49920657602E+01  0.49920664115E+01  0.25500000000E-02 0. -1.
          2   -1    0    0  501    0  0.00000000000E+00 -0.00000000000E+00 -0.16698719647E+04  0.16698719647E+04  0.25500000000E-02 0.  1.
    5000001    1    1    2    0    0 -0.44973471399E+02 -0.11751180642E+02 -0.97641759340E+03  0.98055138574E+03  0.77000000000E+02 0.  0.
   -5000001    1    1    2    0    0  0.44973471399E+02  0.11751180642E+02 -0.68846230556E+03  0.69431264539E+03  0.77000000000E+02 0.  0.
<mgrwt>
<rscale>  0 0.18260461E+03</rscale>
<asrwt>0</asrwt>
<pdfrwt beam="1">  1        2 0.23855278E+00 0.18260461E+03</pdfrwt>
<pdfrwt beam="2">  1       -2 0.71315337E-03 0.18260461E+03</pdfrwt>
<totfact> 0.43483796E+04</totfact>
</mgrwt>
</event>
<event>
 4    1  0.1305170E-003  0.1758225E+03  0.7818608E-02  0.1171908E+00
          2   -1    0    0  501    0  0.00000000000E+00  0.00000000000E+00  0.10461379361E+03  0.10461379365E+03  0.25500000000E-02 0.  1.
         -2   -1    0    0    0  501 -0.00000000000E+00 -0.00000000000E+00 -0.73875415957E+02  0.73875416001E+02  0.25500000000E-02 0. -1.
    5000001    1    1    2    0    0  0.21357796272E+02  0.10538480454E+02  0.51003903037E+02  0.95381408864E+02  0.77000000000E+02 0.  0.
   -5000001    1    1    2    0    0 -0.21357796272E+02 -0.10538480454E+02 -0.20265525379E+02  0.83107800782E+02  0.77000000000E+02 0.  0.
<mgrwt>
<rscale>  0 0.17582250E+03</rscale>
<asrwt>0</asrwt>
<pdfrwt beam="1">  1        2 0.14944828E-01 0.17582250E+03</pdfrwt>
<pdfrwt beam="2">  1       -2 0.10553631E-01 0.17582250E+03</pdfrwt>
<totfact> 0.22593388E+04</totfact>
</mgrwt>
</event>
<event>
 4    1  0.1305170E-003  0.2716881E+03  0.7818608E-02  0.1100317E+00
          2   -1    0    0  501    0  0.00000000000E+00  0.00000000000E+00  0.63285891816E+03  0.63285891816E+03  0.25500000000E-02 0.  1.
         -2   -1    0    0    0  501 -0.00000000000E+00 -0.00000000000E+00 -0.29159121472E+02  0.29159121583E+02  0.25500000000E-02 0. -1.
    5000001    1    1    2    0    0 -0.59229179688E+02  0.77031715892E+02  0.43713806045E+03  0.45437942831E+03  0.77000000000E+02 0.  0.
   -5000001    1    1    2    0    0  0.59229179688E+02 -0.77031715892E+02  0.16656173623E+03  0.20763861143E+03  0.77000000000E+02 0.  0.
<mgrwt>
<rscale>  0 0.27168813E+03</rscale>
<asrwt>0</asrwt>
<pdfrwt beam="1">  1        2 0.90408415E-01 0.27168813E+03</pdfrwt>
<pdfrwt beam="2">  1       -2 0.41655889E-02 0.27168813E+03</pdfrwt>
<totfact> 0.13287176E+04</totfact>
</mgrwt>
</event>
<event>
 4    1  0.1305170E-003  0.1709606E+03  0.7818608E-02  0.1176850E+00
          2   -1    0    0  501    0  0.00000000000E+00  0.00000000000E+00  0.37597921382E+04  0.37597921382E+04  0.25500000000E-02 0.  1.
         -2   -1    0    0    0  501 -0.00000000000E+00 -0.00000000000E+00 -0.19434253870E+01  0.19434270599E+01  0.25500000000E-02 0. -1.
    5000001    1    1    2    0    0  0.12575272721E+02 -0.29188397524E+02  0.14569504938E+04  0.14593299290E+04  0.77000000000E+02 0.  0.
   -5000001    1    1    2    0    0 -0.12575272721E+02  0.29188397524E+02  0.23008982190E+04  0.23024056363E+04  0.77000000000E+02 0.  0.
<mgrwt>
<rscale>  0 0.17096056E+03</rscale>
<asrwt>0</asrwt>
<pdfrwt beam="1">  1        2 0.53711887E+00 0.17096056E+03</pdfrwt>
<pdfrwt beam="2">  1       -2 0.27762937E-03 0.17096056E+03</pdfrwt>
<totfact> 0.13857288E+04</totfact>
</mgrwt>
</event>
<event>
 4    1  0.1305170E-003  0.1742644E+03  0.7818608E-02  0.1173472E+00
          2   -1    0    0  501    0  0.00000000000E+00  0.00000000000E+00  0.62754818658E+03  0.62754818658E+03  0.25500000000E-02 0.  1.
         -2   -1    0    0    0  501 -0.00000000000E+00 -0.00000000000E+00 -0.12097912487E+02  0.12097912756E+02  0.25500000000E-02 0. -1.
    5000001    1    1    2    0    0  0.83693254979E+01  0.38131276071E+02  0.35099767010E+03  0.36145871720E+03  0.77000000000E+02 0.  0.
   -5000001    1    1    2    0    0 -0.83693254979E+01 -0.38131276071E+02  0.26445260399E+03  0.27818738214E+03  0.77000000000E+02 0.  0.
<mgrwt>
<rscale>  0 0.17426443E+03</rscale>
<asrwt>0</asrwt>
<pdfrwt beam="1">  1        2 0.89649738E-01 0.17426443E+03</pdfrwt>
<pdfrwt beam="2">  1       -2 0.17282733E-02 0.17426443E+03</pdfrwt>
<totfact> 0.47757389E+04</totfact>
</mgrwt>
</event>
<event>
 4    1  0.1305170E-003  0.2084683E+03  0.7818608E-02  0.1142785E+00
          2   -1    0    0  501    0  0.00000000000E+00  0.00000000000E+00  0.13971019647E+03  0.13971019649E+03  0.25500000000E-02 0.  1.
         -2   -1    0    0    0  501 -0.00000000000E+00 -0.00000000000E+00 -0.77766367189E+02  0.77766367230E+02  0.25500000000E-02 0. -1.
    5000001    1    1    2    0    0  0.41679233789E+02  0.98150583260E+01 -0.27132836273E+02  0.92188311099E+02  0.77000000000E+02 0.  0.
   -5000001    1    1    2    0    0 -0.41679233789E+02 -0.98150583260E+01  0.89076665551E+02  0.12528825262E+03  0.77000000000E+02 0.  0.
<mgrwt>
<rscale>  0 0.20846827E+03</rscale>
<asrwt>0</asrwt>
<pdfrwt beam="1">  1        2 0.19958599E-01 0.20846827E+03</pdfrwt>
<pdfrwt beam="2">  1       -2 0.11109481E-01 0.20846827E+03</pdfrwt>
<totfact> 0.15093652E+04</totfact>
</mgrwt>
</event>
<event>
 4    1  0.1305170E-003  0.3153778E+03  0.7818608E-02  0.1077796E+00
          2   -1    0    0  501    0  0.00000000000E+00  0.00000000000E+00  0.18791379010E+03  0.18791379012E+03  0.25500000000E-02 0.  1.
         -2   -1    0    0    0  501 -0.00000000000E+00 -0.00000000000E+00 -0.13232549120E+03  0.13232549122E+03  0.25500000000E-02 0. -1.
    5000001    1    1    2    0    0 -0.11114558642E+03  0.45900173169E+02 -0.40144750100E+02  0.14832655945E+03  0.77000000000E+02 0.  0.
   -5000001    1    1    2    0    0  0.11114558642E+03 -0.45900173169E+02  0.95733048998E+02  0.17191272189E+03  0.77000000000E+02 0.  0.
<mgrwt>
<rscale>  0 0.31537777E+03</rscale>
<asrwt>0</asrwt>
<pdfrwt beam="1">  1        2 0.26844827E-01 0.31537777E+03</pdfrwt>
<pdfrwt beam="2">  1       -2 0.18903642E-01 0.31537777E+03</pdfrwt>
<totfact> 0.45965351E+03</totfact>
</mgrwt>
</event>
<event>
 4    1  0.1305170E-003  0.2459693E+03  0.7818608E-02  0.1115879E+00
         -2   -1    0    0    0  501 -0.00000000000E+00  0.00000000000E+00  0.70985496960E+02  0.70985497006E+02  0.25500000000E-02 0. -1.
          2   -1    0    0  501    0  0.00000000000E+00 -0.00000000000E+00 -0.21307492798E+03  0.21307492800E+03  0.25500000000E-02 0.  1.
    5000001    1    1    2    0    0  0.72947613383E+02  0.61250529281E+02 -0.83865651554E+02  0.14844335332E+03  0.77000000000E+02 0.  0.
   -5000001    1    1    2    0    0 -0.72947613383E+02 -0.61250529281E+02 -0.58223779470E+02  0.13561707168E+03  0.77000000000E+02 0.  0.
<mgrwt>
<rscale>  0 0.24596934E+03</rscale>
<asrwt>0</asrwt>
<pdfrwt beam="1">  1        2 0.30439275E-01 0.24596934E+03</pdfrwt>
<pdfrwt beam="2">  1       -2 0.10140785E-01 0.24596934E+03</pdfrwt>
<totfact> 0.11009228E+04</totfact>
</mgrwt>
</event>
<event>
 4    1  0.1305170E-003  0.1833710E+03  0.7818608E-02  0.1164580E+00
         -2   -1    0    0    0  501 -0.00000000000E+00  0.00000000000E+00  0.69335139078E+02  0.69335139125E+02  0.25500000000E-02 0. -1.
          2   -1    0    0  501    0  0.00000000000E+00 -0.00000000000E+00 -0.12124055493E+03  0.12124055495E+03  0.25500000000E-02 0.  1.
    5000001    1    1    2    0    0  0.29768133985E+02  0.36878971669E+02 -0.41749591553E+02  0.99590304484E+02  0.77000000000E+02 0.  0.
   -5000001    1    1    2    0    0 -0.29768133985E+02 -0.36878971669E+02 -0.10155824294E+02  0.90985389593E+02  0.77000000000E+02 0.  0.
<mgrwt>
<rscale>  0 0.18337100E+03</rscale>
<asrwt>0</asrwt>
<pdfrwt beam="1">  1        2 0.17320079E-01 0.18337100E+03</pdfrwt>
<pdfrwt beam="2">  1       -2 0.99050199E-02 0.18337100E+03</pdfrwt>
<totfact> 0.21104234E+04</totfact>
</mgrwt>
</event>
<event>
 4    1  0.1305170E-003  0.2748331E+03  0.7818608E-02  0.1098545E+00
         -2   -1    0    0    0  501 -0.00000000000E+00  0.00000000000E+00  0.74448056139E+02  0.74448056183E+02  0.25500000000E-02 0. -1.
          2   -1    0    0  501    0  0.00000000000E+00 -0.00000000000E+00 -0.25364398895E+03  0.25364398896E+03  0.25500000000E-02 0.  1.
    5000001    1    1    2    0    0  0.16276579193E+02  0.10932141596E+03 -0.57162913141E+02  0.14633078165E+03  0.77000000000E+02 0.  0.
   -5000001    1    1    2    0    0 -0.16276579193E+02 -0.10932141596E+03 -0.12203301967E+03  0.18176126349E+03  0.77000000000E+02 0.  0.
<mgrwt>
<rscale>  0 0.27483305E+03</rscale>
<asrwt>0</asrwt>
<pdfrwt beam="1">  1        2 0.36234855E-01 0.27483305E+03</pdfrwt>
<pdfrwt beam="2">  1       -2 0.10635437E-01 0.27483305E+03</pdfrwt>
<totfact> 0.84857721E+03</totfact>
</mgrwt>
</event>
<event>
 4    1  0.1305170E-003  0.2048684E+03  0.7818608E-02  0.1145695E+00
         -2   -1    0    0    0  501 -0.00000000000E+00  0.00000000000E+00  0.14104097861E+02  0.14104098091E+02  0.25500000000E-02 0. -1.
          2   -1    0    0  501    0  0.00000000000E+00 -0.00000000000E+00 -0.74395182917E+03  0.74395182918E+03  0.25500000000E-02 0.  1.
    5000001    1    1    2    0    0  0.28313316871E+01  0.33813111880E+02 -0.14877257150E+03  0.17091992571E+03  0.77000000000E+02 0.  0.
   -5000001    1    1    2    0    0 -0.28313316871E+01 -0.33813111880E+02 -0.58107515982E+03  0.58713600156E+03  0.77000000000E+02 0.  0.
<mgrwt>
<rscale>  0 0.20486844E+03</rscale>
<asrwt>0</asrwt>
<pdfrwt beam="1">  1        2 0.10627881E+00 0.20486844E+03</pdfrwt>
<pdfrwt beam="2">  1       -2 0.20148716E-02 0.20486844E+03</pdfrwt>
<totfact> 0.31734181E+04</totfact>
</mgrwt>
</event>
<event>
 4    1  0.1305170E-003  0.2615545E+03  0.7818608E-02  0.1106213E+00
          2   -1    0    0  501    0  0.00000000000E+00  0.00000000000E+00  0.40009755517E+03  0.40009755518E+03  0.25500000000E-02 0.  1.
         -2   -1    0    0    0  501 -0.00000000000E+00 -0.00000000000E+00 -0.42746285931E+02  0.42746286007E+02  0.25500000000E-02 0. -1.
    5000001    1    1    2    0    0  0.88918734755E+02 -0.54175683150E+02  0.14781903495E+03  0.19652229677E+03  0.77000000000E+02 0.  0.
   -5000001    1    1    2    0    0 -0.88918734755E+02  0.54175683150E+02  0.20953223429E+03  0.24632154441E+03  0.77000000000E+02 0.  0.
<mgrwt>
<rscale>  0 0.26155446E+03</rscale>
<asrwt>0</asrwt>
<pdfrwt beam="1">  1        2 0.57156795E-01 0.26155446E+03</pdfrwt>
<pdfrwt beam="2">  1       -2 0.61066121E-02 0.26155446E+03</pdfrwt>
<totfact> 0.12337352E+04</totfact>
</mgrwt>
</event>
<event>
 4    1  0.1305170E-003  0.2560648E+03  0.7818608E-02  0.1109531E+00
         -2   -1    0    0    0  501 -0.00000000000E+00  0.00000000000E+00  0.24949790727E+02  0.24949790858E+02  0.25500000000E-02 0. -1.
          2   -1    0    0  501    0  0.00000000000E+00 -0.00000000000E+00 -0.65701139334E+03  0.65701139335E+03  0.25500000000E-02 0.  1.
    5000001    1    1    2    0    0 -0.29785755658E+02  0.97857553186E+02 -0.31621646149E+03  0.34115266740E+03  0.77000000000E+02 0.  0.
   -5000001    1    1    2    0    0  0.29785755658E+02 -0.97857553186E+02 -0.31584514113E+03  0.34080851681E+03  0.77000000000E+02 0.  0.
<mgrwt>
<rscale>  0 0.25606481E+03</rscale>
<asrwt>0</asrwt>
<pdfrwt beam="1">  1        2 0.93858760E-01 0.25606481E+03</pdfrwt>
<pdfrwt beam="2">  1       -2 0.35642562E-02 0.25606481E+03</pdfrwt>
<totfact> 0.16031645E+04</totfact>
</mgrwt>
</event>
<event>
 4    1  0.1305170E-003  0.3520251E+03  0.7818608E-02  0.1061787E+00
         -2   -1    0    0    0  501 -0.00000000000E+00  0.00000000000E+00  0.60354266360E+02  0.60354266414E+02  0.25500000000E-02 0. -1.
          2   -1    0    0  501    0  0.00000000000E+00 -0.00000000000E+00 -0.51330953414E+03  0.51330953415E+03  0.25500000000E-02 0.  1.
    5000001    1    1    2    0    0  0.96792880664E+02  0.85432030186E+02 -0.77264333358E+02  0.16901559318E+03  0.77000000000E+02 0.  0.
   -5000001    1    1    2    0    0 -0.96792880664E+02 -0.85432030186E+02 -0.37569093442E+03  0.40464820738E+03  0.77000000000E+02 0.  0.
<mgrwt>
<rscale>  0 0.35202511E+03</rscale>
<asrwt>0</asrwt>
<pdfrwt beam="1">  1        2 0.73329931E-01 0.35202511E+03</pdfrwt>
<pdfrwt beam="2">  1       -2 0.86220383E-02 0.35202511E+03</pdfrwt>
<totfact> 0.55446602E+03</totfact>
</mgrwt>
</event>
<event>
 4    1  0.1305170E-003  0.1797384E+03  0.7818608E-02  0.1168056E+00
          2   -1    0    0  501    0  0.00000000000E+00  0.00000000000E+00  0.88841596260E+02  0.88841596296E+02  0.25500000000E-02 0.  1.
         -2   -1    0    0    0  501 -0.00000000000E+00 -0.00000000000E+00 -0.90908656565E+02  0.90908656600E+02  0.25500000000E-02 0. -1.
    5000001    1    1    2    0    0 -0.45968205052E+02 -0.58612935959E+01 -0.12323679576E+01  0.89877413008E+02  0.77000000000E+02 0.  0.
   -5000001    1    1    2    0    0  0.45968205052E+02  0.58612935959E+01 -0.83469234710E+00  0.89872839888E+02  0.77000000000E+02 0.  0.
<mgrwt>
<rscale>  0 0.17973837E+03</rscale>
<asrwt>0</asrwt>
<pdfrwt beam="1">  1        2 0.12691657E-01 0.17973837E+03</pdfrwt>
<pdfrwt beam="2">  1       -2 0.12986951E-01 0.17973837E+03</pdfrwt>
<totfact> 0.19722934E+04</totfact>
</mgrwt>
</event>
<event>
 4    1  0.1305170E-003  0.3446241E+03  0.7818608E-02  0.1064843E+00
         -2   -1    0    0    0  501 -0.00000000000E+00  0.00000000000E+00  0.23142186105E+02  0.23142186245E+02  0.25500000000E-02 0. -1.
          2   -1    0    0  501    0  0.00000000000E+00 -0.00000000000E+00 -0.12830009963E+04  0.12830009963E+04  0.25500000000E-02 0.  1.
    5000001    1    1    2    0    0  0.95958427254E+02  0.11229431610E+03 -0.79705368745E+03  0.81427367258E+03  0.77000000000E+02 0.  0.
   -5000001    1    1    2    0    0 -0.95958427254E+02 -0.11229431610E+03 -0.46280512271E+03  0.49186950992E+03  0.77000000000E+02 0.  0.
<mgrwt>
<rscale>  0 0.34462413E+03</rscale>
<asrwt>0</asrwt>
<pdfrwt beam="1">  1        2 0.18328581E+00 0.34462413E+03</pdfrwt>
<pdfrwt beam="2">  1       -2 0.33060274E-02 0.34462413E+03</pdfrwt>
<totfact> 0.74361638E+03</totfact>
</mgrwt>
</event>
<event>
 4    1  0.1305170E-003  0.3175640E+03  0.7818608E-02  0.1076776E+00
          2   -1    0    0  501    0  0.00000000000E+00  0.00000000000E+00  0.26708495772E+03  0.26708495773E+03  0.25500000000E-02 0.  1.
         -2   -1    0    0    0  501 -0.00000000000E+00 -0.00000000000E+00 -0.94395885066E+02  0.94395885100E+02  0.25500000000E-02 0. -1.
    5000001    1    1    2    0    0 -0.29887790865E+02 -0.48138816045E+02 -0.57963425985E+02  0.11180064582E+03  0.77000000000E+02 0.  0.
   -5000001    1    1    2    0    0  0.29887790865E+02  0.48138816045E+02  0.23065249864E+03  0.24968019702E+03  0.77000000000E+02 0.  0.
<mgrwt>
<rscale>  0 0.31756398E+03</rscale>
<asrwt>0</asrwt>
<pdfrwt beam="1">  1        2 0.38154994E-01 0.31756398E+03</pdfrwt>
<pdfrwt beam="2">  1       -2 0.13485127E-01 0.31756398E+03</pdfrwt>
<totfact> 0.54930886E+03</totfact>
</mgrwt>
</event>
<event>
 4    1  0.1305170E-003  0.2476859E+03  0.7818608E-02  0.1114776E+00
          2   -1    0    0  501    0  0.00000000000E+00  0.00000000000E+00  0.55836575935E+03  0.55836575936E+03  0.25500000000E-02 0.  1.
         -2   -1    0    0    0  501 -0.00000000000E+00 -0.00000000000E+00 -0.27467790703E+02  0.27467790821E+02  0.25500000000E-02 0. -1.
    5000001    1    1    2    0    0 -0.42043338202E+02 -0.70460927750E+02  0.38779527995E+03  0.40379024725E+03  0.77000000000E+02 0.  0.
   -5000001    1    1    2    0    0  0.42043338202E+02  0.70460927750E+02  0.14310268870E+03  0.18204330293E+03  0.77000000000E+02 0.  0.
<mgrwt>
<rscale>  0 0.24768588E+03</rscale>
<asrwt>0</asrwt>
<pdfrwt beam="1">  1        2 0.79766530E-01 0.24768588E+03</pdfrwt>
<pdfrwt beam="2">  1       -2 0.39239704E-02 0.24768588E+03</pdfrwt>
<totfact> 0.16687577E+04</totfact>
</mgrwt>
</event>
<event>
 4    1  0.1305170E-003  0.6242645E+03  0.7818608E-02  0.9856306E-01
         -2   -1    0    0    0  501 -0.00000000000E+00  0.00000000000E+00  0.21056007991E+03  0.21056007993E+03  0.25500000000E-02 0. -1.
          2   -1    0    0  501    0  0.00000000000E+00 -0.00000000000E+00 -0.46270181039E+03  0.46270181040E+03  0.25500000000E-02 0.  1.
    5000001    1    1    2    0    0 -0.64044362334E+02  0.28301218669E+03 -0.33925091424E+02  0.30212164767E+03  0.77000000000E+02 0.  0.
   -5000001    1    1    2    0    0  0.64044362334E+02 -0.28301218669E+03 -0.21821663905E+03  0.37114024266E+03  0.77000000000E+02 0.  0.
<mgrwt>
<rscale>  0 0.62426446E+03</rscale>
<asrwt>0</asrwt>
<pdfrwt beam="1">  1        2 0.66100258E-01 0.62426446E+03</pdfrwt>
<pdfrwt beam="2">  1       -2 0.30080012E-01 0.62426446E+03</pdfrwt>
<totfact> 0.75140834E+02</totfact>
</mgrwt>
</event>
<event>
 4    1  0.1305170E-003  0.1689906E+03  0.7818608E-02  0.1178905E+00
          2   -1    0    0  501    0  0.00000000000E+00  0.00000000000E+00  0.53259205548E+02  0.53259205609E+02  0.25500000000E-02 0.  1.
         -2   -1    0    0    0  501 -0.00000000000E+00 -0.00000000000E+00 -0.13405119066E+03  0.13405119068E+03  0.25500000000E-02 0. -1.
    5000001    1    1    2    0    0  0.27077646574E+01 -0.32598713957E+02 -0.27260001710E+02  0.87989293862E+02  0.77000000000E+02 0.  0.
   -5000001    1    1    2    0    0 -0.27077646574E+01  0.32598713957E+02 -0.53531983399E+02  0.99321102429E+02  0.77000000000E+02 0.  0.
<mgrwt>
<rscale>  0 0.16899065E+03</rscale>
<asrwt>0</asrwt>
<pdfrwt beam="1">  1        2 0.76084580E-02 0.16899065E+03</pdfrwt>
<pdfrwt beam="2">  1       -2 0.19150170E-01 0.16899065E+03</pdfrwt>
<totfact> 0.19434719E+04</totfact>
</mgrwt>
</event>
<event>
 4    1  0.1305170E-003  0.1989734E+03  0.7818608E-02  0.1150608E+00
         -2   -1    0    0    0  501 -0.00000000000E+00  0.00000000000E+00  0.95015601213E+01  0.95015604635E+01  0.25500000000E-02 0. -1.
          2   -1    0    0  501    0  0.00000000000E+00 -0.00000000000E+00 -0.10416818071E+04  0.10416818071E+04  0.25500000000E-02 0.  1.
    5000001    1    1    2    0    0  0.52690345970E+02 -0.29569878963E+02 -0.61029305054E+03  0.61809162577E+03  0.77000000000E+02 0.  0.
   -5000001    1    1    2    0    0 -0.52690345970E+02  0.29569878963E+02 -0.42188719645E+03  0.43309174181E+03  0.77000000000E+02 0.  0.
<mgrwt>
<rscale>  0 0.19897339E+03</rscale>
<asrwt>0</asrwt>
<pdfrwt beam="1">  1        2 0.14881161E+00 0.19897339E+03</pdfrwt>
<pdfrwt beam="2">  1       -2 0.13573664E-02 0.19897339E+03</pdfrwt>
<totfact> 0.36627933E+04</totfact>
</mgrwt>
</event>
<event>
 4    1  0.1305170E-003  0.2238641E+03  0.7818608E-02  0.1131035E+00
         -2   -1    0    0    0  501 -0.00000000000E+00  0.00000000000E+00  0.14117387124E+03  0.14117387126E+03  0.25500000000E-02 0. -1.
          2   -1    0    0  501    0  0.00000000000E+00 -0.00000000000E+00 -0.88747178231E+02  0.88747178267E+02  0.25500000000E-02 0.  1.
    5000001    1    1    2    0    0 -0.47836331656E+02  0.61055970893E+02  0.51025560899E+02  0.12061821617E+03  0.77000000000E+02 0.  0.
   -5000001    1    1    2    0    0  0.47836331656E+02 -0.61055970893E+02  0.14011321086E+01  0.10930283335E+03  0.77000000000E+02 0.  0.
<mgrwt>
<rscale>  0 0.22386409E+03</rscale>
<asrwt>0</asrwt>
<pdfrwt beam="1">  1        2 0.12678168E-01 0.22386409E+03</pdfrwt>
<pdfrwt beam="2">  1       -2 0.20167696E-01 0.22386409E+03</pdfrwt>
<totfact> 0.96642476E+03</totfact>
</mgrwt>
</event>
<event>
 4    1  0.1305170E-003  0.3488921E+03  0.7818608E-02  0.1063071E+00
         -2   -1    0    0    0  501 -0.00000000000E+00  0.00000000000E+00  0.72300403432E+02  0.72300403477E+02  0.25500000000E-02 0. -1.
          2   -1    0    0  501    0  0.00000000000E+00 -0.00000000000E+00 -0.42090253156E+03  0.42090253157E+03  0.25500000000E-02 0.  1.
    5000001    1    1    2    0    0 -0.21992646634E+01 -0.15440816116E+03 -0.13810269049E+03  0.22101599516E+03  0.77000000000E+02 0.  0.
   -5000001    1    1    2    0    0  0.21992646634E+01  0.15440816116E+03 -0.21049943764E+03  0.27218693989E+03  0.77000000000E+02 0.  0.
<mgrwt>
<rscale>  0 0.34889209E+03</rscale>
<asrwt>0</asrwt>
<pdfrwt beam="1">  1        2 0.60128932E-01 0.34889209E+03</pdfrwt>
<pdfrwt beam="2">  1       -2 0.10328629E-01 0.34889209E+03</pdfrwt>
<totfact> 0.51793403E+03</totfact>
</mgrwt>
</event>
<event>
 4    1  0.1305170E-003  0.1951857E+03  0.7818608E-02  0.1153866E+00
         -2   -1    0    0    0  501 -0.00000000000E+00  0.00000000000E+00  0.45155293520E+01  0.45155300720E+01  0.25500000000E-02 0. -1.
          2   -1    0    0  501    0  0.00000000000E+00 -0.00000000000E+00 -0.21092459058E+04  0.21092459058E+04  0.25500000000E-02 0.  1.
    5000001    1    1    2    0    0  0.46348848746E+02  0.25274595541E+02 -0.13602622044E+04  0.13634622421E+04  0.77000000000E+02 0.  0.
   -5000001    1    1    2    0    0 -0.46348848746E+02 -0.25274595541E+02 -0.74446817213E+03  0.75029919383E+03  0.77000000000E+02 0.  0.
<mgrwt>
<rscale>  0 0.19518568E+03</rscale>
<asrwt>0</asrwt>
<pdfrwt beam="1">  1        2 0.30132021E+00 0.19518568E+03</pdfrwt>
<pdfrwt beam="2">  1       -2 0.64507702E-03 0.19518568E+03</pdfrwt>
<totfact> 0.30938177E+04</totfact>
</mgrwt>
</event>
<event>
 4    1  0.1305170E-003  0.2129965E+03  0.7818608E-02  0.1139215E+00
         -2   -1    0    0    0  501 -0.00000000000E+00  0.00000000000E+00  0.86342020345E+01  0.86342024110E+01  0.25500000000E-02 0. -1.
          2   -1    0    0  501    0  0.00000000000E+00 -0.00000000000E+00 -0.13135982445E+04  0.13135982445E+04  0.25500000000E-02 0.  1.
    5000001    1    1    2    0    0  0.64216955445E+02 -0.44491600039E+01 -0.43131986866E+03  0.44284245674E+03  0.77000000000E+02 0.  0.
   -5000001    1    1    2    0    0 -0.64216955445E+02  0.44491600039E+01 -0.87364417379E+03  0.87938999016E+03  0.77000000000E+02 0.  0.
<mgrwt>
<rscale>  0 0.21299646E+03</rscale>
<asrwt>0</asrwt>
<pdfrwt beam="1">  1        2 0.18765676E+00 0.21299646E+03</pdfrwt>
<pdfrwt beam="2">  1       -2 0.12334583E-02 0.21299646E+03</pdfrwt>
<totfact> 0.30085503E+04</totfact>
</mgrwt>
</event>
<event>
 4    1  0.1305170E-003  0.2678074E+03  0.7818608E-02  0.1102541E+00
         -2   -1    0    0    0  501 -0.00000000000E+00  0.00000000000E+00  0.38507072365E+01  0.38507080808E+01  0.25500000000E-02 0. -1.
          2   -1    0    0  501    0  0.00000000000E+00 -0.00000000000E+00 -0.46563403160E+04  0.46563403160E+04  0.25500000000E-02 0.  1.
    5000001    1    1    2    0    0  0.10125909606E+03  0.81026868051E+01 -0.30399405321E+04  0.30426117888E+04  0.77000000000E+02 0.  0.
   -5000001    1    1    2    0    0 -0.10125909606E+03 -0.81026868051E+01 -0.16125490766E+04  0.16175792353E+04  0.77000000000E+02 0.  0.
<mgrwt>
<rscale>  0 0.26780743E+03</rscale>
<asrwt>0</asrwt>
<pdfrwt beam="1">  1        2 0.66518787E+00 0.26780743E+03</pdfrwt>
<pdfrwt beam="2">  1       -2 0.55010408E-03 0.26780743E+03</pdfrwt>
<totfact> 0.12381241E+03</totfact>
</mgrwt>
</event>
<event>
 4    1  0.1305170E-003  0.1718262E+03  0.7818608E-02  0.1175957E+00
          2   -1    0    0  501    0  0.00000000000E+00  0.00000000000E+00  0.58273622425E+03  0.58273622426E+03  0.25500000000E-02 0.  1.
         -2   -1    0    0    0  501 -0.00000000000E+00 -0.00000000000E+00 -0.12666218536E+02  0.12666218793E+02  0.25500000000E-02 0. -1.
    5000001    1    1    2    0    0  0.12440497182E+02  0.24708884926E+02  0.19422648001E+03  0.21075630596E+03  0.77000000000E+02 0.  0.
   -5000001    1    1    2    0    0 -0.12440497182E+02 -0.24708884926E+02  0.37584352570E+03  0.38464613709E+03  0.77000000000E+02 0.  0.
<mgrwt>
<rscale>  0 0.17182624E+03</rscale>
<asrwt>0</asrwt>
<pdfrwt beam="1">  1        2 0.83248055E-01 0.17182624E+03</pdfrwt>
<pdfrwt beam="2">  1       -2 0.18094593E-02 0.17182624E+03</pdfrwt>
<totfact> 0.48508397E+04</totfact>
</mgrwt>
</event>
<event>
 4    1  0.1305170E-003  0.2680483E+03  0.7818608E-02  0.1102402E+00
         -2   -1    0    0    0  501 -0.00000000000E+00  0.00000000000E+00  0.73114498280E+01  0.73114502727E+01  0.25500000000E-02 0. -1.
          2   -1    0    0  501    0  0.00000000000E+00 -0.00000000000E+00 -0.24567586551E+04  0.24567586551E+04  0.25500000000E-02 0.  1.
    5000001    1    1    2    0    0  0.82559746549E+02 -0.54376335087E+02 -0.16617916907E+04  0.16665093821E+04  0.77000000000E+02 0.  0.
   -5000001    1    1    2    0    0 -0.82559746549E+02  0.54376335087E+02 -0.78765551455E+03  0.79756072319E+03  0.77000000000E+02 0.  0.
<mgrwt>
<rscale>  0 0.26804827E+03</rscale>
<asrwt>0</asrwt>
<pdfrwt beam="1">  1        2 0.35096499E+00 0.26804827E+03</pdfrwt>
<pdfrwt beam="2">  1       -2 0.10444944E-02 0.26804827E+03</pdfrwt>
<totfact> 0.10541829E+04</totfact>
</mgrwt>
</event>
<event>
 4    1  0.1305170E-003  0.1709191E+03  0.7818608E-02  0.1176893E+00
          2   -1    0    0  501    0  0.00000000000E+00  0.00000000000E+00  0.39005492333E+02  0.39005492417E+02  0.25500000000E-02 0.  1.
         -2   -1    0    0    0  501 -0.00000000000E+00 -0.00000000000E+00 -0.18723861641E+03  0.18723861642E+03  0.25500000000E-02 0. -1.
    5000001    1    1    2    0    0  0.27754039309E+02 -0.21301639532E+02 -0.90343952037E+02  0.12375409575E+03  0.77000000000E+02 0.  0.
   -5000001    1    1    2    0    0 -0.27754039309E+02  0.21301639532E+02 -0.57889172037E+02  0.10249001309E+03  0.77000000000E+02 0.  0.
<mgrwt>
<rscale>  0 0.17091910E+03</rscale>
<asrwt>0</asrwt>
<pdfrwt beam="1">  1        2 0.55722133E-02 0.17091910E+03</pdfrwt>
<pdfrwt beam="2">  1       -2 0.26748373E-01 0.17091910E+03</pdfrwt>
<totfact> 0.16292402E+04</totfact>
</mgrwt>
</event>
<event>
 4    1  0.1305170E-003  0.3285096E+03  0.7818608E-02  0.1071798E+00
         -2   -1    0    0    0  501 -0.00000000000E+00  0.00000000000E+00  0.33215044813E+02  0.33215044911E+02  0.25500000000E-02 0. -1.
          2   -1    0    0  501    0  0.00000000000E+00 -0.00000000000E+00 -0.81227140573E+03  0.81227140573E+03  0.25500000000E-02 0.  1.
    5000001    1    1    2    0    0  0.10633512083E+03  0.93213463493E+02 -0.47311310618E+03  0.49976086175E+03  0.77000000000E+02 0.  0.
   -5000001    1    1    2    0    0 -0.10633512083E+03 -0.93213463493E+02 -0.30594325474E+03  0.34572558889E+03  0.77000000000E+02 0.  0.
<mgrwt>
<rscale>  0 0.32850955E+03</rscale>
<asrwt>0</asrwt>
<pdfrwt beam="1">  1        2 0.11603876E+00 0.32850955E+03</pdfrwt>
<pdfrwt beam="2">  1       -2 0.47450069E-02 0.32850955E+03</pdfrwt>
<totfact> 0.81375107E+03</totfact>
</mgrwt>
</event>
<event>
 4    1  0.1305170E-003  0.2914315E+03  0.7818608E-02  0.1089604E+00
         -2   -1    0    0    0  501 -0.00000000000E+00  0.00000000000E+00  0.26209796081E+03  0.26209796082E+03  0.25500000000E-02 0. -1.
          2   -1    0    0  501    0  0.00000000000E+00 -0.00000000000E+00 -0.81012018795E+02  0.81012018835E+02  0.25500000000E-02 0.  1.
    5000001    1    1    2    0    0  0.83129372154E+02 -0.15012605987E+01  0.19839105396E+03  0.22847484892E+03  0.77000000000E+02 0.  0.
   -5000001    1    1    2    0    0 -0.83129372154E+02  0.15012605987E+01 -0.17305111951E+02  0.11463513073E+03  0.77000000000E+02 0.  0.
<mgrwt>
<rscale>  0 0.29143154E+03</rscale>
<asrwt>0</asrwt>
<pdfrwt beam="1">  1        2 0.11573146E-01 0.29143154E+03</pdfrwt>
<pdfrwt beam="2">  1       -2 0.37442566E-01 0.29143154E+03</pdfrwt>
<totfact> 0.36044522E+03</totfact>
</mgrwt>
</event>
<event>
 4    1  0.1305170E-003  0.2434095E+03  0.7818608E-02  0.1117542E+00
          2   -1    0    0  501    0  0.00000000000E+00  0.00000000000E+00  0.10374473328E+03  0.10374473331E+03  0.25500000000E-02 0.  1.
         -2   -1    0    0    0  501 -0.00000000000E+00 -0.00000000000E+00 -0.14277399986E+03  0.14277399988E+03  0.25500000000E-02 0. -1.
    5000001    1    1    2    0    0 -0.56786411204E+02 -0.67189252238E+02  0.14739853104E+02  0.11783613785E+03  0.77000000000E+02 0.  0.
   -5000001    1    1    2    0    0  0.56786411204E+02  0.67189252238E+02 -0.53769119680E+02  0.12868259535E+03  0.77000000000E+02 0.  0.
<mgrwt>
<rscale>  0 0.24340954E+03</rscale>
<asrwt>0</asrwt>
<pdfrwt beam="1">  1        2 0.14820676E-01 0.24340954E+03</pdfrwt>
<pdfrwt beam="2">  1       -2 0.20396286E-01 0.24340954E+03</pdfrwt>
<totfact> 0.79019693E+03</totfact>
</mgrwt>
</event>
<event>
 4    1  0.1305170E-003  0.2333045E+03  0.7818608E-02  0.1124335E+00
         -2   -1    0    0    0  501 -0.00000000000E+00  0.00000000000E+00  0.29908208637E+02  0.29908208746E+02  0.25500000000E-02 0. -1.
          2   -1    0    0  501    0  0.00000000000E+00 -0.00000000000E+00 -0.45498355289E+03  0.45498355289E+03  0.25500000000E-02 0.  1.
    5000001    1    1    2    0    0 -0.41707582051E+02  0.74263021957E+02 -0.16973020898E+03  0.20491916131E+03  0.77000000000E+02 0.  0.
   -5000001    1    1    2    0    0  0.41707582051E+02 -0.74263021957E+02 -0.25534513527E+03  0.27997260033E+03  0.77000000000E+02 0.  0.
<mgrwt>
<rscale>  0 0.23330446E+03</rscale>
<asrwt>0</asrwt>
<pdfrwt beam="1">  1        2 0.64997646E-01 0.23330446E+03</pdfrwt>
<pdfrwt beam="2">  1       -2 0.42726015E-02 0.23330446E+03</pdfrwt>
<totfact> 0.18348676E+04</totfact>
</mgrwt>
</event>
<event>
 4    1  0.1305170E-003  0.2942900E+03  0.7818608E-02  0.1088130E+00
          2   -1    0    0  501    0  0.00000000000E+00  0.00000000000E+00  0.13655291793E+04  0.13655291793E+04  0.25500000000E-02 0.  1.
         -2   -1    0    0    0  501 -0.00000000000E+00 -0.00000000000E+00 -0.15855870182E+02  0.15855870387E+02  0.25500000000E-02 0. -1.
    5000001    1    1    2    0    0 -0.13743051515E+02  0.12437738099E+03  0.63727056581E+03  0.65398882132E+03  0.77000000000E+02 0.  0.
   -5000001    1    1    2    0    0  0.13743051515E+02 -0.12437738099E+03  0.71240274327E+03  0.72739622833E+03  0.77000000000E+02 0.  0.
<mgrwt>
<rscale>  0 0.29429002E+03</rscale>
<asrwt>0</asrwt>
<pdfrwt beam="1">  1        2 0.19507566E+00 0.29429002E+03</pdfrwt>
<pdfrwt beam="2">  1       -2 0.22651236E-02 0.29429002E+03</pdfrwt>
<totfact> 0.11779652E+04</totfact>
</mgrwt>
</event>
<event>
 4    1  0.1305170E-003  0.2646116E+03  0.7818608E-02  0.1104404E+00
         -2   -1    0    0    0  501 -0.00000000000E+00  0.00000000000E+00  0.10548070890E+03  0.10548070893E+03  0.25500000000E-02 0. -1.
          2   -1    0    0  501    0  0.00000000000E+00 -0.00000000000E+00 -0.16595287955E+03  0.16595287957E+03  0.25500000000E-02 0.  1.
    5000001    1    1    2    0    0  0.59694482049E+02  0.29433312129E+02 -0.11694994194E+03  0.15503560872E+03  0.77000000000E+02 0.  0.
   -5000001    1    1    2    0    0 -0.59694482049E+02 -0.29433312129E+02  0.56477771289E+02  0.11639797979E+03  0.77000000000E+02 0.  0.
<mgrwt>
<rscale>  0 0.26461162E+03</rscale>
<asrwt>0</asrwt>
<pdfrwt beam="1">  1        2 0.23707554E-01 0.26461162E+03</pdfrwt>
<pdfrwt beam="2">  1       -2 0.15068673E-01 0.26461162E+03</pdfrwt>
<totfact> 0.76761370E+03</totfact>
</mgrwt>
</event>
<event>
 4    1  0.1305170E-003  0.2026358E+03  0.7818608E-02  0.1147534E+00
         -2   -1    0    0    0  501 -0.00000000000E+00  0.00000000000E+00  0.60348145707E+01  0.60348151095E+01  0.25500000000E-02 0. -1.
          2   -1    0    0  501    0  0.00000000000E+00 -0.00000000000E+00 -0.17010155836E+04  0.17010155836E+04  0.25500000000E-02 0.  1.
    5000001    1    1    2    0    0  0.47620547869E+02 -0.45473299929E+02 -0.85491377275E+03  0.86089610083E+03  0.77000000000E+02 0.  0.
   -5000001    1    1    2    0    0 -0.47620547869E+02  0.45473299929E+02 -0.84006699623E+03  0.84615429783E+03  0.77000000000E+02 0.  0.
<mgrwt>
<rscale>  0 0.20263577E+03</rscale>
<asrwt>0</asrwt>
<pdfrwt beam="1">  1        2 0.24300192E+00 0.20263577E+03</pdfrwt>
<pdfrwt beam="2">  1       -2 0.86211749E-03 0.20263577E+03</pdfrwt>
<totfact> 0.32187388E+04</totfact>
</mgrwt>
</event>
<event>
 4    1  0.1305170E-003  0.2276271E+03  0.7818608E-02  0.1128321E+00
          2   -1    0    0  501    0  0.00000000000E+00  0.00000000000E+00  0.42076662341E+03  0.42076662341E+03  0.25500000000E-02 0.  1.
         -2   -1    0    0    0  501 -0.00000000000E+00 -0.00000000000E+00 -0.30785531462E+02  0.30785531568E+02  0.25500000000E-02 0. -1.
    5000001    1    1    2    0    0 -0.71105138526E+02 -0.30201021784E+02  0.25946904882E+03  0.28146266136E+03  0.77000000000E+02 0.  0.
   -5000001    1    1    2    0    0  0.71105138526E+02  0.30201021784E+02  0.13051204312E+03  0.17008949363E+03  0.77000000000E+02 0.  0.
<mgrwt>
<rscale>  0 0.22762710E+03</rscale>
<asrwt>0</asrwt>
<pdfrwt beam="1">  1        2 0.60109518E-01 0.22762710E+03</pdfrwt>
<pdfrwt beam="2">  1       -2 0.43979331E-02 0.22762710E+03</pdfrwt>
<totfact> 0.19091799E+04</totfact>
</mgrwt>
</event>
<event>
 4    1  0.1305170E-003  0.3226846E+03  0.7818608E-02  0.1074420E+00
          2   -1    0    0  501    0  0.00000000000E+00  0.00000000000E+00  0.35450026509E+03  0.35450026510E+03  0.25500000000E-02 0.  1.
         -2   -1    0    0    0  501 -0.00000000000E+00 -0.00000000000E+00 -0.73431065101E+02  0.73431065146E+02  0.25500000000E-02 0. -1.
    5000001    1    1    2    0    0 -0.75531667191E+02  0.11985418438E+03  0.13300068167E+03  0.20901731887E+03  0.77000000000E+02 0.  0.
   -5000001    1    1    2    0    0  0.75531667191E+02 -0.11985418438E+03  0.14806851832E+03  0.21891401138E+03  0.77000000000E+02 0.  0.
<mgrwt>
<rscale>  0 0.32268456E+03</rscale>
<asrwt>0</asrwt>
<pdfrwt beam="1">  1        2 0.50642895E-01 0.32268456E+03</pdfrwt>
<pdfrwt beam="2">  1       -2 0.10490152E-01 0.32268456E+03</pdfrwt>
<totfact> 0.60765311E+03</totfact>
</mgrwt>
</event>
<event>
 4    1  0.1305170E-003  0.1829513E+03  0.7818608E-02  0.1164977E+00
         -2   -1    0    0    0  501 -0.00000000000E+00  0.00000000000E+00  0.58351742117E+02  0.58351742173E+02  0.25500000000E-02 0. -1.
          2   -1    0    0  501    0  0.00000000000E+00 -0.00000000000E+00 -0.14340267530E+03  0.14340267533E+03  0.25500000000E-02 0.  1.
    5000001    1    1    2    0    0 -0.46844960176E+02  0.48510239513E+01 -0.58912488758E+02  0.10778526828E+03  0.77000000000E+02 0.  0.
   -5000001    1    1    2    0    0  0.46844960176E+02 -0.48510239513E+01 -0.26138444428E+02  0.93969149216E+02  0.77000000000E+02 0.  0.
<mgrwt>
<rscale>  0 0.18295132E+03</rscale>
<asrwt>0</asrwt>
<pdfrwt beam="1">  1        2 0.20486096E-01 0.18295132E+03</pdfrwt>
<pdfrwt beam="2">  1       -2 0.83359632E-02 0.18295132E+03</pdfrwt>
<totfact> 0.22811649E+04</totfact>
</mgrwt>
</event>
<event>
 4    1  0.1305170E-003  0.1884578E+03  0.7818608E-02  0.1159860E+00
          2   -1    0    0  501    0  0.00000000000E+00  0.00000000000E+00  0.65341942295E+03  0.65341942296E+03  0.25500000000E-02 0.  1.
         -2   -1    0    0    0  501 -0.00000000000E+00 -0.00000000000E+00 -0.13588652169E+02  0.13588652408E+02  0.25500000000E-02 0. -1.
    5000001    1    1    2    0    0  0.50438655094E+02  0.42088972300E+01  0.25017090234E+03  0.26660129993E+03  0.77000000000E+02 0.  0.
   -5000001    1    1    2    0    0 -0.50438655094E+02 -0.42088972300E+01  0.38965986844E+03  0.40040677544E+03  0.77000000000E+02 0.  0.
<mgrwt>
<rscale>  0 0.18845784E+03</rscale>
<asrwt>0</asrwt>
<pdfrwt beam="1">  1        2 0.93345671E-01 0.18845784E+03</pdfrwt>
<pdfrwt beam="2">  1       -2 0.19412352E-02 0.18845784E+03</pdfrwt>
<totfact> 0.38769418E+04</totfact>
</mgrwt>
</event>
<event>
 4    1  0.1305170E-003  0.2587521E+03  0.7818608E-02  0.1107895E+00
          2   -1    0    0  501    0  0.00000000000E+00  0.00000000000E+00  0.17462084579E+03  0.17462084581E+03  0.25500000000E-02 0.  1.
         -2   -1    0    0    0  501 -0.00000000000E+00 -0.00000000000E+00 -0.95854326866E+02  0.95854326900E+02  0.25500000000E-02 0. -1.
    5000001    1    1    2    0    0 -0.12847880489E+02 -0.78808811970E+02  0.10898265034E+03  0.15550599652E+03  0.77000000000E+02 0.  0.
   -5000001    1    1    2    0    0  0.12847880489E+02  0.78808811970E+02 -0.30216131416E+02  0.11496917619E+03  0.77000000000E+02 0.  0.
<mgrwt>
<rscale>  0 0.25875211E+03</rscale>
<asrwt>0</asrwt>
<pdfrwt beam="1">  1        2 0.24945835E-01 0.25875211E+03</pdfrwt>
<pdfrwt beam="2">  1       -2 0.13693475E-01 0.25875211E+03</pdfrwt>
<totfact> 0.84770863E+03</totfact>
</mgrwt>
</event>
<event>
 4    1  0.1305170E-003  0.5448427E+03  0.7818608E-02  0.1002695E+00
          2   -1    0    0  501    0  0.00000000000E+00  0.00000000000E+00  0.24427242680E+04  0.24427242680E+04  0.25500000000E-02 0.  1.
         -2   -1    0    0    0  501 -0.00000000000E+00 -0.00000000000E+00 -0.30381406630E+02  0.30381406737E+02  0.25500000000E-02 0. -1.
    5000001    1    1    2    0    0  0.88099577561E+02  0.19659026963E+03  0.53482476808E+03  0.58170078411E+03  0.77000000000E+02 0.  0.
   -5000001    1    1    2    0    0 -0.88099577561E+02 -0.19659026963E+03  0.18775180933E+04  0.18914048906E+04  0.77000000000E+02 0.  0.
<mgrwt>
<rscale>  0 0.54484273E+03</rscale>
<asrwt>0</asrwt>
<pdfrwt beam="1">  1        2 0.34896066E+00 0.54484273E+03</pdfrwt>
<pdfrwt beam="2">  1       -2 0.43402003E-02 0.54484273E+03</pdfrwt>
<totfact> 0.12691235E+03</totfact>
</mgrwt>
</event>
<event>
 4    1  0.1305170E-003  0.3177774E+03  0.7818608E-02  0.1076677E+00
         -2   -1    0    0    0  501 -0.00000000000E+00  0.00000000000E+00  0.40903703139E+02  0.40903703219E+02  0.25500000000E-02 0. -1.
          2   -1    0    0  501    0  0.00000000000E+00 -0.00000000000E+00 -0.61719637376E+03  0.61719637377E+03  0.25500000000E-02 0.  1.
    5000001    1    1    2    0    0  0.77306502595E+02  0.10302937691E+02 -0.49904883695E+02  0.12042401457E+03  0.77000000000E+02 0.  0.
   -5000001    1    1    2    0    0 -0.77306502595E+02 -0.10302937691E+02 -0.52638778693E+03  0.53767606241E+03  0.77000000000E+02 0.  0.
<mgrwt>
<rscale>  0 0.31777739E+03</rscale>
<asrwt>0</asrwt>
<pdfrwt beam="1">  1        2 0.88170905E-01 0.31777739E+03</pdfrwt>
<pdfrwt beam="2">  1       -2 0.58433865E-02 0.31777739E+03</pdfrwt>
<totfact> 0.82202728E+03</totfact>
</mgrwt>
</event>
<event>
 4    1  0.1305170E-003  0.2046715E+03  0.7818608E-02  0.1145856E+00
          2   -1    0    0  501    0  0.00000000000E+00  0.00000000000E+00  0.97364114178E+02  0.97364114212E+02  0.25500000000E-02 0.  1.
         -2   -1    0    0    0  501 -0.00000000000E+00 -0.00000000000E+00 -0.10756122891E+03  0.10756122894E+03  0.25500000000E-02 0. -1.
    5000001    1    1    2    0    0 -0.20518994432E+02  0.61515946310E+02 -0.23516018847E+02  0.10337912713E+03  0.77000000000E+02 0.  0.
   -5000001    1    1    2    0    0  0.20518994432E+02 -0.61515946310E+02  0.13318904112E+02  0.10154621603E+03  0.77000000000E+02 0.  0.
<mgrwt>
<rscale>  0 0.20467148E+03</rscale>
<asrwt>0</asrwt>
<pdfrwt beam="1">  1        2 0.13909159E-01 0.20467148E+03</pdfrwt>
<pdfrwt beam="2">  1       -2 0.15365890E-01 0.20467148E+03</pdfrwt>
<totfact> 0.13567611E+04</totfact>
</mgrwt>
</event>
<event>
 4    1  0.1305170E-003  0.5162480E+03  0.7818608E-02  0.1009623E+00
         -2   -1    0    0    0  501 -0.00000000000E+00  0.00000000000E+00  0.10769365467E+03  0.10769365470E+03  0.25500000000E-02 0. -1.
          2   -1    0    0  501    0  0.00000000000E+00 -0.00000000000E+00 -0.61868093967E+03  0.61868093967E+03  0.25500000000E-02 0.  1.
    5000001    1    1    2    0    0 -0.56140208296E+02 -0.13291319290E+03  0.25494030451E+02  0.16551913914E+03  0.77000000000E+02 0.  0.
   -5000001    1    1    2    0    0  0.56140208296E+02  0.13291319290E+03 -0.53648131545E+03  0.56085545523E+03  0.77000000000E+02 0.  0.
<mgrwt>
<rscale>  0 0.51624805E+03</rscale>
<asrwt>0</asrwt>
<pdfrwt beam="1">  1        2 0.88382990E-01 0.51624805E+03</pdfrwt>
<pdfrwt beam="2">  1       -2 0.15384808E-01 0.51624805E+03</pdfrwt>
<totfact> 0.17515597E+03</totfact>
</mgrwt>
</event>
<event>
 4    1  0.1305170E-003  0.2214563E+03  0.7818608E-02  0.1132802E+00
         -2   -1    0    0    0  501 -0.00000000000E+00  0.00000000000E+00  0.19329738085E+03  0.19329738087E+03  0.25500000000E-02 0. -1.
          2   -1    0    0  501    0  0.00000000000E+00 -0.00000000000E+00 -0.63429320859E+02  0.63429320911E+02  0.25500000000E-02 0.  1.
    5000001    1    1    2    0    0 -0.29572952133E+02  0.70551078666E+02  0.39543530791E+02  0.11551928422E+03  0.77000000000E+02 0.  0.
   -5000001    1    1    2    0    0  0.29572952133E+02 -0.70551078666E+02  0.90324529202E+02  0.14120741756E+03  0.77000000000E+02 0.  0.
<mgrwt>
<rscale>  0 0.22145629E+03</rscale>
<asrwt>0</asrwt>
<pdfrwt beam="1">  1        2 0.90613317E-02 0.22145629E+03</pdfrwt>
<pdfrwt beam="2">  1       -2 0.27613911E-01 0.22145629E+03</pdfrwt>
<totfact> 0.84321141E+03</totfact>
</mgrwt>
</event>
<event>
 4    1  0.1305170E-003  0.1707237E+03  0.7818608E-02  0.1177095E+00
          2   -1    0    0  501    0  0.00000000000E+00  0.00000000000E+00  0.87266988403E+03  0.87266988404E+03  0.25500000000E-02 0.  1.
         -2   -1    0    0    0  501 -0.00000000000E+00 -0.00000000000E+00 -0.83498277307E+01  0.83498281201E+01  0.25500000000E-02 0. -1.
    5000001    1    1    2    0    0 -0.18343365296E+02 -0.31944286477E+02  0.42776032139E+03  0.43619354539E+03  0.77000000000E+02 0.  0.
   -5000001    1    1    2    0    0  0.18343365296E+02  0.31944286477E+02  0.43655973492E+03  0.44482616677E+03  0.77000000000E+02 0.  0.
<mgrwt>
<rscale>  0 0.17072368E+03</rscale>
<asrwt>0</asrwt>
<pdfrwt beam="1">  1        2 0.12466709E+00 0.17072368E+03</pdfrwt>
<pdfrwt beam="2">  1       -2 0.11928329E-02 0.17072368E+03</pdfrwt>
<totfact> 0.55003713E+04</totfact>
</mgrwt>
</event>
<event>
 4    1  0.1305170E-003  0.2046391E+03  0.7818608E-02  0.1145883E+00
         -2   -1    0    0    0  501 -0.00000000000E+00  0.00000000000E+00  0.27384415004E+01  0.27384426876E+01  0.25500000000E-02 0. -1.
          2   -1    0    0  501    0  0.00000000000E+00 -0.00000000000E+00 -0.38230821258E+04  0.38230821258E+04  0.25500000000E-02 0.  1.
    5000001    1    1    2    0    0  0.59607401854E+02  0.24207953285E+02 -0.22846514700E+04  0.22868538227E+04  0.77000000000E+02 0.  0.
   -5000001    1    1    2    0    0 -0.59607401854E+02 -0.24207953285E+02 -0.15356922144E+04  0.15389667458E+04  0.77000000000E+02 0.  0.
<mgrwt>
<rscale>  0 0.20463909E+03</rscale>
<asrwt>0</asrwt>
<pdfrwt beam="1">  1        2 0.54615117E+00 0.20463909E+03</pdfrwt>
<pdfrwt beam="2">  1       -2 0.39120846E-03 0.20463909E+03</pdfrwt>
<totfact> 0.77908024E+03</totfact>
</mgrwt>
</event>
<event>
 4    1  0.1305170E-003  0.1980309E+03  0.7818608E-02  0.1151411E+00
          2   -1    0    0  501    0  0.00000000000E+00  0.00000000000E+00  0.15280540188E+03  0.15280540190E+03  0.25500000000E-02 0.  1.
         -2   -1    0    0    0  501 -0.00000000000E+00 -0.00000000000E+00 -0.64160418889E+02  0.64160418940E+02  0.25500000000E-02 0. -1.
    5000001    1    1    2    0    0  0.44873374278E+02 -0.92510260419E+01  0.90492762469E+02  0.12734654004E+03  0.77000000000E+02 0.  0.
   -5000001    1    1    2    0    0 -0.44873374278E+02  0.92510260419E+01 -0.18477794760E+01  0.89619280799E+02  0.77000000000E+02 0.  0.
<mgrwt>
<rscale>  0 0.19803089E+03</rscale>
<asrwt>0</asrwt>
<pdfrwt beam="1">  1        2 0.21829343E-01 0.19803089E+03</pdfrwt>
<pdfrwt beam="2">  1       -2 0.91657742E-02 0.19803089E+03</pdfrwt>
<totfact> 0.18421554E+04</totfact>
</mgrwt>
</event>
<event>
 4    1  0.1305170E-003  0.1863006E+03  0.7818608E-02  0.1161841E+00
         -2   -1    0    0    0  501 -0.00000000000E+00  0.00000000000E+00  0.72595347290E+01  0.72595351769E+01  0.25500000000E-02 0. -1.
          2   -1    0    0  501    0  0.00000000000E+00 -0.00000000000E+00 -0.11952529449E+04  0.11952529449E+04  0.25500000000E-02 0.  1.
    5000001    1    1    2    0    0  0.21969682084E+02 -0.22579296366E+02 -0.86443882943E+03  0.86843306097E+03  0.77000000000E+02 0.  0.
   -5000001    1    1    2    0    0 -0.21969682084E+02  0.22579296366E+02 -0.32355458072E+03  0.33407941909E+03  0.77000000000E+02 0.  0.
<mgrwt>
<rscale>  0 0.18630062E+03</rscale>
<asrwt>0</asrwt>
<pdfrwt beam="1">  1        2 0.17075030E+00 0.18630062E+03</pdfrwt>
<pdfrwt beam="2">  1       -2 0.10370772E-02 0.18630062E+03</pdfrwt>
<totfact> 0.44224424E+04</totfact>
</mgrwt>
</event>
<event>
 4    1  0.1305170E-003  0.2263883E+03  0.7818608E-02  0.1129208E+00
          2   -1    0    0  501    0  0.00000000000E+00  0.00000000000E+00  0.27009281303E+03  0.27009281304E+03  0.25500000000E-02 0.  1.
         -2   -1    0    0    0  501 -0.00000000000E+00 -0.00000000000E+00 -0.47438922294E+02  0.47438922363E+02  0.25500000000E-02 0. -1.
    5000001    1    1    2    0    0 -0.50319282236E+02  0.50667914372E+02  0.52074121749E+02  0.11721766875E+03  0.77000000000E+02 0.  0.
   -5000001    1    1    2    0    0  0.50319282236E+02 -0.50667914372E+02  0.17057976898E+03  0.20031406665E+03  0.77000000000E+02 0.  0.
<mgrwt>
<rscale>  0 0.22638827E+03</rscale>
<asrwt>0</asrwt>
<pdfrwt beam="1">  1        2 0.38584686E-01 0.22638827E+03</pdfrwt>
<pdfrwt beam="2">  1       -2 0.67769891E-02 0.22638827E+03</pdfrwt>
<totfact> 0.15907671E+04</totfact>
</mgrwt>
</event>
<event>
 4    1  0.1305170E-003  0.3155452E+03  0.7818608E-02  0.1077718E+00
          2   -1    0    0  501    0  0.00000000000E+00  0.00000000000E+00  0.10515715674E+03  0.10515715677E+03  0.25500000000E-02 0.  1.
         -2   -1    0    0    0  501 -0.00000000000E+00 -0.00000000000E+00 -0.23671414174E+03  0.23671414176E+03  0.25500000000E-02 0. -1.
    5000001    1    1    2    0    0 -0.16899979063E+02 -0.85002129837E+02 -0.18172184870E+03  0.21555231769E+03  0.77000000000E+02 0.  0.
   -5000001    1    1    2    0    0  0.16899979063E+02  0.85002129837E+02  0.50164863695E+02  0.12631898083E+03  0.77000000000E+02 0.  0.
<mgrwt>
<rscale>  0 0.31554515E+03</rscale>
<asrwt>0</asrwt>
<pdfrwt beam="1">  1        2 0.15022451E-01 0.31554515E+03</pdfrwt>
<pdfrwt beam="2">  1       -2 0.33816306E-01 0.31554515E+03</pdfrwt>
<totfact> 0.31909625E+03</totfact>
</mgrwt>
</event>
<event>
 4    1  0.1305170E-003  0.4576716E+03  0.7818608E-02  0.1025459E+00
         -2   -1    0    0    0  501 -0.00000000000E+00  0.00000000000E+00  0.26019671374E+03  0.26019671375E+03  0.25500000000E-02 0. -1.
          2   -1    0    0  501    0  0.00000000000E+00 -0.00000000000E+00 -0.20125476823E+03  0.20125476824E+03  0.25500000000E-02 0.  1.
    5000001    1    1    2    0    0  0.19738661230E+03  0.11484032975E+02 -0.56930822463E+02  0.21968949969E+03  0.77000000000E+02 0.  0.
   -5000001    1    1    2    0    0 -0.19738661230E+03 -0.11484032975E+02  0.11587276797E+03  0.24176198230E+03  0.77000000000E+02 0.  0.
<mgrwt>
<rscale>  0 0.45767163E+03</rscale>
<asrwt>0</asrwt>
<pdfrwt beam="1">  1        2 0.28750681E-01 0.45767163E+03</pdfrwt>
<pdfrwt beam="2">  1       -2 0.37170959E-01 0.45767163E+03</pdfrwt>
<totfact> 0.12712202E+03</totfact>
</mgrwt>
</event>
<event>
 4    1  0.1305170E-003  0.2134259E+03  0.7818608E-02  0.1138881E+00
         -2   -1    0    0    0  501 -0.00000000000E+00  0.00000000000E+00  0.24475475233E+03  0.24475475234E+03  0.25500000000E-02 0. -1.
          2   -1    0    0  501    0  0.00000000000E+00 -0.00000000000E+00 -0.46526794972E+02  0.46526795042E+02  0.25500000000E-02 0.  1.
    5000001    1    1    2    0    0  0.58600099638E+02  0.12193994540E+02  0.40001252700E+02  0.10541235885E+03  0.77000000000E+02 0.  0.
   -5000001    1    1    2    0    0 -0.58600099638E+02 -0.12193994540E+02  0.15822670466E+03  0.18586918854E+03  0.77000000000E+02 0.  0.
<mgrwt>
<rscale>  0 0.21342590E+03</rscale>
<asrwt>0</asrwt>
<pdfrwt beam="1">  1        2 0.66466849E-02 0.21342590E+03</pdfrwt>
<pdfrwt beam="2">  1       -2 0.34964965E-01 0.21342590E+03</pdfrwt>
<totfact> 0.81126939E+03</totfact>
</mgrwt>
</event>
<event>
 4    1  0.1305170E-003  0.3658692E+03  0.7818608E-02  0.1056284E+00
          2   -1    0    0  501    0  0.00000000000E+00  0.00000000000E+00  0.38335747861E+03  0.38335747862E+03  0.25500000000E-02 0.  1.
         -2   -1    0    0    0  501 -0.00000000000E+00 -0.00000000000E+00 -0.87294684403E+02  0.87294684440E+02  0.25500000000E-02 0. -1.
    5000001    1    1    2    0    0  0.10645442828E+03  0.51696725631E+02  0.29766830091E+03  0.32945487416E+03  0.77000000000E+02 0.  0.
   -5000001    1    1    2    0    0 -0.10645442828E+03 -0.51696725631E+02 -0.16055067034E+01  0.14119728890E+03  0.77000000000E+02 0.  0.
<mgrwt>
<rscale>  0 0.36586921E+03</rscale>
<asrwt>0</asrwt>
<pdfrwt beam="1">  1        2 0.54765353E-01 0.36586921E+03</pdfrwt>
<pdfrwt beam="2">  1       -2 0.12470669E-01 0.36586921E+03</pdfrwt>
<totfact> 0.42336982E+03</totfact>
</mgrwt>
</event>
<event>
 4    1  0.1305170E-003  0.1783561E+03  0.7818608E-02  0.1169404E+00
          2   -1    0    0  501    0  0.00000000000E+00  0.00000000000E+00  0.39595868733E+02  0.39595868816E+02  0.25500000000E-02 0.  1.
         -2   -1    0    0    0  501 -0.00000000000E+00 -0.00000000000E+00 -0.20084743399E+03  0.20084743401E+03  0.25500000000E-02 0. -1.
    5000001    1    1    2    0    0 -0.29045909928E+02 -0.12172893943E+01 -0.34344594126E+02  0.89183506450E+02  0.77000000000E+02 0.  0.
   -5000001    1    1    2    0    0  0.29045909928E+02  0.12172893943E+01 -0.12690697114E+03  0.15125979638E+03  0.77000000000E+02 0.  0.
<mgrwt>
<rscale>  0 0.17835615E+03</rscale>
<asrwt>0</asrwt>
<pdfrwt beam="1">  1        2 0.56565528E-02 0.17835615E+03</pdfrwt>
<pdfrwt beam="2">  1       -2 0.28692490E-01 0.17835615E+03</pdfrwt>
<totfact> 0.14151644E+04</totfact>
</mgrwt>
</event>
<event>
 4    1  0.1305170E-003  0.1855926E+03  0.7818608E-02  0.1162498E+00
         -2   -1    0    0    0  501 -0.00000000000E+00  0.00000000000E+00  0.49217216082E+03  0.49217216083E+03  0.25500000000E-02 0. -1.
          2   -1    0    0  501    0  0.00000000000E+00 -0.00000000000E+00 -0.17496226759E+02  0.17496226945E+02  0.25500000000E-02 0.  1.
    5000001    1    1    2    0    0  0.46590319761E+02  0.21217245338E+02  0.25884352220E+03  0.27486323577E+03  0.77000000000E+02 0.  0.
   -5000001    1    1    2    0    0 -0.46590319761E+02 -0.21217245338E+02  0.21583241186E+03  0.23480515200E+03  0.77000000000E+02 0.  0.
<mgrwt>
<rscale>  0 0.18559263E+03</rscale>
<asrwt>0</asrwt>
<pdfrwt beam="1">  1        2 0.24994613E-02 0.18559263E+03</pdfrwt>
<pdfrwt beam="2">  1       -2 0.70310298E-01 0.18559263E+03</pdfrwt>
<totfact> 0.73589262E+03</totfact>
</mgrwt>
</event>
<event>
 4    1  0.1305170E-003  0.2976550E+03  0.7818608E-02  0.1086419E+00
         -2   -1    0    0    0  501 -0.00000000000E+00  0.00000000000E+00  0.66640628900E+03  0.66640628900E+03  0.25500000000E-02 0. -1.
          2   -1    0    0  501    0  0.00000000000E+00 -0.00000000000E+00 -0.33237421635E+02  0.33237421733E+02  0.25500000000E-02 0.  1.
    5000001    1    1    2    0    0 -0.93006923911E+02 -0.18577464776E+02  0.11678733754E+03  0.16900796520E+03  0.77000000000E+02 0.  0.
   -5000001    1    1    2    0    0  0.93006923911E+02  0.18577464776E+02  0.51638152982E+03  0.53063574553E+03  0.77000000000E+02 0.  0.
<mgrwt>
<rscale>  0 0.29765501E+03</rscale>
<asrwt>0</asrwt>
<pdfrwt beam="1">  1        2 0.47482033E-02 0.29765501E+03</pdfrwt>
<pdfrwt beam="2">  1       -2 0.95200895E-01 0.29765501E+03</pdfrwt>
<totfact> 0.16223987E+03</totfact>
</mgrwt>
</event>
<event>
 4    1  0.1305170E-003  0.2431966E+03  0.7818608E-02  0.1117681E+00
         -2   -1    0    0    0  501 -0.00000000000E+00  0.00000000000E+00  0.34249832835E+02  0.34249832930E+02  0.25500000000E-02 0. -1.
          2   -1    0    0  501    0  0.00000000000E+00 -0.00000000000E+00 -0.43171435648E+03  0.43171435649E+03  0.25500000000E-02 0.  1.
    5000001    1    1    2    0    0  0.68975344046E+02  0.63920795778E+02 -0.19164608683E+03  0.22693763199E+03  0.77000000000E+02 0.  0.
   -5000001    1    1    2    0    0 -0.68975344046E+02 -0.63920795778E+02 -0.20581843682E+03  0.23902655743E+03  0.77000000000E+02 0.  0.
<mgrwt>
<rscale>  0 0.24319658E+03</rscale>
<asrwt>0</asrwt>
<pdfrwt beam="1">  1        2 0.61673477E-01 0.24319658E+03</pdfrwt>
<pdfrwt beam="2">  1       -2 0.48928335E-02 0.24319658E+03</pdfrwt>
<totfact> 0.15868850E+04</totfact>
</mgrwt>
</event>
<event>
 4    1  0.1305170E-003  0.4373237E+03  0.7818608E-02  0.1031571E+00
          2   -1    0    0  501    0  0.00000000000E+00  0.00000000000E+00  0.26452357973E+04  0.26452357973E+04  0.25500000000E-02 0.  1.
         -2   -1    0    0    0  501 -0.00000000000E+00 -0.00000000000E+00 -0.18075137357E+02  0.18075137537E+02  0.25500000000E-02 0. -1.
    5000001    1    1    2    0    0 -0.95333061093E+02 -0.11949354142E+03  0.48486945793E+03  0.51419304761E+03  0.77000000000E+02 0.  0.
   -5000001    1    1    2    0    0  0.95333061093E+02  0.11949354142E+03  0.21422912020E+04  0.21491178872E+04  0.77000000000E+02 0.  0.
<mgrwt>
<rscale>  0 0.43732368E+03</rscale>
<asrwt>0</asrwt>
<pdfrwt beam="1">  1        2 0.37789055E+00 0.43732368E+03</pdfrwt>
<pdfrwt beam="2">  1       -2 0.25821644E-02 0.43732368E+03</pdfrwt>
<totfact> 0.22157945E+03</totfact>
</mgrwt>
</event>
<event>
 4    1  0.1305170E-003  0.3018003E+03  0.7818608E-02  0.1084344E+00
          2   -1    0    0  501    0  0.00000000000E+00  0.00000000000E+00  0.39248496850E+02  0.39248496933E+02  0.25500000000E-02 0. -1.
         -2   -1    0    0    0  501 -0.00000000000E+00 -0.00000000000E+00 -0.58017124423E+03  0.58017124423E+03  0.25500000000E-02 0.  1.
    5000001    1    1    2    0    0  0.10206687829E+03  0.50456848618E+02 -0.39827777445E+03  0.42132852602E+03  0.77000000000E+02 0.  0.
   -5000001    1    1    2    0    0 -0.10206687829E+03 -0.50456848618E+02 -0.14264497293E+03  0.19809121515E+03  0.77000000000E+02 0.  0.
<mgrwt>
<rscale>  0 0.30180026E+03</rscale>
<asrwt>0</asrwt>
<pdfrwt beam="1">  1        2 0.56069285E-02 0.30180026E+03</pdfrwt>
<pdfrwt beam="2">  1       -2 0.82881601E-01 0.30180026E+03</pdfrwt>
<totfact> 0.17818733E+03</totfact>
</mgrwt>
</event>
<event>
 4    1  0.1305170E-003  0.1796547E+03  0.7818608E-02  0.1168138E+00
          2   -1    0    0  501    0  0.00000000000E+00  0.00000000000E+00  0.34853084367E+04  0.34853084367E+04  0.25500000000E-02 0.  1.
         -2   -1    0    0    0  501 -0.00000000000E+00 -0.00000000000E+00 -0.23151331973E+01  0.23151346016E+01  0.25500000000E-02 0. -1.
    5000001    1    1    2    0    0 -0.46227833880E+02 -0.16305562949E+01  0.17518489633E+04  0.17541503532E+04  0.77000000000E+02 0.  0.
   -5000001    1    1    2    0    0  0.46227833880E+02  0.16305562949E+01  0.17311443401E+04  0.17334732181E+04  0.77000000000E+02 0.  0.
<mgrwt>
<rscale>  0 0.17965473E+03</rscale>
<asrwt>0</asrwt>
<pdfrwt beam="1">  1        2 0.49790382E+00 0.17965473E+03</pdfrwt>
<pdfrwt beam="2">  1       -2 0.33073168E-03 0.17965473E+03</pdfrwt>
<totfact> 0.15678822E+04</totfact>
</mgrwt>
</event>
<event>
 4    1  0.1305170E-003  0.3867660E+03  0.7818608E-02  0.1048461E+00
         -2   -1    0    0    0  501 -0.00000000000E+00  0.00000000000E+00  0.22962486228E+02  0.22962486370E+02  0.25500000000E-02 0. -1.
          2   -1    0    0  501    0  0.00000000000E+00 -0.00000000000E+00 -0.16286118036E+04  0.16286118036E+04  0.25500000000E-02 0.  1.
    5000001    1    1    2    0    0 -0.15447418442E+03 -0.41934702022E+02 -0.47629455241E+03  0.50833679145E+03  0.77000000000E+02 0.  0.
   -5000001    1    1    2    0    0  0.15447418442E+03  0.41934702022E+02 -0.11293547650E+04  0.11432374985E+04  0.77000000000E+02 0.  0.
<mgrwt>
<rscale>  0 0.38676596E+03</rscale>
<asrwt>0</asrwt>
<pdfrwt beam="1">  1        2 0.23265876E+00 0.38676596E+03</pdfrwt>
<pdfrwt beam="2">  1       -2 0.32803562E-02 0.38676596E+03</pdfrwt>
<totfact> 0.49945579E+03</totfact>
</mgrwt>
</event>
<event>
 4    1  0.1305170E-003  0.3079300E+03  0.7818608E-02  0.1081342E+00
          2   -1    0    0  501    0  0.00000000000E+00  0.00000000000E+00  0.13496387104E+04  0.13496387104E+04  0.25500000000E-02 0.  1.
         -2   -1    0    0    0  501 -0.00000000000E+00 -0.00000000000E+00 -0.17564121549E+02  0.17564121734E+02  0.25500000000E-02 0. -1.
    5000001    1    1    2    0    0 -0.12816580629E+03  0.24390837263E+02  0.54405240951E+03  0.56475075133E+03  0.77000000000E+02 0.  0.
   -5000001    1    1    2    0    0  0.12816580629E+03 -0.24390837263E+02  0.78802217935E+03  0.80245208081E+03  0.77000000000E+02 0.  0.
<mgrwt>
<rscale>  0 0.30792998E+03</rscale>
<asrwt>0</asrwt>
<pdfrwt beam="1">  1        2 0.19280550E+00 0.30792998E+03</pdfrwt>
<pdfrwt beam="2">  1       -2 0.25091606E-02 0.30792998E+03</pdfrwt>
<totfact> 0.10328956E+04</totfact>
</mgrwt>
</event>
<event>
 4    1  0.1305170E-003  0.3937196E+03  0.7818608E-02  0.1045976E+00
         -2   -1    0    0    0  501 -0.00000000000E+00  0.00000000000E+00  0.10805483175E+03  0.10805483178E+03  0.25500000000E-02 0. -1.
          2   -1    0    0  501    0  0.00000000000E+00 -0.00000000000E+00 -0.35864918269E+03  0.35864918270E+03  0.25500000000E-02 0.  1.
    5000001    1    1    2    0    0  0.10531143441E+02  0.17959793154E+03 -0.15067783646E+03  0.24698002429E+03  0.77000000000E+02 0.  0.
   -5000001    1    1    2    0    0 -0.10531143441E+02 -0.17959793154E+03 -0.99916514481E+02  0.21972399019E+03  0.77000000000E+02 0.  0.
<mgrwt>
<rscale>  0 0.39371958E+03</rscale>
<asrwt>0</asrwt>
<pdfrwt beam="1">  1        2 0.51235597E-01 0.39371958E+03</pdfrwt>
<pdfrwt beam="2">  1       -2 0.15436405E-01 0.39371958E+03</pdfrwt>
<totfact> 0.32054607E+03</totfact>
</mgrwt>
</event>
<event>
 4    1  0.1305170E-003  0.3042414E+03  0.7818608E-02  0.1083139E+00
         -2   -1    0    0    0  501 -0.00000000000E+00  0.00000000000E+00  0.19334329238E+02  0.19334329406E+02  0.25500000000E-02 0. -1.
          2   -1    0    0  501    0  0.00000000000E+00 -0.00000000000E+00 -0.11968713758E+04  0.11968713758E+04  0.25500000000E-02 0.  1.
    5000001    1    1    2    0    0  0.42752484541E+02  0.12267952697E+03 -0.66178879827E+03  0.67880148408E+03  0.77000000000E+02 0.  0.
   -5000001    1    1    2    0    0 -0.42752484541E+02 -0.12267952697E+03 -0.51574824829E+03  0.53740422113E+03  0.77000000000E+02 0.  0.
<mgrwt>
<rscale>  0 0.30424139E+03</rscale>
<asrwt>0</asrwt>
<pdfrwt beam="1">  1        2 0.17098158E+00 0.30424139E+03</pdfrwt>
<pdfrwt beam="2">  1       -2 0.27620478E-02 0.30424139E+03</pdfrwt>
<totfact> 0.10799726E+04</totfact>
</mgrwt>
</event>
<event>
 4    1  0.1305170E-003  0.2032065E+03  0.7818608E-02  0.1147062E+00
          2   -1    0    0  501    0  0.00000000000E+00  0.00000000000E+00  0.71046985444E+03  0.71046985445E+03  0.25500000000E-02 0.  1.
         -2   -1    0    0    0  501 -0.00000000000E+00 -0.00000000000E+00 -0.14530132876E+02  0.14530133100E+02  0.25500000000E-02 0. -1.
    5000001    1    1    2    0    0  0.34354712667E+02  0.55281225319E+02  0.30312881274E+03  0.31945631512E+03  0.77000000000E+02 0.  0.
   -5000001    1    1    2    0    0 -0.34354712667E+02 -0.55281225319E+02  0.39281090882E+03  0.40554367243E+03  0.77000000000E+02 0.  0.
<mgrwt>
<rscale>  0 0.20320651E+03</rscale>
<asrwt>0</asrwt>
<pdfrwt beam="1">  1        2 0.10149571E+00 0.20320651E+03</pdfrwt>
<pdfrwt beam="2">  1       -2 0.20757329E-02 0.20320651E+03</pdfrwt>
<totfact> 0.32073380E+04</totfact>
</mgrwt>
</event>
<event>
 4    1  0.1305170E-003  0.2594089E+03  0.7818608E-02  0.1107499E+00
         -2   -1    0    0    0  501 -0.00000000000E+00  0.00000000000E+00  0.80031020908E+02  0.80031020949E+02  0.25500000000E-02 0. -1.
          2   -1    0    0  501    0  0.00000000000E+00 -0.00000000000E+00 -0.21020911361E+03  0.21020911362E+03  0.25500000000E-02 0.  1.
    5000001    1    1    2    0    0 -0.83428865311E+02  0.19020327452E+02  0.17814305530E+01  0.11512741601E+03  0.77000000000E+02 0.  0.
   -5000001    1    1    2    0    0  0.83428865311E+02 -0.19020327452E+02 -0.13195952325E+03  0.17511271856E+03  0.77000000000E+02 0.  0.
<mgrwt>
<rscale>  0 0.25940894E+03</rscale>
<asrwt>0</asrwt>
<pdfrwt beam="1">  1        2 0.30029873E-01 0.25940894E+03</pdfrwt>
<pdfrwt beam="2">  1       -2 0.11433003E-01 0.25940894E+03</pdfrwt>
<totfact> 0.92500178E+03</totfact>
</mgrwt>
</event>
<event>
 4    1  0.1305170E-003  0.1873584E+03  0.7818608E-02  0.1160866E+00
         -2   -1    0    0    0  501 -0.00000000000E+00  0.00000000000E+00  0.16821344613E+03  0.16821344615E+03  0.25500000000E-02 0. -1.
          2   -1    0    0  501    0  0.00000000000E+00 -0.00000000000E+00 -0.52170586987E+02  0.52170587049E+02  0.25500000000E-02 0.  1.
    5000001    1    1    2    0    0 -0.35040898684E+02 -0.34201010189E+02  0.33090600287E+02  0.97064728434E+02  0.77000000000E+02 0.  0.
   -5000001    1    1    2    0    0  0.35040898684E+02  0.34201010189E+02  0.82952258858E+02  0.12331930477E+03  0.77000000000E+02 0.  0.
<mgrwt>
<rscale>  0 0.18735842E+03</rscale>
<asrwt>0</asrwt>
<pdfrwt beam="1">  1        2 0.74529409E-02 0.18735842E+03</pdfrwt>
<pdfrwt beam="2">  1       -2 0.24030493E-01 0.18735842E+03</pdfrwt>
<totfact> 0.13632945E+04</totfact>
</mgrwt>
</event>
<event>
 4    1  0.1305170E-003  0.3252005E+03  0.7818608E-02  0.1073280E+00
         -2   -1    0    0    0  501 -0.00000000000E+00  0.00000000000E+00  0.74804627169E+03  0.74804627169E+03  0.25500000000E-02 0. -1.
          2   -1    0    0  501    0  0.00000000000E+00 -0.00000000000E+00 -0.35343862516E+02  0.35343862608E+02  0.25500000000E-02 0.  1.
    5000001    1    1    2    0    0 -0.13707582299E+03 -0.30554623184E+02  0.28879421969E+03  0.33023395884E+03  0.77000000000E+02 0.  0.
   -5000001    1    1    2    0    0  0.13707582299E+03  0.30554623184E+02  0.42390818948E+03  0.45315617546E+03  0.77000000000E+02 0.  0.
<mgrwt>
<rscale>  0 0.32520052E+03</rscale>
<asrwt>0</asrwt>
<pdfrwt beam="1">  1        2 0.50491239E-02 0.32520052E+03</pdfrwt>
<pdfrwt beam="2">  1       -2 0.10686374E+00 0.32520052E+03</pdfrwt>
<totfact> 0.11438189E+03</totfact>
</mgrwt>
</event>
<event>
 4    1  0.1305170E-003  0.2786945E+03  0.7818608E-02  0.1096404E+00
         -2   -1    0    0    0  501 -0.00000000000E+00  0.00000000000E+00  0.71270814262E+01  0.71270818824E+01  0.25500000000E-02 0. -1.
          2   -1    0    0  501    0  0.00000000000E+00 -0.00000000000E+00 -0.27244898787E+04  0.27244898787E+04  0.25500000000E-02 0.  1.
    5000001    1    1    2    0    0 -0.59892656788E+02  0.31889748282E+02 -0.22825488742E+04  0.22848550171E+04  0.77000000000E+02 0.  0.
   -5000001    1    1    2    0    0  0.59892656788E+02 -0.31889748282E+02 -0.43481392308E+03  0.44676194342E+03  0.77000000000E+02 0.  0.
<mgrwt>
<rscale>  0 0.27869454E+03</rscale>
<asrwt>0</asrwt>
<pdfrwt beam="1">  1        2 0.38921217E+00 0.27869454E+03</pdfrwt>
<pdfrwt beam="2">  1       -2 0.10181563E-02 0.27869454E+03</pdfrwt>
<totfact> 0.80219675E+03</totfact>
</mgrwt>
</event>
<event>
 4    1  0.1305170E-003  0.2310428E+03  0.7818608E-02  0.1125908E+00
          2   -1    0    0  501    0  0.00000000000E+00  0.00000000000E+00  0.39673665674E+03  0.39673665674E+03  0.25500000000E-02 0.  1.
         -2   -1    0    0    0  501 -0.00000000000E+00 -0.00000000000E+00 -0.33637404405E+02  0.33637404502E+02  0.25500000000E-02 0. -1.
    5000001    1    1    2    0    0  0.31201456337E+02  0.48251675034E+02  0.62065870672E+02  0.11438062477E+03  0.77000000000E+02 0.  0.
   -5000001    1    1    2    0    0 -0.31201456337E+02 -0.48251675034E+02  0.30103338166E+03  0.31599343647E+03  0.77000000000E+02 0.  0.
<mgrwt>
<rscale>  0 0.23104278E+03</rscale>
<asrwt>0</asrwt>
<pdfrwt beam="1">  1        2 0.56676660E-01 0.23104278E+03</pdfrwt>
<pdfrwt beam="2">  1       -2 0.48053439E-02 0.23104278E+03</pdfrwt>
<totfact> 0.17813457E+04</totfact>
</mgrwt>
</event>
<event>
 4    1  0.1305170E-003  0.3584725E+03  0.7818608E-02  0.1059190E+00
          2   -1    0    0  501    0  0.00000000000E+00  0.00000000000E+00  0.19276190906E+04  0.19276190906E+04  0.25500000000E-02 0.  1.
         -2   -1    0    0    0  501 -0.00000000000E+00 -0.00000000000E+00 -0.16665966273E+02  0.16665966468E+02  0.25500000000E-02 0. -1.
    5000001    1    1    2    0    0 -0.13237534553E+03 -0.38372782901E+02  0.14157314918E+04  0.14245070584E+04  0.77000000000E+02 0.  0.
   -5000001    1    1    2    0    0  0.13237534553E+03  0.38372782901E+02  0.49522163251E+03  0.51977799865E+03  0.77000000000E+02 0.  0.
<mgrwt>
<rscale>  0 0.35847251E+03</rscale>
<asrwt>0</asrwt>
<pdfrwt beam="1">  1        2 0.27537427E+00 0.35847251E+03</pdfrwt>
<pdfrwt beam="2">  1       -2 0.23808514E-02 0.35847251E+03</pdfrwt>
<totfact> 0.57324031E+03</totfact>
</mgrwt>
</event>
<event>
 4    1  0.1305170E-003  0.2679252E+03  0.7818608E-02  0.1102473E+00
          2   -1    0    0  501    0  0.00000000000E+00  0.00000000000E+00  0.90938707681E+02  0.90938707716E+02  0.25500000000E-02 0. -1.
         -2   -1    0    0    0  501 -0.00000000000E+00 -0.00000000000E+00 -0.19734153344E+03  0.19734153345E+03  0.25500000000E-02 0.  1.
    5000001    1    1    2    0    0 -0.84277561917E+02  0.27297583116E+02 -0.12267558248E+03  0.16978269648E+03  0.77000000000E+02 0.  0.
   -5000001    1    1    2    0    0  0.84277561917E+02 -0.27297583116E+02  0.16272756724E+02  0.11849754469E+03  0.77000000000E+02 0.  0.
<mgrwt>
<rscale>  0 0.26792524E+03</rscale>
<asrwt>0</asrwt>
<pdfrwt beam="1">  1        2 0.12991244E-01 0.26792524E+03</pdfrwt>
<pdfrwt beam="2">  1       -2 0.28191647E-01 0.26792524E+03</pdfrwt>
<totfact> 0.52672437E+03</totfact>
</mgrwt>
</event>
<event>
 4    1  0.1305170E-003  0.2296828E+03  0.7818608E-02  0.1126863E+00
         -2   -1    0    0    0  501 -0.00000000000E+00  0.00000000000E+00  0.99165569333E+01  0.99165572612E+01  0.25500000000E-02 0. -1.
          2   -1    0    0  501    0  0.00000000000E+00 -0.00000000000E+00 -0.13299517976E+04  0.13299517976E+04  0.25500000000E-02 0.  1.
    5000001    1    1    2    0    0  0.26175848463E+02  0.79446200421E+02 -0.75456255117E+03  0.76307962719E+03  0.77000000000E+02 0.  0.
   -5000001    1    1    2    0    0 -0.26175848463E+02 -0.79446200421E+02 -0.56547268946E+03  0.57678872764E+03  0.77000000000E+02 0.  0.
<mgrwt>
<rscale>  0 0.22968276E+03</rscale>
<asrwt>0</asrwt>
<pdfrwt beam="1">  1        2 0.18999300E+00 0.22968276E+03</pdfrwt>
<pdfrwt beam="2">  1       -2 0.14166519E-02 0.22968276E+03</pdfrwt>
<totfact> 0.24230549E+04</totfact>
</mgrwt>
</event>
<event>
 4    1  0.1305170E-003  0.2612456E+03  0.7818608E-02  0.1106397E+00
          2   -1    0    0  501    0  0.00000000000E+00  0.00000000000E+00  0.98325077747E+03  0.98325077747E+03  0.25500000000E-02 0.  1.
         -2   -1    0    0    0  501 -0.00000000000E+00 -0.00000000000E+00 -0.17352958559E+02  0.17352958746E+02  0.25500000000E-02 0. -1.
    5000001    1    1    2    0    0 -0.62543645265E+02  0.78304039546E+02  0.35649205387E+03  0.37823116562E+03  0.77000000000E+02 0.  0.
   -5000001    1    1    2    0    0  0.62543645265E+02 -0.78304039546E+02  0.60940576504E+03  0.62237257060E+03  0.77000000000E+02 0.  0.
<mgrwt>
<rscale>  0 0.26124556E+03</rscale>
<asrwt>0</asrwt>
<pdfrwt beam="1">  1        2 0.14046442E+00 0.26124556E+03</pdfrwt>
<pdfrwt beam="2">  1       -2 0.24789938E-02 0.26124556E+03</pdfrwt>
<totfact> 0.16672384E+04</totfact>
</mgrwt>
</event>
<event>
 4    1  0.1305170E-003  0.3789839E+03  0.7818608E-02  0.1051310E+00
          2   -1    0    0  501    0  0.00000000000E+00  0.00000000000E+00  0.83480314404E+03  0.83480314404E+03  0.25500000000E-02 0.  1.
         -2   -1    0    0    0  501 -0.00000000000E+00 -0.00000000000E+00 -0.43012765040E+02  0.43012765116E+02  0.25500000000E-02 0. -1.
    5000001    1    1    2    0    0  0.14648529188E+03  0.86287402769E+02  0.31996169077E+03  0.37041590162E+03  0.77000000000E+02 0.  0.
   -5000001    1    1    2    0    0 -0.14648529188E+03 -0.86287402769E+02  0.47182868822E+03  0.50740000753E+03  0.77000000000E+02 0.  0.
<mgrwt>
<rscale>  0 0.37898386E+03</rscale>
<asrwt>0</asrwt>
<pdfrwt beam="1">  1        2 0.11925758E+00 0.37898386E+03</pdfrwt>
<pdfrwt beam="2">  1       -2 0.61446813E-02 0.37898386E+03</pdfrwt>
<totfact> 0.53018895E+03</totfact>
</mgrwt>
</event>
<event>
 4    1  0.1305170E-003  0.2024046E+03  0.7818608E-02  0.1147726E+00
         -2   -1    0    0    0  501 -0.00000000000E+00  0.00000000000E+00  0.11669427999E+03  0.11669428002E+03  0.25500000000E-02 0. -1.
          2   -1    0    0  501    0  0.00000000000E+00 -0.00000000000E+00 -0.87767015276E+02  0.87767015313E+02  0.25500000000E-02 0.  1.
    5000001    1    1    2    0    0 -0.64647160992E+02  0.11554254006E+02  0.14858049526E+02  0.10228644996E+03  0.77000000000E+02 0.  0.
   -5000001    1    1    2    0    0  0.64647160992E+02 -0.11554254006E+02  0.14069215185E+02  0.10217484537E+03  0.77000000000E+02 0.  0.
<mgrwt>
<rscale>  0 0.20240463E+03</rscale>
<asrwt>0</asrwt>
<pdfrwt beam="1">  1        2 0.12538145E-01 0.20240463E+03</pdfrwt>
<pdfrwt beam="2">  1       -2 0.16670611E-01 0.20240463E+03</pdfrwt>
<totfact> 0.13412535E+04</totfact>
</mgrwt>
</event>
<event>
 4    1  0.1305170E-003  0.1218166E+04  0.7818608E-02  0.9097102E-01
         -2   -1    0    0    0  501 -0.00000000000E+00  0.00000000000E+00  0.13146261225E+03  0.13146261228E+03  0.25500000000E-02 0. -1.
          2   -1    0    0  501    0  0.00000000000E+00 -0.00000000000E+00 -0.28219607533E+04  0.28219607533E+04  0.25500000000E-02 0.  1.
    5000001    1    1    2    0    0  0.48386395966E+03 -0.17671811644E+03 -0.21107858146E+04  0.21740973711E+04  0.77000000000E+02 0.  0.
   -5000001    1    1    2    0    0 -0.48386395966E+03  0.17671811644E+03 -0.57971232643E+03  0.77932599441E+03  0.77000000000E+02 0.  0.
<mgrwt>
<rscale>  0 0.12181664E+04</rscale>
<asrwt>0</asrwt>
<pdfrwt beam="1">  1        2 0.40313721E+00 0.12181664E+04</pdfrwt>
<pdfrwt beam="2">  1       -2 0.18780375E-01 0.12181664E+04</pdfrwt>
<totfact> 0.70219374E+01</totfact>
</mgrwt>
</event>
<event>
 4    1  0.1305170E-003  0.2313853E+03  0.7818608E-02  0.1125669E+00
         -2   -1    0    0    0  501 -0.00000000000E+00  0.00000000000E+00  0.22131823007E+02  0.22131823153E+02  0.25500000000E-02 0. -1.
          2   -1    0    0  501    0  0.00000000000E+00 -0.00000000000E+00 -0.60477579112E+03  0.60477579113E+03  0.25500000000E-02 0.  1.
    5000001    1    1    2    0    0  0.64263253126E+02 -0.50280515346E+02 -0.21479041864E+03  0.24232585472E+03  0.77000000000E+02 0.  0.
   -5000001    1    1    2    0    0 -0.64263253126E+02  0.50280515346E+02 -0.36785354948E+03  0.38458175956E+03  0.77000000000E+02 0.  0.
<mgrwt>
<rscale>  0 0.23138531E+03</rscale>
<asrwt>0</asrwt>
<pdfrwt beam="1">  1        2 0.86396531E-01 0.23138531E+03</pdfrwt>
<pdfrwt beam="2">  1       -2 0.31616894E-02 0.23138531E+03</pdfrwt>
<totfact> 0.20968830E+04</totfact>
</mgrwt>
</event>
<event>
 4    1  0.1305170E-003  0.1659650E+03  0.7818608E-02  0.1182122E+00
         -2   -1    0    0    0  501 -0.00000000000E+00  0.00000000000E+00  0.68408940986E+01  0.68408945739E+01  0.25500000000E-02 0. -1.
          2   -1    0    0  501    0  0.00000000000E+00 -0.00000000000E+00 -0.10066071955E+04  0.10066071955E+04  0.25500000000E-02 0.  1.
    5000001    1    1    2    0    0 -0.29209732650E+02 -0.16330613432E+00 -0.56211399500E+03  0.56811475824E+03  0.77000000000E+02 0.  0.
   -5000001    1    1    2    0    0  0.29209732650E+02  0.16330613432E+00 -0.43765230639E+03  0.44533333183E+03  0.77000000000E+02 0.  0.
<mgrwt>
<rscale>  0 0.16596498E+03</rscale>
<asrwt>0</asrwt>
<pdfrwt beam="1">  1        2 0.14380093E+00 0.16596498E+03</pdfrwt>
<pdfrwt beam="2">  1       -2 0.97727126E-03 0.16596498E+03</pdfrwt>
<totfact> 0.60711145E+04</totfact>
</mgrwt>
</event>
<event>
 4    1  0.1305170E-003  0.1753794E+03  0.7818608E-02  0.1172351E+00
         -2   -1    0    0    0  501 -0.00000000000E+00  0.00000000000E+00  0.15519640946E+03  0.15519640948E+03  0.25500000000E-02 0. -1.
          2   -1    0    0  501    0  0.00000000000E+00 -0.00000000000E+00 -0.49546762602E+02  0.49546762667E+02  0.25500000000E-02 0.  1.
    5000001    1    1    2    0    0  0.37453828697E+02  0.90827172637E+01  0.33458332734E+02  0.92378271614E+02  0.77000000000E+02 0.  0.
   -5000001    1    1    2    0    0 -0.37453828697E+02 -0.90827172637E+01  0.72191314121E+02  0.11236490053E+03  0.77000000000E+02 0.  0.
<mgrwt>
<rscale>  0 0.17537936E+03</rscale>
<asrwt>0</asrwt>
<pdfrwt beam="1">  1        2 0.70781090E-02 0.17537936E+03</pdfrwt>
<pdfrwt beam="2">  1       -2 0.22170915E-01 0.17537936E+03</pdfrwt>
<totfact> 0.16649550E+04</totfact>
</mgrwt>
</event>
<event>
 4    1  0.1305170E-003  0.1839454E+03  0.7818608E-02  0.1164038E+00
         -2   -1    0    0    0  501 -0.00000000000E+00  0.00000000000E+00  0.52765604630E+01  0.52765610792E+01  0.25500000000E-02 0. -1.
          2   -1    0    0  501    0  0.00000000000E+00 -0.00000000000E+00 -0.16031233183E+04  0.16031233183E+04  0.25500000000E-02 0.  1.
    5000001    1    1    2    0    0  0.46682711459E+02 -0.75198204829E+01 -0.94888935830E+03  0.95318195406E+03  0.77000000000E+02 0.  0.
   -5000001    1    1    2    0    0 -0.46682711459E+02  0.75198204829E+01 -0.64895739953E+03  0.65521792532E+03  0.77000000000E+02 0.  0.
<mgrwt>
<rscale>  0 0.18394540E+03</rscale>
<asrwt>0</asrwt>
<pdfrwt beam="1">  1        2 0.22901730E+00 0.18394540E+03</pdfrwt>
<pdfrwt beam="2">  1       -2 0.75379542E-03 0.18394540E+03</pdfrwt>
<totfact> 0.43318358E+04</totfact>
</mgrwt>
</event>
<event>
 4    1  0.1305170E-003  0.2036854E+03  0.7818608E-02  0.1146666E+00
         -2   -1    0    0    0  501 -0.00000000000E+00  0.00000000000E+00  0.41816260460E+03  0.41816260461E+03  0.25500000000E-02 0. -1.
          2   -1    0    0  501    0  0.00000000000E+00 -0.00000000000E+00 -0.24803605643E+02  0.24803605774E+02  0.25500000000E-02 0.  1.
    5000001    1    1    2    0    0 -0.56981425484E+02  0.30845424982E+02  0.16266577716E+03  0.19127853552E+03  0.77000000000E+02 0.  0.
   -5000001    1    1    2    0    0  0.56981425484E+02 -0.30845424982E+02  0.23069322180E+03  0.25168767486E+03  0.77000000000E+02 0.  0.
<mgrwt>
<rscale>  0 0.20368545E+03</rscale>
<asrwt>0</asrwt>
<pdfrwt beam="1">  1        2 0.35433724E-02 0.20368545E+03</pdfrwt>
<pdfrwt beam="2">  1       -2 0.59737513E-01 0.20368545E+03</pdfrwt>
<totfact> 0.65017948E+03</totfact>
</mgrwt>
</event>
<event>
 4    1  0.1305170E-003  0.2132684E+03  0.7818608E-02  0.1139004E+00
          2   -1    0    0  501    0  0.00000000000E+00  0.00000000000E+00  0.25596485478E+03  0.25596485479E+03  0.25500000000E-02 0.  1.
         -2   -1    0    0    0  501 -0.00000000000E+00 -0.00000000000E+00 -0.44423510058E+02  0.44423510132E+02  0.25500000000E-02 0. -1.
    5000001    1    1    2    0    0  0.70403780055E+02 -0.21699489979E+02  0.11109643784E+03  0.15394472583E+03  0.77000000000E+02 0.  0.
   -5000001    1    1    2    0    0 -0.70403780055E+02  0.21699489979E+02  0.10044490688E+03  0.14644363909E+03  0.77000000000E+02 0.  0.
<mgrwt>
<rscale>  0 0.21326844E+03</rscale>
<asrwt>0</asrwt>
<pdfrwt beam="1">  1        2 0.36566409E-01 0.21326844E+03</pdfrwt>
<pdfrwt beam="2">  1       -2 0.63462155E-02 0.21326844E+03</pdfrwt>
<totfact> 0.18571371E+04</totfact>
</mgrwt>
</event>
<event>
 4    1  0.1305170E-003  0.1893606E+03  0.7818608E-02  0.1159039E+00
         -2   -1    0    0    0  501 -0.00000000000E+00  0.00000000000E+00  0.15418116873E+02  0.15418117083E+02  0.25500000000E-02 0. -1.
          2   -1    0    0  501    0  0.00000000000E+00 -0.00000000000E+00 -0.58141712342E+03  0.58141712343E+03  0.25500000000E-02 0.  1.
    5000001    1    1    2    0    0 -0.40244344592E+02 -0.37238830564E+02 -0.26602060573E+03  0.28231595854E+03  0.77000000000E+02 0.  0.
   -5000001    1    1    2    0    0  0.40244344592E+02  0.37238830564E+02 -0.29997840082E+03  0.31451928197E+03  0.77000000000E+02 0.  0.
<mgrwt>
<rscale>  0 0.18936058E+03</rscale>
<asrwt>0</asrwt>
<pdfrwt beam="1">  1        2 0.83059575E-01 0.18936058E+03</pdfrwt>
<pdfrwt beam="2">  1       -2 0.22025885E-02 0.18936058E+03</pdfrwt>
<totfact> 0.36824276E+04</totfact>
</mgrwt>
</event>
<event>
 4    1  0.1305170E-003  0.2149718E+03  0.7818608E-02  0.1137688E+00
         -2   -1    0    0    0  501 -0.00000000000E+00  0.00000000000E+00  0.22161908997E+02  0.22161909143E+02  0.25500000000E-02 0. -1.
          2   -1    0    0  501    0  0.00000000000E+00 -0.00000000000E+00 -0.52130955017E+03  0.52130955018E+03  0.25500000000E-02 0.  1.
    5000001    1    1    2    0    0  0.51436095211E+02  0.12811152373E+02 -0.11545504812E+03  0.14855526127E+03  0.77000000000E+02 0.  0.
   -5000001    1    1    2    0    0 -0.51436095211E+02 -0.12811152373E+02 -0.38369259306E+03  0.39491619805E+03  0.77000000000E+02 0.  0.
<mgrwt>
<rscale>  0 0.21497176E+03</rscale>
<asrwt>0</asrwt>
<pdfrwt beam="1">  1        2 0.74472785E-01 0.21497176E+03</pdfrwt>
<pdfrwt beam="2">  1       -2 0.31659873E-02 0.21497176E+03</pdfrwt>
<totfact> 0.24598944E+04</totfact>
</mgrwt>
</event>
<event>
 4    1  0.1305170E-003  0.3140964E+03  0.7818608E-02  0.1078399E+00
         -2   -1    0    0    0  501 -0.00000000000E+00  0.00000000000E+00  0.82461358217E+02  0.82461358256E+02  0.25500000000E-02 0. -1.
          2   -1    0    0  501    0  0.00000000000E+00 -0.00000000000E+00 -0.29909934862E+03  0.29909934863E+03  0.25500000000E-02 0.  1.
    5000001    1    1    2    0    0  0.77844815525E+02  0.72158333936E+02 -0.21330159180E+03  0.25038612087E+03  0.77000000000E+02 0.  0.
   -5000001    1    1    2    0    0 -0.77844815525E+02 -0.72158333936E+02 -0.33363986036E+01  0.13117458602E+03  0.77000000000E+02 0.  0.
<mgrwt>
<rscale>  0 0.31409641E+03</rscale>
<asrwt>0</asrwt>
<pdfrwt beam="1">  1        2 0.42728478E-01 0.31409641E+03</pdfrwt>
<pdfrwt beam="2">  1       -2 0.11780194E-01 0.31409641E+03</pdfrwt>
<totfact> 0.60533659E+03</totfact>
</mgrwt>
</event>
<event>
 4    1  0.1305170E-003  0.6414390E+03  0.7818608E-02  0.9822977E-01
          2   -1    0    0  501    0  0.00000000000E+00  0.00000000000E+00  0.51887225162E+03  0.51887225163E+03  0.25500000000E-02 0.  1.
         -2   -1    0    0    0  501 -0.00000000000E+00 -0.00000000000E+00 -0.19823951560E+03  0.19823951562E+03  0.25500000000E-02 0. -1.
    5000001    1    1    2    0    0  0.21703313854E+03  0.22111817613E+03  0.12612478258E+03  0.34326825053E+03  0.77000000000E+02 0.  0.
   -5000001    1    1    2    0    0 -0.21703313854E+03 -0.22111817613E+03  0.19450795345E+03  0.37384351672E+03  0.77000000000E+02 0.  0.
<mgrwt>
<rscale>  0 0.64143896E+03</rscale>
<asrwt>0</asrwt>
<pdfrwt beam="1">  1        2 0.74124607E-01 0.64143896E+03</pdfrwt>
<pdfrwt beam="2">  1       -2 0.28319931E-01 0.64143896E+03</pdfrwt>
<totfact> 0.73685843E+02</totfact>
</mgrwt>
</event>
<event>
 4    1  0.1305170E-003  0.2770799E+03  0.7818608E-02  0.1097295E+00
          2   -1    0    0  501    0  0.00000000000E+00  0.00000000000E+00  0.12450559477E+04  0.12450559477E+04  0.25500000000E-02 0.  1.
         -2   -1    0    0    0  501 -0.00000000000E+00 -0.00000000000E+00 -0.15415629475E+02  0.15415629686E+02  0.25500000000E-02 0. -1.
    5000001    1    1    2    0    0 -0.84106671248E+02 -0.77407726591E+02  0.67890199731E+03  0.69275017880E+03  0.77000000000E+02 0.  0.
   -5000001    1    1    2    0    0  0.84106671248E+02  0.77407726591E+02  0.55073832090E+03  0.56772139857E+03  0.77000000000E+02 0.  0.
<mgrwt>
<rscale>  0 0.27707993E+03</rscale>
<asrwt>0</asrwt>
<pdfrwt beam="1">  1        2 0.17786512E+00 0.27707993E+03</pdfrwt>
<pdfrwt beam="2">  1       -2 0.22022330E-02 0.27707993E+03</pdfrwt>
<totfact> 0.14187766E+04</totfact>
</mgrwt>
</event>
<event>
 4    1  0.1305170E-003  0.3313246E+03  0.7818608E-02  0.1070552E+00
         -2   -1    0    0    0  501 -0.00000000000E+00  0.00000000000E+00  0.44785683551E+02  0.44785683624E+02  0.25500000000E-02 0. -1.
          2   -1    0    0  501    0  0.00000000000E+00 -0.00000000000E+00 -0.61278515609E+03  0.61278515610E+03  0.25500000000E-02 0.  1.
    5000001    1    1    2    0    0  0.14025978839E+03 -0.22307736011E+01 -0.36906830338E+03  0.40226632615E+03  0.77000000000E+02 0.  0.
   -5000001    1    1    2    0    0 -0.14025978839E+03  0.22307736011E+01 -0.19893116916E+03  0.25530451357E+03  0.77000000000E+02 0.  0.
<mgrwt>
<rscale>  0 0.33132463E+03</rscale>
<asrwt>0</asrwt>
<pdfrwt beam="1">  1        2 0.87540732E-01 0.33132463E+03</pdfrwt>
<pdfrwt beam="2">  1       -2 0.63979552E-02 0.33132463E+03</pdfrwt>
<totfact> 0.72160368E+03</totfact>
</mgrwt>
</event>
<event>
 4    1  0.1305170E-003  0.1932889E+03  0.7818608E-02  0.1155528E+00
         -2   -1    0    0    0  501 -0.00000000000E+00  0.00000000000E+00  0.40679157873E+02  0.40679157953E+02  0.25500000000E-02 0. -1.
          2   -1    0    0  501    0  0.00000000000E+00 -0.00000000000E+00 -0.22960521735E+03  0.22960521736E+03  0.25500000000E-02 0.  1.
    5000001    1    1    2    0    0  0.46851955016E+01  0.50618225350E+02 -0.13467584792E+03  0.16325054306E+03  0.77000000000E+02 0.  0.
   -5000001    1    1    2    0    0 -0.46851955016E+01 -0.50618225350E+02 -0.54250211553E+02  0.10703383226E+03  0.77000000000E+02 0.  0.
<mgrwt>
<rscale>  0 0.19328887E+03</rscale>
<asrwt>0</asrwt>
<pdfrwt beam="1">  1        2 0.32800745E-01 0.19328887E+03</pdfrwt>
<pdfrwt beam="2">  1       -2 0.58113084E-02 0.19328887E+03</pdfrwt>
<totfact> 0.23718754E+04</totfact>
</mgrwt>
</event>
<event>
 4    1  0.1305170E-003  0.1580200E+03  0.7818608E-02  0.1190950E+00
          2   -1    0    0  501    0  0.00000000000E+00  0.00000000000E+00  0.14280507927E+04  0.14280507927E+04  0.25500000000E-02 0.  1.
         -2   -1    0    0    0  501 -0.00000000000E+00 -0.00000000000E+00 -0.43713992123E+01  0.43713999561E+01  0.25500000000E-02 0. -1.
    5000001    1    1    2    0    0  0.62816514414E+01 -0.11263594690E+02  0.60184013781E+03  0.60688292049E+03  0.77000000000E+02 0.  0.
   -5000001    1    1    2    0    0 -0.62816514414E+01  0.11263594690E+02  0.82183925570E+03  0.82553927219E+03  0.77000000000E+02 0.  0.
<mgrwt>
<rscale>  0 0.15802001E+03</rscale>
<asrwt>0</asrwt>
<pdfrwt beam="1">  1        2 0.20400758E+00 0.15802001E+03</pdfrwt>
<pdfrwt beam="2">  1       -2 0.62448467E-03 0.15802001E+03</pdfrwt>
<totfact> 0.68383847E+04</totfact>
</mgrwt>
</event>
<event>
 4    1  0.1305170E-003  0.2942568E+03  0.7818608E-02  0.1088147E+00
          2   -1    0    0  501    0  0.00000000000E+00  0.00000000000E+00  0.41087887202E+02  0.41087887281E+02  0.25500000000E-02 0.  1.
         -2   -1    0    0    0  501 -0.00000000000E+00 -0.00000000000E+00 -0.52684043002E+03  0.52684043003E+03  0.25500000000E-02 0. -1.
    5000001    1    1    2    0    0 -0.11516922427E+03 -0.31223418335E+02 -0.16865341378E+03  0.22048089724E+03  0.77000000000E+02 0.  0.
   -5000001    1    1    2    0    0  0.11516922427E+03  0.31223418335E+02 -0.31709912905E+03  0.34744742007E+03  0.77000000000E+02 0.  0.
<mgrwt>
<rscale>  0 0.29425676E+03</rscale>
<asrwt>0</asrwt>
<pdfrwt beam="1">  1        2 0.58696985E-02 0.29425676E+03</pdfrwt>
<pdfrwt beam="2">  1       -2 0.75262915E-01 0.29425676E+03</pdfrwt>
<totfact> 0.20738144E+03</totfact>
</mgrwt>
</event>
<event>
 4    1  0.1305170E-003  0.2264423E+03  0.7818608E-02  0.1129169E+00
         -2   -1    0    0    0  501 -0.00000000000E+00  0.00000000000E+00  0.85487993631E+01  0.85487997434E+01  0.25500000000E-02 0. -1.
          2   -1    0    0  501    0  0.00000000000E+00 -0.00000000000E+00 -0.14995115228E+04  0.14995115228E+04  0.25500000000E-02 0.  1.
    5000001    1    1    2    0    0 -0.54272187816E+02 -0.83947552334E+01 -0.33096125220E+03  0.34420966393E+03  0.77000000000E+02 0.  0.
   -5000001    1    1    2    0    0  0.54272187816E+02  0.83947552334E+01 -0.11600014713E+04  0.11638506586E+04  0.77000000000E+02 0.  0.
<mgrwt>
<rscale>  0 0.22644225E+03</rscale>
<asrwt>0</asrwt>
<pdfrwt beam="1">  1        2 0.21421576E+00 0.22644225E+03</pdfrwt>
<pdfrwt beam="2">  1       -2 0.12212580E-02 0.22644225E+03</pdfrwt>
<totfact> 0.24617403E+04</totfact>
</mgrwt>
</event>
<event>
 4    1  0.1305170E-003  0.3235820E+03  0.7818608E-02  0.1074012E+00
          2   -1    0    0  501    0  0.00000000000E+00  0.00000000000E+00  0.20248825809E+04  0.20248825809E+04  0.25500000000E-02 0.  1.
         -2   -1    0    0    0  501 -0.00000000000E+00 -0.00000000000E+00 -0.12927328396E+02  0.12927328647E+02  0.25500000000E-02 0. -1.
    5000001    1    1    2    0    0  0.13717653037E+03 -0.23570469424E+01  0.12436562846E+04  0.12535680717E+04  0.77000000000E+02 0.  0.
   -5000001    1    1    2    0    0 -0.13717653037E+03  0.23570469424E+01  0.76829896798E+03  0.78424183793E+03  0.77000000000E+02 0.  0.
<mgrwt>
<rscale>  0 0.32358197E+03</rscale>
<asrwt>0</asrwt>
<pdfrwt beam="1">  1        2 0.28926909E+00 0.32358197E+03</pdfrwt>
<pdfrwt beam="2">  1       -2 0.18467603E-02 0.32358197E+03</pdfrwt>
<totfact> 0.74801256E+03</totfact>
</mgrwt>
</event>
<event>
 4    1  0.1305170E-003  0.1728863E+03  0.7818608E-02  0.1174871E+00
          2   -1    0    0  501    0  0.00000000000E+00  0.00000000000E+00  0.33023422301E+04  0.33023422301E+04  0.25500000000E-02 0.  1.
         -2   -1    0    0    0  501 -0.00000000000E+00 -0.00000000000E+00 -0.22627632258E+01  0.22627646626E+01  0.25500000000E-02 0. -1.
    5000001    1    1    2    0    0  0.38825491648E+02 -0.41517997445E+01  0.15672398750E+04  0.15696160301E+04  0.77000000000E+02 0.  0.
   -5000001    1    1    2    0    0 -0.38825491648E+02  0.41517997445E+01  0.17328395919E+04  0.17349889646E+04  0.77000000000E+02 0.  0.
<mgrwt>
<rscale>  0 0.17288633E+03</rscale>
<asrwt>0</asrwt>
<pdfrwt beam="1">  1        2 0.47175662E+00 0.17288633E+03</pdfrwt>
<pdfrwt beam="2">  1       -2 0.32325648E-03 0.17288633E+03</pdfrwt>
<totfact> 0.20484033E+04</totfact>
</mgrwt>
</event>
<event>
 4    1  0.1305170E-003  0.5788240E+03  0.7818608E-02  0.9950340E-01
          2   -1    0    0  501    0  0.00000000000E+00  0.00000000000E+00  0.16698455318E+03  0.16698455320E+03  0.25500000000E-02 0.  1.
         -2   -1    0    0    0  501 -0.00000000000E+00 -0.00000000000E+00 -0.50159905766E+03  0.50159905767E+03  0.25500000000E-02 0. -1.
    5000001    1    1    2    0    0  0.24197511497E+03 -0.11103167830E+03 -0.26360389510E+03  0.38248660547E+03  0.77000000000E+02 0.  0.
   -5000001    1    1    2    0    0 -0.24197511497E+03  0.11103167830E+03 -0.71010609374E+02  0.28609700540E+03  0.77000000000E+02 0.  0.
<mgrwt>
<rscale>  0 0.57882396E+03</rscale>
<asrwt>0</asrwt>
<pdfrwt beam="1">  1        2 0.23854936E-01 0.57882396E+03</pdfrwt>
<pdfrwt beam="2">  1       -2 0.71657008E-01 0.57882396E+03</pdfrwt>
<totfact> 0.41239647E+02</totfact>
</mgrwt>
</event>
<event>
 4    1  0.1305170E-003  0.2445463E+03  0.7818608E-02  0.1116801E+00
         -2   -1    0    0    0  501 -0.00000000000E+00  0.00000000000E+00  0.18969335949E+02  0.18969336120E+02  0.25500000000E-02 0.  1.
          2   -1    0    0  501    0  0.00000000000E+00 -0.00000000000E+00 -0.78815226786E+03  0.78815226786E+03  0.25500000000E-02 0. -1.
    5000001    1    1    2    0    0 -0.83662680804E+02  0.42094989223E+02 -0.33237564051E+03  0.35379937632E+03  0.77000000000E+02 0.  0.
   -5000001    1    1    2    0    0  0.83662680804E+02 -0.42094989223E+02 -0.43680729140E+03  0.45332222766E+03  0.77000000000E+02 0.  0.
<mgrwt>
<rscale>  0 0.24454632E+03</rscale>
<asrwt>0</asrwt>
<pdfrwt beam="1">  1        2 0.11259316E+00 0.24454632E+03</pdfrwt>
<pdfrwt beam="2">  1       -2 0.27099056E-02 0.24454632E+03</pdfrwt>
<totfact> 0.19347442E+04</totfact>
</mgrwt>
</event>
<event>
 4    1  0.1305170E-003  0.2933069E+03  0.7818608E-02  0.1088635E+00
         -2   -1    0    0    0  501 -0.00000000000E+00  0.00000000000E+00  0.20336776450E+02  0.20336776610E+02  0.25500000000E-02 0. -1.
          2   -1    0    0  501    0  0.00000000000E+00 -0.00000000000E+00 -0.10575538354E+04  0.10575538354E+04  0.25500000000E-02 0.  1.
    5000001    1    1    2    0    0 -0.11761039929E+03  0.38169872955E+02 -0.58109263099E+03  0.59907160758E+03  0.77000000000E+02 0.  0.
   -5000001    1    1    2    0    0  0.11761039929E+03 -0.38169872955E+02 -0.45612442798E+03  0.47881900445E+03  0.77000000000E+02 0.  0.
<mgrwt>
<rscale>  0 0.29330691E+03</rscale>
<asrwt>0</asrwt>
<pdfrwt beam="1">  1        2 0.15107909E+00 0.29330691E+03</pdfrwt>
<pdfrwt beam="2">  1       -2 0.29052544E-02 0.29330691E+03</pdfrwt>
<totfact> 0.11973711E+04</totfact>
</mgrwt>
</event>
<event>
 4    1  0.1305170E-003  0.2983869E+03  0.7818608E-02  0.1086050E+00
          2   -1    0    0  501    0  0.00000000000E+00  0.00000000000E+00  0.73898622389E+03  0.73898622390E+03  0.25500000000E-02 0.  1.
         -2   -1    0    0    0  501 -0.00000000000E+00 -0.00000000000E+00 -0.30120571119E+02  0.30120571227E+02  0.25500000000E-02 0. -1.
    5000001    1    1    2    0    0 -0.10208121334E+03 -0.76378327251E+02  0.33204163169E+03  0.36391601802E+03  0.77000000000E+02 0.  0.
   -5000001    1    1    2    0    0  0.10208121334E+03  0.76378327251E+02  0.37682402108E+03  0.40519077711E+03  0.77000000000E+02 0.  0.
<mgrwt>
<rscale>  0 0.29838691E+03</rscale>
<asrwt>0</asrwt>
<pdfrwt beam="1">  1        2 0.10556944E+00 0.29838691E+03</pdfrwt>
<pdfrwt beam="2">  1       -2 0.43029395E-02 0.29838691E+03</pdfrwt>
<totfact> 0.10573380E+04</totfact>
</mgrwt>
</event>
<event>
 4    1  0.1305170E-003  0.2877972E+03  0.7818608E-02  0.1091505E+00
          2   -1    0    0  501    0  0.00000000000E+00  0.00000000000E+00  0.14160152561E+04  0.14160152561E+04  0.25500000000E-02 0.  1.
         -2   -1    0    0    0  501 -0.00000000000E+00 -0.00000000000E+00 -0.14623288874E+02  0.14623289096E+02  0.25500000000E-02 0. -1.
    5000001    1    1    2    0    0  0.11367086336E+03 -0.42935721756E+02  0.68259519388E+03  0.69758851775E+03  0.77000000000E+02 0.  0.
   -5000001    1    1    2    0    0 -0.11367086336E+03  0.42935721756E+02  0.71879677334E+03  0.73305002744E+03  0.77000000000E+02 0.  0.
<mgrwt>
<rscale>  0 0.28779715E+03</rscale>
<asrwt>0</asrwt>
<pdfrwt beam="1">  1        2 0.20228775E+00 0.28779715E+03</pdfrwt>
<pdfrwt beam="2">  1       -2 0.20890427E-02 0.28779715E+03</pdfrwt>
<totfact> 0.12493778E+04</totfact>
</mgrwt>
</event>
<event>
 4    1  0.1305170E-003  0.3352547E+03  0.7818608E-02  0.1068835E+00
          2   -1    0    0  501    0  0.00000000000E+00  0.00000000000E+00  0.98830142180E+03  0.98830142181E+03  0.25500000000E-02 0.  1.
         -2   -1    0    0    0  501 -0.00000000000E+00 -0.00000000000E+00 -0.28431536427E+02  0.28431536541E+02  0.25500000000E-02 0. -1.
    5000001    1    1    2    0    0 -0.13653473656E+03  0.58367740672E+02  0.44651988157E+03  0.47682023036E+03  0.77000000000E+02 0.  0.
   -5000001    1    1    2    0    0  0.13653473656E+03 -0.58367740672E+02  0.51335000381E+03  0.53991272799E+03  0.77000000000E+02 0.  0.
<mgrwt>
<rscale>  0 0.33525470E+03</rscale>
<asrwt>0</asrwt>
<pdfrwt beam="1">  1        2 0.14118588E+00 0.33525470E+03</pdfrwt>
<pdfrwt beam="2">  1       -2 0.40616492E-02 0.33525470E+03</pdfrwt>
<totfact> 0.79809746E+03</totfact>
</mgrwt>
</event>
<event>
 4    1  0.1305170E-003  0.6029878E+03  0.7818608E-02  0.9899227E-01
         -2   -1    0    0    0  501 -0.00000000000E+00  0.00000000000E+00  0.27499929940E+03  0.27499929941E+03  0.25500000000E-02 0. -1.
          2   -1    0    0  501    0  0.00000000000E+00 -0.00000000000E+00 -0.33054110282E+03  0.33054110283E+03  0.25500000000E-02 0.  1.
    5000001    1    1    2    0    0  0.17340676786E+03  0.22933620176E+03 -0.75980072127E+02  0.30719207661E+03  0.77000000000E+02 0.  0.
   -5000001    1    1    2    0    0 -0.17340676786E+03 -0.22933620176E+03  0.20438268709E+02  0.29834832562E+03  0.77000000000E+02 0.  0.
<mgrwt>
<rscale>  0 0.60298780E+03</rscale>
<asrwt>0</asrwt>
<pdfrwt beam="1">  1        2 0.47220157E-01 0.60298780E+03</pdfrwt>
<pdfrwt beam="2">  1       -2 0.39285615E-01 0.60298780E+03</pdfrwt>
<totfact> 0.65963999E+02</totfact>
</mgrwt>
</event>
<event>
 4    1  0.1305170E-003  0.3395528E+03  0.7818608E-02  0.1066987E+00
         -2   -1    0    0    0  501 -0.00000000000E+00  0.00000000000E+00  0.32769306797E+02  0.32769306896E+02  0.25500000000E-02 0. -1.
          2   -1    0    0  501    0  0.00000000000E+00 -0.00000000000E+00 -0.87960431760E+03  0.87960431760E+03  0.25500000000E-02 0.  1.
    5000001    1    1    2    0    0  0.11769700342E+03  0.91965328259E+02 -0.48839689544E+03  0.51649853213E+03  0.77000000000E+02 0.  0.
   -5000001    1    1    2    0    0 -0.11769700342E+03 -0.91965328259E+02 -0.35843811536E+03  0.39587509237E+03  0.77000000000E+02 0.  0.
<mgrwt>
<rscale>  0 0.33955279E+03</rscale>
<asrwt>0</asrwt>
<pdfrwt beam="1">  1        2 0.12565775E+00 0.33955279E+03</pdfrwt>
<pdfrwt beam="2">  1       -2 0.46813301E-02 0.33955279E+03</pdfrwt>
<totfact> 0.75117496E+03</totfact>
</mgrwt>
</event>
<event>
 4    1  0.1305170E-003  0.2680591E+03  0.7818608E-02  0.1102396E+00
         -2   -1    0    0    0  501 -0.00000000000E+00  0.00000000000E+00  0.41515163782E+02  0.41515163860E+02  0.25500000000E-02 0. -1.
          2   -1    0    0  501    0  0.00000000000E+00 -0.00000000000E+00 -0.43270747089E+03  0.43270747089E+03  0.25500000000E-02 0.  1.
    5000001    1    1    2    0    0 -0.23209983147E+02 -0.95992668976E+02 -0.28009950067E+03  0.30681920750E+03  0.77000000000E+02 0.  0.
   -5000001    1    1    2    0    0  0.23209983147E+02  0.95992668976E+02 -0.11109280643E+03  0.16740342725E+03  0.77000000000E+02 0.  0.
<mgrwt>
<rscale>  0 0.26805911E+03</rscale>
<asrwt>0</asrwt>
<pdfrwt beam="1">  1        2 0.61815350E-01 0.26805911E+03</pdfrwt>
<pdfrwt beam="2">  1       -2 0.59307380E-02 0.26805911E+03</pdfrwt>
<totfact> 0.11866682E+04</totfact>
</mgrwt>
</event>
<event>
 4    1  0.1305170E-003  0.5641670E+03  0.7818608E-02  0.9982670E-01
          2   -1    0    0  501    0  0.00000000000E+00  0.00000000000E+00  0.54140356056E+03  0.54140356057E+03  0.25500000000E-02 0.  1.
         -2   -1    0    0    0  501 -0.00000000000E+00 -0.00000000000E+00 -0.14697189146E+03  0.14697189148E+03  0.25500000000E-02 0. -1.
    5000001    1    1    2    0    0  0.50957442211E+01  0.22038604194E+03  0.39031838489E+03  0.45483339331E+03  0.77000000000E+02 0.  0.
   -5000001    1    1    2    0    0 -0.50957442211E+01 -0.22038604194E+03  0.41132842181E+01  0.23354205873E+03  0.77000000000E+02 0.  0.
<mgrwt>
<rscale>  0 0.56416702E+03</rscale>
<asrwt>0</asrwt>
<pdfrwt beam="1">  1        2 0.77343367E-01 0.56416702E+03</pdfrwt>
<pdfrwt beam="2">  1       -2 0.20995984E-01 0.56416702E+03</pdfrwt>
<totfact> 0.12001035E+03</totfact>
</mgrwt>
</event>
<event>
 4    1  0.1305170E-003  0.2067579E+03  0.7818608E-02  0.1144159E+00
          2   -1    0    0  501    0  0.00000000000E+00  0.00000000000E+00  0.14475157373E+04  0.14475157373E+04  0.25500000000E-02 0.  1.
         -2   -1    0    0    0  501 -0.00000000000E+00 -0.00000000000E+00 -0.73831398389E+01  0.73831402792E+01  0.25500000000E-02 0. -1.
    5000001    1    1    2    0    0 -0.13667206474E+02  0.67286100874E+02  0.67339019337E+03  0.68124706563E+03  0.77000000000E+02 0.  0.
   -5000001    1    1    2    0    0  0.13667206474E+02 -0.67286100874E+02  0.76674240411E+03  0.77365181197E+03  0.77000000000E+02 0.  0.
<mgrwt>
<rscale>  0 0.20675794E+03</rscale>
<asrwt>0</asrwt>
<pdfrwt beam="1">  1        2 0.20678799E+00 0.20675794E+03</pdfrwt>
<pdfrwt beam="2">  1       -2 0.10547341E-02 0.20675794E+03</pdfrwt>
<totfact> 0.32164980E+04</totfact>
</mgrwt>
</event>
<event>
 4    1  0.1305170E-003  0.5457052E+03  0.7818608E-02  0.1002493E+00
          2   -1    0    0  501    0  0.00000000000E+00  0.00000000000E+00  0.11640513232E+03  0.11640513235E+03  0.25500000000E-02 0.  1.
         -2   -1    0    0    0  501 -0.00000000000E+00 -0.00000000000E+00 -0.63956405706E+03  0.63956405706E+03  0.25500000000E-02 0. -1.
    5000001    1    1    2    0    0 -0.23378593090E+03  0.11577475716E+03 -0.29128720154E+03  0.39854346019E+03  0.77000000000E+02 0.  0.
   -5000001    1    1    2    0    0  0.23378593090E+03 -0.11577475716E+03 -0.23187172320E+03  0.35742572922E+03  0.77000000000E+02 0.  0.
<mgrwt>
<rscale>  0 0.54570519E+03</rscale>
<asrwt>0</asrwt>
<pdfrwt beam="1">  1        2 0.16629305E-01 0.54570519E+03</pdfrwt>
<pdfrwt beam="2">  1       -2 0.91366292E-01 0.54570519E+03</pdfrwt>
<totfact> 0.36510946E+02</totfact>
</mgrwt>
</event>
<event>
 4    1  0.1305170E-003  0.2222718E+03  0.7818608E-02  0.1132201E+00
         -2   -1    0    0    0  501 -0.00000000000E+00  0.00000000000E+00  0.11473623578E+03  0.11473623581E+03  0.25500000000E-02 0. -1.
          2   -1    0    0  501    0  0.00000000000E+00 -0.00000000000E+00 -0.10764852908E+03  0.10764852911E+03  0.25500000000E-02 0.  1.
    5000001    1    1    2    0    0 -0.29714086763E+02  0.74337519114E+02 -0.90253898383E-01  0.11107655849E+03  0.77000000000E+02 0.  0.
   -5000001    1    1    2    0    0  0.29714086763E+02 -0.74337519114E+02  0.71779605919E+01  0.11130820643E+03  0.77000000000E+02 0.  0.
<mgrwt>
<rscale>  0 0.22227179E+03</rscale>
<asrwt>0</asrwt>
<pdfrwt beam="1">  1        2 0.15378361E-01 0.22227179E+03</pdfrwt>
<pdfrwt beam="2">  1       -2 0.16390891E-01 0.22227179E+03</pdfrwt>
<totfact> 0.10883296E+04</totfact>
</mgrwt>
</event>
<event>
 4    1  0.1305170E-003  0.1948447E+03  0.7818608E-02  0.1154163E+00
          2   -1    0    0  501    0  0.00000000000E+00  0.00000000000E+00  0.10107975607E+03  0.10107975611E+03  0.25500000000E-02 0.  1.
         -2   -1    0    0    0  501 -0.00000000000E+00 -0.00000000000E+00 -0.93897283476E+02  0.93897283510E+02  0.25500000000E-02 0. -1.
    5000001    1    1    2    0    0 -0.35155632181E+01  0.59517213857E+02  0.63237659864E+01  0.97589179453E+02  0.77000000000E+02 0.  0.
   -5000001    1    1    2    0    0  0.35155632181E+01 -0.59517213857E+02  0.85870661132E+00  0.97387860163E+02  0.77000000000E+02 0.  0.
<mgrwt>
<rscale>  0 0.19484470E+03</rscale>
<asrwt>0</asrwt>
<pdfrwt beam="1">  1        2 0.14439965E-01 0.19484470E+03</pdfrwt>
<pdfrwt beam="2">  1       -2 0.13413898E-01 0.19484470E+03</pdfrwt>
<totfact> 0.16152086E+04</totfact>
</mgrwt>
</event>
<event>
 4    1  0.1305170E-003  0.3825328E+03  0.7818608E-02  0.1050002E+00
         -2   -1    0    0    0  501 -0.00000000000E+00  0.00000000000E+00  0.15992983864E+03  0.15992983866E+03  0.25500000000E-02 0. -1.
          2   -1    0    0  501    0  0.00000000000E+00 -0.00000000000E+00 -0.22874306612E+03  0.22874306614E+03  0.25500000000E-02 0.  1.
    5000001    1    1    2    0    0  0.15914515743E+03 -0.65770905227E+02 -0.22626274220E+01  0.18864546799E+03  0.77000000000E+02 0.  0.
   -5000001    1    1    2    0    0 -0.15914515743E+03  0.65770905227E+02 -0.66550600058E+02  0.20002743681E+03  0.77000000000E+02 0.  0.
<mgrwt>
<rscale>  0 0.38253283E+03</rscale>
<asrwt>0</asrwt>
<pdfrwt beam="1">  1        2 0.32677581E-01 0.38253283E+03</pdfrwt>
<pdfrwt beam="2">  1       -2 0.22847120E-01 0.38253283E+03</pdfrwt>
<totfact> 0.26766878E+03</totfact>
</mgrwt>
</event>
<event>
 4    1  0.1305170E-003  0.2992846E+03  0.7818608E-02  0.1085599E+00
          2   -1    0    0  501    0  0.00000000000E+00  0.00000000000E+00  0.66429111029E+02  0.66429111078E+02  0.25500000000E-02 0.  1.
         -2   -1    0    0    0  501 -0.00000000000E+00 -0.00000000000E+00 -0.33709340186E+03  0.33709340187E+03  0.25500000000E-02 0. -1.
    5000001    1    1    2    0    0  0.11841209792E+01 -0.12828129226E+03 -0.13872248451E+03  0.20403533957E+03  0.77000000000E+02 0.  0.
   -5000001    1    1    2    0    0 -0.11841209792E+01  0.12828129226E+03 -0.13194180632E+03  0.19948717337E+03  0.77000000000E+02 0.  0.
<mgrwt>
<rscale>  0 0.29928458E+03</rscale>
<asrwt>0</asrwt>
<pdfrwt beam="1">  1        2 0.94898732E-02 0.29928458E+03</pdfrwt>
<pdfrwt beam="2">  1       -2 0.48156199E-01 0.29928458E+03</pdfrwt>
<totfact> 0.28342214E+03</totfact>
</mgrwt>
</event>
<event>
 4    1  0.1305170E-003  0.2607845E+03  0.7818608E-02  0.1106673E+00
          2   -1    0    0  501    0  0.00000000000E+00  0.00000000000E+00  0.45753897713E+03  0.45753897714E+03  0.25500000000E-02 0.  1.
         -2   -1    0    0    0  501 -0.00000000000E+00 -0.00000000000E+00 -0.37159977564E+02  0.37159977652E+02  0.25500000000E-02 0. -1.
    5000001    1    1    2    0    0 -0.63893741082E+02 -0.79879959410E+02  0.16334099938E+03  0.20753915328E+03  0.77000000000E+02 0.  0.
   -5000001    1    1    2    0    0  0.63893741082E+02  0.79879959410E+02  0.25703800018E+03  0.28715980151E+03  0.77000000000E+02 0.  0.
<mgrwt>
<rscale>  0 0.26078449E+03</rscale>
<asrwt>0</asrwt>
<pdfrwt beam="1">  1        2 0.65362709E-01 0.26078449E+03</pdfrwt>
<pdfrwt beam="2">  1       -2 0.53085684E-02 0.26078449E+03</pdfrwt>
<totfact> 0.13209325E+04</totfact>
</mgrwt>
</event>
<event>
 4    1  0.1305170E-003  0.2182740E+03  0.7818608E-02  0.1135176E+00
         -2   -1    0    0    0  501 -0.00000000000E+00  0.00000000000E+00  0.16369251559E+03  0.16369251561E+03  0.25500000000E-02 0. -1.
          2   -1    0    0  501    0  0.00000000000E+00 -0.00000000000E+00 -0.72763772958E+02  0.72763773003E+02  0.25500000000E-02 0.  1.
    5000001    1    1    2    0    0  0.12313223074E+02 -0.48925620230E+02  0.10896973339E+03  0.14264899079E+03  0.77000000000E+02 0.  0.
   -5000001    1    1    2    0    0 -0.12313223074E+02  0.48925620230E+02 -0.18040990761E+02  0.93807297823E+02  0.77000000000E+02 0.  0.
<mgrwt>
<rscale>  0 0.21827400E+03</rscale>
<asrwt>0</asrwt>
<pdfrwt beam="1">  1        2 0.10394825E-01 0.21827400E+03</pdfrwt>
<pdfrwt beam="2">  1       -2 0.23384645E-01 0.21827400E+03</pdfrwt>
<totfact> 0.95240930E+03</totfact>
</mgrwt>
</event>
<event>
 4    1  0.1305170E-003  0.4172696E+03  0.7818608E-02  0.1037959E+00
         -2   -1    0    0    0  501 -0.00000000000E+00  0.00000000000E+00  0.32006116268E+02  0.32006116370E+02  0.25500000000E-02 0. -1.
          2   -1    0    0  501    0  0.00000000000E+00 -0.00000000000E+00 -0.13600050798E+04  0.13600050798E+04  0.25500000000E-02 0.  1.
    5000001    1    1    2    0    0 -0.78401832280E+01  0.18045123664E+03 -0.42869056433E+03  0.47151746227E+03  0.77000000000E+02 0.  0.
   -5000001    1    1    2    0    0  0.78401832280E+01 -0.18045123664E+03 -0.89930839919E+03  0.92049373389E+03  0.77000000000E+02 0.  0.
<mgrwt>
<rscale>  0 0.41726960E+03</rscale>
<asrwt>0</asrwt>
<pdfrwt beam="1">  1        2 0.19428640E+00 0.41726960E+03</pdfrwt>
<pdfrwt beam="2">  1       -2 0.45723032E-02 0.41726960E+03</pdfrwt>
<totfact> 0.41469736E+03</totfact>
</mgrwt>
</event>
<event>
 4    1  0.1305170E-003  0.1704484E+03  0.7818608E-02  0.1177381E+00
          2   -1    0    0  501    0  0.00000000000E+00  0.00000000000E+00  0.13470110242E+04  0.13470110242E+04  0.25500000000E-02 0.  1.
         -2   -1    0    0    0  501 -0.00000000000E+00 -0.00000000000E+00 -0.53920585332E+01  0.53920591361E+01  0.25500000000E-02 0. -1.
    5000001    1    1    2    0    0  0.31642594039E+02 -0.76144202865E+01  0.80236951625E+03  0.80671250998E+03  0.77000000000E+02 0.  0.
   -5000001    1    1    2    0    0 -0.31642594039E+02  0.76144202865E+01  0.53924944940E+03  0.54569057334E+03  0.77000000000E+02 0.  0.
<mgrwt>
<rscale>  0 0.17044838E+03</rscale>
<asrwt>0</asrwt>
<pdfrwt beam="1">  1        2 0.19243006E+00 0.17044838E+03</pdfrwt>
<pdfrwt beam="2">  1       -2 0.77029447E-03 0.17044838E+03</pdfrwt>
<totfact> 0.56059186E+04</totfact>
</mgrwt>
</event>
<event>
 4    1  0.1305170E-003  0.1922661E+03  0.7818608E-02  0.1156433E+00
          2   -1    0    0  501    0  0.00000000000E+00  0.00000000000E+00  0.60517574613E+02  0.60517574666E+02  0.25500000000E-02 0.  1.
         -2   -1    0    0    0  501 -0.00000000000E+00 -0.00000000000E+00 -0.15270879688E+03  0.15270879690E+03  0.25500000000E-02 0. -1.
    5000001    1    1    2    0    0  0.19624564925E+02 -0.53903608440E+02 -0.51278822355E+02  0.10885421523E+03  0.77000000000E+02 0.  0.
   -5000001    1    1    2    0    0 -0.19624564925E+02  0.53903608440E+02 -0.40912399908E+02  0.10437215633E+03  0.77000000000E+02 0.  0.
<mgrwt>
<rscale>  0 0.19226613E+03</rscale>
<asrwt>0</asrwt>
<pdfrwt beam="1">  1        2 0.86453679E-02 0.19226613E+03</pdfrwt>
<pdfrwt beam="2">  1       -2 0.21815542E-01 0.19226613E+03</pdfrwt>
<totfact> 0.13391982E+04</totfact>
</mgrwt>
</event>
<event>
 4    1  0.1305170E-003  0.7275207E+03  0.7818608E-02  0.9671292E-01
         -2   -1    0    0    0  501 -0.00000000000E+00  0.00000000000E+00  0.47189559543E+03  0.47189559544E+03  0.25500000000E-02 0. -1.
          2   -1    0    0  501    0  0.00000000000E+00 -0.00000000000E+00 -0.28040439962E+03  0.28040439964E+03  0.25500000000E-02 0.  1.
    5000001    1    1    2    0    0  0.86620335428E+01 -0.35273385904E+03  0.14077644217E+03  0.38761219383E+03  0.77000000000E+02 0.  0.
   -5000001    1    1    2    0    0 -0.86620335428E+01  0.35273385904E+03  0.50714753637E+02  0.36468780124E+03  0.77000000000E+02 0.  0.
<mgrwt>
<rscale>  0 0.72752072E+03</rscale>
<asrwt>0</asrwt>
<pdfrwt beam="1">  1        2 0.40057771E-01 0.72752072E+03</pdfrwt>
<pdfrwt beam="2">  1       -2 0.67413656E-01 0.72752072E+03</pdfrwt>
<totfact> 0.26175569E+02</totfact>
</mgrwt>
</event>
<event>
 4    1  0.1305170E-003  0.3218369E+03  0.7818608E-02  0.1074807E+00
          2   -1    0    0  501    0  0.00000000000E+00  0.00000000000E+00  0.47983754573E+03  0.47983754574E+03  0.25500000000E-02 0.  1.
         -2   -1    0    0    0  501 -0.00000000000E+00 -0.00000000000E+00 -0.53965654935E+02  0.53965654995E+02  0.25500000000E-02 0. -1.
    5000001    1    1    2    0    0 -0.64147875829E+02 -0.12160678290E+03  0.26700238283E+03  0.31003617862E+03  0.77000000000E+02 0.  0.
   -5000001    1    1    2    0    0  0.64147875829E+02  0.12160678290E+03  0.15886950797E+03  0.22376702211E+03  0.77000000000E+02 0.  0.
<mgrwt>
<rscale>  0 0.32183690E+03</rscale>
<asrwt>0</asrwt>
<pdfrwt beam="1">  1        2 0.68548219E-01 0.32183690E+03</pdfrwt>
<pdfrwt beam="2">  1       -2 0.77093794E-02 0.32183690E+03</pdfrwt>
<totfact> 0.71086643E+03</totfact>
</mgrwt>
</event>
<event>
 4    1  0.1305170E-003  0.2205518E+03  0.7818608E-02  0.1133472E+00
         -2   -1    0    0    0  501 -0.00000000000E+00  0.00000000000E+00  0.39987428489E+03  0.39987428489E+03  0.25500000000E-02 0. -1.
          2   -1    0    0  501    0  0.00000000000E+00 -0.00000000000E+00 -0.30411499642E+02  0.30411499749E+02  0.25500000000E-02 0.  1.
    5000001    1    1    2    0    0 -0.73725647296E+02 -0.15086363005E+02  0.13820592581E+03  0.17519402772E+03  0.77000000000E+02 0.  0.
   -5000001    1    1    2    0    0  0.73725647296E+02  0.15086363005E+02  0.23125685943E+03  0.25509175693E+03  0.77000000000E+02 0.  0.
<mgrwt>
<rscale>  0 0.22055182E+03</rscale>
<asrwt>0</asrwt>
<pdfrwt beam="1">  1        2 0.43445000E-02 0.22055182E+03</pdfrwt>
<pdfrwt beam="2">  1       -2 0.57124898E-01 0.22055182E+03</pdfrwt>
<totfact> 0.54540352E+03</totfact>
</mgrwt>
</event>
<event>
 4    1  0.1305170E-003  0.2714383E+03  0.7818608E-02  0.1100459E+00
          2   -1    0    0  501    0  0.00000000000E+00  0.00000000000E+00  0.17604842976E+03  0.17604842978E+03  0.25500000000E-02 0.  1.
         -2   -1    0    0    0  501 -0.00000000000E+00 -0.00000000000E+00 -0.10462855586E+03  0.10462855589E+03  0.25500000000E-02 0. -1.
    5000001    1    1    2    0    0  0.75378621793E+02 -0.77574571907E+02  0.66290282588E+01  0.13293868830E+03  0.77000000000E+02 0.  0.
   -5000001    1    1    2    0    0 -0.75378621793E+02  0.77574571907E+02  0.64790845645E+02  0.14773829737E+03  0.77000000000E+02 0.  0.
<mgrwt>
<rscale>  0 0.27143834E+03</rscale>
<asrwt>0</asrwt>
<pdfrwt beam="1">  1        2 0.25149776E-01 0.27143834E+03</pdfrwt>
<pdfrwt beam="2">  1       -2 0.14946937E-01 0.27143834E+03</pdfrwt>
<totfact> 0.72898395E+03</totfact>
</mgrwt>
</event>
<event>
 4    1  0.1305170E-003  0.2086465E+03  0.7818608E-02  0.1142642E+00
          2   -1    0    0  501    0  0.00000000000E+00  0.00000000000E+00  0.10605518882E+03  0.10605518886E+03  0.25500000000E-02 0.  1.
         -2   -1    0    0    0  501 -0.00000000000E+00 -0.00000000000E+00 -0.10261956453E+03  0.10261956456E+03  0.25500000000E-02 0. -1.
    5000001    1    1    2    0    0 -0.59419271285E+02 -0.29139257982E+02 -0.22256068165E+02  0.10394267038E+03  0.77000000000E+02 0.  0.
   -5000001    1    1    2    0    0  0.59419271285E+02  0.29139257982E+02  0.25691692459E+02  0.10473208304E+03  0.77000000000E+02 0.  0.
<mgrwt>
<rscale>  0 0.20864647E+03</rscale>
<asrwt>0</asrwt>
<pdfrwt beam="1">  1        2 0.15150741E-01 0.20864647E+03</pdfrwt>
<pdfrwt beam="2">  1       -2 0.14659938E-01 0.20864647E+03</pdfrwt>
<totfact> 0.13264605E+04</totfact>
</mgrwt>
</event>
<event>
 4    1  0.1305170E-003  0.2061447E+03  0.7818608E-02  0.1144656E+00
         -2   -1    0    0    0  501 -0.00000000000E+00  0.00000000000E+00  0.75856911744E+01  0.75856916030E+01  0.25500000000E-02 0. -1.
          2   -1    0    0  501    0  0.00000000000E+00 -0.00000000000E+00 -0.14005198418E+04  0.14005198418E+04  0.25500000000E-02 0.  1.
    5000001    1    1    2    0    0  0.48513340031E+02  0.40736501995E+02 -0.87483829653E+03  0.88050215890E+03  0.77000000000E+02 0.  0.
   -5000001    1    1    2    0    0 -0.48513340031E+02 -0.40736501995E+02 -0.51809585407E+03  0.52760337448E+03  0.77000000000E+02 0.  0.
<mgrwt>
<rscale>  0 0.20614472E+03</rscale>
<asrwt>0</asrwt>
<pdfrwt beam="1">  1        2 0.20007410E+00 0.20614472E+03</pdfrwt>
<pdfrwt beam="2">  1       -2 0.10836711E-02 0.20614472E+03</pdfrwt>
<totfact> 0.32669197E+04</totfact>
</mgrwt>
</event>
<event>
 4    1  0.1305170E-003  0.2163335E+03  0.7818608E-02  0.1136646E+00
          2   -1    0    0  501    0  0.00000000000E+00  0.00000000000E+00  0.63034319832E+03  0.63034319832E+03  0.25500000000E-02 0.  1.
         -2   -1    0    0    0  501 -0.00000000000E+00 -0.00000000000E+00 -0.18561389952E+02  0.18561390127E+02  0.25500000000E-02 0. -1.
    5000001    1    1    2    0    0 -0.45326906055E+01 -0.62940859289E+02  0.17902175282E+03  0.20484112145E+03  0.77000000000E+02 0.  0.
   -5000001    1    1    2    0    0  0.45326906055E+01  0.62940859289E+02  0.43276005554E+03  0.44406346700E+03  0.77000000000E+02 0.  0.
<mgrwt>
<rscale>  0 0.21633350E+03</rscale>
<asrwt>0</asrwt>
<pdfrwt beam="1">  1        2 0.90049014E-01 0.21633350E+03</pdfrwt>
<pdfrwt beam="2">  1       -2 0.26516276E-02 0.21633350E+03</pdfrwt>
<totfact> 0.25838329E+04</totfact>
</mgrwt>
</event>
<event>
 4    1  0.1305170E-003  0.2639094E+03  0.7818608E-02  0.1104817E+00
         -2   -1    0    0    0  501 -0.00000000000E+00  0.00000000000E+00  0.57721297544E+03  0.57721297545E+03  0.25500000000E-02 0. -1.
          2   -1    0    0  501    0  0.00000000000E+00 -0.00000000000E+00 -0.30165712523E+02  0.30165712631E+02  0.25500000000E-02 0.  1.
    5000001    1    1    2    0    0 -0.94228546260E+02  0.51018895864E+02  0.27593089394E+03  0.30585749115E+03  0.77000000000E+02 0.  0.
   -5000001    1    1    2    0    0  0.94228546260E+02 -0.51018895864E+02  0.27111636898E+03  0.30152119693E+03  0.77000000000E+02 0.  0.
<mgrwt>
<rscale>  0 0.26390938E+03</rscale>
<asrwt>0</asrwt>
<pdfrwt beam="1">  1        2 0.43093876E-02 0.26390938E+03</pdfrwt>
<pdfrwt beam="2">  1       -2 0.82458996E-01 0.26390938E+03</pdfrwt>
<totfact> 0.25438318E+03</totfact>
</mgrwt>
</event>
<event>
 4    1  0.1305170E-003  0.2100640E+03  0.7818608E-02  0.1141515E+00
          2   -1    0    0  501    0  0.00000000000E+00  0.00000000000E+00  0.15087833055E+03  0.15087833057E+03  0.25500000000E-02 0.  1.
         -2   -1    0    0    0  501 -0.00000000000E+00 -0.00000000000E+00 -0.73116675113E+02  0.73116675157E+02  0.25500000000E-02 0. -1.
    5000001    1    1    2    0    0 -0.43978929330E+02 -0.51590529001E+02  0.14871076577E+02  0.10366232597E+03  0.77000000000E+02 0.  0.
   -5000001    1    1    2    0    0  0.43978929330E+02  0.51590529001E+02  0.62890578858E+02  0.12033267975E+03  0.77000000000E+02 0.  0.
<mgrwt>
<rscale>  0 0.21006401E+03</rscale>
<asrwt>0</asrwt>
<pdfrwt beam="1">  1        2 0.21554047E-01 0.21006401E+03</pdfrwt>
<pdfrwt beam="2">  1       -2 0.10445239E-01 0.21006401E+03</pdfrwt>
<totfact> 0.15267182E+04</totfact>
</mgrwt>
</event>
<event>
 4    1  0.1305170E-003  0.3535820E+03  0.7818608E-02  0.1061154E+00
         -2   -1    0    0    0  501 -0.00000000000E+00  0.00000000000E+00  0.11239453837E+03  0.11239453840E+03  0.25500000000E-02 0. -1.
          2   -1    0    0  501    0  0.00000000000E+00 -0.00000000000E+00 -0.27808345877E+03  0.27808345878E+03  0.25500000000E-02 0.  1.
    5000001    1    1    2    0    0  0.11393923500E+03 -0.48798832579E+02 -0.19307259155E+03  0.24201136531E+03  0.77000000000E+02 0.  0.
   -5000001    1    1    2    0    0 -0.11393923500E+03  0.48798832579E+02  0.27383671140E+02  0.14846663187E+03  0.77000000000E+02 0.  0.
<mgrwt>
<rscale>  0 0.35358202E+03</rscale>
<asrwt>0</asrwt>
<pdfrwt beam="1">  1        2 0.39726208E-01 0.35358202E+03</pdfrwt>
<pdfrwt beam="2">  1       -2 0.16056363E-01 0.35358202E+03</pdfrwt>
<totfact> 0.39488191E+03</totfact>
</mgrwt>
</event>
<event>
 4    1  0.1305170E-003  0.1816981E+03  0.7818608E-02  0.1166170E+00
         -2   -1    0    0    0  501 -0.00000000000E+00  0.00000000000E+00  0.71886415713E+01  0.71886420236E+01  0.25500000000E-02 0. -1.
          2   -1    0    0  501    0  0.00000000000E+00 -0.00000000000E+00 -0.11481370727E+04  0.11481370727E+04  0.25500000000E-02 0.  1.
    5000001    1    1    2    0    0  0.30425010228E+02 -0.69431974994E+01 -0.33679145464E+03  0.34688812772E+03  0.77000000000E+02 0.  0.
   -5000001    1    1    2    0    0 -0.30425010228E+02  0.69431974994E+01 -0.80415697649E+03  0.80843758700E+03  0.77000000000E+02 0.  0.
<mgrwt>
<rscale>  0 0.18169806E+03</rscale>
<asrwt>0</asrwt>
<pdfrwt beam="1">  1        2 0.16401946E+00 0.18169806E+03</pdfrwt>
<pdfrwt beam="2">  1       -2 0.10269496E-02 0.18169806E+03</pdfrwt>
<totfact> 0.47468598E+04</totfact>
</mgrwt>
</event>
<event>
 4    1  0.1305170E-003  0.1187568E+04  0.7818608E-02  0.9123808E-01
         -2   -1    0    0    0  501 -0.00000000000E+00  0.00000000000E+00  0.19410034562E+03  0.19410034564E+03  0.25500000000E-02 0. -1.
          2   -1    0    0  501    0  0.00000000000E+00 -0.00000000000E+00 -0.18164808058E+04  0.18164808058E+04  0.25500000000E-02 0.  1.
    5000001    1    1    2    0    0  0.45945177215E+03  0.10979570790E+02 -0.14342461342E+04  0.15080475640E+04  0.77000000000E+02 0.  0.
   -5000001    1    1    2    0    0 -0.45945177215E+03 -0.10979570790E+02 -0.18813432604E+03  0.50253358748E+03  0.77000000000E+02 0.  0.
<mgrwt>
<rscale>  0 0.11875682E+04</rscale>
<asrwt>0</asrwt>
<pdfrwt beam="1">  1        2 0.25949725E+00 0.11875682E+04</pdfrwt>
<pdfrwt beam="2">  1       -2 0.27728622E-01 0.11875682E+04</pdfrwt>
<totfact> 0.11691866E+02</totfact>
</mgrwt>
</event>
<event>
 4    1  0.1305170E-003  0.1903716E+03  0.7818608E-02  0.1158127E+00
         -2   -1    0    0    0  501 -0.00000000000E+00  0.00000000000E+00  0.84167553102E+01  0.84167556965E+01  0.25500000000E-02 0. -1.
          2   -1    0    0  501    0  0.00000000000E+00 -0.00000000000E+00 -0.10764647219E+04  0.10764647219E+04  0.25500000000E-02 0.  1.
    5000001    1    1    2    0    0  0.31021887269E+02  0.44022977158E+02 -0.44741782516E+03  0.45717840093E+03  0.77000000000E+02 0.  0.
   -5000001    1    1    2    0    0 -0.31021887269E+02 -0.44022977158E+02 -0.62063014147E+03  0.62770307670E+03  0.77000000000E+02 0.  0.
<mgrwt>
<rscale>  0 0.19037164E+03</rscale>
<asrwt>0</asrwt>
<pdfrwt beam="1">  1        2 0.15378059E+00 0.19037164E+03</pdfrwt>
<pdfrwt beam="2">  1       -2 0.12023943E-02 0.19037164E+03</pdfrwt>
<totfact> 0.41577537E+04</totfact>
</mgrwt>
</event>
<event>
 4    1  0.1305170E-003  0.2107898E+03  0.7818608E-02  0.1140942E+00
         -2   -1    0    0    0  501 -0.00000000000E+00  0.00000000000E+00  0.81026433948E+01  0.81026437961E+01  0.25500000000E-02 0. -1.
          2   -1    0    0  501    0  0.00000000000E+00 -0.00000000000E+00 -0.13709204777E+04  0.13709204777E+04  0.25500000000E-02 0.  1.
    5000001    1    1    2    0    0 -0.16589163483E+02 -0.67378727937E+02 -0.55659448229E+03  0.56616385529E+03  0.77000000000E+02 0.  0.
   -5000001    1    1    2    0    0  0.16589163483E+02  0.67378727937E+02 -0.80622335204E+03  0.81285926623E+03  0.77000000000E+02 0.  0.
<mgrwt>
<rscale>  0 0.21078975E+03</rscale>
<asrwt>0</asrwt>
<pdfrwt beam="1">  1        2 0.19584563E+00 0.21078975E+03</pdfrwt>
<pdfrwt beam="2">  1       -2 0.11575214E-02 0.21078975E+03</pdfrwt>
<totfact> 0.30792561E+04</totfact>
</mgrwt>
</event>
<event>
 4    1  0.1305170E-003  0.4126767E+03  0.7818608E-02  0.1039476E+00
          2   -1    0    0  501    0  0.00000000000E+00  0.00000000000E+00  0.99543911969E+03  0.99543911969E+03  0.25500000000E-02 0.  1.
         -2   -1    0    0    0  501 -0.00000000000E+00 -0.00000000000E+00 -0.42770585066E+02  0.42770585142E+02  0.25500000000E-02 0. -1.
    5000001    1    1    2    0    0 -0.12490155125E+03 -0.13995821882E+03  0.57239061288E+03  0.60724683139E+03  0.77000000000E+02 0.  0.
   -5000001    1    1    2    0    0  0.12490155125E+03  0.13995821882E+03  0.38027792174E+03  0.43096287344E+03  0.77000000000E+02 0.  0.
<mgrwt>
<rscale>  0 0.41267669E+03</rscale>
<asrwt>0</asrwt>
<pdfrwt beam="1">  1        2 0.14220557E+00 0.41267669E+03</pdfrwt>
<pdfrwt beam="2">  1       -2 0.61100842E-02 0.41267669E+03</pdfrwt>
<totfact> 0.42417029E+03</totfact>
</mgrwt>
</event>
<event>
 4    1  0.1305170E-003  0.2049254E+03  0.7818608E-02  0.1145649E+00
         -2   -1    0    0    0  501 -0.00000000000E+00  0.00000000000E+00  0.31672981275E+02  0.31672981377E+02  0.25500000000E-02 0. -1.
          2   -1    0    0  501    0  0.00000000000E+00 -0.00000000000E+00 -0.33146891366E+03  0.33146891367E+03  0.25500000000E-02 0.  1.
    5000001    1    1    2    0    0 -0.55536154813E+02  0.37460809671E+02 -0.13384807701E+03  0.16832077849E+03  0.77000000000E+02 0.  0.
   -5000001    1    1    2    0    0  0.55536154813E+02 -0.37460809671E+02 -0.16594785538E+03  0.19482111656E+03  0.77000000000E+02 0.  0.
<mgrwt>
<rscale>  0 0.20492544E+03</rscale>
<asrwt>0</asrwt>
<pdfrwt beam="1">  1        2 0.47352700E-01 0.20492544E+03</pdfrwt>
<pdfrwt beam="2">  1       -2 0.45247118E-02 0.20492544E+03</pdfrwt>
<totfact> 0.23460121E+04</totfact>
</mgrwt>
</event>
<event>
 4    1  0.1305170E-003  0.2272287E+03  0.7818608E-02  0.1128606E+00
          2   -1    0    0  501    0  0.00000000000E+00  0.00000000000E+00  0.34146408117E+04  0.34146408117E+04  0.25500000000E-02 0.  1.
         -2   -1    0    0    0  501 -0.00000000000E+00 -0.00000000000E+00 -0.37802579396E+01  0.37802587996E+01  0.25500000000E-02 0. -1.
    5000001    1    1    2    0    0 -0.78531803793E+02  0.27902960690E+02  0.16184804703E+04  0.16224530355E+04  0.77000000000E+02 0.  0.
   -5000001    1    1    2    0    0  0.78531803793E+02 -0.27902960690E+02  0.17923800835E+04  0.17959680351E+04  0.77000000000E+02 0.  0.
<mgrwt>
<rscale>  0 0.22722874E+03</rscale>
<asrwt>0</asrwt>
<pdfrwt beam="1">  1        2 0.48780820E+00 0.22722874E+03</pdfrwt>
<pdfrwt beam="2">  1       -2 0.54003428E-03 0.22722874E+03</pdfrwt>
<totfact> 0.85554653E+03</totfact>
</mgrwt>
</event>
<event>
 4    1  0.1305170E-003  0.1691293E+03  0.7818608E-02  0.1178759E+00
         -2   -1    0    0    0  501 -0.00000000000E+00  0.00000000000E+00  0.42714963179E+01  0.42714970790E+01  0.25500000000E-02 0. -1.
          2   -1    0    0  501    0  0.00000000000E+00 -0.00000000000E+00 -0.16741632232E+04  0.16741632232E+04  0.25500000000E-02 0.  1.
    5000001    1    1    2    0    0 -0.49520212897E+01  0.33043873638E+02 -0.73288680697E+03  0.73767776971E+03  0.77000000000E+02 0.  0.
   -5000001    1    1    2    0    0  0.49520212897E+01 -0.33043873638E+02 -0.93700491987E+03  0.94075695053E+03  0.77000000000E+02 0.  0.
<mgrwt>
<rscale>  0 0.16912933E+03</rscale>
<asrwt>0</asrwt>
<pdfrwt beam="1">  1        2 0.23916576E+00 0.16912933E+03</pdfrwt>
<pdfrwt beam="2">  1       -2 0.61021489E-03 0.16912933E+03</pdfrwt>
<totfact> 0.53779579E+04</totfact>
</mgrwt>
</event>
<event>
 4    1  0.1305170E-003  0.2062094E+03  0.7818608E-02  0.1144603E+00
         -2   -1    0    0    0  501 -0.00000000000E+00  0.00000000000E+00  0.37291852126E+03  0.37291852127E+03  0.25500000000E-02 0. -1.
          2   -1    0    0  501    0  0.00000000000E+00 -0.00000000000E+00 -0.28506425872E+02  0.28506425986E+02  0.25500000000E-02 0.  1.
    5000001    1    1    2    0    0  0.45422343193E+02  0.51278117951E+01  0.27169849433E+03  0.28607438812E+03  0.77000000000E+02 0.  0.
   -5000001    1    1    2    0    0 -0.45422343193E+02 -0.51278117951E+01  0.72713601059E+02  0.11535055914E+03  0.77000000000E+02 0.  0.
<mgrwt>
<rscale>  0 0.20620935E+03</rscale>
<asrwt>0</asrwt>
<pdfrwt beam="1">  1        2 0.40723463E-02 0.20620935E+03</pdfrwt>
<pdfrwt beam="2">  1       -2 0.53274077E-01 0.20620935E+03</pdfrwt>
<totfact> 0.68210660E+03</totfact>
</mgrwt>
</event>
<event>
 4    1  0.1305170E-003  0.8476791E+03  0.7818608E-02  0.9493457E-01
         -2   -1    0    0    0  501 -0.00000000000E+00  0.00000000000E+00  0.14499729040E+03  0.14499729042E+03  0.25500000000E-02 0. -1.
          2   -1    0    0  501    0  0.00000000000E+00 -0.00000000000E+00 -0.12389194528E+04  0.12389194528E+04  0.25500000000E-02 0.  1.
    5000001    1    1    2    0    0  0.28053848804E+03 -0.35796232881E+02 -0.10467798781E+04  0.10870420078E+04  0.77000000000E+02 0.  0.
   -5000001    1    1    2    0    0 -0.28053848804E+03  0.35796232881E+02 -0.47142284310E+02  0.29687473542E+03  0.77000000000E+02 0.  0.
<mgrwt>
<rscale>  0 0.84767910E+03</rscale>
<asrwt>0</asrwt>
<pdfrwt beam="1">  1        2 0.17698849E+00 0.84767910E+03</pdfrwt>
<pdfrwt beam="2">  1       -2 0.20713899E-01 0.84767910E+03</pdfrwt>
<totfact> 0.40841187E+02</totfact>
</mgrwt>
</event>
<event>
 4    1  0.1305170E-003  0.2873381E+03  0.7818608E-02  0.1091747E+00
          2   -1    0    0  501    0  0.00000000000E+00  0.00000000000E+00  0.66447339801E+03  0.66447339801E+03  0.25500000000E-02 0.  1.
         -2   -1    0    0    0  501 -0.00000000000E+00 -0.00000000000E+00 -0.31063396794E+02  0.31063396898E+02  0.25500000000E-02 0. -1.
    5000001    1    1    2    0    0  0.84321961367E+02 -0.39934859827E+02  0.50431196581E+03  0.51861791818E+03  0.77000000000E+02 0.  0.
   -5000001    1    1    2    0    0 -0.84321961367E+02  0.39934859827E+02  0.12909803540E+03  0.17691887673E+03  0.77000000000E+02 0.  0.
<mgrwt>
<rscale>  0 0.28733813E+03</rscale>
<asrwt>0</asrwt>
<pdfrwt beam="1">  1        2 0.94924771E-01 0.28733813E+03</pdfrwt>
<pdfrwt beam="2">  1       -2 0.44376281E-02 0.28733813E+03</pdfrwt>
<totfact> 0.11437266E+04</totfact>
</mgrwt>
</event>
<event>
 4    1  0.1305170E-003  0.1819681E+03  0.7818608E-02  0.1165912E+00
         -2   -1    0    0    0  501 -0.00000000000E+00  0.00000000000E+00  0.43102477707E+01  0.43102485250E+01  0.25500000000E-02 0. -1.
          2   -1    0    0  501    0  0.00000000000E+00 -0.00000000000E+00 -0.19205620002E+04  0.19205620002E+04  0.25500000000E-02 0.  1.
    5000001    1    1    2    0    0 -0.30610949922E+02 -0.31876023880E+02 -0.11686236153E+04  0.11719911542E+04  0.77000000000E+02 0.  0.
   -5000001    1    1    2    0    0  0.30610949922E+02  0.31876023880E+02 -0.74762813711E+03  0.75288109457E+03  0.77000000000E+02 0.  0.
<mgrwt>
<rscale>  0 0.18196812E+03</rscale>
<asrwt>0</asrwt>
<pdfrwt beam="1">  1        2 0.27436545E+00 0.18196812E+03</pdfrwt>
<pdfrwt beam="2">  1       -2 0.61575097E-03 0.18196812E+03</pdfrwt>
<totfact> 0.40591278E+04</totfact>
</mgrwt>
</event>
<event>
 4    1  0.1305170E-003  0.1887680E+03  0.7818608E-02  0.1159577E+00
          2   -1    0    0  501    0  0.00000000000E+00  0.00000000000E+00  0.16770363357E+02  0.16770363551E+02  0.25500000000E-02 0.  1.
         -2   -1    0    0    0  501 -0.00000000000E+00 -0.00000000000E+00 -0.53119550556E+03  0.53119550557E+03  0.25500000000E-02 0. -1.
    5000001    1    1    2    0    0 -0.43138244801E+02 -0.30918630274E+02 -0.22021151493E+03  0.23924669521E+03  0.77000000000E+02 0.  0.
   -5000001    1    1    2    0    0  0.43138244801E+02  0.30918630274E+02 -0.29421362728E+03  0.30871917391E+03  0.77000000000E+02 0.  0.
<mgrwt>
<rscale>  0 0.18876802E+03</rscale>
<asrwt>0</asrwt>
<pdfrwt beam="1">  1        2 0.23957665E-02 0.18876802E+03</pdfrwt>
<pdfrwt beam="2">  1       -2 0.75885062E-01 0.18876802E+03</pdfrwt>
<totfact> 0.66245475E+03</totfact>
</mgrwt>
</event>
<event>
 4    1  0.1305170E-003  0.3968169E+03  0.7818608E-02  0.1044887E+00
         -2   -1    0    0    0  501 -0.00000000000E+00  0.00000000000E+00  0.34216829482E+02  0.34216829577E+02  0.25500000000E-02 0. -1.
          2   -1    0    0  501    0  0.00000000000E+00 -0.00000000000E+00 -0.11504836565E+04  0.11504836565E+04  0.25500000000E-02 0.  1.
    5000001    1    1    2    0    0 -0.84426078365E+01 -0.93258413345E+02 -0.10270437198E+04  0.10341741690E+04  0.77000000000E+02 0.  0.
   -5000001    1    1    2    0    0  0.84426078365E+01  0.93258413345E+02 -0.89223107148E+02  0.15052631709E+03  0.77000000000E+02 0.  0.
<mgrwt>
<rscale>  0 0.39681685E+03</rscale>
<asrwt>0</asrwt>
<pdfrwt beam="1">  1        2 0.16435478E+00 0.39681685E+03</pdfrwt>
<pdfrwt beam="2">  1       -2 0.48881192E-02 0.39681685E+03</pdfrwt>
<totfact> 0.48632468E+03</totfact>
</mgrwt>
</event>
<event>
 4    1  0.1305170E-003  0.2061200E+03  0.7818608E-02  0.1144676E+00
         -2   -1    0    0    0  501 -0.00000000000E+00  0.00000000000E+00  0.17017418421E+03  0.17017418423E+03  0.25500000000E-02 0. -1.
          2   -1    0    0  501    0  0.00000000000E+00 -0.00000000000E+00 -0.62414628475E+02  0.62414628527E+02  0.25500000000E-02 0.  1.
    5000001    1    1    2    0    0  0.83964582574E+01 -0.67750377649E+02  0.47522052959E+02  0.11334884075E+03  0.77000000000E+02 0.  0.
   -5000001    1    1    2    0    0 -0.83964582574E+01  0.67750377649E+02  0.60237502781E+02  0.11923997201E+03  0.77000000000E+02 0.  0.
<mgrwt>
<rscale>  0 0.20611995E+03</rscale>
<asrwt>0</asrwt>
<pdfrwt beam="1">  1        2 0.89163756E-02 0.20611995E+03</pdfrwt>
<pdfrwt beam="2">  1       -2 0.24310597E-01 0.20611995E+03</pdfrwt>
<totfact> 0.10728733E+04</totfact>
</mgrwt>
</event>
<event>
 4    1  0.1305170E-003  0.1809336E+03  0.7818608E-02  0.1166903E+00
         -2   -1    0    0    0  501 -0.00000000000E+00  0.00000000000E+00  0.96603425364E+01  0.96603428729E+01  0.25500000000E-02 0. -1.
          2   -1    0    0  501    0  0.00000000000E+00 -0.00000000000E+00 -0.84720038777E+03  0.84720038777E+03  0.25500000000E-02 0.  1.
    5000001    1    1    2    0    0 -0.41954708365E+02 -0.35865111937E+01 -0.31477849330E+03  0.32678366003E+03  0.77000000000E+02 0.  0.
   -5000001    1    1    2    0    0  0.41954708365E+02  0.35865111937E+01 -0.52276155193E+03  0.53007707062E+03  0.77000000000E+02 0.  0.
<mgrwt>
<rscale>  0 0.18093365E+03</rscale>
<asrwt>0</asrwt>
<pdfrwt beam="1">  1        2 0.12102858E+00 0.18093365E+03</pdfrwt>
<pdfrwt beam="2">  1       -2 0.13800495E-02 0.18093365E+03</pdfrwt>
<totfact> 0.46488038E+04</totfact>
</mgrwt>
</event>
<event>
 4    1  0.1305170E-003  0.2897205E+03  0.7818608E-02  0.1090495E+00
          2   -1    0    0  501    0  0.00000000000E+00  0.00000000000E+00  0.45711573666E+03  0.45711573667E+03  0.25500000000E-02 0.  1.
         -2   -1    0    0    0  501 -0.00000000000E+00 -0.00000000000E+00 -0.45906307698E+02  0.45906307769E+02  0.25500000000E-02 0. -1.
    5000001    1    1    2    0    0 -0.60265125429E+02 -0.88594458978E+02  0.10179848077E+03  0.16665171524E+03  0.77000000000E+02 0.  0.
   -5000001    1    1    2    0    0  0.60265125429E+02  0.88594458978E+02  0.30941094820E+03  0.33637032920E+03  0.77000000000E+02 0.  0.
<mgrwt>
<rscale>  0 0.28972053E+03</rscale>
<asrwt>0</asrwt>
<pdfrwt beam="1">  1        2 0.65302254E-01 0.28972053E+03</pdfrwt>
<pdfrwt beam="2">  1       -2 0.65580434E-02 0.28972053E+03</pdfrwt>
<totfact> 0.96068052E+03</totfact>
</mgrwt>
</event>
<event>
 4    1  0.1305170E-003  0.3655018E+03  0.7818608E-02  0.1056426E+00
         -2   -1    0    0    0  501 -0.00000000000E+00  0.00000000000E+00  0.23049057009E+02  0.23049057150E+02  0.25500000000E-02 0. -1.
          2   -1    0    0  501    0  0.00000000000E+00 -0.00000000000E+00 -0.14489919268E+04  0.14489919268E+04  0.25500000000E-02 0.  1.
    5000001    1    1    2    0    0  0.16426814864E+03 -0.18204020322E+01 -0.62459120158E+03  0.65040795476E+03  0.77000000000E+02 0.  0.
   -5000001    1    1    2    0    0 -0.16426814864E+03  0.18204020322E+01 -0.80135166825E+03  0.82163302924E+03  0.77000000000E+02 0.  0.
<mgrwt>
<rscale>  0 0.36550183E+03</rscale>
<asrwt>0</asrwt>
<pdfrwt beam="1">  1        2 0.20699879E+00 0.36550183E+03</pdfrwt>
<pdfrwt beam="2">  1       -2 0.32927234E-02 0.36550183E+03</pdfrwt>
<totfact> 0.61277735E+03</totfact>
</mgrwt>
</event>
<event>
 4    1  0.1305170E-003  0.4113005E+03  0.7818608E-02  0.1039935E+00
          2   -1    0    0  501    0  0.00000000000E+00  0.00000000000E+00  0.13665146995E+04  0.13665146995E+04  0.25500000000E-02 0.  1.
         -2   -1    0    0    0  501 -0.00000000000E+00 -0.00000000000E+00 -0.30948818798E+02  0.30948818903E+02  0.25500000000E-02 0. -1.
    5000001    1    1    2    0    0  0.16277218928E+03 -0.26543017137E+02  0.34253340349E+03  0.38788845029E+03  0.77000000000E+02 0.  0.
   -5000001    1    1    2    0    0 -0.16277218928E+03  0.26543017137E+02  0.99303247721E+03  0.10095750681E+04  0.77000000000E+02 0.  0.
<mgrwt>
<rscale>  0 0.41130045E+03</rscale>
<asrwt>0</asrwt>
<pdfrwt beam="1">  1        2 0.19521638E+00 0.41130045E+03</pdfrwt>
<pdfrwt beam="2">  1       -2 0.44212599E-02 0.41130045E+03</pdfrwt>
<totfact> 0.43310076E+03</totfact>
</mgrwt>
</event>
<event>
 4    1  0.1305170E-003  0.2145712E+03  0.7818608E-02  0.1137996E+00
         -2   -1    0    0    0  501 -0.00000000000E+00  0.00000000000E+00  0.32792682988E+01  0.32792692902E+01  0.25500000000E-02 0. -1.
          2   -1    0    0  501    0  0.00000000000E+00 -0.00000000000E+00 -0.35099899122E+04  0.35099899122E+04  0.25500000000E-02 0.  1.
    5000001    1    1    2    0    0  0.17359199913E+02 -0.71204322141E+02 -0.15161928786E+04  0.15199148800E+04  0.77000000000E+02 0.  0.
   -5000001    1    1    2    0    0 -0.17359199913E+02  0.71204322141E+02 -0.19905177652E+04  0.19933543014E+04  0.77000000000E+02 0.  0.
<mgrwt>
<rscale>  0 0.21457120E+03</rscale>
<asrwt>0</asrwt>
<pdfrwt beam="1">  1        2 0.50142472E+00 0.21457120E+03</pdfrwt>
<pdfrwt beam="2">  1       -2 0.46846922E-03 0.21457120E+03</pdfrwt>
<totfact> 0.92540168E+03</totfact>
</mgrwt>
</event>
<event>
 4    1  0.1305170E-003  0.3786274E+03  0.7818608E-02  0.1051442E+00
          2   -1    0    0  501    0  0.00000000000E+00  0.00000000000E+00  0.39384186424E+04  0.39384186424E+04  0.25500000000E-02 0.  1.
         -2   -1    0    0    0  501 -0.00000000000E+00 -0.00000000000E+00 -0.91000163136E+01  0.91000166709E+01  0.25500000000E-02 0. -1.
    5000001    1    1    2    0    0  0.15866378527E+03  0.30462106453E+02  0.26080745015E+04  0.26142080525E+04  0.77000000000E+02 0.  0.
   -5000001    1    1    2    0    0 -0.15866378527E+03 -0.30462106453E+02  0.13212441246E+04  0.13333106065E+04  0.77000000000E+02 0.  0.
<mgrwt>
<rscale>  0 0.37862739E+03</rscale>
<asrwt>0</asrwt>
<pdfrwt beam="1">  1        2 0.56263246E+00 0.37862739E+03</pdfrwt>
<pdfrwt beam="2">  1       -2 0.12999995E-02 0.37862739E+03</pdfrwt>
<totfact> 0.11336297E+03</totfact>
</mgrwt>
</event>
<event>
 4    1  0.1305170E-003  0.2095105E+03  0.7818608E-02  0.1141954E+00
          2   -1    0    0  501    0  0.00000000000E+00  0.00000000000E+00  0.19500934715E+02  0.19500934882E+02  0.25500000000E-02 0.  1.
         -2   -1    0    0    0  501 -0.00000000000E+00 -0.00000000000E+00 -0.56272515382E+03  0.56272515383E+03  0.25500000000E-02 0. -1.
    5000001    1    1    2    0    0  0.52564027049E+02 -0.37849232982E+02 -0.19063325276E+03  0.21555875866E+03  0.77000000000E+02 0.  0.
   -5000001    1    1    2    0    0 -0.52564027049E+02  0.37849232982E+02 -0.35259096635E+03  0.36666733005E+03  0.77000000000E+02 0.  0.
<mgrwt>
<rscale>  0 0.20951054E+03</rscale>
<asrwt>0</asrwt>
<pdfrwt beam="1">  1        2 0.27858482E-02 0.20951054E+03</pdfrwt>
<pdfrwt beam="2">  1       -2 0.80389297E-01 0.20951054E+03</pdfrwt>
<totfact> 0.47895303E+03</totfact>
</mgrwt>
</event>
<event>
 4    1  0.1305170E-003  0.2107861E+03  0.7818608E-02  0.1140945E+00
          2   -1    0    0  501    0  0.00000000000E+00  0.00000000000E+00  0.54540857373E+03  0.54540857374E+03  0.25500000000E-02 0.  1.
         -2   -1    0    0    0  501 -0.00000000000E+00 -0.00000000000E+00 -0.20365818673E+02  0.20365818833E+02  0.25500000000E-02 0. -1.
    5000001    1    1    2    0    0  0.46431887272E+02  0.50296023935E+02  0.20291936278E+03  0.22757609270E+03  0.77000000000E+02 0.  0.
   -5000001    1    1    2    0    0 -0.46431887272E+02 -0.50296023935E+02  0.32212339228E+03  0.33819829987E+03  0.77000000000E+02 0.  0.
<mgrwt>
<rscale>  0 0.21078607E+03</rscale>
<asrwt>0</asrwt>
<pdfrwt beam="1">  1        2 0.77915510E-01 0.21078607E+03</pdfrwt>
<pdfrwt beam="2">  1       -2 0.29094027E-02 0.21078607E+03</pdfrwt>
<totfact> 0.26480501E+04</totfact>
</mgrwt>
</event>
<event>
 4    1  0.1305170E-003  0.4583434E+03  0.7818608E-02  0.1025263E+00
         -2   -1    0    0    0  501 -0.00000000000E+00  0.00000000000E+00  0.13352575294E+04  0.13352575294E+04  0.25500000000E-02 0.  1.
          2   -1    0    0  501    0  0.00000000000E+00 -0.00000000000E+00 -0.39332983499E+02  0.39332983582E+02  0.25500000000E-02 0. -1.
    5000001    1    1    2    0    0 -0.12331101422E+03  0.15987960170E+03  0.41909852687E+03  0.47152907492E+03  0.77000000000E+02 0.  0.
   -5000001    1    1    2    0    0  0.12331101422E+03 -0.15987960170E+03  0.87682601899E+03  0.90306143802E+03  0.77000000000E+02 0.  0.
<mgrwt>
<rscale>  0 0.45834338E+03</rscale>
<asrwt>0</asrwt>
<pdfrwt beam="1">  1        2 0.56189964E-02 0.45834338E+03</pdfrwt>
<pdfrwt beam="2">  1       -2 0.19075112E+00 0.45834338E+03</pdfrwt>
<totfact> 0.22214005E+02</totfact>
</mgrwt>
</event>
<event>
 4    1  0.1305170E-003  0.2052266E+03  0.7818608E-02  0.1145403E+00
         -2   -1    0    0    0  501 -0.00000000000E+00  0.00000000000E+00  0.82323404479E+03  0.82323404479E+03  0.25500000000E-02 0. -1.
          2   -1    0    0  501    0  0.00000000000E+00 -0.00000000000E+00 -0.12790397422E+02  0.12790397676E+02  0.25500000000E-02 0.  1.
    5000001    1    1    2    0    0 -0.50493167839E+02 -0.44470884850E+02  0.37035184407E+03  0.38420919823E+03  0.77000000000E+02 0.  0.
   -5000001    1    1    2    0    0  0.50493167839E+02  0.44470884850E+02  0.44009180330E+03  0.45181524424E+03  0.77000000000E+02 0.  0.
<mgrwt>
<rscale>  0 0.20522661E+03</rscale>
<asrwt>0</asrwt>
<pdfrwt beam="1">  1        2 0.18271993E-02 0.20522661E+03</pdfrwt>
<pdfrwt beam="2">  1       -2 0.11760489E+00 0.20522661E+03</pdfrwt>
<totfact> 0.35540115E+03</totfact>
</mgrwt>
</event>
<event>
 4    1  0.1305170E-003  0.2849275E+03  0.7818608E-02  0.1093028E+00
          2   -1    0    0  501    0  0.00000000000E+00  0.00000000000E+00  0.16254567774E+03  0.16254567776E+03  0.25500000000E-02 0.  1.
         -2   -1    0    0    0  501 -0.00000000000E+00 -0.00000000000E+00 -0.12486289987E+03  0.12486289990E+03  0.25500000000E-02 0. -1.
    5000001    1    1    2    0    0 -0.58279815435E+02  0.10142755442E+03 -0.75173403572E+01  0.14024833721E+03  0.77000000000E+02 0.  0.
   -5000001    1    1    2    0    0  0.58279815435E+02 -0.10142755442E+03  0.45200118220E+02  0.14716024045E+03  0.77000000000E+02 0.  0.
<mgrwt>
<rscale>  0 0.28492753E+03</rscale>
<asrwt>0</asrwt>
<pdfrwt beam="1">  1        2 0.23220811E-01 0.28492753E+03</pdfrwt>
<pdfrwt beam="2">  1       -2 0.17837557E-01 0.28492753E+03</pdfrwt>
<totfact> 0.59471661E+03</totfact>
</mgrwt>
</event>
<event>
 4    1  0.1305170E-003  0.1897919E+03  0.7818608E-02  0.1158649E+00
          2   -1    0    0  501    0  0.00000000000E+00  0.00000000000E+00  0.16117477488E+03  0.16117477490E+03  0.25500000000E-02 0.  1.
         -2   -1    0    0    0  501 -0.00000000000E+00 -0.00000000000E+00 -0.55872506980E+02  0.55872507038E+02  0.25500000000E-02 0. -1.
    5000001    1    1    2    0    0 -0.34539715637E+02 -0.41800146076E+02  0.39314767141E+02  0.10205339330E+03  0.77000000000E+02 0.  0.
   -5000001    1    1    2    0    0  0.34539715637E+02  0.41800146076E+02  0.65987500760E+02  0.11499388864E+03  0.77000000000E+02 0.  0.
<mgrwt>
<rscale>  0 0.18979187E+03</rscale>
<asrwt>0</asrwt>
<pdfrwt beam="1">  1        2 0.23024968E-01 0.18979187E+03</pdfrwt>
<pdfrwt beam="2">  1       -2 0.79817866E-02 0.18979187E+03</pdfrwt>
<totfact> 0.21460832E+04</totfact>
</mgrwt>
</event>
<event>
 4    1  0.1305170E-003  0.2603000E+03  0.7818608E-02  0.1106963E+00
          2   -1    0    0  501    0  0.00000000000E+00  0.00000000000E+00  0.25439995990E+04  0.25439995990E+04  0.25500000000E-02 0.  1.
         -2   -1    0    0    0  501 -0.00000000000E+00 -0.00000000000E+00 -0.66584237485E+01  0.66584242368E+01  0.25500000000E-02 0. -1.
    5000001    1    1    2    0    0  0.51486877134E+02  0.79494028860E+02  0.17112333400E+04  0.17155811677E+04  0.77000000000E+02 0.  0.
   -5000001    1    1    2    0    0 -0.51486877134E+02 -0.79494028860E+02  0.82610783524E+03  0.83507685550E+03  0.77000000000E+02 0.  0.
<mgrwt>
<rscale>  0 0.26030004E+03</rscale>
<asrwt>0</asrwt>
<pdfrwt beam="1">  1        2 0.36342948E+00 0.26030004E+03</pdfrwt>
<pdfrwt beam="2">  1       -2 0.95120091E-03 0.26030004E+03</pdfrwt>
<totfact> 0.10921140E+04</totfact>
</mgrwt>
</event>
<event>
 4    1  0.1305170E-003  0.3041450E+03  0.7818608E-02  0.1083187E+00
          2   -1    0    0  501    0  0.00000000000E+00  0.00000000000E+00  0.25251599414E+03  0.25251599415E+03  0.25500000000E-02 0.  1.
         -2   -1    0    0    0  501 -0.00000000000E+00 -0.00000000000E+00 -0.91582500594E+02  0.91582500630E+02  0.25500000000E-02 0. -1.
    5000001    1    1    2    0    0 -0.56479382518E+02  0.10566068606E+03  0.14079021585E+03  0.20026229327E+03  0.77000000000E+02 0.  0.
   -5000001    1    1    2    0    0  0.56479382518E+02 -0.10566068606E+03  0.20143277697E+02  0.14383620151E+03  0.77000000000E+02 0.  0.
<mgrwt>
<rscale>  0 0.30414501E+03</rscale>
<asrwt>0</asrwt>
<pdfrwt beam="1">  1        2 0.36073713E-01 0.30414501E+03</pdfrwt>
<pdfrwt beam="2">  1       -2 0.13083214E-01 0.30414501E+03</pdfrwt>
<totfact> 0.61261867E+03</totfact>
</mgrwt>
</event>
<event>
 4    1  0.1305170E-003  0.3672693E+03  0.7818608E-02  0.1055742E+00
          2   -1    0    0  501    0  0.00000000000E+00  0.00000000000E+00  0.20564330326E+04  0.20564330326E+04  0.25500000000E-02 0.  1.
         -2   -1    0    0    0  501 -0.00000000000E+00 -0.00000000000E+00 -0.16398140274E+02  0.16398140472E+02  0.25500000000E-02 0. -1.
    5000001    1    1    2    0    0  0.15134282279E+03 -0.23962908577E+02  0.64932846006E+03  0.67159163190E+03  0.77000000000E+02 0.  0.
   -5000001    1    1    2    0    0 -0.15134282279E+03  0.23962908577E+02  0.13907064323E+04  0.14012395412E+04  0.77000000000E+02 0.  0.
<mgrwt>
<rscale>  0 0.36726926E+03</rscale>
<asrwt>0</asrwt>
<pdfrwt beam="1">  1        2 0.29377608E+00 0.36726926E+03</pdfrwt>
<pdfrwt beam="2">  1       -2 0.23425920E-02 0.36726926E+03</pdfrwt>
<totfact> 0.50736685E+03</totfact>
</mgrwt>
</event>
<event>
 4    1  0.1305170E-003  0.3041377E+03  0.7818608E-02  0.1083190E+00
         -2   -1    0    0    0  501 -0.00000000000E+00  0.00000000000E+00  0.13648638868E+03  0.13648638870E+03  0.25500000000E-02 0. -1.
          2   -1    0    0  501    0  0.00000000000E+00 -0.00000000000E+00 -0.16943033231E+03  0.16943033233E+03  0.25500000000E-02 0.  1.
    5000001    1    1    2    0    0 -0.33183344532E+01  0.12944781704E+03  0.43417120251E+01  0.15071695042E+03  0.77000000000E+02 0.  0.
   -5000001    1    1    2    0    0  0.33183344532E+01 -0.12944781704E+03 -0.37285655655E+02  0.15519977061E+03  0.77000000000E+02 0.  0.
<mgrwt>
<rscale>  0 0.30413769E+03</rscale>
<asrwt>0</asrwt>
<pdfrwt beam="1">  1        2 0.24204333E-01 0.30413769E+03</pdfrwt>
<pdfrwt beam="2">  1       -2 0.19498056E-01 0.30413769E+03</pdfrwt>
<totfact> 0.48903770E+03</totfact>
</mgrwt>
</event>
<event>
 4    1  0.1305170E-003  0.1988597E+03  0.7818608E-02  0.1150705E+00
         -2   -1    0    0    0  501 -0.00000000000E+00  0.00000000000E+00  0.74981832688E+01  0.74981837024E+01  0.25500000000E-02 0. -1.
          2   -1    0    0  501    0  0.00000000000E+00 -0.00000000000E+00 -0.13184920264E+04  0.13184920264E+04  0.25500000000E-02 0.  1.
    5000001    1    1    2    0    0 -0.24722734401E+02  0.46713506135E+02 -0.42800973128E+03  0.43808069498E+03  0.77000000000E+02 0.  0.
   -5000001    1    1    2    0    0  0.24722734401E+02 -0.46713506135E+02 -0.88298411188E+03  0.88790951515E+03  0.77000000000E+02 0.  0.
<mgrwt>
<rscale>  0 0.19885970E+03</rscale>
<asrwt>0</asrwt>
<pdfrwt beam="1">  1        2 0.18835586E+00 0.19885970E+03</pdfrwt>
<pdfrwt beam="2">  1       -2 0.10711699E-02 0.19885970E+03</pdfrwt>
<totfact> 0.36520141E+04</totfact>
</mgrwt>
</event>
<event>
 4    1  0.1305170E-003  0.2569429E+03  0.7818608E-02  0.1108994E+00
         -2   -1    0    0    0  501 -0.00000000000E+00  0.00000000000E+00  0.55229149755E+02  0.55229149814E+02  0.25500000000E-02 0. -1.
          2   -1    0    0  501    0  0.00000000000E+00 -0.00000000000E+00 -0.29884427722E+03  0.29884427723E+03  0.25500000000E-02 0.  1.
    5000001    1    1    2    0    0 -0.49334471450E+02  0.90134456042E+02 -0.11599284038E+03  0.17303597677E+03  0.77000000000E+02 0.  0.
   -5000001    1    1    2    0    0  0.49334471450E+02 -0.90134456042E+02 -0.12762228709E+03  0.18103745027E+03  0.77000000000E+02 0.  0.
<mgrwt>
<rscale>  0 0.25694291E+03</rscale>
<asrwt>0</asrwt>
<pdfrwt beam="1">  1        2 0.42692039E-01 0.25694291E+03</pdfrwt>
<pdfrwt beam="2">  1       -2 0.78898787E-02 0.25694291E+03</pdfrwt>
<totfact> 0.11353253E+04</totfact>
</mgrwt>
</event>
<event>
 4    1  0.1305170E-003  0.4316730E+03  0.7818608E-02  0.1033333E+00
          2   -1    0    0  501    0  0.00000000000E+00  0.00000000000E+00  0.17696423470E+03  0.17696423472E+03  0.25500000000E-02 0.  1.
         -2   -1    0    0    0  501 -0.00000000000E+00 -0.00000000000E+00 -0.26324752337E+03  0.26324752338E+03  0.25500000000E-02 0. -1.
    5000001    1    1    2    0    0  0.14871706121E+02  0.17369307669E+03 -0.14646682889E+03  0.24035803398E+03  0.77000000000E+02 0.  0.
   -5000001    1    1    2    0    0 -0.14871706121E+02 -0.17369307669E+03  0.60183540219E+02  0.19985372412E+03  0.77000000000E+02 0.  0.
<mgrwt>
<rscale>  0 0.43167301E+03</rscale>
<asrwt>0</asrwt>
<pdfrwt beam="1">  1        2 0.25280605E-01 0.43167301E+03</pdfrwt>
<pdfrwt beam="2">  1       -2 0.37606789E-01 0.43167301E+03</pdfrwt>
<totfact> 0.14363582E+03</totfact>
</mgrwt>
</event>
<event>
 4    1  0.1305170E-003  0.2074886E+03  0.7818608E-02  0.1143570E+00
          2   -1    0    0  501    0  0.00000000000E+00  0.00000000000E+00  0.12061400240E+04  0.12061400240E+04  0.25500000000E-02 0.  1.
         -2   -1    0    0    0  501 -0.00000000000E+00 -0.00000000000E+00 -0.89234052688E+01  0.89234056332E+01  0.25500000000E-02 0. -1.
    5000001    1    1    2    0    0 -0.20150274812E+01  0.56145496641E+02  0.83845622869E+03  0.84385675595E+03  0.77000000000E+02 0.  0.
   -5000001    1    1    2    0    0  0.20150274812E+01 -0.56145496641E+02  0.35876039006E+03  0.37120667371E+03  0.77000000000E+02 0.  0.
<mgrwt>
<rscale>  0 0.20748857E+03</rscale>
<asrwt>0</asrwt>
<pdfrwt beam="1">  1        2 0.17230580E+00 0.20748857E+03</pdfrwt>
<pdfrwt beam="2">  1       -2 0.12747716E-02 0.20748857E+03</pdfrwt>
<totfact> 0.32631822E+04</totfact>
</mgrwt>
</event>
<event>
 4    1  0.1305170E-003  0.2423576E+03  0.7818608E-02  0.1118232E+00
          2   -1    0    0  501    0  0.00000000000E+00  0.00000000000E+00  0.33987917634E+03  0.33987917635E+03  0.25500000000E-02 0.  1.
         -2   -1    0    0    0  501 -0.00000000000E+00 -0.00000000000E+00 -0.43204475835E+02  0.43204475911E+02  0.25500000000E-02 0. -1.
    5000001    1    1    2    0    0 -0.68982672155E+02 -0.23892973463E+02  0.55820860644E+02  0.11989350158E+03  0.77000000000E+02 0.  0.
   -5000001    1    1    2    0    0  0.68982672155E+02  0.23892973463E+02  0.24085383986E+03  0.26319015067E+03  0.77000000000E+02 0.  0.
<mgrwt>
<rscale>  0 0.24235760E+03</rscale>
<asrwt>0</asrwt>
<pdfrwt beam="1">  1        2 0.48554169E-01 0.24235760E+03</pdfrwt>
<pdfrwt beam="2">  1       -2 0.61720678E-02 0.24235760E+03</pdfrwt>
<totfact> 0.14410602E+04</totfact>
</mgrwt>
</event>
<event>
 4    1  0.1305170E-003  0.1903772E+03  0.7818608E-02  0.1158122E+00
          2   -1    0    0  501    0  0.00000000000E+00  0.00000000000E+00  0.43085337570E+02  0.43085337645E+02  0.25500000000E-02 0.  1.
         -2   -1    0    0    0  501 -0.00000000000E+00 -0.00000000000E+00 -0.21030055533E+03  0.21030055534E+03  0.25500000000E-02 0. -1.
    5000001    1    1    2    0    0 -0.15867731324E+02 -0.45714711425E+02 -0.46192249698E+02  0.10200168464E+03  0.77000000000E+02 0.  0.
   -5000001    1    1    2    0    0  0.15867731324E+02  0.45714711425E+02 -0.12102296806E+03  0.15138420834E+03  0.77000000000E+02 0.  0.
<mgrwt>
<rscale>  0 0.19037721E+03</rscale>
<asrwt>0</asrwt>
<pdfrwt beam="1">  1        2 0.61550483E-02 0.19037721E+03</pdfrwt>
<pdfrwt beam="2">  1       -2 0.30042936E-01 0.19037721E+03</pdfrwt>
<totfact> 0.11737326E+04</totfact>
</mgrwt>
</event>
<event>
 4    1  0.1305170E-003  0.2684035E+03  0.7818608E-02  0.1102197E+00
         -2   -1    0    0    0  501 -0.00000000000E+00  0.00000000000E+00  0.16091717901E+03  0.16091717903E+03  0.25500000000E-02 0. -1.
          2   -1    0    0  501    0  0.00000000000E+00 -0.00000000000E+00 -0.11192159125E+03  0.11192159128E+03  0.25500000000E-02 0.  1.
    5000001    1    1    2    0    0  0.95592257537E+02  0.54231074919E+02  0.26011546424E+02  0.13669122040E+03  0.77000000000E+02 0.  0.
   -5000001    1    1    2    0    0 -0.95592257537E+02 -0.54231074919E+02  0.22984041339E+02  0.13614754990E+03  0.77000000000E+02 0.  0.
<mgrwt>
<rscale>  0 0.26840348E+03</rscale>
<asrwt>0</asrwt>
<pdfrwt beam="1">  1        2 0.15988799E-01 0.26840348E+03</pdfrwt>
<pdfrwt beam="2">  1       -2 0.22988168E-01 0.26840348E+03</pdfrwt>
<totfact> 0.59022275E+03</totfact>
</mgrwt>
</event>
<event>
 4    1  0.1305170E-003  0.3985599E+03  0.7818608E-02  0.1044279E+00
         -2   -1    0    0    0  501 -0.00000000000E+00  0.00000000000E+00  0.78265529664E+02  0.78265529705E+02  0.25500000000E-02 0. -1.
          2   -1    0    0  501    0  0.00000000000E+00 -0.00000000000E+00 -0.50740721631E+03  0.50740721632E+03  0.25500000000E-02 0.  1.
    5000001    1    1    2    0    0  0.76483545903E+02 -0.16139850882E+03 -0.15078350026E+03  0.24609728847E+03  0.77000000000E+02 0.  0.
   -5000001    1    1    2    0    0 -0.76483545903E+02  0.16139850882E+03 -0.27835818638E+03  0.33957545755E+03  0.77000000000E+02 0.  0.
<mgrwt>
<rscale>  0 0.39855988E+03</rscale>
<asrwt>0</asrwt>
<pdfrwt beam="1">  1        2 0.72486743E-01 0.39855988E+03</pdfrwt>
<pdfrwt beam="2">  1       -2 0.11180790E-01 0.39855988E+03</pdfrwt>
<totfact> 0.37161942E+03</totfact>
</mgrwt>
</event>
<event>
 4    1  0.1305170E-003  0.3279805E+03  0.7818608E-02  0.1072034E+00
         -2   -1    0    0    0  501 -0.00000000000E+00  0.00000000000E+00  0.13284129068E+03  0.13284129070E+03  0.25500000000E-02 0. -1.
          2   -1    0    0  501    0  0.00000000000E+00 -0.00000000000E+00 -0.20244307401E+03  0.20244307403E+03  0.25500000000E-02 0.  1.
    5000001    1    1    2    0    0  0.38864475799E+02  0.12261833394E+03  0.33148077503E+02  0.15353663517E+03  0.77000000000E+02 0.  0.
   -5000001    1    1    2    0    0 -0.38864475799E+02 -0.12261833394E+03 -0.10274986084E+03  0.18174772956E+03  0.77000000000E+02 0.  0.
<mgrwt>
<rscale>  0 0.32798048E+03</rscale>
<asrwt>0</asrwt>
<pdfrwt beam="1">  1        2 0.28920439E-01 0.32798048E+03</pdfrwt>
<pdfrwt beam="2">  1       -2 0.18977327E-01 0.32798048E+03</pdfrwt>
<totfact> 0.42085676E+03</totfact>
</mgrwt>
</event>
<event>
 4    1  0.1305170E-003  0.1826985E+03  0.7818608E-02  0.1165217E+00
         -2   -1    0    0    0  501 -0.00000000000E+00  0.00000000000E+00  0.18779508145E+02  0.18779508318E+02  0.25500000000E-02 0. -1.
          2   -1    0    0  501    0  0.00000000000E+00 -0.00000000000E+00 -0.44435034952E+03  0.44435034953E+03  0.25500000000E-02 0.  1.
    5000001    1    1    2    0    0  0.27854354202E+02  0.40418657667E+02 -0.20649993440E+03  0.22578918452E+03  0.77000000000E+02 0.  0.
   -5000001    1    1    2    0    0 -0.27854354202E+02 -0.40418657667E+02 -0.21907090698E+03  0.23734067333E+03  0.77000000000E+02 0.  0.
<mgrwt>
<rscale>  0 0.18269845E+03</rscale>
<asrwt>0</asrwt>
<pdfrwt beam="1">  1        2 0.63478615E-01 0.18269845E+03</pdfrwt>
<pdfrwt beam="2">  1       -2 0.26827872E-02 0.18269845E+03</pdfrwt>
<totfact> 0.36929305E+04</totfact>
</mgrwt>
</event>
<event>
 4    1  0.1305170E-003  0.1605348E+03  0.7818608E-02  0.1188094E+00
         -2   -1    0    0    0  501 -0.00000000000E+00  0.00000000000E+00  0.27697618645E+02  0.27697618763E+02  0.25500000000E-02 0. -1.
          2   -1    0    0  501    0  0.00000000000E+00 -0.00000000000E+00 -0.23261406265E+03  0.23261406266E+03  0.25500000000E-02 0.  1.
    5000001    1    1    2    0    0  0.35980775230E+01 -0.22376295854E+02 -0.10320278017E+03  0.13074195430E+03  0.77000000000E+02 0.  0.
   -5000001    1    1    2    0    0 -0.35980775230E+01  0.22376295854E+02 -0.10171366383E+03  0.12956972713E+03  0.77000000000E+02 0.  0.
<mgrwt>
<rscale>  0 0.16053480E+03</rscale>
<asrwt>0</asrwt>
<pdfrwt beam="1">  1        2 0.33230579E-01 0.16053480E+03</pdfrwt>
<pdfrwt beam="2">  1       -2 0.39568028E-02 0.16053480E+03</pdfrwt>
<totfact> 0.41009424E+04</totfact>
</mgrwt>
</event>
<event>
 4    1  0.1305170E-003  0.3723536E+03  0.7818608E-02  0.1053797E+00
          2   -1    0    0  501    0  0.00000000000E+00  0.00000000000E+00  0.37173663133E+04  0.37173663133E+04  0.25500000000E-02 0.  1.
         -2   -1    0    0    0  501 -0.00000000000E+00 -0.00000000000E+00 -0.93242895199E+01  0.93242898686E+01  0.25500000000E-02 0. -1.
    5000001    1    1    2    0    0  0.12197475883E+03  0.77020884288E+02  0.27448729740E+04  0.27497393880E+04  0.77000000000E+02 0.  0.
   -5000001    1    1    2    0    0 -0.12197475883E+03 -0.77020884288E+02  0.96316904977E+03  0.97695121518E+03  0.77000000000E+02 0.  0.
<mgrwt>
<rscale>  0 0.37235360E+03</rscale>
<asrwt>0</asrwt>
<pdfrwt beam="1">  1        2 0.53105262E+00 0.37235360E+03</pdfrwt>
<pdfrwt beam="2">  1       -2 0.13320407E-02 0.37235360E+03</pdfrwt>
<totfact> 0.15087362E+03</totfact>
</mgrwt>
</event>
<event>
 4    1  0.1305170E-003  0.2291933E+03  0.7818608E-02  0.1127209E+00
         -2   -1    0    0    0  501 -0.00000000000E+00  0.00000000000E+00  0.44590757177E+02  0.44590757250E+02  0.25500000000E-02 0. -1.
          2   -1    0    0  501    0  0.00000000000E+00 -0.00000000000E+00 -0.29450930928E+03  0.29450930929E+03  0.25500000000E-02 0.  1.
    5000001    1    1    2    0    0 -0.72681523458E+02  0.39329726464E+02 -0.96347843293E+02  0.14846325520E+03  0.77000000000E+02 0.  0.
   -5000001    1    1    2    0    0  0.72681523458E+02 -0.39329726464E+02 -0.15357070881E+03  0.19063681135E+03  0.77000000000E+02 0.  0.
<mgrwt>
<rscale>  0 0.22919331E+03</rscale>
<asrwt>0</asrwt>
<pdfrwt beam="1">  1        2 0.42072757E-01 0.22919331E+03</pdfrwt>
<pdfrwt beam="2">  1       -2 0.63701083E-02 0.22919331E+03</pdfrwt>
<totfact> 0.15956424E+04</totfact>
</mgrwt>
</event>
<event>
 4    1  0.1305170E-003  0.5341773E+03  0.7818608E-02  0.1005224E+00
         -2   -1    0    0    0  501 -0.00000000000E+00  0.00000000000E+00  0.59323426028E+02  0.59323426083E+02  0.25500000000E-02 0. -1.
          2   -1    0    0  501    0  0.00000000000E+00 -0.00000000000E+00 -0.12024988611E+04  0.12024988611E+04  0.25500000000E-02 0.  1.
    5000001    1    1    2    0    0  0.23130619172E+03 -0.10876883404E+03 -0.59192697929E+03  0.64933794160E+03  0.77000000000E+02 0.  0.
   -5000001    1    1    2    0    0 -0.23130619172E+03  0.10876883404E+03 -0.55124845579E+03  0.61248434559E+03  0.77000000000E+02 0.  0.
<mgrwt>
<rscale>  0 0.53417732E+03</rscale>
<asrwt>0</asrwt>
<pdfrwt beam="1">  1        2 0.17178554E+00 0.53417732E+03</pdfrwt>
<pdfrwt beam="2">  1       -2 0.84747759E-02 0.53417732E+03</pdfrwt>
<totfact> 0.19248666E+03</totfact>
</mgrwt>
</event>
<event>
 4    1  0.1305170E-003  0.2210687E+03  0.7818608E-02  0.1133089E+00
         -2   -1    0    0    0  501 -0.00000000000E+00  0.00000000000E+00  0.57402586831E+03  0.57402586832E+03  0.25500000000E-02 0. -1.
          2   -1    0    0  501    0  0.00000000000E+00 -0.00000000000E+00 -0.21284479823E+02  0.21284479976E+02  0.25500000000E-02 0.  1.
    5000001    1    1    2    0    0  0.64116189888E+02 -0.46624255293E+02  0.27089476637E+03  0.29257081439E+03  0.77000000000E+02 0.  0.
   -5000001    1    1    2    0    0 -0.64116189888E+02  0.46624255293E+02  0.28184662212E+03  0.30273953390E+03  0.77000000000E+02 0.  0.
<mgrwt>
<rscale>  0 0.22106870E+03</rscale>
<asrwt>0</asrwt>
<pdfrwt beam="1">  1        2 0.30406399E-02 0.22106870E+03</pdfrwt>
<pdfrwt beam="2">  1       -2 0.82003699E-01 0.22106870E+03</pdfrwt>
<totfact> 0.40835728E+03</totfact>
</mgrwt>
</event>
<event>
 4    1  0.1305170E-003  0.6596878E+03  0.7818608E-02  0.9788769E-01
         -2   -1    0    0    0  501 -0.00000000000E+00  0.00000000000E+00  0.20851844997E+03  0.20851844998E+03  0.25500000000E-02 0. -1.
          2   -1    0    0  501    0  0.00000000000E+00 -0.00000000000E+00 -0.52176200066E+03  0.52176200067E+03  0.25500000000E-02 0.  1.
    5000001    1    1    2    0    0  0.25874515848E+03  0.14902340687E+03 -0.28624574429E+03  0.42074060769E+03  0.77000000000E+02 0.  0.
   -5000001    1    1    2    0    0 -0.25874515848E+03 -0.14902340687E+03 -0.26997806400E+02  0.30953984296E+03  0.77000000000E+02 0.  0.
<mgrwt>
<rscale>  0 0.65968782E+03</rscale>
<asrwt>0</asrwt>
<pdfrwt beam="1">  1        2 0.74537428E-01 0.65968782E+03</pdfrwt>
<pdfrwt beam="2">  1       -2 0.29788350E-01 0.65968782E+03</pdfrwt>
<totfact> 0.66688511E+02</totfact>
</mgrwt>
</event>
<event>
 4    1  0.1305170E-003  0.1064518E+04  0.7818608E-02  0.9240482E-01
         -2   -1    0    0    0  501 -0.00000000000E+00  0.00000000000E+00  0.55240708420E+03  0.55240708420E+03  0.25500000000E-02 0. -1.
          2   -1    0    0  501    0  0.00000000000E+00 -0.00000000000E+00 -0.51284614718E+03  0.51284614719E+03  0.25500000000E-02 0.  1.
    5000001    1    1    2    0    0  0.47343288821E+03  0.13136984133E+03  0.20957982044E+03  0.53967530608E+03  0.77000000000E+02 0.  0.
   -5000001    1    1    2    0    0 -0.47343288821E+03 -0.13136984133E+03 -0.17001888342E+03  0.52557792531E+03  0.77000000000E+02 0.  0.
<mgrwt>
<rscale>  0 0.10645184E+04</rscale>
<asrwt>0</asrwt>
<pdfrwt beam="1">  1        2 0.73263735E-01 0.10645184E+04</pdfrwt>
<pdfrwt beam="2">  1       -2 0.78915299E-01 0.10645184E+04</pdfrwt>
<totfact> 0.92575554E+01</totfact>
</mgrwt>
</event>
<event>
 4    1  0.1305170E-003  0.1866092E+03  0.7818608E-02  0.1161556E+00
          2   -1    0    0  501    0  0.00000000000E+00  0.00000000000E+00  0.19108417847E+03  0.19108417849E+03  0.25500000000E-02 0.  1.
         -2   -1    0    0    0  501 -0.00000000000E+00 -0.00000000000E+00 -0.45559761536E+02  0.45559761608E+02  0.25500000000E-02 0. -1.
    5000001    1    1    2    0    0 -0.49326404887E+02  0.17992914066E+02  0.78420726775E+02  0.12180168128E+03  0.77000000000E+02 0.  0.
   -5000001    1    1    2    0    0  0.49326404887E+02 -0.17992914066E+02  0.67103690157E+02  0.11484225881E+03  0.77000000000E+02 0.  0.
<mgrwt>
<rscale>  0 0.18660921E+03</rscale>
<asrwt>0</asrwt>
<pdfrwt beam="1">  1        2 0.27297740E-01 0.18660921E+03</pdfrwt>
<pdfrwt beam="2">  1       -2 0.65085374E-02 0.18660921E+03</pdfrwt>
<totfact> 0.24302189E+04</totfact>
</mgrwt>
</event>
<event>
 4    1  0.1305170E-003  0.3210670E+03  0.7818608E-02  0.1075159E+00
          2   -1    0    0  501    0  0.00000000000E+00  0.00000000000E+00  0.17051363015E+04  0.17051363015E+04  0.25500000000E-02 0.  1.
         -2   -1    0    0    0  501 -0.00000000000E+00 -0.00000000000E+00 -0.15113746790E+02  0.15113747005E+02  0.25500000000E-02 0. -1.
    5000001    1    1    2    0    0 -0.12223705670E+03 -0.48917618010E+02  0.11132908469E+04  0.11236905007E+04  0.77000000000E+02 0.  0.
   -5000001    1    1    2    0    0  0.12223705670E+03  0.48917618010E+02  0.57673170775E+03  0.59655954783E+03  0.77000000000E+02 0.  0.
<mgrwt>
<rscale>  0 0.32106696E+03</rscale>
<asrwt>0</asrwt>
<pdfrwt beam="1">  1        2 0.24359102E+00 0.32106696E+03</pdfrwt>
<pdfrwt beam="2">  1       -2 0.21591056E-02 0.32106696E+03</pdfrwt>
<totfact> 0.85296998E+03</totfact>
</mgrwt>
</event>
<event>
 4    1  0.1305170E-003  0.1829440E+03  0.7818608E-02  0.1164984E+00
         -2   -1    0    0    0  501 -0.00000000000E+00  0.00000000000E+00  0.17829832401E+01  0.17829850636E+01  0.25500000000E-02 0. -1.
          2   -1    0    0  501    0  0.00000000000E+00 -0.00000000000E+00 -0.46927667451E+04  0.46927667451E+04  0.25500000000E-02 0.  1.
    5000001    1    1    2    0    0  0.30380268463E+02 -0.38594114204E+02 -0.24754861323E+04  0.24771703731E+04  0.77000000000E+02 0.  0.
   -5000001    1    1    2    0    0 -0.30380268463E+02  0.38594114204E+02 -0.22154976296E+04  0.22173793570E+04  0.77000000000E+02 0.  0.
<mgrwt>
<rscale>  0 0.18294402E+03</rscale>
<asrwt>0</asrwt>
<pdfrwt beam="1">  1        2 0.67038733E+00 0.18294402E+03</pdfrwt>
<pdfrwt beam="2">  1       -2 0.25471503E-03 0.18294402E+03</pdfrwt>
<totfact> 0.35425651E+03</totfact>
</mgrwt>
</event>
<event>
 4    1  0.1305170E-003  0.1932304E+03  0.7818608E-02  0.1155580E+00
          2   -1    0    0  501    0  0.00000000000E+00  0.00000000000E+00  0.21896073694E+02  0.21896073842E+02  0.25500000000E-02 0.  1.
         -2   -1    0    0    0  501 -0.00000000000E+00 -0.00000000000E+00 -0.42630919376E+03  0.42630919376E+03  0.25500000000E-02 0. -1.
    5000001    1    1    2    0    0  0.40600395032E+02  0.30593010216E+02 -0.26867551839E+03  0.28407720523E+03  0.77000000000E+02 0.  0.
   -5000001    1    1    2    0    0 -0.40600395032E+02 -0.30593010216E+02 -0.13573760167E+03  0.16412806238E+03  0.77000000000E+02 0.  0.
<mgrwt>
<rscale>  0 0.19323041E+03</rscale>
<asrwt>0</asrwt>
<pdfrwt beam="1">  1        2 0.31280108E-02 0.19323041E+03</pdfrwt>
<pdfrwt beam="2">  1       -2 0.60901308E-01 0.19323041E+03</pdfrwt>
<totfact> 0.73637010E+03</totfact>
</mgrwt>
</event>
<event>
 4    1  0.1305170E-003  0.1986409E+03  0.7818608E-02  0.1150891E+00
         -2   -1    0    0    0  501 -0.00000000000E+00  0.00000000000E+00  0.90991562921E+02  0.90991562957E+02  0.25500000000E-02 0. -1.
          2   -1    0    0  501    0  0.00000000000E+00 -0.00000000000E+00 -0.10841169126E+03  0.10841169129E+03  0.25500000000E-02 0.  1.
    5000001    1    1    2    0    0 -0.39905805959E+02 -0.44906112374E+02  0.94290674778E+01  0.98116968926E+02  0.77000000000E+02 0.  0.
   -5000001    1    1    2    0    0  0.39905805959E+02  0.44906112374E+02 -0.26849195813E+02  0.10128628532E+03  0.77000000000E+02 0.  0.
<mgrwt>
<rscale>  0 0.19864087E+03</rscale>
<asrwt>0</asrwt>
<pdfrwt beam="1">  1        2 0.15487384E-01 0.19864087E+03</pdfrwt>
<pdfrwt beam="2">  1       -2 0.12998795E-01 0.19864087E+03</pdfrwt>
<totfact> 0.15671950E+04</totfact>
</mgrwt>
</event>
<event>
 4    1  0.1305170E-003  0.4859896E+03  0.7818608E-02  0.1017502E+00
          2   -1    0    0  501    0  0.00000000000E+00  0.00000000000E+00  0.24559582105E+03  0.24559582107E+03  0.25500000000E-02 0.  1.
         -2   -1    0    0    0  501 -0.00000000000E+00 -0.00000000000E+00 -0.24042132637E+03  0.24042132638E+03  0.25500000000E-02 0. -1.
    5000001    1    1    2    0    0  0.18081991283E+03 -0.14038907929E+03  0.29282178897E+02  0.24329278753E+03  0.77000000000E+02 0.  0.
   -5000001    1    1    2    0    0 -0.18081991283E+03  0.14038907929E+03 -0.24107684210E+02  0.24272435992E+03  0.77000000000E+02 0.  0.
<mgrwt>
<rscale>  0 0.48598960E+03</rscale>
<asrwt>0</asrwt>
<pdfrwt beam="1">  1        2 0.35085117E-01 0.48598960E+03</pdfrwt>
<pdfrwt beam="2">  1       -2 0.34345904E-01 0.48598960E+03</pdfrwt>
<totfact> 0.11835265E+03</totfact>
</mgrwt>
</event>
<event>
 4    1  0.1305170E-003  0.2192155E+03  0.7818608E-02  0.1134469E+00
          2   -1    0    0  501    0  0.00000000000E+00  0.00000000000E+00  0.49515293163E+03  0.49515293163E+03  0.25500000000E-02 0.  1.
         -2   -1    0    0    0  501 -0.00000000000E+00 -0.00000000000E+00 -0.24262934633E+02  0.24262934767E+02  0.25500000000E-02 0. -1.
    5000001    1    1    2    0    0 -0.37519245950E+02  0.68387616633E+02  0.23674995930E+03  0.26089097945E+03  0.77000000000E+02 0.  0.
   -5000001    1    1    2    0    0  0.37519245950E+02 -0.68387616633E+02  0.23414003769E+03  0.25852488695E+03  0.77000000000E+02 0.  0.
<mgrwt>
<rscale>  0 0.21921554E+03</rscale>
<asrwt>0</asrwt>
<pdfrwt beam="1">  1        2 0.70736133E-01 0.21921554E+03</pdfrwt>
<pdfrwt beam="2">  1       -2 0.34661336E-02 0.21921554E+03</pdfrwt>
<totfact> 0.22784850E+04</totfact>
</mgrwt>
</event>
<event>
 4    1  0.1305170E-003  0.2022897E+03  0.7818608E-02  0.1147821E+00
         -2   -1    0    0    0  501 -0.00000000000E+00  0.00000000000E+00  0.40644055303E+01  0.40644063302E+01  0.25500000000E-02 0. -1.
          2   -1    0    0  501    0  0.00000000000E+00 -0.00000000000E+00 -0.25170417791E+04  0.25170417791E+04  0.25500000000E-02 0.  1.
    5000001    1    1    2    0    0 -0.13122517229E+02  0.63679249355E+02 -0.13637215627E+04  0.13674402173E+04  0.77000000000E+02 0.  0.
   -5000001    1    1    2    0    0  0.13122517229E+02 -0.63679249355E+02 -0.11492558108E+04  0.11536659681E+04  0.77000000000E+02 0.  0.
<mgrwt>
<rscale>  0 0.20228969E+03</rscale>
<asrwt>0</asrwt>
<pdfrwt beam="1">  1        2 0.35957640E+00 0.20228969E+03</pdfrwt>
<pdfrwt beam="2">  1       -2 0.58063103E-03 0.20228969E+03</pdfrwt>
<totfact> 0.22804708E+04</totfact>
</mgrwt>
</event>
<event>
 4    1  0.1305170E-003  0.2281315E+03  0.7818608E-02  0.1127962E+00
         -2   -1    0    0    0  501 -0.00000000000E+00  0.00000000000E+00  0.66226987515E+01  0.66226992425E+01  0.25500000000E-02 0. -1.
          2   -1    0    0  501    0  0.00000000000E+00 -0.00000000000E+00 -0.19646057554E+04  0.19646057554E+04  0.25500000000E-02 0.  1.
    5000001    1    1    2    0    0 -0.10027915392E+02 -0.82006129760E+02 -0.11173591930E+04  0.11230521495E+04  0.77000000000E+02 0.  0.
   -5000001    1    1    2    0    0  0.10027915392E+02  0.82006129760E+02 -0.84062386371E+03  0.84817630517E+03  0.77000000000E+02 0.  0.
<mgrwt>
<rscale>  0 0.22813148E+03</rscale>
<asrwt>0</asrwt>
<pdfrwt beam="1">  1        2 0.28065759E+00 0.22813148E+03</pdfrwt>
<pdfrwt beam="2">  1       -2 0.94610111E-03 0.22813148E+03</pdfrwt>
<totfact> 0.21087165E+04</totfact>
</mgrwt>
</event>
<event>
 4    1  0.1305170E-003  0.3322519E+03  0.7818608E-02  0.1070145E+00
          2   -1    0    0  501    0  0.00000000000E+00  0.00000000000E+00  0.81685062471E+03  0.81685062472E+03  0.25500000000E-02 0.  1.
         -2   -1    0    0    0  501 -0.00000000000E+00 -0.00000000000E+00 -0.33785642301E+02  0.33785642397E+02  0.25500000000E-02 0. -1.
    5000001    1    1    2    0    0 -0.73964902985E+02 -0.67330857400E+02  0.11502246247E+03  0.17077300169E+03  0.77000000000E+02 0.  0.
   -5000001    1    1    2    0    0  0.73964902985E+02  0.67330857400E+02  0.66804251994E+03  0.67986326543E+03  0.77000000000E+02 0.  0.
<mgrwt>
<rscale>  0 0.33225185E+03</rscale>
<asrwt>0</asrwt>
<pdfrwt beam="1">  1        2 0.11669296E+00 0.33225185E+03</pdfrwt>
<pdfrwt beam="2">  1       -2 0.48265199E-02 0.33225185E+03</pdfrwt>
<totfact> 0.78756889E+03</totfact>
</mgrwt>
</event>
<event>
 4    1  0.1305170E-003  0.2032649E+03  0.7818608E-02  0.1147013E+00
         -2   -1    0    0    0  501 -0.00000000000E+00  0.00000000000E+00  0.37646335316E+02  0.37646335403E+02  0.25500000000E-02 0. -1.
          2   -1    0    0  501    0  0.00000000000E+00 -0.00000000000E+00 -0.27437334950E+03  0.27437334951E+03  0.25500000000E-02 0.  1.
    5000001    1    1    2    0    0 -0.49964840780E+02  0.26511989734E+02 -0.65170879408E+02  0.11565299147E+03  0.77000000000E+02 0.  0.
   -5000001    1    1    2    0    0  0.49964840780E+02 -0.26511989734E+02 -0.17155613478E+03  0.19636669344E+03  0.77000000000E+02 0.  0.
<mgrwt>
<rscale>  0 0.20326486E+03</rscale>
<asrwt>0</asrwt>
<pdfrwt beam="1">  1        2 0.39196192E-01 0.20326486E+03</pdfrwt>
<pdfrwt beam="2">  1       -2 0.53780481E-02 0.20326486E+03</pdfrwt>
<totfact> 0.22106318E+04</totfact>
</mgrwt>
</event>
<event>
 4    1  0.1305170E-003  0.2854815E+03  0.7818608E-02  0.1092732E+00
         -2   -1    0    0    0  501 -0.00000000000E+00  0.00000000000E+00  0.72807508712E+03  0.72807508712E+03  0.25500000000E-02 0. -1.
          2   -1    0    0  501    0  0.00000000000E+00 -0.00000000000E+00 -0.27984649709E+02  0.27984649825E+02  0.25500000000E-02 0.  1.
    5000001    1    1    2    0    0 -0.11655982522E+03 -0.29318539298E+02  0.35109364421E+03  0.37900068154E+03  0.77000000000E+02 0.  0.
   -5000001    1    1    2    0    0  0.11655982522E+03  0.29318539298E+02  0.34899679320E+03  0.37705905541E+03  0.77000000000E+02 0.  0.
<mgrwt>
<rscale>  0 0.28548153E+03</rscale>
<asrwt>0</asrwt>
<pdfrwt beam="1">  1        2 0.39978080E-02 0.28548153E+03</pdfrwt>
<pdfrwt beam="2">  1       -2 0.10401070E+00 0.28548153E+03</pdfrwt>
<totfact> 0.16604318E+03</totfact>
</mgrwt>
</event>
<event>
 4    1  0.1305170E-003  0.3347719E+03  0.7818608E-02  0.1069045E+00
         -2   -1    0    0    0  501 -0.00000000000E+00  0.00000000000E+00  0.20835894954E+03  0.20835894955E+03  0.25500000000E-02 0. -1.
          2   -1    0    0  501    0  0.00000000000E+00 -0.00000000000E+00 -0.13447013593E+03  0.13447013596E+03  0.25500000000E-02 0.  1.
    5000001    1    1    2    0    0  0.93048624135E+02  0.32272026192E+01 -0.81691061241E+02  0.14584543454E+03  0.77000000000E+02 0.  0.
   -5000001    1    1    2    0    0 -0.93048624135E+02 -0.32272026192E+01  0.15557987485E+03  0.19698365097E+03  0.77000000000E+02 0.  0.
<mgrwt>
<rscale>  0 0.33477190E+03</rscale>
<asrwt>0</asrwt>
<pdfrwt beam="1">  1        2 0.19210020E-01 0.33477190E+03</pdfrwt>
<pdfrwt beam="2">  1       -2 0.29765564E-01 0.33477190E+03</pdfrwt>
<totfact> 0.30282327E+03</totfact>
</mgrwt>
</event>
<event>
 4    1  0.1305170E-003  0.4157287E+03  0.7818608E-02  0.1038465E+00
          2   -1    0    0  501    0  0.00000000000E+00  0.00000000000E+00  0.53054257629E+03  0.53054257629E+03  0.25500000000E-02 0.  1.
         -2   -1    0    0    0  501 -0.00000000000E+00 -0.00000000000E+00 -0.81440395124E+02  0.81440395164E+02  0.25500000000E-02 0. -1.
    5000001    1    1    2    0    0 -0.16329437422E+03  0.27083562445E+02  0.37087264565E+03  0.41336919491E+03  0.77000000000E+02 0.  0.
   -5000001    1    1    2    0    0  0.16329437422E+03 -0.27083562445E+02  0.78229535508E+02  0.19861377654E+03  0.77000000000E+02 0.  0.
<mgrwt>
<rscale>  0 0.41572874E+03</rscale>
<asrwt>0</asrwt>
<pdfrwt beam="1">  1        2 0.75791797E-01 0.41572874E+03</pdfrwt>
<pdfrwt beam="2">  1       -2 0.11634342E-01 0.41572874E+03</pdfrwt>
<totfact> 0.33151311E+03</totfact>
</mgrwt>
</event>
<event>
 4    1  0.1305170E-003  0.2282011E+03  0.7818608E-02  0.1127912E+00
          2   -1    0    0  501    0  0.00000000000E+00  0.00000000000E+00  0.15001236060E+03  0.15001236063E+03  0.25500000000E-02 0.  1.
         -2   -1    0    0    0  501 -0.00000000000E+00 -0.00000000000E+00 -0.86785769797E+02  0.86785769835E+02  0.25500000000E-02 0. -1.
    5000001    1    1    2    0    0 -0.46214963161E+02 -0.64517124155E+02  0.60809659062E+02  0.12619467804E+03  0.77000000000E+02 0.  0.
   -5000001    1    1    2    0    0  0.46214963161E+02  0.64517124155E+02  0.24169317444E+01  0.11060345242E+03  0.77000000000E+02 0.  0.
<mgrwt>
<rscale>  0 0.22820112E+03</rscale>
<asrwt>0</asrwt>
<pdfrwt beam="1">  1        2 0.21430337E-01 0.22820112E+03</pdfrwt>
<pdfrwt beam="2">  1       -2 0.12397967E-01 0.22820112E+03</pdfrwt>
<totfact> 0.11741075E+04</totfact>
</mgrwt>
</event>
<event>
 4    1  0.1305170E-003  0.2749672E+03  0.7818608E-02  0.1098470E+00
          2   -1    0    0  501    0  0.00000000000E+00  0.00000000000E+00  0.92576562994E+02  0.92576563029E+02  0.25500000000E-02 0.  1.
         -2   -1    0    0    0  501 -0.00000000000E+00 -0.00000000000E+00 -0.20417411507E+03  0.20417411509E+03  0.25500000000E-02 0. -1.
    5000001    1    1    2    0    0  0.62668452264E+02  0.28499067938E+02  0.42126622800E+02  0.11154902120E+03  0.77000000000E+02 0.  0.
   -5000001    1    1    2    0    0 -0.62668452264E+02 -0.28499067938E+02 -0.15372417488E+03  0.18520165692E+03  0.77000000000E+02 0.  0.
<mgrwt>
<rscale>  0 0.27496718E+03</rscale>
<asrwt>0</asrwt>
<pdfrwt beam="1">  1        2 0.13225223E-01 0.27496718E+03</pdfrwt>
<pdfrwt beam="2">  1       -2 0.29167731E-01 0.27496718E+03</pdfrwt>
<totfact> 0.48532257E+03</totfact>
</mgrwt>
</event>
<event>
 4    1  0.1305170E-003  0.2013468E+03  0.7818608E-02  0.1148608E+00
          2   -1    0    0  501    0  0.00000000000E+00  0.00000000000E+00  0.19634139180E+04  0.19634139180E+04  0.25500000000E-02 0.  1.
         -2   -1    0    0    0  501 -0.00000000000E+00 -0.00000000000E+00 -0.51619951092E+01  0.51619957390E+01  0.25500000000E-02 0. -1.
    5000001    1    1    2    0    0  0.45920509213E+02  0.39753496879E+02  0.75679768925E+03  0.76312566208E+03  0.77000000000E+02 0.  0.
   -5000001    1    1    2    0    0 -0.45920509213E+02 -0.39753496879E+02  0.12014542337E+04  0.12054502517E+04  0.77000000000E+02 0.  0.
<mgrwt>
<rscale>  0 0.20134680E+03</rscale>
<asrwt>0</asrwt>
<pdfrwt beam="1">  1        2 0.28048827E+00 0.20134680E+03</pdfrwt>
<pdfrwt beam="2">  1       -2 0.73742643E-03 0.20134680E+03</pdfrwt>
<totfact> 0.30066496E+04</totfact>
</mgrwt>
</event>
<event>
 4    1  0.1305170E-003  0.2894585E+03  0.7818608E-02  0.1090632E+00
          2   -1    0    0  501    0  0.00000000000E+00  0.00000000000E+00  0.25154757685E+03  0.25154757687E+03  0.25500000000E-02 0.  1.
         -2   -1    0    0    0  501 -0.00000000000E+00 -0.00000000000E+00 -0.83270767062E+02  0.83270767101E+02  0.25500000000E-02 0. -1.
    5000001    1    1    2    0    0 -0.12161858453E+02  0.11755818796E+03  0.46661828735E+02  0.14857376827E+03  0.77000000000E+02 0.  0.
   -5000001    1    1    2    0    0  0.12161858453E+02 -0.11755818796E+03  0.12161498106E+03  0.18624457569E+03  0.77000000000E+02 0.  0.
<mgrwt>
<rscale>  0 0.28945853E+03</rscale>
<asrwt>0</asrwt>
<pdfrwt beam="1">  1        2 0.35935369E-01 0.28945853E+03</pdfrwt>
<pdfrwt beam="2">  1       -2 0.11895824E-01 0.28945853E+03</pdfrwt>
<totfact> 0.71672320E+03</totfact>
</mgrwt>
</event>
<event>
 4    1  0.1305170E-003  0.2045712E+03  0.7818608E-02  0.1145939E+00
         -2   -1    0    0    0  501 -0.00000000000E+00  0.00000000000E+00  0.19678667701E+04  0.19678667701E+04  0.25500000000E-02 0. -1.
          2   -1    0    0  501    0  0.00000000000E+00 -0.00000000000E+00 -0.53165923804E+01  0.53165929919E+01  0.25500000000E-02 0.  1.
    5000001    1    1    2    0    0 -0.13154431655E+02 -0.65810789337E+02  0.92911195384E+03  0.93470964574E+03  0.77000000000E+02 0.  0.
   -5000001    1    1    2    0    0  0.13154431655E+02  0.65810789337E+02  0.10334382239E+04  0.10384737174E+04  0.77000000000E+02 0.  0.
<mgrwt>
<rscale>  0 0.20457122E+03</rscale>
<asrwt>0</asrwt>
<pdfrwt beam="1">  1        2 0.75951056E-03 0.20457122E+03</pdfrwt>
<pdfrwt beam="2">  1       -2 0.28112482E+00 0.20457122E+03</pdfrwt>
<totfact> 0.99454084E+02</totfact>
</mgrwt>
</event>
<event>
 4    1  0.1305170E-003  0.2754996E+03  0.7818608E-02  0.1098173E+00
         -2   -1    0    0    0  501 -0.00000000000E+00  0.00000000000E+00  0.78434770567E+02  0.78434770609E+02  0.25500000000E-02 0. -1.
          2   -1    0    0  501    0  0.00000000000E+00 -0.00000000000E+00 -0.24192085857E+03  0.24192085858E+03  0.25500000000E-02 0.  1.
    5000001    1    1    2    0    0  0.63151804318E+02 -0.65232379313E+02 -0.16232713262E+03  0.20130204093E+03  0.77000000000E+02 0.  0.
   -5000001    1    1    2    0    0 -0.63151804318E+02  0.65232379313E+02 -0.11589553829E+01  0.11905358826E+03  0.77000000000E+02 0.  0.
<mgrwt>
<rscale>  0 0.27549960E+03</rscale>
<asrwt>0</asrwt>
<pdfrwt beam="1">  1        2 0.34560122E-01 0.27549960E+03</pdfrwt>
<pdfrwt beam="2">  1       -2 0.11204967E-01 0.27549960E+03</pdfrwt>
<totfact> 0.82179793E+03</totfact>
</mgrwt>
</event>
<event>
 4    1  0.1305170E-003  0.3752492E+03  0.7818608E-02  0.1052704E+00
         -2   -1    0    0    0  501 -0.00000000000E+00  0.00000000000E+00  0.89501444765E+02  0.89501444802E+02  0.25500000000E-02 0. -1.
          2   -1    0    0  501    0  0.00000000000E+00 -0.00000000000E+00 -0.39332313959E+03  0.39332313960E+03  0.25500000000E-02 0.  1.
    5000001    1    1    2    0    0 -0.10478494917E+03  0.12910418083E+03 -0.10002385709E+03  0.20876193874E+03  0.77000000000E+02 0.  0.
   -5000001    1    1    2    0    0  0.10478494917E+03 -0.12910418083E+03 -0.20379783773E+03  0.27406264566E+03  0.77000000000E+02 0.  0.
<mgrwt>
<rscale>  0 0.37524919E+03</rscale>
<asrwt>0</asrwt>
<pdfrwt beam="1">  1        2 0.56189019E-01 0.37524919E+03</pdfrwt>
<pdfrwt beam="2">  1       -2 0.12785921E-01 0.37524919E+03</pdfrwt>
<totfact> 0.39541837E+03</totfact>
</mgrwt>
</event>
<event>
 4    1  0.1305170E-003  0.3342427E+03  0.7818608E-02  0.1069275E+00
         -2   -1    0    0    0  501 -0.00000000000E+00  0.00000000000E+00  0.39146337280E+02  0.39146337363E+02  0.25500000000E-02 0. -1.
          2   -1    0    0  501    0  0.00000000000E+00 -0.00000000000E+00 -0.71346516893E+03  0.71346516893E+03  0.25500000000E-02 0.  1.
    5000001    1    1    2    0    0 -0.79289683462E+02 -0.90969267618E+02 -0.53135768620E+03  0.55030196460E+03  0.77000000000E+02 0.  0.
   -5000001    1    1    2    0    0  0.79289683462E+02  0.90969267618E+02 -0.14296114544E+03  0.20230954169E+03  0.77000000000E+02 0.  0.
<mgrwt>
<rscale>  0 0.33424272E+03</rscale>
<asrwt>0</asrwt>
<pdfrwt beam="1">  1        2 0.10192359E+00 0.33424272E+03</pdfrwt>
<pdfrwt beam="2">  1       -2 0.55923343E-02 0.33424272E+03</pdfrwt>
<totfact> 0.74250296E+03</totfact>
</mgrwt>
</event>
<event>
 4    1  0.1305170E-003  0.4271854E+03  0.7818608E-02  0.1034753E+00
         -2   -1    0    0    0  501 -0.00000000000E+00  0.00000000000E+00  0.29210277693E+03  0.29210277694E+03  0.25500000000E-02 0. -1.
          2   -1    0    0  501    0  0.00000000000E+00 -0.00000000000E+00 -0.15618423597E+03  0.15618423599E+03  0.25500000000E-02 0.  1.
    5000001    1    1    2    0    0 -0.44641966306E+02  0.17481559369E+03  0.15662834223E+03  0.25102755733E+03  0.77000000000E+02 0.  0.
   -5000001    1    1    2    0    0  0.44641966306E+02 -0.17481559369E+03 -0.20709801266E+02  0.19725945559E+03  0.77000000000E+02 0.  0.
<mgrwt>
<rscale>  0 0.42718544E+03</rscale>
<asrwt>0</asrwt>
<pdfrwt beam="1">  1        2 0.22312034E-01 0.42718544E+03</pdfrwt>
<pdfrwt beam="2">  1       -2 0.41728968E-01 0.42718544E+03</pdfrwt>
<totfact> 0.13553804E+03</totfact>
</mgrwt>
</event>
<event>
 4    1  0.1305170E-003  0.3285554E+03  0.7818608E-02  0.1071778E+00
          2   -1    0    0  501    0  0.00000000000E+00  0.00000000000E+00  0.91983665046E+03  0.91983665046E+03  0.25500000000E-02 0.  1.
         -2   -1    0    0    0  501 -0.00000000000E+00 -0.00000000000E+00 -0.29339083631E+02  0.29339083742E+02  0.25500000000E-02 0. -1.
    5000001    1    1    2    0    0  0.93860729516E+02  0.99136333570E+02  0.58737492811E+03  0.60792775504E+03  0.77000000000E+02 0.  0.
   -5000001    1    1    2    0    0 -0.93860729516E+02 -0.99136333570E+02  0.30312263872E+03  0.34124797916E+03  0.77000000000E+02 0.  0.
<mgrwt>
<rscale>  0 0.32855541E+03</rscale>
<asrwt>0</asrwt>
<pdfrwt beam="1">  1        2 0.13140524E+00 0.32855541E+03</pdfrwt>
<pdfrwt beam="2">  1       -2 0.41912974E-02 0.32855541E+03</pdfrwt>
<totfact> 0.83742832E+03</totfact>
</mgrwt>
</event>
<event>
 4    1  0.1305170E-003  0.3724724E+03  0.7818608E-02  0.1053752E+00
          2   -1    0    0  501    0  0.00000000000E+00  0.00000000000E+00  0.29046295112E+02  0.29046295224E+02  0.25500000000E-02 0.  1.
         -2   -1    0    0    0  501 -0.00000000000E+00 -0.00000000000E+00 -0.11940912204E+04  0.11940912204E+04  0.25500000000E-02 0. -1.
    5000001    1    1    2    0    0  0.74144615619E+01 -0.16940207617E+03 -0.58810343297E+03  0.61688466144E+03  0.77000000000E+02 0.  0.
   -5000001    1    1    2    0    0 -0.74144615619E+01  0.16940207617E+03 -0.57694149234E+03  0.60625285421E+03  0.77000000000E+02 0.  0.
<mgrwt>
<rscale>  0 0.37247242E+03</rscale>
<asrwt>0</asrwt>
<pdfrwt beam="1">  1        2 0.41494715E-02 0.37247242E+03</pdfrwt>
<pdfrwt beam="2">  1       -2 0.17058443E+00 0.37247242E+03</pdfrwt>
<totfact> 0.45692321E+02</totfact>
</mgrwt>
</event>
<event>
 4    1  0.1305170E-003  0.4712389E+03  0.7818608E-02  0.1021571E+00
         -2   -1    0    0    0  501 -0.00000000000E+00  0.00000000000E+00  0.16845600735E+02  0.16845600928E+02  0.25500000000E-02 0. -1.
          2   -1    0    0  501    0  0.00000000000E+00 -0.00000000000E+00 -0.32956097019E+04  0.32956097019E+04  0.25500000000E-02 0.  1.
    5000001    1    1    2    0    0  0.75642432017E+02  0.24888458069E+02 -0.17759727665E+03  0.20931078697E+03  0.77000000000E+02 0.  0.
   -5000001    1    1    2    0    0 -0.75642432017E+02 -0.24888458069E+02 -0.31011668245E+04  0.31031445158E+04  0.77000000000E+02 0.  0.
<mgrwt>
<rscale>  0 0.47123890E+03</rscale>
<asrwt>0</asrwt>
<pdfrwt beam="1">  1        2 0.47080097E+00 0.47123890E+03</pdfrwt>
<pdfrwt beam="2">  1       -2 0.24065165E-02 0.47123890E+03</pdfrwt>
<totfact> 0.10968136E+03</totfact>
</mgrwt>
</event>
<event>
 4    1  0.1305170E-003  0.5375573E+03  0.7818608E-02  0.1004416E+00
          2   -1    0    0  501    0  0.00000000000E+00  0.00000000000E+00  0.18382017131E+03  0.18382017133E+03  0.25500000000E-02 0.  1.
         -2   -1    0    0    0  501 -0.00000000000E+00 -0.00000000000E+00 -0.39300352641E+03  0.39300352642E+03  0.25500000000E-02 0. -1.
    5000001    1    1    2    0    0  0.17314181667E+03  0.18362204166E+03 -0.15949381280E+03  0.30832194081E+03  0.77000000000E+02 0.  0.
   -5000001    1    1    2    0    0 -0.17314181667E+03 -0.18362204166E+03 -0.49689542305E+02  0.26850175694E+03  0.77000000000E+02 0.  0.
<mgrwt>
<rscale>  0 0.53755735E+03</rscale>
<asrwt>0</asrwt>
<pdfrwt beam="1">  1        2 0.26260025E-01 0.53755735E+03</pdfrwt>
<pdfrwt beam="2">  1       -2 0.56143361E-01 0.53755735E+03</pdfrwt>
<totfact> 0.62105017E+02</totfact>
</mgrwt>
</event>
<event>
 4    1  0.1305170E-003  0.1562636E+03  0.7818608E-02  0.1192981E+00
         -2   -1    0    0    0  501 -0.00000000000E+00  0.00000000000E+00  0.15497789736E+01  0.15497810715E+01  0.25500000000E-02 0. -1.
          2   -1    0    0  501    0  0.00000000000E+00 -0.00000000000E+00 -0.39389975715E+04  0.39389975715E+04  0.25500000000E-02 0.  1.
    5000001    1    1    2    0    0 -0.76804627305E+01 -0.10297572974E+02 -0.18868152660E+04  0.18884294738E+04  0.77000000000E+02 0.  0.
   -5000001    1    1    2    0    0  0.76804627305E+01  0.10297572974E+02 -0.20506325266E+04  0.20521178788E+04  0.77000000000E+02 0.  0.
<mgrwt>
<rscale>  0 0.15626362E+03</rscale>
<asrwt>0</asrwt>
<pdfrwt beam="1">  1        2 0.56270752E+00 0.15626362E+03</pdfrwt>
<pdfrwt beam="2">  1       -2 0.22139967E-03 0.15626362E+03</pdfrwt>
<totfact> 0.14770375E+04</totfact>
</mgrwt>
</event>
<event>
 4    1  0.1305170E-003  0.3070069E+03  0.7818608E-02  0.1081789E+00
          2   -1    0    0  501    0  0.00000000000E+00  0.00000000000E+00  0.42810749817E+03  0.42810749817E+03  0.25500000000E-02 0.  1.
         -2   -1    0    0    0  501 -0.00000000000E+00 -0.00000000000E+00 -0.55040627953E+02  0.55040628012E+02  0.25500000000E-02 0. -1.
    5000001    1    1    2    0    0 -0.24546516271E+02  0.12752658700E+03  0.23016722938E+03  0.27526626261E+03  0.77000000000E+02 0.  0.
   -5000001    1    1    2    0    0  0.24546516271E+02 -0.12752658700E+03  0.14289964084E+03  0.20788186358E+03  0.77000000000E+02 0.  0.
<mgrwt>
<rscale>  0 0.30700688E+03</rscale>
<asrwt>0</asrwt>
<pdfrwt beam="1">  1        2 0.61158216E-01 0.30700688E+03</pdfrwt>
<pdfrwt beam="2">  1       -2 0.78629466E-02 0.30700688E+03</pdfrwt>
<totfact> 0.78001939E+03</totfact>
</mgrwt>
</event>
<event>
 4    1  0.1305170E-003  0.2001844E+03  0.7818608E-02  0.1149584E+00
          2   -1    0    0  501    0  0.00000000000E+00  0.00000000000E+00  0.12889767574E+04  0.12889767574E+04  0.25500000000E-02 0. -1.
         -2   -1    0    0    0  501 -0.00000000000E+00 -0.00000000000E+00 -0.77724033755E+01  0.77724037938E+01  0.25500000000E-02 0.  1.
    5000001    1    1    2    0    0 -0.43056459783E+02 -0.35608252971E+02  0.43909851980E+03  0.44928645261E+03  0.77000000000E+02 0.  0.
   -5000001    1    1    2    0    0  0.43056459783E+02  0.35608252971E+02  0.84210583422E+03  0.84746270858E+03  0.77000000000E+02 0.  0.
<mgrwt>
<rscale>  0 0.20018439E+03</rscale>
<asrwt>0</asrwt>
<pdfrwt beam="1">  1        2 0.18413960E+00 0.20018439E+03</pdfrwt>
<pdfrwt beam="2">  1       -2 0.11103430E-02 0.20018439E+03</pdfrwt>
<totfact> 0.35938185E+04</totfact>
</mgrwt>
</event>
<event>
 4    1  0.1305170E-003  0.2162497E+03  0.7818608E-02  0.1136710E+00
         -2   -1    0    0    0  501 -0.00000000000E+00  0.00000000000E+00  0.12330450763E+02  0.12330451027E+02  0.25500000000E-02 0. -1.
          2   -1    0    0  501    0  0.00000000000E+00 -0.00000000000E+00 -0.94813920766E+03  0.94813920766E+03  0.25500000000E-02 0.  1.
    5000001    1    1    2    0    0 -0.47508097240E+02  0.56389050841E+02 -0.54800388165E+03  0.55827770748E+03  0.77000000000E+02 0.  0.
   -5000001    1    1    2    0    0  0.47508097240E+02 -0.56389050841E+02 -0.38780487524E+03  0.40219195121E+03  0.77000000000E+02 0.  0.
<mgrwt>
<rscale>  0 0.21624971E+03</rscale>
<asrwt>0</asrwt>
<pdfrwt beam="1">  1        2 0.13544841E+00 0.21624971E+03</pdfrwt>
<pdfrwt beam="2">  1       -2 0.17614936E-02 0.21624971E+03</pdfrwt>
<totfact> 0.28610351E+04</totfact>
</mgrwt>
</event>
<event>
 4    1  0.1305170E-003  0.2733898E+03  0.7818608E-02  0.1099355E+00
          2   -1    0    0  501    0  0.00000000000E+00  0.00000000000E+00  0.35946470028E+03  0.35946470029E+03  0.25500000000E-02 0.  1.
         -2   -1    0    0    0  501 -0.00000000000E+00 -0.00000000000E+00 -0.51981463623E+02  0.51981463686E+02  0.25500000000E-02 0. -1.
    5000001    1    1    2    0    0  0.60157823355E+02  0.93467555825E+02  0.12359114032E+03  0.18319093228E+03  0.77000000000E+02 0.  0.
   -5000001    1    1    2    0    0 -0.60157823355E+02 -0.93467555825E+02  0.18389209634E+03  0.22825523170E+03  0.77000000000E+02 0.  0.
<mgrwt>
<rscale>  0 0.27338984E+03</rscale>
<asrwt>0</asrwt>
<pdfrwt beam="1">  1        2 0.51352100E-01 0.27338984E+03</pdfrwt>
<pdfrwt beam="2">  1       -2 0.74259234E-02 0.27338984E+03</pdfrwt>
<totfact> 0.10259377E+04</totfact>
</mgrwt>
</event>
<event>
 4    1  0.1305170E-003  0.2707264E+03  0.7818608E-02  0.1100865E+00
         -2   -1    0    0    0  501 -0.00000000000E+00  0.00000000000E+00  0.15256711045E+02  0.15256711258E+02  0.25500000000E-02 0. -1.
          2   -1    0    0  501    0  0.00000000000E+00 -0.00000000000E+00 -0.12009923570E+04  0.12009923570E+04  0.25500000000E-02 0.  1.
    5000001    1    1    2    0    0  0.36122968149E+02 -0.77028473150E+02 -0.27028159245E+03  0.29363139090E+03  0.77000000000E+02 0.  0.
   -5000001    1    1    2    0    0 -0.36122968149E+02  0.77028473150E+02 -0.91545405353E+03  0.92261767739E+03  0.77000000000E+02 0.  0.
<mgrwt>
<rscale>  0 0.27072638E+03</rscale>
<asrwt>0</asrwt>
<pdfrwt beam="1">  1        2 0.17157028E+00 0.27072638E+03</pdfrwt>
<pdfrwt beam="2">  1       -2 0.21795309E-02 0.27072638E+03</pdfrwt>
<totfact> 0.15203049E+04</totfact>
</mgrwt>
</event>
<event>
 4    1  0.1305170E-003  0.2299028E+03  0.7818608E-02  0.1126708E+00
         -2   -1    0    0    0  501 -0.00000000000E+00  0.00000000000E+00  0.25273936188E+02  0.25273936317E+02  0.25500000000E-02 0. -1.
          2   -1    0    0  501    0  0.00000000000E+00 -0.00000000000E+00 -0.52282410638E+03  0.52282410639E+03  0.25500000000E-02 0.  1.
    5000001    1    1    2    0    0 -0.80465934069E+02  0.25806214146E+02 -0.22015704881E+03  0.24807025894E+03  0.77000000000E+02 0.  0.
   -5000001    1    1    2    0    0  0.80465934069E+02 -0.25806214146E+02 -0.27739312139E+03  0.30002778376E+03  0.77000000000E+02 0.  0.
<mgrwt>
<rscale>  0 0.22990279E+03</rscale>
<asrwt>0</asrwt>
<pdfrwt beam="1">  1        2 0.74689152E-01 0.22990279E+03</pdfrwt>
<pdfrwt beam="2">  1       -2 0.36105626E-02 0.22990279E+03</pdfrwt>
<totfact> 0.20253793E+04</totfact>
</mgrwt>
</event>
<event>
 4    1  0.1305170E-003  0.1864874E+03  0.7818608E-02  0.1161668E+00
          2   -1    0    0  501    0  0.00000000000E+00  0.00000000000E+00  0.16116340686E+04  0.16116340686E+04  0.25500000000E-02 0.  1.
         -2   -1    0    0    0  501 -0.00000000000E+00 -0.00000000000E+00 -0.53947645579E+01  0.53947651606E+01  0.25500000000E-02 0. -1.
    5000001    1    1    2    0    0  0.57721628458E+01  0.40785484530E+02  0.51966828098E+03  0.52695435844E+03  0.77000000000E+02 0.  0.
   -5000001    1    1    2    0    0 -0.57721628458E+01 -0.40785484530E+02  0.10865710230E+04  0.10900744753E+04  0.77000000000E+02 0.  0.
<mgrwt>
<rscale>  0 0.18648739E+03</rscale>
<asrwt>0</asrwt>
<pdfrwt beam="1">  1        2 0.23023377E+00 0.18648739E+03</pdfrwt>
<pdfrwt beam="2">  1       -2 0.77067960E-03 0.18648739E+03</pdfrwt>
<totfact> 0.41601304E+04</totfact>
</mgrwt>
</event>
<event>
 4    1  0.1305170E-003  0.4573215E+03  0.7818608E-02  0.1025561E+00
         -2   -1    0    0    0  501 -0.00000000000E+00  0.00000000000E+00  0.16264899923E+03  0.16264899925E+03  0.25500000000E-02 0. -1.
          2   -1    0    0  501    0  0.00000000000E+00 -0.00000000000E+00 -0.32146369310E+03  0.32146369311E+03  0.25500000000E-02 0.  1.
    5000001    1    1    2    0    0 -0.11783212788E+03 -0.11159525324E+03  0.70369344645E+02  0.19292163065E+03  0.77000000000E+02 0.  0.
   -5000001    1    1    2    0    0  0.11783212788E+03  0.11159525324E+03 -0.22918403852E+03  0.29119106171E+03  0.77000000000E+02 0.  0.
<mgrwt>
<rscale>  0 0.45732154E+03</rscale>
<asrwt>0</asrwt>
<pdfrwt beam="1">  1        2 0.45923385E-01 0.45732154E+03</pdfrwt>
<pdfrwt beam="2">  1       -2 0.23235571E-01 0.45732154E+03</pdfrwt>
<totfact> 0.17935669E+03</totfact>
</mgrwt>
</event>
<event>
 4    1  0.1305170E-003  0.3109838E+03  0.7818608E-02  0.1079875E+00
         -2   -1    0    0    0  501 -0.00000000000E+00  0.00000000000E+00  0.10640982181E+03  0.10640982184E+03  0.25500000000E-02 0. -1.
          2   -1    0    0  501    0  0.00000000000E+00 -0.00000000000E+00 -0.22721328805E+03  0.22721328807E+03  0.25500000000E-02 0.  1.
    5000001    1    1    2    0    0  0.34437298438E+02  0.11773558297E+03 -0.12109913446E+03  0.18878981802E+03  0.77000000000E+02 0.  0.
   -5000001    1    1    2    0    0 -0.34437298438E+02 -0.11773558297E+03  0.29566821320E+00  0.14483329189E+03  0.77000000000E+02 0.  0.
<mgrwt>
<rscale>  0 0.31098376E+03</rscale>
<asrwt>0</asrwt>
<pdfrwt beam="1">  1        2 0.32459041E-01 0.31098376E+03</pdfrwt>
<pdfrwt beam="2">  1       -2 0.15201403E-01 0.31098376E+03</pdfrwt>
<totfact> 0.53738361E+03</totfact>
</mgrwt>
</event>
<event>
 4    1  0.1305170E-003  0.1894778E+03  0.7818608E-02  0.1158933E+00
          2   -1    0    0  501    0  0.00000000000E+00  0.00000000000E+00  0.38637806093E+03  0.38637806094E+03  0.25500000000E-02 0.  1.
         -2   -1    0    0    0  501 -0.00000000000E+00 -0.00000000000E+00 -0.23229739031E+02  0.23229739171E+02  0.25500000000E-02 0. -1.
    5000001    1    1    2    0    0  0.52011050692E+02 -0.79151221044E+01  0.14548726876E+03  0.17281013837E+03  0.77000000000E+02 0.  0.
   -5000001    1    1    2    0    0 -0.52011050692E+02  0.79151221044E+01  0.21766105313E+03  0.23679766173E+03  0.77000000000E+02 0.  0.
<mgrwt>
<rscale>  0 0.18947783E+03</rscale>
<asrwt>0</asrwt>
<pdfrwt beam="1">  1        2 0.55196865E-01 0.18947783E+03</pdfrwt>
<pdfrwt beam="2">  1       -2 0.33185342E-02 0.18947783E+03</pdfrwt>
<totfact> 0.31444041E+04</totfact>
</mgrwt>
</event>
<event>
 4    1  0.1305170E-003  0.4720611E+03  0.7818608E-02  0.1021340E+00
          2   -1    0    0  501    0  0.00000000000E+00  0.00000000000E+00  0.20918167485E+04  0.20918167485E+04  0.25500000000E-02 0.  1.
         -2   -1    0    0    0  501 -0.00000000000E+00 -0.00000000000E+00 -0.26632549885E+02  0.26632550007E+02  0.25500000000E-02 0. -1.
    5000001    1    1    2    0    0  0.14820526296E+03 -0.16345308103E+03  0.11814109208E+04  0.12043016539E+04  0.77000000000E+02 0.  0.
   -5000001    1    1    2    0    0 -0.14820526296E+03  0.16345308103E+03  0.88377327785E+03  0.91414764470E+03  0.77000000000E+02 0.  0.
<mgrwt>
<rscale>  0 0.47206107E+03</rscale>
<asrwt>0</asrwt>
<pdfrwt beam="1">  1        2 0.29883101E+00 0.47206107E+03</pdfrwt>
<pdfrwt beam="2">  1       -2 0.38046494E-02 0.47206107E+03</pdfrwt>
<totfact> 0.23401888E+03</totfact>
</mgrwt>
</event>
<event>
 4    1  0.1305170E-003  0.1881390E+03  0.7818608E-02  0.1160151E+00
         -2   -1    0    0    0  501 -0.00000000000E+00  0.00000000000E+00  0.41741000035E+01  0.41741007824E+01  0.25500000000E-02 0. -1.
          2   -1    0    0  501    0  0.00000000000E+00 -0.00000000000E+00 -0.21199952025E+04  0.21199952025E+04  0.25500000000E-02 0.  1.
    5000001    1    1    2    0    0 -0.14645690614E+02  0.50290143441E+02 -0.90792287648E+03  0.91268644365E+03  0.77000000000E+02 0.  0.
   -5000001    1    1    2    0    0  0.14645690614E+02 -0.50290143441E+02 -0.12078982260E+04  0.12114828596E+04  0.77000000000E+02 0.  0.
<mgrwt>
<rscale>  0 0.18813902E+03</rscale>
<asrwt>0</asrwt>
<pdfrwt beam="1">  1        2 0.30285577E+00 0.18813902E+03</pdfrwt>
<pdfrwt beam="2">  1       -2 0.59630141E-03 0.18813902E+03</pdfrwt>
<totfact> 0.34148230E+04</totfact>
</mgrwt>
</event>
<event>
 4    1  0.1305170E-003  0.3078573E+03  0.7818608E-02  0.1081377E+00
         -2   -1    0    0    0  501 -0.00000000000E+00  0.00000000000E+00  0.16301804330E+03  0.16301804332E+03  0.25500000000E-02 0. -1.
          2   -1    0    0  501    0  0.00000000000E+00 -0.00000000000E+00 -0.14534605668E+03  0.14534605671E+03  0.25500000000E-02 0.  1.
    5000001    1    1    2    0    0 -0.21695837364E+02  0.11459238756E+03 -0.55790800007E+02  0.15047836393E+03  0.77000000000E+02 0.  0.
   -5000001    1    1    2    0    0  0.21695837364E+02 -0.11459238756E+03  0.73462786623E+02  0.15788573610E+03  0.77000000000E+02 0.  0.
<mgrwt>
<rscale>  0 0.30785730E+03</rscale>
<asrwt>0</asrwt>
<pdfrwt beam="1">  1        2 0.20763722E-01 0.30785730E+03</pdfrwt>
<pdfrwt beam="2">  1       -2 0.23288292E-01 0.30785730E+03</pdfrwt>
<totfact> 0.42815424E+03</totfact>
</mgrwt>
</event>
<event>
 4    1  0.1305170E-003  0.3197174E+03  0.7818608E-02  0.1075779E+00
          2   -1    0    0  501    0  0.00000000000E+00  0.00000000000E+00  0.85884845557E+03  0.85884845557E+03  0.25500000000E-02 0.  1.
         -2   -1    0    0    0  501 -0.00000000000E+00 -0.00000000000E+00 -0.29754723425E+02  0.29754723534E+02  0.25500000000E-02 0. -1.
    5000001    1    1    2    0    0 -0.11929075190E+03 -0.72818856403E+02  0.38775412124E+03  0.41930314556E+03  0.77000000000E+02 0.  0.
   -5000001    1    1    2    0    0  0.11929075190E+03  0.72818856403E+02  0.44133961090E+03  0.46930003354E+03  0.77000000000E+02 0.  0.
<mgrwt>
<rscale>  0 0.31971736E+03</rscale>
<asrwt>0</asrwt>
<pdfrwt beam="1">  1        2 0.12269264E+00 0.31971736E+03</pdfrwt>
<pdfrwt beam="2">  1       -2 0.42506746E-02 0.31971736E+03</pdfrwt>
<totfact> 0.89546629E+03</totfact>
</mgrwt>
</event>
<event>
 4    1  0.1305170E-003  0.2125448E+03  0.7818608E-02  0.1139566E+00
         -2   -1    0    0    0  501 -0.00000000000E+00  0.00000000000E+00  0.21901513989E+02  0.21901514137E+02  0.25500000000E-02 0. -1.
          2   -1    0    0  501    0  0.00000000000E+00 -0.00000000000E+00 -0.51566420714E+03  0.51566420715E+03  0.25500000000E-02 0.  1.
    5000001    1    1    2    0    0  0.16773972311E+02  0.34943263709E+02 -0.89696286062E+02  0.12440587429E+03  0.77000000000E+02 0.  0.
   -5000001    1    1    2    0    0 -0.16773972311E+02 -0.34943263709E+02 -0.40406640709E+03  0.41315984699E+03  0.77000000000E+02 0.  0.
<mgrwt>
<rscale>  0 0.21254484E+03</rscale>
<asrwt>0</asrwt>
<pdfrwt beam="1">  1        2 0.73666308E-01 0.21254484E+03</pdfrwt>
<pdfrwt beam="2">  1       -2 0.31287880E-02 0.21254484E+03</pdfrwt>
<totfact> 0.25316922E+04</totfact>
</mgrwt>
</event>
<event>
 4    1  0.1305170E-003  0.2115728E+03  0.7818608E-02  0.1140327E+00
          2   -1    0    0  501    0  0.00000000000E+00  0.00000000000E+00  0.12943142322E+03  0.12943142324E+03  0.25500000000E-02 0.  1.
         -2   -1    0    0    0  501 -0.00000000000E+00 -0.00000000000E+00 -0.86460924179E+02  0.86460924217E+02  0.25500000000E-02 0. -1.
    5000001    1    1    2    0    0  0.17544160861E+02  0.65731185863E+02 -0.41954945705E+01  0.10283476333E+03  0.77000000000E+02 0.  0.
   -5000001    1    1    2    0    0 -0.17544160861E+02 -0.65731185863E+02  0.47165993610E+02  0.11305758413E+03  0.77000000000E+02 0.  0.
<mgrwt>
<rscale>  0 0.21157278E+03</rscale>
<asrwt>0</asrwt>
<pdfrwt beam="1">  1        2 0.18490203E-01 0.21157278E+03</pdfrwt>
<pdfrwt beam="2">  1       -2 0.12351561E-01 0.21157278E+03</pdfrwt>
<totfact> 0.13911823E+04</totfact>
</mgrwt>
</event>
<event>
 4    1  0.1305170E-003  0.1758637E+03  0.7818608E-02  0.1171867E+00
          2   -1    0    0  501    0  0.00000000000E+00  0.00000000000E+00  0.13393820243E+03  0.13393820245E+03  0.25500000000E-02 0.  1.
         -2   -1    0    0    0  501 -0.00000000000E+00 -0.00000000000E+00 -0.57728197064E+02  0.57728197121E+02  0.25500000000E-02 0. -1.
    5000001    1    1    2    0    0  0.32593556840E+02  0.23966225649E+02  0.24050865972E+02  0.90245022430E+02  0.77000000000E+02 0.  0.
   -5000001    1    1    2    0    0 -0.32593556840E+02 -0.23966225649E+02  0.52159139389E+02  0.10142137714E+03  0.77000000000E+02 0.  0.
<mgrwt>
<rscale>  0 0.17586371E+03</rscale>
<asrwt>0</asrwt>
<pdfrwt beam="1">  1        2 0.19134028E-01 0.17586371E+03</pdfrwt>
<pdfrwt beam="2">  1       -2 0.82468855E-02 0.17586371E+03</pdfrwt>
<totfact> 0.24983378E+04</totfact>
</mgrwt>
</event>
<event>
 4    1  0.1305170E-003  0.1956651E+03  0.7818608E-02  0.1153449E+00
         -2   -1    0    0    0  501 -0.00000000000E+00  0.00000000000E+00  0.11678301721E+02  0.11678302000E+02  0.25500000000E-02 0. -1.
          2   -1    0    0  501    0  0.00000000000E+00 -0.00000000000E+00 -0.81957154953E+03  0.81957154954E+03  0.25500000000E-02 0.  1.
    5000001    1    1    2    0    0 -0.22765086882E+02  0.35911037250E+02 -0.58589980782E+03  0.59246555729E+03  0.77000000000E+02 0.  0.
   -5000001    1    1    2    0    0  0.22765086882E+02 -0.35911037250E+02 -0.22199344000E+03  0.23878429424E+03  0.77000000000E+02 0.  0.
<mgrwt>
<rscale>  0 0.19566506E+03</rscale>
<asrwt>0</asrwt>
<pdfrwt beam="1">  1        2 0.11708161E+00 0.19566506E+03</pdfrwt>
<pdfrwt beam="2">  1       -2 0.16683294E-02 0.19566506E+03</pdfrwt>
<totfact> 0.37023010E+04</totfact>
</mgrwt>
</event>
<event>
 4    1  0.1305170E-003  0.2023694E+03  0.7818608E-02  0.1147755E+00
          2   -1    0    0  501    0  0.00000000000E+00  0.00000000000E+00  0.33235334419E+03  0.33235334420E+03  0.25500000000E-02 0.  1.
         -2   -1    0    0    0  501 -0.00000000000E+00 -0.00000000000E+00 -0.30805604955E+02  0.30805605060E+02  0.25500000000E-02 0. -1.
    5000001    1    1    2    0    0 -0.53731847528E+02  0.10697395129E+02  0.85877179384E+02  0.12769273918E+03  0.77000000000E+02 0.  0.
   -5000001    1    1    2    0    0  0.53731847528E+02 -0.10697395129E+02  0.21567055985E+03  0.23546621008E+03  0.77000000000E+02 0.  0.
<mgrwt>
<rscale>  0 0.20236942E+03</rscale>
<asrwt>0</asrwt>
<pdfrwt beam="1">  1        2 0.47479049E-01 0.20236942E+03</pdfrwt>
<pdfrwt beam="2">  1       -2 0.44008008E-02 0.20236942E+03</pdfrwt>
<totfact> 0.24367937E+04</totfact>
</mgrwt>
</event>
<event>
 4    1  0.1305170E-003  0.3101150E+03  0.7818608E-02  0.1080291E+00
          2   -1    0    0  501    0  0.00000000000E+00  0.00000000000E+00  0.73052605283E+03  0.73052605284E+03  0.25500000000E-02 0.  1.
         -2   -1    0    0    0  501 -0.00000000000E+00 -0.00000000000E+00 -0.32911657879E+02  0.32911657978E+02  0.25500000000E-02 0. -1.
    5000001    1    1    2    0    0 -0.29295106106E+02  0.11514048940E+03  0.50447110072E+03  0.52396147474E+03  0.77000000000E+02 0.  0.
   -5000001    1    1    2    0    0  0.29295106106E+02 -0.11514048940E+03  0.19314329423E+03  0.23947623608E+03  0.77000000000E+02 0.  0.
<mgrwt>
<rscale>  0 0.31011497E+03</rscale>
<asrwt>0</asrwt>
<pdfrwt beam="1">  1        2 0.10436086E+00 0.31011497E+03</pdfrwt>
<pdfrwt beam="2">  1       -2 0.47016657E-02 0.31011497E+03</pdfrwt>
<totfact> 0.93856764E+03</totfact>
</mgrwt>
</event>
<event>
 4    1  0.1305170E-003  0.2920801E+03  0.7818608E-02  0.1089268E+00
         -2   -1    0    0    0  501 -0.00000000000E+00  0.00000000000E+00  0.11328353844E+03  0.11328353847E+03  0.25500000000E-02 0. -1.
          2   -1    0    0  501    0  0.00000000000E+00 -0.00000000000E+00 -0.18826833511E+03  0.18826833513E+03  0.25500000000E-02 0.  1.
    5000001    1    1    2    0    0  0.10781202169E+03  0.44961612441E+02  0.57431214849E+01  0.14002486228E+03  0.77000000000E+02 0.  0.
   -5000001    1    1    2    0    0 -0.10781202169E+03 -0.44961612441E+02 -0.80727918156E+02  0.16152701131E+03  0.77000000000E+02 0.  0.
<mgrwt>
<rscale>  0 0.29208015E+03</rscale>
<asrwt>0</asrwt>
<pdfrwt beam="1">  1        2 0.26895476E-01 0.29208015E+03</pdfrwt>
<pdfrwt beam="2">  1       -2 0.16183363E-01 0.29208015E+03</pdfrwt>
<totfact> 0.59452590E+03</totfact>
</mgrwt>
</event>
<event>
 4    1  0.1305170E-003  0.2272722E+03  0.7818608E-02  0.1128575E+00
          2   -1    0    0  501    0  0.00000000000E+00  0.00000000000E+00  0.67374468957E+02  0.67374469005E+02  0.25500000000E-02 0.  1.
         -2   -1    0    0    0  501 -0.00000000000E+00 -0.00000000000E+00 -0.19166261119E+03  0.19166261121E+03  0.25500000000E-02 0. -1.
    5000001    1    1    2    0    0 -0.40286825300E+00 -0.75858623858E+02 -0.22179500083E+02  0.11034320704E+03  0.77000000000E+02 0.  0.
   -5000001    1    1    2    0    0  0.40286825300E+00  0.75858623858E+02 -0.10210864215E+03  0.14869387317E+03  0.77000000000E+02 0.  0.
<mgrwt>
<rscale>  0 0.22727223E+03</rscale>
<asrwt>0</asrwt>
<pdfrwt beam="1">  1        2 0.96249243E-02 0.22727223E+03</pdfrwt>
<pdfrwt beam="2">  1       -2 0.27380373E-01 0.22727223E+03</pdfrwt>
<totfact> 0.79523461E+03</totfact>
</mgrwt>
</event>
<event>
 4    1  0.1305170E-003  0.2467084E+03  0.7818608E-02  0.1115403E+00
          2   -1    0    0  501    0  0.00000000000E+00  0.00000000000E+00  0.18095070380E+04  0.18095070380E+04  0.25500000000E-02 0.  1.
         -2   -1    0    0    0  501 -0.00000000000E+00 -0.00000000000E+00 -0.84090626201E+01  0.84090630068E+01  0.25500000000E-02 0. -1.
    5000001    1    1    2    0    0 -0.77077165717E+02  0.66720350741E+01  0.47713153098E+03  0.48945776465E+03  0.77000000000E+02 0.  0.
   -5000001    1    1    2    0    0  0.77077165717E+02 -0.66720350741E+01  0.13239664444E+04  0.13284583364E+04  0.77000000000E+02 0.  0.
<mgrwt>
<rscale>  0 0.24670840E+03</rscale>
<asrwt>0</asrwt>
<pdfrwt beam="1">  1        2 0.25850128E+00 0.24670840E+03</pdfrwt>
<pdfrwt beam="2">  1       -2 0.12012934E-02 0.24670840E+03</pdfrwt>
<totfact> 0.17794469E+04</totfact>
</mgrwt>
</event>
<event>
 4    1  0.1305170E-003  0.3216129E+03  0.7818608E-02  0.1074909E+00
          2   -1    0    0  501    0  0.00000000000E+00  0.00000000000E+00  0.48786942755E+03  0.48786942755E+03  0.25500000000E-02 0.  1.
         -2   -1    0    0    0  501 -0.00000000000E+00 -0.00000000000E+00 -0.53003351786E+02  0.53003351848E+02  0.25500000000E-02 0. -1.
    5000001    1    1    2    0    0 -0.11247821554E+03  0.30043857583E+02  0.83148284361E+02  0.16247036512E+03  0.77000000000E+02 0.  0.
   -5000001    1    1    2    0    0  0.11247821554E+03 -0.30043857583E+02  0.35171779140E+03  0.37840241428E+03  0.77000000000E+02 0.  0.
<mgrwt>
<rscale>  0 0.32161290E+03</rscale>
<asrwt>0</asrwt>
<pdfrwt beam="1">  1        2 0.69695630E-01 0.32161290E+03</pdfrwt>
<pdfrwt beam="2">  1       -2 0.75719077E-02 0.32161290E+03</pdfrwt>
<totfact> 0.71781661E+03</totfact>
</mgrwt>
</event>
<event>
 4    1  0.1305170E-003  0.4263782E+03  0.7818608E-02  0.1035010E+00
          2   -1    0    0  501    0  0.00000000000E+00  0.00000000000E+00  0.15851927088E+04  0.15851927088E+04  0.25500000000E-02 0.  1.
         -2   -1    0    0    0  501 -0.00000000000E+00 -0.00000000000E+00 -0.28671329133E+02  0.28671329246E+02  0.25500000000E-02 0. -1.
    5000001    1    1    2    0    0 -0.18008322277E+03  0.81199449049E+02  0.69385617861E+03  0.72552650830E+03  0.77000000000E+02 0.  0.
   -5000001    1    1    2    0    0  0.18008322277E+03 -0.81199449049E+02  0.86266520104E+03  0.88833752973E+03  0.77000000000E+02 0.  0.
<mgrwt>
<rscale>  0 0.42637815E+03</rscale>
<asrwt>0</asrwt>
<pdfrwt beam="1">  1        2 0.22645608E+00 0.42637815E+03</pdfrwt>
<pdfrwt beam="2">  1       -2 0.40959045E-02 0.42637815E+03</pdfrwt>
<totfact> 0.37522907E+03</totfact>
</mgrwt>
</event>
<event>
 4    1  0.1305170E-003  0.2781188E+03  0.7818608E-02  0.1096721E+00
          2   -1    0    0  501    0  0.00000000000E+00  0.00000000000E+00  0.21435534244E+04  0.21435534244E+04  0.25500000000E-02 0.  1.
         -2   -1    0    0    0  501 -0.00000000000E+00 -0.00000000000E+00 -0.90212419842E+01  0.90212423446E+01  0.25500000000E-02 0. -1.
    5000001    1    1    2    0    0  0.10211580018E+03  0.42951452338E+02  0.80639452451E+03  0.81760234410E+03  0.77000000000E+02 0.  0.
   -5000001    1    1    2    0    0 -0.10211580018E+03 -0.42951452338E+02  0.13281376579E+04  0.13349723226E+04  0.77000000000E+02 0.  0.
<mgrwt>
<rscale>  0 0.27811878E+03</rscale>
<asrwt>0</asrwt>
<pdfrwt beam="1">  1        2 0.30622178E+00 0.27811878E+03</pdfrwt>
<pdfrwt beam="2">  1       -2 0.12887495E-02 0.27811878E+03</pdfrwt>
<totfact> 0.11075623E+04</totfact>
</mgrwt>
</event>
<event>
 4    1  0.1305170E-003  0.2614475E+03  0.7818608E-02  0.1106277E+00
         -2   -1    0    0    0  501 -0.00000000000E+00  0.00000000000E+00  0.57604412516E+03  0.57604412517E+03  0.25500000000E-02 0. -1.
          2   -1    0    0  501    0  0.00000000000E+00 -0.00000000000E+00 -0.29665618351E+02  0.29665618461E+02  0.25500000000E-02 0.  1.
    5000001    1    1    2    0    0 -0.10458904659E+03  0.13478010266E+02  0.28769068821E+03  0.31593584397E+03  0.77000000000E+02 0.  0.
   -5000001    1    1    2    0    0  0.10458904659E+03 -0.13478010266E+02  0.25868781861E+03  0.28977389966E+03  0.77000000000E+02 0.  0.
<mgrwt>
<rscale>  0 0.26144755E+03</rscale>
<asrwt>0</asrwt>
<pdfrwt beam="1">  1        2 0.42379456E-02 0.26144755E+03</pdfrwt>
<pdfrwt beam="2">  1       -2 0.82292015E-01 0.26144755E+03</pdfrwt>
<totfact> 0.26120623E+03</totfact>
</mgrwt>
</event>
<event>
 4    1  0.1305170E-003  0.4056505E+03  0.7818608E-02  0.1041840E+00
         -2   -1    0    0    0  501 -0.00000000000E+00  0.00000000000E+00  0.32161178628E+02  0.32161178729E+02  0.25500000000E-02 0. -1.
          2   -1    0    0  501    0  0.00000000000E+00 -0.00000000000E+00 -0.12791222278E+04  0.12791222278E+04  0.25500000000E-02 0.  1.
    5000001    1    1    2    0    0 -0.12882942404E+03  0.13564317502E+03 -0.57630451402E+03  0.61077981655E+03  0.77000000000E+02 0.  0.
   -5000001    1    1    2    0    0  0.12882942404E+03 -0.13564317502E+03 -0.67065653516E+03  0.70050358998E+03  0.77000000000E+02 0.  0.
<mgrwt>
<rscale>  0 0.40565048E+03</rscale>
<asrwt>0</asrwt>
<pdfrwt beam="1">  1        2 0.18273171E+00 0.40565048E+03</pdfrwt>
<pdfrwt beam="2">  1       -2 0.45944549E-02 0.40565048E+03</pdfrwt>
<totfact> 0.45455296E+03</totfact>
</mgrwt>
</event>
<event>
 4    1  0.1305170E-003  0.5384567E+03  0.7818608E-02  0.1004202E+00
          2   -1    0    0  501    0  0.00000000000E+00  0.00000000000E+00  0.79424720904E+03  0.79424720904E+03  0.25500000000E-02 0. -1.
         -2   -1    0    0    0  501 -0.00000000000E+00 -0.00000000000E+00 -0.91261151908E+02  0.91261151944E+02  0.25500000000E-02 0.  1.
    5000001    1    1    2    0    0 -0.16857368948E+01  0.23825718805E+03  0.51417344082E+03  0.57190266358E+03  0.77000000000E+02 0.  0.
   -5000001    1    1    2    0    0  0.16857368948E+01 -0.23825718805E+03  0.18881261631E+03  0.31360569740E+03  0.77000000000E+02 0.  0.
<mgrwt>
<rscale>  0 0.53845674E+03</rscale>
<asrwt>0</asrwt>
<pdfrwt beam="1">  1        2 0.11346389E+00 0.53845674E+03</pdfrwt>
<pdfrwt beam="2">  1       -2 0.13037307E-01 0.53845674E+03</pdfrwt>
<totfact> 0.17021544E+03</totfact>
</mgrwt>
</event>
<event>
 4    1  0.1305170E-003  0.2875562E+03  0.7818608E-02  0.1091632E+00
         -2   -1    0    0    0  501 -0.00000000000E+00  0.00000000000E+00  0.63788519908E+02  0.63788519959E+02  0.25500000000E-02 0. -1.
          2   -1    0    0  501    0  0.00000000000E+00 -0.00000000000E+00 -0.32407310304E+03  0.32407310305E+03  0.25500000000E-02 0.  1.
    5000001    1    1    2    0    0  0.71576193686E+02  0.98067315003E+02 -0.12788777479E+03  0.19241785966E+03  0.77000000000E+02 0.  0.
   -5000001    1    1    2    0    0 -0.71576193686E+02 -0.98067315003E+02 -0.13239680834E+03  0.19544376335E+03  0.77000000000E+02 0.  0.
<mgrwt>
<rscale>  0 0.28755621E+03</rscale>
<asrwt>0</asrwt>
<pdfrwt beam="1">  1        2 0.46296157E-01 0.28755621E+03</pdfrwt>
<pdfrwt beam="2">  1       -2 0.91126459E-02 0.28755621E+03</pdfrwt>
<totfact> 0.83417634E+03</totfact>
</mgrwt>
</event>
<event>
 4    1  0.1305170E-003  0.2857434E+03  0.7818608E-02  0.1092593E+00
         -2   -1    0    0    0  501 -0.00000000000E+00  0.00000000000E+00  0.13737137086E+02  0.13737137322E+02  0.25500000000E-02 0. -1.
          2   -1    0    0  501    0  0.00000000000E+00 -0.00000000000E+00 -0.14859227319E+04  0.14859227319E+04  0.25500000000E-02 0.  1.
    5000001    1    1    2    0    0 -0.44101324834E+02  0.99506770276E+02 -0.10055905573E+04  0.10143904047E+04  0.77000000000E+02 0.  0.
   -5000001    1    1    2    0    0  0.44101324834E+02 -0.99506770276E+02 -0.46659503751E+03  0.48526946454E+03  0.77000000000E+02 0.  0.
<mgrwt>
<rscale>  0 0.28574341E+03</rscale>
<asrwt>0</asrwt>
<pdfrwt beam="1">  1        2 0.21227458E+00 0.28574341E+03</pdfrwt>
<pdfrwt beam="2">  1       -2 0.19624491E-02 0.28574341E+03</pdfrwt>
<totfact> 0.12616644E+04</totfact>
</mgrwt>
</event>
<event>
 4    1  0.1305170E-003  0.2136501E+03  0.7818608E-02  0.1138708E+00
         -2   -1    0    0    0  501 -0.00000000000E+00  0.00000000000E+00  0.91290506546E+01  0.91290510107E+01  0.25500000000E-02 0. -1.
          2   -1    0    0  501    0  0.00000000000E+00 -0.00000000000E+00 -0.12500302173E+04  0.12500302173E+04  0.25500000000E-02 0.  1.
    5000001    1    1    2    0    0 -0.34437888174E+02 -0.65375494519E+02 -0.64850910579E+03  0.65723130154E+03  0.77000000000E+02 0.  0.
   -5000001    1    1    2    0    0  0.34437888174E+02  0.65375494519E+02 -0.59239206090E+03  0.60192796682E+03  0.77000000000E+02 0.  0.
<mgrwt>
<rscale>  0 0.21365008E+03</rscale>
<asrwt>0</asrwt>
<pdfrwt beam="1">  1        2 0.17857564E+00 0.21365008E+03</pdfrwt>
<pdfrwt beam="2">  1       -2 0.13041509E-02 0.21365008E+03</pdfrwt>
<totfact> 0.29971246E+04</totfact>
</mgrwt>
</event>
<event>
 4    1  0.1305170E-003  0.2282873E+03  0.7818608E-02  0.1127851E+00
          2   -1    0    0  501    0  0.00000000000E+00  0.00000000000E+00  0.35577142604E+03  0.35577142605E+03  0.25500000000E-02 0.  1.
         -2   -1    0    0    0  501 -0.00000000000E+00 -0.00000000000E+00 -0.36621188855E+02  0.36621188944E+02  0.25500000000E-02 0. -1.
    5000001    1    1    2    0    0 -0.42931202278E+01 -0.84040169686E+02  0.15216376636E+03  0.19016832753E+03  0.77000000000E+02 0.  0.
   -5000001    1    1    2    0    0  0.42931202278E+01  0.84040169686E+02  0.16698647082E+03  0.20222428746E+03  0.77000000000E+02 0.  0.
<mgrwt>
<rscale>  0 0.22828730E+03</rscale>
<asrwt>0</asrwt>
<pdfrwt beam="1">  1        2 0.50824492E-01 0.22828730E+03</pdfrwt>
<pdfrwt beam="2">  1       -2 0.52315982E-02 0.22828730E+03</pdfrwt>
<totfact> 0.17594865E+04</totfact>
</mgrwt>
</event>
<event>
 4    1  0.1305170E-003  0.2241735E+03  0.7818608E-02  0.1130809E+00
          2   -1    0    0  501    0  0.00000000000E+00  0.00000000000E+00  0.18212489295E+03  0.18212489297E+03  0.25500000000E-02 0.  1.
         -2   -1    0    0    0  501 -0.00000000000E+00 -0.00000000000E+00 -0.68982540315E+02  0.68982540362E+02  0.25500000000E-02 0. -1.
    5000001    1    1    2    0    0  0.10277133681E+02  0.77293544880E+02  0.30193509978E+02  0.11366863948E+03  0.77000000000E+02 0.  0.
   -5000001    1    1    2    0    0 -0.10277133681E+02 -0.77293544880E+02  0.82948842662E+02  0.13743879385E+03  0.77000000000E+02 0.  0.
<mgrwt>
<rscale>  0 0.22417348E+03</rscale>
<asrwt>0</asrwt>
<pdfrwt beam="1">  1        2 0.26017842E-01 0.22417348E+03</pdfrwt>
<pdfrwt beam="2">  1       -2 0.98546486E-02 0.22417348E+03</pdfrwt>
<totfact> 0.13620804E+04</totfact>
</mgrwt>
</event>
<event>
 4    1  0.1305170E-003  0.1977448E+03  0.7818608E-02  0.1151656E+00
          2   -1    0    0  501    0  0.00000000000E+00  0.00000000000E+00  0.41861245794E+03  0.41861245794E+03  0.25500000000E-02 0.  1.
         -2   -1    0    0    0  501 -0.00000000000E+00 -0.00000000000E+00 -0.23352739932E+02  0.23352740071E+02  0.25500000000E-02 0. -1.
    5000001    1    1    2    0    0  0.46102787715E+02  0.30619745746E+02  0.13506055310E+03  0.16502541886E+03  0.77000000000E+02 0.  0.
   -5000001    1    1    2    0    0 -0.46102787715E+02 -0.30619745746E+02  0.26019916490E+03  0.27693977916E+03  0.77000000000E+02 0.  0.
<mgrwt>
<rscale>  0 0.19774476E+03</rscale>
<asrwt>0</asrwt>
<pdfrwt beam="1">  1        2 0.59801780E-01 0.19774476E+03</pdfrwt>
<pdfrwt beam="2">  1       -2 0.33361057E-02 0.19774476E+03</pdfrwt>
<totfact> 0.28726648E+04</totfact>
</mgrwt>
</event>
<event>
 4    1  0.1305170E-003  0.4317764E+03  0.7818608E-02  0.1033300E+00
          2   -1    0    0  501    0  0.00000000000E+00  0.00000000000E+00  0.41656316476E+04  0.41656316476E+04  0.25500000000E-02 0.  1.
         -2   -1    0    0    0  501 -0.00000000000E+00 -0.00000000000E+00 -0.11188632132E+02  0.11188632423E+02  0.25500000000E-02 0. -1.
    5000001    1    1    2    0    0  0.11717424103E+03 -0.42564901421E+02  0.36109371758E+04  0.36139089448E+04  0.77000000000E+02 0.  0.
   -5000001    1    1    2    0    0 -0.11717424103E+03  0.42564901421E+02  0.54350583971E+03  0.56291133528E+03  0.77000000000E+02 0.  0.
<mgrwt>
<rscale>  0 0.43177643E+03</rscale>
<asrwt>0</asrwt>
<pdfrwt beam="1">  1        2 0.59509218E+00 0.43177643E+03</pdfrwt>
<pdfrwt beam="2">  1       -2 0.15983708E-02 0.43177643E+03</pdfrwt>
<totfact> 0.58356495E+02</totfact>
</mgrwt>
</event>
<event>
 4    1  0.1305170E-003  0.4993648E+03  0.7818608E-02  0.1013945E+00
          2   -1    0    0  501    0  0.00000000000E+00  0.00000000000E+00  0.12273117078E+03  0.12273117081E+03  0.25500000000E-02 0.  1.
         -2   -1    0    0    0  501 -0.00000000000E+00 -0.00000000000E+00 -0.50794997165E+03  0.50794997166E+03  0.25500000000E-02 0. -1.
    5000001    1    1    2    0    0  0.20119218237E+03 -0.11845563287E+03 -0.24769363022E+03  0.34898591040E+03  0.77000000000E+02 0.  0.
   -5000001    1    1    2    0    0 -0.20119218237E+03  0.11845563287E+03 -0.13752517065E+03  0.28169523206E+03  0.77000000000E+02 0.  0.
<mgrwt>
<rscale>  0 0.49936478E+03</rscale>
<asrwt>0</asrwt>
<pdfrwt beam="1">  1        2 0.17533025E-01 0.49936478E+03</pdfrwt>
<pdfrwt beam="2">  1       -2 0.72564281E-01 0.49936478E+03</pdfrwt>
<totfact> 0.57495927E+02</totfact>
</mgrwt>
</event>
<event>
 4    1  0.1305170E-003  0.2273593E+03  0.7818608E-02  0.1128512E+00
          2   -1    0    0  501    0  0.00000000000E+00  0.00000000000E+00  0.65525704221E+03  0.65525704221E+03  0.25500000000E-02 0.  1.
         -2   -1    0    0    0  501 -0.00000000000E+00 -0.00000000000E+00 -0.19722128704E+02  0.19722128869E+02  0.25500000000E-02 0. -1.
    5000001    1    1    2    0    0 -0.23815376682E+01  0.72648641468E+02  0.19498179078E+03  0.22187923644E+03  0.77000000000E+02 0.  0.
   -5000001    1    1    2    0    0  0.23815376682E+01 -0.72648641468E+02  0.44055312272E+03  0.45309993464E+03  0.77000000000E+02 0.  0.
<mgrwt>
<rscale>  0 0.22735931E+03</rscale>
<asrwt>0</asrwt>
<pdfrwt beam="1">  1        2 0.93608127E-01 0.22735931E+03</pdfrwt>
<pdfrwt beam="2">  1       -2 0.28174476E-02 0.22735931E+03</pdfrwt>
<totfact> 0.22664581E+04</totfact>
</mgrwt>
</event>
<event>
 4    1  0.1305170E-003  0.2954903E+03  0.7818608E-02  0.1087517E+00
          2   -1    0    0  501    0  0.00000000000E+00  0.00000000000E+00  0.19281342003E+03  0.19281342005E+03  0.25500000000E-02 0.  1.
         -2   -1    0    0    0  501 -0.00000000000E+00 -0.00000000000E+00 -0.11321116096E+03  0.11321116099E+03  0.25500000000E-02 0. -1.
    5000001    1    1    2    0    0  0.18545812810E+02  0.11746202595E+03 -0.36265397130E+01  0.14171600652E+03  0.77000000000E+02 0.  0.
   -5000001    1    1    2    0    0 -0.18545812810E+02 -0.11746202595E+03  0.83228798786E+02  0.16430857452E+03  0.77000000000E+02 0.  0.
<mgrwt>
<rscale>  0 0.29549031E+03</rscale>
<asrwt>0</asrwt>
<pdfrwt beam="1">  1        2 0.27544774E-01 0.29549031E+03</pdfrwt>
<pdfrwt beam="2">  1       -2 0.16173023E-01 0.29549031E+03</pdfrwt>
<totfact> 0.57983970E+03</totfact>
</mgrwt>
</event>
<event>
 4    1  0.1305170E-003  0.4002526E+03  0.7818608E-02  0.1043692E+00
         -2   -1    0    0    0  501 -0.00000000000E+00  0.00000000000E+00  0.86341663244E+02  0.86341663281E+02  0.25500000000E-02 0. -1.
          2   -1    0    0  501    0  0.00000000000E+00 -0.00000000000E+00 -0.46386096718E+03  0.46386096719E+03  0.25500000000E-02 0.  1.
    5000001    1    1    2    0    0 -0.77466043940E+02  0.16269158409E+03 -0.24463136442E+03  0.31343746418E+03  0.77000000000E+02 0.  0.
   -5000001    1    1    2    0    0  0.77466043940E+02 -0.16269158409E+03 -0.13288793952E+03  0.23676516629E+03  0.77000000000E+02 0.  0.
<mgrwt>
<rscale>  0 0.40025256E+03</rscale>
<asrwt>0</asrwt>
<pdfrwt beam="1">  1        2 0.66265851E-01 0.40025256E+03</pdfrwt>
<pdfrwt beam="2">  1       -2 0.12334524E-01 0.40025256E+03</pdfrwt>
<totfact> 0.35017162E+03</totfact>
</mgrwt>
</event>
<event>
 4    1  0.1305170E-003  0.1675869E+03  0.7818608E-02  0.1180388E+00
         -2   -1    0    0    0  501 -0.00000000000E+00  0.00000000000E+00  0.45528600684E+01  0.45528607825E+01  0.25500000000E-02 0. -1.
          2   -1    0    0  501    0  0.00000000000E+00 -0.00000000000E+00 -0.15421818584E+04  0.15421818584E+04  0.25500000000E-02 0.  1.
    5000001    1    1    2    0    0 -0.29904643967E+02 -0.42100458326E+01 -0.89275284590E+03  0.89657607378E+03  0.77000000000E+02 0.  0.
   -5000001    1    1    2    0    0  0.29904643967E+02  0.42100458326E+01 -0.64487615248E+03  0.65015864545E+03  0.77000000000E+02 0.  0.
<mgrwt>
<rscale>  0 0.16758686E+03</rscale>
<asrwt>0</asrwt>
<pdfrwt beam="1">  1        2 0.22031136E+00 0.16758686E+03</pdfrwt>
<pdfrwt beam="2">  1       -2 0.65040962E-03 0.16758686E+03</pdfrwt>
<totfact> 0.56919152E+04</totfact>
</mgrwt>
</event>
<event>
 4    1  0.1305170E-003  0.3437226E+03  0.7818608E-02  0.1065221E+00
          2   -1    0    0  501    0  0.00000000000E+00  0.00000000000E+00  0.53763641977E+02  0.53763642038E+02  0.25500000000E-02 0.  1.
         -2   -1    0    0    0  501 -0.00000000000E+00 -0.00000000000E+00 -0.54937336168E+03  0.54937336169E+03  0.25500000000E-02 0. -1.
    5000001    1    1    2    0    0 -0.16248321240E+02 -0.14521572120E+03 -0.33114388666E+03  0.37004984435E+03  0.77000000000E+02 0.  0.
   -5000001    1    1    2    0    0  0.16248321240E+02  0.14521572120E+03 -0.16446583304E+03  0.23308715937E+03  0.77000000000E+02 0.  0.
<mgrwt>
<rscale>  0 0.34372264E+03</rscale>
<asrwt>0</asrwt>
<pdfrwt beam="1">  1        2 0.76805206E-02 0.34372264E+03</pdfrwt>
<pdfrwt beam="2">  1       -2 0.78481905E-01 0.34372264E+03</pdfrwt>
<totfact> 0.13393426E+03</totfact>
</mgrwt>
</event>
<event>
 4    1  0.1305170E-003  0.3071345E+03  0.7818608E-02  0.1081728E+00
         -2   -1    0    0    0  501 -0.00000000000E+00  0.00000000000E+00  0.28394171850E+02  0.28394171965E+02  0.25500000000E-02 0.  1.
          2   -1    0    0  501    0  0.00000000000E+00 -0.00000000000E+00 -0.83055422828E+03  0.83055422828E+03  0.25500000000E-02 0. -1.
    5000001    1    1    2    0    0  0.48282461991E+01 -0.13264874266E+03 -0.38455878281E+03  0.41404523705E+03  0.77000000000E+02 0.  0.
   -5000001    1    1    2    0    0 -0.48282461991E+01  0.13264874266E+03 -0.41760127362E+03  0.44490316319E+03  0.77000000000E+02 0.  0.
<mgrwt>
<rscale>  0 0.30713450E+03</rscale>
<asrwt>0</asrwt>
<pdfrwt beam="1">  1        2 0.11865059E+00 0.30713450E+03</pdfrwt>
<pdfrwt beam="2">  1       -2 0.40563108E-02 0.30713450E+03</pdfrwt>
<totfact> 0.10016864E+04</totfact>
</mgrwt>
</event>
<event>
 4    1  0.1305170E-003  0.2256143E+03  0.7818608E-02  0.1129765E+00
          2   -1    0    0  501    0  0.00000000000E+00  0.00000000000E+00  0.30488659104E+04  0.30488659104E+04  0.25500000000E-02 0.  1.
         -2   -1    0    0    0  501 -0.00000000000E+00 -0.00000000000E+00 -0.41738315607E+01  0.41738323396E+01  0.25500000000E-02 0. -1.
    5000001    1    1    2    0    0  0.24527697486E+02  0.47780270020E+02  0.67597803449E+03  0.68246601766E+03  0.77000000000E+02 0.  0.
   -5000001    1    1    2    0    0 -0.24527697486E+02 -0.47780270020E+02  0.23687140443E+04  0.23705737251E+04  0.77000000000E+02 0.  0.
<mgrwt>
<rscale>  0 0.22561431E+03</rscale>
<asrwt>0</asrwt>
<pdfrwt beam="1">  1        2 0.43555464E+00 0.22561431E+03</pdfrwt>
<pdfrwt beam="2">  1       -2 0.59625847E-03 0.22561431E+03</pdfrwt>
<totfact> 0.11770745E+04</totfact>
</mgrwt>
</event>
<event>
 4    1  0.1305170E-003  0.2816095E+03  0.7818608E-02  0.1094813E+00
          2   -1    0    0  501    0  0.00000000000E+00  0.00000000000E+00  0.93390232928E+03  0.93390232928E+03  0.25500000000E-02 0.  1.
         -2   -1    0    0    0  501 -0.00000000000E+00 -0.00000000000E+00 -0.21229172519E+02  0.21229172672E+02  0.25500000000E-02 0. -1.
    5000001    1    1    2    0    0 -0.40460339168E+02 -0.50986460313E+02  0.78969510402E+03  0.79610553038E+03  0.77000000000E+02 0.  0.
   -5000001    1    1    2    0    0  0.40460339168E+02  0.50986460313E+02  0.12297805274E+03  0.15902597158E+03  0.77000000000E+02 0.  0.
<mgrwt>
<rscale>  0 0.28160947E+03</rscale>
<asrwt>0</asrwt>
<pdfrwt beam="1">  1        2 0.13341464E+00 0.28160947E+03</pdfrwt>
<pdfrwt beam="2">  1       -2 0.30327384E-02 0.28160947E+03</pdfrwt>
<totfact> 0.13279795E+04</totfact>
</mgrwt>
</event>
<event>
 4    1  0.1305170E-003  0.3173841E+03  0.7818608E-02  0.1076860E+00
         -2   -1    0    0    0  501 -0.00000000000E+00  0.00000000000E+00  0.11552771074E+02  0.11552771356E+02  0.25500000000E-02 0. -1.
          2   -1    0    0  501    0  0.00000000000E+00 -0.00000000000E+00 -0.21798375331E+04  0.21798375331E+04  0.25500000000E-02 0.  1.
    5000001    1    1    2    0    0 -0.12573606194E+03 -0.58548675409E+02 -0.10559606650E+04  0.10678105781E+04  0.77000000000E+02 0.  0.
   -5000001    1    1    2    0    0  0.12573606194E+03  0.58548675409E+02 -0.11123240970E+04  0.11235797263E+04  0.77000000000E+02 0.  0.
<mgrwt>
<rscale>  0 0.31738408E+03</rscale>
<asrwt>0</asrwt>
<pdfrwt beam="1">  1        2 0.31140510E+00 0.31738408E+03</pdfrwt>
<pdfrwt beam="2">  1       -2 0.16503973E-02 0.31738408E+03</pdfrwt>
<totfact> 0.74085639E+03</totfact>
</mgrwt>
</event>
<event>
 4    1  0.1305170E-003  0.2153414E+03  0.7818608E-02  0.1137405E+00
          2   -1    0    0  501    0  0.00000000000E+00  0.00000000000E+00  0.11511306036E+04  0.11511306036E+04  0.25500000000E-02 0.  1.
         -2   -1    0    0    0  501 -0.00000000000E+00 -0.00000000000E+00 -0.10070954369E+02  0.10070954692E+02  0.25500000000E-02 0. -1.
    5000001    1    1    2    0    0  0.34307015064E+02 -0.57480579797E+02  0.75599892590E+03  0.76285278023E+03  0.77000000000E+02 0.  0.
   -5000001    1    1    2    0    0 -0.34307015064E+02  0.57480579797E+02  0.38506072333E+03  0.39834877807E+03  0.77000000000E+02 0.  0.
<mgrwt>
<rscale>  0 0.21534144E+03</rscale>
<asrwt>0</asrwt>
<pdfrwt beam="1">  1        2 0.16444727E+00 0.21534144E+03</pdfrwt>
<pdfrwt beam="2">  1       -2 0.14387074E-02 0.21534144E+03</pdfrwt>
<totfact> 0.29391389E+04</totfact>
</mgrwt>
</event>
<event>
 4    1  0.1305170E-003  0.4668163E+03  0.7818608E-02  0.1022823E+00
          2   -1    0    0  501    0  0.00000000000E+00  0.00000000000E+00  0.19144312793E+03  0.19144312795E+03  0.25500000000E-02 0.  1.
         -2   -1    0    0    0  501 -0.00000000000E+00 -0.00000000000E+00 -0.28457202116E+03  0.28457202117E+03  0.25500000000E-02 0. -1.
    5000001    1    1    2    0    0 -0.14352499760E+03 -0.43320039679E+02  0.11809292428E+03  0.20579356049E+03  0.77000000000E+02 0.  0.
   -5000001    1    1    2    0    0  0.14352499760E+03  0.43320039679E+02 -0.21122181751E+03  0.27022158864E+03  0.77000000000E+02 0.  0.
<mgrwt>
<rscale>  0 0.46681627E+03</rscale>
<asrwt>0</asrwt>
<pdfrwt beam="1">  1        2 0.27349018E-01 0.46681627E+03</pdfrwt>
<pdfrwt beam="2">  1       -2 0.40653146E-01 0.46681627E+03</pdfrwt>
<totfact> 0.11321635E+03</totfact>
</mgrwt>
</event>
<event>
 4    1  0.1305170E-003  0.4232339E+03  0.7818608E-02  0.1036019E+00
          2   -1    0    0  501    0  0.00000000000E+00  0.00000000000E+00  0.65502782800E+03  0.65502782800E+03  0.25500000000E-02 0.  1.
         -2   -1    0    0    0  501 -0.00000000000E+00 -0.00000000000E+00 -0.68366166376E+02  0.68366166424E+02  0.25500000000E-02 0. -1.
    5000001    1    1    2    0    0 -0.50330706509E+02 -0.18959042443E+03  0.26023076708E+03  0.33485334280E+03  0.77000000000E+02 0.  0.
   -5000001    1    1    2    0    0  0.50330706509E+02  0.18959042443E+03  0.32643089454E+03  0.38854065162E+03  0.77000000000E+02 0.  0.
<mgrwt>
<rscale>  0 0.42323394E+03</rscale>
<asrwt>0</asrwt>
<pdfrwt beam="1">  1        2 0.93575402E-01 0.42323394E+03</pdfrwt>
<pdfrwt beam="2">  1       -2 0.97665954E-02 0.42323394E+03</pdfrwt>
<totfact> 0.34464394E+03</totfact>
</mgrwt>
</event>
<event>
 4    1  0.1305170E-003  0.2700533E+03  0.7818608E-02  0.1101249E+00
         -2   -1    0    0    0  501 -0.00000000000E+00  0.00000000000E+00  0.10306922242E+03  0.10306922245E+03  0.25500000000E-02 0. -1.
          2   -1    0    0  501    0  0.00000000000E+00 -0.00000000000E+00 -0.17689271707E+03  0.17689271709E+03  0.25500000000E-02 0.  1.
    5000001    1    1    2    0    0  0.38577413046E+02  0.79954585275E+02  0.32028174880E+02  0.12180212022E+03  0.77000000000E+02 0.  0.
   -5000001    1    1    2    0    0 -0.38577413046E+02 -0.79954585275E+02 -0.10585166954E+03  0.15815981932E+03  0.77000000000E+02 0.  0.
<mgrwt>
<rscale>  0 0.27005329E+03</rscale>
<asrwt>0</asrwt>
<pdfrwt beam="1">  1        2 0.25270388E-01 0.27005329E+03</pdfrwt>
<pdfrwt beam="2">  1       -2 0.14724175E-01 0.27005329E+03</pdfrwt>
<totfact> 0.74312817E+03</totfact>
</mgrwt>
</event>
<event>
 4    1  0.1305170E-003  0.2584572E+03  0.7818608E-02  0.1108074E+00
         -2   -1    0    0    0  501 -0.00000000000E+00  0.00000000000E+00  0.11999918818E+03  0.11999918820E+03  0.25500000000E-02 0.  1.
          2   -1    0    0  501    0  0.00000000000E+00 -0.00000000000E+00 -0.13916782781E+03  0.13916782783E+03  0.25500000000E-02 0. -1.
    5000001    1    1    2    0    0 -0.28998944002E+02 -0.79782983391E+02 -0.69453938979E+02  0.13401161454E+03  0.77000000000E+02 0.  0.
   -5000001    1    1    2    0    0  0.28998944002E+02  0.79782983391E+02  0.50285299351E+02  0.12515540149E+03  0.77000000000E+02 0.  0.
<mgrwt>
<rscale>  0 0.25845716E+03</rscale>
<asrwt>0</asrwt>
<pdfrwt beam="1">  1        2 0.19881118E-01 0.25845716E+03</pdfrwt>
<pdfrwt beam="2">  1       -2 0.17142741E-01 0.25845716E+03</pdfrwt>
<totfact> 0.75538739E+03</totfact>
</mgrwt>
</event>
<event>
 4    1  0.1305170E-003  0.2187896E+03  0.7818608E-02  0.1134789E+00
         -2   -1    0    0    0  501 -0.00000000000E+00  0.00000000000E+00  0.68186605252E+01  0.68186610020E+01  0.25500000000E-02 0. -1.
          2   -1    0    0  501    0  0.00000000000E+00 -0.00000000000E+00 -0.17550695317E+04  0.17550695317E+04  0.25500000000E-02 0.  1.
    5000001    1    1    2    0    0 -0.40881250322E+02  0.19826235658E+02 -0.13817683579E+04  0.13846577740E+04  0.77000000000E+02 0.  0.
   -5000001    1    1    2    0    0  0.40881250322E+02 -0.19826235658E+02 -0.36648251331E+03  0.37723041872E+03  0.77000000000E+02 0.  0.
<mgrwt>
<rscale>  0 0.21878961E+03</rscale>
<asrwt>0</asrwt>
<pdfrwt beam="1">  1        2 0.25072393E+00 0.21878961E+03</pdfrwt>
<pdfrwt beam="2">  1       -2 0.97409552E-03 0.21878961E+03</pdfrwt>
<totfact> 0.25503997E+04</totfact>
</mgrwt>
</event>
<event>
 4    1  0.1305170E-003  0.2776623E+03  0.7818608E-02  0.1096973E+00
          2   -1    0    0  501    0  0.00000000000E+00  0.00000000000E+00  0.33042907084E+03  0.33042907085E+03  0.25500000000E-02 0.  1.
         -2   -1    0    0    0  501 -0.00000000000E+00 -0.00000000000E+00 -0.58330480108E+02  0.58330480164E+02  0.25500000000E-02 0. -1.
    5000001    1    1    2    0    0 -0.10045262579E+02  0.98349938861E+02  0.52375861371E+02  0.13581549480E+03  0.77000000000E+02 0.  0.
   -5000001    1    1    2    0    0  0.10045262579E+02 -0.98349938861E+02  0.21972272936E+03  0.25294405621E+03  0.77000000000E+02 0.  0.
<mgrwt>
<rscale>  0 0.27766229E+03</rscale>
<asrwt>0</asrwt>
<pdfrwt beam="1">  1        2 0.47204152E-01 0.27766229E+03</pdfrwt>
<pdfrwt beam="2">  1       -2 0.83329259E-02 0.27766229E+03</pdfrwt>
<totfact> 0.93903695E+03</totfact>
</mgrwt>
</event>
<event>
 4    1  0.1305170E-003  0.2800733E+03  0.7818608E-02  0.1095649E+00
          2   -1    0    0  501    0  0.00000000000E+00  0.00000000000E+00  0.25088986119E+03  0.25088986120E+03  0.25500000000E-02 0.  1.
         -2   -1    0    0    0  501 -0.00000000000E+00 -0.00000000000E+00 -0.78162841498E+02  0.78162841540E+02  0.25500000000E-02 0. -1.
    5000001    1    1    2    0    0  0.98316572416E+02  0.61500955221E+02  0.10428760499E+03  0.17393510416E+03  0.77000000000E+02 0.  0.
   -5000001    1    1    2    0    0 -0.98316572416E+02 -0.61500955221E+02  0.68439414697E+02  0.15511759858E+03  0.77000000000E+02 0.  0.
<mgrwt>
<rscale>  0 0.28007331E+03</rscale>
<asrwt>0</asrwt>
<pdfrwt beam="1">  1        2 0.35841409E-01 0.28007331E+03</pdfrwt>
<pdfrwt beam="2">  1       -2 0.11166120E-01 0.28007331E+03</pdfrwt>
<totfact> 0.79490594E+03</totfact>
</mgrwt>
</event>
<event>
 4    1  0.1305170E-003  0.2431641E+03  0.7818608E-02  0.1117703E+00
         -2   -1    0    0    0  501 -0.00000000000E+00  0.00000000000E+00  0.99799539803E+02  0.99799539836E+02  0.25500000000E-02 0. -1.
          2   -1    0    0  501    0  0.00000000000E+00 -0.00000000000E+00 -0.14811889798E+03  0.14811889800E+03  0.25500000000E-02 0.  1.
    5000001    1    1    2    0    0 -0.12692976467E+02 -0.73003602155E+02  0.34961673985E+02  0.11243645417E+03  0.77000000000E+02 0.  0.
   -5000001    1    1    2    0    0  0.12692976467E+02  0.73003602155E+02 -0.83281032160E+02  0.13548198366E+03  0.77000000000E+02 0.  0.
<mgrwt>
<rscale>  0 0.24316412E+03</rscale>
<asrwt>0</asrwt>
<pdfrwt beam="1">  1        2 0.21159843E-01 0.24316412E+03</pdfrwt>
<pdfrwt beam="2">  1       -2 0.14257077E-01 0.24316412E+03</pdfrwt>
<totfact> 0.95218851E+03</totfact>
</mgrwt>
</event>
<event>
 4    1  0.1305170E-003  0.2489117E+03  0.7818608E-02  0.1113995E+00
          2   -1    0    0  501    0  0.00000000000E+00  0.00000000000E+00  0.49068867563E+03  0.49068867564E+03  0.25500000000E-02 0.  1.
         -2   -1    0    0    0  501 -0.00000000000E+00 -0.00000000000E+00 -0.31566359786E+02  0.31566359889E+02  0.25500000000E-02 0. -1.
    5000001    1    1    2    0    0 -0.25038103978E+02 -0.80952018187E+02  0.12719963372E+03  0.17113995067E+03  0.77000000000E+02 0.  0.
   -5000001    1    1    2    0    0  0.25038103978E+02  0.80952018187E+02  0.33192268213E+03  0.35111508485E+03  0.77000000000E+02 0.  0.
<mgrwt>
<rscale>  0 0.24891167E+03</rscale>
<asrwt>0</asrwt>
<pdfrwt beam="1">  1        2 0.70098381E-01 0.24891167E+03</pdfrwt>
<pdfrwt beam="2">  1       -2 0.45094801E-02 0.24891167E+03</pdfrwt>
<totfact> 0.15630197E+04</totfact>
</mgrwt>
</event>
<event>
 4    1  0.1305170E-003  0.3756583E+03  0.7818608E-02  0.1052550E+00
         -2   -1    0    0    0  501 -0.00000000000E+00  0.00000000000E+00  0.25733180829E+03  0.25733180830E+03  0.25500000000E-02 0. -1.
          2   -1    0    0  501    0  0.00000000000E+00 -0.00000000000E+00 -0.13709842126E+03  0.13709842128E+03  0.25500000000E-02 0.  1.
    5000001    1    1    2    0    0 -0.93738929061E+02  0.10832141502E+03  0.15878193840E+03  0.22729104631E+03  0.77000000000E+02 0.  0.
   -5000001    1    1    2    0    0  0.93738929061E+02 -0.10832141502E+03 -0.38548551367E+02  0.16713918328E+03  0.77000000000E+02 0.  0.
<mgrwt>
<rscale>  0 0.37565827E+03</rscale>
<asrwt>0</asrwt>
<pdfrwt beam="1">  1        2 0.19585489E-01 0.37565827E+03</pdfrwt>
<pdfrwt beam="2">  1       -2 0.36761686E-01 0.37565827E+03</pdfrwt>
<totfact> 0.20052987E+03</totfact>
</mgrwt>
</event>
<event>
 4    1  0.1305170E-003  0.1734742E+03  0.7818608E-02  0.1174272E+00
          2   -1    0    0  501    0  0.00000000000E+00  0.00000000000E+00  0.87008508162E+02  0.87008508199E+02  0.25500000000E-02 0.  1.
         -2   -1    0    0    0  501 -0.00000000000E+00 -0.00000000000E+00 -0.86466554483E+02  0.86466554521E+02  0.25500000000E-02 0. -1.
    5000001    1    1    2    0    0  0.38251844008E+02 -0.10761071172E+02 -0.36433359678E+01  0.86725302650E+02  0.77000000000E+02 0.  0.
   -5000001    1    1    2    0    0 -0.38251844008E+02  0.10761071172E+02  0.41852896467E+01  0.86749760070E+02  0.77000000000E+02 0.  0.
<mgrwt>
<rscale>  0 0.17347422E+03</rscale>
<asrwt>0</asrwt>
<pdfrwt beam="1">  1        2 0.12429787E-01 0.17347422E+03</pdfrwt>
<pdfrwt beam="2">  1       -2 0.12352365E-01 0.17347422E+03</pdfrwt>
<totfact> 0.21856657E+04</totfact>
</mgrwt>
</event>
<event>
 4    1  0.1305170E-003  0.4526837E+03  0.7818608E-02  0.1026925E+00
          2   -1    0    0  501    0  0.00000000000E+00  0.00000000000E+00  0.91727630887E+03  0.91727630887E+03  0.25500000000E-02 0.  1.
         -2   -1    0    0    0  501 -0.00000000000E+00 -0.00000000000E+00 -0.55850808846E+02  0.55850808904E+02  0.25500000000E-02 0. -1.
    5000001    1    1    2    0    0 -0.18416822972E+03  0.41182290023E+02  0.64229792343E+03  0.67386166258E+03  0.77000000000E+02 0.  0.
   -5000001    1    1    2    0    0  0.18416822972E+03 -0.41182290023E+02  0.21912757659E+03  0.29926545520E+03  0.77000000000E+02 0.  0.
<mgrwt>
<rscale>  0 0.45268366E+03</rscale>
<asrwt>0</asrwt>
<pdfrwt beam="1">  1        2 0.13103947E+00 0.45268366E+03</pdfrwt>
<pdfrwt beam="2">  1       -2 0.79786873E-02 0.45268366E+03</pdfrwt>
<totfact> 0.31216069E+03</totfact>
</mgrwt>
</event>
<event>
 4    1  0.1305170E-003  0.1837075E+03  0.7818608E-02  0.1164262E+00
         -2   -1    0    0    0  501 -0.00000000000E+00  0.00000000000E+00  0.10563251234E+02  0.10563251542E+02  0.25500000000E-02 0. -1.
          2   -1    0    0  501    0  0.00000000000E+00 -0.00000000000E+00 -0.79872332427E+03  0.79872332427E+03  0.25500000000E-02 0.  1.
    5000001    1    1    2    0    0  0.25978405319E+02  0.42464423454E+02 -0.36994701430E+03  0.38114026052E+03  0.77000000000E+02 0.  0.
   -5000001    1    1    2    0    0 -0.25978405319E+02 -0.42464423454E+02 -0.41821305874E+03  0.42814631529E+03  0.77000000000E+02 0.  0.
<mgrwt>
<rscale>  0 0.18370754E+03</rscale>
<asrwt>0</asrwt>
<pdfrwt beam="1">  1        2 0.11410329E+00 0.18370754E+03</pdfrwt>
<pdfrwt beam="2">  1       -2 0.15090364E-02 0.18370754E+03</pdfrwt>
<totfact> 0.43984067E+04</totfact>
</mgrwt>
</event>
<event>
 4    1  0.1305170E-003  0.2969831E+03  0.7818608E-02  0.1086759E+00
          2   -1    0    0  501    0  0.00000000000E+00  0.00000000000E+00  0.32051604107E+03  0.32051604108E+03  0.25500000000E-02 0.  1.
         -2   -1    0    0    0  501 -0.00000000000E+00 -0.00000000000E+00 -0.68794506089E+02  0.68794506136E+02  0.25500000000E-02 0. -1.
    5000001    1    1    2    0    0  0.11570011675E+03 -0.50000822944E+02  0.14591958869E+03  0.20762496400E+03  0.77000000000E+02 0.  0.
   -5000001    1    1    2    0    0 -0.11570011675E+03  0.50000822944E+02  0.10580194629E+03  0.18168558322E+03  0.77000000000E+02 0.  0.
<mgrwt>
<rscale>  0 0.29698312E+03</rscale>
<asrwt>0</asrwt>
<pdfrwt beam="1">  1        2 0.45788006E-01 0.29698312E+03</pdfrwt>
<pdfrwt beam="2">  1       -2 0.98277865E-02 0.29698312E+03</pdfrwt>
<totfact> 0.74978838E+03</totfact>
</mgrwt>
</event>
<event>
 4    1  0.1305170E-003  0.3116755E+03  0.7818608E-02  0.1079546E+00
         -2   -1    0    0    0  501 -0.00000000000E+00  0.00000000000E+00  0.52931479308E+02  0.52931479369E+02  0.25500000000E-02 0. -1.
          2   -1    0    0  501    0  0.00000000000E+00 -0.00000000000E+00 -0.45880829498E+03  0.45880829499E+03  0.25500000000E-02 0.  1.
    5000001    1    1    2    0    0  0.10157430324E+03 -0.89646099535E+02 -0.20560595031E+03  0.25798559852E+03  0.77000000000E+02 0.  0.
   -5000001    1    1    2    0    0 -0.10157430324E+03  0.89646099535E+02 -0.20027086536E+03  0.25375417584E+03  0.77000000000E+02 0.  0.
<mgrwt>
<rscale>  0 0.31167548E+03</rscale>
<asrwt>0</asrwt>
<pdfrwt beam="1">  1        2 0.65544040E-01 0.31167548E+03</pdfrwt>
<pdfrwt beam="2">  1       -2 0.75616402E-02 0.31167548E+03</pdfrwt>
<totfact> 0.76899833E+03</totfact>
</mgrwt>
</event>
<event>
 4    1  0.1305170E-003  0.4301046E+03  0.7818608E-02  0.1033827E+00
          2   -1    0    0  501    0  0.00000000000E+00  0.00000000000E+00  0.14198095331E+04  0.14198095331E+04  0.25500000000E-02 0.  1.
         -2   -1    0    0    0  501 -0.00000000000E+00 -0.00000000000E+00 -0.32573023712E+02  0.32573023812E+02  0.25500000000E-02 0. -1.
    5000001    1    1    2    0    0  0.96453332742E+02  0.13239866864E+03  0.10857625457E+04  0.11007460918E+04  0.77000000000E+02 0.  0.
   -5000001    1    1    2    0    0 -0.96453332742E+02 -0.13239866864E+03  0.30147396370E+03  0.35163646518E+03  0.77000000000E+02 0.  0.
<mgrwt>
<rscale>  0 0.43010459E+03</rscale>
<asrwt>0</asrwt>
<pdfrwt beam="1">  1        2 0.20282993E+00 0.43010459E+03</pdfrwt>
<pdfrwt beam="2">  1       -2 0.46532893E-02 0.43010459E+03</pdfrwt>
<totfact> 0.37555315E+03</totfact>
</mgrwt>
</event>
<event>
 4    1  0.1305170E-003  0.1841383E+03  0.7818608E-02  0.1163857E+00
         -2   -1    0    0    0  501 -0.00000000000E+00  0.00000000000E+00  0.89337172963E+02  0.89337172999E+02  0.25500000000E-02 0. -1.
          2   -1    0    0  501    0  0.00000000000E+00 -0.00000000000E+00 -0.94884626020E+02  0.94884626054E+02  0.25500000000E-02 0.  1.
    5000001    1    1    2    0    0 -0.14473094524E+02  0.29141825484E+02  0.35831444541E+02  0.90948385778E+02  0.77000000000E+02 0.  0.
   -5000001    1    1    2    0    0  0.14473094524E+02 -0.29141825484E+02 -0.41378897599E+02  0.93273413276E+02  0.77000000000E+02 0.  0.
<mgrwt>
<rscale>  0 0.18413826E+03</rscale>
<asrwt>0</asrwt>
<pdfrwt beam="1">  1        2 0.13554947E-01 0.18413826E+03</pdfrwt>
<pdfrwt beam="2">  1       -2 0.12762453E-01 0.18413826E+03</pdfrwt>
<totfact> 0.18789138E+04</totfact>
</mgrwt>
</event>
<event>
 4    1  0.1305170E-003  0.1808773E+03  0.7818608E-02  0.1166957E+00
         -2   -1    0    0    0  501 -0.00000000000E+00  0.00000000000E+00  0.32509070238E+01  0.32509080239E+01  0.25500000000E-02 0. -1.
          2   -1    0    0  501    0  0.00000000000E+00 -0.00000000000E+00 -0.25159598730E+04  0.25159598730E+04  0.25500000000E-02 0.  1.
    5000001    1    1    2    0    0  0.34676875667E+02  0.30409261359E+02 -0.14107853181E+04  0.14136376561E+04  0.77000000000E+02 0.  0.
   -5000001    1    1    2    0    0 -0.34676875667E+02 -0.30409261359E+02 -0.11019236479E+04  0.11055731250E+04  0.77000000000E+02 0.  0.
<mgrwt>
<rscale>  0 0.18087734E+03</rscale>
<asrwt>0</asrwt>
<pdfrwt beam="1">  1        2 0.35942159E+00 0.18087734E+03</pdfrwt>
<pdfrwt beam="2">  1       -2 0.46441697E-03 0.18087734E+03</pdfrwt>
<totfact> 0.31269537E+04</totfact>
</mgrwt>
</event>
<event>
 4    1  0.1305170E-003  0.5241466E+03  0.7818608E-02  0.1007662E+00
         -2   -1    0    0    0  501 -0.00000000000E+00  0.00000000000E+00  0.54950603755E+02  0.54950603814E+02  0.25500000000E-02 0. -1.
          2   -1    0    0  501    0  0.00000000000E+00 -0.00000000000E+00 -0.12498935542E+04  0.12498935542E+04  0.25500000000E-02 0.  1.
    5000001    1    1    2    0    0 -0.24937611476E+02 -0.24583983997E+03 -0.69994231576E+03  0.74626225737E+03  0.77000000000E+02 0.  0.
   -5000001    1    1    2    0    0  0.24937611476E+02  0.24583983997E+03 -0.49500063464E+03  0.55858190060E+03  0.77000000000E+02 0.  0.
<mgrwt>
<rscale>  0 0.52414657E+03</rscale>
<asrwt>0</asrwt>
<pdfrwt beam="1">  1        2 0.17855620E+00 0.52414657E+03</pdfrwt>
<pdfrwt beam="2">  1       -2 0.78500871E-02 0.52414657E+03</pdfrwt>
<totfact> 0.20472869E+03</totfact>
</mgrwt>
</event>
<event>
 4    1  0.1305170E-003  0.2266383E+03  0.7818608E-02  0.1129028E+00
          2   -1    0    0  501    0  0.00000000000E+00  0.00000000000E+00  0.18263649003E+04  0.18263649003E+04  0.25500000000E-02 0.  1.
         -2   -1    0    0    0  501 -0.00000000000E+00 -0.00000000000E+00 -0.70310326197E+01  0.70310330822E+01  0.25500000000E-02 0. -1.
    5000001    1    1    2    0    0 -0.31891566874E+02  0.69374558516E+02  0.64353142827E+03  0.65260370868E+03  0.77000000000E+02 0.  0.
   -5000001    1    1    2    0    0  0.31891566874E+02 -0.69374558516E+02  0.11758024394E+04  0.11807922247E+04  0.77000000000E+02 0.  0.
<mgrwt>
<rscale>  0 0.22663832E+03</rscale>
<asrwt>0</asrwt>
<pdfrwt beam="1">  1        2 0.26090931E+00 0.22663832E+03</pdfrwt>
<pdfrwt beam="2">  1       -2 0.10044331E-02 0.22663832E+03</pdfrwt>
<totfact> 0.22561092E+04</totfact>
</mgrwt>
</event>
<event>
 4    1  0.1305170E-003  0.1601600E+03  0.7818608E-02  0.1188516E+00
         -2   -1    0    0    0  501 -0.00000000000E+00  0.00000000000E+00  0.18235067969E+02  0.18235068148E+02  0.25500000000E-02 0. -1.
          2   -1    0    0  501    0  0.00000000000E+00 -0.00000000000E+00 -0.35167446621E+03  0.35167446622E+03  0.25500000000E-02 0.  1.
    5000001    1    1    2    0    0 -0.16715689688E+02 -0.13339110444E+02 -0.15483877772E+03  0.17424521007E+03  0.77000000000E+02 0.  0.
   -5000001    1    1    2    0    0  0.16715689688E+02  0.13339110444E+02 -0.17860062053E+03  0.19566432430E+03  0.77000000000E+02 0.  0.
<mgrwt>
<rscale>  0 0.16016002E+03</rscale>
<asrwt>0</asrwt>
<pdfrwt beam="1">  1        2 0.50239205E-01 0.16016002E+03</pdfrwt>
<pdfrwt beam="2">  1       -2 0.26050100E-02 0.16016002E+03</pdfrwt>
<totfact> 0.48908727E+04</totfact>
</mgrwt>
</event>
<event>
 4    1  0.1305170E-003  0.2822850E+03  0.7818608E-02  0.1094447E+00
          2   -1    0    0  501    0  0.00000000000E+00  0.00000000000E+00  0.23892852275E+04  0.23892852275E+04  0.25500000000E-02 0.  1.
         -2   -1    0    0    0  501 -0.00000000000E+00 -0.00000000000E+00 -0.83377243606E+01  0.83377247505E+01  0.25500000000E-02 0. -1.
    5000001    1    1    2    0    0  0.80646045383E+02  0.86023635671E+02  0.11106374714E+04  0.11195304566E+04  0.77000000000E+02 0.  0.
   -5000001    1    1    2    0    0 -0.80646045383E+02 -0.86023635671E+02  0.12703100318E+04  0.12780924956E+04  0.77000000000E+02 0.  0.
<mgrwt>
<rscale>  0 0.28228498E+03</rscale>
<asrwt>0</asrwt>
<pdfrwt beam="1">  1        2 0.34132657E+00 0.28228498E+03</pdfrwt>
<pdfrwt beam="2">  1       -2 0.11911031E-02 0.28228498E+03</pdfrwt>
<totfact> 0.94092179E+03</totfact>
</mgrwt>
</event>
<event>
 4    1  0.1305170E-003  0.2813976E+03  0.7818608E-02  0.1094928E+00
         -2   -1    0    0    0  501 -0.00000000000E+00  0.00000000000E+00  0.86209099751E+02  0.86209099789E+02  0.25500000000E-02 0. -1.
          2   -1    0    0  501    0  0.00000000000E+00 -0.00000000000E+00 -0.22962948312E+03  0.22962948313E+03  0.25500000000E-02 0.  1.
    5000001    1    1    2    0    0  0.65478677902E+02  0.91450434849E+02 -0.32562788560E+02  0.14014269333E+03  0.77000000000E+02 0.  0.
   -5000001    1    1    2    0    0 -0.65478677902E+02 -0.91450434849E+02 -0.11085759481E+03  0.17569588959E+03  0.77000000000E+02 0.  0.
<mgrwt>
<rscale>  0 0.28139759E+03</rscale>
<asrwt>0</asrwt>
<pdfrwt beam="1">  1        2 0.32804212E-01 0.28139759E+03</pdfrwt>
<pdfrwt beam="2">  1       -2 0.12315586E-01 0.28139759E+03</pdfrwt>
<totfact> 0.74753871E+03</totfact>
</mgrwt>
</event>
<event>
 4    1  0.1305170E-003  0.3069177E+03  0.7818608E-02  0.1081833E+00
         -2   -1    0    0    0  501 -0.00000000000E+00  0.00000000000E+00  0.31783094914E+03  0.31783094915E+03  0.25500000000E-02 0. -1.
          2   -1    0    0  501    0  0.00000000000E+00 -0.00000000000E+00 -0.74094800756E+02  0.74094800799E+02  0.25500000000E-02 0.  1.
    5000001    1    1    2    0    0  0.11398474820E+02 -0.12402548070E+03  0.63233219815E+02  0.15949822939E+03  0.77000000000E+02 0.  0.
   -5000001    1    1    2    0    0 -0.11398474820E+02  0.12402548070E+03  0.18050292857E+03  0.23242752056E+03  0.77000000000E+02 0.  0.
<mgrwt>
<rscale>  0 0.30691771E+03</rscale>
<asrwt>0</asrwt>
<pdfrwt beam="1">  1        2 0.10584971E-01 0.30691771E+03</pdfrwt>
<pdfrwt beam="2">  1       -2 0.45404422E-01 0.30691771E+03</pdfrwt>
<totfact> 0.27800280E+03</totfact>
</mgrwt>
</event>
<event>
 4    1  0.1305170E-003  0.2258993E+03  0.7818608E-02  0.1129560E+00
         -2   -1    0    0    0  501 -0.00000000000E+00  0.00000000000E+00  0.19335518496E+02  0.19335518664E+02  0.25500000000E-02 0. -1.
          2   -1    0    0  501    0  0.00000000000E+00 -0.00000000000E+00 -0.65980252369E+03  0.65980252369E+03  0.25500000000E-02 0.  1.
    5000001    1    1    2    0    0  0.10152602186E+02 -0.64941961708E+02 -0.16967172166E+03  0.19758043135E+03  0.77000000000E+02 0.  0.
   -5000001    1    1    2    0    0 -0.10152602186E+02  0.64941961708E+02 -0.47079528353E+03  0.48155761100E+03  0.77000000000E+02 0.  0.
<mgrwt>
<rscale>  0 0.22589930E+03</rscale>
<asrwt>0</asrwt>
<pdfrwt beam="1">  1        2 0.94257489E-01 0.22589930E+03</pdfrwt>
<pdfrwt beam="2">  1       -2 0.27622174E-02 0.22589930E+03</pdfrwt>
<totfact> 0.23142163E+04</totfact>
</mgrwt>
</event>
<event>
 4    1  0.1305170E-003  0.3019224E+03  0.7818608E-02  0.1084284E+00
          2   -1    0    0  501    0  0.00000000000E+00  0.00000000000E+00  0.15759479992E+03  0.15759479994E+03  0.25500000000E-02 0.  1.
         -2   -1    0    0    0  501 -0.00000000000E+00 -0.00000000000E+00 -0.14460685471E+03  0.14460685473E+03  0.25500000000E-02 0. -1.
    5000001    1    1    2    0    0 -0.29525847482E+02  0.11401461722E+03 -0.48229982132E+02  0.14874891524E+03  0.77000000000E+02 0.  0.
   -5000001    1    1    2    0    0  0.29525847482E+02 -0.11401461722E+03  0.61217927343E+02  0.15345273943E+03  0.77000000000E+02 0.  0.
<mgrwt>
<rscale>  0 0.30192243E+03</rscale>
<asrwt>0</asrwt>
<pdfrwt beam="1">  1        2 0.22513543E-01 0.30192243E+03</pdfrwt>
<pdfrwt beam="2">  1       -2 0.20658122E-01 0.30192243E+03</pdfrwt>
<totfact> 0.48049827E+03</totfact>
</mgrwt>
</event>
<event>
 4    1  0.1305170E-003  0.2006866E+03  0.7818608E-02  0.1149161E+00
         -2   -1    0    0    0  501 -0.00000000000E+00  0.00000000000E+00  0.58296512178E+01  0.58296517755E+01  0.25500000000E-02 0. -1.
          2   -1    0    0  501    0  0.00000000000E+00 -0.00000000000E+00 -0.17271660450E+04  0.17271660450E+04  0.25500000000E-02 0.  1.
    5000001    1    1    2    0    0 -0.84831166365E+01  0.31152960202E+02 -0.38008210516E+03  0.38914505889E+03  0.77000000000E+02 0.  0.
   -5000001    1    1    2    0    0  0.84831166365E+01 -0.31152960202E+02 -0.13412542886E+04  0.13438506379E+04  0.77000000000E+02 0.  0.
<mgrwt>
<rscale>  0 0.20068658E+03</rscale>
<asrwt>0</asrwt>
<pdfrwt beam="1">  1        2 0.24673768E+00 0.20068658E+03</pdfrwt>
<pdfrwt beam="2">  1       -2 0.83280846E-03 0.20068658E+03</pdfrwt>
<totfact> 0.32834031E+04</totfact>
</mgrwt>
</event>
<event>
 4    1  0.1305170E-003  0.1984473E+03  0.7818608E-02  0.1151056E+00
          2   -1    0    0  501    0  0.00000000000E+00  0.00000000000E+00  0.81429685012E+03  0.81429685012E+03  0.25500000000E-02 0.  1.
         -2   -1    0    0    0  501 -0.00000000000E+00 -0.00000000000E+00 -0.12090594795E+02  0.12090595064E+02  0.25500000000E-02 0. -1.
    5000001    1    1    2    0    0 -0.39241243842E+02 -0.82858597043E+01  0.20105345799E+03  0.21899777090E+03  0.77000000000E+02 0.  0.
   -5000001    1    1    2    0    0  0.39241243842E+02  0.82858597043E+01  0.60115279733E+03  0.60738967429E+03  0.77000000000E+02 0.  0.
<mgrwt>
<rscale>  0 0.19844731E+03</rscale>
<asrwt>0</asrwt>
<pdfrwt beam="1">  1        2 0.11632812E+00 0.19844731E+03</pdfrwt>
<pdfrwt beam="2">  1       -2 0.17272279E-02 0.19844731E+03</pdfrwt>
<totfact> 0.35519222E+04</totfact>
</mgrwt>
</event>
<event>
 4    1  0.1305170E-003  0.2906927E+03  0.7818608E-02  0.1089988E+00
         -2   -1    0    0    0  501 -0.00000000000E+00  0.00000000000E+00  0.17838166805E+03  0.17838166806E+03  0.25500000000E-02 0. -1.
          2   -1    0    0  501    0  0.00000000000E+00 -0.00000000000E+00 -0.11842902376E+03  0.11842902379E+03  0.25500000000E-02 0.  1.
    5000001    1    1    2    0    0  0.86768604965E+01 -0.12262523571E+03  0.39352754449E+02  0.15029928683E+03  0.77000000000E+02 0.  0.
   -5000001    1    1    2    0    0 -0.86768604965E+01  0.12262523571E+03  0.20599889833E+02  0.14651140502E+03  0.77000000000E+02 0.  0.
<mgrwt>
<rscale>  0 0.29069274E+03</rscale>
<asrwt>0</asrwt>
<pdfrwt beam="1">  1        2 0.16918432E-01 0.29069274E+03</pdfrwt>
<pdfrwt beam="2">  1       -2 0.25483095E-01 0.29069274E+03</pdfrwt>
<totfact> 0.46223368E+03</totfact>
</mgrwt>
</event>
<event>
 4    1  0.1305170E-003  0.2296637E+03  0.7818608E-02  0.1126877E+00
          2   -1    0    0  501    0  0.00000000000E+00  0.00000000000E+00  0.83133190392E+03  0.83133190393E+03  0.25500000000E-02 0.  1.
         -2   -1    0    0    0  501 -0.00000000000E+00 -0.00000000000E+00 -0.15861720912E+02  0.15861721117E+02  0.25500000000E-02 0. -1.
    5000001    1    1    2    0    0 -0.72797359239E+02  0.23794369220E+02  0.54535059582E+03  0.55605925932E+03  0.77000000000E+02 0.  0.
   -5000001    1    1    2    0    0  0.72797359239E+02 -0.23794369220E+02  0.27011958719E+03  0.29113436572E+03  0.77000000000E+02 0.  0.
<mgrwt>
<rscale>  0 0.22966371E+03</rscale>
<asrwt>0</asrwt>
<pdfrwt beam="1">  1        2 0.11876173E+00 0.22966371E+03</pdfrwt>
<pdfrwt beam="2">  1       -2 0.22659596E-02 0.22966371E+03</pdfrwt>
<totfact> 0.23499314E+04</totfact>
</mgrwt>
</event>
<event>
 4    1  0.1305170E-003  0.3758934E+03  0.7818608E-02  0.1052462E+00
          2   -1    0    0  501    0  0.00000000000E+00  0.00000000000E+00  0.31789983982E+02  0.31789984085E+02  0.25500000000E-02 0.  1.
         -2   -1    0    0    0  501 -0.00000000000E+00 -0.00000000000E+00 -0.11111663147E+04  0.11111663147E+04  0.25500000000E-02 0. -1.
    5000001    1    1    2    0    0 -0.35996144477E+01 -0.16027459719E+03 -0.72449441750E+03  0.74600406481E+03  0.77000000000E+02 0.  0.
   -5000001    1    1    2    0    0  0.35996144477E+01  0.16027459719E+03 -0.35488191321E+03  0.39695223397E+03  0.77000000000E+02 0.  0.
<mgrwt>
<rscale>  0 0.37589339E+03</rscale>
<asrwt>0</asrwt>
<pdfrwt beam="1">  1        2 0.45414270E-02 0.37589339E+03</pdfrwt>
<pdfrwt beam="2">  1       -2 0.15873802E+00 0.37589339E+03</pdfrwt>
<totfact> 0.49117131E+02</totfact>
</mgrwt>
</event>
<event>
 4    1  0.1305170E-003  0.2283028E+03  0.7818608E-02  0.1127840E+00
          2   -1    0    0  501    0  0.00000000000E+00  0.00000000000E+00  0.88959254717E+03  0.88959254717E+03  0.25500000000E-02 0.  1.
         -2   -1    0    0    0  501 -0.00000000000E+00 -0.00000000000E+00 -0.14647767172E+02  0.14647767394E+02  0.25500000000E-02 0. -1.
    5000001    1    1    2    0    0 -0.15751944136E+02 -0.76745995129E+02  0.56041215618E+03  0.57107692679E+03  0.77000000000E+02 0.  0.
   -5000001    1    1    2    0    0  0.15751944136E+02  0.76745995129E+02  0.31453262381E+03  0.33316338778E+03  0.77000000000E+02 0.  0.
<mgrwt>
<rscale>  0 0.22830282E+03</rscale>
<asrwt>0</asrwt>
<pdfrwt beam="1">  1        2 0.12708466E+00 0.22830282E+03</pdfrwt>
<pdfrwt beam="2">  1       -2 0.20925381E-02 0.22830282E+03</pdfrwt>
<totfact> 0.24237035E+04</totfact>
</mgrwt>
</event>
<event>
 4    1  0.1305170E-003  0.2059249E+03  0.7818608E-02  0.1144834E+00
          2   -1    0    0  501    0  0.00000000000E+00  0.00000000000E+00  0.12290199465E+03  0.12290199468E+03  0.25500000000E-02 0.  1.
         -2   -1    0    0    0  501 -0.00000000000E+00 -0.00000000000E+00 -0.86257875736E+02  0.86257875773E+02  0.25500000000E-02 0. -1.
    5000001    1    1    2    0    0 -0.63683729896E+02 -0.24293323750E+02  0.13095155015E+02  0.10366419882E+03  0.77000000000E+02 0.  0.
   -5000001    1    1    2    0    0  0.63683729896E+02  0.24293323750E+02  0.23548963903E+02  0.10549567163E+03  0.77000000000E+02 0.  0.
<mgrwt>
<rscale>  0 0.20592489E+03</rscale>
<asrwt>0</asrwt>
<pdfrwt beam="1">  1        2 0.17557428E-01 0.20592489E+03</pdfrwt>
<pdfrwt beam="2">  1       -2 0.12322554E-01 0.20592489E+03</pdfrwt>
<totfact> 0.14797239E+04</totfact>
</mgrwt>
</event>
<event>
 4    1  0.1305170E-003  0.1941185E+03  0.7818608E-02  0.1154798E+00
         -2   -1    0    0    0  501 -0.00000000000E+00  0.00000000000E+00  0.32382369636E+03  0.32382369637E+03  0.25500000000E-02 0. -1.
          2   -1    0    0  501    0  0.00000000000E+00 -0.00000000000E+00 -0.29091428495E+02  0.29091428607E+02  0.25500000000E-02 0.  1.
    5000001    1    1    2    0    0 -0.52092901379E+02 -0.14621380867E+02  0.19054367637E+03  0.21251669995E+03  0.77000000000E+02 0.  0.
   -5000001    1    1    2    0    0  0.52092901379E+02  0.14621380867E+02  0.10418859149E+03  0.14039842502E+03  0.77000000000E+02 0.  0.
<mgrwt>
<rscale>  0 0.19411846E+03</rscale>
<asrwt>0</asrwt>
<pdfrwt beam="1">  1        2 0.41559182E-02 0.19411846E+03</pdfrwt>
<pdfrwt beam="2">  1       -2 0.46260530E-01 0.19411846E+03</pdfrwt>
<totfact> 0.87495850E+03</totfact>
</mgrwt>
</event>
<event>
 4    1  0.1305170E-003  0.1804022E+03  0.7818608E-02  0.1167414E+00
          2   -1    0    0  501    0  0.00000000000E+00  0.00000000000E+00  0.98340315691E+03  0.98340315691E+03  0.25500000000E-02 0.  1.
         -2   -1    0    0    0  501 -0.00000000000E+00 -0.00000000000E+00 -0.82735563368E+01  0.82735567298E+01  0.25500000000E-02 0. -1.
    5000001    1    1    2    0    0  0.28211660057E+02  0.35652447837E+02  0.42246574174E+03  0.43182554087E+03  0.77000000000E+02 0.  0.
   -5000001    1    1    2    0    0 -0.28211660057E+02 -0.35652447837E+02  0.55266385883E+03  0.55985117277E+03  0.77000000000E+02 0.  0.
<mgrwt>
<rscale>  0 0.18040224E+03</rscale>
<asrwt>0</asrwt>
<pdfrwt beam="1">  1        2 0.14048615E+00 0.18040224E+03</pdfrwt>
<pdfrwt beam="2">  1       -2 0.11819368E-02 0.18040224E+03</pdfrwt>
<totfact> 0.47989650E+04</totfact>
</mgrwt>
</event>
<event>
 4    1  0.1305170E-003  0.2031269E+03  0.7818608E-02  0.1147127E+00
         -2   -1    0    0    0  501 -0.00000000000E+00  0.00000000000E+00  0.58730611300E+01  0.58730616835E+01  0.25500000000E-02 0. -1.
          2   -1    0    0  501    0  0.00000000000E+00 -0.00000000000E+00 -0.17563470280E+04  0.17563470280E+04  0.25500000000E-02 0.  1.
    5000001    1    1    2    0    0 -0.22211320088E+02 -0.61392367412E+02 -0.77872135029E+03  0.78523773911E+03  0.77000000000E+02 0.  0.
   -5000001    1    1    2    0    0  0.22211320088E+02  0.61392367412E+02 -0.97175261659E+03  0.97698235059E+03  0.77000000000E+02 0.  0.
<mgrwt>
<rscale>  0 0.20312690E+03</rscale>
<asrwt>0</asrwt>
<pdfrwt beam="1">  1        2 0.25090638E+00 0.20312690E+03</pdfrwt>
<pdfrwt beam="2">  1       -2 0.83900990E-03 0.20312690E+03</pdfrwt>
<totfact> 0.31463071E+04</totfact>
</mgrwt>
</event>
<event>
 4    1  0.1305170E-003  0.1935815E+03  0.7818608E-02  0.1155270E+00
          2   -1    0    0  501    0  0.00000000000E+00  0.00000000000E+00  0.38087549859E+02  0.38087549945E+02  0.25500000000E-02 0.  1.
         -2   -1    0    0    0  501 -0.00000000000E+00 -0.00000000000E+00 -0.24597148765E+03  0.24597148766E+03  0.25500000000E-02 0. -1.
    5000001    1    1    2    0    0  0.16543159502E+02 -0.41572977311E+02 -0.48307619649E+02  0.10131443473E+03  0.77000000000E+02 0.  0.
   -5000001    1    1    2    0    0 -0.16543159502E+02  0.41572977311E+02 -0.15957631814E+03  0.18274460288E+03  0.77000000000E+02 0.  0.
<mgrwt>
<rscale>  0 0.19358152E+03</rscale>
<asrwt>0</asrwt>
<pdfrwt beam="1">  1        2 0.54410787E-02 0.19358152E+03</pdfrwt>
<pdfrwt beam="2">  1       -2 0.35138783E-01 0.19358152E+03</pdfrwt>
<totfact> 0.10353410E+04</totfact>
</mgrwt>
</event>
<event>
 4    1  0.1305170E-003  0.2294983E+03  0.7818608E-02  0.1126993E+00
         -2   -1    0    0    0  501 -0.00000000000E+00  0.00000000000E+00  0.13550095834E+02  0.13550096074E+02  0.25500000000E-02 0. -1.
          2   -1    0    0  501    0  0.00000000000E+00 -0.00000000000E+00 -0.97175477081E+03  0.97175477082E+03  0.25500000000E-02 0.  1.
    5000001    1    1    2    0    0 -0.70263939606E+01 -0.45379567737E+02 -0.17160817283E+03  0.19361570278E+03  0.77000000000E+02 0.  0.
   -5000001    1    1    2    0    0  0.70263939606E+01  0.45379567737E+02 -0.78659650214E+03  0.79168916411E+03  0.77000000000E+02 0.  0.
<mgrwt>
<rscale>  0 0.22949833E+03</rscale>
<asrwt>0</asrwt>
<pdfrwt beam="1">  1        2 0.13882207E+00 0.22949833E+03</pdfrwt>
<pdfrwt beam="2">  1       -2 0.19357286E-02 0.22949833E+03</pdfrwt>
<totfact> 0.24214149E+04</totfact>
</mgrwt>
</event>
<event>
 4    1  0.1305170E-003  0.2621115E+03  0.7818608E-02  0.1105881E+00
          2   -1    0    0  501    0  0.00000000000E+00  0.00000000000E+00  0.17896999347E+03  0.17896999349E+03  0.25500000000E-02 0.  1.
         -2   -1    0    0    0  501 -0.00000000000E+00 -0.00000000000E+00 -0.95969226151E+02  0.95969226185E+02  0.25500000000E-02 0. -1.
    5000001    1    1    2    0    0  0.86572993326E+02  0.48615315721E+02  0.24172770488E+01  0.12567090087E+03  0.77000000000E+02 0.  0.
   -5000001    1    1    2    0    0 -0.86572993326E+02 -0.48615315721E+02  0.80583490273E+02  0.14926831881E+03  0.77000000000E+02 0.  0.
<mgrwt>
<rscale>  0 0.26211152E+03</rscale>
<asrwt>0</asrwt>
<pdfrwt beam="1">  1        2 0.25567142E-01 0.26211152E+03</pdfrwt>
<pdfrwt beam="2">  1       -2 0.13709889E-01 0.26211152E+03</pdfrwt>
<totfact> 0.82363703E+03</totfact>
</mgrwt>
</event>
<event>
 4    1  0.1305170E-003  0.3271129E+03  0.7818608E-02  0.1072422E+00
          2   -1    0    0  501    0  0.00000000000E+00  0.00000000000E+00  0.97964581738E+03  0.97964581738E+03  0.25500000000E-02 0.  1.
         -2   -1    0    0    0  501 -0.00000000000E+00 -0.00000000000E+00 -0.27306507323E+02  0.27306507442E+02  0.25500000000E-02 0. -1.
    5000001    1    1    2    0    0  0.12048798891E+03  0.59075317462E+02  0.31286122222E+03  0.34902491741E+03  0.77000000000E+02 0.  0.
   -5000001    1    1    2    0    0 -0.12048798891E+03 -0.59075317462E+02  0.63947808783E+03  0.65792740741E+03  0.77000000000E+02 0.  0.
<mgrwt>
<rscale>  0 0.32711286E+03</rscale>
<asrwt>0</asrwt>
<pdfrwt beam="1">  1        2 0.13994939E+00 0.32711286E+03</pdfrwt>
<pdfrwt beam="2">  1       -2 0.39009300E-02 0.32711286E+03</pdfrwt>
<totfact> 0.85799606E+03</totfact>
</mgrwt>
</event>
<event>
 4    1  0.1305170E-003  0.3239453E+03  0.7818608E-02  0.1073848E+00
         -2   -1    0    0    0  501 -0.00000000000E+00  0.00000000000E+00  0.47219040580E+02  0.47219040649E+02  0.25500000000E-02 0. -1.
          2   -1    0    0  501    0  0.00000000000E+00 -0.00000000000E+00 -0.55560509952E+03  0.55560509952E+03  0.25500000000E-02 0.  1.
    5000001    1    1    2    0    0 -0.66212788386E+02 -0.75855345424E+02 -0.44183765956E+03  0.45966040092E+03  0.77000000000E+02 0.  0.
   -5000001    1    1    2    0    0  0.66212788386E+02  0.75855345424E+02 -0.66548399380E+02  0.14316373925E+03  0.77000000000E+02 0.  0.
<mgrwt>
<rscale>  0 0.32394530E+03</rscale>
<asrwt>0</asrwt>
<pdfrwt beam="1">  1        2 0.79372153E-01 0.32394530E+03</pdfrwt>
<pdfrwt beam="2">  1       -2 0.67455776E-02 0.32394530E+03</pdfrwt>
<totfact> 0.74307764E+03</totfact>
</mgrwt>
</event>
<event>
 4    1  0.1305170E-003  0.8512465E+03  0.7818608E-02  0.9488665E-01
          2   -1    0    0  501    0  0.00000000000E+00  0.00000000000E+00  0.41209491375E+04  0.41209491375E+04  0.25500000000E-02 0.  1.
         -2   -1    0    0    0  501 -0.00000000000E+00 -0.00000000000E+00 -0.43959568021E+02  0.43959568095E+02  0.25500000000E-02 0. -1.
    5000001    1    1    2    0    0  0.37901022566E+03  0.14970436069E+03  0.15700698362E+04  0.16239176203E+04  0.77000000000E+02 0.  0.
   -5000001    1    1    2    0    0 -0.37901022566E+03 -0.14970436069E+03  0.25069197332E+04  0.25409910853E+04  0.77000000000E+02 0.  0.
<mgrwt>
<rscale>  0 0.85124648E+03</rscale>
<asrwt>0</asrwt>
<pdfrwt beam="1">  1        2 0.58870699E+00 0.85124648E+03</pdfrwt>
<pdfrwt beam="2">  1       -2 0.62799386E-02 0.85124648E+03</pdfrwt>
<totfact> 0.72913612E+01</totfact>
</mgrwt>
</event>
<event>
 4    1  0.1305170E-003  0.3606629E+03  0.7818608E-02  0.1058322E+00
          2   -1    0    0  501    0  0.00000000000E+00  0.00000000000E+00  0.51577276658E+02  0.51577276721E+02  0.25500000000E-02 0.  1.
         -2   -1    0    0    0  501 -0.00000000000E+00 -0.00000000000E+00 -0.63049922769E+03  0.63049922770E+03  0.25500000000E-02 0. -1.
    5000001    1    1    2    0    0  0.43086918587E+01 -0.14094529380E+03 -0.44433295704E+03  0.47248800766E+03  0.77000000000E+02 0.  0.
   -5000001    1    1    2    0    0 -0.43086918587E+01  0.14094529380E+03 -0.13458899400E+03  0.20958849676E+03  0.77000000000E+02 0.  0.
<mgrwt>
<rscale>  0 0.36066291E+03</rscale>
<asrwt>0</asrwt>
<pdfrwt beam="1">  1        2 0.73681827E-02 0.36066291E+03</pdfrwt>
<pdfrwt beam="2">  1       -2 0.90071314E-01 0.36066291E+03</pdfrwt>
<totfact> 0.10384943E+03</totfact>
</mgrwt>
</event>
<event>
 4    1  0.1305170E-003  0.2627665E+03  0.7818608E-02  0.1105492E+00
         -2   -1    0    0    0  501 -0.00000000000E+00  0.00000000000E+00  0.34657196781E+02  0.34657196875E+02  0.25500000000E-02 0. -1.
          2   -1    0    0  501    0  0.00000000000E+00 -0.00000000000E+00 -0.49806574246E+03  0.49806574246E+03  0.25500000000E-02 0.  1.
    5000001    1    1    2    0    0 -0.70227737441E+02  0.53774984811E+02 -0.11161187736E+03  0.16189470425E+03  0.77000000000E+02 0.  0.
   -5000001    1    1    2    0    0  0.70227737441E+02 -0.53774984811E+02 -0.35179666832E+03  0.37082823509E+03  0.77000000000E+02 0.  0.
<mgrwt>
<rscale>  0 0.26276653E+03</rscale>
<asrwt>0</asrwt>
<pdfrwt beam="1">  1        2 0.71152245E-01 0.26276653E+03</pdfrwt>
<pdfrwt beam="2">  1       -2 0.49510284E-02 0.26276653E+03</pdfrwt>
<totfact> 0.13384604E+04</totfact>
</mgrwt>
</event>
<event>
 4    1  0.1305170E-003  0.2372891E+03  0.7818608E-02  0.1121612E+00
         -2   -1    0    0    0  501 -0.00000000000E+00  0.00000000000E+00  0.12749141395E+02  0.12749141650E+02  0.25500000000E-02 0. -1.
          2   -1    0    0  501    0  0.00000000000E+00 -0.00000000000E+00 -0.11041162054E+04  0.11041162054E+04  0.25500000000E-02 0.  1.
    5000001    1    1    2    0    0  0.33564488059E+02  0.48737175689E+02 -0.22487490198E+03  0.24494817553E+03  0.77000000000E+02 0.  0.
   -5000001    1    1    2    0    0 -0.33564488059E+02 -0.48737175689E+02 -0.86649216201E+03  0.87191717151E+03  0.77000000000E+02 0.  0.
<mgrwt>
<rscale>  0 0.23728914E+03</rscale>
<asrwt>0</asrwt>
<pdfrwt beam="1">  1        2 0.15773083E+00 0.23728914E+03</pdfrwt>
<pdfrwt beam="2">  1       -2 0.18213066E-02 0.23728914E+03</pdfrwt>
<totfact> 0.22247507E+04</totfact>
</mgrwt>
</event>
<event>
 4    1  0.1305170E-003  0.3666257E+03  0.7818608E-02  0.1055991E+00
          2   -1    0    0  501    0  0.00000000000E+00  0.00000000000E+00  0.91319456997E+03  0.91319456997E+03  0.25500000000E-02 0.  1.
         -2   -1    0    0    0  501 -0.00000000000E+00 -0.00000000000E+00 -0.36797857240E+02  0.36797857329E+02  0.25500000000E-02 0. -1.
    5000001    1    1    2    0    0  0.12965895662E+03  0.46643306323E+02  0.19668222650E+03  0.25219028783E+03  0.77000000000E+02 0.  0.
   -5000001    1    1    2    0    0 -0.12965895662E+03 -0.46643306323E+02  0.67971448623E+03  0.69780213947E+03  0.77000000000E+02 0.  0.
<mgrwt>
<rscale>  0 0.36662571E+03</rscale>
<asrwt>0</asrwt>
<pdfrwt beam="1">  1        2 0.13045634E+00 0.36662571E+03</pdfrwt>
<pdfrwt beam="2">  1       -2 0.52568377E-02 0.36662571E+03</pdfrwt>
<totfact> 0.59999810E+03</totfact>
</mgrwt>
</event>
<event>
 4    1  0.1305170E-003  0.4990621E+03  0.7818608E-02  0.1014024E+00
          2   -1    0    0  501    0  0.00000000000E+00  0.00000000000E+00  0.10961706580E+04  0.10961706580E+04  0.25500000000E-02 0.  1.
         -2   -1    0    0    0  501 -0.00000000000E+00 -0.00000000000E+00 -0.56802956821E+02  0.56802956878E+02  0.25500000000E-02 0. -1.
    5000001    1    1    2    0    0  0.22691405215E+03  0.55182676346E+02  0.42162283586E+03  0.48808803565E+03  0.77000000000E+02 0.  0.
   -5000001    1    1    2    0    0 -0.22691405215E+03 -0.55182676346E+02  0.61774486533E+03  0.66488557924E+03  0.77000000000E+02 0.  0.
<mgrwt>
<rscale>  0 0.49906206E+03</rscale>
<asrwt>0</asrwt>
<pdfrwt beam="1">  1        2 0.15659582E+00 0.49906206E+03</pdfrwt>
<pdfrwt beam="2">  1       -2 0.81147077E-02 0.49906206E+03</pdfrwt>
<totfact> 0.23710786E+03</totfact>
</mgrwt>
</event>
<event>
 4    1  0.1305170E-003  0.2748401E+03  0.7818608E-02  0.1098541E+00
          2   -1    0    0  501    0  0.00000000000E+00  0.00000000000E+00  0.12566728615E+04  0.12566728615E+04  0.25500000000E-02 0.  1.
         -2   -1    0    0    0  501 -0.00000000000E+00 -0.00000000000E+00 -0.15027201778E+02  0.15027201994E+02  0.25500000000E-02 0. -1.
    5000001    1    1    2    0    0 -0.30759874973E+02 -0.10935383542E+03  0.58782912589E+03  0.60363607618E+03  0.77000000000E+02 0.  0.
   -5000001    1    1    2    0    0  0.30759874973E+02  0.10935383542E+03  0.65381653380E+03  0.66806398728E+03  0.77000000000E+02 0.  0.
<mgrwt>
<rscale>  0 0.27484015E+03</rscale>
<asrwt>0</asrwt>
<pdfrwt beam="1">  1        2 0.17952472E+00 0.27484015E+03</pdfrwt>
<pdfrwt beam="2">  1       -2 0.21467428E-02 0.27484015E+03</pdfrwt>
<totfact> 0.14518838E+04</totfact>
</mgrwt>
</event>
<event>
 4    1  0.1305170E-003  0.2404659E+03  0.7818608E-02  0.1119483E+00
          2   -1    0    0  501    0  0.00000000000E+00  0.00000000000E+00  0.28452059198E+03  0.28452059199E+03  0.25500000000E-02 0.  1.
         -2   -1    0    0    0  501 -0.00000000000E+00 -0.00000000000E+00 -0.50808120937E+02  0.50808121001E+02  0.25500000000E-02 0. -1.
    5000001    1    1    2    0    0 -0.47177334038E+02  0.67074448631E+02  0.57655411073E+02  0.12640343718E+03  0.77000000000E+02 0.  0.
   -5000001    1    1    2    0    0  0.47177334038E+02 -0.67074448631E+02  0.17605705997E+03  0.20892527580E+03  0.77000000000E+02 0.  0.
<mgrwt>
<rscale>  0 0.24046585E+03</rscale>
<asrwt>0</asrwt>
<pdfrwt beam="1">  1        2 0.40645801E-01 0.24046585E+03</pdfrwt>
<pdfrwt beam="2">  1       -2 0.72583026E-02 0.24046585E+03</pdfrwt>
<totfact> 0.13578026E+04</totfact>
</mgrwt>
</event>
<event>
 4    1  0.1305170E-003  0.1799459E+03  0.7818608E-02  0.1167855E+00
          2   -1    0    0  501    0  0.00000000000E+00  0.00000000000E+00  0.19856482931E+04  0.19856482931E+04  0.25500000000E-02 0.  1.
         -2   -1    0    0    0  501 -0.00000000000E+00 -0.00000000000E+00 -0.40768213470E+01  0.40768221445E+01  0.25500000000E-02 0. -1.
    5000001    1    1    2    0    0 -0.27968500762E+01  0.46457625504E+02  0.99047179344E+03  0.99454990168E+03  0.77000000000E+02 0.  0.
   -5000001    1    1    2    0    0  0.27968500762E+01 -0.46457625504E+02  0.99109967828E+03  0.99517521353E+03  0.77000000000E+02 0.  0.
<mgrwt>
<rscale>  0 0.17994593E+03</rscale>
<asrwt>0</asrwt>
<pdfrwt beam="1">  1        2 0.28366401E+00 0.17994593E+03</pdfrwt>
<pdfrwt beam="2">  1       -2 0.58240318E-03 0.17994593E+03</pdfrwt>
<totfact> 0.40873229E+04</totfact>
</mgrwt>
</event>
<event>
 4    1  0.1305170E-003  0.3846616E+03  0.7818608E-02  0.1049224E+00
         -2   -1    0    0    0  501 -0.00000000000E+00  0.00000000000E+00  0.32514516112E+02  0.32514516212E+02  0.25500000000E-02 0. -1.
          2   -1    0    0  501    0  0.00000000000E+00 -0.00000000000E+00 -0.11376806194E+04  0.11376806194E+04  0.25500000000E-02 0.  1.
    5000001    1    1    2    0    0  0.13586833422E+02  0.14401361992E+03 -0.24628286781E+03  0.29581882249E+03  0.77000000000E+02 0.  0.
   -5000001    1    1    2    0    0 -0.13586833422E+02 -0.14401361992E+03 -0.85888323548E+03  0.87437631312E+03  0.77000000000E+02 0.  0.
<mgrwt>
<rscale>  0 0.38466159E+03</rscale>
<asrwt>0</asrwt>
<pdfrwt beam="1">  1        2 0.16252578E+00 0.38466159E+03</pdfrwt>
<pdfrwt beam="2">  1       -2 0.46449316E-02 0.38466159E+03</pdfrwt>
<totfact> 0.53443410E+03</totfact>
</mgrwt>
</event>
<event>
 4    1  0.1305170E-003  0.2724673E+03  0.7818608E-02  0.1099876E+00
         -2   -1    0    0    0  501 -0.00000000000E+00  0.00000000000E+00  0.58587268607E+02  0.58587268662E+02  0.25500000000E-02 0. -1.
          2   -1    0    0  501    0  0.00000000000E+00 -0.00000000000E+00 -0.31678558450E+03  0.31678558451E+03  0.25500000000E-02 0.  1.
    5000001    1    1    2    0    0  0.75591196802E+02 -0.81737301556E+02 -0.10795337031E+03  0.17314140366E+03  0.77000000000E+02 0.  0.
   -5000001    1    1    2    0    0 -0.75591196802E+02  0.81737301556E+02 -0.15024494559E+03  0.20223144952E+03  0.77000000000E+02 0.  0.
<mgrwt>
<rscale>  0 0.27246726E+03</rscale>
<asrwt>0</asrwt>
<pdfrwt beam="1">  1        2 0.45255082E-01 0.27246726E+03</pdfrwt>
<pdfrwt beam="2">  1       -2 0.83696100E-02 0.27246726E+03</pdfrwt>
<totfact> 0.97505962E+03</totfact>
</mgrwt>
</event>
<event>
 4    1  0.1305170E-003  0.3320635E+03  0.7818608E-02  0.1070227E+00
          2   -1    0    0  501    0  0.00000000000E+00  0.00000000000E+00  0.96696133197E+03  0.96696133198E+03  0.25500000000E-02 0.  1.
         -2   -1    0    0    0  501 -0.00000000000E+00 -0.00000000000E+00 -0.28508429396E+02  0.28508429510E+02  0.25500000000E-02 0. -1.
    5000001    1    1    2    0    0  0.12838561872E+03  0.70352747309E+02  0.42628598662E+03  0.45725388848E+03  0.77000000000E+02 0.  0.
   -5000001    1    1    2    0    0 -0.12838561872E+03 -0.70352747309E+02  0.51216691596E+03  0.53821587300E+03  0.77000000000E+02 0.  0.
<mgrwt>
<rscale>  0 0.33206354E+03</rscale>
<asrwt>0</asrwt>
<pdfrwt beam="1">  1        2 0.13813735E+00 0.33206354E+03</pdfrwt>
<pdfrwt beam="2">  1       -2 0.40726323E-02 0.33206354E+03</pdfrwt>
<totfact> 0.81851854E+03</totfact>
</mgrwt>
</event>
<event>
 4    1  0.1305170E-003  0.2453572E+03  0.7818608E-02  0.1116275E+00
         -2   -1    0    0    0  501 -0.00000000000E+00  0.00000000000E+00  0.21225045464E+02  0.21225045617E+02  0.25500000000E-02 0. -1.
          2   -1    0    0  501    0  0.00000000000E+00 -0.00000000000E+00 -0.70906973940E+03  0.70906973941E+03  0.25500000000E-02 0.  1.
    5000001    1    1    2    0    0 -0.49893258206E+02  0.46682631162E+02 -0.14531373682E+03  0.17808337198E+03  0.77000000000E+02 0.  0.
   -5000001    1    1    2    0    0  0.49893258206E+02 -0.46682631162E+02 -0.54253095712E+03  0.55221141304E+03  0.77000000000E+02 0.  0.
<mgrwt>
<rscale>  0 0.24535719E+03</rscale>
<asrwt>0</asrwt>
<pdfrwt beam="1">  1        2 0.10129566E+00 0.24535719E+03</pdfrwt>
<pdfrwt beam="2">  1       -2 0.30321498E-02 0.24535719E+03</pdfrwt>
<totfact> 0.18610524E+04</totfact>
</mgrwt>
</event>
<event>
 4    1  0.1305170E-003  0.2909419E+03  0.7818608E-02  0.1089858E+00
          2   -1    0    0  501    0  0.00000000000E+00  0.00000000000E+00  0.28807153774E+03  0.28807153775E+03  0.25500000000E-02 0.  1.
         -2   -1    0    0    0  501 -0.00000000000E+00 -0.00000000000E+00 -0.73460206695E+02  0.73460206739E+02  0.25500000000E-02 0. -1.
    5000001    1    1    2    0    0 -0.91709487794E+02 -0.80659074705E+02  0.12940477857E+03  0.19388427786E+03  0.77000000000E+02 0.  0.
   -5000001    1    1    2    0    0  0.91709487794E+02  0.80659074705E+02  0.85206552473E+02  0.16764746663E+03  0.77000000000E+02 0.  0.
<mgrwt>
<rscale>  0 0.29094188E+03</rscale>
<asrwt>0</asrwt>
<pdfrwt beam="1">  1        2 0.41153077E-01 0.29094188E+03</pdfrwt>
<pdfrwt beam="2">  1       -2 0.10494315E-01 0.29094188E+03</pdfrwt>
<totfact> 0.75711317E+03</totfact>
</mgrwt>
</event>
<event>
 4    1  0.1305170E-003  0.1775169E+03  0.7818608E-02  0.1170228E+00
         -2   -1    0    0    0  501 -0.00000000000E+00  0.00000000000E+00  0.52752597741E+01  0.52752603904E+01  0.25500000000E-02 0. -1.
          2   -1    0    0  501    0  0.00000000000E+00 -0.00000000000E+00 -0.14933974821E+04  0.14933974821E+04  0.25500000000E-02 0.  1.
    5000001    1    1    2    0    0  0.33306052415E+02 -0.41669518843E+00 -0.49943564501E+03  0.50643304618E+03  0.77000000000E+02 0.  0.
   -5000001    1    1    2    0    0 -0.33306052415E+02  0.41669518843E+00 -0.98868657727E+03  0.99223969626E+03  0.77000000000E+02 0.  0.
<mgrwt>
<rscale>  0 0.17751687E+03</rscale>
<asrwt>0</asrwt>
<pdfrwt beam="1">  1        2 0.21334223E+00 0.17751687E+03</pdfrwt>
<pdfrwt beam="2">  1       -2 0.75360953E-03 0.17751687E+03</pdfrwt>
<totfact> 0.48965512E+04</totfact>
</mgrwt>
</event>
<event>
 4    1  0.1305170E-003  0.3517691E+03  0.7818608E-02  0.1061891E+00
         -2   -1    0    0    0  501 -0.00000000000E+00  0.00000000000E+00  0.12168252483E+03  0.12168252486E+03  0.25500000000E-02 0. -1.
          2   -1    0    0  501    0  0.00000000000E+00 -0.00000000000E+00 -0.25423026414E+03  0.25423026416E+03  0.25500000000E-02 0.  1.
    5000001    1    1    2    0    0 -0.88754917535E+02 -0.75410428420E+02  0.48036170233E+02  0.14765040383E+03  0.77000000000E+02 0.  0.
   -5000001    1    1    2    0    0  0.88754917535E+02  0.75410428420E+02 -0.18058390955E+03  0.22826238518E+03  0.77000000000E+02 0.  0.
<mgrwt>
<rscale>  0 0.35176913E+03</rscale>
<asrwt>0</asrwt>
<pdfrwt beam="1">  1        2 0.36318609E-01 0.35176913E+03</pdfrwt>
<pdfrwt beam="2">  1       -2 0.17383218E-01 0.35176913E+03</pdfrwt>
<totfact> 0.38095602E+03</totfact>
</mgrwt>
</event>
<event>
 4    1  0.1305170E-003  0.2375132E+03  0.7818608E-02  0.1121461E+00
         -2   -1    0    0    0  501 -0.00000000000E+00  0.00000000000E+00  0.55087233391E+01  0.55087239293E+01  0.25500000000E-02 0. -1.
          2   -1    0    0  501    0  0.00000000000E+00 -0.00000000000E+00 -0.25601444931E+04  0.25601444931E+04  0.25500000000E-02 0.  1.
    5000001    1    1    2    0    0 -0.90298218266E+02  0.26717172537E+01 -0.12380387575E+04  0.12437161538E+04  0.77000000000E+02 0.  0.
   -5000001    1    1    2    0    0  0.90298218266E+02 -0.26717172537E+01 -0.13165970123E+04  0.13219370632E+04  0.77000000000E+02 0.  0.
<mgrwt>
<rscale>  0 0.23751319E+03</rscale>
<asrwt>0</asrwt>
<pdfrwt beam="1">  1        2 0.36573417E+00 0.23751319E+03</pdfrwt>
<pdfrwt beam="2">  1       -2 0.78696216E-03 0.23751319E+03</pdfrwt>
<totfact> 0.14081817E+04</totfact>
</mgrwt>
</event>
<event>
 4    1  0.1305170E-003  0.2567714E+03  0.7818608E-02  0.1109099E+00
         -2   -1    0    0    0  501 -0.00000000000E+00  0.00000000000E+00  0.53627302617E+03  0.53627302617E+03  0.25500000000E-02 0. -1.
          2   -1    0    0  501    0  0.00000000000E+00 -0.00000000000E+00 -0.30735995392E+02  0.30735995498E+02  0.25500000000E-02 0.  1.
    5000001    1    1    2    0    0  0.50562830304E+02  0.84290010964E+02  0.18679912230E+03  0.22468715550E+03  0.77000000000E+02 0.  0.
   -5000001    1    1    2    0    0 -0.50562830304E+02 -0.84290010964E+02  0.31873790847E+03  0.34232186617E+03  0.77000000000E+02 0.  0.
<mgrwt>
<rscale>  0 0.25677138E+03</rscale>
<asrwt>0</asrwt>
<pdfrwt beam="1">  1        2 0.43908567E-02 0.25677138E+03</pdfrwt>
<pdfrwt beam="2">  1       -2 0.76610429E-01 0.25677138E+03</pdfrwt>
<totfact> 0.29142834E+03</totfact>
</mgrwt>
</event>
<event>
 4    1  0.1305170E-003  0.1793603E+03  0.7818608E-02  0.1168424E+00
          2   -1    0    0  501    0  0.00000000000E+00  0.00000000000E+00  0.17829789478E+04  0.17829789478E+04  0.25500000000E-02 0.  1.
         -2   -1    0    0    0  501 -0.00000000000E+00 -0.00000000000E+00 -0.45107240812E+01  0.45107248019E+01  0.25500000000E-02 0. -1.
    5000001    1    1    2    0    0  0.87151724022E+00 -0.20899576619E+02  0.12972255426E+04  0.12996771369E+04  0.77000000000E+02 0.  0.
   -5000001    1    1    2    0    0 -0.87151724022E+00  0.20899576619E+02  0.48124268115E+03  0.48781253572E+03  0.77000000000E+02 0.  0.
<mgrwt>
<rscale>  0 0.17936027E+03</rscale>
<asrwt>0</asrwt>
<pdfrwt beam="1">  1        2 0.25471184E+00 0.17936027E+03</pdfrwt>
<pdfrwt beam="2">  1       -2 0.64438779E-03 0.17936027E+03</pdfrwt>
<totfact> 0.44259555E+04</totfact>
</mgrwt>
</event>
<event>
 4    1  0.1305170E-003  0.2451720E+03  0.7818608E-02  0.1116395E+00
          2   -1    0    0  501    0  0.00000000000E+00  0.00000000000E+00  0.20981336452E+04  0.20981336452E+04  0.25500000000E-02 0.  1.
         -2   -1    0    0    0  501 -0.00000000000E+00 -0.00000000000E+00 -0.71622348838E+01  0.71622353377E+01  0.25500000000E-02 0. -1.
    5000001    1    1    2    0    0 -0.87991385323E+02 -0.17822840409E+02  0.13221674347E+04  0.13274471225E+04  0.77000000000E+02 0.  0.
   -5000001    1    1    2    0    0  0.87991385323E+02  0.17822840409E+02  0.76880397563E+03  0.77784875810E+03  0.77000000000E+02 0.  0.
<mgrwt>
<rscale>  0 0.24517199E+03</rscale>
<asrwt>0</asrwt>
<pdfrwt beam="1">  1        2 0.29973313E+00 0.24517199E+03</pdfrwt>
<pdfrwt beam="2">  1       -2 0.10231773E-02 0.24517199E+03</pdfrwt>
<totfact> 0.16258263E+04</totfact>
</mgrwt>
</event>
<event>
 4    1  0.1305170E-003  0.2807396E+03  0.7818608E-02  0.1095286E+00
         -2   -1    0    0    0  501 -0.00000000000E+00  0.00000000000E+00  0.27849110949E+02  0.27849111066E+02  0.25500000000E-02 0. -1.
          2   -1    0    0  501    0  0.00000000000E+00 -0.00000000000E+00 -0.70751544594E+03  0.70751544594E+03  0.25500000000E-02 0.  1.
    5000001    1    1    2    0    0  0.28624770598E+02 -0.11054692218E+03 -0.41083134510E+03  0.43330288899E+03  0.77000000000E+02 0.  0.
   -5000001    1    1    2    0    0 -0.28624770598E+02  0.11054692218E+03 -0.26883498989E+03  0.30206166802E+03  0.77000000000E+02 0.  0.
<mgrwt>
<rscale>  0 0.28073957E+03</rscale>
<asrwt>0</asrwt>
<pdfrwt beam="1">  1        2 0.10107362E+00 0.28073957E+03</pdfrwt>
<pdfrwt beam="2">  1       -2 0.39784449E-02 0.28073957E+03</pdfrwt>
<totfact> 0.12511181E+04</totfact>
</mgrwt>
</event>
<event>
 4    1  0.1305170E-003  0.2265721E+03  0.7818608E-02  0.1129076E+00
          2   -1    0    0  501    0  0.00000000000E+00  0.00000000000E+00  0.94837322876E+03  0.94837322876E+03  0.25500000000E-02 0.  1.
         -2   -1    0    0    0  501 -0.00000000000E+00 -0.00000000000E+00 -0.13532361823E+02  0.13532362063E+02  0.25500000000E-02 0. -1.
    5000001    1    1    2    0    0  0.41748573051E+02 -0.15937686344E+02  0.76483922197E+03  0.77000323938E+03  0.77000000000E+02 0.  0.
   -5000001    1    1    2    0    0 -0.41748573051E+02  0.15937686344E+02  0.17000164497E+03  0.19190235144E+03  0.77000000000E+02 0.  0.
<mgrwt>
<rscale>  0 0.22657211E+03</rscale>
<asrwt>0</asrwt>
<pdfrwt beam="1">  1        2 0.13548190E+00 0.22657211E+03</pdfrwt>
<pdfrwt beam="2">  1       -2 0.19331944E-02 0.22657211E+03</pdfrwt>
<totfact> 0.25037423E+04</totfact>
</mgrwt>
</event>
<event>
 4    1  0.1305170E-003  0.3876368E+03  0.7818608E-02  0.1048147E+00
          2   -1    0    0  501    0  0.00000000000E+00  0.00000000000E+00  0.58335095217E+03  0.58335095217E+03  0.25500000000E-02 0.  1.
         -2   -1    0    0    0  501 -0.00000000000E+00 -0.00000000000E+00 -0.64396170227E+02  0.64396170277E+02  0.25500000000E-02 0. -1.
    5000001    1    1    2    0    0  0.13878592767E+03  0.55313615395E+02  0.98196784211E+02  0.19466057176E+03  0.77000000000E+02 0.  0.
   -5000001    1    1    2    0    0 -0.13878592767E+03 -0.55313615395E+02  0.42075799773E+03  0.45308655069E+03  0.77000000000E+02 0.  0.
<mgrwt>
<rscale>  0 0.38763677E+03</rscale>
<asrwt>0</asrwt>
<pdfrwt beam="1">  1        2 0.83335847E-01 0.38763677E+03</pdfrwt>
<pdfrwt beam="2">  1       -2 0.91994532E-02 0.38763677E+03</pdfrwt>
<totfact> 0.43356885E+03</totfact>
</mgrwt>
</event>
<event>
 4    1  0.1305170E-003  0.3011522E+03  0.7818608E-02  0.1084666E+00
         -2   -1    0    0    0  501 -0.00000000000E+00  0.00000000000E+00  0.42518310975E+03  0.42518310976E+03  0.25500000000E-02 0. -1.
          2   -1    0    0  501    0  0.00000000000E+00 -0.00000000000E+00 -0.53325628406E+02  0.53325628467E+02  0.25500000000E-02 0.  1.
    5000001    1    1    2    0    0 -0.65544664930E+02 -0.10026878406E+03  0.26367621828E+03  0.29967328918E+03  0.77000000000E+02 0.  0.
   -5000001    1    1    2    0    0  0.65544664930E+02  0.10026878406E+03  0.10818126306E+03  0.17883544904E+03  0.77000000000E+02 0.  0.
<mgrwt>
<rscale>  0 0.30115216E+03</rscale>
<asrwt>0</asrwt>
<pdfrwt beam="1">  1        2 0.76179465E-02 0.30115216E+03</pdfrwt>
<pdfrwt beam="2">  1       -2 0.60740448E-01 0.30115216E+03</pdfrwt>
<totfact> 0.23366439E+03</totfact>
</mgrwt>
</event>
<event>
 4    1  0.1305170E-003  0.2281200E+03  0.7818608E-02  0.1127970E+00
          2   -1    0    0  501    0  0.00000000000E+00  0.00000000000E+00  0.58792640474E+03  0.58792640474E+03  0.25500000000E-02 0.  1.
         -2   -1    0    0    0  501 -0.00000000000E+00 -0.00000000000E+00 -0.22128083516E+02  0.22128083663E+02  0.25500000000E-02 0. -1.
    5000001    1    1    2    0    0 -0.78875222878E+02 -0.27569016964E+02  0.25624577675E+03  0.28030741977E+03  0.77000000000E+02 0.  0.
   -5000001    1    1    2    0    0  0.78875222878E+02  0.27569016964E+02  0.30955254447E+03  0.32974706863E+03  0.77000000000E+02 0.  0.
<mgrwt>
<rscale>  0 0.22812001E+03</rscale>
<asrwt>0</asrwt>
<pdfrwt beam="1">  1        2 0.83989476E-01 0.22812001E+03</pdfrwt>
<pdfrwt beam="2">  1       -2 0.31611552E-02 0.22812001E+03</pdfrwt>
<totfact> 0.21638120E+04</totfact>
</mgrwt>
</event>
<event>
 4    1  0.1305170E-003  0.1870725E+03  0.7818608E-02  0.1161129E+00
         -2   -1    0    0    0  501 -0.00000000000E+00  0.00000000000E+00  0.25620278429E+03  0.25620278430E+03  0.25500000000E-02 0. -1.
          2   -1    0    0  501    0  0.00000000000E+00 -0.00000000000E+00 -0.34148846024E+02  0.34148846120E+02  0.25500000000E-02 0.  1.
    5000001    1    1    2    0    0  0.28841306963E+02  0.44541430186E+02  0.10781995653E+03  0.14272316916E+03  0.77000000000E+02 0.  0.
   -5000001    1    1    2    0    0 -0.28841306963E+02 -0.44541430186E+02  0.11423398174E+03  0.14762846126E+03  0.77000000000E+02 0.  0.
<mgrwt>
<rscale>  0 0.18707249E+03</rscale>
<asrwt>0</asrwt>
<pdfrwt beam="1">  1        2 0.48784064E-02 0.18707249E+03</pdfrwt>
<pdfrwt beam="2">  1       -2 0.36600399E-01 0.18707249E+03</pdfrwt>
<totfact> 0.11043909E+04</totfact>
</mgrwt>
</event>
<event>
 4    1  0.1305170E-003  0.5608402E+03  0.7818608E-02  0.9990155E-01
          2   -1    0    0  501    0  0.00000000000E+00  0.00000000000E+00  0.39535300104E+04  0.39535300104E+04  0.25500000000E-02 0.  1.
         -2   -1    0    0    0  501 -0.00000000000E+00 -0.00000000000E+00 -0.19889930123E+02  0.19889930287E+02  0.25500000000E-02 0. -1.
    5000001    1    1    2    0    0 -0.11719745558E+03  0.22116973243E+03  0.26772469809E+04  0.26900244777E+04  0.77000000000E+02 0.  0.
   -5000001    1    1    2    0    0  0.11719745558E+03 -0.22116973243E+03  0.12563930994E+04  0.12833954630E+04  0.77000000000E+02 0.  0.
<mgrwt>
<rscale>  0 0.56084021E+03</rscale>
<asrwt>0</asrwt>
<pdfrwt beam="1">  1        2 0.56479041E+00 0.56084021E+03</pdfrwt>
<pdfrwt beam="2">  1       -2 0.28414165E-02 0.56084021E+03</pdfrwt>
<totfact> 0.33566110E+02</totfact>
</mgrwt>
</event>
<event>
 4    1  0.1305170E-003  0.3389727E+03  0.7818608E-02  0.1067234E+00
         -2   -1    0    0    0  501 -0.00000000000E+00  0.00000000000E+00  0.20942734845E+03  0.20942734846E+03  0.25500000000E-02 0. -1.
          2   -1    0    0  501    0  0.00000000000E+00 -0.00000000000E+00 -0.13716269439E+03  0.13716269441E+03  0.25500000000E-02 0.  1.
    5000001    1    1    2    0    0 -0.64257240487E+02  0.13482180644E+03  0.13482625149E+02  0.16857251742E+03  0.77000000000E+02 0.  0.
   -5000001    1    1    2    0    0  0.64257240487E+02 -0.13482180644E+03  0.58782028908E+02  0.17801752546E+03  0.77000000000E+02 0.  0.
<mgrwt>
<rscale>  0 0.33897268E+03</rscale>
<asrwt>0</asrwt>
<pdfrwt beam="1">  1        2 0.19594671E-01 0.33897268E+03</pdfrwt>
<pdfrwt beam="2">  1       -2 0.29918193E-01 0.33897268E+03</pdfrwt>
<totfact> 0.29330413E+03</totfact>
</mgrwt>
</event>
<event>
 4    1  0.1305170E-003  0.2242073E+03  0.7818608E-02  0.1130785E+00
         -2   -1    0    0    0  501 -0.00000000000E+00  0.00000000000E+00  0.11260534676E+02  0.11260534965E+02  0.25500000000E-02 0. -1.
          2   -1    0    0  501    0  0.00000000000E+00 -0.00000000000E+00 -0.11160422815E+04  0.11160422815E+04  0.25500000000E-02 0.  1.
    5000001    1    1    2    0    0  0.87514842034E+01 -0.76939209250E+02 -0.42499388850E+03  0.43879953926E+03  0.77000000000E+02 0.  0.
   -5000001    1    1    2    0    0 -0.87514842034E+01  0.76939209250E+02 -0.67978785830E+03  0.68850327718E+03  0.77000000000E+02 0.  0.
<mgrwt>
<rscale>  0 0.22420734E+03</rscale>
<asrwt>0</asrwt>
<pdfrwt beam="1">  1        2 0.15943454E+00 0.22420734E+03</pdfrwt>
<pdfrwt beam="2">  1       -2 0.16086485E-02 0.22420734E+03</pdfrwt>
<totfact> 0.26184280E+04</totfact>
</mgrwt>
</event>
<event>
 4    1  0.1305170E-003  0.3157169E+03  0.7818608E-02  0.1077638E+00
          2   -1    0    0  501    0  0.00000000000E+00  0.00000000000E+00  0.35967523167E+03  0.35967523168E+03  0.25500000000E-02 0.  1.
         -2   -1    0    0    0  501 -0.00000000000E+00 -0.00000000000E+00 -0.69282763150E+02  0.69282763197E+02  0.25500000000E-02 0. -1.
    5000001    1    1    2    0    0  0.12433704634E+03  0.44573181374E+02  0.91811652813E+02  0.17833914092E+03  0.77000000000E+02 0.  0.
   -5000001    1    1    2    0    0 -0.12433704634E+03 -0.44573181374E+02  0.19858081571E+03  0.25061885396E+03  0.77000000000E+02 0.  0.
<mgrwt>
<rscale>  0 0.31571692E+03</rscale>
<asrwt>0</asrwt>
<pdfrwt beam="1">  1        2 0.51382176E-01 0.31571692E+03</pdfrwt>
<pdfrwt beam="2">  1       -2 0.98975376E-02 0.31571692E+03</pdfrwt>
<totfact> 0.65597746E+03</totfact>
</mgrwt>
</event>
<event>
 4    1  0.1305170E-003  0.2204161E+03  0.7818608E-02  0.1133573E+00
          2   -1    0    0  501    0  0.00000000000E+00  0.00000000000E+00  0.47133843017E+03  0.47133843018E+03  0.25500000000E-02 0.  1.
         -2   -1    0    0    0  501 -0.00000000000E+00 -0.00000000000E+00 -0.25768765043E+02  0.25768765169E+02  0.25500000000E-02 0. -1.
    5000001    1    1    2    0    0  0.57570824477E+02 -0.52498497760E+02  0.19550419520E+03  0.22410127719E+03  0.77000000000E+02 0.  0.
   -5000001    1    1    2    0    0 -0.57570824477E+02  0.52498497760E+02  0.25006546992E+03  0.27300591815E+03  0.77000000000E+02 0.  0.
<mgrwt>
<rscale>  0 0.22041605E+03</rscale>
<asrwt>0</asrwt>
<pdfrwt beam="1">  1        2 0.67334068E-01 0.22041605E+03</pdfrwt>
<pdfrwt beam="2">  1       -2 0.36812518E-02 0.22041605E+03</pdfrwt>
<totfact> 0.21990736E+04</totfact>
</mgrwt>
</event>
<event>
 4    1  0.1305170E-003  0.2508926E+03  0.7818608E-02  0.1112742E+00
         -2   -1    0    0    0  501 -0.00000000000E+00  0.00000000000E+00  0.13020982426E+03  0.13020982428E+03  0.25500000000E-02 0. -1.
          2   -1    0    0  501    0  0.00000000000E+00 -0.00000000000E+00 -0.12085702860E+03  0.12085702863E+03  0.25500000000E-02 0.  1.
    5000001    1    1    2    0    0  0.86350351837E+02  0.21467094086E+02  0.48187089477E+02  0.12715429597E+03  0.77000000000E+02 0.  0.
   -5000001    1    1    2    0    0 -0.86350351837E+02 -0.21467094086E+02 -0.38834293822E+02  0.12391255694E+03  0.77000000000E+02 0.  0.
<mgrwt>
<rscale>  0 0.25089259E+03</rscale>
<asrwt>0</asrwt>
<pdfrwt beam="1">  1        2 0.17265290E-01 0.25089259E+03</pdfrwt>
<pdfrwt beam="2">  1       -2 0.18601403E-01 0.25089259E+03</pdfrwt>
<totfact> 0.77372738E+03</totfact>
</mgrwt>
</event>
<event>
 4    1  0.1305170E-003  0.2921192E+03  0.7818608E-02  0.1089248E+00
          2   -1    0    0  501    0  0.00000000000E+00  0.00000000000E+00  0.27835206076E+03  0.27835206077E+03  0.25500000000E-02 0. -1.
         -2   -1    0    0    0  501 -0.00000000000E+00 -0.00000000000E+00 -0.76641816431E+02  0.76641816473E+02  0.25500000000E-02 0.  1.
    5000001    1    1    2    0    0  0.44874876672E+02 -0.67805030349E+02 -0.13099650742E+02  0.11274696247E+03  0.77000000000E+02 0.  0.
   -5000001    1    1    2    0    0 -0.44874876672E+02  0.67805030349E+02  0.21480989507E+03  0.24224691477E+03  0.77000000000E+02 0.  0.
<mgrwt>
<rscale>  0 0.29211921E+03</rscale>
<asrwt>0</asrwt>
<pdfrwt beam="1">  1        2 0.39764580E-01 0.29211921E+03</pdfrwt>
<pdfrwt beam="2">  1       -2 0.10948831E-01 0.29211921E+03</pdfrwt>
<totfact> 0.73423335E+03</totfact>
</mgrwt>
</event>
<event>
 4    1  0.1305170E-003  0.2894440E+03  0.7818608E-02  0.1090640E+00
          2   -1    0    0  501    0  0.00000000000E+00  0.00000000000E+00  0.30345658466E+04  0.30345658466E+04  0.25500000000E-02 0.  1.
         -2   -1    0    0    0  501 -0.00000000000E+00 -0.00000000000E+00 -0.69019612999E+01  0.69019617709E+01  0.25500000000E-02 0. -1.
    5000001    1    1    2    0    0  0.20343956922E+01 -0.12244066703E+03  0.14673099531E+04  0.14744230581E+04  0.77000000000E+02 0.  0.
   -5000001    1    1    2    0    0 -0.20343956922E+01  0.12244066703E+03  0.15603539322E+04  0.15670447503E+04  0.77000000000E+02 0.  0.
<mgrwt>
<rscale>  0 0.28944400E+03</rscale>
<asrwt>0</asrwt>
<pdfrwt beam="1">  1        2 0.43350864E+00 0.28944400E+03</pdfrwt>
<pdfrwt beam="2">  1       -2 0.98599626E-03 0.28944400E+03</pdfrwt>
<totfact> 0.57890643E+03</totfact>
</mgrwt>
</event>
<event>
 4    1  0.1305170E-003  0.2604345E+03  0.7818608E-02  0.1106882E+00
         -2   -1    0    0    0  501 -0.00000000000E+00  0.00000000000E+00  0.23751887489E+03  0.23751887490E+03  0.25500000000E-02 0. -1.
          2   -1    0    0  501    0  0.00000000000E+00 -0.00000000000E+00 -0.71390233245E+02  0.71390233290E+02  0.25500000000E-02 0.  1.
    5000001    1    1    2    0    0 -0.97552825288E+02  0.36724963303E+02  0.67955649949E+02  0.14632924182E+03  0.77000000000E+02 0.  0.
   -5000001    1    1    2    0    0  0.97552825288E+02 -0.36724963303E+02  0.98172991692E+02  0.16257986637E+03  0.77000000000E+02 0.  0.
<mgrwt>
<rscale>  0 0.26043447E+03</rscale>
<asrwt>0</asrwt>
<pdfrwt beam="1">  1        2 0.10198605E-01 0.26043447E+03</pdfrwt>
<pdfrwt beam="2">  1       -2 0.33931268E-01 0.26043447E+03</pdfrwt>
<totfact> 0.50434784E+03</totfact>
</mgrwt>
</event>
<event>
 4    1  0.1305170E-003  0.2073179E+03  0.7818608E-02  0.1143708E+00
         -2   -1    0    0    0  501 -0.00000000000E+00  0.00000000000E+00  0.77967454711E+01  0.77967458881E+01  0.25500000000E-02 0. -1.
          2   -1    0    0  501    0  0.00000000000E+00 -0.00000000000E+00 -0.13781614347E+04  0.13781614347E+04  0.25500000000E-02 0.  1.
    5000001    1    1    2    0    0  0.45474201778E+02 -0.48438452791E+02 -0.55114689887E+03  0.56045168469E+03  0.77000000000E+02 0.  0.
   -5000001    1    1    2    0    0 -0.45474201778E+02  0.48438452791E+02 -0.81921779038E+03  0.82550649592E+03  0.77000000000E+02 0.  0.
<mgrwt>
<rscale>  0 0.20731786E+03</rscale>
<asrwt>0</asrwt>
<pdfrwt beam="1">  1        2 0.19688005E+00 0.20731786E+03</pdfrwt>
<pdfrwt beam="2">  1       -2 0.11138217E-02 0.20731786E+03</pdfrwt>
<totfact> 0.32245937E+04</totfact>
</mgrwt>
</event>
<event>
 4    1  0.1305170E-003  0.3215648E+03  0.7818608E-02  0.1074931E+00
         -2   -1    0    0    0  501 -0.00000000000E+00  0.00000000000E+00  0.75996653189E+02  0.75996653232E+02  0.25500000000E-02 0. -1.
          2   -1    0    0  501    0  0.00000000000E+00 -0.00000000000E+00 -0.34015939837E+03  0.34015939838E+03  0.25500000000E-02 0.  1.
    5000001    1    1    2    0    0 -0.96259938568E+02  0.68103769046E+02 -0.23247574997E+03  0.27180521234E+03  0.77000000000E+02 0.  0.
   -5000001    1    1    2    0    0  0.96259938568E+02 -0.68103769046E+02 -0.31686995205E+02  0.14435083927E+03  0.77000000000E+02 0.  0.
<mgrwt>
<rscale>  0 0.32156477E+03</rscale>
<asrwt>0</asrwt>
<pdfrwt beam="1">  1        2 0.48594199E-01 0.32156477E+03</pdfrwt>
<pdfrwt beam="2">  1       -2 0.10856665E-01 0.32156477E+03</pdfrwt>
<totfact> 0.60129970E+03</totfact>
</mgrwt>
</event>
<event>
 4    1  0.1305170E-003  0.1634177E+03  0.7818608E-02  0.1184891E+00
          2   -1    0    0  501    0  0.00000000000E+00  0.00000000000E+00  0.72953452190E+03  0.72953452190E+03  0.25500000000E-02 0.  1.
         -2   -1    0    0    0  501 -0.00000000000E+00 -0.00000000000E+00 -0.91514999039E+01  0.91515002592E+01  0.25500000000E-02 0. -1.
    5000001    1    1    2    0    0 -0.23514013738E+02  0.13202012712E+02  0.38047384121E+03  0.38912279017E+03  0.77000000000E+02 0.  0.
   -5000001    1    1    2    0    0  0.23514013738E+02 -0.13202012712E+02  0.33990918078E+03  0.34956323199E+03  0.77000000000E+02 0.  0.
<mgrwt>
<rscale>  0 0.16341769E+03</rscale>
<asrwt>0</asrwt>
<pdfrwt beam="1">  1        2 0.10421928E+00 0.16341769E+03</pdfrwt>
<pdfrwt beam="2">  1       -2 0.13073564E-02 0.16341769E+03</pdfrwt>
<totfact> 0.59705840E+04</totfact>
</mgrwt>
</event>
<event>
 4    1  0.1305170E-003  0.1715697E+03  0.7818608E-02  0.1176221E+00
         -2   -1    0    0    0  501 -0.00000000000E+00  0.00000000000E+00  0.46032575965E+01  0.46032583028E+01  0.25500000000E-02 0. -1.
          2   -1    0    0  501    0  0.00000000000E+00 -0.00000000000E+00 -0.15986583803E+04  0.15986583803E+04  0.25500000000E-02 0.  1.
    5000001    1    1    2    0    0 -0.53402333801E+01  0.35720914775E+02 -0.69232762302E+03  0.69753210639E+03  0.77000000000E+02 0.  0.
   -5000001    1    1    2    0    0  0.53402333801E+01 -0.35720914775E+02 -0.90172749965E+03  0.90572953218E+03  0.77000000000E+02 0.  0.
<mgrwt>
<rscale>  0 0.17156966E+03</rscale>
<asrwt>0</asrwt>
<pdfrwt beam="1">  1        2 0.22837941E+00 0.17156966E+03</pdfrwt>
<pdfrwt beam="2">  1       -2 0.65760930E-03 0.17156966E+03</pdfrwt>
<totfact> 0.52662721E+04</totfact>
</mgrwt>
</event>
<event>
 4    1  0.1305170E-003  0.2791966E+03  0.7818608E-02  0.1096129E+00
         -2   -1    0    0    0  501 -0.00000000000E+00  0.00000000000E+00  0.19494652309E+02  0.19494652476E+02  0.25500000000E-02 0. -1.
          2   -1    0    0  501    0  0.00000000000E+00 -0.00000000000E+00 -0.99964269685E+03  0.99964269686E+03  0.25500000000E-02 0.  1.
    5000001    1    1    2    0    0  0.92949671684E+01  0.11540013025E+03 -0.53553398356E+03  0.55328946676E+03  0.77000000000E+02 0.  0.
   -5000001    1    1    2    0    0 -0.92949671684E+01 -0.11540013025E+03 -0.44461406099E+03  0.46584788258E+03  0.77000000000E+02 0.  0.
<mgrwt>
<rscale>  0 0.27919661E+03</rscale>
<asrwt>0</asrwt>
<pdfrwt beam="1">  1        2 0.14280607E+00 0.27919661E+03</pdfrwt>
<pdfrwt beam="2">  1       -2 0.27849510E-02 0.27919661E+03</pdfrwt>
<totfact> 0.13758551E+04</totfact>
</mgrwt>
</event>
<event>
 4    1  0.1305170E-003  0.4268287E+03  0.7818608E-02  0.1034866E+00
         -2   -1    0    0    0  501 -0.00000000000E+00  0.00000000000E+00  0.14731211833E+03  0.14731211835E+03  0.25500000000E-02 0. -1.
          2   -1    0    0  501    0  0.00000000000E+00 -0.00000000000E+00 -0.30917814300E+03  0.30917814301E+03  0.25500000000E-02 0.  1.
    5000001    1    1    2    0    0 -0.82578637828E+01  0.19740902534E+03 -0.10664918111E+03  0.23736377869E+03  0.77000000000E+02 0.  0.
   -5000001    1    1    2    0    0  0.82578637828E+01 -0.19740902534E+03 -0.55216843560E+02  0.21912648268E+03  0.77000000000E+02 0.  0.
<mgrwt>
<rscale>  0 0.42682871E+03</rscale>
<asrwt>0</asrwt>
<pdfrwt beam="1">  1        2 0.44168306E-01 0.42682871E+03</pdfrwt>
<pdfrwt beam="2">  1       -2 0.21044588E-01 0.42682871E+03</pdfrwt>
<totfact> 0.22249470E+03</totfact>
</mgrwt>
</event>
<event>
 4    1  0.1305170E-003  0.1744404E+03  0.7818608E-02  0.1173295E+00
          2   -1    0    0  501    0  0.00000000000E+00  0.00000000000E+00  0.74832565464E+01  0.74832569809E+01  0.25500000000E-02 0.  1.
         -2   -1    0    0    0  501 -0.00000000000E+00 -0.00000000000E+00 -0.10165844354E+04  0.10165844354E+04  0.25500000000E-02 0. -1.
    5000001    1    1    2    0    0  0.34303263728E+02 -0.21545271318E+02 -0.46862482618E+03  0.47663312970E+03  0.77000000000E+02 0.  0.
   -5000001    1    1    2    0    0 -0.34303263728E+02  0.21545271318E+02 -0.54047635270E+03  0.54743456270E+03  0.77000000000E+02 0.  0.
<mgrwt>
<rscale>  0 0.17444039E+03</rscale>
<asrwt>0</asrwt>
<pdfrwt beam="1">  1        2 0.10690373E-02 0.17444039E+03</pdfrwt>
<pdfrwt beam="2">  1       -2 0.14522626E+00 0.17444039E+03</pdfrwt>
<totfact> 0.43814532E+03</totfact>
</mgrwt>
</event>
<event>
 4    1  0.1305170E-003  0.2064138E+03  0.7818608E-02  0.1144438E+00
          2   -1    0    0  501    0  0.00000000000E+00  0.00000000000E+00  0.88570441592E+03  0.88570441593E+03  0.25500000000E-02 0.  1.
         -2   -1    0    0    0  501 -0.00000000000E+00 -0.00000000000E+00 -0.12026203972E+02  0.12026204243E+02  0.25500000000E-02 0. -1.
    5000001    1    1    2    0    0 -0.26019906029E+02 -0.55417894788E+02  0.57260622460E+03  0.58099489415E+03  0.77000000000E+02 0.  0.
   -5000001    1    1    2    0    0  0.26019906029E+02  0.55417894788E+02  0.30107198735E+03  0.31673572602E+03  0.77000000000E+02 0.  0.
<mgrwt>
<rscale>  0 0.20641378E+03</rscale>
<asrwt>0</asrwt>
<pdfrwt beam="1">  1        2 0.12652918E+00 0.20641378E+03</pdfrwt>
<pdfrwt beam="2">  1       -2 0.17180295E-02 0.20641378E+03</pdfrwt>
<totfact> 0.32307321E+04</totfact>
</mgrwt>
</event>
<event>
 4    1  0.1305170E-003  0.2142982E+03  0.7818608E-02  0.1138207E+00
         -2   -1    0    0    0  501 -0.00000000000E+00  0.00000000000E+00  0.87527057283E+02  0.87527057320E+02  0.25500000000E-02 0. -1.
          2   -1    0    0  501    0  0.00000000000E+00 -0.00000000000E+00 -0.13117001917E+03  0.13117001920E+03  0.25500000000E-02 0.  1.
    5000001    1    1    2    0    0 -0.55738368191E+02  0.30835373451E+02  0.17628719595E+02  0.10147589713E+03  0.77000000000E+02 0.  0.
   -5000001    1    1    2    0    0  0.55738368191E+02 -0.30835373451E+02 -0.61271681485E+02  0.11722117939E+03  0.77000000000E+02 0.  0.
<mgrwt>
<rscale>  0 0.21429816E+03</rscale>
<asrwt>0</asrwt>
<pdfrwt beam="1">  1        2 0.18738574E-01 0.21429816E+03</pdfrwt>
<pdfrwt beam="2">  1       -2 0.12503865E-01 0.21429816E+03</pdfrwt>
<totfact> 0.13443070E+04</totfact>
</mgrwt>
</event>
<event>
 4    1  0.1305170E-003  0.2083234E+03  0.7818608E-02  0.1142901E+00
         -2   -1    0    0    0  501 -0.00000000000E+00  0.00000000000E+00  0.16983092042E+02  0.16983092234E+02  0.25500000000E-02 0. -1.
          2   -1    0    0  501    0  0.00000000000E+00 -0.00000000000E+00 -0.63885047854E+03  0.63885047854E+03  0.25500000000E-02 0.  1.
    5000001    1    1    2    0    0 -0.30803502709E+02 -0.53096821813E+01 -0.50863180637E+03  0.51537594332E+03  0.77000000000E+02 0.  0.
   -5000001    1    1    2    0    0  0.30803502709E+02  0.53096821813E+01 -0.11323558013E+03  0.14045762746E+03  0.77000000000E+02 0.  0.
<mgrwt>
<rscale>  0 0.20832337E+03</rscale>
<asrwt>0</asrwt>
<pdfrwt beam="1">  1        2 0.91264339E-01 0.20832337E+03</pdfrwt>
<pdfrwt beam="2">  1       -2 0.24261564E-02 0.20832337E+03</pdfrwt>
<totfact> 0.28925632E+04</totfact>
</mgrwt>
</event>
<event>
 4    1  0.1305170E-003  0.2471591E+03  0.7818608E-02  0.1115113E+00
         -2   -1    0    0    0  501 -0.00000000000E+00  0.00000000000E+00  0.68720250886E+02  0.68720250933E+02  0.25500000000E-02 0. -1.
          2   -1    0    0  501    0  0.00000000000E+00 -0.00000000000E+00 -0.22223290118E+03  0.22223290119E+03  0.25500000000E-02 0.  1.
    5000001    1    1    2    0    0  0.62170654679E+02 -0.22308725141E+02  0.63171841858E+01  0.10164534587E+03  0.77000000000E+02 0.  0.
   -5000001    1    1    2    0    0 -0.62170654679E+02  0.22308725141E+02 -0.15982983448E+03  0.18930780626E+03  0.77000000000E+02 0.  0.
<mgrwt>
<rscale>  0 0.24715906E+03</rscale>
<asrwt>0</asrwt>
<pdfrwt beam="1">  1        2 0.31747557E-01 0.24715906E+03</pdfrwt>
<pdfrwt beam="2">  1       -2 0.98171788E-02 0.24715906E+03</pdfrwt>
<totfact> 0.11072500E+04</totfact>
</mgrwt>
</event>
<event>
 4    1  0.1305170E-003  0.2149154E+03  0.7818608E-02  0.1137732E+00
         -2   -1    0    0    0  501 -0.00000000000E+00  0.00000000000E+00  0.32151130180E+02  0.32151130281E+02  0.25500000000E-02 0. -1.
          2   -1    0    0  501    0  0.00000000000E+00 -0.00000000000E+00 -0.35915259679E+03  0.35915259680E+03  0.25500000000E-02 0.  1.
    5000001    1    1    2    0    0 -0.58042526447E+02  0.43254434315E+02 -0.12808847713E+03  0.16605884179E+03  0.77000000000E+02 0.  0.
   -5000001    1    1    2    0    0  0.58042526447E+02 -0.43254434315E+02 -0.19891298948E+03  0.22524488529E+03  0.77000000000E+02 0.  0.
<mgrwt>
<rscale>  0 0.21491544E+03</rscale>
<asrwt>0</asrwt>
<pdfrwt beam="1">  1        2 0.51307512E-01 0.21491544E+03</pdfrwt>
<pdfrwt beam="2">  1       -2 0.45930188E-02 0.21491544E+03</pdfrwt>
<totfact> 0.21122233E+04</totfact>
</mgrwt>
</event>
<event>
 4    1  0.1305170E-003  0.4446755E+03  0.7818608E-02  0.1029322E+00
          2   -1    0    0  501    0  0.00000000000E+00  0.00000000000E+00  0.24031461760E+03  0.24031461761E+03  0.25500000000E-02 0.  1.
         -2   -1    0    0    0  501 -0.00000000000E+00 -0.00000000000E+00 -0.20570568723E+03  0.20570568724E+03  0.25500000000E-02 0. -1.
    5000001    1    1    2    0    0 -0.76357618927E+02 -0.16325564924E+03  0.12260858177E+03  0.23118122177E+03  0.77000000000E+02 0.  0.
   -5000001    1    1    2    0    0  0.76357618927E+02  0.16325564924E+03 -0.87999651395E+02  0.21483908309E+03  0.77000000000E+02 0.  0.
<mgrwt>
<rscale>  0 0.44467554E+03</rscale>
<asrwt>0</asrwt>
<pdfrwt beam="1">  1        2 0.34330660E-01 0.44467554E+03</pdfrwt>
<pdfrwt beam="2">  1       -2 0.29386527E-01 0.44467554E+03</pdfrwt>
<totfact> 0.16181091E+03</totfact>
</mgrwt>
</event>
<event>
 4    1  0.1305170E-003  0.6021459E+03  0.7818608E-02  0.9900964E-01
         -2   -1    0    0    0  501 -0.00000000000E+00  0.00000000000E+00  0.51173666078E+02  0.51173666142E+02  0.25500000000E-02 0. -1.
          2   -1    0    0  501    0  0.00000000000E+00 -0.00000000000E+00 -0.17713193876E+04  0.17713193876E+04  0.25500000000E-02 0.  1.
    5000001    1    1    2    0    0  0.14191400334E+03 -0.22953933997E+03 -0.53006914044E+03  0.59977511335E+03  0.77000000000E+02 0.  0.
   -5000001    1    1    2    0    0 -0.14191400334E+03  0.22953933997E+03 -0.11900765811E+04  0.12227179404E+04  0.77000000000E+02 0.  0.
<mgrwt>
<rscale>  0 0.60214585E+03</rscale>
<asrwt>0</asrwt>
<pdfrwt beam="1">  1        2 0.25304559E+00 0.60214585E+03</pdfrwt>
<pdfrwt beam="2">  1       -2 0.73105249E-02 0.60214585E+03</pdfrwt>
<totfact> 0.12218607E+03</totfact>
</mgrwt>
</event>
<event>
 4    1  0.1305170E-003  0.5132664E+03  0.7818608E-02  0.1010373E+00
         -2   -1    0    0    0  501 -0.00000000000E+00  0.00000000000E+00  0.67410196848E+02  0.67410196896E+02  0.25500000000E-02 0. -1.
          2   -1    0    0  501    0  0.00000000000E+00 -0.00000000000E+00 -0.97701240157E+03  0.97701240157E+03  0.25500000000E-02 0.  1.
    5000001    1    1    2    0    0 -0.19749196263E+03  0.75638103974E+02 -0.20386628913E+03  0.30366867129E+03  0.77000000000E+02 0.  0.
   -5000001    1    1    2    0    0  0.19749196263E+03 -0.75638103974E+02 -0.70573591559E+03  0.74075392718E+03  0.77000000000E+02 0.  0.
<mgrwt>
<rscale>  0 0.51326640E+03</rscale>
<asrwt>0</asrwt>
<pdfrwt beam="1">  1        2 0.13957319E+00 0.51326640E+03</pdfrwt>
<pdfrwt beam="2">  1       -2 0.96300287E-02 0.51326640E+03</pdfrwt>
<totfact> 0.21228063E+03</totfact>
</mgrwt>
</event>
<event>
 4    1  0.1305170E-003  0.3555855E+03  0.7818608E-02  0.1060346E+00
          2   -1    0    0  501    0  0.00000000000E+00  0.00000000000E+00  0.21630752487E+04  0.21630752487E+04  0.25500000000E-02 0.  1.
         -2   -1    0    0    0  501 -0.00000000000E+00 -0.00000000000E+00 -0.14613576283E+02  0.14613576506E+02  0.25500000000E-02 0. -1.
    5000001    1    1    2    0    0  0.12489150306E+03  0.63859245650E+02  0.15488243598E+04  0.15570683313E+04  0.77000000000E+02 0.  0.
   -5000001    1    1    2    0    0 -0.12489150306E+03 -0.63859245650E+02  0.59963731263E+03  0.62062049393E+03  0.77000000000E+02 0.  0.
<mgrwt>
<rscale>  0 0.35558552E+03</rscale>
<asrwt>0</asrwt>
<pdfrwt beam="1">  1        2 0.30901088E+00 0.35558552E+03</pdfrwt>
<pdfrwt beam="2">  1       -2 0.20876529E-02 0.35558552E+03</pdfrwt>
<totfact> 0.53354741E+03</totfact>
</mgrwt>
</event>
<event>
 4    1  0.1305170E-003  0.1959679E+03  0.7818608E-02  0.1153186E+00
          2   -1    0    0  501    0  0.00000000000E+00  0.00000000000E+00  0.10994238517E+03  0.10994238520E+03  0.25500000000E-02 0.  1.
         -2   -1    0    0    0  501 -0.00000000000E+00 -0.00000000000E+00 -0.87326190725E+02  0.87326190762E+02  0.25500000000E-02 0. -1.
    5000001    1    1    2    0    0  0.90932784297E+01 -0.59902210600E+02  0.12256237965E+02  0.98742989202E+02  0.77000000000E+02 0.  0.
   -5000001    1    1    2    0    0 -0.90932784297E+01  0.59902210600E+02  0.10359956476E+02  0.98525586756E+02  0.77000000000E+02 0.  0.
<mgrwt>
<rscale>  0 0.19596785E+03</rscale>
<asrwt>0</asrwt>
<pdfrwt beam="1">  1        2 0.15706055E-01 0.19596785E+03</pdfrwt>
<pdfrwt beam="2">  1       -2 0.12475170E-01 0.19596785E+03</pdfrwt>
<totfact> 0.16458885E+04</totfact>
</mgrwt>
</event>
<event>
 4    1  0.1305170E-003  0.2207432E+03  0.7818608E-02  0.1133330E+00
         -2   -1    0    0    0  501 -0.00000000000E+00  0.00000000000E+00  0.46318822624E+01  0.46318829644E+01  0.25500000000E-02 0. -1.
          2   -1    0    0  501    0  0.00000000000E+00 -0.00000000000E+00 -0.26300080920E+04  0.26300080920E+04  0.25500000000E-02 0.  1.
    5000001    1    1    2    0    0 -0.41944292612E+02  0.52107578289E+02 -0.18160084223E+04  0.18188705598E+04  0.77000000000E+02 0.  0.
   -5000001    1    1    2    0    0  0.41944292612E+02 -0.52107578289E+02 -0.80936778742E+03  0.81576941516E+03  0.77000000000E+02 0.  0.
<mgrwt>
<rscale>  0 0.22074319E+03</rscale>
<asrwt>0</asrwt>
<pdfrwt beam="1">  1        2 0.37571449E+00 0.22074319E+03</pdfrwt>
<pdfrwt beam="2">  1       -2 0.66169920E-03 0.22074319E+03</pdfrwt>
<totfact> 0.16651777E+04</totfact>
</mgrwt>
</event>
<event>
 4    1  0.1305170E-003  0.1992657E+03  0.7818608E-02  0.1150360E+00
          2   -1    0    0  501    0  0.00000000000E+00  0.00000000000E+00  0.27319934111E+03  0.27319934112E+03  0.25500000000E-02 0.  1.
         -2   -1    0    0    0  501 -0.00000000000E+00 -0.00000000000E+00 -0.36335030791E+02  0.36335030881E+02  0.25500000000E-02 0. -1.
    5000001    1    1    2    0    0 -0.44770583066E+02  0.21414423892E+02  0.57577835160E+02  0.10819976784E+03  0.77000000000E+02 0.  0.
   -5000001    1    1    2    0    0  0.44770583066E+02 -0.21414423892E+02  0.17928647516E+03  0.20133460416E+03  0.77000000000E+02 0.  0.
<mgrwt>
<rscale>  0 0.19926572E+03</rscale>
<asrwt>0</asrwt>
<pdfrwt beam="1">  1        2 0.39028480E-01 0.19926572E+03</pdfrwt>
<pdfrwt beam="2">  1       -2 0.51907184E-02 0.19926572E+03</pdfrwt>
<totfact> 0.23399310E+04</totfact>
</mgrwt>
</event>
<event>
 4    1  0.1305170E-003  0.2378484E+03  0.7818608E-02  0.1121235E+00
          2   -1    0    0  501    0  0.00000000000E+00  0.00000000000E+00  0.27296093227E+03  0.27296093228E+03  0.25500000000E-02 0.  1.
         -2   -1    0    0    0  501 -0.00000000000E+00 -0.00000000000E+00 -0.51813138008E+02  0.51813138071E+02  0.25500000000E-02 0. -1.
    5000001    1    1    2    0    0 -0.46657675141E+02  0.77424547020E+02  0.10167598296E+03  0.15632819529E+03  0.77000000000E+02 0.  0.
   -5000001    1    1    2    0    0  0.46657675141E+02 -0.77424547020E+02  0.11947181130E+03  0.16844587506E+03  0.77000000000E+02 0.  0.
<mgrwt>
<rscale>  0 0.23784838E+03</rscale>
<asrwt>0</asrwt>
<pdfrwt beam="1">  1        2 0.38994419E-01 0.23784838E+03</pdfrwt>
<pdfrwt beam="2">  1       -2 0.74018769E-02 0.23784838E+03</pdfrwt>
<totfact> 0.13764489E+04</totfact>
</mgrwt>
</event>
<event>
 4    1  0.1305170E-003  0.2134350E+03  0.7818608E-02  0.1138874E+00
         -2   -1    0    0    0  501 -0.00000000000E+00  0.00000000000E+00  0.68903515254E+01  0.68903519972E+01  0.25500000000E-02 0. -1.
          2   -1    0    0  501    0  0.00000000000E+00 -0.00000000000E+00 -0.16528361853E+04  0.16528361853E+04  0.25500000000E-02 0.  1.
    5000001    1    1    2    0    0 -0.68047896243E+02  0.28331454458E+02 -0.78299110437E+03  0.79021342498E+03  0.77000000000E+02 0.  0.
   -5000001    1    1    2    0    0  0.68047896243E+02 -0.28331454458E+02 -0.86295472940E+03  0.86951311232E+03  0.77000000000E+02 0.  0.
<mgrwt>
<rscale>  0 0.21343498E+03</rscale>
<asrwt>0</asrwt>
<pdfrwt beam="1">  1        2 0.23611920E+00 0.21343498E+03</pdfrwt>
<pdfrwt beam="2">  1       -2 0.98433702E-03 0.21343498E+03</pdfrwt>
<totfact> 0.28150020E+04</totfact>
</mgrwt>
</event>
<event>
 4    1  0.1305170E-003  0.3126494E+03  0.7818608E-02  0.1079083E+00
          2   -1    0    0  501    0  0.00000000000E+00  0.00000000000E+00  0.10101573966E+04  0.10101573966E+04  0.25500000000E-02 0.  1.
         -2   -1    0    0    0  501 -0.00000000000E+00 -0.00000000000E+00 -0.24191690017E+02  0.24191690152E+02  0.25500000000E-02 0. -1.
    5000001    1    1    2    0    0 -0.10068565181E+03 -0.60077438127E+02  0.26469536101E+03  0.29956557411E+03  0.77000000000E+02 0.  0.
   -5000001    1    1    2    0    0  0.10068565181E+03  0.60077438127E+02  0.72127034553E+03  0.73478351260E+03  0.77000000000E+02 0.  0.
<mgrwt>
<rscale>  0 0.31264942E+03</rscale>
<asrwt>0</asrwt>
<pdfrwt beam="1">  1        2 0.14430820E+00 0.31264942E+03</pdfrwt>
<pdfrwt beam="2">  1       -2 0.34559556E-02 0.31264942E+03</pdfrwt>
<totfact> 0.98620098E+03</totfact>
</mgrwt>
</event>
<event>
 4    1  0.1305170E-003  0.2456262E+03  0.7818608E-02  0.1116101E+00
          2   -1    0    0  501    0  0.00000000000E+00  0.00000000000E+00  0.12556117395E+04  0.12556117395E+04  0.25500000000E-02 0.  1.
         -2   -1    0    0    0  501 -0.00000000000E+00 -0.00000000000E+00 -0.12012516651E+02  0.12012516921E+02  0.25500000000E-02 0. -1.
    5000001    1    1    2    0    0  0.73431369337E+00  0.91293963699E+02  0.76948559110E+03  0.77869904452E+03  0.77000000000E+02 0.  0.
   -5000001    1    1    2    0    0 -0.73431369337E+00 -0.91293963699E+02  0.47411363171E+03  0.48892521186E+03  0.77000000000E+02 0.  0.
<mgrwt>
<rscale>  0 0.24562620E+03</rscale>
<asrwt>0</asrwt>
<pdfrwt beam="1">  1        2 0.17937309E+00 0.24562620E+03</pdfrwt>
<pdfrwt beam="2">  1       -2 0.17160740E-02 0.24562620E+03</pdfrwt>
<totfact> 0.20106132E+04</totfact>
</mgrwt>
</event>
<event>
 4    1  0.1305170E-003  0.2478103E+03  0.7818608E-02  0.1114697E+00
         -2   -1    0    0    0  501 -0.00000000000E+00  0.00000000000E+00  0.39510944449E+02  0.39510944531E+02  0.25500000000E-02 0. -1.
          2   -1    0    0  501    0  0.00000000000E+00 -0.00000000000E+00 -0.38856285810E+03  0.38856285811E+03  0.25500000000E-02 0.  1.
    5000001    1    1    2    0    0 -0.78425972589E+02  0.40578387533E+02 -0.24418741091E+03  0.27083893804E+03  0.77000000000E+02 0.  0.
   -5000001    1    1    2    0    0  0.78425972589E+02 -0.40578387533E+02 -0.10486450275E+03  0.15723486461E+03  0.77000000000E+02 0.  0.
<mgrwt>
<rscale>  0 0.24781029E+03</rscale>
<asrwt>0</asrwt>
<pdfrwt beam="1">  1        2 0.55508978E-01 0.24781029E+03</pdfrwt>
<pdfrwt beam="2">  1       -2 0.56444209E-02 0.24781029E+03</pdfrwt>
<totfact> 0.14323769E+04</totfact>
</mgrwt>
</event>
<event>
 4    1  0.1305170E-003  0.2283320E+03  0.7818608E-02  0.1127819E+00
          2   -1    0    0  501    0  0.00000000000E+00  0.00000000000E+00  0.29942105599E+03  0.29942105600E+03  0.25500000000E-02 0.  1.
         -2   -1    0    0    0  501 -0.00000000000E+00 -0.00000000000E+00 -0.43530254491E+02  0.43530254566E+02  0.25500000000E-02 0. -1.
    5000001    1    1    2    0    0 -0.58741141701E+02  0.32121389326E+02  0.20486361515E+03  0.22886766087E+03  0.77000000000E+02 0.  0.
   -5000001    1    1    2    0    0  0.58741141701E+02 -0.32121389326E+02  0.51027186346E+02  0.11408364969E+03  0.77000000000E+02 0.  0.
<mgrwt>
<rscale>  0 0.22833199E+03</rscale>
<asrwt>0</asrwt>
<pdfrwt beam="1">  1        2 0.42774435E-01 0.22833199E+03</pdfrwt>
<pdfrwt beam="2">  1       -2 0.62186080E-02 0.22833199E+03</pdfrwt>
<totfact> 0.16261738E+04</totfact>
</mgrwt>
</event>
<event>
 4    1  0.1305170E-003  0.4223049E+03  0.7818608E-02  0.1036319E+00
         -2   -1    0    0    0  501 -0.00000000000E+00  0.00000000000E+00  0.64479968187E+02  0.64479968238E+02  0.25500000000E-02 0. -1.
          2   -1    0    0  501    0  0.00000000000E+00 -0.00000000000E+00 -0.69146055367E+03  0.69146055368E+03  0.25500000000E-02 0.  1.
    5000001    1    1    2    0    0  0.15340527380E+03  0.46299077592E+02 -0.51742526247E+03  0.54711487354E+03  0.77000000000E+02 0.  0.
   -5000001    1    1    2    0    0 -0.15340527380E+03 -0.46299077592E+02 -0.10955532302E+03  0.20882564837E+03  0.77000000000E+02 0.  0.
<mgrwt>
<rscale>  0 0.42230489E+03</rscale>
<asrwt>0</asrwt>
<pdfrwt beam="1">  1        2 0.98780074E-01 0.42230489E+03</pdfrwt>
<pdfrwt beam="2">  1       -2 0.92114245E-02 0.42230489E+03</pdfrwt>
<totfact> 0.35477563E+03</totfact>
</mgrwt>
</event>
<event>
 4    1  0.1305170E-003  0.2208543E+03  0.7818608E-02  0.1133248E+00
         -2   -1    0    0    0  501 -0.00000000000E+00  0.00000000000E+00  0.57979490217E+01  0.57979495825E+01  0.25500000000E-02 0. -1.
          2   -1    0    0  501    0  0.00000000000E+00 -0.00000000000E+00 -0.21031849401E+04  0.21031849401E+04  0.25500000000E-02 0.  1.
    5000001    1    1    2    0    0 -0.48158975338E+02 -0.61361323374E+02 -0.92034256464E+03  0.92684623062E+03  0.77000000000E+02 0.  0.
   -5000001    1    1    2    0    0  0.48158975338E+02  0.61361323374E+02 -0.11770444264E+04  0.11821366590E+04  0.77000000000E+02 0.  0.
<mgrwt>
<rscale>  0 0.22085434E+03</rscale>
<asrwt>0</asrwt>
<pdfrwt beam="1">  1        2 0.30045450E+00 0.22085434E+03</pdfrwt>
<pdfrwt beam="2">  1       -2 0.82827982E-03 0.22085434E+03</pdfrwt>
<totfact> 0.21866507E+04</totfact>
</mgrwt>
</event>
<event>
 4    1  0.1305170E-003  0.2252608E+03  0.7818608E-02  0.1130021E+00
         -2   -1    0    0    0  501 -0.00000000000E+00  0.00000000000E+00  0.21874137279E+02  0.21874137427E+02  0.25500000000E-02 0. -1.
          2   -1    0    0  501    0  0.00000000000E+00 -0.00000000000E+00 -0.57993620523E+03  0.57993620523E+03  0.25500000000E-02 0.  1.
    5000001    1    1    2    0    0 -0.71050589655E+02 -0.85964083121E+01 -0.38704232340E+03  0.40106463896E+03  0.77000000000E+02 0.  0.
   -5000001    1    1    2    0    0  0.71050589655E+02  0.85964083121E+01 -0.17101974455E+03  0.20074570370E+03  0.77000000000E+02 0.  0.
<mgrwt>
<rscale>  0 0.22526078E+03</rscale>
<asrwt>0</asrwt>
<pdfrwt beam="1">  1        2 0.82848020E-01 0.22526078E+03</pdfrwt>
<pdfrwt beam="2">  1       -2 0.31248771E-02 0.22526078E+03</pdfrwt>
<totfact> 0.22337027E+04</totfact>
</mgrwt>
</event>
<event>
 4    1  0.1305170E-003  0.3367718E+03  0.7818608E-02  0.1068179E+00
         -2   -1    0    0    0  501 -0.00000000000E+00  0.00000000000E+00  0.16248236115E+03  0.16248236117E+03  0.25500000000E-02 0. -1.
          2   -1    0    0  501    0  0.00000000000E+00 -0.00000000000E+00 -0.17450395837E+03  0.17450395839E+03  0.25500000000E-02 0.  1.
    5000001    1    1    2    0    0 -0.33080968530E+02  0.13544867478E+03 -0.60672702288E+02  0.17044315998E+03  0.77000000000E+02 0.  0.
   -5000001    1    1    2    0    0  0.33080968530E+02 -0.13544867478E+03  0.48651105072E+02  0.16654315958E+03  0.77000000000E+02 0.  0.
<mgrwt>
<rscale>  0 0.33677182E+03</rscale>
<asrwt>0</asrwt>
<pdfrwt beam="1">  1        2 0.24929137E-01 0.33677182E+03</pdfrwt>
<pdfrwt beam="2">  1       -2 0.23211766E-01 0.33677182E+03</pdfrwt>
<totfact> 0.35086303E+03</totfact>
</mgrwt>
</event>
<event>
 4    1  0.1305170E-003  0.3088462E+03  0.7818608E-02  0.1080900E+00
          2   -1    0    0  501    0  0.00000000000E+00  0.00000000000E+00  0.20270440838E+04  0.20270440838E+04  0.25500000000E-02 0.  1.
         -2   -1    0    0    0  501 -0.00000000000E+00 -0.00000000000E+00 -0.11764167949E+02  0.11764168226E+02  0.25500000000E-02 0. -1.
    5000001    1    1    2    0    0  0.86633021158E+02 -0.80380142554E+02  0.59268508839E+03  0.60923793519E+03  0.77000000000E+02 0.  0.
   -5000001    1    1    2    0    0 -0.86633021158E+02  0.80380142554E+02  0.14225948275E+04  0.14295703168E+04  0.77000000000E+02 0.  0.
<mgrwt>
<rscale>  0 0.30884616E+03</rscale>
<asrwt>0</asrwt>
<pdfrwt beam="1">  1        2 0.28957743E+00 0.30884616E+03</pdfrwt>
<pdfrwt beam="2">  1       -2 0.16805972E-02 0.30884616E+03</pdfrwt>
<totfact> 0.85707900E+03</totfact>
</mgrwt>
</event>
<event>
 4    1  0.1305170E-003  0.1864560E+03  0.7818608E-02  0.1161697E+00
          2   -1    0    0  501    0  0.00000000000E+00  0.00000000000E+00  0.63236903105E+03  0.63236903106E+03  0.25500000000E-02 0.  1.
         -2   -1    0    0    0  501 -0.00000000000E+00 -0.00000000000E+00 -0.13744279916E+02  0.13744280152E+02  0.25500000000E-02 0. -1.
    5000001    1    1    2    0    0 -0.27985229725E+02  0.23195571455E+02  0.17775900696E+03  0.19710015772E+03  0.77000000000E+02 0.  0.
   -5000001    1    1    2    0    0  0.27985229725E+02 -0.23195571455E+02  0.44086574418E+03  0.44901315349E+03  0.77000000000E+02 0.  0.
<mgrwt>
<rscale>  0 0.18645597E+03</rscale>
<asrwt>0</asrwt>
<pdfrwt beam="1">  1        2 0.90338418E-01 0.18645597E+03</pdfrwt>
<pdfrwt beam="2">  1       -2 0.19634689E-02 0.18645597E+03</pdfrwt>
<totfact> 0.39554651E+04</totfact>
</mgrwt>
</event>
<event>
 4    1  0.1305170E-003  0.1024382E+04  0.7818608E-02  0.9282200E-01
          2   -1    0    0  501    0  0.00000000000E+00  0.00000000000E+00  0.11200378916E+04  0.11200378916E+04  0.25500000000E-02 0.  1.
         -2   -1    0    0    0  501 -0.00000000000E+00 -0.00000000000E+00 -0.23422383489E+03  0.23422383490E+03  0.25500000000E-02 0. -1.
    5000001    1    1    2    0    0 -0.39826232873E+03  0.28314925626E+03  0.61841435307E+03  0.79192909777E+03  0.77000000000E+02 0.  0.
   -5000001    1    1    2    0    0  0.39826232873E+03 -0.28314925626E+03  0.26739970360E+03  0.56233262870E+03  0.77000000000E+02 0.  0.
<mgrwt>
<rscale>  0 0.10243819E+04</rscale>
<asrwt>0</asrwt>
<pdfrwt beam="1">  1        2 0.16000541E+00 0.10243819E+04</pdfrwt>
<pdfrwt beam="2">  1       -2 0.33460549E-01 0.10243819E+04</pdfrwt>
<totfact> 0.19743584E+02</totfact>
</mgrwt>
</event>
<event>
 4    1  0.1305170E-003  0.2831947E+03  0.7818608E-02  0.1093957E+00
         -2   -1    0    0    0  501 -0.00000000000E+00  0.00000000000E+00  0.33327385264E+02  0.33327385362E+02  0.25500000000E-02 0. -1.
          2   -1    0    0  501    0  0.00000000000E+00 -0.00000000000E+00 -0.60160171384E+03  0.60160171385E+03  0.25500000000E-02 0.  1.
    5000001    1    1    2    0    0 -0.71833853116E+02 -0.68332048239E+02 -0.13726427181E+03  0.18601035343E+03  0.77000000000E+02 0.  0.
   -5000001    1    1    2    0    0  0.71833853116E+02  0.68332048239E+02 -0.43101005677E+03  0.44891874578E+03  0.77000000000E+02 0.  0.
<mgrwt>
<rscale>  0 0.28319472E+03</rscale>
<asrwt>0</asrwt>
<pdfrwt beam="1">  1        2 0.85943095E-01 0.28319472E+03</pdfrwt>
<pdfrwt beam="2">  1       -2 0.47610554E-02 0.28319472E+03</pdfrwt>
<totfact> 0.11528028E+04</totfact>
</mgrwt>
</event>
<event>
 4    1  0.1305170E-003  0.5865520E+03  0.7818608E-02  0.9933706E-01
          2   -1    0    0  501    0  0.00000000000E+00  0.00000000000E+00  0.66578763332E+02  0.66578763381E+02  0.25500000000E-02 0. -1.
         -2   -1    0    0    0  501 -0.00000000000E+00 -0.00000000000E+00 -0.12918655767E+04  0.12918655767E+04  0.25500000000E-02 0.  1.
    5000001    1    1    2    0    0  0.18434141365E+03 -0.18171065880E+03 -0.87753041081E+03  0.91814440161E+03  0.77000000000E+02 0.  0.
   -5000001    1    1    2    0    0 -0.18434141365E+03  0.18171065880E+03 -0.34775640260E+03  0.44029993852E+03  0.77000000000E+02 0.  0.
<mgrwt>
<rscale>  0 0.58655200E+03</rscale>
<asrwt>0</asrwt>
<pdfrwt beam="1">  1        2 0.95112527E-02 0.58655200E+03</pdfrwt>
<pdfrwt beam="2">  1       -2 0.18455221E+00 0.58655200E+03</pdfrwt>
<totfact> 0.12226151E+02</totfact>
</mgrwt>
</event>
<event>
 4    1  0.1305170E-003  0.2897082E+03  0.7818608E-02  0.1090502E+00
          2   -1    0    0  501    0  0.00000000000E+00  0.00000000000E+00  0.13395768424E+04  0.13395768424E+04  0.25500000000E-02 0.  1.
         -2   -1    0    0    0  501 -0.00000000000E+00 -0.00000000000E+00 -0.15663687935E+02  0.15663688143E+02  0.25500000000E-02 0. -1.
    5000001    1    1    2    0    0 -0.74735205389E+02  0.66788655672E+02  0.99299014485E+03  0.10010017499E+04  0.77000000000E+02 0.  0.
   -5000001    1    1    2    0    0  0.74735205389E+02 -0.66788655672E+02  0.33092300964E+03  0.35423878072E+03  0.77000000000E+02 0.  0.
<mgrwt>
<rscale>  0 0.28970822E+03</rscale>
<asrwt>0</asrwt>
<pdfrwt beam="1">  1        2 0.19136819E+00 0.28970822E+03</pdfrwt>
<pdfrwt beam="2">  1       -2 0.22376689E-02 0.28970822E+03</pdfrwt>
<totfact> 0.12368086E+04</totfact>
</mgrwt>
</event>
<event>
 4    1  0.1305170E-003  0.2247999E+03  0.7818608E-02  0.1130354E+00
          2   -1    0    0  501    0  0.00000000000E+00  0.00000000000E+00  0.16425700957E+02  0.16425701155E+02  0.25500000000E-02 0.  1.
         -2   -1    0    0    0  501 -0.00000000000E+00 -0.00000000000E+00 -0.76914511322E+03  0.76914511322E+03  0.25500000000E-02 0. -1.
    5000001    1    1    2    0    0  0.85877728681E+01  0.69612734343E+02 -0.22871554681E+03  0.25131550684E+03  0.77000000000E+02 0.  0.
   -5000001    1    1    2    0    0 -0.85877728681E+01 -0.69612734343E+02 -0.52400386545E+03  0.53425530754E+03  0.77000000000E+02 0.  0.
<mgrwt>
<rscale>  0 0.22479989E+03</rscale>
<asrwt>0</asrwt>
<pdfrwt beam="1">  1        2 0.23465292E-02 0.22479989E+03</pdfrwt>
<pdfrwt beam="2">  1       -2 0.10987785E+00 0.22479989E+03</pdfrwt>
<totfact> 0.29783894E+03</totfact>
</mgrwt>
</event>
<event>
 4    1  0.1305170E-003  0.2127905E+03  0.7818608E-02  0.1139375E+00
         -2   -1    0    0    0  501 -0.00000000000E+00  0.00000000000E+00  0.14858717861E+02  0.14858718080E+02  0.25500000000E-02 0. -1.
          2   -1    0    0  501    0  0.00000000000E+00 -0.00000000000E+00 -0.76183905529E+03  0.76183905529E+03  0.25500000000E-02 0.  1.
    5000001    1    1    2    0    0  0.37415766328E+01  0.72588856267E+02 -0.33559099564E+03  0.35189978375E+03  0.77000000000E+02 0.  0.
   -5000001    1    1    2    0    0 -0.37415766328E+01 -0.72588856267E+02 -0.41138934179E+03  0.42479798962E+03  0.77000000000E+02 0.  0.
<mgrwt>
<rscale>  0 0.21279052E+03</rscale>
<asrwt>0</asrwt>
<pdfrwt beam="1">  1        2 0.10883413E+00 0.21279052E+03</pdfrwt>
<pdfrwt beam="2">  1       -2 0.21226745E-02 0.21279052E+03</pdfrwt>
<totfact> 0.28650203E+04</totfact>
</mgrwt>
</event>
<event>
 4    1  0.1305170E-003  0.2051114E+03  0.7818608E-02  0.1145497E+00
         -2   -1    0    0    0  501 -0.00000000000E+00  0.00000000000E+00  0.42097438583E+01  0.42097446306E+01  0.25500000000E-02 0. -1.
          2   -1    0    0  501    0  0.00000000000E+00 -0.00000000000E+00 -0.24984107463E+04  0.24984107463E+04  0.25500000000E-02 0.  1.
    5000001    1    1    2    0    0  0.32764725852E+02 -0.54226088015E+02 -0.95460705244E+03  0.95980082333E+03  0.77000000000E+02 0.  0.
   -5000001    1    1    2    0    0 -0.32764725852E+02  0.54226088015E+02 -0.15395939500E+04  0.15428196676E+04  0.77000000000E+02 0.  0.
<mgrwt>
<rscale>  0 0.20511139E+03</rscale>
<asrwt>0</asrwt>
<pdfrwt beam="1">  1        2 0.35691487E+00 0.20511139E+03</pdfrwt>
<pdfrwt beam="2">  1       -2 0.60139363E-03 0.20511139E+03</pdfrwt>
<totfact> 0.22160833E+04</totfact>
</mgrwt>
</event>
<event>
 4    1  0.1305170E-003  0.3154753E+03  0.7818608E-02  0.1077751E+00
         -2   -1    0    0    0  501 -0.00000000000E+00  0.00000000000E+00  0.23415736837E+02  0.23415736976E+02  0.25500000000E-02 0. -1.
          2   -1    0    0  501    0  0.00000000000E+00 -0.00000000000E+00 -0.10625833591E+04  0.10625833591E+04  0.25500000000E-02 0.  1.
    5000001    1    1    2    0    0 -0.83459846297E+02 -0.89181473893E+02 -0.30096182532E+03  0.33380518499E+03  0.77000000000E+02 0.  0.
   -5000001    1    1    2    0    0  0.83459846297E+02  0.89181473893E+02 -0.73820579690E+03  0.75219391104E+03  0.77000000000E+02 0.  0.
<mgrwt>
<rscale>  0 0.31547534E+03</rscale>
<asrwt>0</asrwt>
<pdfrwt beam="1">  1        2 0.15179759E+00 0.31547534E+03</pdfrwt>
<pdfrwt beam="2">  1       -2 0.33451059E-02 0.31547534E+03</pdfrwt>
<totfact> 0.96550281E+03</totfact>
</mgrwt>
</event>
<event>
 4    1  0.1305170E-003  0.1259952E+04  0.7818608E-02  0.9061941E-01
          2   -1    0    0  501    0  0.00000000000E+00  0.00000000000E+00  0.10011811487E+04  0.10011811487E+04  0.25500000000E-02 0.  1.
         -2   -1    0    0    0  501 -0.00000000000E+00 -0.00000000000E+00 -0.39640137761E+03  0.39640137762E+03  0.25500000000E-02 0. -1.
    5000001    1    1    2    0    0  0.29433576178E+03 -0.52234660516E+03  0.10564189674E+03  0.61365195912E+03  0.77000000000E+02 0.  0.
   -5000001    1    1    2    0    0 -0.29433576178E+03  0.52234660516E+03  0.49913787435E+03  0.78393056720E+03  0.77000000000E+02 0.  0.
<mgrwt>
<rscale>  0 0.12599517E+04</rscale>
<asrwt>0</asrwt>
<pdfrwt beam="1">  1        2 0.14302588E+00 0.12599517E+04</pdfrwt>
<pdfrwt beam="2">  1       -2 0.56628769E-01 0.12599517E+04</pdfrwt>
<totfact> 0.80663325E+01</totfact>
</mgrwt>
</event>
<event>
 4    1  0.1305170E-003  0.2070303E+03  0.7818608E-02  0.1143940E+00
         -2   -1    0    0    0  501 -0.00000000000E+00  0.00000000000E+00  0.23477628740E+04  0.23477628740E+04  0.25500000000E-02 0. -1.
          2   -1    0    0  501    0  0.00000000000E+00 -0.00000000000E+00 -0.45640821713E+01  0.45640828836E+01  0.25500000000E-02 0.  1.
    5000001    1    1    2    0    0 -0.15903150746E+02 -0.66743590228E+02  0.10707590017E+04  0.10757143937E+04  0.77000000000E+02 0.  0.
   -5000001    1    1    2    0    0  0.15903150746E+02  0.66743590228E+02  0.12724397901E+04  0.12766125632E+04  0.77000000000E+02 0.  0.
<mgrwt>
<rscale>  0 0.20703027E+03</rscale>
<asrwt>0</asrwt>
<pdfrwt beam="1">  1        2 0.65201324E-03 0.20703027E+03</pdfrwt>
<pdfrwt beam="2">  1       -2 0.33539395E+00 0.20703027E+03</pdfrwt>
<totfact> 0.59414871E+02</totfact>
</mgrwt>
</event>
<event>
 4    1  0.1305170E-003  0.2115999E+03  0.7818608E-02  0.1140305E+00
          2   -1    0    0  501    0  0.00000000000E+00  0.00000000000E+00  0.16872765642E+04  0.16872765642E+04  0.25500000000E-02 0.  1.
         -2   -1    0    0    0  501 -0.00000000000E+00 -0.00000000000E+00 -0.66341430552E+01  0.66341435453E+01  0.25500000000E-02 0. -1.
    5000001    1    1    2    0    0 -0.15593777988E+02 -0.67608384797E+02  0.67039574875E+03  0.67836090656E+03  0.77000000000E+02 0.  0.
   -5000001    1    1    2    0    0  0.15593777988E+02  0.67608384797E+02  0.10102466724E+04  0.10155498012E+04  0.77000000000E+02 0.  0.
<mgrwt>
<rscale>  0 0.21159995E+03</rscale>
<asrwt>0</asrwt>
<pdfrwt beam="1">  1        2 0.24103971E+00 0.21159995E+03</pdfrwt>
<pdfrwt beam="2">  1       -2 0.94773397E-03 0.21159995E+03</pdfrwt>
<totfact> 0.28586741E+04</totfact>
</mgrwt>
</event>
<event>
 4    1  0.1305170E-003  0.1653331E+03  0.7818608E-02  0.1182804E+00
         -2   -1    0    0    0  501 -0.00000000000E+00  0.00000000000E+00  0.78307472178E+01  0.78307476330E+01  0.25500000000E-02 0. -1.
          2   -1    0    0  501    0  0.00000000000E+00 -0.00000000000E+00 -0.87268286985E+03  0.87268286985E+03  0.25500000000E-02 0.  1.
    5000001    1    1    2    0    0  0.13178602117E+02 -0.14087414055E+02 -0.55533639200E+03  0.56098096141E+03  0.77000000000E+02 0.  0.
   -5000001    1    1    2    0    0 -0.13178602117E+02  0.14087414055E+02 -0.30951573063E+03  0.31953265607E+03  0.77000000000E+02 0.  0.
<mgrwt>
<rscale>  0 0.16533311E+03</rscale>
<asrwt>0</asrwt>
<pdfrwt beam="1">  1        2 0.12466892E+00 0.16533311E+03</pdfrwt>
<pdfrwt beam="2">  1       -2 0.11186788E-02 0.16533311E+03</pdfrwt>
<totfact> 0.60147518E+04</totfact>
</mgrwt>
</event>
<event>
 4    1  0.1305170E-003  0.4058941E+03  0.7818608E-02  0.1041758E+00
         -2   -1    0    0    0  501 -0.00000000000E+00  0.00000000000E+00  0.11267324109E+02  0.11267324398E+02  0.25500000000E-02 0. -1.
          2   -1    0    0  501    0  0.00000000000E+00 -0.00000000000E+00 -0.36554818793E+04  0.36554818793E+04  0.25500000000E-02 0.  1.
    5000001    1    1    2    0    0 -0.23088542368E+02  0.18634751327E+03 -0.18207328200E+04  0.18320085912E+04  0.77000000000E+02 0.  0.
   -5000001    1    1    2    0    0  0.23088542368E+02 -0.18634751327E+03 -0.18234817352E+04  0.18347406125E+04  0.77000000000E+02 0.  0.
<mgrwt>
<rscale>  0 0.40589407E+03</rscale>
<asrwt>0</asrwt>
<pdfrwt beam="1">  1        2 0.52221094E+00 0.40589407E+03</pdfrwt>
<pdfrwt beam="2">  1       -2 0.16096201E-02 0.40589407E+03</pdfrwt>
<totfact> 0.12389017E+03</totfact>
</mgrwt>
</event>
<event>
 4    1  0.1305170E-003  0.2582106E+03  0.7818608E-02  0.1108223E+00
         -2   -1    0    0    0  501 -0.00000000000E+00  0.00000000000E+00  0.32109316035E+03  0.32109316036E+03  0.25500000000E-02 0. -1.
          2   -1    0    0  501    0  0.00000000000E+00 -0.00000000000E+00 -0.51910716531E+02  0.51910716594E+02  0.25500000000E-02 0.  1.
    5000001    1    1    2    0    0  0.91467266797E+02 -0.10328190613E+02  0.65822237846E+02  0.13687402753E+03  0.77000000000E+02 0.  0.
   -5000001    1    1    2    0    0 -0.91467266797E+02  0.10328190613E+02  0.20336020597E+03  0.23612984942E+03  0.77000000000E+02 0.  0.
<mgrwt>
<rscale>  0 0.25821058E+03</rscale>
<asrwt>0</asrwt>
<pdfrwt beam="1">  1        2 0.74158166E-02 0.25821058E+03</pdfrwt>
<pdfrwt beam="2">  1       -2 0.45870452E-01 0.25821058E+03</pdfrwt>
<totfact> 0.42412635E+03</totfact>
</mgrwt>
</event>
<event>
 4    1  0.1305170E-003  0.4120919E+03  0.7818608E-02  0.1039671E+00
         -2   -1    0    0    0  501 -0.00000000000E+00  0.00000000000E+00  0.36302038526E+02  0.36302038616E+02  0.25500000000E-02 0. -1.
          2   -1    0    0  501    0  0.00000000000E+00 -0.00000000000E+00 -0.11694917304E+04  0.11694917304E+04  0.25500000000E-02 0.  1.
    5000001    1    1    2    0    0 -0.70572825855E+02  0.90065466983E+02 -0.11867669315E+03  0.18194908515E+03  0.77000000000E+02 0.  0.
   -5000001    1    1    2    0    0  0.70572825855E+02 -0.90065466983E+02 -0.10145129987E+04  0.10238446839E+04  0.77000000000E+02 0.  0.
<mgrwt>
<rscale>  0 0.41209190E+03</rscale>
<asrwt>0</asrwt>
<pdfrwt beam="1">  1        2 0.16707022E+00 0.41209190E+03</pdfrwt>
<pdfrwt beam="2">  1       -2 0.51860062E-02 0.41209190E+03</pdfrwt>
<totfact> 0.43348159E+03</totfact>
</mgrwt>
</event>
<event>
 4    1  0.1305170E-003  0.1946497E+03  0.7818608E-02  0.1154333E+00
         -2   -1    0    0    0  501 -0.00000000000E+00  0.00000000000E+00  0.57020403252E+01  0.57020408954E+01  0.25500000000E-02 0. -1.
          2   -1    0    0  501    0  0.00000000000E+00 -0.00000000000E+00 -0.16611827085E+04  0.16611827085E+04  0.25500000000E-02 0.  1.
    5000001    1    1    2    0    0 -0.30373042957E+02  0.44419003802E+02 -0.60982274895E+03  0.61701568439E+03  0.77000000000E+02 0.  0.
   -5000001    1    1    2    0    0  0.30373042957E+02 -0.44419003802E+02 -0.10456579192E+04  0.10498690650E+04  0.77000000000E+02 0.  0.
<mgrwt>
<rscale>  0 0.19464975E+03</rscale>
<asrwt>0</asrwt>
<pdfrwt beam="1">  1        2 0.23731151E+00 0.19464975E+03</pdfrwt>
<pdfrwt beam="2">  1       -2 0.81457829E-03 0.19464975E+03</pdfrwt>
<totfact> 0.36434997E+04</totfact>
</mgrwt>
</event>
<event>
 4    1  0.1305170E-003  0.1701342E+03  0.7818608E-02  0.1177708E+00
         -2   -1    0    0    0  501 -0.00000000000E+00  0.00000000000E+00  0.69613672453E+01  0.69613677123E+01  0.25500000000E-02 0. -1.
          2   -1    0    0  501    0  0.00000000000E+00 -0.00000000000E+00 -0.10395098005E+04  0.10395098005E+04  0.25500000000E-02 0.  1.
    5000001    1    1    2    0    0 -0.30885927171E+02  0.17694567241E+02 -0.55535589649E+03  0.56179730328E+03  0.77000000000E+02 0.  0.
   -5000001    1    1    2    0    0  0.30885927171E+02 -0.17694567241E+02 -0.47719253677E+03  0.48467386494E+03  0.77000000000E+02 0.  0.
<mgrwt>
<rscale>  0 0.17013418E+03</rscale>
<asrwt>0</asrwt>
<pdfrwt beam="1">  1        2 0.14850130E+00 0.17013418E+03</pdfrwt>
<pdfrwt beam="2">  1       -2 0.99448173E-03 0.17013418E+03</pdfrwt>
<totfact> 0.56818219E+04</totfact>
</mgrwt>
</event>
<event>
 4    1  0.1305170E-003  0.3028475E+03  0.7818608E-02  0.1083826E+00
          2   -1    0    0  501    0  0.00000000000E+00  0.00000000000E+00  0.21243550553E+03  0.21243550555E+03  0.25500000000E-02 0.  1.
         -2   -1    0    0    0  501 -0.00000000000E+00 -0.00000000000E+00 -0.10793465692E+03  0.10793465695E+03  0.25500000000E-02 0. -1.
    5000001    1    1    2    0    0 -0.10969016132E+03 -0.70161010321E+02  0.45102661853E+02  0.15785356811E+03  0.77000000000E+02 0.  0.
   -5000001    1    1    2    0    0  0.10969016132E+03  0.70161010321E+02  0.59398186759E+02  0.16251659438E+03  0.77000000000E+02 0.  0.
<mgrwt>
<rscale>  0 0.30284751E+03</rscale>
<asrwt>0</asrwt>
<pdfrwt beam="1">  1        2 0.30347929E-01 0.30284751E+03</pdfrwt>
<pdfrwt beam="2">  1       -2 0.15419237E-01 0.30284751E+03</pdfrwt>
<totfact> 0.56455957E+03</totfact>
</mgrwt>
</event>
<event>
 4    1  0.1305170E-003  0.2271542E+03  0.7818608E-02  0.1128659E+00
         -2   -1    0    0    0  501 -0.00000000000E+00  0.00000000000E+00  0.29372203726E+02  0.29372203837E+02  0.25500000000E-02 0. -1.
          2   -1    0    0  501    0  0.00000000000E+00 -0.00000000000E+00 -0.43918267903E+03  0.43918267904E+03  0.25500000000E-02 0.  1.
    5000001    1    1    2    0    0  0.20863613920E+02  0.59188271875E+02 -0.31848999295E+03  0.33362166824E+03  0.77000000000E+02 0.  0.
   -5000001    1    1    2    0    0 -0.20863613920E+02 -0.59188271875E+02 -0.91320482360E+02  0.13493321464E+03  0.77000000000E+02 0.  0.
<mgrwt>
<rscale>  0 0.22715425E+03</rscale>
<asrwt>0</asrwt>
<pdfrwt beam="1">  1        2 0.62740379E-01 0.22715425E+03</pdfrwt>
<pdfrwt beam="2">  1       -2 0.41960294E-02 0.22715425E+03</pdfrwt>
<totfact> 0.19559274E+04</totfact>
</mgrwt>
</event>
<event>
 4    1  0.1305170E-003  0.2033119E+03  0.7818608E-02  0.1146974E+00
         -2   -1    0    0    0  501 -0.00000000000E+00  0.00000000000E+00  0.20050521288E+02  0.20050521450E+02  0.25500000000E-02 0. -1.
          2   -1    0    0  501    0  0.00000000000E+00 -0.00000000000E+00 -0.51539467527E+03  0.51539467527E+03  0.25500000000E-02 0.  1.
    5000001    1    1    2    0    0 -0.69433828496E+01  0.58811289877E+02 -0.16875351312E+03  0.19471447449E+03  0.77000000000E+02 0.  0.
   -5000001    1    1    2    0    0  0.69433828496E+01 -0.58811289877E+02 -0.32659064086E+03  0.34073072224E+03  0.77000000000E+02 0.  0.
<mgrwt>
<rscale>  0 0.20331190E+03</rscale>
<asrwt>0</asrwt>
<pdfrwt beam="1">  1        2 0.73627803E-01 0.20331190E+03</pdfrwt>
<pdfrwt beam="2">  1       -2 0.28643605E-02 0.20331190E+03</pdfrwt>
<totfact> 0.28775792E+04</totfact>
</mgrwt>
</event>
<event>
 4    1  0.1305170E-003  0.2517441E+03  0.7818608E-02  0.1112208E+00
          2   -1    0    0  501    0  0.00000000000E+00  0.00000000000E+00  0.10493153092E+03  0.10493153095E+03  0.25500000000E-02 0.  1.
         -2   -1    0    0    0  501 -0.00000000000E+00 -0.00000000000E+00 -0.15099148844E+03  0.15099148847E+03  0.25500000000E-02 0. -1.
    5000001    1    1    2    0    0 -0.86260951914E+02 -0.37142418573E+02 -0.56658655372E+02  0.13401385865E+03  0.77000000000E+02 0.  0.
   -5000001    1    1    2    0    0  0.86260951914E+02  0.37142418573E+02  0.10598697851E+02  0.12190916077E+03  0.77000000000E+02 0.  0.
<mgrwt>
<rscale>  0 0.25174406E+03</rscale>
<asrwt>0</asrwt>
<pdfrwt beam="1">  1        2 0.14990219E-01 0.25174406E+03</pdfrwt>
<pdfrwt beam="2">  1       -2 0.21570212E-01 0.25174406E+03</pdfrwt>
<totfact> 0.70926497E+03</totfact>
</mgrwt>
</event>
<event>
 4    1  0.1305170E-003  0.1632979E+03  0.7818608E-02  0.1185023E+00
          2   -1    0    0  501    0  0.00000000000E+00  0.00000000000E+00  0.15648668413E+04  0.15648668413E+04  0.25500000000E-02 0.  1.
         -2   -1    0    0    0  501 -0.00000000000E+00 -0.00000000000E+00 -0.42601390442E+01  0.42601398074E+01  0.25500000000E-02 0. -1.
    5000001    1    1    2    0    0 -0.20672836337E+02  0.16230131742E+02  0.84601615459E+03  0.84991947687E+03  0.77000000000E+02 0.  0.
   -5000001    1    1    2    0    0  0.20672836337E+02 -0.16230131742E+02  0.71459054766E+03  0.71920750423E+03  0.77000000000E+02 0.  0.
<mgrwt>
<rscale>  0 0.16329790E+03</rscale>
<asrwt>0</asrwt>
<pdfrwt beam="1">  1        2 0.22355252E+00 0.16329790E+03</pdfrwt>
<pdfrwt beam="2">  1       -2 0.60859104E-03 0.16329790E+03</pdfrwt>
<totfact> 0.60863890E+04</totfact>
</mgrwt>
</event>
<event>
 4    1  0.1305170E-003  0.2282682E+03  0.7818608E-02  0.1127865E+00
          2   -1    0    0  501    0  0.00000000000E+00  0.00000000000E+00  0.22354035720E+02  0.22354035865E+02  0.25500000000E-02 0.  1.
         -2   -1    0    0    0  501 -0.00000000000E+00 -0.00000000000E+00 -0.58273998007E+03  0.58273998008E+03  0.25500000000E-02 0. -1.
    5000001    1    1    2    0    0  0.37584395547E+02 -0.15386236303E+01 -0.48001916387E+03  0.48760881025E+03  0.77000000000E+02 0.  0.
   -5000001    1    1    2    0    0 -0.37584395547E+02  0.15386236303E+01 -0.80366780478E+02  0.11748520569E+03  0.77000000000E+02 0.  0.
<mgrwt>
<rscale>  0 0.22826818E+03</rscale>
<asrwt>0</asrwt>
<pdfrwt beam="1">  1        2 0.31934340E-02 0.22826818E+03</pdfrwt>
<pdfrwt beam="2">  1       -2 0.83248559E-01 0.22826818E+03</pdfrwt>
<totfact> 0.37023063E+03</totfact>
</mgrwt>
</event>
<event>
 4    1  0.1305170E-003  0.2434920E+03  0.7818608E-02  0.1117488E+00
         -2   -1    0    0    0  501 -0.00000000000E+00  0.00000000000E+00  0.11785707289E+02  0.11785707565E+02  0.25500000000E-02 0. -1.
          2   -1    0    0  501    0  0.00000000000E+00 -0.00000000000E+00 -0.12576320880E+04  0.12576320880E+04  0.25500000000E-02 0.  1.
    5000001    1    1    2    0    0  0.39207844723E+02 -0.85745447904E+02 -0.61310467966E+03  0.62507270388E+03  0.77000000000E+02 0.  0.
   -5000001    1    1    2    0    0 -0.39207844723E+02  0.85745447904E+02 -0.63274170107E+03  0.64434509169E+03  0.77000000000E+02 0.  0.
<mgrwt>
<rscale>  0 0.24349196E+03</rscale>
<asrwt>0</asrwt>
<pdfrwt beam="1">  1        2 0.17966164E+00 0.24349196E+03</pdfrwt>
<pdfrwt beam="2">  1       -2 0.16836733E-02 0.24349196E+03</pdfrwt>
<totfact> 0.20615207E+04</totfact>
</mgrwt>
</event>
<event>
 4    1  0.1305170E-003  0.1887981E+03  0.7818608E-02  0.1159550E+00
          2   -1    0    0  501    0  0.00000000000E+00  0.00000000000E+00  0.51737781293E+03  0.51737781293E+03  0.25500000000E-02 0.  1.
         -2   -1    0    0    0  501 -0.00000000000E+00 -0.00000000000E+00 -0.17223732652E+02  0.17223732841E+02  0.25500000000E-02 0. -1.
    5000001    1    1    2    0    0 -0.35301540726E+02  0.35026650760E+02  0.18618608186E+03  0.20752667809E+03  0.77000000000E+02 0.  0.
   -5000001    1    1    2    0    0  0.35301540726E+02 -0.35026650760E+02  0.31396799842E+03  0.32707486769E+03  0.77000000000E+02 0.  0.
<mgrwt>
<rscale>  0 0.18879806E+03</rscale>
<asrwt>0</asrwt>
<pdfrwt beam="1">  1        2 0.73911099E-01 0.18879806E+03</pdfrwt>
<pdfrwt beam="2">  1       -2 0.24605338E-02 0.18879806E+03</pdfrwt>
<totfact> 0.35631894E+04</totfact>
</mgrwt>
</event>
<event>
 4    1  0.1305170E-003  0.1714908E+03  0.7818608E-02  0.1176302E+00
         -2   -1    0    0    0  501 -0.00000000000E+00  0.00000000000E+00  0.16778971950E+03  0.16778971952E+03  0.25500000000E-02 0. -1.
          2   -1    0    0  501    0  0.00000000000E+00 -0.00000000000E+00 -0.43818395004E+02  0.43818395078E+02  0.25500000000E-02 0.  1.
    5000001    1    1    2    0    0  0.32097524085E+02  0.15014858921E+02  0.46012112464E+02  0.96445899520E+02  0.77000000000E+02 0.  0.
   -5000001    1    1    2    0    0 -0.32097524085E+02 -0.15014858921E+02  0.77959212028E+02  0.11516221507E+03  0.77000000000E+02 0.  0.
<mgrwt>
<rscale>  0 0.17149083E+03</rscale>
<asrwt>0</asrwt>
<pdfrwt beam="1">  1        2 0.62597708E-02 0.17149083E+03</pdfrwt>
<pdfrwt beam="2">  1       -2 0.23969960E-01 0.17149083E+03</pdfrwt>
<totfact> 0.16994214E+04</totfact>
</mgrwt>
</event>
<event>
 4    1  0.1305170E-003  0.4095022E+03  0.7818608E-02  0.1040538E+00
         -2   -1    0    0    0  501 -0.00000000000E+00  0.00000000000E+00  0.19066144730E+03  0.19066144732E+03  0.25500000000E-02 0. -1.
          2   -1    0    0  501    0  0.00000000000E+00 -0.00000000000E+00 -0.21988192822E+03  0.21988192824E+03  0.25500000000E-02 0.  1.
    5000001    1    1    2    0    0  0.25549171383E+02 -0.18772913778E+03 -0.24586287484E+02  0.20598173429E+03  0.77000000000E+02 0.  0.
   -5000001    1    1    2    0    0 -0.25549171383E+02  0.18772913778E+03 -0.46341934402E+01  0.20456164126E+03  0.77000000000E+02 0.  0.
<mgrwt>
<rscale>  0 0.40950217E+03</rscale>
<asrwt>0</asrwt>
<pdfrwt beam="1">  1        2 0.31411704E-01 0.40950217E+03</pdfrwt>
<pdfrwt beam="2">  1       -2 0.27237350E-01 0.40950217E+03</pdfrwt>
<totfact> 0.20476178E+03</totfact>
</mgrwt>
</event>
<event>
 4    1  0.1305170E-003  0.1120634E+04  0.7818608E-02  0.9185311E-01
          2   -1    0    0  501    0  0.00000000000E+00  0.00000000000E+00  0.15379084859E+04  0.15379084859E+04  0.25500000000E-02 0.  1.
         -2   -1    0    0    0  501 -0.00000000000E+00 -0.00000000000E+00 -0.20414410176E+03  0.20414410178E+03  0.25500000000E-02 0. -1.
    5000001    1    1    2    0    0 -0.14149297190E+03  0.11986203347E+03 -0.14629730812E+03  0.24843323153E+03  0.77000000000E+02 0.  0.
   -5000001    1    1    2    0    0  0.14149297190E+03 -0.11986203347E+03  0.14800616923E+04  0.14936193562E+04  0.77000000000E+02 0.  0.
<mgrwt>
<rscale>  0 0.11206337E+04</rscale>
<asrwt>0</asrwt>
<pdfrwt beam="1">  1        2 0.21970122E+00 0.11206337E+04</pdfrwt>
<pdfrwt beam="2">  1       -2 0.29163443E-01 0.11206337E+04</pdfrwt>
<totfact> 0.14936307E+02</totfact>
</mgrwt>
</event>
<event>
 4    1  0.1305170E-003  0.2283956E+03  0.7818608E-02  0.1127774E+00
          2   -1    0    0  501    0  0.00000000000E+00  0.00000000000E+00  0.11313717178E+04  0.11313717178E+04  0.25500000000E-02 0.  1.
         -2   -1    0    0    0  501 -0.00000000000E+00 -0.00000000000E+00 -0.11526832911E+02  0.11526833193E+02  0.25500000000E-02 0. -1.
    5000001    1    1    2    0    0 -0.38291625677E+02  0.51829232997E+02  0.83215347485E+03  0.83818907395E+03  0.77000000000E+02 0.  0.
   -5000001    1    1    2    0    0  0.38291625677E+02 -0.51829232997E+02  0.28769141007E+03  0.30470947708E+03  0.77000000000E+02 0.  0.
<mgrwt>
<rscale>  0 0.22839556E+03</rscale>
<asrwt>0</asrwt>
<pdfrwt beam="1">  1        2 0.16162449E+00 0.22839556E+03</pdfrwt>
<pdfrwt beam="2">  1       -2 0.16466908E-02 0.22839556E+03</pdfrwt>
<totfact> 0.24842530E+04</totfact>
</mgrwt>
</event>
<event>
 4    1  0.1305170E-003  0.2962454E+03  0.7818608E-02  0.1087133E+00
         -2   -1    0    0    0  501 -0.00000000000E+00  0.00000000000E+00  0.19739431973E+02  0.19739432137E+02  0.25500000000E-02 0. -1.
          2   -1    0    0  501    0  0.00000000000E+00 -0.00000000000E+00 -0.11114979125E+04  0.11114979125E+04  0.25500000000E-02 0.  1.
    5000001    1    1    2    0    0 -0.71597617087E+02 -0.51633011504E+02 -0.19968840848E+03  0.23150949684E+03  0.77000000000E+02 0.  0.
   -5000001    1    1    2    0    0  0.71597617087E+02  0.51633011504E+02 -0.89207007201E+03  0.89972784776E+03  0.77000000000E+02 0.  0.
<mgrwt>
<rscale>  0 0.29624542E+03</rscale>
<asrwt>0</asrwt>
<pdfrwt beam="1">  1        2 0.15878538E+00 0.29624542E+03</pdfrwt>
<pdfrwt beam="2">  1       -2 0.28199196E-02 0.29624542E+03</pdfrwt>
<totfact> 0.11666844E+04</totfact>
</mgrwt>
</event>
<event>
 4    1  0.1305170E-003  0.2403776E+03  0.7818608E-02  0.1119542E+00
         -2   -1    0    0    0  501 -0.00000000000E+00  0.00000000000E+00  0.18167844309E+02  0.18167844488E+02  0.25500000000E-02 0. -1.
          2   -1    0    0  501    0  0.00000000000E+00 -0.00000000000E+00 -0.79510549253E+03  0.79510549253E+03  0.25500000000E-02 0.  1.
    5000001    1    1    2    0    0  0.84439949617E+02  0.37131426302E+02 -0.39773747843E+03  0.41549121490E+03  0.77000000000E+02 0.  0.
   -5000001    1    1    2    0    0 -0.84439949617E+02 -0.37131426302E+02 -0.37920016979E+03  0.39778212212E+03  0.77000000000E+02 0.  0.
<mgrwt>
<rscale>  0 0.24037764E+03</rscale>
<asrwt>0</asrwt>
<pdfrwt beam="1">  1        2 0.11358648E+00 0.24037764E+03</pdfrwt>
<pdfrwt beam="2">  1       -2 0.25954068E-02 0.24037764E+03</pdfrwt>
<totfact> 0.20382728E+04</totfact>
</mgrwt>
</event>
<event>
 4    1  0.1305170E-003  0.4716794E+03  0.7818608E-02  0.1021447E+00
          2   -1    0    0  501    0  0.00000000000E+00  0.00000000000E+00  0.38408982271E+03  0.38408982271E+03  0.25500000000E-02 0.  1.
         -2   -1    0    0    0  501 -0.00000000000E+00 -0.00000000000E+00 -0.14481083079E+03  0.14481083082E+03  0.25500000000E-02 0. -1.
    5000001    1    1    2    0    0 -0.10171452246E+03  0.87675431945E+02 -0.79874162773E+02  0.17418871182E+03  0.77000000000E+02 0.  0.
   -5000001    1    1    2    0    0  0.10171452246E+03 -0.87675431945E+02  0.31915315469E+03  0.35471194171E+03  0.77000000000E+02 0.  0.
<mgrwt>
<rscale>  0 0.47167941E+03</rscale>
<asrwt>0</asrwt>
<pdfrwt beam="1">  1        2 0.54869974E-01 0.47167941E+03</pdfrwt>
<pdfrwt beam="2">  1       -2 0.20687262E-01 0.47167941E+03</pdfrwt>
<totfact> 0.18091095E+03</totfact>
</mgrwt>
</event>
<event>
 4    1  0.1305170E-003  0.4513435E+03  0.7818608E-02  0.1027322E+00
         -2   -1    0    0    0  501 -0.00000000000E+00  0.00000000000E+00  0.26089319688E+03  0.26089319689E+03  0.25500000000E-02 0. -1.
          2   -1    0    0  501    0  0.00000000000E+00 -0.00000000000E+00 -0.19520533347E+03  0.19520533349E+03  0.25500000000E-02 0.  1.
    5000001    1    1    2    0    0 -0.12943434263E+03  0.14143806105E+03 -0.58891126188E+02  0.21483747091E+03  0.77000000000E+02 0.  0.
   -5000001    1    1    2    0    0  0.12943434263E+03 -0.14143806105E+03  0.12457898959E+03  0.24126105946E+03  0.77000000000E+02 0.  0.
<mgrwt>
<rscale>  0 0.45134352E+03</rscale>
<asrwt>0</asrwt>
<pdfrwt beam="1">  1        2 0.27886476E-01 0.45134352E+03</pdfrwt>
<pdfrwt beam="2">  1       -2 0.37270457E-01 0.45134352E+03</pdfrwt>
<totfact> 0.13086487E+03</totfact>
</mgrwt>
</event>
<event>
 4    1  0.1305170E-003  0.1717364E+03  0.7818608E-02  0.1176049E+00
          2   -1    0    0  501    0  0.00000000000E+00  0.00000000000E+00  0.72743924338E+02  0.72743924383E+02  0.25500000000E-02 0.  1.
         -2   -1    0    0    0  501 -0.00000000000E+00 -0.00000000000E+00 -0.10136035470E+03  0.10136035473E+03  0.25500000000E-02 0. -1.
    5000001    1    1    2    0    0  0.37884417866E+02 -0.28929645123E+01 -0.15187128308E+02  0.87196601006E+02  0.77000000000E+02 0.  0.
   -5000001    1    1    2    0    0 -0.37884417866E+02  0.28929645123E+01 -0.13429302054E+02  0.86907678109E+02  0.77000000000E+02 0.  0.
<mgrwt>
<rscale>  0 0.17173643E+03</rscale>
<asrwt>0</asrwt>
<pdfrwt beam="1">  1        2 0.10391989E-01 0.17173643E+03</pdfrwt>
<pdfrwt beam="2">  1       -2 0.14480051E-01 0.17173643E+03</pdfrwt>
<totfact> 0.20981291E+04</totfact>
</mgrwt>
</event>
<event>
 4    1  0.1305170E-003  0.1905090E+03  0.7818608E-02  0.1158003E+00
         -2   -1    0    0    0  501 -0.00000000000E+00  0.00000000000E+00  0.45915413931E+02  0.45915414002E+02  0.25500000000E-02 0. -1.
          2   -1    0    0  501    0  0.00000000000E+00 -0.00000000000E+00 -0.19761163188E+03  0.19761163189E+03  0.25500000000E-02 0.  1.
    5000001    1    1    2    0    0  0.54751361386E+02  0.21163082707E+00 -0.60367331806E+02  0.11212034209E+03  0.77000000000E+02 0.  0.
   -5000001    1    1    2    0    0 -0.54751361386E+02 -0.21163082707E+00 -0.91328886141E+02  0.13140670381E+03  0.77000000000E+02 0.  0.
<mgrwt>
<rscale>  0 0.19050900E+03</rscale>
<asrwt>0</asrwt>
<pdfrwt beam="1">  1        2 0.28230233E-01 0.19050900E+03</pdfrwt>
<pdfrwt beam="2">  1       -2 0.65593450E-02 0.19050900E+03</pdfrwt>
<totfact> 0.23185527E+04</totfact>
</mgrwt>
</event>
<event>
 4    1  0.1305170E-003  0.2894460E+03  0.7818608E-02  0.1090639E+00
         -2   -1    0    0    0  501 -0.00000000000E+00  0.00000000000E+00  0.11082691929E+02  0.11082692223E+02  0.25500000000E-02 0. -1.
          2   -1    0    0  501    0  0.00000000000E+00 -0.00000000000E+00 -0.18898608907E+04  0.18898608907E+04  0.25500000000E-02 0.  1.
    5000001    1    1    2    0    0  0.10799644208E+03 -0.55834837025E+02 -0.83871390322E+03  0.85097048831E+03  0.77000000000E+02 0.  0.
   -5000001    1    1    2    0    0 -0.10799644208E+03  0.55834837025E+02 -0.10400642956E+04  0.10499730946E+04  0.77000000000E+02 0.  0.
<mgrwt>
<rscale>  0 0.28944600E+03</rscale>
<asrwt>0</asrwt>
<pdfrwt beam="1">  1        2 0.26997992E+00 0.28944600E+03</pdfrwt>
<pdfrwt beam="2">  1       -2 0.15832429E-02 0.28944600E+03</pdfrwt>
<totfact> 0.10909754E+04</totfact>
</mgrwt>
</event>
<event>
 4    1  0.1305170E-003  0.1565274E+03  0.7818608E-02  0.1192674E+00
         -2   -1    0    0    0  501 -0.00000000000E+00  0.00000000000E+00  0.17473884109E+04  0.17473884109E+04  0.25500000000E-02 0. -1.
          2   -1    0    0  501    0  0.00000000000E+00 -0.00000000000E+00 -0.35053471595E+01  0.35053480870E+01  0.25500000000E-02 0.  1.
    5000001    1    1    2    0    0 -0.10891958207E+02 -0.84615580562E+01  0.89927511889E+03  0.90267102101E+03  0.77000000000E+02 0.  0.
   -5000001    1    1    2    0    0  0.10891958207E+02  0.84615580562E+01  0.84460794489E+03  0.84822273802E+03  0.77000000000E+02 0.  0.
<mgrwt>
<rscale>  0 0.15652736E+03</rscale>
<asrwt>0</asrwt>
<pdfrwt beam="1">  1        2 0.50076433E-03 0.15652736E+03</pdfrwt>
<pdfrwt beam="2">  1       -2 0.24962672E+00 0.15652736E+03</pdfrwt>
<totfact> 0.26687236E+03</totfact>
</mgrwt>
</event>
<event>
 4    1  0.1305170E-003  0.3076447E+03  0.7818608E-02  0.1081480E+00
          2   -1    0    0  501    0  0.00000000000E+00  0.00000000000E+00  0.43671658510E+03  0.43671658511E+03  0.25500000000E-02 0.  1.
         -2   -1    0    0    0  501 -0.00000000000E+00 -0.00000000000E+00 -0.54180035898E+02  0.54180035958E+02  0.25500000000E-02 0. -1.
    5000001    1    1    2    0    0 -0.61047571862E+02 -0.31079307053E+02  0.90581339143E+01  0.10345906991E+03  0.77000000000E+02 0.  0.
   -5000001    1    1    2    0    0  0.61047571862E+02  0.31079307053E+02  0.37347841529E+03  0.38743755115E+03  0.77000000000E+02 0.  0.
<mgrwt>
<rscale>  0 0.30764473E+03</rscale>
<asrwt>0</asrwt>
<pdfrwt beam="1">  1        2 0.62388084E-01 0.30764473E+03</pdfrwt>
<pdfrwt beam="2">  1       -2 0.77400051E-02 0.30764473E+03</pdfrwt>
<totfact> 0.78234798E+03</totfact>
</mgrwt>
</event>
<event>
 4    1  0.1305170E-003  0.2581040E+03  0.7818608E-02  0.1108288E+00
          2   -1    0    0  501    0  0.00000000000E+00  0.00000000000E+00  0.37868413315E+03  0.37868413316E+03  0.25500000000E-02 0.  1.
         -2   -1    0    0    0  501 -0.00000000000E+00 -0.00000000000E+00 -0.43979722432E+02  0.43979722506E+02  0.25500000000E-02 0. -1.
    5000001    1    1    2    0    0 -0.46804041032E+01  0.94173800938E+02  0.97207302510E+02  0.15578469317E+03  0.77000000000E+02 0.  0.
   -5000001    1    1    2    0    0  0.46804041032E+01 -0.94173800938E+02  0.23749710821E+03  0.26687916250E+03  0.77000000000E+02 0.  0.
<mgrwt>
<rscale>  0 0.25810403E+03</rscale>
<asrwt>0</asrwt>
<pdfrwt beam="1">  1        2 0.54097734E-01 0.25810403E+03</pdfrwt>
<pdfrwt beam="2">  1       -2 0.62828174E-02 0.25810403E+03</pdfrwt>
<totfact> 0.12524608E+04</totfact>
</mgrwt>
</event>
<event>
 4    1  0.1305170E-003  0.1600871E+03  0.7818608E-02  0.1188598E+00
          2   -1    0    0  501    0  0.00000000000E+00  0.00000000000E+00  0.83198142780E+03  0.83198142781E+03  0.25500000000E-02 0.  1.
         -2   -1    0    0    0  501 -0.00000000000E+00 -0.00000000000E+00 -0.77008533100E+01  0.77008537321E+01  0.25500000000E-02 0. -1.
    5000001    1    1    2    0    0 -0.20563930309E+02 -0.69012012555E+01  0.39780909075E+03  0.40577281143E+03  0.77000000000E+02 0.  0.
   -5000001    1    1    2    0    0  0.20563930309E+02  0.69012012555E+01  0.42647148374E+03  0.43390947011E+03  0.77000000000E+02 0.  0.
<mgrwt>
<rscale>  0 0.16008707E+03</rscale>
<asrwt>0</asrwt>
<pdfrwt beam="1">  1        2 0.11885457E+00 0.16008707E+03</pdfrwt>
<pdfrwt beam="2">  1       -2 0.11001211E-02 0.16008707E+03</pdfrwt>
<totfact> 0.65186070E+04</totfact>
</mgrwt>
</event>
<event>
 4    1  0.1305170E-003  0.2501507E+03  0.7818608E-02  0.1113210E+00
          2   -1    0    0  501    0  0.00000000000E+00  0.00000000000E+00  0.15246346503E+03  0.15246346505E+03  0.25500000000E-02 0.  1.
         -2   -1    0    0    0  501 -0.00000000000E+00 -0.00000000000E+00 -0.10260717838E+03  0.10260717841E+03  0.25500000000E-02 0. -1.
    5000001    1    1    2    0    0  0.17843011684E+02 -0.46798002363E+02 -0.61632105772E+02  0.11061619480E+03  0.77000000000E+02 0.  0.
   -5000001    1    1    2    0    0 -0.17843011684E+02  0.46798002363E+02  0.11148839242E+03  0.14445444865E+03  0.77000000000E+02 0.  0.
<mgrwt>
<rscale>  0 0.25015072E+03</rscale>
<asrwt>0</asrwt>
<pdfrwt beam="1">  1        2 0.21780495E-01 0.25015072E+03</pdfrwt>
<pdfrwt beam="2">  1       -2 0.14658168E-01 0.25015072E+03</pdfrwt>
<totfact> 0.88166857E+03</totfact>
</mgrwt>
</event>
<event>
 4    1  0.1305170E-003  0.2065794E+03  0.7818608E-02  0.1144304E+00
         -2   -1    0    0    0  501 -0.00000000000E+00  0.00000000000E+00  0.47160824039E+01  0.47160830933E+01  0.25500000000E-02 0. -1.
          2   -1    0    0  501    0  0.00000000000E+00 -0.00000000000E+00 -0.22622085767E+04  0.22622085767E+04  0.25500000000E-02 0.  1.
    5000001    1    1    2    0    0  0.26154452619E+02  0.59405133830E+02 -0.87689321074E+03  0.88265719754E+03  0.77000000000E+02 0.  0.
   -5000001    1    1    2    0    0 -0.26154452619E+02 -0.59405133830E+02 -0.13805992835E+04  0.13842674622E+04  0.77000000000E+02 0.  0.
<mgrwt>
<rscale>  0 0.20657941E+03</rscale>
<asrwt>0</asrwt>
<pdfrwt beam="1">  1        2 0.32317196E+00 0.20657941E+03</pdfrwt>
<pdfrwt beam="2">  1       -2 0.67372755E-03 0.20657941E+03</pdfrwt>
<totfact> 0.24579514E+04</totfact>
</mgrwt>
</event>
<event>
 4    1  0.1305170E-003  0.4937585E+03  0.7818608E-02  0.1015421E+00
         -2   -1    0    0    0  501 -0.00000000000E+00  0.00000000000E+00  0.12709321881E+03  0.12709321883E+03  0.25500000000E-02 0. -1.
          2   -1    0    0  501    0  0.00000000000E+00 -0.00000000000E+00 -0.47956417911E+03  0.47956417911E+03  0.25500000000E-02 0.  1.
    5000001    1    1    2    0    0 -0.10245598532E+03 -0.19804248607E+03 -0.26570211254E+03  0.35530925660E+03  0.77000000000E+02 0.  0.
   -5000001    1    1    2    0    0  0.10245598532E+03  0.19804248607E+03 -0.86768847763E+02  0.25134814135E+03  0.77000000000E+02 0.  0.
<mgrwt>
<rscale>  0 0.49375846E+03</rscale>
<asrwt>0</asrwt>
<pdfrwt beam="1">  1        2 0.68509168E-01 0.49375846E+03</pdfrwt>
<pdfrwt beam="2">  1       -2 0.18156174E-01 0.49375846E+03</pdfrwt>
<totfact> 0.17716235E+03</totfact>
</mgrwt>
</event>
<event>
 4    1  0.1305170E-003  0.1964190E+03  0.7818608E-02  0.1152796E+00
         -2   -1    0    0    0  501 -0.00000000000E+00  0.00000000000E+00  0.94625994293E+01  0.94625997728E+01  0.25500000000E-02 0. -1.
          2   -1    0    0  501    0  0.00000000000E+00 -0.00000000000E+00 -0.10192871834E+04  0.10192871834E+04  0.25500000000E-02 0.  1.
    5000001    1    1    2    0    0  0.33944332350E+02 -0.48736514395E+02 -0.57684795501E+03  0.58498720390E+03  0.77000000000E+02 0.  0.
   -5000001    1    1    2    0    0 -0.33944332350E+02  0.48736514395E+02 -0.43297662894E+03  0.44376257925E+03  0.77000000000E+02 0.  0.
<mgrwt>
<rscale>  0 0.19641901E+03</rscale>
<asrwt>0</asrwt>
<pdfrwt beam="1">  1        2 0.14561238E+00 0.19641901E+03</pdfrwt>
<pdfrwt beam="2">  1       -2 0.13518006E-02 0.19641901E+03</pdfrwt>
<totfact> 0.37919766E+04</totfact>
</mgrwt>
</event>
<event>
 4    1  0.1305170E-003  0.4796057E+03  0.7818608E-02  0.1019244E+00
         -2   -1    0    0    0  501 -0.00000000000E+00  0.00000000000E+00  0.18858311545E+02  0.18858311717E+02  0.25500000000E-02 0. -1.
          2   -1    0    0  501    0  0.00000000000E+00 -0.00000000000E+00 -0.30493397208E+04  0.30493397208E+04  0.25500000000E-02 0.  1.
    5000001    1    1    2    0    0 -0.73228515566E+01 -0.20471074403E+03 -0.21425803935E+04  0.21537269686E+04  0.77000000000E+02 0.  0.
   -5000001    1    1    2    0    0  0.73228515566E+01  0.20471074403E+03 -0.88790101578E+03  0.91447106390E+03  0.77000000000E+02 0.  0.
<mgrwt>
<rscale>  0 0.47960567E+03</rscale>
<asrwt>0</asrwt>
<pdfrwt beam="1">  1        2 0.43561965E+00 0.47960567E+03</pdfrwt>
<pdfrwt beam="2">  1       -2 0.26940465E-02 0.47960567E+03</pdfrwt>
<totfact> 0.12669363E+03</totfact>
</mgrwt>
</event>
<event>
 4    1  0.1305170E-003  0.1795940E+03  0.7818608E-02  0.1168197E+00
         -2   -1    0    0    0  501 -0.00000000000E+00  0.00000000000E+00  0.37610270677E+02  0.37610270763E+02  0.25500000000E-02 0. -1.
          2   -1    0    0  501    0  0.00000000000E+00 -0.00000000000E+00 -0.21439619876E+03  0.21439619878E+03  0.25500000000E-02 0.  1.
    5000001    1    1    2    0    0  0.11609710995E+02  0.39849769509E+02 -0.59921132830E+02  0.10602986220E+03  0.77000000000E+02 0.  0.
   -5000001    1    1    2    0    0 -0.11609710995E+02 -0.39849769509E+02 -0.11686479526E+03  0.14597660734E+03  0.77000000000E+02 0.  0.
<mgrwt>
<rscale>  0 0.17959398E+03</rscale>
<asrwt>0</asrwt>
<pdfrwt beam="1">  1        2 0.30628028E-01 0.17959398E+03</pdfrwt>
<pdfrwt beam="2">  1       -2 0.53728959E-02 0.17959398E+03</pdfrwt>
<totfact> 0.28600244E+04</totfact>
</mgrwt>
</event>
<event>
 4    1  0.1305170E-003  0.2232815E+03  0.7818608E-02  0.1131460E+00
         -2   -1    0    0    0  501 -0.00000000000E+00  0.00000000000E+00  0.60811088172E+02  0.60811088226E+02  0.25500000000E-02 0. -1.
          2   -1    0    0  501    0  0.00000000000E+00 -0.00000000000E+00 -0.20495701345E+03  0.20495701347E+03  0.25500000000E-02 0.  1.
    5000001    1    1    2    0    0 -0.39729348669E+02  0.66948476614E+02 -0.46154867290E+02  0.11882672865E+03  0.77000000000E+02 0.  0.
   -5000001    1    1    2    0    0  0.39729348669E+02 -0.66948476614E+02 -0.97991057989E+02  0.14694137304E+03  0.77000000000E+02 0.  0.
<mgrwt>
<rscale>  0 0.22328152E+03</rscale>
<asrwt>0</asrwt>
<pdfrwt beam="1">  1        2 0.29279573E-01 0.22328152E+03</pdfrwt>
<pdfrwt beam="2">  1       -2 0.86872984E-02 0.22328152E+03</pdfrwt>
<totfact> 0.14580587E+04</totfact>
</mgrwt>
</event>
<event>
 4    1  0.1305170E-003  0.3005366E+03  0.7818608E-02  0.1084973E+00
          2   -1    0    0  501    0  0.00000000000E+00  0.00000000000E+00  0.11657502607E+03  0.11657502610E+03  0.25500000000E-02 0.  1.
         -2   -1    0    0    0  501 -0.00000000000E+00 -0.00000000000E+00 -0.19369983186E+03  0.19369983187E+03  0.25500000000E-02 0. -1.
    5000001    1    1    2    0    0 -0.12532756334E+03 -0.14492780083E+02 -0.10582110634E+02  0.14818238718E+03  0.77000000000E+02 0.  0.
   -5000001    1    1    2    0    0  0.12532756334E+03  0.14492780083E+02 -0.66542695155E+02  0.16209247078E+03  0.77000000000E+02 0.  0.
<mgrwt>
<rscale>  0 0.30053661E+03</rscale>
<asrwt>0</asrwt>
<pdfrwt beam="1">  1        2 0.16653575E-01 0.30053661E+03</pdfrwt>
<pdfrwt beam="2">  1       -2 0.27671405E-01 0.30053661E+03</pdfrwt>
<totfact> 0.40693543E+03</totfact>
</mgrwt>
</event>
<event>
 4    1  0.1305170E-003  0.2745904E+03  0.7818608E-02  0.1098681E+00
         -2   -1    0    0    0  501 -0.00000000000E+00  0.00000000000E+00  0.31493910072E+02  0.31493910175E+02  0.25500000000E-02 0. -1.
          2   -1    0    0  501    0  0.00000000000E+00 -0.00000000000E+00 -0.59852757489E+03  0.59852757489E+03  0.25500000000E-02 0.  1.
    5000001    1    1    2    0    0 -0.60093501767E+02  0.75134763572E+02 -0.14462456595E+03  0.19000454396E+03  0.77000000000E+02 0.  0.
   -5000001    1    1    2    0    0  0.60093501767E+02 -0.75134763572E+02 -0.42240909887E+03  0.44001694110E+03  0.77000000000E+02 0.  0.
<mgrwt>
<rscale>  0 0.27459041E+03</rscale>
<asrwt>0</asrwt>
<pdfrwt beam="1">  1        2 0.85503932E-01 0.27459041E+03</pdfrwt>
<pdfrwt beam="2">  1       -2 0.44991304E-02 0.27459041E+03</pdfrwt>
<totfact> 0.12617014E+04</totfact>
</mgrwt>
</event>
<event>
 4    1  0.1305170E-003  0.2057988E+03  0.7818608E-02  0.1144937E+00
          2   -1    0    0  501    0  0.00000000000E+00  0.00000000000E+00  0.59873408969E+03  0.59873408970E+03  0.25500000000E-02 0.  1.
         -2   -1    0    0    0  501 -0.00000000000E+00 -0.00000000000E+00 -0.17684448447E+02  0.17684448631E+02  0.25500000000E-02 0. -1.
    5000001    1    1    2    0    0  0.55702870331E+02  0.37404644224E+02  0.32809878797E+03  0.34362731533E+03  0.77000000000E+02 0.  0.
   -5000001    1    1    2    0    0 -0.55702870331E+02 -0.37404644224E+02  0.25295085327E+03  0.27279122299E+03  0.77000000000E+02 0.  0.
<mgrwt>
<rscale>  0 0.20579876E+03</rscale>
<asrwt>0</asrwt>
<pdfrwt beam="1">  1        2 0.85533448E-01 0.20579876E+03</pdfrwt>
<pdfrwt beam="2">  1       -2 0.25263496E-02 0.20579876E+03</pdfrwt>
<totfact> 0.29319817E+04</totfact>
</mgrwt>
</event>
<event>
 4    1  0.1305170E-003  0.1907766E+03  0.7818608E-02  0.1157763E+00
         -2   -1    0    0    0  501 -0.00000000000E+00  0.00000000000E+00  0.16688979507E+03  0.16688979509E+03  0.25500000000E-02 0. -1.
          2   -1    0    0  501    0  0.00000000000E+00 -0.00000000000E+00 -0.54520567763E+02  0.54520567823E+02  0.25500000000E-02 0.  1.
    5000001    1    1    2    0    0  0.32564368049E+02  0.45876939365E+02  0.53643312083E+02  0.10941543110E+03  0.77000000000E+02 0.  0.
   -5000001    1    1    2    0    0 -0.32564368049E+02 -0.45876939365E+02  0.58725915221E+02  0.11199493181E+03  0.77000000000E+02 0.  0.
<mgrwt>
<rscale>  0 0.19077659E+03</rscale>
<asrwt>0</asrwt>
<pdfrwt beam="1">  1        2 0.77886525E-02 0.19077659E+03</pdfrwt>
<pdfrwt beam="2">  1       -2 0.23841399E-01 0.19077659E+03</pdfrwt>
<totfact> 0.13088958E+04</totfact>
</mgrwt>
</event>
<event>
 4    1  0.1305170E-003  0.2341797E+03  0.7818608E-02  0.1123732E+00
          2   -1    0    0  501    0  0.00000000000E+00  0.00000000000E+00  0.16749131503E+04  0.16749131503E+04  0.25500000000E-02 0.  1.
         -2   -1    0    0    0  501 -0.00000000000E+00 -0.00000000000E+00 -0.81855159949E+01  0.81855163921E+01  0.25500000000E-02 0. -1.
    5000001    1    1    2    0    0 -0.38959146037E+02 -0.10128237765E+02  0.13974858313E+04  0.14001842896E+04  0.77000000000E+02 0.  0.
   -5000001    1    1    2    0    0  0.38959146037E+02  0.10128237765E+02  0.26924180299E+03  0.28291437704E+03  0.77000000000E+02 0.  0.
<mgrwt>
<rscale>  0 0.23417966E+03</rscale>
<asrwt>0</asrwt>
<pdfrwt beam="1">  1        2 0.23927347E+00 0.23417966E+03</pdfrwt>
<pdfrwt beam="2">  1       -2 0.11693587E-02 0.23417966E+03</pdfrwt>
<totfact> 0.21491829E+04</totfact>
</mgrwt>
</event>
<event>
 4    1  0.1305170E-003  0.2122562E+03  0.7818608E-02  0.1139792E+00
         -2   -1    0    0    0  501 -0.00000000000E+00  0.00000000000E+00  0.84762319303E+01  0.84762323138E+01  0.25500000000E-02 0. -1.
          2   -1    0    0  501    0  0.00000000000E+00 -0.00000000000E+00 -0.13287951576E+04  0.13287951576E+04  0.25500000000E-02 0.  1.
    5000001    1    1    2    0    0  0.42806356194E+02  0.49530415766E+02 -0.45615036009E+03  0.46721279652E+03  0.77000000000E+02 0.  0.
   -5000001    1    1    2    0    0 -0.42806356194E+02 -0.49530415766E+02 -0.86416856559E+03  0.87005859341E+03  0.77000000000E+02 0.  0.
<mgrwt>
<rscale>  0 0.21225622E+03</rscale>
<asrwt>0</asrwt>
<pdfrwt beam="1">  1        2 0.18982775E+00 0.21225622E+03</pdfrwt>
<pdfrwt beam="2">  1       -2 0.12108912E-02 0.21225622E+03</pdfrwt>
<totfact> 0.30338575E+04</totfact>
</mgrwt>
</event>
<event>
 4    1  0.1305170E-003  0.2767444E+03  0.7818608E-02  0.1097480E+00
         -2   -1    0    0    0  501 -0.00000000000E+00  0.00000000000E+00  0.18605495904E+02  0.18605496079E+02  0.25500000000E-02 0. -1.
          2   -1    0    0  501    0  0.00000000000E+00 -0.00000000000E+00 -0.10290973200E+04  0.10290973200E+04  0.25500000000E-02 0.  1.
    5000001    1    1    2    0    0  0.81064704885E+01  0.11203026532E+03 -0.41240691220E+03  0.43430974712E+03  0.77000000000E+02 0.  0.
   -5000001    1    1    2    0    0 -0.81064704885E+01 -0.11203026532E+03 -0.59808491184E+03  0.61339306891E+03  0.77000000000E+02 0.  0.
<mgrwt>
<rscale>  0 0.27674440E+03</rscale>
<asrwt>0</asrwt>
<pdfrwt beam="1">  1        2 0.14701387E+00 0.27674440E+03</pdfrwt>
<pdfrwt beam="2">  1       -2 0.26579286E-02 0.27674440E+03</pdfrwt>
<totfact> 0.14166047E+04</totfact>
</mgrwt>
</event>
<event>
 4    1  0.1305170E-003  0.3035375E+03  0.7818608E-02  0.1083486E+00
         -2   -1    0    0    0  501 -0.00000000000E+00  0.00000000000E+00  0.13839952434E+03  0.13839952436E+03  0.25500000000E-02 0. -1.
          2   -1    0    0  501    0  0.00000000000E+00 -0.00000000000E+00 -0.16642939601E+03  0.16642939603E+03  0.25500000000E-02 0.  1.
    5000001    1    1    2    0    0 -0.11102816564E+03 -0.18235122382E+02  0.52939378200E+02  0.14625782379E+03  0.77000000000E+02 0.  0.
   -5000001    1    1    2    0    0  0.11102816564E+03  0.18235122382E+02 -0.80969249867E+02  0.15857109661E+03  0.77000000000E+02 0.  0.
<mgrwt>
<rscale>  0 0.30353747E+03</rscale>
<asrwt>0</asrwt>
<pdfrwt beam="1">  1        2 0.23775628E-01 0.30353747E+03</pdfrwt>
<pdfrwt beam="2">  1       -2 0.19771361E-01 0.30353747E+03</pdfrwt>
<totfact> 0.48720500E+03</totfact>
</mgrwt>
</event>
<event>
 4    1  0.1305170E-003  0.2384318E+03  0.7818608E-02  0.1120842E+00
         -2   -1    0    0    0  501 -0.00000000000E+00  0.00000000000E+00  0.52250685235E+01  0.52250691458E+01  0.25500000000E-02 0. -1.
          2   -1    0    0  501    0  0.00000000000E+00 -0.00000000000E+00 -0.27200469982E+04  0.27200469982E+04  0.25500000000E-02 0.  1.
    5000001    1    1    2    0    0  0.67218511227E+01  0.73051211365E+02 -0.19731223059E+04  0.19759864111E+04  0.77000000000E+02 0.  0.
   -5000001    1    1    2    0    0 -0.67218511227E+01 -0.73051211365E+02 -0.74169962371E+03  0.74928565620E+03  0.77000000000E+02 0.  0.
<mgrwt>
<rscale>  0 0.23843182E+03</rscale>
<asrwt>0</asrwt>
<pdfrwt beam="1">  1        2 0.38857724E+00 0.23843182E+03</pdfrwt>
<pdfrwt beam="2">  1       -2 0.74644015E-03 0.23843182E+03</pdfrwt>
<totfact> 0.12626312E+04</totfact>
</mgrwt>
</event>
<event>
 4    1  0.1305170E-003  0.2230432E+03  0.7818608E-02  0.1131634E+00
         -2   -1    0    0    0  501 -0.00000000000E+00  0.00000000000E+00  0.10265847274E+03  0.10265847277E+03  0.25500000000E-02 0. -1.
          2   -1    0    0  501    0  0.00000000000E+00 -0.00000000000E+00 -0.12114998372E+03  0.12114998375E+03  0.25500000000E-02 0.  1.
    5000001    1    1    2    0    0 -0.75567839779E+02  0.97237378004E+01  0.17359787623E+02  0.10970602405E+03  0.77000000000E+02 0.  0.
   -5000001    1    1    2    0    0  0.75567839779E+02 -0.97237378004E+01 -0.35851298605E+02  0.11410243248E+03  0.77000000000E+02 0.  0.
<mgrwt>
<rscale>  0 0.22304325E+03</rscale>
<asrwt>0</asrwt>
<pdfrwt beam="1">  1        2 0.17307140E-01 0.22304325E+03</pdfrwt>
<pdfrwt beam="2">  1       -2 0.14665496E-01 0.22304325E+03</pdfrwt>
<totfact> 0.11394182E+04</totfact>
</mgrwt>
</event>
<event>
 4    1  0.1305170E-003  0.2139463E+03  0.7818608E-02  0.1138479E+00
          2   -1    0    0  501    0  0.00000000000E+00  0.00000000000E+00  0.63658377620E+03  0.63658377621E+03  0.25500000000E-02 0.  1.
         -2   -1    0    0    0  501 -0.00000000000E+00 -0.00000000000E+00 -0.17976031071E+02  0.17976031252E+02  0.25500000000E-02 0. -1.
    5000001    1    1    2    0    0 -0.74175247593E+02  0.31209874767E+01  0.30442608991E+03  0.32267003600E+03  0.77000000000E+02 0.  0.
   -5000001    1    1    2    0    0  0.74175247593E+02 -0.31209874767E+01  0.31418165522E+03  0.33188977146E+03  0.77000000000E+02 0.  0.
<mgrwt>
<rscale>  0 0.21394625E+03</rscale>
<asrwt>0</asrwt>
<pdfrwt beam="1">  1        2 0.90940532E-01 0.21394625E+03</pdfrwt>
<pdfrwt beam="2">  1       -2 0.25680047E-02 0.21394625E+03</pdfrwt>
<totfact> 0.26763551E+04</totfact>
</mgrwt>
</event>
<event>
 4    1  0.1305170E-003  0.3714545E+03  0.7818608E-02  0.1054138E+00
         -2   -1    0    0    0  501 -0.00000000000E+00  0.00000000000E+00  0.24399487814E+02  0.24399487948E+02  0.25500000000E-02 0. -1.
          2   -1    0    0  501    0  0.00000000000E+00 -0.00000000000E+00 -0.14137431028E+04  0.14137431028E+04  0.25500000000E-02 0.  1.
    5000001    1    1    2    0    0  0.15383458247E+03 -0.69413760735E+02 -0.72978638423E+03  0.75299436621E+03  0.77000000000E+02 0.  0.
   -5000001    1    1    2    0    0 -0.15383458247E+03  0.69413760735E+02 -0.65955723073E+03  0.68514822451E+03  0.77000000000E+02 0.  0.
<mgrwt>
<rscale>  0 0.37145448E+03</rscale>
<asrwt>0</asrwt>
<pdfrwt beam="1">  1        2 0.20196325E+00 0.37145448E+03</pdfrwt>
<pdfrwt beam="2">  1       -2 0.34856420E-02 0.37145448E+03</pdfrwt>
<totfact> 0.58660402E+03</totfact>
</mgrwt>
</event>
<event>
 4    1  0.1305170E-003  0.2091552E+03  0.7818608E-02  0.1142237E+00
         -2   -1    0    0    0  501 -0.00000000000E+00  0.00000000000E+00  0.27752662758E+02  0.27752662875E+02  0.25500000000E-02 0. -1.
          2   -1    0    0  501    0  0.00000000000E+00 -0.00000000000E+00 -0.39406948253E+03  0.39406948254E+03  0.25500000000E-02 0.  1.
    5000001    1    1    2    0    0 -0.37609084647E+02 -0.59854891699E+02 -0.18967053973E+03  0.21656630613E+03  0.77000000000E+02 0.  0.
   -5000001    1    1    2    0    0  0.37609084647E+02  0.59854891699E+02 -0.17664628005E+03  0.20525583929E+03  0.77000000000E+02 0.  0.
<mgrwt>
<rscale>  0 0.20915523E+03</rscale>
<asrwt>0</asrwt>
<pdfrwt beam="1">  1        2 0.56295637E-01 0.20915523E+03</pdfrwt>
<pdfrwt beam="2">  1       -2 0.39646663E-02 0.20915523E+03</pdfrwt>
<totfact> 0.23800932E+04</totfact>
</mgrwt>
</event>
<event>
 4    1  0.1305170E-003  0.2834007E+03  0.7818608E-02  0.1093846E+00
          2   -1    0    0  501    0  0.00000000000E+00  0.00000000000E+00  0.19407587716E+04  0.19407587716E+04  0.25500000000E-02 0.  1.
         -2   -1    0    0    0  501 -0.00000000000E+00 -0.00000000000E+00 -0.10345947474E+02  0.10345947788E+02  0.25500000000E-02 0. -1.
    5000001    1    1    2    0    0  0.11445932559E+03 -0.28170362200E+02  0.10752487741E+04  0.10844276982E+04  0.77000000000E+02 0.  0.
   -5000001    1    1    2    0    0 -0.11445932559E+03  0.28170362200E+02  0.85516405006E+03  0.86667702118E+03  0.77000000000E+02 0.  0.
<mgrwt>
<rscale>  0 0.28340070E+03</rscale>
<asrwt>0</asrwt>
<pdfrwt beam="1">  1        2 0.27725148E+00 0.28340070E+03</pdfrwt>
<pdfrwt beam="2">  1       -2 0.14779913E-02 0.28340070E+03</pdfrwt>
<totfact> 0.11390459E+04</totfact>
</mgrwt>
</event>
<event>
 4    1  0.1305170E-003  0.2122671E+03  0.7818608E-02  0.1139783E+00
         -2   -1    0    0    0  501 -0.00000000000E+00  0.00000000000E+00  0.23093206065E+02  0.23093206206E+02  0.25500000000E-02 0. -1.
          2   -1    0    0  501    0  0.00000000000E+00 -0.00000000000E+00 -0.48777698642E+03  0.48777698643E+03  0.25500000000E-02 0.  1.
    5000001    1    1    2    0    0  0.93947729340E+01  0.69964549485E+02 -0.18718537210E+03  0.21436105867E+03  0.77000000000E+02 0.  0.
   -5000001    1    1    2    0    0 -0.93947729340E+01 -0.69964549485E+02 -0.27749840826E+03  0.29650913397E+03  0.77000000000E+02 0.  0.
<mgrwt>
<rscale>  0 0.21226714E+03</rscale>
<asrwt>0</asrwt>
<pdfrwt beam="1">  1        2 0.69682421E-01 0.21226714E+03</pdfrwt>
<pdfrwt beam="2">  1       -2 0.32990297E-02 0.21226714E+03</pdfrwt>
<totfact> 0.24874283E+04</totfact>
</mgrwt>
</event>
<event>
 4    1  0.1305170E-003  0.4366078E+03  0.7818608E-02  0.1031793E+00
          2   -1    0    0  501    0  0.00000000000E+00  0.00000000000E+00  0.88193862379E+02  0.88193862416E+02  0.25500000000E-02 0.  1.
         -2   -1    0    0    0  501 -0.00000000000E+00 -0.00000000000E+00 -0.54036166410E+03  0.54036166411E+03  0.25500000000E-02 0. -1.
    5000001    1    1    2    0    0  0.48218646428E+02  0.15066558772E+03 -0.40028632098E+02  0.18043405602E+03  0.77000000000E+02 0.  0.
   -5000001    1    1    2    0    0 -0.48218646428E+02 -0.15066558772E+03 -0.41213916962E+03  0.44812147050E+03  0.77000000000E+02 0.  0.
<mgrwt>
<rscale>  0 0.43660775E+03</rscale>
<asrwt>0</asrwt>
<pdfrwt beam="1">  1        2 0.12599123E-01 0.43660775E+03</pdfrwt>
<pdfrwt beam="2">  1       -2 0.77194522E-01 0.43660775E+03</pdfrwt>
<totfact> 0.74751754E+02</totfact>
</mgrwt>
</event>
<event>
 4    1  0.1305170E-003  0.6487017E+03  0.7818608E-02  0.9809218E-01
         -2   -1    0    0    0  501 -0.00000000000E+00  0.00000000000E+00  0.54401347146E+02  0.54401347206E+02  0.25500000000E-02 0. -1.
          2   -1    0    0  501    0  0.00000000000E+00 -0.00000000000E+00 -0.19338397368E+04  0.19338397368E+04  0.25500000000E-02 0.  1.
    5000001    1    1    2    0    0 -0.29959847759E+03  0.80103123316E+02 -0.11103336261E+04  0.11553984245E+04  0.77000000000E+02 0.  0.
   -5000001    1    1    2    0    0  0.29959847759E+03 -0.80103123316E+02 -0.76910476355E+03  0.83284265949E+03  0.77000000000E+02 0.  0.
<mgrwt>
<rscale>  0 0.64870174E+03</rscale>
<asrwt>0</asrwt>
<pdfrwt beam="1">  1        2 0.27626278E+00 0.64870174E+03</pdfrwt>
<pdfrwt beam="2">  1       -2 0.77716222E-02 0.64870174E+03</pdfrwt>
<totfact> 0.91573543E+02</totfact>
</mgrwt>
</event>
<event>
 4    1  0.1305170E-003  0.3636400E+03  0.7818608E-02  0.1057152E+00
          2   -1    0    0  501    0  0.00000000000E+00  0.00000000000E+00  0.17748616303E+03  0.17748616304E+03  0.25500000000E-02 0.  1.
         -2   -1    0    0    0  501 -0.00000000000E+00 -0.00000000000E+00 -0.18625969251E+03  0.18625969252E+03  0.25500000000E-02 0. -1.
    5000001    1    1    2    0    0 -0.10844355013E+03  0.63055997101E+02  0.10238443020E+03  0.17929761260E+03  0.77000000000E+02 0.  0.
   -5000001    1    1    2    0    0  0.10844355013E+03 -0.63055997101E+02 -0.11115795968E+03  0.18444824297E+03  0.77000000000E+02 0.  0.
<mgrwt>
<rscale>  0 0.36364003E+03</rscale>
<asrwt>0</asrwt>
<pdfrwt beam="1">  1        2 0.25355166E-01 0.36364003E+03</pdfrwt>
<pdfrwt beam="2">  1       -2 0.26608528E-01 0.36364003E+03</pdfrwt>
<totfact> 0.27066098E+03</totfact>
</mgrwt>
</event>
<event>
 4    1  0.1305170E-003  0.1861444E+03  0.7818608E-02  0.1161985E+00
         -2   -1    0    0    0  501 -0.00000000000E+00  0.00000000000E+00  0.55715475498E+02  0.55715475556E+02  0.25500000000E-02 0. -1.
          2   -1    0    0  501    0  0.00000000000E+00 -0.00000000000E+00 -0.15547630108E+03  0.15547630110E+03  0.25500000000E-02 0.  1.
    5000001    1    1    2    0    0  0.32858109715E+02  0.35135903328E+02 -0.73111150003E+02  0.11656940993E+03  0.77000000000E+02 0.  0.
   -5000001    1    1    2    0    0 -0.32858109715E+02 -0.35135903328E+02 -0.26649675580E+02  0.94622366728E+02  0.77000000000E+02 0.  0.
<mgrwt>
<rscale>  0 0.18614442E+03</rscale>
<asrwt>0</asrwt>
<pdfrwt beam="1">  1        2 0.22210900E-01 0.18614442E+03</pdfrwt>
<pdfrwt beam="2">  1       -2 0.79593537E-02 0.18614442E+03</pdfrwt>
<totfact> 0.22406653E+04</totfact>
</mgrwt>
</event>
<event>
 4    1  0.1305170E-003  0.2925916E+03  0.7818608E-02  0.1089004E+00
         -2   -1    0    0    0  501 -0.00000000000E+00  0.00000000000E+00  0.19758187145E+02  0.19758187310E+02  0.25500000000E-02 0. -1.
          2   -1    0    0  501    0  0.00000000000E+00 -0.00000000000E+00 -0.10832199267E+04  0.10832199267E+04  0.25500000000E-02 0.  1.
    5000001    1    1    2    0    0 -0.94820948588E+02 -0.75709321411E+02 -0.42845605933E+03  0.45191427109E+03  0.77000000000E+02 0.  0.
   -5000001    1    1    2    0    0  0.94820948588E+02  0.75709321411E+02 -0.63500568018E+03  0.65106384288E+03  0.77000000000E+02 0.  0.
<mgrwt>
<rscale>  0 0.29259161E+03</rscale>
<asrwt>0</asrwt>
<pdfrwt beam="1">  1        2 0.15474567E+00 0.29259161E+03</pdfrwt>
<pdfrwt beam="2">  1       -2 0.28225989E-02 0.29259161E+03</pdfrwt>
<totfact> 0.12082840E+04</totfact>
</mgrwt>
</event>
<event>
 4    1  0.1305170E-003  0.6940705E+03  0.7818608E-02  0.9727426E-01
          2   -1    0    0  501    0  0.00000000000E+00  0.00000000000E+00  0.20204903830E+04  0.20204903830E+04  0.25500000000E-02 0.  1.
         -2   -1    0    0    0  501 -0.00000000000E+00 -0.00000000000E+00 -0.59606060820E+02  0.59606060875E+02  0.25500000000E-02 0. -1.
    5000001    1    1    2    0    0 -0.29316910541E+02  0.32187443758E+03  0.68012062654E+03  0.75693837362E+03  0.77000000000E+02 0.  0.
   -5000001    1    1    2    0    0  0.29316910541E+02 -0.32187443758E+03  0.12807636956E+04  0.13231580703E+04  0.77000000000E+02 0.  0.
<mgrwt>
<rscale>  0 0.69407052E+03</rscale>
<asrwt>0</asrwt>
<pdfrwt beam="1">  1        2 0.28864147E+00 0.69407052E+03</pdfrwt>
<pdfrwt beam="2">  1       -2 0.85151519E-02 0.69407052E+03</pdfrwt>
<totfact> 0.71360984E+02</totfact>
</mgrwt>
</event>
<event>
 4    1  0.1305170E-003  0.3403384E+03  0.7818608E-02  0.1066652E+00
          2   -1    0    0  501    0  0.00000000000E+00  0.00000000000E+00  0.28428532891E+03  0.28428532892E+03  0.25500000000E-02 0.  1.
         -2   -1    0    0    0  501 -0.00000000000E+00 -0.00000000000E+00 -0.10186087368E+03  0.10186087371E+03  0.25500000000E-02 0. -1.
    5000001    1    1    2    0    0  0.13818541673E+03 -0.61429257237E+02  0.76870079234E+02  0.18629753655E+03  0.77000000000E+02 0.  0.
   -5000001    1    1    2    0    0 -0.13818541673E+03  0.61429257237E+02  0.10555437600E+03  0.19984866608E+03  0.77000000000E+02 0.  0.
<mgrwt>
<rscale>  0 0.34033837E+03</rscale>
<asrwt>0</asrwt>
<pdfrwt beam="1">  1        2 0.40612191E-01 0.34033837E+03</pdfrwt>
<pdfrwt beam="2">  1       -2 0.14551553E-01 0.34033837E+03</pdfrwt>
<totfact> 0.45375504E+03</totfact>
</mgrwt>
</event>
<event>
 4    1  0.1305170E-003  0.2085768E+03  0.7818608E-02  0.1142698E+00
         -2   -1    0    0    0  501 -0.00000000000E+00  0.00000000000E+00  0.47230768774E+01  0.47230775658E+01  0.25500000000E-02 0. -1.
          2   -1    0    0  501    0  0.00000000000E+00 -0.00000000000E+00 -0.23027513122E+04  0.23027513122E+04  0.25500000000E-02 0.  1.
    5000001    1    1    2    0    0  0.21211720774E+02  0.65553076069E+02 -0.13054402021E+04  0.13095229147E+04  0.77000000000E+02 0.  0.
   -5000001    1    1    2    0    0 -0.21211720774E+02 -0.65553076069E+02 -0.99258803319E+03  0.99795147503E+03  0.77000000000E+02 0.  0.
<mgrwt>
<rscale>  0 0.20857682E+03</rscale>
<asrwt>0</asrwt>
<pdfrwt beam="1">  1        2 0.32896376E+00 0.20857682E+03</pdfrwt>
<pdfrwt beam="2">  1       -2 0.67472679E-03 0.20857682E+03</pdfrwt>
<totfact> 0.23447424E+04</totfact>
</mgrwt>
</event>
<event>
 4    1  0.1305170E-003  0.3261887E+03  0.7818608E-02  0.1072836E+00
         -2   -1    0    0    0  501 -0.00000000000E+00  0.00000000000E+00  0.44057257665E+02  0.44057257739E+02  0.25500000000E-02 0. -1.
          2   -1    0    0  501    0  0.00000000000E+00 -0.00000000000E+00 -0.60375449751E+03  0.60375449752E+03  0.25500000000E-02 0.  1.
    5000001    1    1    2    0    0 -0.92982790041E+02  0.10965838087E+03 -0.28002347292E+03  0.32405694735E+03  0.77000000000E+02 0.  0.
   -5000001    1    1    2    0    0  0.92982790041E+02 -0.10965838087E+03 -0.27967376693E+03  0.32375480791E+03  0.77000000000E+02 0.  0.
<mgrwt>
<rscale>  0 0.32618870E+03</rscale>
<asrwt>0</asrwt>
<pdfrwt beam="1">  1        2 0.86250637E-01 0.32618870E+03</pdfrwt>
<pdfrwt beam="2">  1       -2 0.62938943E-02 0.32618870E+03</pdfrwt>
<totfact> 0.75256884E+03</totfact>
</mgrwt>
</event>
<event>
 4    1  0.1305170E-003  0.3407956E+03  0.7818608E-02  0.1066458E+00
          2   -1    0    0  501    0  0.00000000000E+00  0.00000000000E+00  0.20686052955E+04  0.20686052955E+04  0.25500000000E-02 0.  1.
         -2   -1    0    0    0  501 -0.00000000000E+00 -0.00000000000E+00 -0.14036221587E+02  0.14036221819E+02  0.25500000000E-02 0. -1.
    5000001    1    1    2    0    0  0.14287589983E+01  0.98486909890E+02  0.17348212572E+04  0.17393204154E+04  0.77000000000E+02 0.  0.
   -5000001    1    1    2    0    0 -0.14287589983E+01 -0.98486909890E+02  0.31974781664E+03  0.34332110191E+03  0.77000000000E+02 0.  0.
<mgrwt>
<rscale>  0 0.34079555E+03</rscale>
<asrwt>0</asrwt>
<pdfrwt beam="1">  1        2 0.29551475E+00 0.34079555E+03</pdfrwt>
<pdfrwt beam="2">  1       -2 0.20051765E-02 0.34079555E+03</pdfrwt>
<totfact> 0.63049344E+03</totfact>
</mgrwt>
</event>
<event>
 4    1  0.1305170E-003  0.2376328E+03  0.7818608E-02  0.1121380E+00
          2   -1    0    0  501    0  0.00000000000E+00  0.00000000000E+00  0.31071902086E+03  0.31071902088E+03  0.25500000000E-02 0.  1.
         -2   -1    0    0    0  501 -0.00000000000E+00 -0.00000000000E+00 -0.45434422843E+02  0.45434422914E+02  0.25500000000E-02 0. -1.
    5000001    1    1    2    0    0  0.80478953006E+02  0.35915921365E+02  0.10187127605E+03  0.15515660530E+03  0.77000000000E+02 0.  0.
   -5000001    1    1    2    0    0 -0.80478953006E+02 -0.35915921365E+02  0.16341332197E+03  0.20099683849E+03  0.77000000000E+02 0.  0.
<mgrwt>
<rscale>  0 0.23763282E+03</rscale>
<asrwt>0</asrwt>
<pdfrwt beam="1">  1        2 0.44388433E-01 0.23763282E+03</pdfrwt>
<pdfrwt beam="2">  1       -2 0.64906316E-02 0.23763282E+03</pdfrwt>
<totfact> 0.14669630E+04</totfact>
</mgrwt>
</event>
<event>
 4    1  0.1305170E-003  0.6442359E+03  0.7818608E-02  0.9817656E-01
          2   -1    0    0  501    0  0.00000000000E+00  0.00000000000E+00  0.27179555714E+03  0.27179555715E+03  0.25500000000E-02 0. -1.
         -2   -1    0    0    0  501 -0.00000000000E+00 -0.00000000000E+00 -0.38175738117E+03  0.38175738118E+03  0.25500000000E-02 0.  1.
    5000001    1    1    2    0    0 -0.25746484239E+03  0.16295602877E+03 -0.12662915281E+03  0.33883145474E+03  0.77000000000E+02 0.  0.
   -5000001    1    1    2    0    0  0.25746484239E+03 -0.16295602877E+03  0.16667328781E+02  0.31472148358E+03  0.77000000000E+02 0.  0.
<mgrwt>
<rscale>  0 0.64423586E+03</rscale>
<asrwt>0</asrwt>
<pdfrwt beam="1">  1        2 0.38827937E-01 0.64423586E+03</pdfrwt>
<pdfrwt beam="2">  1       -2 0.54536769E-01 0.64423586E+03</pdfrwt>
<totfact> 0.42492311E+02</totfact>
</mgrwt>
</event>
<event>
 4    1  0.1305170E-003  0.2562517E+03  0.7818608E-02  0.1109416E+00
          2   -1    0    0  501    0  0.00000000000E+00  0.00000000000E+00  0.15818262806E+04  0.15818262806E+04  0.25500000000E-02 0.  1.
         -2   -1    0    0    0  501 -0.00000000000E+00 -0.00000000000E+00 -0.10378021907E+02  0.10378022220E+02  0.25500000000E-02 0. -1.
    5000001    1    1    2    0    0  0.70522833803E+01 -0.85059526734E+02  0.43410873503E+03  0.44907043058E+03  0.77000000000E+02 0.  0.
   -5000001    1    1    2    0    0 -0.70522833803E+01  0.85059526734E+02  0.11373395237E+04  0.11431338722E+04  0.77000000000E+02 0.  0.
<mgrwt>
<rscale>  0 0.25625166E+03</rscale>
<asrwt>0</asrwt>
<pdfrwt beam="1">  1        2 0.22597511E+00 0.25625166E+03</pdfrwt>
<pdfrwt beam="2">  1       -2 0.14825750E-02 0.25625166E+03</pdfrwt>
<totfact> 0.16975882E+04</totfact>
</mgrwt>
</event>
<event>
 4    1  0.1305170E-003  0.3011426E+03  0.7818608E-02  0.1084671E+00
         -2   -1    0    0    0  501 -0.00000000000E+00  0.00000000000E+00  0.44140022670E+02  0.44140022744E+02  0.25500000000E-02 0. -1.
          2   -1    0    0  501    0  0.00000000000E+00 -0.00000000000E+00 -0.51363169488E+03  0.51363169488E+03  0.25500000000E-02 0.  1.
    5000001    1    1    2    0    0 -0.69875432331E+02  0.10210549170E+03 -0.30489957349E+03  0.33793617355E+03  0.77000000000E+02 0.  0.
   -5000001    1    1    2    0    0  0.69875432331E+02 -0.10210549170E+03 -0.16459209872E+03  0.21983554408E+03  0.77000000000E+02 0.  0.
<mgrwt>
<rscale>  0 0.30114259E+03</rscale>
<asrwt>0</asrwt>
<pdfrwt beam="1">  1        2 0.73375953E-01 0.30114259E+03</pdfrwt>
<pdfrwt beam="2">  1       -2 0.63057178E-02 0.30114259E+03</pdfrwt>
<totfact> 0.89864501E+03</totfact>
</mgrwt>
</event>
<event>
 4    1  0.1305170E-003  0.3429706E+03  0.7818608E-02  0.1065538E+00
          2   -1    0    0  501    0  0.00000000000E+00  0.00000000000E+00  0.18028833120E+04  0.18028833120E+04  0.25500000000E-02 0.  1.
         -2   -1    0    0    0  501 -0.00000000000E+00 -0.00000000000E+00 -0.16311205371E+02  0.16311205571E+02  0.25500000000E-02 0. -1.
    5000001    1    1    2    0    0 -0.10804752079E+03  0.10842961598E+03  0.85694074827E+03  0.87390371004E+03  0.77000000000E+02 0.  0.
   -5000001    1    1    2    0    0  0.10804752079E+03 -0.10842961598E+03  0.92963135838E+03  0.94529080755E+03  0.77000000000E+02 0.  0.
<mgrwt>
<rscale>  0 0.34297055E+03</rscale>
<asrwt>0</asrwt>
<pdfrwt beam="1">  1        2 0.25755473E+00 0.34297055E+03</pdfrwt>
<pdfrwt beam="2">  1       -2 0.23301725E-02 0.34297055E+03</pdfrwt>
<totfact> 0.68187462E+03</totfact>
</mgrwt>
</event>
<event>
 4    1  0.1305170E-003  0.2030804E+03  0.7818608E-02  0.1147166E+00
         -2   -1    0    0    0  501 -0.00000000000E+00  0.00000000000E+00  0.30299968999E+02  0.30299969107E+02  0.25500000000E-02 0. -1.
          2   -1    0    0  501    0  0.00000000000E+00 -0.00000000000E+00 -0.34027807510E+03  0.34027807510E+03  0.25500000000E-02 0.  1.
    5000001    1    1    2    0    0  0.20234364216E+02 -0.57207959684E+02 -0.20324192786E+03  0.22565119408E+03  0.77000000000E+02 0.  0.
   -5000001    1    1    2    0    0 -0.20234364216E+02  0.57207959684E+02 -0.10673617823E+03  0.14492685013E+03  0.77000000000E+02 0.  0.
<mgrwt>
<rscale>  0 0.20308043E+03</rscale>
<asrwt>0</asrwt>
<pdfrwt beam="1">  1        2 0.48611151E-01 0.20308043E+03</pdfrwt>
<pdfrwt beam="2">  1       -2 0.43285672E-02 0.20308043E+03</pdfrwt>
<totfact> 0.24366400E+04</totfact>
</mgrwt>
</event>
<event>
 4    1  0.1305170E-003  0.2492055E+03  0.7818608E-02  0.1113808E+00
          2   -1    0    0  501    0  0.00000000000E+00  0.00000000000E+00  0.26492586744E+02  0.26492586866E+02  0.25500000000E-02 0.  1.
         -2   -1    0    0    0  501 -0.00000000000E+00 -0.00000000000E+00 -0.58604477991E+03  0.58604477991E+03  0.25500000000E-02 0. -1.
    5000001    1    1    2    0    0  0.76011243934E+01  0.52861661599E+02 -0.77913133770E+02  0.12186709471E+03  0.77000000000E+02 0.  0.
   -5000001    1    1    2    0    0 -0.76011243934E+01 -0.52861661599E+02 -0.48163905939E+03  0.49067027207E+03  0.77000000000E+02 0.  0.
<mgrwt>
<rscale>  0 0.24920548E+03</rscale>
<asrwt>0</asrwt>
<pdfrwt beam="1">  1        2 0.37846556E-02 0.24920548E+03</pdfrwt>
<pdfrwt beam="2">  1       -2 0.83720675E-01 0.24920548E+03</pdfrwt>
<totfact> 0.29197942E+03</totfact>
</mgrwt>
</event>
<event>
 4    1  0.1305170E-003  0.1971844E+03  0.7818608E-02  0.1152137E+00
         -2   -1    0    0    0  501 -0.00000000000E+00  0.00000000000E+00  0.85304903861E+01  0.85304907673E+01  0.25500000000E-02 0. -1.
          2   -1    0    0  501    0  0.00000000000E+00 -0.00000000000E+00 -0.11394912296E+04  0.11394912296E+04  0.25500000000E-02 0.  1.
    5000001    1    1    2    0    0  0.45632055502E+02  0.37467078977E+02 -0.46374347045E+03  0.47378589350E+03  0.77000000000E+02 0.  0.
   -5000001    1    1    2    0    0 -0.45632055502E+02 -0.37467078977E+02 -0.66721726880E+03  0.67423582690E+03  0.77000000000E+02 0.  0.
<mgrwt>
<rscale>  0 0.19718437E+03</rscale>
<asrwt>0</asrwt>
<pdfrwt beam="1">  1        2 0.16278436E+00 0.19718437E+03</pdfrwt>
<pdfrwt beam="2">  1       -2 0.12186422E-02 0.19718437E+03</pdfrwt>
<totfact> 0.37721186E+04</totfact>
</mgrwt>
</event>
<event>
 4    1  0.1305170E-003  0.3258746E+03  0.7818608E-02  0.1072977E+00
         -2   -1    0    0    0  501 -0.00000000000E+00  0.00000000000E+00  0.19859750560E+03  0.19859750561E+03  0.25500000000E-02 0.  1.
          2   -1    0    0  501    0  0.00000000000E+00 -0.00000000000E+00 -0.13368027776E+03  0.13368027778E+03  0.25500000000E-02 0. -1.
    5000001    1    1    2    0    0  0.78951458346E+02 -0.78283371253E+02  0.12511746017E+03  0.18424168320E+03  0.77000000000E+02 0.  0.
   -5000001    1    1    2    0    0 -0.78951458346E+02  0.78283371253E+02 -0.60200232326E+02  0.14803610020E+03  0.77000000000E+02 0.  0.
<mgrwt>
<rscale>  0 0.32587464E+03</rscale>
<asrwt>0</asrwt>
<pdfrwt beam="1">  1        2 0.19097183E-01 0.32587464E+03</pdfrwt>
<pdfrwt beam="2">  1       -2 0.28371072E-01 0.32587464E+03</pdfrwt>
<totfact> 0.33239884E+03</totfact>
</mgrwt>
</event>
<event>
 4    1  0.1305170E-003  0.2812634E+03  0.7818608E-02  0.1095001E+00
          2   -1    0    0  501    0  0.00000000000E+00  0.00000000000E+00  0.44507415303E+03  0.44507415303E+03  0.25500000000E-02 0.  1.
         -2   -1    0    0    0  501 -0.00000000000E+00 -0.00000000000E+00 -0.44435902980E+02  0.44435903054E+02  0.25500000000E-02 0. -1.
    5000001    1    1    2    0    0  0.43633481086E+02 -0.10804458207E+03  0.22895696746E+03  0.26819359675E+03  0.77000000000E+02 0.  0.
   -5000001    1    1    2    0    0 -0.43633481086E+02  0.10804458207E+03  0.17168128258E+03  0.22131645934E+03  0.77000000000E+02 0.  0.
<mgrwt>
<rscale>  0 0.28126338E+03</rscale>
<asrwt>0</asrwt>
<pdfrwt beam="1">  1        2 0.63582019E-01 0.28126338E+03</pdfrwt>
<pdfrwt beam="2">  1       -2 0.63479864E-02 0.28126338E+03</pdfrwt>
<totfact> 0.10388751E+04</totfact>
</mgrwt>
</event>
<event>
 4    1  0.1305170E-003  0.4038527E+03  0.7818608E-02  0.1042454E+00
         -2   -1    0    0    0  501 -0.00000000000E+00  0.00000000000E+00  0.16851389117E+03  0.16851389119E+03  0.25500000000E-02 0. -1.
          2   -1    0    0  501    0  0.00000000000E+00 -0.00000000000E+00 -0.24196378588E+03  0.24196378589E+03  0.25500000000E-02 0.  1.
    5000001    1    1    2    0    0  0.18100070109E+03 -0.39051114617E+02 -0.12693577530E+02  0.20093872265E+03  0.77000000000E+02 0.  0.
   -5000001    1    1    2    0    0 -0.18100070109E+03  0.39051114617E+02 -0.60756317175E+02  0.20953895444E+03  0.77000000000E+02 0.  0.
<mgrwt>
<rscale>  0 0.40385274E+03</rscale>
<asrwt>0</asrwt>
<pdfrwt beam="1">  1        2 0.34566255E-01 0.40385274E+03</pdfrwt>
<pdfrwt beam="2">  1       -2 0.24073413E-01 0.40385274E+03</pdfrwt>
<totfact> 0.22966628E+03</totfact>
</mgrwt>
</event>
<event>
 4    1  0.1305170E-003  0.2624093E+03  0.7818608E-02  0.1105704E+00
          2   -1    0    0  501    0  0.00000000000E+00  0.00000000000E+00  0.17898547494E+04  0.17898547494E+04  0.25500000000E-02 0.  1.
         -2   -1    0    0    0  501 -0.00000000000E+00 -0.00000000000E+00 -0.96179114752E+01  0.96179118132E+01  0.25500000000E-02 0. -1.
    5000001    1    1    2    0    0 -0.51220325337E+02  0.78036317229E+02  0.54230874040E+03  0.55564463324E+03  0.77000000000E+02 0.  0.
   -5000001    1    1    2    0    0  0.51220325337E+02 -0.78036317229E+02  0.12379280975E+04  0.12438280280E+04  0.77000000000E+02 0.  0.
<mgrwt>
<rscale>  0 0.26240934E+03</rscale>
<asrwt>0</asrwt>
<pdfrwt beam="1">  1        2 0.25569394E+00 0.26240934E+03</pdfrwt>
<pdfrwt beam="2">  1       -2 0.13739852E-02 0.26240934E+03</pdfrwt>
<totfact> 0.14989885E+04</totfact>
</mgrwt>
</event>
<event>
 4    1  0.1305170E-003  0.3106893E+03  0.7818608E-02  0.1080016E+00
         -2   -1    0    0    0  501 -0.00000000000E+00  0.00000000000E+00  0.95373079136E+01  0.95373082545E+01  0.25500000000E-02 0. -1.
          2   -1    0    0  501    0  0.00000000000E+00 -0.00000000000E+00 -0.25302689700E+04  0.25302689700E+04  0.25500000000E-02 0.  1.
    5000001    1    1    2    0    0 -0.14573650300E+02  0.13262182416E+03 -0.10964595596E+04  0.11072278470E+04  0.77000000000E+02 0.  0.
   -5000001    1    1    2    0    0  0.14573650300E+02 -0.13262182416E+03 -0.14242721025E+04  0.14325784312E+04  0.77000000000E+02 0.  0.
<mgrwt>
<rscale>  0 0.31068926E+03</rscale>
<asrwt>0</asrwt>
<pdfrwt beam="1">  1        2 0.36146657E+00 0.31068926E+03</pdfrwt>
<pdfrwt beam="2">  1       -2 0.13624742E-02 0.31068926E+03</pdfrwt>
<totfact> 0.65768737E+03</totfact>
</mgrwt>
</event>
<event>
 4    1  0.1305170E-003  0.1680015E+03  0.7818608E-02  0.1179948E+00
         -2   -1    0    0    0  501 -0.00000000000E+00  0.00000000000E+00  0.16438476152E+02  0.16438476349E+02  0.25500000000E-02 0. -1.
          2   -1    0    0  501    0  0.00000000000E+00 -0.00000000000E+00 -0.42924435703E+03  0.42924435703E+03  0.25500000000E-02 0.  1.
    5000001    1    1    2    0    0 -0.33384848429E+02  0.23430137929E+01 -0.19934149510E+03  0.21630087722E+03  0.77000000000E+02 0.  0.
   -5000001    1    1    2    0    0  0.33384848429E+02 -0.23430137929E+01 -0.21346438577E+03  0.22938195616E+03  0.77000000000E+02 0.  0.
<mgrwt>
<rscale>  0 0.16800147E+03</rscale>
<asrwt>0</asrwt>
<pdfrwt beam="1">  1        2 0.61320615E-01 0.16800147E+03</pdfrwt>
<pdfrwt beam="2">  1       -2 0.23483540E-02 0.16800147E+03</pdfrwt>
<totfact> 0.46237700E+04</totfact>
</mgrwt>
</event>
<event>
 4    1  0.1305170E-003  0.2590611E+03  0.7818608E-02  0.1107709E+00
          2   -1    0    0  501    0  0.00000000000E+00  0.00000000000E+00  0.12764373863E+04  0.12764373863E+04  0.25500000000E-02 0.  1.
         -2   -1    0    0    0  501 -0.00000000000E+00 -0.00000000000E+00 -0.13144521267E+02  0.13144521514E+02  0.25500000000E-02 0. -1.
    5000001    1    1    2    0    0 -0.10740120915E+01  0.85147778092E+02  0.93023211177E+03  0.93728975210E+03  0.77000000000E+02 0.  0.
   -5000001    1    1    2    0    0  0.10740120915E+01 -0.85147778092E+02  0.33306075321E+03  0.35229215567E+03  0.77000000000E+02 0.  0.
<mgrwt>
<rscale>  0 0.25906106E+03</rscale>
<asrwt>0</asrwt>
<pdfrwt beam="1">  1        2 0.18234807E+00 0.25906106E+03</pdfrwt>
<pdfrwt beam="2">  1       -2 0.18777901E-02 0.25906106E+03</pdfrwt>
<totfact> 0.17217687E+04</totfact>
</mgrwt>
</event>
<event>
 4    1  0.1305170E-003  0.2512207E+03  0.7818608E-02  0.1112536E+00
         -2   -1    0    0    0  501 -0.00000000000E+00  0.00000000000E+00  0.18440762683E+02  0.18440762860E+02  0.25500000000E-02 0. -1.
          2   -1    0    0  501    0  0.00000000000E+00 -0.00000000000E+00 -0.85560266731E+03  0.85560266731E+03  0.25500000000E-02 0.  1.
    5000001    1    1    2    0    0  0.35123664302E+02  0.15289392507E+02 -0.73710272548E+03  0.74210300176E+03  0.77000000000E+02 0.  0.
   -5000001    1    1    2    0    0 -0.35123664302E+02 -0.15289392507E+02 -0.10005917915E+03  0.13194042841E+03  0.77000000000E+02 0.  0.
<mgrwt>
<rscale>  0 0.25122075E+03</rscale>
<asrwt>0</asrwt>
<pdfrwt beam="1">  1        2 0.12222893E+00 0.25122075E+03</pdfrwt>
<pdfrwt beam="2">  1       -2 0.26343952E-02 0.25122075E+03</pdfrwt>
<totfact> 0.18236223E+04</totfact>
</mgrwt>
</event>
<event>
 4    1  0.1305170E-003  0.1970193E+03  0.7818608E-02  0.1152278E+00
          2   -1    0    0  501    0  0.00000000000E+00  0.00000000000E+00  0.43004165472E+03  0.43004165473E+03  0.25500000000E-02 0.  1.
         -2   -1    0    0    0  501 -0.00000000000E+00 -0.00000000000E+00 -0.22565603962E+02  0.22565604106E+02  0.25500000000E-02 0. -1.
    5000001    1    1    2    0    0 -0.32014650382E+02 -0.48693442697E+02  0.24847064375E+03  0.26657578661E+03  0.77000000000E+02 0.  0.
   -5000001    1    1    2    0    0  0.32014650382E+02  0.48693442697E+02  0.15900540702E+03  0.18603147223E+03  0.77000000000E+02 0.  0.
<mgrwt>
<rscale>  0 0.19701929E+03</rscale>
<asrwt>0</asrwt>
<pdfrwt beam="1">  1        2 0.61434521E-01 0.19701929E+03</pdfrwt>
<pdfrwt beam="2">  1       -2 0.32236578E-02 0.19701929E+03</pdfrwt>
<totfact> 0.29353163E+04</totfact>
</mgrwt>
</event>
<event>
 4    1  0.1305170E-003  0.2620101E+03  0.7818608E-02  0.1105942E+00
          2   -1    0    0  501    0  0.00000000000E+00  0.00000000000E+00  0.45233429684E+03  0.45233429684E+03  0.25500000000E-02 0. -1.
         -2   -1    0    0    0  501 -0.00000000000E+00 -0.00000000000E+00 -0.37941668620E+02  0.37941668705E+02  0.25500000000E-02 0.  1.
    5000001    1    1    2    0    0  0.23658616709E+02  0.10320683671E+03  0.21596043953E+03  0.25254562504E+03  0.77000000000E+02 0.  0.
   -5000001    1    1    2    0    0 -0.23658616709E+02 -0.10320683671E+03  0.19843218869E+03  0.23773034051E+03  0.77000000000E+02 0.  0.
<mgrwt>
<rscale>  0 0.26201006E+03</rscale>
<asrwt>0</asrwt>
<pdfrwt beam="1">  1        2 0.64619181E-01 0.26201006E+03</pdfrwt>
<pdfrwt beam="2">  1       -2 0.54202388E-02 0.26201006E+03</pdfrwt>
<totfact> 0.12960703E+04</totfact>
</mgrwt>
</event>
<event>
 4    1  0.1305170E-003  0.3022412E+03  0.7818608E-02  0.1084126E+00
         -2   -1    0    0    0  501 -0.00000000000E+00  0.00000000000E+00  0.12371611761E+02  0.12371612024E+02  0.25500000000E-02 0. -1.
          2   -1    0    0  501    0  0.00000000000E+00 -0.00000000000E+00 -0.18459542815E+04  0.18459542815E+04  0.25500000000E-02 0.  1.
    5000001    1    1    2    0    0  0.35402758016E+02 -0.11302348801E+03 -0.12467976471E+04  0.12547752934E+04  0.77000000000E+02 0.  0.
   -5000001    1    1    2    0    0 -0.35402758016E+02  0.11302348801E+03 -0.58678502268E+03  0.60355060017E+03  0.77000000000E+02 0.  0.
<mgrwt>
<rscale>  0 0.30224116E+03</rscale>
<asrwt>0</asrwt>
<pdfrwt beam="1">  1        2 0.26370758E+00 0.30224116E+03</pdfrwt>
<pdfrwt beam="2">  1       -2 0.17673743E-02 0.30224116E+03</pdfrwt>
<totfact> 0.97600193E+03</totfact>
</mgrwt>
</event>
<event>
 4    1  0.1305170E-003  0.2610702E+03  0.7818608E-02  0.1106502E+00
          2   -1    0    0  501    0  0.00000000000E+00  0.00000000000E+00  0.27488648882E+04  0.27488648882E+04  0.25500000000E-02 0. -1.
         -2   -1    0    0    0  501 -0.00000000000E+00 -0.00000000000E+00 -0.61987091707E+01  0.61987096952E+01  0.25500000000E-02 0.  1.
    5000001    1    1    2    0    0  0.85206531842E+02 -0.41247928896E+02  0.88214106423E+03  0.89054107256E+03  0.77000000000E+02 0.  0.
   -5000001    1    1    2    0    0 -0.85206531842E+02  0.41247928896E+02  0.18605251148E+04  0.18645225254E+04  0.77000000000E+02 0.  0.
<mgrwt>
<rscale>  0 0.26107022E+03</rscale>
<asrwt>0</asrwt>
<pdfrwt beam="1">  1        2 0.39269379E+00 0.26107022E+03</pdfrwt>
<pdfrwt beam="2">  1       -2 0.88553262E-03 0.26107022E+03</pdfrwt>
<totfact> 0.95438609E+03</totfact>
</mgrwt>
</event>
<event>
 4    1  0.1305170E-003  0.1974540E+03  0.7818608E-02  0.1151905E+00
         -2   -1    0    0    0  501 -0.00000000000E+00  0.00000000000E+00  0.75697915099E+02  0.75697915142E+02  0.25500000000E-02 0. -1.
          2   -1    0    0  501    0  0.00000000000E+00 -0.00000000000E+00 -0.12876210462E+03  0.12876210465E+03  0.25500000000E-02 0.  1.
    5000001    1    1    2    0    0  0.14189709504E+02 -0.59494253825E+02 -0.35624825201E+02  0.10458987649E+03  0.77000000000E+02 0.  0.
   -5000001    1    1    2    0    0 -0.14189709504E+02  0.59494253825E+02 -0.17439364321E+02  0.99870143296E+02  0.77000000000E+02 0.  0.
<mgrwt>
<rscale>  0 0.19745402E+03</rscale>
<asrwt>0</asrwt>
<pdfrwt beam="1">  1        2 0.18394586E-01 0.19745402E+03</pdfrwt>
<pdfrwt beam="2">  1       -2 0.10813988E-01 0.19745402E+03</pdfrwt>
<totfact> 0.17232673E+04</totfact>
</mgrwt>
</event>
<event>
 4    1  0.1305170E-003  0.4007742E+03  0.7818608E-02  0.1043512E+00
         -2   -1    0    0    0  501 -0.00000000000E+00  0.00000000000E+00  0.71233776279E+02  0.71233776324E+02  0.25500000000E-02 0. -1.
          2   -1    0    0  501    0  0.00000000000E+00 -0.00000000000E+00 -0.56370720114E+03  0.56370720114E+03  0.25500000000E-02 0.  1.
    5000001    1    1    2    0    0 -0.40718229088E+02 -0.97446966890E+02 -0.48688191876E+03  0.50411991465E+03  0.77000000000E+02 0.  0.
   -5000001    1    1    2    0    0  0.40718229088E+02  0.97446966890E+02 -0.55915061033E+01  0.13082106282E+03  0.77000000000E+02 0.  0.
<mgrwt>
<rscale>  0 0.40077421E+03</rscale>
<asrwt>0</asrwt>
<pdfrwt beam="1">  1        2 0.80529598E-01 0.40077421E+03</pdfrwt>
<pdfrwt beam="2">  1       -2 0.10176254E-01 0.40077421E+03</pdfrwt>
<totfact> 0.38395447E+03</totfact>
</mgrwt>
</event>
<event>
 4    1  0.1305170E-003  0.3622265E+03  0.7818608E-02  0.1057706E+00
         -2   -1    0    0    0  501 -0.00000000000E+00  0.00000000000E+00  0.87325847072E+02  0.87325847109E+02  0.25500000000E-02 0. -1.
          2   -1    0    0  501    0  0.00000000000E+00 -0.00000000000E+00 -0.37562779392E+03  0.37562779393E+03  0.25500000000E-02 0.  1.
    5000001    1    1    2    0    0  0.14556031304E+03 -0.17049092983E+02 -0.23802261517E+03  0.28993489206E+03  0.77000000000E+02 0.  0.
   -5000001    1    1    2    0    0 -0.14556031304E+03  0.17049092983E+02 -0.50279331675E+02  0.17301874897E+03  0.77000000000E+02 0.  0.
<mgrwt>
<rscale>  0 0.36222653E+03</rscale>
<asrwt>0</asrwt>
<pdfrwt beam="1">  1        2 0.53661113E-01 0.36222653E+03</pdfrwt>
<pdfrwt beam="2">  1       -2 0.12475121E-01 0.36222653E+03</pdfrwt>
<totfact> 0.43253064E+03</totfact>
</mgrwt>
</event>
<event>
 4    1  0.1305170E-003  0.2108835E+03  0.7818608E-02  0.1140868E+00
         -2   -1    0    0    0  501 -0.00000000000E+00  0.00000000000E+00  0.64877263578E+02  0.64877263628E+02  0.25500000000E-02 0. -1.
          2   -1    0    0  501    0  0.00000000000E+00 -0.00000000000E+00 -0.17136912076E+03  0.17136912078E+03  0.25500000000E-02 0.  1.
    5000001    1    1    2    0    0 -0.19576131581E+02 -0.60130878309E+02 -0.14600482008E+02  0.10070313564E+03  0.77000000000E+02 0.  0.
   -5000001    1    1    2    0    0  0.19576131581E+02  0.60130878309E+02 -0.91891375178E+02  0.13554324877E+03  0.77000000000E+02 0.  0.
<mgrwt>
<rscale>  0 0.21088347E+03</rscale>
<asrwt>0</asrwt>
<pdfrwt beam="1">  1        2 0.24481303E-01 0.21088347E+03</pdfrwt>
<pdfrwt beam="2">  1       -2 0.92681806E-02 0.21088347E+03</pdfrwt>
<totfact> 0.15991334E+04</totfact>
</mgrwt>
</event>
<event>
 4    1  0.1305170E-003  0.2305688E+03  0.7818608E-02  0.1126240E+00
          2   -1    0    0  501    0  0.00000000000E+00  0.00000000000E+00  0.10754133588E+04  0.10754133588E+04  0.25500000000E-02 0.  1.
         -2   -1    0    0    0  501 -0.00000000000E+00 -0.00000000000E+00 -0.12358494258E+02  0.12358494521E+02  0.25500000000E-02 0. -1.
    5000001    1    1    2    0    0  0.82359806050E+02 -0.13268926002E+02  0.62615241602E+03  0.63636078614E+03  0.77000000000E+02 0.  0.
   -5000001    1    1    2    0    0 -0.82359806050E+02  0.13268926002E+02  0.43690244849E+03  0.45141106715E+03  0.77000000000E+02 0.  0.
<mgrwt>
<rscale>  0 0.23056877E+03</rscale>
<asrwt>0</asrwt>
<pdfrwt beam="1">  1        2 0.15363049E+00 0.23056877E+03</pdfrwt>
<pdfrwt beam="2">  1       -2 0.17654991E-02 0.23056877E+03</pdfrwt>
<totfact> 0.24128805E+04</totfact>
</mgrwt>
</event>
<event>
 4    1  0.1305170E-003  0.1897992E+03  0.7818608E-02  0.1158643E+00
          2   -1    0    0  501    0  0.00000000000E+00  0.00000000000E+00  0.18264189799E+02  0.18264189977E+02  0.25500000000E-02 0.  1.
         -2   -1    0    0    0  501 -0.00000000000E+00 -0.00000000000E+00 -0.49309263272E+03  0.49309263273E+03  0.25500000000E-02 0. -1.
    5000001    1    1    2    0    0 -0.18756989979E+02  0.47951247761E+02 -0.18182025602E+03  0.20405575790E+03  0.77000000000E+02 0.  0.
   -5000001    1    1    2    0    0  0.18756989979E+02 -0.47951247761E+02 -0.29300818691E+03  0.30730106480E+03  0.77000000000E+02 0.  0.
<mgrwt>
<rscale>  0 0.18979924E+03</rscale>
<asrwt>0</asrwt>
<pdfrwt beam="1">  1        2 0.26091703E-02 0.18979924E+03</pdfrwt>
<pdfrwt beam="2">  1       -2 0.70441796E-01 0.18979924E+03</pdfrwt>
<totfact> 0.69253329E+03</totfact>
</mgrwt>
</event>
<event>
 4    1  0.1305170E-003  0.2813916E+03  0.7818608E-02  0.1094931E+00
         -2   -1    0    0    0  501 -0.00000000000E+00  0.00000000000E+00  0.99642964164E+02  0.99642964196E+02  0.25500000000E-02 0. -1.
          2   -1    0    0  501    0  0.00000000000E+00 -0.00000000000E+00 -0.19866232511E+03  0.19866232512E+03  0.25500000000E-02 0.  1.
    5000001    1    1    2    0    0 -0.88634160619E+02  0.74506608632E+02 -0.72223055454E+02  0.15669211498E+03  0.77000000000E+02 0.  0.
   -5000001    1    1    2    0    0  0.88634160619E+02 -0.74506608632E+02 -0.26796305491E+02  0.14161317434E+03  0.77000000000E+02 0.  0.
<mgrwt>
<rscale>  0 0.28139156E+03</rscale>
<asrwt>0</asrwt>
<pdfrwt beam="1">  1        2 0.28380332E-01 0.28139156E+03</pdfrwt>
<pdfrwt beam="2">  1       -2 0.14234709E-01 0.28139156E+03</pdfrwt>
<totfact> 0.69187704E+03</totfact>
</mgrwt>
</event>
<event>
 4    1  0.1305170E-003  0.3252726E+03  0.7818608E-02  0.1073248E+00
          2   -1    0    0  501    0  0.00000000000E+00  0.00000000000E+00  0.10527691979E+04  0.10527691979E+04  0.25500000000E-02 0.  1.
         -2   -1    0    0    0  501 -0.00000000000E+00 -0.00000000000E+00 -0.25124754229E+02  0.25124754358E+02  0.25500000000E-02 0. -1.
    5000001    1    1    2    0    0 -0.89774792999E+02  0.95571038078E+02  0.32264539411E+03  0.35668247380E+03  0.77000000000E+02 0.  0.
   -5000001    1    1    2    0    0  0.89774792999E+02 -0.95571038078E+02  0.70499904952E+03  0.72121147842E+03  0.77000000000E+02 0.  0.
<mgrwt>
<rscale>  0 0.32527261E+03</rscale>
<asrwt>0</asrwt>
<pdfrwt beam="1">  1        2 0.15039560E+00 0.32527261E+03</pdfrwt>
<pdfrwt beam="2">  1       -2 0.35892507E-02 0.32527261E+03</pdfrwt>
<totfact> 0.88065835E+03</totfact>
</mgrwt>
</event>
<event>
 4    1  0.1305170E-003  0.4027114E+03  0.7818608E-02  0.1042845E+00
         -2   -1    0    0    0  501 -0.00000000000E+00  0.00000000000E+00  0.47082676092E+02  0.47082676161E+02  0.25500000000E-02 0. -1.
          2   -1    0    0  501    0  0.00000000000E+00 -0.00000000000E+00 -0.86112613580E+03  0.86112613580E+03  0.25500000000E-02 0.  1.
    5000001    1    1    2    0    0  0.64024869953E+02  0.16297973102E+03 -0.26521881011E+03  0.32700396624E+03  0.77000000000E+02 0.  0.
   -5000001    1    1    2    0    0 -0.64024869953E+02 -0.16297973102E+03 -0.54882464959E+03  0.58120484573E+03  0.77000000000E+02 0.  0.
<mgrwt>
<rscale>  0 0.40271143E+03</rscale>
<asrwt>0</asrwt>
<pdfrwt beam="1">  1        2 0.12301801E+00 0.40271143E+03</pdfrwt>
<pdfrwt beam="2">  1       -2 0.67260971E-02 0.40271143E+03</pdfrwt>
<totfact> 0.44307739E+03</totfact>
</mgrwt>
</event>
<event>
 4    1  0.1305170E-003  0.3415430E+03  0.7818608E-02  0.1066141E+00
         -2   -1    0    0    0  501 -0.00000000000E+00  0.00000000000E+00  0.89634375806E+02  0.89634375842E+02  0.25500000000E-02 0. -1.
          2   -1    0    0  501    0  0.00000000000E+00 -0.00000000000E+00 -0.32535400720E+03  0.32535400721E+03  0.25500000000E-02 0.  1.
    5000001    1    1    2    0    0  0.13235694062E+03 -0.63887190397E+02 -0.68744982366E+02  0.17959622888E+03  0.77000000000E+02 0.  0.
   -5000001    1    1    2    0    0 -0.13235694062E+03  0.63887190397E+02 -0.16697464903E+03  0.23539215417E+03  0.77000000000E+02 0.  0.
<mgrwt>
<rscale>  0 0.34154299E+03</rscale>
<asrwt>0</asrwt>
<pdfrwt beam="1">  1        2 0.46479143E-01 0.34154299E+03</pdfrwt>
<pdfrwt beam="2">  1       -2 0.12804911E-01 0.34154299E+03</pdfrwt>
<totfact> 0.48381386E+03</totfact>
</mgrwt>
</event>
<event>
 4    1  0.1305170E-003  0.2438107E+03  0.7818608E-02  0.1117280E+00
         -2   -1    0    0    0  501 -0.00000000000E+00  0.00000000000E+00  0.36878414591E+02  0.36878414679E+02  0.25500000000E-02 0. -1.
          2   -1    0    0  501    0  0.00000000000E+00 -0.00000000000E+00 -0.40297044501E+03  0.40297044502E+03  0.25500000000E-02 0.  1.
    5000001    1    1    2    0    0 -0.91098006879E+02  0.20591811263E+02 -0.15696243943E+03  0.19821472433E+03  0.77000000000E+02 0.  0.
   -5000001    1    1    2    0    0  0.91098006879E+02 -0.20591811263E+02 -0.20912959099E+03  0.24163413537E+03  0.77000000000E+02 0.  0.
<mgrwt>
<rscale>  0 0.24381067E+03</rscale>
<asrwt>0</asrwt>
<pdfrwt beam="1">  1        2 0.57567204E-01 0.24381067E+03</pdfrwt>
<pdfrwt beam="2">  1       -2 0.52683452E-02 0.24381067E+03</pdfrwt>
<totfact> 0.15283597E+04</totfact>
</mgrwt>
</event>
<event>
 4    1  0.1305170E-003  0.1980744E+03  0.7818608E-02  0.1151374E+00
          2   -1    0    0  501    0  0.00000000000E+00  0.00000000000E+00  0.57480674000E+02  0.57480674056E+02  0.25500000000E-02 0.  1.
         -2   -1    0    0    0  501 -0.00000000000E+00 -0.00000000000E+00 -0.17063759716E+03  0.17063759718E+03  0.25500000000E-02 0. -1.
    5000001    1    1    2    0    0  0.41339501041E+02  0.38881710123E+02 -0.27022164263E+02  0.99397882723E+02  0.77000000000E+02 0.  0.
   -5000001    1    1    2    0    0 -0.41339501041E+02 -0.38881710123E+02 -0.86134758897E+02  0.12872038851E+03  0.77000000000E+02 0.  0.
<mgrwt>
<rscale>  0 0.19807437E+03</rscale>
<asrwt>0</asrwt>
<pdfrwt beam="1">  1        2 0.82115249E-02 0.19807437E+03</pdfrwt>
<pdfrwt beam="2">  1       -2 0.24376799E-01 0.19807437E+03</pdfrwt>
<totfact> 0.11809577E+04</totfact>
</mgrwt>
</event>
<event>
 4    1  0.1305170E-003  0.4700850E+03  0.7818608E-02  0.1021896E+00
          2   -1    0    0  501    0  0.00000000000E+00  0.00000000000E+00  0.20631691396E+04  0.20631691396E+04  0.25500000000E-02 0.  1.
         -2   -1    0    0    0  501 -0.00000000000E+00 -0.00000000000E+00 -0.26776755628E+02  0.26776755750E+02  0.25500000000E-02 0. -1.
    5000001    1    1    2    0    0 -0.82645305461E+02  0.19652337510E+03  0.74182444087E+03  0.77568304387E+03  0.77000000000E+02 0.  0.
   -5000001    1    1    2    0    0  0.82645305461E+02 -0.19652337510E+03  0.12945679431E+04  0.13142628515E+04  0.77000000000E+02 0.  0.
<mgrwt>
<rscale>  0 0.47008500E+03</rscale>
<asrwt>0</asrwt>
<pdfrwt beam="1">  1        2 0.29473847E+00 0.47008500E+03</pdfrwt>
<pdfrwt beam="2">  1       -2 0.38252506E-02 0.47008500E+03</pdfrwt>
<totfact> 0.23987086E+03</totfact>
</mgrwt>
</event>
<event>
 4    1  0.1305170E-003  0.3252069E+03  0.7818608E-02  0.1073278E+00
          2   -1    0    0  501    0  0.00000000000E+00  0.00000000000E+00  0.11582450004E+04  0.11582450004E+04  0.25500000000E-02 0.  1.
         -2   -1    0    0    0  501 -0.00000000000E+00 -0.00000000000E+00 -0.22827540789E+02  0.22827540932E+02  0.25500000000E-02 0. -1.
    5000001    1    1    2    0    0 -0.86290968648E+02 -0.58941970031E+02  0.21204495077E+03  0.24862089262E+03  0.77000000000E+02 0.  0.
   -5000001    1    1    2    0    0  0.86290968648E+02  0.58941970031E+02  0.92337250880E+03  0.93245164867E+03  0.77000000000E+02 0.  0.
<mgrwt>
<rscale>  0 0.32520692E+03</rscale>
<asrwt>0</asrwt>
<pdfrwt beam="1">  1        2 0.16546358E+00 0.32520692E+03</pdfrwt>
<pdfrwt beam="2">  1       -2 0.32610772E-02 0.32520692E+03</pdfrwt>
<totfact> 0.88638311E+03</totfact>
</mgrwt>
</event>
<event>
 4    1  0.1305170E-003  0.3000975E+03  0.7818608E-02  0.1085192E+00
         -2   -1    0    0    0  501 -0.00000000000E+00  0.00000000000E+00  0.49370000471E+03  0.49370000472E+03  0.25500000000E-02 0. -1.
          2   -1    0    0  501    0  0.00000000000E+00 -0.00000000000E+00 -0.45603874600E+02  0.45603874672E+02  0.25500000000E-02 0.  1.
    5000001    1    1    2    0    0  0.52350117321E+02  0.11395970869E+03  0.17139951663E+03  0.22590737989E+03  0.77000000000E+02 0.  0.
   -5000001    1    1    2    0    0 -0.52350117321E+02 -0.11395970869E+03  0.27669661348E+03  0.31339649950E+03  0.77000000000E+02 0.  0.
<mgrwt>
<rscale>  0 0.30009754E+03</rscale>
<asrwt>0</asrwt>
<pdfrwt beam="1">  1        2 0.65148390E-02 0.30009754E+03</pdfrwt>
<pdfrwt beam="2">  1       -2 0.70528575E-01 0.30009754E+03</pdfrwt>
<totfact> 0.20844845E+03</totfact>
</mgrwt>
</event>
<event>
 4    1  0.1305170E-003  0.4036740E+03  0.7818608E-02  0.1042515E+00
          2   -1    0    0  501    0  0.00000000000E+00  0.00000000000E+00  0.14244073258E+04  0.14244073258E+04  0.25500000000E-02 0.  1.
         -2   -1    0    0    0  501 -0.00000000000E+00 -0.00000000000E+00 -0.28600083401E+02  0.28600083515E+02  0.25500000000E-02 0. -1.
    5000001    1    1    2    0    0  0.18425003024E+03  0.13946166706E+02  0.60497072442E+03  0.63722927319E+03  0.77000000000E+02 0.  0.
   -5000001    1    1    2    0    0 -0.18425003024E+03 -0.13946166706E+02  0.79083651800E+03  0.81577813615E+03  0.77000000000E+02 0.  0.
<mgrwt>
<rscale>  0 0.40367397E+03</rscale>
<asrwt>0</asrwt>
<pdfrwt beam="1">  1        2 0.20348676E+00 0.40367397E+03</pdfrwt>
<pdfrwt beam="2">  1       -2 0.40857262E-02 0.40367397E+03</pdfrwt>
<totfact> 0.45552712E+03</totfact>
</mgrwt>
</event>
<event>
 4    1  0.1305170E-003  0.1921646E+03  0.7818608E-02  0.1156523E+00
          2   -1    0    0  501    0  0.00000000000E+00  0.00000000000E+00  0.19546372801E+03  0.19546372802E+03  0.25500000000E-02 0.  1.
         -2   -1    0    0    0  501 -0.00000000000E+00 -0.00000000000E+00 -0.47230289516E+02  0.47230289585E+02  0.25500000000E-02 0. -1.
    5000001    1    1    2    0    0  0.26762379026E+02 -0.50807935076E+02  0.71254175471E+02  0.11959861504E+03  0.77000000000E+02 0.  0.
   -5000001    1    1    2    0    0 -0.26762379026E+02  0.50807935076E+02  0.76979263019E+02  0.12309540257E+03  0.77000000000E+02 0.  0.
<mgrwt>
<rscale>  0 0.19216460E+03</rscale>
<asrwt>0</asrwt>
<pdfrwt beam="1">  1        2 0.27923390E-01 0.19216460E+03</pdfrwt>
<pdfrwt beam="2">  1       -2 0.67471841E-02 0.19216460E+03</pdfrwt>
<totfact> 0.22486135E+04</totfact>
</mgrwt>
</event>
<event>
 4    1  0.1305170E-003  0.2498900E+03  0.7818608E-02  0.1113374E+00
          2   -1    0    0  501    0  0.00000000000E+00  0.00000000000E+00  0.10509878835E+04  0.10509878835E+04  0.25500000000E-02 0.  1.
         -2   -1    0    0    0  501 -0.00000000000E+00 -0.00000000000E+00 -0.14853887595E+02  0.14853887814E+02  0.25500000000E-02 0. -1.
    5000001    1    1    2    0    0 -0.13326700117E+02 -0.94765678775E+02  0.42041982397E+03  0.43799539176E+03  0.77000000000E+02 0.  0.
   -5000001    1    1    2    0    0  0.13326700117E+02  0.94765678775E+02  0.61571417192E+03  0.62784637955E+03  0.77000000000E+02 0.  0.
<mgrwt>
<rscale>  0 0.24989002E+03</rscale>
<asrwt>0</asrwt>
<pdfrwt beam="1">  1        2 0.15014118E+00 0.24989002E+03</pdfrwt>
<pdfrwt beam="2">  1       -2 0.21219833E-02 0.24989002E+03</pdfrwt>
<totfact> 0.19104611E+04</totfact>
</mgrwt>
</event>
<event>
 4    1  0.1305170E-003  0.3213789E+03  0.7818608E-02  0.1075016E+00
          2   -1    0    0  501    0  0.00000000000E+00  0.00000000000E+00  0.26661488602E+02  0.26661488724E+02  0.25500000000E-02 0.  1.
         -2   -1    0    0    0  501 -0.00000000000E+00 -0.00000000000E+00 -0.96847908140E+03  0.96847908140E+03  0.25500000000E-02 0. -1.
    5000001    1    1    2    0    0 -0.69760926778E+02 -0.68047227373E+02 -0.15520407547E+03  0.19878208445E+03  0.77000000000E+02 0.  0.
   -5000001    1    1    2    0    0  0.69760926778E+02  0.68047227373E+02 -0.78661351733E+03  0.79635848567E+03  0.77000000000E+02 0.  0.
<mgrwt>
<rscale>  0 0.32137887E+03</rscale>
<asrwt>0</asrwt>
<pdfrwt beam="1">  1        2 0.38087847E-02 0.32137887E+03</pdfrwt>
<pdfrwt beam="2">  1       -2 0.13835413E+00 0.32137887E+03</pdfrwt>
<totfact> 0.88764354E+02</totfact>
</mgrwt>
</event>
<event>
 4    1  0.1305170E-003  0.2969774E+03  0.7818608E-02  0.1086761E+00
         -2   -1    0    0    0  501 -0.00000000000E+00  0.00000000000E+00  0.12523831030E+02  0.12523831290E+02  0.25500000000E-02 0. -1.
          2   -1    0    0  501    0  0.00000000000E+00 -0.00000000000E+00 -0.17605546528E+04  0.17605546528E+04  0.25500000000E-02 0.  1.
    5000001    1    1    2    0    0  0.87083622286E+02 -0.19401034152E+02 -0.33469373975E+03  0.35483638036E+03  0.77000000000E+02 0.  0.
   -5000001    1    1    2    0    0 -0.87083622286E+02  0.19401034152E+02 -0.14133370821E+04  0.14182421038E+04  0.77000000000E+02 0.  0.
<mgrwt>
<rscale>  0 0.29697737E+03</rscale>
<asrwt>0</asrwt>
<pdfrwt beam="1">  1        2 0.25150765E+00 0.29697737E+03</pdfrwt>
<pdfrwt beam="2">  1       -2 0.17891199E-02 0.29697737E+03</pdfrwt>
<totfact> 0.10555705E+04</totfact>
</mgrwt>
</event>
<event>
 4    1  0.1305170E-003  0.2074254E+03  0.7818608E-02  0.1143621E+00
         -2   -1    0    0    0  501 -0.00000000000E+00  0.00000000000E+00  0.41425377634E+01  0.41425385483E+01  0.25500000000E-02 0. -1.
          2   -1    0    0  501    0  0.00000000000E+00 -0.00000000000E+00 -0.25965547894E+04  0.25965547894E+04  0.25500000000E-02 0.  1.
    5000001    1    1    2    0    0 -0.60471877232E+02  0.21398387984E+02 -0.16308995424E+04  0.16339758433E+04  0.77000000000E+02 0.  0.
   -5000001    1    1    2    0    0  0.60471877232E+02 -0.21398387984E+02 -0.96151270924E+03  0.96672148470E+03  0.77000000000E+02 0.  0.
<mgrwt>
<rscale>  0 0.20742543E+03</rscale>
<asrwt>0</asrwt>
<pdfrwt beam="1">  1        2 0.37093536E+00 0.20742543E+03</pdfrwt>
<pdfrwt beam="2">  1       -2 0.59179283E-03 0.20742543E+03</pdfrwt>
<totfact> 0.20279527E+04</totfact>
</mgrwt>
</event>
<event>
 4    1  0.1305170E-003  0.3116793E+03  0.7818608E-02  0.1079544E+00
         -2   -1    0    0    0  501 -0.00000000000E+00  0.00000000000E+00  0.57155332458E+02  0.57155332515E+02  0.25500000000E-02 0. -1.
          2   -1    0    0  501    0  0.00000000000E+00 -0.00000000000E+00 -0.42491212225E+03  0.42491212226E+03  0.25500000000E-02 0.  1.
    5000001    1    1    2    0    0  0.64286172315E+02  0.11830538486E+03 -0.16051804921E+03  0.22321272401E+03  0.77000000000E+02 0.  0.
   -5000001    1    1    2    0    0 -0.64286172315E+02 -0.11830538486E+03 -0.20723874058E+03  0.25885473076E+03  0.77000000000E+02 0.  0.
<mgrwt>
<rscale>  0 0.31167928E+03</rscale>
<asrwt>0</asrwt>
<pdfrwt beam="1">  1        2 0.60701730E-01 0.31167928E+03</pdfrwt>
<pdfrwt beam="2">  1       -2 0.81650477E-02 0.31167928E+03</pdfrwt>
<totfact> 0.74168263E+03</totfact>
</mgrwt>
</event>
<event>
 4    1  0.1305170E-003  0.3627344E+03  0.7818608E-02  0.1057506E+00
          2   -1    0    0  501    0  0.00000000000E+00  0.00000000000E+00  0.45178187578E+03  0.45178187579E+03  0.25500000000E-02 0.  1.
         -2   -1    0    0    0  501 -0.00000000000E+00 -0.00000000000E+00 -0.72809606021E+02  0.72809606065E+02  0.25500000000E-02 0. -1.
    5000001    1    1    2    0    0 -0.88217181625E+02 -0.13012486592E+03  0.12088148860E+03  0.21273477889E+03  0.77000000000E+02 0.  0.
   -5000001    1    1    2    0    0  0.88217181625E+02  0.13012486592E+03  0.25809078115E+03  0.31185670296E+03  0.77000000000E+02 0.  0.
<mgrwt>
<rscale>  0 0.36273440E+03</rscale>
<asrwt>0</asrwt>
<pdfrwt beam="1">  1        2 0.64540265E-01 0.36273440E+03</pdfrwt>
<pdfrwt beam="2">  1       -2 0.10401373E-01 0.36273440E+03</pdfrwt>
<totfact> 0.47424802E+03</totfact>
</mgrwt>
</event>
<event>
 4    1  0.1305170E-003  0.3449341E+03  0.7818608E-02  0.1064714E+00
          2   -1    0    0  501    0  0.00000000000E+00  0.00000000000E+00  0.16644524771E+04  0.16644524771E+04  0.25500000000E-02 0.  1.
         -2   -1    0    0    0  501 -0.00000000000E+00 -0.00000000000E+00 -0.17870667101E+02  0.17870667283E+02  0.25500000000E-02 0. -1.
    5000001    1    1    2    0    0 -0.54313530445E+02 -0.14429848800E+03  0.85559241014E+03  0.87277682458E+03  0.77000000000E+02 0.  0.
   -5000001    1    1    2    0    0  0.54313530445E+02  0.14429848800E+03  0.79098939990E+03  0.80954631985E+03  0.77000000000E+02 0.  0.
<mgrwt>
<rscale>  0 0.34493406E+03</rscale>
<asrwt>0</asrwt>
<pdfrwt beam="1">  1        2 0.23777878E+00 0.34493406E+03</pdfrwt>
<pdfrwt beam="2">  1       -2 0.25529540E-02 0.34493406E+03</pdfrwt>
<totfact> 0.69730941E+03</totfact>
</mgrwt>
</event>
<event>
 4    1  0.1305170E-003  0.2348894E+03  0.7818608E-02  0.1123245E+00
          2   -1    0    0  501    0  0.00000000000E+00  0.00000000000E+00  0.15990962949E+04  0.15990962949E+04  0.25500000000E-02 0.  1.
         -2   -1    0    0    0  501 -0.00000000000E+00 -0.00000000000E+00 -0.86256562098E+01  0.86256565868E+01  0.25500000000E-02 0. -1.
    5000001    1    1    2    0    0 -0.64502723524E+02 -0.71769383572E+01  0.38159621385E+03  0.39466033524E+03  0.77000000000E+02 0.  0.
   -5000001    1    1    2    0    0  0.64502723524E+02  0.71769383572E+01  0.12088744249E+04  0.12130616163E+04  0.77000000000E+02 0.  0.
<mgrwt>
<rscale>  0 0.23488938E+03</rscale>
<asrwt>0</asrwt>
<pdfrwt beam="1">  1        2 0.22844244E+00 0.23488938E+03</pdfrwt>
<pdfrwt beam="2">  1       -2 0.12322360E-02 0.23488938E+03</pdfrwt>
<totfact> 0.21712759E+04</totfact>
</mgrwt>
</event>
<event>
 4    1  0.1305170E-003  0.3228096E+03  0.7818608E-02  0.1074363E+00
          2   -1    0    0  501    0  0.00000000000E+00  0.00000000000E+00  0.63279814251E+03  0.63279814252E+03  0.25500000000E-02 0.  1.
         -2   -1    0    0    0  501 -0.00000000000E+00 -0.00000000000E+00 -0.41168752821E+02  0.41168752900E+02  0.25500000000E-02 0. -1.
    5000001    1    1    2    0    0 -0.64245091958E+02  0.99313936795E+02  0.45930305249E+03  0.48049868252E+03  0.77000000000E+02 0.  0.
   -5000001    1    1    2    0    0  0.64245091958E+02 -0.99313936795E+02  0.13232633720E+03  0.19346821289E+03  0.77000000000E+02 0.  0.
<mgrwt>
<rscale>  0 0.32280961E+03</rscale>
<asrwt>0</asrwt>
<pdfrwt beam="1">  1        2 0.90399728E-01 0.32280961E+03</pdfrwt>
<pdfrwt beam="2">  1       -2 0.58812508E-02 0.32280961E+03</pdfrwt>
<totfact> 0.79107365E+03</totfact>
</mgrwt>
</event>
<event>
 4    1  0.1305170E-003  0.2535528E+03  0.7818608E-02  0.1111080E+00
         -2   -1    0    0    0  501 -0.00000000000E+00  0.00000000000E+00  0.69213670030E+02  0.69213670077E+02  0.25500000000E-02 0. -1.
          2   -1    0    0  501    0  0.00000000000E+00 -0.00000000000E+00 -0.23221210601E+03  0.23221210602E+03  0.25500000000E-02 0.  1.
    5000001    1    1    2    0    0  0.76976689509E+02  0.64506093080E+02 -0.90459187398E+02  0.15555806426E+03  0.77000000000E+02 0.  0.
   -5000001    1    1    2    0    0 -0.76976689509E+02 -0.64506093080E+02 -0.72539248581E+02  0.14586771184E+03  0.77000000000E+02 0.  0.
<mgrwt>
<rscale>  0 0.25355277E+03</rscale>
<asrwt>0</asrwt>
<pdfrwt beam="1">  1        2 0.33173158E-01 0.25355277E+03</pdfrwt>
<pdfrwt beam="2">  1       -2 0.98876673E-02 0.25355277E+03</pdfrwt>
<totfact> 0.10449672E+04</totfact>
</mgrwt>
</event>
<event>
 4    1  0.1305170E-003  0.3548594E+03  0.7818608E-02  0.1060638E+00
          2   -1    0    0  501    0  0.00000000000E+00  0.00000000000E+00  0.20500314633E+04  0.20500314633E+04  0.25500000000E-02 0.  1.
         -2   -1    0    0    0  501 -0.00000000000E+00 -0.00000000000E+00 -0.15356491992E+02  0.15356492203E+02  0.25500000000E-02 0. -1.
    5000001    1    1    2    0    0 -0.55682092738E+02 -0.14620651253E+03  0.82646605470E+03  0.84466086646E+03  0.77000000000E+02 0.  0.
   -5000001    1    1    2    0    0  0.55682092738E+02  0.14620651253E+03  0.12082089167E+04  0.12207270891E+04  0.77000000000E+02 0.  0.
<mgrwt>
<rscale>  0 0.35485936E+03</rscale>
<asrwt>0</asrwt>
<pdfrwt beam="1">  1        2 0.29286176E+00 0.35485936E+03</pdfrwt>
<pdfrwt beam="2">  1       -2 0.21937837E-02 0.35485936E+03</pdfrwt>
<totfact> 0.56352758E+03</totfact>
</mgrwt>
</event>
<event>
 4    1  0.1305170E-003  0.2101495E+03  0.7818608E-02  0.1141448E+00
          2   -1    0    0  501    0  0.00000000000E+00  0.00000000000E+00  0.37213264503E+02  0.37213264590E+02  0.25500000000E-02 0.  1.
         -2   -1    0    0    0  501 -0.00000000000E+00 -0.00000000000E+00 -0.29668716640E+03  0.29668716641E+03  0.25500000000E-02 0. -1.
    5000001    1    1    2    0    0 -0.46044697752E+02  0.45462520373E+02 -0.81420028978E+02  0.12940315324E+03  0.77000000000E+02 0.  0.
   -5000001    1    1    2    0    0  0.46044697752E+02 -0.45462520373E+02 -0.17805387292E+03  0.20449727776E+03  0.77000000000E+02 0.  0.
<mgrwt>
<rscale>  0 0.21014945E+03</rscale>
<asrwt>0</asrwt>
<pdfrwt beam="1">  1        2 0.53161808E-02 0.21014945E+03</pdfrwt>
<pdfrwt beam="2">  1       -2 0.42383879E-01 0.21014945E+03</pdfrwt>
<totfact> 0.75302239E+03</totfact>
</mgrwt>
</event>
<event>
 4    1  0.1305170E-003  0.2108172E+03  0.7818608E-02  0.1140920E+00
          2   -1    0    0  501    0  0.00000000000E+00  0.00000000000E+00  0.76432905233E+03  0.76432905233E+03  0.25500000000E-02 0.  1.
         -2   -1    0    0    0  501 -0.00000000000E+00 -0.00000000000E+00 -0.14536900094E+02  0.14536900318E+02  0.25500000000E-02 0. -1.
    5000001    1    1    2    0    0 -0.40098416381E+02 -0.31198255974E+02  0.18648481495E+03  0.20805480138E+03  0.77000000000E+02 0.  0.
   -5000001    1    1    2    0    0  0.40098416381E+02  0.31198255974E+02  0.56330733728E+03  0.57081115126E+03  0.77000000000E+02 0.  0.
<mgrwt>
<rscale>  0 0.21081722E+03</rscale>
<asrwt>0</asrwt>
<pdfrwt beam="1">  1        2 0.10918985E+00 0.21081722E+03</pdfrwt>
<pdfrwt beam="2">  1       -2 0.20767003E-02 0.21081722E+03</pdfrwt>
<totfact> 0.29448978E+04</totfact>
</mgrwt>
</event>
<event>
 4    1  0.1305170E-003  0.2333561E+03  0.7818608E-02  0.1124300E+00
          2   -1    0    0  501    0  0.00000000000E+00  0.00000000000E+00  0.36417667323E+04  0.36417667323E+04  0.25500000000E-02 0.  1.
         -2   -1    0    0    0  501 -0.00000000000E+00 -0.00000000000E+00 -0.37382310325E+01  0.37382319023E+01  0.25500000000E-02 0. -1.
    5000001    1    1    2    0    0  0.27104860559E+02  0.76398192765E+02  0.23402882185E+04  0.23429573839E+04  0.77000000000E+02 0.  0.
   -5000001    1    1    2    0    0 -0.27104860559E+02 -0.76398192765E+02  0.12977402827E+04  0.13025475802E+04  0.77000000000E+02 0.  0.
<mgrwt>
<rscale>  0 0.23335610E+03</rscale>
<asrwt>0</asrwt>
<pdfrwt beam="1">  1        2 0.52025211E+00 0.23335610E+03</pdfrwt>
<pdfrwt beam="2">  1       -2 0.53403336E-03 0.23335610E+03</pdfrwt>
<totfact> 0.64175919E+03</totfact>
</mgrwt>
</event>
<event>
 4    1  0.1305170E-003  0.2224540E+03  0.7818608E-02  0.1132067E+00
         -2   -1    0    0    0  501 -0.00000000000E+00  0.00000000000E+00  0.70829780046E+01  0.70829784636E+01  0.25500000000E-02 0. -1.
          2   -1    0    0  501    0  0.00000000000E+00 -0.00000000000E+00 -0.17466448788E+04  0.17466448788E+04  0.25500000000E-02 0.  1.
    5000001    1    1    2    0    0  0.66862664199E+01 -0.79956467331E+02 -0.88688087438E+03  0.89382572584E+03  0.77000000000E+02 0.  0.
   -5000001    1    1    2    0    0 -0.66862664199E+01  0.79956467331E+02 -0.85268102641E+03  0.85990213143E+03  0.77000000000E+02 0.  0.
<mgrwt>
<rscale>  0 0.22245402E+03</rscale>
<asrwt>0</asrwt>
<pdfrwt beam="1">  1        2 0.24952042E+00 0.22245402E+03</pdfrwt>
<pdfrwt beam="2">  1       -2 0.10118552E-02 0.22245402E+03</pdfrwt>
<totfact> 0.24388202E+04</totfact>
</mgrwt>
</event>
<event>
 4    1  0.1305170E-003  0.1687501E+03  0.7818608E-02  0.1179158E+00
         -2   -1    0    0    0  501 -0.00000000000E+00  0.00000000000E+00  0.19919763580E+02  0.19919763743E+02  0.25500000000E-02 0. -1.
          2   -1    0    0  501    0  0.00000000000E+00 -0.00000000000E+00 -0.35739131358E+03  0.35739131359E+03  0.25500000000E-02 0.  1.
    5000001    1    1    2    0    0 -0.30493913821E+02  0.14775591881E+02 -0.18321816161E+03  0.20160875884E+03  0.77000000000E+02 0.  0.
   -5000001    1    1    2    0    0  0.30493913821E+02 -0.14775591881E+02 -0.15425338839E+03  0.17570231850E+03  0.77000000000E+02 0.  0.
<mgrwt>
<rscale>  0 0.16875012E+03</rscale>
<asrwt>0</asrwt>
<pdfrwt beam="1">  1        2 0.51055898E-01 0.16875012E+03</pdfrwt>
<pdfrwt beam="2">  1       -2 0.28456807E-02 0.16875012E+03</pdfrwt>
<totfact> 0.42442318E+04</totfact>
</mgrwt>
</event>
<event>
 4    1  0.1305170E-003  0.1769231E+03  0.7818608E-02  0.1170815E+00
          2   -1    0    0  501    0  0.00000000000E+00  0.00000000000E+00  0.14032221632E+04  0.14032221632E+04  0.25500000000E-02 0.  1.
         -2   -1    0    0    0  501 -0.00000000000E+00 -0.00000000000E+00 -0.55767695805E+01  0.55767701635E+01  0.25500000000E-02 0. -1.
    5000001    1    1    2    0    0 -0.18804705895E+02 -0.39210492930E+02  0.71727051835E+03  0.72270123579E+03  0.77000000000E+02 0.  0.
   -5000001    1    1    2    0    0  0.18804705895E+02  0.39210492930E+02  0.68037487528E+03  0.68609769758E+03  0.77000000000E+02 0.  0.
<mgrwt>
<rscale>  0 0.17692311E+03</rscale>
<asrwt>0</asrwt>
<pdfrwt beam="1">  1        2 0.20046031E+00 0.17692311E+03</pdfrwt>
<pdfrwt beam="2">  1       -2 0.79668143E-03 0.17692311E+03</pdfrwt>
<totfact> 0.50166186E+04</totfact>
</mgrwt>
</event>
<event>
 4    1  0.1305170E-003  0.1976228E+03  0.7818608E-02  0.1151760E+00
          2   -1    0    0  501    0  0.00000000000E+00  0.00000000000E+00  0.30242240485E+04  0.30242240485E+04  0.25500000000E-02 0.  1.
         -2   -1    0    0    0  501 -0.00000000000E+00 -0.00000000000E+00 -0.32284935923E+01  0.32284945994E+01  0.25500000000E-02 0. -1.
    5000001    1    1    2    0    0  0.42844517918E+02 -0.40780084399E+02  0.17913151004E+04  0.17939446639E+04  0.77000000000E+02 0.  0.
   -5000001    1    1    2    0    0 -0.42844517918E+02  0.40780084399E+02  0.12296804545E+04  0.12335078792E+04  0.77000000000E+02 0.  0.
<mgrwt>
<rscale>  0 0.19762277E+03</rscale>
<asrwt>0</asrwt>
<pdfrwt beam="1">  1        2 0.43203427E+00 0.19762277E+03</pdfrwt>
<pdfrwt beam="2">  1       -2 0.46121103E-03 0.19762277E+03</pdfrwt>
<totfact> 0.17482572E+04</totfact>
</mgrwt>
</event>
<event>
 4    1  0.1305170E-003  0.2599321E+03  0.7818608E-02  0.1107184E+00
         -2   -1    0    0    0  501 -0.00000000000E+00  0.00000000000E+00  0.81685328641E+02  0.81685328681E+02  0.25500000000E-02 0. -1.
          2   -1    0    0  501    0  0.00000000000E+00 -0.00000000000E+00 -0.20678341342E+03  0.20678341344E+03  0.25500000000E-02 0.  1.
    5000001    1    1    2    0    0 -0.57893858878E+02 -0.78756939737E+02 -0.20908926313E+02  0.12617661294E+03  0.77000000000E+02 0.  0.
   -5000001    1    1    2    0    0  0.57893858878E+02  0.78756939737E+02 -0.10418915847E+03  0.16229212919E+03  0.77000000000E+02 0.  0.
<mgrwt>
<rscale>  0 0.25993208E+03</rscale>
<asrwt>0</asrwt>
<pdfrwt beam="1">  1        2 0.29540487E-01 0.25993208E+03</pdfrwt>
<pdfrwt beam="2">  1       -2 0.11669333E-01 0.25993208E+03</pdfrwt>
<totfact> 0.91143593E+03</totfact>
</mgrwt>
</event>
<event>
 4    1  0.1305170E-003  0.2780095E+03  0.7818608E-02  0.1096781E+00
         -2   -1    0    0    0  501 -0.00000000000E+00  0.00000000000E+00  0.15432231215E+03  0.15432231217E+03  0.25500000000E-02 0. -1.
          2   -1    0    0  501    0  0.00000000000E+00 -0.00000000000E+00 -0.12520755523E+03  0.12520755526E+03  0.25500000000E-02 0.  1.
    5000001    1    1    2    0    0 -0.10894430480E+03 -0.35241606808E+02  0.31456644833E+02  0.14152509637E+03  0.77000000000E+02 0.  0.
   -5000001    1    1    2    0    0  0.10894430480E+03  0.35241606808E+02 -0.23418879141E+01  0.13800477107E+03  0.77000000000E+02 0.  0.
<mgrwt>
<rscale>  0 0.27800949E+03</rscale>
<asrwt>0</asrwt>
<pdfrwt beam="1">  1        2 0.17886794E-01 0.27800949E+03</pdfrwt>
<pdfrwt beam="2">  1       -2 0.22046045E-01 0.27800949E+03</pdfrwt>
<totfact> 0.55753009E+03</totfact>
</mgrwt>
</event>
<event>
 4    1  0.1305170E-003  0.1953355E+03  0.7818608E-02  0.1153735E+00
          2   -1    0    0  501    0  0.00000000000E+00  0.00000000000E+00  0.10865527671E+04  0.10865527671E+04  0.25500000000E-02 0.  1.
         -2   -1    0    0    0  501 -0.00000000000E+00 -0.00000000000E+00 -0.87791341245E+01  0.87791344948E+01  0.25500000000E-02 0. -1.
    5000001    1    1    2    0    0  0.41191434961E+02  0.43490378969E+02  0.56509539816E+03  0.57345440656E+03  0.77000000000E+02 0.  0.
   -5000001    1    1    2    0    0 -0.41191434961E+02 -0.43490378969E+02  0.51267823479E+03  0.52187749502E+03  0.77000000000E+02 0.  0.
<mgrwt>
<rscale>  0 0.19533553E+03</rscale>
<asrwt>0</asrwt>
<pdfrwt beam="1">  1        2 0.15522197E+00 0.19533553E+03</pdfrwt>
<pdfrwt beam="2">  1       -2 0.12541609E-02 0.19533553E+03</pdfrwt>
<totfact> 0.38687517E+04</totfact>
</mgrwt>
</event>
<event>
 4    1  0.1305170E-003  0.1817168E+03  0.7818608E-02  0.1166152E+00
         -2   -1    0    0    0  501 -0.00000000000E+00  0.00000000000E+00  0.57109744017E+01  0.57109749710E+01  0.25500000000E-02 0. -1.
          2   -1    0    0  501    0  0.00000000000E+00 -0.00000000000E+00 -0.14455062493E+04  0.14455062493E+04  0.25500000000E-02 0.  1.
    5000001    1    1    2    0    0 -0.40393945295E+02  0.25753545954E+02 -0.76460127467E+03  0.76996040493E+03  0.77000000000E+02 0.  0.
   -5000001    1    1    2    0    0  0.40393945295E+02 -0.25753545954E+02 -0.67519400020E+03  0.68125681930E+03  0.77000000000E+02 0.  0.
<mgrwt>
<rscale>  0 0.18171681E+03</rscale>
<asrwt>0</asrwt>
<pdfrwt beam="1">  1        2 0.20650066E+00 0.18171681E+03</pdfrwt>
<pdfrwt beam="2">  1       -2 0.81585445E-03 0.18171681E+03</pdfrwt>
<totfact> 0.46256783E+04</totfact>
</mgrwt>
</event>
<event>
 4    1  0.1305170E-003  0.2071973E+03  0.7818608E-02  0.1143805E+00
          2   -1    0    0  501    0  0.00000000000E+00  0.00000000000E+00  0.16067627957E+04  0.16067627957E+04  0.25500000000E-02 0.  1.
         -2   -1    0    0    0  501 -0.00000000000E+00 -0.00000000000E+00 -0.66796903195E+01  0.66796908062E+01  0.25500000000E-02 0. -1.
    5000001    1    1    2    0    0 -0.15746129778E+02 -0.34842388082E+02  0.12501903922E+04  0.12531428288E+04  0.77000000000E+02 0.  0.
   -5000001    1    1    2    0    0  0.15746129778E+02  0.34842388082E+02  0.34989271311E+03  0.36029965764E+03  0.77000000000E+02 0.  0.
<mgrwt>
<rscale>  0 0.20719728E+03</rscale>
<asrwt>0</asrwt>
<pdfrwt beam="1">  1        2 0.22953781E+00 0.20719728E+03</pdfrwt>
<pdfrwt beam="2">  1       -2 0.95424041E-03 0.20719728E+03</pdfrwt>
<totfact> 0.30966212E+04</totfact>
</mgrwt>
</event>
<event>
 4    1  0.1305170E-003  0.1818284E+03  0.7818608E-02  0.1166045E+00
          2   -1    0    0  501    0  0.00000000000E+00  0.00000000000E+00  0.38213862449E+03  0.38213862450E+03  0.25500000000E-02 0.  1.
         -2   -1    0    0    0  501 -0.00000000000E+00 -0.00000000000E+00 -0.21629300474E+02  0.21629300624E+02  0.25500000000E-02 0. -1.
    5000001    1    1    2    0    0  0.28687404585E+02 -0.31358243338E+02  0.23138076501E+03  0.24753255346E+03  0.77000000000E+02 0.  0.
   -5000001    1    1    2    0    0 -0.28687404585E+02  0.31358243338E+02  0.12912855901E+03  0.15623537167E+03  0.77000000000E+02 0.  0.
<mgrwt>
<rscale>  0 0.18182839E+03</rscale>
<asrwt>0</asrwt>
<pdfrwt beam="1">  1        2 0.54591230E-01 0.18182839E+03</pdfrwt>
<pdfrwt beam="2">  1       -2 0.30899002E-02 0.18182839E+03</pdfrwt>
<totfact> 0.35238485E+04</totfact>
</mgrwt>
</event>
<event>
 4    1  0.1305170E-003  0.1745575E+03  0.7818608E-02  0.1173177E+00
         -2   -1    0    0    0  501 -0.00000000000E+00  0.00000000000E+00  0.12889343808E+02  0.12889344061E+02  0.25500000000E-02 0. -1.
          2   -1    0    0  501    0  0.00000000000E+00 -0.00000000000E+00 -0.59099808273E+03  0.59099808273E+03  0.25500000000E-02 0.  1.
    5000001    1    1    2    0    0  0.35927773983E+02 -0.73224435816E+01 -0.22487517919E+03  0.24050419818E+03  0.77000000000E+02 0.  0.
   -5000001    1    1    2    0    0 -0.35927773983E+02  0.73224435816E+01 -0.35323355972E+03  0.36338322862E+03  0.77000000000E+02 0.  0.
<mgrwt>
<rscale>  0 0.17455747E+03</rscale>
<asrwt>0</asrwt>
<pdfrwt beam="1">  1        2 0.84428281E-01 0.17455747E+03</pdfrwt>
<pdfrwt beam="2">  1       -2 0.18413352E-02 0.17455747E+03</pdfrwt>
<totfact> 0.46619742E+04</totfact>
</mgrwt>
</event>
<event>
 4    1  0.1305170E-003  0.2224463E+03  0.7818608E-02  0.1132072E+00
          2   -1    0    0  501    0  0.00000000000E+00  0.00000000000E+00  0.42734909608E+03  0.42734909608E+03  0.25500000000E-02 0.  1.
         -2   -1    0    0    0  501 -0.00000000000E+00 -0.00000000000E+00 -0.28947273720E+02  0.28947273832E+02  0.25500000000E-02 0. -1.
    5000001    1    1    2    0    0  0.33625351214E+02 -0.72868810131E+02  0.19708546969E+03  0.22630114913E+03  0.77000000000E+02 0.  0.
   -5000001    1    1    2    0    0 -0.33625351214E+02  0.72868810131E+02  0.20131635267E+03  0.22999522079E+03  0.77000000000E+02 0.  0.
<mgrwt>
<rscale>  0 0.22244632E+03</rscale>
<asrwt>0</asrwt>
<pdfrwt beam="1">  1        2 0.61049873E-01 0.22244632E+03</pdfrwt>
<pdfrwt beam="2">  1       -2 0.41353246E-02 0.22244632E+03</pdfrwt>
<totfact> 0.20563554E+04</totfact>
</mgrwt>
</event>
<event>
 4    1  0.1305170E-003  0.1864437E+03  0.7818608E-02  0.1161709E+00
         -2   -1    0    0    0  501 -0.00000000000E+00  0.00000000000E+00  0.69830411601E+03  0.69830411602E+03  0.25500000000E-02 0. -1.
          2   -1    0    0  501    0  0.00000000000E+00 -0.00000000000E+00 -0.12444878030E+02  0.12444878291E+02  0.25500000000E-02 0.  1.
    5000001    1    1    2    0    0 -0.41107635264E+02 -0.21679834777E+02  0.43642083922E+03  0.44559174344E+03  0.77000000000E+02 0.  0.
   -5000001    1    1    2    0    0  0.41107635264E+02  0.21679834777E+02  0.24943839876E+03  0.26515725087E+03  0.77000000000E+02 0.  0.
<mgrwt>
<rscale>  0 0.18644366E+03</rscale>
<asrwt>0</asrwt>
<pdfrwt beam="1">  1        2 0.17778402E-02 0.18644366E+03</pdfrwt>
<pdfrwt beam="2">  1       -2 0.99757703E-01 0.18644366E+03</pdfrwt>
<totfact> 0.54025981E+03</totfact>
</mgrwt>
</event>
<event>
 4    1  0.1305170E-003  0.2537352E+03  0.7818608E-02  0.1110967E+00
          2   -1    0    0  501    0  0.00000000000E+00  0.00000000000E+00  0.35834671600E+03  0.35834671601E+03  0.25500000000E-02 0.  1.
         -2   -1    0    0    0  501 -0.00000000000E+00 -0.00000000000E+00 -0.44915670536E+02  0.44915670608E+02  0.25500000000E-02 0. -1.
    5000001    1    1    2    0    0 -0.18079013768E+02 -0.52259495159E+02  0.29071260992E+03  0.30577888603E+03  0.77000000000E+02 0.  0.
   -5000001    1    1    2    0    0  0.18079013768E+02  0.52259495159E+02  0.22718435538E+02  0.97483500585E+02  0.77000000000E+02 0.  0.
<mgrwt>
<rscale>  0 0.25373516E+03</rscale>
<asrwt>0</asrwt>
<pdfrwt beam="1">  1        2 0.51192389E-01 0.25373516E+03</pdfrwt>
<pdfrwt beam="2">  1       -2 0.64165242E-02 0.25373516E+03</pdfrwt>
<totfact> 0.12857110E+04</totfact>
</mgrwt>
</event>
<event>
 4    1  0.1305170E-003  0.2250715E+03  0.7818608E-02  0.1130158E+00
         -2   -1    0    0    0  501 -0.00000000000E+00  0.00000000000E+00  0.13642985246E+02  0.13642985485E+02  0.25500000000E-02 0. -1.
          2   -1    0    0  501    0  0.00000000000E+00 -0.00000000000E+00 -0.92826389876E+03  0.92826389877E+03  0.25500000000E-02 0.  1.
    5000001    1    1    2    0    0 -0.49183695458E+02  0.84278150689E+01 -0.18464006112E+03  0.20618199761E+03  0.77000000000E+02 0.  0.
   -5000001    1    1    2    0    0  0.49183695458E+02 -0.84278150689E+01 -0.72998085239E+03  0.73572488664E+03  0.77000000000E+02 0.  0.
<mgrwt>
<rscale>  0 0.22507146E+03</rscale>
<asrwt>0</asrwt>
<pdfrwt beam="1">  1        2 0.13260909E+00 0.22507146E+03</pdfrwt>
<pdfrwt beam="2">  1       -2 0.19489985E-02 0.22507146E+03</pdfrwt>
<totfact> 0.25435617E+04</totfact>
</mgrwt>
</event>
<event>
 4    1  0.1305170E-003  0.2058503E+03  0.7818608E-02  0.1144895E+00
          2   -1    0    0  501    0  0.00000000000E+00  0.00000000000E+00  0.16423103636E+04  0.16423103636E+04  0.25500000000E-02 0.  1.
         -2   -1    0    0    0  501 -0.00000000000E+00 -0.00000000000E+00 -0.64504169959E+01  0.64504175000E+01  0.25500000000E-02 0. -1.
    5000001    1    1    2    0    0 -0.19863505091E+01 -0.66445862272E+02  0.69241067665E+03  0.69984322769E+03  0.77000000000E+02 0.  0.
   -5000001    1    1    2    0    0  0.19863505091E+01  0.66445862272E+02  0.94344927000E+03  0.94891755346E+03  0.77000000000E+02 0.  0.
<mgrwt>
<rscale>  0 0.20585031E+03</rscale>
<asrwt>0</asrwt>
<pdfrwt beam="1">  1        2 0.23461608E+00 0.20585031E+03</pdfrwt>
<pdfrwt beam="2">  1       -2 0.92148696E-03 0.20585031E+03</pdfrwt>
<totfact> 0.31269633E+04</totfact>
</mgrwt>
</event>
<event>
 4    1  0.1305170E-003  0.2094713E+03  0.7818608E-02  0.1141985E+00
          2   -1    0    0  501    0  0.00000000000E+00  0.00000000000E+00  0.10187986179E+04  0.10187986180E+04  0.25500000000E-02 0.  1.
         -2   -1    0    0    0  501 -0.00000000000E+00 -0.00000000000E+00 -0.10767146123E+02  0.10767146425E+02  0.25500000000E-02 0. -1.
    5000001    1    1    2    0    0  0.25201662155E+02 -0.62533925061E+02  0.61336228935E+03  0.62184235426E+03  0.77000000000E+02 0.  0.
   -5000001    1    1    2    0    0 -0.25201662155E+02  0.62533925061E+02  0.39466918247E+03  0.40772341011E+03  0.77000000000E+02 0.  0.
<mgrwt>
<rscale>  0 0.20947127E+03</rscale>
<asrwt>0</asrwt>
<pdfrwt beam="1">  1        2 0.14554261E+00 0.20947127E+03</pdfrwt>
<pdfrwt beam="2">  1       -2 0.15381643E-02 0.20947127E+03</pdfrwt>
<totfact> 0.31599325E+04</totfact>
</mgrwt>
</event>
<event>
 4    1  0.1305170E-003  0.4738653E+03  0.7818608E-02  0.1020835E+00
          2   -1    0    0  501    0  0.00000000000E+00  0.00000000000E+00  0.10019754752E+04  0.10019754752E+04  0.25500000000E-02 0.  1.
         -2   -1    0    0    0  501 -0.00000000000E+00 -0.00000000000E+00 -0.56026395441E+02  0.56026395499E+02  0.25500000000E-02 0. -1.
    5000001    1    1    2    0    0  0.59464774007E+02 -0.19685000198E+03  0.67169907176E+03  0.70667858722E+03  0.77000000000E+02 0.  0.
   -5000001    1    1    2    0    0 -0.59464774007E+02  0.19685000198E+03  0.27425000798E+03  0.35132328346E+03  0.77000000000E+02 0.  0.
<mgrwt>
<rscale>  0 0.47386527E+03</rscale>
<asrwt>0</asrwt>
<pdfrwt beam="1">  1        2 0.14313933E+00 0.47386527E+03</pdfrwt>
<pdfrwt beam="2">  1       -2 0.80037720E-02 0.47386527E+03</pdfrwt>
<totfact> 0.27545469E+03</totfact>
</mgrwt>
</event>
<event>
 4    1  0.1305170E-003  0.1799916E+03  0.7818608E-02  0.1167811E+00
         -2   -1    0    0    0  501 -0.00000000000E+00  0.00000000000E+00  0.18807280113E+02  0.18807280286E+02  0.25500000000E-02 0. -1.
          2   -1    0    0  501    0  0.00000000000E+00 -0.00000000000E+00 -0.43064411613E+03  0.43064411613E+03  0.25500000000E-02 0.  1.
    5000001    1    1    2    0    0  0.66568114875E+01  0.42629039358E+02 -0.16204552404E+03  0.18452452411E+03  0.77000000000E+02 0.  0.
   -5000001    1    1    2    0    0 -0.66568114875E+01 -0.42629039358E+02 -0.24979131197E+03  0.26492687231E+03  0.77000000000E+02 0.  0.
<mgrwt>
<rscale>  0 0.17999161E+03</rscale>
<asrwt>0</asrwt>
<pdfrwt beam="1">  1        2 0.61520582E-01 0.17999161E+03</pdfrwt>
<pdfrwt beam="2">  1       -2 0.26867546E-02 0.17999161E+03</pdfrwt>
<totfact> 0.38063510E+04</totfact>
</mgrwt>
</event>
<event>
 4    1  0.1305170E-003  0.1830343E+03  0.7818608E-02  0.1164898E+00
         -2   -1    0    0    0  501 -0.00000000000E+00  0.00000000000E+00  0.21580865037E+02  0.21580865188E+02  0.25500000000E-02 0. -1.
          2   -1    0    0  501    0  0.00000000000E+00 -0.00000000000E+00 -0.38809339830E+03  0.38809339831E+03  0.25500000000E-02 0.  1.
    5000001    1    1    2    0    0  0.41696981142E+02 -0.25632313188E+02 -0.19919929994E+03  0.21910046739E+03  0.77000000000E+02 0.  0.
   -5000001    1    1    2    0    0 -0.41696981142E+02  0.25632313188E+02 -0.16731323332E+03  0.19057379610E+03  0.77000000000E+02 0.  0.
<mgrwt>
<rscale>  0 0.18303433E+03</rscale>
<asrwt>0</asrwt>
<pdfrwt beam="1">  1        2 0.55441910E-01 0.18303433E+03</pdfrwt>
<pdfrwt beam="2">  1       -2 0.30829810E-02 0.18303433E+03</pdfrwt>
<totfact> 0.34795548E+04</totfact>
</mgrwt>
</event>
<event>
 4    1  0.1305170E-003  0.2174552E+03  0.7818608E-02  0.1135795E+00
          2   -1    0    0  501    0  0.00000000000E+00  0.00000000000E+00  0.72140309145E+01  0.72140313652E+01  0.25500000000E-02 0.  1.
         -2   -1    0    0    0  501 -0.00000000000E+00 -0.00000000000E+00 -0.16387084006E+04  0.16387084006E+04  0.25500000000E-02 0. -1.
    5000001    1    1    2    0    0 -0.19035203420E+02  0.61063172837E+02 -0.11370199699E+04  0.11414177421E+04  0.77000000000E+02 0.  0.
   -5000001    1    1    2    0    0  0.19035203420E+02 -0.61063172837E+02 -0.49447439972E+03  0.50450468979E+03  0.77000000000E+02 0.  0.
<mgrwt>
<rscale>  0 0.21745522E+03</rscale>
<asrwt>0</asrwt>
<pdfrwt beam="1">  1        2 0.10305769E-02 0.21745522E+03</pdfrwt>
<pdfrwt beam="2">  1       -2 0.23410096E+00 0.21745522E+03</pdfrwt>
<totfact> 0.12223109E+03</totfact>
</mgrwt>
</event>
<event>
 4    1  0.1305170E-003  0.4445385E+03  0.7818608E-02  0.1029363E+00
         -2   -1    0    0    0  501 -0.00000000000E+00  0.00000000000E+00  0.95279821108E+02  0.95279821142E+02  0.25500000000E-02 0. -1.
          2   -1    0    0  501    0  0.00000000000E+00 -0.00000000000E+00 -0.51851091698E+03  0.51851091698E+03  0.25500000000E-02 0.  1.
    5000001    1    1    2    0    0 -0.19202672156E+03  0.13584605812E+02 -0.10102012823E+03  0.23063579431E+03  0.77000000000E+02 0.  0.
   -5000001    1    1    2    0    0  0.19202672156E+03 -0.13584605812E+02 -0.32221096764E+03  0.38315494382E+03  0.77000000000E+02 0.  0.
<mgrwt>
<rscale>  0 0.44453854E+03</rscale>
<asrwt>0</asrwt>
<pdfrwt beam="1">  1        2 0.74072987E-01 0.44453854E+03</pdfrwt>
<pdfrwt beam="2">  1       -2 0.13611403E-01 0.44453854E+03</pdfrwt>
<totfact> 0.26321727E+03</totfact>
</mgrwt>
</event>
<event>
 4    1  0.1305170E-003  0.2451707E+03  0.7818608E-02  0.1116395E+00
          2   -1    0    0  501    0  0.00000000000E+00  0.00000000000E+00  0.24850456797E+04  0.24850456797E+04  0.25500000000E-02 0.  1.
         -2   -1    0    0    0  501 -0.00000000000E+00 -0.00000000000E+00 -0.60470370815E+01  0.60470376191E+01  0.25500000000E-02 0. -1.
    5000001    1    1    2    0    0 -0.31258133800E+02  0.89615466924E+02  0.11430206673E+04  0.11495361015E+04  0.77000000000E+02 0.  0.
   -5000001    1    1    2    0    0  0.31258133800E+02 -0.89615466924E+02  0.13359779753E+04  0.13415566158E+04  0.77000000000E+02 0.  0.
<mgrwt>
<rscale>  0 0.24517067E+03</rscale>
<asrwt>0</asrwt>
<pdfrwt beam="1">  1        2 0.35500611E+00 0.24517067E+03</pdfrwt>
<pdfrwt beam="2">  1       -2 0.86386350E-03 0.24517067E+03</pdfrwt>
<totfact> 0.13422396E+04</totfact>
</mgrwt>
</event>
<event>
 4    1  0.1305170E-003  0.5673469E+03  0.7818608E-02  0.9975567E-01
          2   -1    0    0  501    0  0.00000000000E+00  0.00000000000E+00  0.22772216445E+04  0.22772216446E+04  0.25500000000E-02 0.  1.
         -2   -1    0    0    0  501 -0.00000000000E+00 -0.00000000000E+00 -0.35337199043E+02  0.35337199135E+02  0.25500000000E-02 0. -1.
    5000001    1    1    2    0    0 -0.74503726036E+02  0.25778970158E+03  0.13261806569E+04  0.13552455387E+04  0.77000000000E+02 0.  0.
   -5000001    1    1    2    0    0  0.74503726036E+02 -0.25778970158E+03  0.91570378858E+03  0.95731330496E+03  0.77000000000E+02 0.  0.
<mgrwt>
<rscale>  0 0.56734693E+03</rscale>
<asrwt>0</asrwt>
<pdfrwt beam="1">  1        2 0.32531755E+00 0.56734693E+03</pdfrwt>
<pdfrwt beam="2">  1       -2 0.50481686E-02 0.56734693E+03</pdfrwt>
<totfact> 0.12172605E+03</totfact>
</mgrwt>
</event>
<event>
 4    1  0.1305170E-003  0.4311735E+03  0.7818608E-02  0.1033490E+00
          2   -1    0    0  501    0  0.00000000000E+00  0.00000000000E+00  0.82441943350E+03  0.82441943351E+03  0.25500000000E-02 0.  1.
         -2   -1    0    0    0  501 -0.00000000000E+00 -0.00000000000E+00 -0.56376216214E+02  0.56376216272E+02  0.25500000000E-02 0. -1.
    5000001    1    1    2    0    0  0.16116730829E+03 -0.58613429704E+01  0.63033964329E+03  0.65518418976E+03  0.77000000000E+02 0.  0.
   -5000001    1    1    2    0    0 -0.16116730829E+03  0.58613429704E+01  0.13770357399E+03  0.22561146002E+03  0.77000000000E+02 0.  0.
<mgrwt>
<rscale>  0 0.43117351E+03</rscale>
<asrwt>0</asrwt>
<pdfrwt beam="1">  1        2 0.11777421E+00 0.43117351E+03</pdfrwt>
<pdfrwt beam="2">  1       -2 0.80537446E-02 0.43117351E+03</pdfrwt>
<totfact> 0.35336043E+03</totfact>
</mgrwt>
</event>
<event>
 4    1  0.1305170E-003  0.2131450E+03  0.7818608E-02  0.1139099E+00
          2   -1    0    0  501    0  0.00000000000E+00  0.00000000000E+00  0.50318323828E+02  0.50318323892E+02  0.25500000000E-02 0.  1.
         -2   -1    0    0    0  501 -0.00000000000E+00 -0.00000000000E+00 -0.22571686357E+03  0.22571686358E+03  0.25500000000E-02 0. -1.
    5000001    1    1    2    0    0 -0.38467083095E+02 -0.17642196043E+02 -0.16580890992E+03  0.18765009505E+03  0.77000000000E+02 0.  0.
   -5000001    1    1    2    0    0  0.38467083095E+02  0.17642196043E+02 -0.95896298200E+01  0.88385092426E+02  0.77000000000E+02 0.  0.
<mgrwt>
<rscale>  0 0.21314497E+03</rscale>
<asrwt>0</asrwt>
<pdfrwt beam="1">  1        2 0.71883321E-02 0.21314497E+03</pdfrwt>
<pdfrwt beam="2">  1       -2 0.32245266E-01 0.21314497E+03</pdfrwt>
<totfact> 0.85180618E+03</totfact>
</mgrwt>
</event>
<event>
 4    1  0.1305170E-003  0.2269087E+03  0.7818608E-02  0.1128835E+00
          2   -1    0    0  501    0  0.00000000000E+00  0.00000000000E+00  0.32409014243E+04  0.32409014243E+04  0.25500000000E-02 0.  1.
         -2   -1    0    0    0  501 -0.00000000000E+00 -0.00000000000E+00 -0.39717007260E+01  0.39717015446E+01  0.25500000000E-02 0. -1.
    5000001    1    1    2    0    0  0.80988083355E+02 -0.16051294165E+02  0.14578304222E+04  0.14621953541E+04  0.77000000000E+02 0.  0.
   -5000001    1    1    2    0    0 -0.80988083355E+02  0.16051294165E+02  0.17790993014E+04  0.17826777717E+04  0.77000000000E+02 0.  0.
<mgrwt>
<rscale>  0 0.22690872E+03</rscale>
<asrwt>0</asrwt>
<pdfrwt beam="1">  1        2 0.46298722E+00 0.22690872E+03</pdfrwt>
<pdfrwt beam="2">  1       -2 0.56738428E-03 0.22690872E+03</pdfrwt>
<totfact> 0.99593639E+03</totfact>
</mgrwt>
</event>
<event>
 4    1  0.1305170E-003  0.2806160E+03  0.7818608E-02  0.1095353E+00
          2   -1    0    0  501    0  0.00000000000E+00  0.00000000000E+00  0.86085216681E+03  0.86085216682E+03  0.25500000000E-02 0.  1.
         -2   -1    0    0    0  501 -0.00000000000E+00 -0.00000000000E+00 -0.22868419910E+02  0.22868420052E+02  0.25500000000E-02 0. -1.
    5000001    1    1    2    0    0  0.10658517332E+03 -0.12404028734E+02  0.56814212907E+03  0.58329129766E+03  0.77000000000E+02 0.  0.
   -5000001    1    1    2    0    0 -0.10658517332E+03  0.12404028734E+02  0.26984161783E+03  0.30042928921E+03  0.77000000000E+02 0.  0.
<mgrwt>
<rscale>  0 0.28061596E+03</rscale>
<asrwt>0</asrwt>
<pdfrwt beam="1">  1        2 0.12297889E+00 0.28061596E+03</pdfrwt>
<pdfrwt beam="2">  1       -2 0.32669170E-02 0.28061596E+03</pdfrwt>
<totfact> 0.13206011E+04</totfact>
</mgrwt>
</event>
<event>
 4    1  0.1305170E-003  0.1813664E+03  0.7818608E-02  0.1166487E+00
          2   -1    0    0  501    0  0.00000000000E+00  0.00000000000E+00  0.15145803805E+03  0.15145803807E+03  0.25500000000E-02 0.  1.
         -2   -1    0    0    0  501 -0.00000000000E+00 -0.00000000000E+00 -0.54295179855E+02  0.54295179915E+02  0.25500000000E-02 0. -1.
    5000001    1    1    2    0    0  0.46515038614E+02 -0.11181335396E+02  0.51306581432E+02  0.10416350789E+03  0.77000000000E+02 0.  0.
   -5000001    1    1    2    0    0 -0.46515038614E+02  0.11181335396E+02  0.45856276765E+02  0.10158971010E+03  0.77000000000E+02 0.  0.
<mgrwt>
<rscale>  0 0.18136639E+03</rscale>
<asrwt>0</asrwt>
<pdfrwt beam="1">  1        2 0.21636863E-01 0.18136639E+03</pdfrwt>
<pdfrwt beam="2">  1       -2 0.77564542E-02 0.18136639E+03</pdfrwt>
<totfact> 0.23965731E+04</totfact>
</mgrwt>
</event>
<event>
 4    1  0.1305170E-003  0.2654751E+03  0.7818608E-02  0.1103898E+00
         -2   -1    0    0    0  501 -0.00000000000E+00  0.00000000000E+00  0.31341043023E+02  0.31341043126E+02  0.25500000000E-02 0. -1.
          2   -1    0    0  501    0  0.00000000000E+00 -0.00000000000E+00 -0.56217818570E+03  0.56217818571E+03  0.25500000000E-02 0.  1.
    5000001    1    1    2    0    0  0.90740433864E+02 -0.58465622219E+02 -0.27923566534E+03  0.30911747300E+03  0.77000000000E+02 0.  0.
   -5000001    1    1    2    0    0 -0.90740433864E+02  0.58465622219E+02 -0.25160147735E+03  0.28440175584E+03  0.77000000000E+02 0.  0.
<mgrwt>
<rscale>  0 0.26547505E+03</rscale>
<asrwt>0</asrwt>
<pdfrwt beam="1">  1        2 0.80311164E-01 0.26547505E+03</pdfrwt>
<pdfrwt beam="2">  1       -2 0.44772922E-02 0.26547505E+03</pdfrwt>
<totfact> 0.13624934E+04</totfact>
</mgrwt>
</event>
<event>
 4    1  0.1305170E-003  0.1696108E+03  0.7818608E-02  0.1178254E+00
          2   -1    0    0  501    0  0.00000000000E+00  0.00000000000E+00  0.10338434135E+04  0.10338434135E+04  0.25500000000E-02 0.  1.
         -2   -1    0    0    0  501 -0.00000000000E+00 -0.00000000000E+00 -0.69565193260E+01  0.69565197934E+01  0.25500000000E-02 0. -1.
    5000001    1    1    2    0    0 -0.35031540353E+02 -0.25757811608E+01  0.48033616674E+03  0.48773525252E+03  0.77000000000E+02 0.  0.
   -5000001    1    1    2    0    0  0.35031540353E+02  0.25757811608E+01  0.54655072740E+03  0.55306468075E+03  0.77000000000E+02 0.  0.
<mgrwt>
<rscale>  0 0.16961075E+03</rscale>
<asrwt>0</asrwt>
<pdfrwt beam="1">  1        2 0.14769183E+00 0.16961075E+03</pdfrwt>
<pdfrwt beam="2">  1       -2 0.99378911E-03 0.16961075E+03</pdfrwt>
<totfact> 0.57283833E+04</totfact>
</mgrwt>
</event>
<event>
 4    1  0.1305170E-003  0.2935073E+03  0.7818608E-02  0.1088532E+00
          2   -1    0    0  501    0  0.00000000000E+00  0.00000000000E+00  0.26367674748E+04  0.26367674748E+04  0.25500000000E-02 0.  1.
         -2   -1    0    0    0  501 -0.00000000000E+00 -0.00000000000E+00 -0.81678143391E+01  0.81678147371E+01  0.25500000000E-02 0. -1.
    5000001    1    1    2    0    0  0.17196239312E+02  0.12217767105E+03  0.14910107743E+04  0.14980871880E+04  0.77000000000E+02 0.  0.
   -5000001    1    1    2    0    0 -0.17196239312E+02 -0.12217767105E+03  0.11375888862E+04  0.11468481015E+04  0.77000000000E+02 0.  0.
<mgrwt>
<rscale>  0 0.29350726E+03</rscale>
<asrwt>0</asrwt>
<pdfrwt beam="1">  1        2 0.37668187E+00 0.29350726E+03</pdfrwt>
<pdfrwt beam="2">  1       -2 0.11668282E-02 0.29350726E+03</pdfrwt>
<totfact> 0.72899113E+03</totfact>
</mgrwt>
</event>
<event>
 4    1  0.1305170E-003  0.2896875E+03  0.7818608E-02  0.1090512E+00
         -2   -1    0    0    0  501 -0.00000000000E+00  0.00000000000E+00  0.18361720140E+03  0.18361720142E+03  0.25500000000E-02 0. -1.
          2   -1    0    0  501    0  0.00000000000E+00 -0.00000000000E+00 -0.11425791358E+03  0.11425791361E+03  0.25500000000E-02 0.  1.
    5000001    1    1    2    0    0 -0.10258458941E+03  0.46993644875E+02 -0.14834393298E+02  0.13740836899E+03  0.77000000000E+02 0.  0.
   -5000001    1    1    2    0    0  0.10258458941E+03 -0.46993644875E+02  0.84193681125E+02  0.16046674604E+03  0.77000000000E+02 0.  0.
<mgrwt>
<rscale>  0 0.28968754E+03</rscale>
<asrwt>0</asrwt>
<pdfrwt beam="1">  1        2 0.16322559E-01 0.28968754E+03</pdfrwt>
<pdfrwt beam="2">  1       -2 0.26231029E-01 0.28968754E+03</pdfrwt>
<totfact> 0.45790369E+03</totfact>
</mgrwt>
</event>
<event>
 4    1  0.1305170E-003  0.2518861E+03  0.7818608E-02  0.1112119E+00
          2   -1    0    0  501    0  0.00000000000E+00  0.00000000000E+00  0.20193437154E+03  0.20193437156E+03  0.25500000000E-02 0.  1.
         -2   -1    0    0    0  501 -0.00000000000E+00 -0.00000000000E+00 -0.78548522580E+02  0.78548522622E+02  0.25500000000E-02 0. -1.
    5000001    1    1    2    0    0 -0.93190880009E+02  0.32466959371E+02  0.77202733652E+02  0.14706429088E+03  0.77000000000E+02 0.  0.
   -5000001    1    1    2    0    0  0.93190880009E+02 -0.32466959371E+02  0.46183115309E+02  0.13341860330E+03  0.77000000000E+02 0.  0.
<mgrwt>
<rscale>  0 0.25188606E+03</rscale>
<asrwt>0</asrwt>
<pdfrwt beam="1">  1        2 0.28847767E-01 0.25188606E+03</pdfrwt>
<pdfrwt beam="2">  1       -2 0.11221217E-01 0.25188606E+03</pdfrwt>
<totfact> 0.99472725E+03</totfact>
</mgrwt>
</event>
<event>
 4    1  0.1305170E-003  0.2033033E+03  0.7818608E-02  0.1146982E+00
         -2   -1    0    0    0  501 -0.00000000000E+00  0.00000000000E+00  0.62233230904E+02  0.62233230956E+02  0.25500000000E-02 0. -1.
          2   -1    0    0  501    0  0.00000000000E+00 -0.00000000000E+00 -0.16603755507E+03  0.16603755509E+03  0.25500000000E-02 0.  1.
    5000001    1    1    2    0    0  0.59405390944E+02  0.29546629380E+02 -0.53509674656E+02  0.11486639658E+03  0.77000000000E+02 0.  0.
   -5000001    1    1    2    0    0 -0.59405390944E+02 -0.29546629380E+02 -0.50294649507E+02  0.11340438947E+03  0.77000000000E+02 0.  0.
<mgrwt>
<rscale>  0 0.20330326E+03</rscale>
<asrwt>0</asrwt>
<pdfrwt beam="1">  1        2 0.23719651E-01 0.20330326E+03</pdfrwt>
<pdfrwt beam="2">  1       -2 0.88904616E-02 0.20330326E+03</pdfrwt>
<totfact> 0.17638332E+04</totfact>
</mgrwt>
</event>
<event>
 4    1  0.1305170E-003  0.4421168E+03  0.7818608E-02  0.1030099E+00
         -2   -1    0    0    0  501 -0.00000000000E+00  0.00000000000E+00  0.77547155274E+02  0.77547155316E+02  0.25500000000E-02 0. -1.
          2   -1    0    0  501    0  0.00000000000E+00 -0.00000000000E+00 -0.63015613321E+03  0.63015613321E+03  0.25500000000E-02 0.  1.
    5000001    1    1    2    0    0  0.18310833536E+03  0.23432250259E+02 -0.42697667399E+03  0.47150377832E+03  0.77000000000E+02 0.  0.
   -5000001    1    1    2    0    0 -0.18310833536E+03 -0.23432250259E+02 -0.12563230394E+03  0.23619951021E+03  0.77000000000E+02 0.  0.
<mgrwt>
<rscale>  0 0.44211680E+03</rscale>
<asrwt>0</asrwt>
<pdfrwt beam="1">  1        2 0.90022302E-01 0.44211680E+03</pdfrwt>
<pdfrwt beam="2">  1       -2 0.11078165E-01 0.44211680E+03</pdfrwt>
<totfact> 0.29454951E+03</totfact>
</mgrwt>
</event>
<event>
 4    1  0.1305170E-003  0.2487624E+03  0.7818608E-02  0.1114089E+00
         -2   -1    0    0    0  501 -0.00000000000E+00  0.00000000000E+00  0.62739185850E+01  0.62739191032E+01  0.25500000000E-02 0. -1.
          2   -1    0    0  501    0  0.00000000000E+00 -0.00000000000E+00 -0.24658719802E+04  0.24658719802E+04  0.25500000000E-02 0.  1.
    5000001    1    1    2    0    0 -0.64421887115E+02  0.71850655967E+02 -0.13801798079E+04  0.13856904410E+04  0.77000000000E+02 0.  0.
   -5000001    1    1    2    0    0  0.64421887115E+02 -0.71850655967E+02 -0.10794182537E+04  0.10864554583E+04  0.77000000000E+02 0.  0.
<mgrwt>
<rscale>  0 0.24876238E+03</rscale>
<asrwt>0</asrwt>
<pdfrwt beam="1">  1        2 0.35226681E+00 0.24876238E+03</pdfrwt>
<pdfrwt beam="2">  1       -2 0.89627570E-03 0.24876238E+03</pdfrwt>
<totfact> 0.13011323E+04</totfact>
</mgrwt>
</event>
<event>
 4    1  0.1305170E-003  0.2015166E+03  0.7818608E-02  0.1148466E+00
          2   -1    0    0  501    0  0.00000000000E+00  0.00000000000E+00  0.16710575033E+04  0.16710575033E+04  0.25500000000E-02 0.  1.
         -2   -1    0    0    0  501 -0.00000000000E+00 -0.00000000000E+00 -0.60753380647E+01  0.60753385999E+01  0.25500000000E-02 0. -1.
    5000001    1    1    2    0    0 -0.39456823326E+02  0.48847107917E+02  0.69313893359E+03  0.70022386571E+03  0.77000000000E+02 0.  0.
   -5000001    1    1    2    0    0  0.39456823326E+02 -0.48847107917E+02  0.97184323161E+03  0.97690897615E+03  0.77000000000E+02 0.  0.
<mgrwt>
<rscale>  0 0.20151665E+03</rscale>
<asrwt>0</asrwt>
<pdfrwt beam="1">  1        2 0.23872265E+00 0.20151665E+03</pdfrwt>
<pdfrwt beam="2">  1       -2 0.86790493E-03 0.20151665E+03</pdfrwt>
<totfact> 0.32960171E+04</totfact>
</mgrwt>
</event>
<event>
 4    1  0.1305170E-003  0.1781190E+03  0.7818608E-02  0.1169636E+00
          2   -1    0    0  501    0  0.00000000000E+00  0.00000000000E+00  0.10994833533E+04  0.10994833533E+04  0.25500000000E-02 0.  1.
         -2   -1    0    0    0  501 -0.00000000000E+00 -0.00000000000E+00 -0.72139247860E+01  0.72139252367E+01  0.25500000000E-02 0. -1.
    5000001    1    1    2    0    0 -0.25283434153E+02 -0.25292120363E+02  0.71327537299E+03  0.71831030976E+03  0.77000000000E+02 0.  0.
   -5000001    1    1    2    0    0  0.25283434153E+02  0.25292120363E+02  0.37899405555E+03  0.38838696881E+03  0.77000000000E+02 0.  0.
<mgrwt>
<rscale>  0 0.17811895E+03</rscale>
<asrwt>0</asrwt>
<pdfrwt beam="1">  1        2 0.15706908E+00 0.17811895E+03</pdfrwt>
<pdfrwt beam="2">  1       -2 0.10305605E-02 0.17811895E+03</pdfrwt>
<totfact> 0.50147959E+04</totfact>
</mgrwt>
</event>
<event>
 4    1  0.1305170E-003  0.2945557E+03  0.7818608E-02  0.1087994E+00
          2   -1    0    0  501    0  0.00000000000E+00  0.00000000000E+00  0.10918421837E+03  0.10918421840E+03  0.25500000000E-02 0.  1.
         -2   -1    0    0    0  501 -0.00000000000E+00 -0.00000000000E+00 -0.19866205551E+03  0.19866205553E+03  0.25500000000E-02 0. -1.
    5000001    1    1    2    0    0  0.12489848579E+03  0.12692070431E+02 -0.45805173739E+02  0.15423305205E+03  0.77000000000E+02 0.  0.
   -5000001    1    1    2    0    0 -0.12489848579E+03 -0.12692070431E+02 -0.43672663403E+02  0.15361322187E+03  0.77000000000E+02 0.  0.
<mgrwt>
<rscale>  0 0.29455567E+03</rscale>
<asrwt>0</asrwt>
<pdfrwt beam="1">  1        2 0.15597746E-01 0.29455567E+03</pdfrwt>
<pdfrwt beam="2">  1       -2 0.28380293E-01 0.29455567E+03</pdfrwt>
<totfact> 0.41976283E+03</totfact>
</mgrwt>
</event>
<event>
 4    1  0.1305170E-003  0.2829300E+03  0.7818608E-02  0.1094099E+00
          2   -1    0    0  501    0  0.00000000000E+00  0.00000000000E+00  0.47248937607E+03  0.47248937608E+03  0.25500000000E-02 0.  1.
         -2   -1    0    0    0  501 -0.00000000000E+00 -0.00000000000E+00 -0.42355111163E+02  0.42355111240E+02  0.25500000000E-02 0. -1.
    5000001    1    1    2    0    0  0.10906446357E+03  0.46336061688E+02  0.20337965174E+03  0.24765776904E+03  0.77000000000E+02 0.  0.
   -5000001    1    1    2    0    0 -0.10906446357E+03 -0.46336061688E+02  0.22675461317E+03  0.26718671827E+03  0.77000000000E+02 0.  0.
<mgrwt>
<rscale>  0 0.28292996E+03</rscale>
<asrwt>0</asrwt>
<pdfrwt beam="1">  1        2 0.67498484E-01 0.28292996E+03</pdfrwt>
<pdfrwt beam="2">  1       -2 0.60507300E-02 0.28292996E+03</pdfrwt>
<totfact> 0.10477989E+04</totfact>
</mgrwt>
</event>
<event>
 4    1  0.1305170E-003  0.2738669E+03  0.7818608E-02  0.1099087E+00
         -2   -1    0    0    0  501 -0.00000000000E+00  0.00000000000E+00  0.15841787368E+02  0.15841787573E+02  0.25500000000E-02 0. -1.
          2   -1    0    0  501    0  0.00000000000E+00 -0.00000000000E+00 -0.11836269474E+04  0.11836269474E+04  0.25500000000E-02 0.  1.
    5000001    1    1    2    0    0 -0.91211578238E+02  0.60060608610E+02 -0.71491507289E+03  0.72729594400E+03  0.77000000000E+02 0.  0.
   -5000001    1    1    2    0    0  0.91211578238E+02 -0.60060608610E+02 -0.45287008712E+03  0.47217279096E+03  0.77000000000E+02 0.  0.
<mgrwt>
<rscale>  0 0.27386688E+03</rscale>
<asrwt>0</asrwt>
<pdfrwt beam="1">  1        2 0.16908951E+00 0.27386688E+03</pdfrwt>
<pdfrwt beam="2">  1       -2 0.22631132E-02 0.27386688E+03</pdfrwt>
<totfact> 0.14704617E+04</totfact>
</mgrwt>
</event>
<event>
 4    1  0.1305170E-003  0.1770788E+03  0.7818608E-02  0.1170661E+00
         -2   -1    0    0    0  501 -0.00000000000E+00  0.00000000000E+00  0.11844828652E+02  0.11844828926E+02  0.25500000000E-02 0. -1.
          2   -1    0    0  501    0  0.00000000000E+00 -0.00000000000E+00 -0.66182660697E+03  0.66182660697E+03  0.25500000000E-02 0.  1.
    5000001    1    1    2    0    0 -0.27637481119E+01 -0.42790951737E+02 -0.35716394692E+03  0.36787741006E+03  0.77000000000E+02 0.  0.
   -5000001    1    1    2    0    0  0.27637481119E+01  0.42790951737E+02 -0.29281783140E+03  0.30579402584E+03  0.77000000000E+02 0.  0.
<mgrwt>
<rscale>  0 0.17707877E+03</rscale>
<asrwt>0</asrwt>
<pdfrwt beam="1">  1        2 0.94546635E-01 0.17707877E+03</pdfrwt>
<pdfrwt beam="2">  1       -2 0.16921188E-02 0.17707877E+03</pdfrwt>
<totfact> 0.46403181E+04</totfact>
</mgrwt>
</event>
<event>
 4    1  0.1305170E-003  0.3277509E+03  0.7818608E-02  0.1072136E+00
         -2   -1    0    0    0  501 -0.00000000000E+00  0.00000000000E+00  0.69925326707E+03  0.69925326708E+03  0.25500000000E-02 0. -1.
          2   -1    0    0  501    0  0.00000000000E+00 -0.00000000000E+00 -0.38405499190E+02  0.38405499275E+02  0.25500000000E-02 0.  1.
    5000001    1    1    2    0    0 -0.71478889572E+02  0.12475309947E+03  0.29458214843E+03  0.33671977912E+03  0.77000000000E+02 0.  0.
   -5000001    1    1    2    0    0  0.71478889572E+02 -0.12475309947E+03  0.36626561945E+03  0.40093898723E+03  0.77000000000E+02 0.  0.
<mgrwt>
<rscale>  0 0.32775095E+03</rscale>
<asrwt>0</asrwt>
<pdfrwt beam="1">  1        2 0.54864996E-02 0.32775095E+03</pdfrwt>
<pdfrwt beam="2">  1       -2 0.99893329E-01 0.32775095E+03</pdfrwt>
<totfact> 0.12011096E+03</totfact>
</mgrwt>
</event>
<event>
 4    1  0.1305170E-003  0.2988530E+03  0.7818608E-02  0.1085815E+00
         -2   -1    0    0    0  501 -0.00000000000E+00  0.00000000000E+00  0.22798911711E+02  0.22798911853E+02  0.25500000000E-02 0. -1.
          2   -1    0    0  501    0  0.00000000000E+00 -0.00000000000E+00 -0.97935743360E+03  0.97935743361E+03  0.25500000000E-02 0.  1.
    5000001    1    1    2    0    0  0.95948476622E+02 -0.50584904665E+02 -0.70656133339E+03  0.71897347698E+03  0.77000000000E+02 0.  0.
   -5000001    1    1    2    0    0 -0.95948476622E+02  0.50584904665E+02 -0.24999718850E+03  0.28318286848E+03  0.77000000000E+02 0.  0.
<mgrwt>
<rscale>  0 0.29885303E+03</rscale>
<asrwt>0</asrwt>
<pdfrwt beam="1">  1        2 0.13990818E+00 0.29885303E+03</pdfrwt>
<pdfrwt beam="2">  1       -2 0.32569880E-02 0.29885303E+03</pdfrwt>
<totfact> 0.11227407E+04</totfact>
</mgrwt>
</event>
<event>
 4    1  0.1305170E-003  0.1766662E+03  0.7818608E-02  0.1171069E+00
          2   -1    0    0  501    0  0.00000000000E+00  0.00000000000E+00  0.18574229484E+04  0.18574229484E+04  0.25500000000E-02 0.  1.
         -2   -1    0    0    0  501 -0.00000000000E+00 -0.00000000000E+00 -0.42008410510E+01  0.42008418249E+01  0.25500000000E-02 0. -1.
    5000001    1    1    2    0    0  0.38176175437E+02  0.19573667562E+02  0.98731892597E+03  0.99124578708E+03  0.77000000000E+02 0.  0.
   -5000001    1    1    2    0    0 -0.38176175437E+02 -0.19573667562E+02  0.86590318139E+03  0.87037800315E+03  0.77000000000E+02 0.  0.
<mgrwt>
<rscale>  0 0.17666623E+03</rscale>
<asrwt>0</asrwt>
<pdfrwt beam="1">  1        2 0.26534616E+00 0.17666623E+03</pdfrwt>
<pdfrwt beam="2">  1       -2 0.60012016E-03 0.17666623E+03</pdfrwt>
<totfact> 0.45070164E+04</totfact>
</mgrwt>
</event>
<event>
 4    1  0.1305170E-003  0.1678717E+03  0.7818608E-02  0.1180086E+00
         -2   -1    0    0    0  501 -0.00000000000E+00  0.00000000000E+00  0.13243728598E+02  0.13243728844E+02  0.25500000000E-02 0. -1.
          2   -1    0    0  501    0  0.00000000000E+00 -0.00000000000E+00 -0.53196714522E+03  0.53196714523E+03  0.25500000000E-02 0.  1.
    5000001    1    1    2    0    0 -0.31596353890E+02 -0.38341637498E+01 -0.29235479687E+03  0.30399565399E+03  0.77000000000E+02 0.  0.
   -5000001    1    1    2    0    0  0.31596353890E+02  0.38341637498E+01 -0.22636861975E+03  0.24121522008E+03  0.77000000000E+02 0.  0.
<mgrwt>
<rscale>  0 0.16787172E+03</rscale>
<asrwt>0</asrwt>
<pdfrwt beam="1">  1        2 0.75995293E-01 0.16787172E+03</pdfrwt>
<pdfrwt beam="2">  1       -2 0.18919616E-02 0.16787172E+03</pdfrwt>
<totfact> 0.50196107E+04</totfact>
</mgrwt>
</event>
<event>
 4    1  0.1305170E-003  0.2675773E+03  0.7818608E-02  0.1102674E+00
          2   -1    0    0  501    0  0.00000000000E+00  0.00000000000E+00  0.33820487881E+04  0.33820487881E+04  0.25500000000E-02 0.  1.
         -2   -1    0    0    0  501 -0.00000000000E+00 -0.00000000000E+00 -0.52924740029E+01  0.52924746172E+01  0.25500000000E-02 0. -1.
    5000001    1    1    2    0    0  0.89329763943E+02  0.57833673245E+02  0.13666561260E+04  0.13729539348E+04  0.77000000000E+02 0.  0.
   -5000001    1    1    2    0    0 -0.89329763943E+02 -0.57833673245E+02  0.20101001882E+04  0.20143873279E+04  0.77000000000E+02 0.  0.
<mgrwt>
<rscale>  0 0.26757733E+03</rscale>
<asrwt>0</asrwt>
<pdfrwt beam="1">  1        2 0.48315008E+00 0.26757733E+03</pdfrwt>
<pdfrwt beam="2">  1       -2 0.75606736E-03 0.26757733E+03</pdfrwt>
<totfact> 0.54896353E+03</totfact>
</mgrwt>
</event>
<event>
 4    1  0.1305170E-003  0.1595140E+03  0.7818608E-02  0.1189247E+00
         -2   -1    0    0    0  501 -0.00000000000E+00  0.00000000000E+00  0.17125513962E+03  0.17125513964E+03  0.25500000000E-02 0. -1.
          2   -1    0    0  501    0  0.00000000000E+00 -0.00000000000E+00 -0.37144466129E+02  0.37144466217E+02  0.25500000000E-02 0.  1.
    5000001    1    1    2    0    0  0.13410380645E+02  0.14218669024E+02  0.57801363392E+02  0.98244625643E+02  0.77000000000E+02 0.  0.
   -5000001    1    1    2    0    0 -0.13410380645E+02 -0.14218669024E+02  0.76309310099E+02  0.11015498021E+03  0.77000000000E+02 0.  0.
<mgrwt>
<rscale>  0 0.15951402E+03</rscale>
<asrwt>0</asrwt>
<pdfrwt beam="1">  1        2 0.53063525E-02 0.15951402E+03</pdfrwt>
<pdfrwt beam="2">  1       -2 0.24465019E-01 0.15951402E+03</pdfrwt>
<totfact> 0.20183168E+04</totfact>
</mgrwt>
</event>
<event>
 4    1  0.1305170E-003  0.5833151E+03  0.7818608E-02  0.9940639E-01
          2   -1    0    0  501    0  0.00000000000E+00  0.00000000000E+00  0.62478301980E+03  0.62478301980E+03  0.25500000000E-02 0.  1.
         -2   -1    0    0    0  501 -0.00000000000E+00 -0.00000000000E+00 -0.13614989100E+03  0.13614989102E+03  0.25500000000E-02 0. -1.
    5000001    1    1    2    0    0 -0.19821993524E+03  0.10482455409E+03  0.22721669610E+02  0.23816927622E+03  0.77000000000E+02 0.  0.
   -5000001    1    1    2    0    0  0.19821993524E+03 -0.10482455409E+03  0.46591145919E+03  0.52276363461E+03  0.77000000000E+02 0.  0.
<mgrwt>
<rscale>  0 0.58331515E+03</rscale>
<asrwt>0</asrwt>
<pdfrwt beam="1">  1        2 0.89254717E-01 0.58331515E+03</pdfrwt>
<pdfrwt beam="2">  1       -2 0.19449985E-01 0.58331515E+03</pdfrwt>
<totfact> 0.11598399E+03</totfact>
</mgrwt>
</event>
<event>
 4    1  0.1305170E-003  0.2661212E+03  0.7818608E-02  0.1103520E+00
          2   -1    0    0  501    0  0.00000000000E+00  0.00000000000E+00  0.28150758327E+03  0.28150758328E+03  0.25500000000E-02 0.  1.
         -2   -1    0    0    0  501 -0.00000000000E+00 -0.00000000000E+00 -0.62893966640E+02  0.62893966692E+02  0.25500000000E-02 0. -1.
    5000001    1    1    2    0    0 -0.45660704059E+02  0.54049783555E+02  0.28250856835E+01  0.10461003827E+03  0.77000000000E+02 0.  0.
   -5000001    1    1    2    0    0  0.45660704059E+02 -0.54049783555E+02  0.21578853095E+03  0.23979151170E+03  0.77000000000E+02 0.  0.
<mgrwt>
<rscale>  0 0.26612124E+03</rscale>
<asrwt>0</asrwt>
<pdfrwt beam="1">  1        2 0.40215370E-01 0.26612124E+03</pdfrwt>
<pdfrwt beam="2">  1       -2 0.89848522E-02 0.26612124E+03</pdfrwt>
<totfact> 0.98930634E+03</totfact>
</mgrwt>
</event>
<event>
 4    1  0.1305170E-003  0.3150692E+03  0.7818608E-02  0.1077941E+00
          2   -1    0    0  501    0  0.00000000000E+00  0.00000000000E+00  0.76953758399E+02  0.76953758441E+02  0.25500000000E-02 0.  1.
         -2   -1    0    0    0  501 -0.00000000000E+00 -0.00000000000E+00 -0.32249429461E+03  0.32249429462E+03  0.25500000000E-02 0. -1.
    5000001    1    1    2    0    0  0.12391000371E+03 -0.44419642505E+02 -0.17286650696E+03  0.23051816173E+03  0.77000000000E+02 0.  0.
   -5000001    1    1    2    0    0 -0.12391000371E+03  0.44419642505E+02 -0.72674029256E+02  0.16892989134E+03  0.77000000000E+02 0.  0.
<mgrwt>
<rscale>  0 0.31506919E+03</rscale>
<asrwt>0</asrwt>
<pdfrwt beam="1">  1        2 0.10993394E-01 0.31506919E+03</pdfrwt>
<pdfrwt beam="2">  1       -2 0.46070613E-01 0.31506919E+03</pdfrwt>
<totfact> 0.25797585E+03</totfact>
</mgrwt>
</event>
<event>
 4    1  0.1305170E-003  0.6101595E+03  0.7818608E-02  0.9884550E-01
         -2   -1    0    0    0  501 -0.00000000000E+00  0.00000000000E+00  0.24334689395E+03  0.24334689396E+03  0.25500000000E-02 0. -1.
          2   -1    0    0  501    0  0.00000000000E+00 -0.00000000000E+00 -0.38247313444E+03  0.38247313445E+03  0.25500000000E-02 0.  1.
    5000001    1    1    2    0    0  0.27697419573E+03  0.99142271356E+02 -0.44423743471E+02  0.30732127172E+03  0.77000000000E+02 0.  0.
   -5000001    1    1    2    0    0 -0.27697419573E+03 -0.99142271356E+02 -0.94702497028E+02  0.31849875669E+03  0.77000000000E+02 0.  0.
<mgrwt>
<rscale>  0 0.61015949E+03</rscale>
<asrwt>0</asrwt>
<pdfrwt beam="1">  1        2 0.54639019E-01 0.61015949E+03</pdfrwt>
<pdfrwt beam="2">  1       -2 0.34763842E-01 0.61015949E+03</pdfrwt>
<totfact> 0.70919989E+02</totfact>
</mgrwt>
</event>
<event>
 4    1  0.1305170E-003  0.6978608E+03  0.7818608E-02  0.9720898E-01
         -2   -1    0    0    0  501 -0.00000000000E+00  0.00000000000E+00  0.36123653794E+02  0.36123653884E+02  0.25500000000E-02 0. -1.
          2   -1    0    0  501    0  0.00000000000E+00 -0.00000000000E+00 -0.33704345535E+04  0.33704345535E+04  0.25500000000E-02 0.  1.
    5000001    1    1    2    0    0  0.28779195973E+03 -0.15590516665E+03 -0.21222758767E+04  0.21487472001E+04  0.77000000000E+02 0.  0.
   -5000001    1    1    2    0    0 -0.28779195973E+03  0.15590516665E+03 -0.12120350230E+04  0.12578110073E+04  0.77000000000E+02 0.  0.
<mgrwt>
<rscale>  0 0.69786076E+03</rscale>
<asrwt>0</asrwt>
<pdfrwt beam="1">  1        2 0.48149045E+00 0.69786076E+03</pdfrwt>
<pdfrwt beam="2">  1       -2 0.51605241E-02 0.69786076E+03</pdfrwt>
<totfact> 0.30201088E+02</totfact>
</mgrwt>
</event>
<event>
 4    1  0.1305170E-003  0.1851352E+03  0.7818608E-02  0.1162924E+00
         -2   -1    0    0    0  501 -0.00000000000E+00  0.00000000000E+00  0.46186536834E+01  0.46186543874E+01  0.25500000000E-02 0. -1.
          2   -1    0    0  501    0  0.00000000000E+00 -0.00000000000E+00 -0.18552513830E+04  0.18552513830E+04  0.25500000000E-02 0.  1.
    5000001    1    1    2    0    0 -0.28211153183E+02  0.42222168463E+02 -0.10038961929E+04  0.10081245691E+04  0.77000000000E+02 0.  0.
   -5000001    1    1    2    0    0  0.28211153183E+02 -0.42222168463E+02 -0.84673653634E+03  0.85174546823E+03  0.77000000000E+02 0.  0.
<mgrwt>
<rscale>  0 0.18513524E+03</rscale>
<asrwt>0</asrwt>
<pdfrwt beam="1">  1        2 0.26503543E+00 0.18513524E+03</pdfrwt>
<pdfrwt beam="2">  1       -2 0.65980891E-03 0.18513524E+03</pdfrwt>
<totfact> 0.39570659E+04</totfact>
</mgrwt>
</event>
<event>
 4    1  0.1305170E-003  0.3311022E+03  0.7818608E-02  0.1070650E+00
         -2   -1    0    0    0  501 -0.00000000000E+00  0.00000000000E+00  0.37923115545E+02  0.37923115630E+02  0.25500000000E-02 0. -1.
          2   -1    0    0  501    0  0.00000000000E+00 -0.00000000000E+00 -0.72270330355E+03  0.72270330356E+03  0.25500000000E-02 0.  1.
    5000001    1    1    2    0    0  0.11578936079E+03 -0.84084155024E+02 -0.41506620036E+03  0.44574238286E+03  0.77000000000E+02 0.  0.
   -5000001    1    1    2    0    0 -0.11578936079E+03  0.84084155024E+02 -0.26971398765E+03  0.31488403633E+03  0.77000000000E+02 0.  0.
<mgrwt>
<rscale>  0 0.33110217E+03</rscale>
<asrwt>0</asrwt>
<pdfrwt beam="1">  1        2 0.10324332E+00 0.33110217E+03</pdfrwt>
<pdfrwt beam="2">  1       -2 0.54175884E-02 0.33110217E+03</pdfrwt>
<totfact> 0.76737817E+03</totfact>
</mgrwt>
</event>
<event>
 4    1  0.1305170E-003  0.5194737E+03  0.7818608E-02  0.1008817E+00
          2   -1    0    0  501    0  0.00000000000E+00  0.00000000000E+00  0.66409105497E+03  0.66409105498E+03  0.25500000000E-02 0.  1.
         -2   -1    0    0    0  501 -0.00000000000E+00 -0.00000000000E+00 -0.10158732518E+03  0.10158732521E+03  0.25500000000E-02 0. -1.
    5000001    1    1    2    0    0  0.51825620059E+02  0.73532204834E+02 -0.59486893825E+02  0.13251630307E+03  0.77000000000E+02 0.  0.
   -5000001    1    1    2    0    0 -0.51825620059E+02 -0.73532204834E+02  0.62199062362E+03  0.63316207712E+03  0.77000000000E+02 0.  0.
<mgrwt>
<rscale>  0 0.51947371E+03</rscale>
<asrwt>0</asrwt>
<pdfrwt beam="1">  1        2 0.94870154E-01 0.51947371E+03</pdfrwt>
<pdfrwt beam="2">  1       -2 0.14512475E-01 0.51947371E+03</pdfrwt>
<totfact> 0.17757165E+03</totfact>
</mgrwt>
</event>
<event>
 4    1  0.1305170E-003  0.2428370E+03  0.7818608E-02  0.1117917E+00
         -2   -1    0    0    0  501 -0.00000000000E+00  0.00000000000E+00  0.69223635487E+01  0.69223640184E+01  0.25500000000E-02 0. -1.
          2   -1    0    0  501    0  0.00000000000E+00 -0.00000000000E+00 -0.21296844484E+04  0.21296844484E+04  0.25500000000E-02 0.  1.
    5000001    1    1    2    0    0 -0.24594768792E+02 -0.31405021636E+02 -0.18091143183E+04  0.18111915400E+04  0.77000000000E+02 0.  0.
   -5000001    1    1    2    0    0  0.24594768792E+02  0.31405021636E+02 -0.31364776658E+03  0.32541527241E+03  0.77000000000E+02 0.  0.
<mgrwt>
<rscale>  0 0.24283699E+03</rscale>
<asrwt>0</asrwt>
<pdfrwt beam="1">  1        2 0.30424022E+00 0.24283699E+03</pdfrwt>
<pdfrwt beam="2">  1       -2 0.98891047E-03 0.24283699E+03</pdfrwt>
<totfact> 0.16483815E+04</totfact>
</mgrwt>
</event>
<event>
 4    1  0.1305170E-003  0.2308459E+03  0.7818608E-02  0.1126046E+00
         -2   -1    0    0    0  501 -0.00000000000E+00  0.00000000000E+00  0.50325965606E+02  0.50325965671E+02  0.25500000000E-02 0. -1.
          2   -1    0    0  501    0  0.00000000000E+00 -0.00000000000E+00 -0.26472328353E+03  0.26472328354E+03  0.25500000000E-02 0.  1.
    5000001    1    1    2    0    0  0.36894247876E+02 -0.48414962746E+02 -0.19008197757E+03  0.21392838134E+03  0.77000000000E+02 0.  0.
   -5000001    1    1    2    0    0 -0.36894247876E+02  0.48414962746E+02 -0.24315340357E+02  0.10112086788E+03  0.77000000000E+02 0.  0.
<mgrwt>
<rscale>  0 0.23084588E+03</rscale>
<asrwt>0</asrwt>
<pdfrwt beam="1">  1        2 0.37817611E-01 0.23084588E+03</pdfrwt>
<pdfrwt beam="2">  1       -2 0.71894238E-02 0.23084588E+03</pdfrwt>
<totfact> 0.14856979E+04</totfact>
</mgrwt>
</event>
<event>
 4    1  0.1305170E-003  0.8409103E+03  0.7818608E-02  0.9502619E-01
         -2   -1    0    0    0  501 -0.00000000000E+00  0.00000000000E+00  0.22312922376E+03  0.22312922378E+03  0.25500000000E-02 0. -1.
          2   -1    0    0  501    0  0.00000000000E+00 -0.00000000000E+00 -0.79228757798E+03  0.79228757798E+03  0.25500000000E-02 0.  1.
    5000001    1    1    2    0    0 -0.13500226636E+03 -0.31995164095E+03 -0.55528709772E+03  0.65944478568E+03  0.77000000000E+02 0.  0.
   -5000001    1    1    2    0    0  0.13500226636E+03  0.31995164095E+03 -0.13871256492E+02  0.35597201607E+03  0.77000000000E+02 0.  0.
<mgrwt>
<rscale>  0 0.84091025E+03</rscale>
<asrwt>0</asrwt>
<pdfrwt beam="1">  1        2 0.11318394E+00 0.84091025E+03</pdfrwt>
<pdfrwt beam="2">  1       -2 0.31875604E-01 0.84091025E+03</pdfrwt>
<totfact> 0.35287398E+02</totfact>
</mgrwt>
</event>
<event>
 4    1  0.1305170E-003  0.5883558E+03  0.7818608E-02  0.9929863E-01
          2   -1    0    0  501    0  0.00000000000E+00  0.00000000000E+00  0.10194007945E+04  0.10194007945E+04  0.25500000000E-02 0.  1.
         -2   -1    0    0    0  501 -0.00000000000E+00 -0.00000000000E+00 -0.84893630721E+02  0.84893630759E+02  0.25500000000E-02 0. -1.
    5000001    1    1    2    0    0  0.26667917199E+03 -0.72660103442E+02  0.58909945611E+03  0.65525906372E+03  0.77000000000E+02 0.  0.
   -5000001    1    1    2    0    0 -0.26667917199E+03  0.72660103442E+02  0.34540770772E+03  0.44903536159E+03  0.77000000000E+02 0.  0.
<mgrwt>
<rscale>  0 0.58835579E+03</rscale>
<asrwt>0</asrwt>
<pdfrwt beam="1">  1        2 0.14562868E+00 0.58835579E+03</pdfrwt>
<pdfrwt beam="2">  1       -2 0.12127662E-01 0.58835579E+03</pdfrwt>
<totfact> 0.13729730E+03</totfact>
</mgrwt>
</event>
<event>
 4    1  0.1305170E-003  0.2396248E+03  0.7818608E-02  0.1120043E+00
          2   -1    0    0  501    0  0.00000000000E+00  0.00000000000E+00  0.24668182991E+04  0.24668182991E+04  0.25500000000E-02 0.  1.
         -2   -1    0    0    0  501 -0.00000000000E+00 -0.00000000000E+00 -0.58192419079E+01  0.58192424666E+01  0.25500000000E-02 0. -1.
    5000001    1    1    2    0    0  0.12548436509E+01 -0.69263003591E+02  0.18519505747E+04  0.18548447022E+04  0.77000000000E+02 0.  0.
   -5000001    1    1    2    0    0 -0.12548436509E+01  0.69263003591E+02  0.60904848256E+03  0.61779283939E+03  0.77000000000E+02 0.  0.
<mgrwt>
<rscale>  0 0.23962482E+03</rscale>
<asrwt>0</asrwt>
<pdfrwt beam="1">  1        2 0.35240349E+00 0.23962482E+03</pdfrwt>
<pdfrwt beam="2">  1       -2 0.83131824E-03 0.23962482E+03</pdfrwt>
<totfact> 0.14479960E+04</totfact>
</mgrwt>
</event>
<event>
 4    1  0.1305170E-003  0.3697984E+03  0.7818608E-02  0.1054770E+00
         -2   -1    0    0    0  501 -0.00000000000E+00  0.00000000000E+00  0.41664848315E+03  0.41664848315E+03  0.25500000000E-02 0. -1.
          2   -1    0    0  501    0  0.00000000000E+00 -0.00000000000E+00 -0.82054090053E+02  0.82054090092E+02  0.25500000000E-02 0.  1.
    5000001    1    1    2    0    0  0.81095910406E+02 -0.10034160571E+03  0.31262958555E+03  0.34685911013E+03  0.77000000000E+02 0.  0.
   -5000001    1    1    2    0    0 -0.81095910406E+02  0.10034160571E+03  0.21964807546E+02  0.15184346312E+03  0.77000000000E+02 0.  0.
<mgrwt>
<rscale>  0 0.36979839E+03</rscale>
<asrwt>0</asrwt>
<pdfrwt beam="1">  1        2 0.11722013E-01 0.36979839E+03</pdfrwt>
<pdfrwt beam="2">  1       -2 0.59521213E-01 0.36979839E+03</pdfrwt>
<totfact> 0.14238782E+03</totfact>
</mgrwt>
</event>
<event>
 4    1  0.1305170E-003  0.2774203E+03  0.7818608E-02  0.1097106E+00
          2   -1    0    0  501    0  0.00000000000E+00  0.00000000000E+00  0.53239230153E+03  0.53239230153E+03  0.25500000000E-02 0.  1.
         -2   -1    0    0    0  501 -0.00000000000E+00 -0.00000000000E+00 -0.36139717993E+02  0.36139718083E+02  0.25500000000E-02 0. -1.
    5000001    1    1    2    0    0  0.68509544115E+02 -0.81571159006E+02  0.15730283419E+03  0.20498925158E+03  0.77000000000E+02 0.  0.
   -5000001    1    1    2    0    0 -0.68509544115E+02  0.81571159006E+02  0.33894974934E+03  0.36354276804E+03  0.77000000000E+02 0.  0.
<mgrwt>
<rscale>  0 0.27742031E+03</rscale>
<asrwt>0</asrwt>
<pdfrwt beam="1">  1        2 0.76056040E-01 0.27742031E+03</pdfrwt>
<pdfrwt beam="2">  1       -2 0.51628171E-02 0.27742031E+03</pdfrwt>
<totfact> 0.11691979E+04</totfact>
</mgrwt>
</event>
<event>
 4    1  0.1305170E-003  0.1855728E+03  0.7818608E-02  0.1162516E+00
          2   -1    0    0  501    0  0.00000000000E+00  0.00000000000E+00  0.30055799429E+04  0.30055799429E+04  0.25500000000E-02 0.  1.
         -2   -1    0    0    0  501 -0.00000000000E+00 -0.00000000000E+00 -0.28644441133E+01  0.28644452483E+01  0.25500000000E-02 0. -1.
    5000001    1    1    2    0    0  0.21303658338E+02 -0.41225536260E+02  0.18734946773E+04  0.18756504729E+04  0.77000000000E+02 0.  0.
   -5000001    1    1    2    0    0 -0.21303658338E+02  0.41225536260E+02  0.11292208215E+04  0.11327939152E+04  0.77000000000E+02 0.  0.
<mgrwt>
<rscale>  0 0.18557282E+03</rscale>
<asrwt>0</asrwt>
<pdfrwt beam="1">  1        2 0.42936974E+00 0.18557282E+03</pdfrwt>
<pdfrwt beam="2">  1       -2 0.40920526E-03 0.18557282E+03</pdfrwt>
<totfact> 0.21172519E+04</totfact>
</mgrwt>
</event>
<event>
 4    1  0.1305170E-003  0.3571204E+03  0.7818608E-02  0.1059730E+00
         -2   -1    0    0    0  501 -0.00000000000E+00  0.00000000000E+00  0.23660162579E+02  0.23660162716E+02  0.25500000000E-02 0. -1.
          2   -1    0    0  501    0  0.00000000000E+00 -0.00000000000E+00 -0.13475711461E+04  0.13475711461E+04  0.25500000000E-02 0.  1.
    5000001    1    1    2    0    0  0.45625044129E+02  0.12649504387E+03 -0.10026315669E+04  0.10145352136E+04  0.77000000000E+02 0.  0.
   -5000001    1    1    2    0    0 -0.45625044129E+02 -0.12649504387E+03 -0.32127941669E+03  0.35669609525E+03  0.77000000000E+02 0.  0.
<mgrwt>
<rscale>  0 0.35712044E+03</rscale>
<asrwt>0</asrwt>
<pdfrwt beam="1">  1        2 0.19251011E+00 0.35712044E+03</pdfrwt>
<pdfrwt beam="2">  1       -2 0.33800241E-02 0.35712044E+03</pdfrwt>
<totfact> 0.66509745E+03</totfact>
</mgrwt>
</event>
<event>
 4    1  0.1305170E-003  0.1837737E+03  0.7818608E-02  0.1164200E+00
          2   -1    0    0  501    0  0.00000000000E+00  0.00000000000E+00  0.33257262190E+03  0.33257262191E+03  0.25500000000E-02 0.  1.
         -2   -1    0    0    0  501 -0.00000000000E+00 -0.00000000000E+00 -0.25387504929E+02  0.25387505057E+02  0.25500000000E-02 0. -1.
    5000001    1    1    2    0    0 -0.13298287803E+02  0.35237450413E+02  0.89117664409E+02  0.12365063882E+03  0.77000000000E+02 0.  0.
   -5000001    1    1    2    0    0  0.13298287803E+02 -0.35237450413E+02  0.21806745256E+03  0.23430948815E+03  0.77000000000E+02 0.  0.
<mgrwt>
<rscale>  0 0.18377366E+03</rscale>
<asrwt>0</asrwt>
<pdfrwt beam="1">  1        2 0.47510373E-01 0.18377366E+03</pdfrwt>
<pdfrwt beam="2">  1       -2 0.36267866E-02 0.18377366E+03</pdfrwt>
<totfact> 0.32260183E+04</totfact>
</mgrwt>
</event>
<event>
 4    1  0.1305170E-003  0.3396266E+03  0.7818608E-02  0.1066955E+00
         -2   -1    0    0    0  501 -0.00000000000E+00  0.00000000000E+00  0.88743720720E+02  0.88743720757E+02  0.25500000000E-02 0. -1.
          2   -1    0    0  501    0  0.00000000000E+00 -0.00000000000E+00 -0.32494200758E+03  0.32494200759E+03  0.25500000000E-02 0.  1.
    5000001    1    1    2    0    0 -0.71253869344E+02 -0.11978438736E+03 -0.18997656650E+03  0.24788204689E+03  0.77000000000E+02 0.  0.
   -5000001    1    1    2    0    0  0.71253869344E+02  0.11978438736E+03 -0.46221720360E+02  0.16580368146E+03  0.77000000000E+02 0.  0.
<mgrwt>
<rscale>  0 0.33962663E+03</rscale>
<asrwt>0</asrwt>
<pdfrwt beam="1">  1        2 0.46420286E-01 0.33962663E+03</pdfrwt>
<pdfrwt beam="2">  1       -2 0.12677675E-01 0.33962663E+03</pdfrwt>
<totfact> 0.49237099E+03</totfact>
</mgrwt>
</event>
<event>
 4    1  0.1305170E-003  0.4349581E+03  0.7818608E-02  0.1032305E+00
         -2   -1    0    0    0  501 -0.00000000000E+00  0.00000000000E+00  0.24238191327E+02  0.24238191461E+02  0.25500000000E-02 0. -1.
          2   -1    0    0  501    0  0.00000000000E+00 -0.00000000000E+00 -0.19513474737E+04  0.19513474737E+04  0.25500000000E-02 0.  1.
    5000001    1    1    2    0    0 -0.92280463027E+02 -0.13604911490E+03 -0.41959110051E+03  0.45717692106E+03  0.77000000000E+02 0.  0.
   -5000001    1    1    2    0    0  0.92280463027E+02  0.13604911490E+03 -0.15075181819E+04  0.15184087441E+04  0.77000000000E+02 0.  0.
<mgrwt>
<rscale>  0 0.43495808E+03</rscale>
<asrwt>0</asrwt>
<pdfrwt beam="1">  1        2 0.27876383E+00 0.43495808E+03</pdfrwt>
<pdfrwt beam="2">  1       -2 0.34626000E-02 0.43495808E+03</pdfrwt>
<totfact> 0.31755332E+03</totfact>
</mgrwt>
</event>
<event>
 4    1  0.1305170E-003  0.2087067E+03  0.7818608E-02  0.1142594E+00
         -2   -1    0    0    0  501 -0.00000000000E+00  0.00000000000E+00  0.66306788377E+02  0.66306788426E+02  0.25500000000E-02 0. -1.
          2   -1    0    0  501    0  0.00000000000E+00 -0.00000000000E+00 -0.16423090152E+03  0.16423090154E+03  0.25500000000E-02 0.  1.
    5000001    1    1    2    0    0  0.54527249810E+02  0.24596760738E+02 -0.78922471421E+01  0.97823868128E+02  0.77000000000E+02 0.  0.
   -5000001    1    1    2    0    0 -0.54527249810E+02 -0.24596760738E+02 -0.90031865996E+02  0.13271382183E+03  0.77000000000E+02 0.  0.
<mgrwt>
<rscale>  0 0.20870672E+03</rscale>
<asrwt>0</asrwt>
<pdfrwt beam="1">  1        2 0.23461557E-01 0.20870672E+03</pdfrwt>
<pdfrwt beam="2">  1       -2 0.94723984E-02 0.20870672E+03</pdfrwt>
<totfact> 0.16192393E+04</totfact>
</mgrwt>
</event>
<event>
 4    1  0.1305170E-003  0.2572968E+03  0.7818608E-02  0.1108778E+00
         -2   -1    0    0    0  501 -0.00000000000E+00  0.00000000000E+00  0.14156134068E+03  0.14156134070E+03  0.25500000000E-02 0. -1.
          2   -1    0    0  501    0  0.00000000000E+00 -0.00000000000E+00 -0.11691339131E+03  0.11691339134E+03  0.25500000000E-02 0.  1.
    5000001    1    1    2    0    0  0.51361190124E+02  0.37757598660E+02 -0.69027043781E+02  0.12147979618E+03  0.77000000000E+02 0.  0.
   -5000001    1    1    2    0    0 -0.51361190124E+02 -0.37757598660E+02  0.93674993148E+02  0.13699493585E+03  0.77000000000E+02 0.  0.
<mgrwt>
<rscale>  0 0.25729684E+03</rscale>
<asrwt>0</asrwt>
<pdfrwt beam="1">  1        2 0.16701913E-01 0.25729684E+03</pdfrwt>
<pdfrwt beam="2">  1       -2 0.20223049E-01 0.25729684E+03</pdfrwt>
<totfact> 0.69842742E+03</totfact>
</mgrwt>
</event>
<event>
 4    1  0.1305170E-003  0.2790431E+03  0.7818608E-02  0.1096213E+00
          2   -1    0    0  501    0  0.00000000000E+00  0.00000000000E+00  0.23638486572E+04  0.23638486572E+04  0.25500000000E-02 0.  1.
         -2   -1    0    0    0  501 -0.00000000000E+00 -0.00000000000E+00 -0.82349883038E+01  0.82349886986E+01  0.25500000000E-02 0. -1.
    5000001    1    1    2    0    0 -0.78151365511E+02 -0.40122542766E+00  0.19105260418E+04  0.19136735754E+04  0.77000000000E+02 0.  0.
   -5000001    1    1    2    0    0  0.78151365511E+02  0.40122542766E+00  0.44508762715E+03  0.45841007052E+03  0.77000000000E+02 0.  0.
<mgrwt>
<rscale>  0 0.27904313E+03</rscale>
<asrwt>0</asrwt>
<pdfrwt beam="1">  1        2 0.33769308E+00 0.27904313E+03</pdfrwt>
<pdfrwt beam="2">  1       -2 0.11764255E-02 0.27904313E+03</pdfrwt>
<totfact> 0.98614922E+03</totfact>
</mgrwt>
</event>
<event>
 4    1  0.1305170E-003  0.1811462E+03  0.7818608E-02  0.1166698E+00
          2   -1    0    0  501    0  0.00000000000E+00  0.00000000000E+00  0.28336134632E+04  0.28336134632E+04  0.25500000000E-02 0.  1.
         -2   -1    0    0    0  501 -0.00000000000E+00 -0.00000000000E+00 -0.28950608671E+01  0.28950619901E+01  0.25500000000E-02 0. -1.
    5000001    1    1    2    0    0  0.24497119194E+02  0.40110594133E+02  0.15421039652E+04  0.15447403044E+04  0.77000000000E+02 0.  0.
   -5000001    1    1    2    0    0 -0.24497119194E+02 -0.40110594133E+02  0.12886144372E+04  0.12917682208E+04  0.77000000000E+02 0.  0.
<mgrwt>
<rscale>  0 0.18114618E+03</rscale>
<asrwt>0</asrwt>
<pdfrwt beam="1">  1        2 0.40480150E+00 0.18114618E+03</pdfrwt>
<pdfrwt beam="2">  1       -2 0.41358063E-03 0.18114618E+03</pdfrwt>
<totfact> 0.25570960E+04</totfact>
</mgrwt>
</event>
<event>
 4    1  0.1305170E-003  0.2108065E+03  0.7818608E-02  0.1140929E+00
          2   -1    0    0  501    0  0.00000000000E+00  0.00000000000E+00  0.23087714728E+02  0.23087714868E+02  0.25500000000E-02 0.  1.
         -2   -1    0    0    0  501 -0.00000000000E+00 -0.00000000000E+00 -0.48120139350E+03  0.48120139351E+03  0.25500000000E-02 0. -1.
    5000001    1    1    2    0    0  0.52593719236E+02 -0.13816819413E+02 -0.34186671751E+03  0.35462495166E+03  0.77000000000E+02 0.  0.
   -5000001    1    1    2    0    0 -0.52593719236E+02  0.13816819413E+02 -0.11624696127E+03  0.14966415672E+03  0.77000000000E+02 0.  0.
<mgrwt>
<rscale>  0 0.21080646E+03</rscale>
<asrwt>0</asrwt>
<pdfrwt beam="1">  1        2 0.32982453E-02 0.21080646E+03</pdfrwt>
<pdfrwt beam="2">  1       -2 0.68743050E-01 0.21080646E+03</pdfrwt>
<totfact> 0.53484011E+03</totfact>
</mgrwt>
</event>
<event>
 4    1  0.1305170E-003  0.2667085E+03  0.7818608E-02  0.1103178E+00
         -2   -1    0    0    0  501 -0.00000000000E+00  0.00000000000E+00  0.28775973889E+04  0.28775973889E+04  0.25500000000E-02 0. -1.
          2   -1    0    0  501    0  0.00000000000E+00 -0.00000000000E+00 -0.61799304126E+01  0.61799309387E+01  0.25500000000E-02 0.  1.
    5000001    1    1    2    0    0 -0.64182343384E+02 -0.87630054853E+02  0.15165876393E+04  0.15224209232E+04  0.77000000000E+02 0.  0.
   -5000001    1    1    2    0    0  0.64182343384E+02  0.87630054853E+02  0.13548298192E+04  0.13613563966E+04  0.77000000000E+02 0.  0.
<mgrwt>
<rscale>  0 0.26670847E+03</rscale>
<asrwt>0</asrwt>
<pdfrwt beam="1">  1        2 0.88284835E-03 0.26670847E+03</pdfrwt>
<pdfrwt beam="2">  1       -2 0.41108482E+00 0.26670847E+03</pdfrwt>
<totfact> 0.13192581E+02</totfact>
</mgrwt>
</event>
<event>
 4    1  0.1305170E-003  0.2039102E+03  0.7818608E-02  0.1146481E+00
          2   -1    0    0  501    0  0.00000000000E+00  0.00000000000E+00  0.50049763521E+03  0.50049763522E+03  0.25500000000E-02 0.  1.
         -2   -1    0    0    0  501 -0.00000000000E+00 -0.00000000000E+00 -0.20769015146E+02  0.20769015302E+02  0.25500000000E-02 0. -1.
    5000001    1    1    2    0    0  0.11083205127E+02  0.59300743142E+02  0.31335347975E+03  0.32826638397E+03  0.77000000000E+02 0.  0.
   -5000001    1    1    2    0    0 -0.11083205127E+02 -0.59300743142E+02  0.16637514031E+03  0.19300026654E+03  0.77000000000E+02 0.  0.
<mgrwt>
<rscale>  0 0.20391021E+03</rscale>
<asrwt>0</asrwt>
<pdfrwt beam="1">  1        2 0.71499659E-01 0.20391021E+03</pdfrwt>
<pdfrwt beam="2">  1       -2 0.29670023E-02 0.20391021E+03</pdfrwt>
<totfact> 0.28218158E+04</totfact>
</mgrwt>
</event>
<event>
 4    1  0.1305170E-003  0.2857646E+03  0.7818608E-02  0.1092581E+00
         -2   -1    0    0    0  501 -0.00000000000E+00  0.00000000000E+00  0.20336174881E+02  0.20336175041E+02  0.25500000000E-02 0. -1.
          2   -1    0    0  501    0  0.00000000000E+00 -0.00000000000E+00 -0.10038930961E+04  0.10038930961E+04  0.25500000000E-02 0.  1.
    5000001    1    1    2    0    0  0.93007526209E+02 -0.18806268180E+02 -0.22639794779E+03  0.25727243618E+03  0.77000000000E+02 0.  0.
   -5000001    1    1    2    0    0 -0.93007526209E+02  0.18806268180E+02 -0.75715897344E+03  0.76695683498E+03  0.77000000000E+02 0.  0.
<mgrwt>
<rscale>  0 0.28576456E+03</rscale>
<asrwt>0</asrwt>
<pdfrwt beam="1">  1        2 0.14341327E+00 0.28576456E+03</pdfrwt>
<pdfrwt beam="2">  1       -2 0.29051685E-02 0.28576456E+03</pdfrwt>
<totfact> 0.12856889E+04</totfact>
</mgrwt>
</event>
<event>
 4    1  0.1305170E-003  0.3217784E+03  0.7818608E-02  0.1074834E+00
         -2   -1    0    0    0  501 -0.00000000000E+00  0.00000000000E+00  0.40674903881E+02  0.40674903961E+02  0.25500000000E-02 0. -1.
          2   -1    0    0  501    0  0.00000000000E+00 -0.00000000000E+00 -0.63639572629E+03  0.63639572630E+03  0.25500000000E-02 0.  1.
    5000001    1    1    2    0    0  0.33814929697E+02 -0.10433038301E+03 -0.48521332830E+03  0.50337784243E+03  0.77000000000E+02 0.  0.
   -5000001    1    1    2    0    0 -0.33814929697E+02  0.10433038301E+03 -0.11050749411E+03  0.17369278783E+03  0.77000000000E+02 0.  0.
<mgrwt>
<rscale>  0 0.32177840E+03</rscale>
<asrwt>0</asrwt>
<pdfrwt beam="1">  1        2 0.90913669E-01 0.32177840E+03</pdfrwt>
<pdfrwt beam="2">  1       -2 0.58107010E-02 0.32177840E+03</pdfrwt>
<totfact> 0.80051810E+03</totfact>
</mgrwt>
</event>
<event>
 4    1  0.1305170E-003  0.4115543E+03  0.7818608E-02  0.1039851E+00
          2   -1    0    0  501    0  0.00000000000E+00  0.00000000000E+00  0.32028466082E+04  0.32028466082E+04  0.25500000000E-02 0.  1.
         -2   -1    0    0    0  501 -0.00000000000E+00 -0.00000000000E+00 -0.13220815447E+02  0.13220815693E+02  0.25500000000E-02 0. -1.
    5000001    1    1    2    0    0  0.29017471323E+02 -0.17195797324E+03  0.22003028545E+04  0.22085454964E+04  0.77000000000E+02 0.  0.
   -5000001    1    1    2    0    0 -0.29017471323E+02  0.17195797324E+03  0.98932293831E+03  0.10075219275E+04  0.77000000000E+02 0.  0.
<mgrwt>
<rscale>  0 0.41155434E+03</rscale>
<asrwt>0</asrwt>
<pdfrwt beam="1">  1        2 0.45754891E+00 0.41155434E+03</pdfrwt>
<pdfrwt beam="2">  1       -2 0.18886904E-02 0.41155434E+03</pdfrwt>
<totfact> 0.17865833E+03</totfact>
</mgrwt>
</event>
<event>
 4    1  0.1305170E-003  0.2071412E+03  0.7818608E-02  0.1143850E+00
          2   -1    0    0  501    0  0.00000000000E+00  0.00000000000E+00  0.14567831803E+04  0.14567831803E+04  0.25500000000E-02 0.  1.
         -2   -1    0    0    0  501 -0.00000000000E+00 -0.00000000000E+00 -0.73633938094E+01  0.73633942509E+01  0.25500000000E-02 0. -1.
    5000001    1    1    2    0    0  0.74635197926E+01  0.57674797381E+02  0.99066988048E+03  0.99535817597E+03  0.77000000000E+02 0.  0.
   -5000001    1    1    2    0    0 -0.74635197926E+01 -0.57674797381E+02  0.45874990599E+03  0.46878839856E+03  0.77000000000E+02 0.  0.
<mgrwt>
<rscale>  0 0.20714119E+03</rscale>
<asrwt>0</asrwt>
<pdfrwt beam="1">  1        2 0.20811208E+00 0.20714119E+03</pdfrwt>
<pdfrwt beam="2">  1       -2 0.10519125E-02 0.20714119E+03</pdfrwt>
<totfact> 0.31947736E+04</totfact>
</mgrwt>
</event>
<event>
 4    1  0.1305170E-003  0.1889418E+03  0.7818608E-02  0.1159419E+00
         -2   -1    0    0    0  501 -0.00000000000E+00  0.00000000000E+00  0.10843258522E+03  0.10843258525E+03  0.25500000000E-02 0. -1.
          2   -1    0    0  501    0  0.00000000000E+00 -0.00000000000E+00 -0.82306948190E+02  0.82306948229E+02  0.25500000000E-02 0.  1.
    5000001    1    1    2    0    0  0.10351187748E+02  0.20502894107E+02  0.63216891456E+02  0.10223938145E+03  0.77000000000E+02 0.  0.
   -5000001    1    1    2    0    0 -0.10351187748E+02 -0.20502894107E+02 -0.37091254422E+02  0.88500152029E+02  0.77000000000E+02 0.  0.
<mgrwt>
<rscale>  0 0.18894184E+03</rscale>
<asrwt>0</asrwt>
<pdfrwt beam="1">  1        2 0.11758135E-01 0.18894184E+03</pdfrwt>
<pdfrwt beam="2">  1       -2 0.15490369E-01 0.18894184E+03</pdfrwt>
<totfact> 0.16286679E+04</totfact>
</mgrwt>
</event>
<event>
 4    1  0.1305170E-003  0.1987604E+03  0.7818608E-02  0.1150789E+00
          2   -1    0    0  501    0  0.00000000000E+00  0.00000000000E+00  0.18016530648E+03  0.18016530650E+03  0.25500000000E-02 0.  1.
         -2   -1    0    0    0  501 -0.00000000000E+00 -0.00000000000E+00 -0.54818658070E+02  0.54818658130E+02  0.25500000000E-02 0. -1.
    5000001    1    1    2    0    0  0.36953674264E+02  0.43077419731E+02  0.30814389416E+02  0.10049758568E+03  0.77000000000E+02 0.  0.
   -5000001    1    1    2    0    0 -0.36953674264E+02 -0.43077419731E+02  0.94532258996E+02  0.13448637895E+03  0.77000000000E+02 0.  0.
<mgrwt>
<rscale>  0 0.19876036E+03</rscale>
<asrwt>0</asrwt>
<pdfrwt beam="1">  1        2 0.25737901E-01 0.19876036E+03</pdfrwt>
<pdfrwt beam="2">  1       -2 0.78312369E-02 0.19876036E+03</pdfrwt>
<totfact> 0.19596411E+04</totfact>
</mgrwt>
</event>
<event>
 4    1  0.1305170E-003  0.3130661E+03  0.7818608E-02  0.1078885E+00
          2   -1    0    0  501    0  0.00000000000E+00  0.00000000000E+00  0.19241410208E+03  0.19241410209E+03  0.25500000000E-02 0.  1.
         -2   -1    0    0    0  501 -0.00000000000E+00 -0.00000000000E+00 -0.12734302860E+03  0.12734302862E+03  0.25500000000E-02 0. -1.
    5000001    1    1    2    0    0 -0.15473304387E+02 -0.12102191204E+03  0.94561268971E+02  0.17250089835E+03  0.77000000000E+02 0.  0.
   -5000001    1    1    2    0    0  0.15473304387E+02  0.12102191204E+03 -0.29490195489E+02  0.14725623237E+03  0.77000000000E+02 0.  0.
<mgrwt>
<rscale>  0 0.31306609E+03</rscale>
<asrwt>0</asrwt>
<pdfrwt beam="1">  1        2 0.27487729E-01 0.31306609E+03</pdfrwt>
<pdfrwt beam="2">  1       -2 0.18191861E-01 0.31306609E+03</pdfrwt>
<totfact> 0.47776660E+03</totfact>
</mgrwt>
</event>
<event>
 4    1  0.1305170E-003  0.2344717E+03  0.7818608E-02  0.1123531E+00
         -2   -1    0    0    0  501 -0.00000000000E+00  0.00000000000E+00  0.75508947338E+02  0.75508947381E+02  0.25500000000E-02 0. -1.
          2   -1    0    0  501    0  0.00000000000E+00 -0.00000000000E+00 -0.18202138236E+03  0.18202138238E+03  0.25500000000E-02 0.  1.
    5000001    1    1    2    0    0 -0.61621004013E+02  0.62665382093E+02 -0.42770364446E+02  0.12442830194E+03  0.77000000000E+02 0.  0.
   -5000001    1    1    2    0    0  0.61621004013E+02 -0.62665382093E+02 -0.63742070576E+02  0.13310202782E+03  0.77000000000E+02 0.  0.
<mgrwt>
<rscale>  0 0.23447169E+03</rscale>
<asrwt>0</asrwt>
<pdfrwt beam="1">  1        2 0.26003055E-01 0.23447169E+03</pdfrwt>
<pdfrwt beam="2">  1       -2 0.10786993E-01 0.23447169E+03</pdfrwt>
<totfact> 0.11838071E+04</totfact>
</mgrwt>
</event>
<event>
 4    1  0.1305170E-003  0.2210588E+03  0.7818608E-02  0.1133096E+00
          2   -1    0    0  501    0  0.00000000000E+00  0.00000000000E+00  0.86784024577E+03  0.86784024577E+03  0.25500000000E-02 0.  1.
         -2   -1    0    0    0  501 -0.00000000000E+00 -0.00000000000E+00 -0.14077181041E+02  0.14077181272E+02  0.25500000000E-02 0. -1.
    5000001    1    1    2    0    0  0.56991932320E+02  0.45700284859E+02  0.30384212550E+03  0.32184722092E+03  0.77000000000E+02 0.  0.
   -5000001    1    1    2    0    0 -0.56991932320E+02 -0.45700284859E+02  0.54992093922E+03  0.56007020612E+03  0.77000000000E+02 0.  0.
<mgrwt>
<rscale>  0 0.22105876E+03</rscale>
<asrwt>0</asrwt>
<pdfrwt beam="1">  1        2 0.12397721E+00 0.22105876E+03</pdfrwt>
<pdfrwt beam="2">  1       -2 0.20110254E-02 0.22105876E+03</pdfrwt>
<totfact> 0.26462134E+04</totfact>
</mgrwt>
</event>
<event>
 4    1  0.1305170E-003  0.2802550E+03  0.7818608E-02  0.1095550E+00
          2   -1    0    0  501    0  0.00000000000E+00  0.00000000000E+00  0.30202768604E+03  0.30202768605E+03  0.25500000000E-02 0.  1.
         -2   -1    0    0    0  501 -0.00000000000E+00 -0.00000000000E+00 -0.65012984667E+02  0.65012984717E+02  0.25500000000E-02 0. -1.
    5000001    1    1    2    0    0  0.32171630255E+02 -0.84615849833E+02  0.21573954117E+03  0.24630754243E+03  0.77000000000E+02 0.  0.
   -5000001    1    1    2    0    0 -0.32171630255E+02  0.84615849833E+02  0.21275160209E+02  0.12073312834E+03  0.77000000000E+02 0.  0.
<mgrwt>
<rscale>  0 0.28025504E+03</rscale>
<asrwt>0</asrwt>
<pdfrwt beam="1">  1        2 0.43146813E-01 0.28025504E+03</pdfrwt>
<pdfrwt beam="2">  1       -2 0.92875690E-02 0.28025504E+03</pdfrwt>
<totfact> 0.87240206E+03</totfact>
</mgrwt>
</event>
<event>
 4    1  0.1305170E-003  0.2027405E+03  0.7818608E-02  0.1147447E+00
          2   -1    0    0  501    0  0.00000000000E+00  0.00000000000E+00  0.51135715377E+03  0.51135715378E+03  0.25500000000E-02 0.  1.
         -2   -1    0    0    0  501 -0.00000000000E+00 -0.00000000000E+00 -0.20095392871E+02  0.20095393033E+02  0.25500000000E-02 0. -1.
    5000001    1    1    2    0    0  0.55313522465E+02 -0.51034877342E+00  0.15158791926E+03  0.17879525578E+03  0.77000000000E+02 0.  0.
   -5000001    1    1    2    0    0 -0.55313522465E+02  0.51034877342E+00  0.33967384164E+03  0.35265729103E+03  0.77000000000E+02 0.  0.
<mgrwt>
<rscale>  0 0.20274045E+03</rscale>
<asrwt>0</asrwt>
<pdfrwt beam="1">  1        2 0.73051020E-01 0.20274045E+03</pdfrwt>
<pdfrwt beam="2">  1       -2 0.28707705E-02 0.20274045E+03</pdfrwt>
<totfact> 0.28924362E+04</totfact>
</mgrwt>
</event>
<event>
 4    1  0.1305170E-003  0.2524854E+03  0.7818608E-02  0.1111744E+00
          2   -1    0    0  501    0  0.00000000000E+00  0.00000000000E+00  0.58299879947E+03  0.58299879948E+03  0.25500000000E-02 0.  1.
         -2   -1    0    0    0  501 -0.00000000000E+00 -0.00000000000E+00 -0.27336618383E+02  0.27336618502E+02  0.25500000000E-02 0. -1.
    5000001    1    1    2    0    0 -0.73840949502E+02 -0.22384078697E+02  0.43175667138E+03  0.44530479010E+03  0.77000000000E+02 0.  0.
   -5000001    1    1    2    0    0  0.73840949502E+02  0.22384078697E+02  0.12390550971E+03  0.16503062788E+03  0.77000000000E+02 0.  0.
<mgrwt>
<rscale>  0 0.25248537E+03</rscale>
<asrwt>0</asrwt>
<pdfrwt beam="1">  1        2 0.83285538E-01 0.25248537E+03</pdfrwt>
<pdfrwt beam="2">  1       -2 0.39052315E-02 0.25248537E+03</pdfrwt>
<totfact> 0.16025153E+04</totfact>
</mgrwt>
</event>
<event>
 4    1  0.1305170E-003  0.2349601E+03  0.7818608E-02  0.1123197E+00
          2   -1    0    0  501    0  0.00000000000E+00  0.00000000000E+00  0.24981448991E+03  0.24981448992E+03  0.25500000000E-02 0.  1.
         -2   -1    0    0    0  501 -0.00000000000E+00 -0.00000000000E+00 -0.55247259156E+02  0.55247259214E+02  0.25500000000E-02 0. -1.
    5000001    1    1    2    0    0  0.45700834697E+01 -0.83681049295E+02  0.59449036332E+02  0.12840012303E+03  0.77000000000E+02 0.  0.
   -5000001    1    1    2    0    0 -0.45700834697E+01  0.83681049295E+02  0.13511819442E+03  0.17666162610E+03  0.77000000000E+02 0.  0.
<mgrwt>
<rscale>  0 0.23496013E+03</rscale>
<asrwt>0</asrwt>
<pdfrwt beam="1">  1        2 0.35687784E-01 0.23496013E+03</pdfrwt>
<pdfrwt beam="2">  1       -2 0.78924656E-02 0.23496013E+03</pdfrwt>
<totfact> 0.13699155E+04</totfact>
</mgrwt>
</event>
<event>
 4    1  0.1305170E-003  0.2239663E+03  0.7818608E-02  0.1130960E+00
          2   -1    0    0  501    0  0.00000000000E+00  0.00000000000E+00  0.19360464124E+03  0.19360464126E+03  0.25500000000E-02 0.  1.
         -2   -1    0    0    0  501 -0.00000000000E+00 -0.00000000000E+00 -0.64772343907E+02  0.64772343957E+02  0.25500000000E-02 0. -1.
    5000001    1    1    2    0    0  0.22874162355E+00  0.79822385163E+02  0.46560356360E+02  0.12028521223E+03  0.77000000000E+02 0.  0.
   -5000001    1    1    2    0    0 -0.22874162355E+00 -0.79822385163E+02  0.82271940976E+02  0.13809177299E+03  0.77000000000E+02 0.  0.
<mgrwt>
<rscale>  0 0.22396630E+03</rscale>
<asrwt>0</asrwt>
<pdfrwt beam="1">  1        2 0.27657806E-01 0.22396630E+03</pdfrwt>
<pdfrwt beam="2">  1       -2 0.92531920E-02 0.22396630E+03</pdfrwt>
<totfact> 0.14060531E+04</totfact>
</mgrwt>
</event>
<event>
 4    1  0.1305170E-003  0.3414275E+03  0.7818608E-02  0.1066190E+00
         -2   -1    0    0    0  501 -0.00000000000E+00  0.00000000000E+00  0.31181242219E+02  0.31181242323E+02  0.25500000000E-02 0. -1.
          2   -1    0    0  501    0  0.00000000000E+00 -0.00000000000E+00 -0.93463806811E+03  0.93463806811E+03  0.25500000000E-02 0.  1.
    5000001    1    1    2    0    0  0.11997190345E+03  0.87841102338E+02 -0.35770177449E+03  0.39495427121E+03  0.77000000000E+02 0.  0.
   -5000001    1    1    2    0    0 -0.11997190345E+03 -0.87841102338E+02 -0.54575505140E+03  0.57086503922E+03  0.77000000000E+02 0.  0.
<mgrwt>
<rscale>  0 0.34142745E+03</rscale>
<asrwt>0</asrwt>
<pdfrwt beam="1">  1        2 0.13351971E+00 0.34142745E+03</pdfrwt>
<pdfrwt beam="2">  1       -2 0.44544638E-02 0.34142745E+03</pdfrwt>
<totfact> 0.74826374E+03</totfact>
</mgrwt>
</event>
<event>
 4    1  0.1305170E-003  0.4817884E+03  0.7818608E-02  0.1018645E+00
         -2   -1    0    0    0  501 -0.00000000000E+00  0.00000000000E+00  0.12705271461E+03  0.12705271463E+03  0.25500000000E-02 0. -1.
          2   -1    0    0  501    0  0.00000000000E+00 -0.00000000000E+00 -0.45673969321E+03  0.45673969322E+03  0.25500000000E-02 0.  1.
    5000001    1    1    2    0    0 -0.21280161456E+03 -0.80549247548E+02 -0.18679901272E+03  0.30429521782E+03  0.77000000000E+02 0.  0.
   -5000001    1    1    2    0    0  0.21280161456E+03  0.80549247548E+02 -0.14288796589E+03  0.27949719003E+03  0.77000000000E+02 0.  0.
<mgrwt>
<rscale>  0 0.48178841E+03</rscale>
<asrwt>0</asrwt>
<pdfrwt beam="1">  1        2 0.65248527E-01 0.48178841E+03</pdfrwt>
<pdfrwt beam="2">  1       -2 0.18150388E-01 0.48178841E+03</pdfrwt>
<totfact> 0.18718321E+03</totfact>
</mgrwt>
</event>
<event>
 4    1  0.1305170E-003  0.1790891E+03  0.7818608E-02  0.1168687E+00
          2   -1    0    0  501    0  0.00000000000E+00  0.00000000000E+00  0.17913183820E+04  0.17913183820E+04  0.25500000000E-02 0.  1.
         -2   -1    0    0    0  501 -0.00000000000E+00 -0.00000000000E+00 -0.44761613998E+01  0.44761621262E+01  0.25500000000E-02 0. -1.
    5000001    1    1    2    0    0 -0.35996773917E+02  0.27280403131E+02  0.96378638759E+03  0.96791176717E+03  0.77000000000E+02 0.  0.
   -5000001    1    1    2    0    0  0.35996773917E+02 -0.27280403131E+02  0.82305583302E+03  0.82788277697E+03  0.77000000000E+02 0.  0.
<mgrwt>
<rscale>  0 0.17908915E+03</rscale>
<asrwt>0</asrwt>
<pdfrwt beam="1">  1        2 0.25590306E+00 0.17908915E+03</pdfrwt>
<pdfrwt beam="2">  1       -2 0.63945061E-03 0.17908915E+03</pdfrwt>
<totfact> 0.44331864E+04</totfact>
</mgrwt>
</event>
<event>
 4    1  0.1305170E-003  0.2312701E+03  0.7818608E-02  0.1125749E+00
         -2   -1    0    0    0  501 -0.00000000000E+00  0.00000000000E+00  0.14930543977E+02  0.14930544195E+02  0.25500000000E-02 0. -1.
          2   -1    0    0  501    0  0.00000000000E+00 -0.00000000000E+00 -0.89557766380E+03  0.89557766380E+03  0.25500000000E-02 0.  1.
    5000001    1    1    2    0    0  0.60328685070E+02  0.61554745907E+02 -0.45501481994E+03  0.46946354848E+03  0.77000000000E+02 0.  0.
   -5000001    1    1    2    0    0 -0.60328685070E+02 -0.61554745907E+02 -0.42563229988E+03  0.44104465952E+03  0.77000000000E+02 0.  0.
<mgrwt>
<rscale>  0 0.23127007E+03</rscale>
<asrwt>0</asrwt>
<pdfrwt beam="1">  1        2 0.12793963E+00 0.23127007E+03</pdfrwt>
<pdfrwt beam="2">  1       -2 0.21329354E-02 0.23127007E+03</pdfrwt>
<totfact> 0.23382009E+04</totfact>
</mgrwt>
</event>
<event>
 4    1  0.1305170E-003  0.4385232E+03  0.7818608E-02  0.1031201E+00
          2   -1    0    0  501    0  0.00000000000E+00  0.00000000000E+00  0.19648740057E+04  0.19648740057E+04  0.25500000000E-02 0.  1.
         -2   -1    0    0    0  501 -0.00000000000E+00 -0.00000000000E+00 -0.24467543945E+02  0.24467544077E+02  0.25500000000E-02 0. -1.
    5000001    1    1    2    0    0 -0.94371544823E+02 -0.17387811321E+03  0.12189671921E+04  0.12373154821E+04  0.77000000000E+02 0.  0.
   -5000001    1    1    2    0    0  0.94371544823E+02  0.17387811321E+03  0.72143926959E+03  0.75202606766E+03  0.77000000000E+02 0.  0.
<mgrwt>
<rscale>  0 0.43852316E+03</rscale>
<asrwt>0</asrwt>
<pdfrwt beam="1">  1        2 0.28069632E+00 0.43852316E+03</pdfrwt>
<pdfrwt beam="2">  1       -2 0.34953631E-02 0.43852316E+03</pdfrwt>
<totfact> 0.30821803E+03</totfact>
</mgrwt>
</event>
<event>
 4    1  0.1305170E-003  0.1856143E+03  0.7818608E-02  0.1162478E+00
          2   -1    0    0  501    0  0.00000000000E+00  0.00000000000E+00  0.61549116070E+03  0.61549116070E+03  0.25500000000E-02 0.  1.
         -2   -1    0    0    0  501 -0.00000000000E+00 -0.00000000000E+00 -0.13993969357E+02  0.13993969589E+02  0.25500000000E-02 0. -1.
    5000001    1    1    2    0    0 -0.22265804273E+02  0.39694001486E+02  0.21679717043E+03  0.23452375764E+03  0.77000000000E+02 0.  0.
   -5000001    1    1    2    0    0  0.22265804273E+02 -0.39694001486E+02  0.38470002092E+03  0.39496137265E+03  0.77000000000E+02 0.  0.
<mgrwt>
<rscale>  0 0.18561427E+03</rscale>
<asrwt>0</asrwt>
<pdfrwt beam="1">  1        2 0.87927316E-01 0.18561427E+03</pdfrwt>
<pdfrwt beam="2">  1       -2 0.19991383E-02 0.18561427E+03</pdfrwt>
<totfact> 0.39719286E+04</totfact>
</mgrwt>
</event>
<event>
 4    1  0.1305170E-003  0.2831028E+03  0.7818608E-02  0.1094006E+00
         -2   -1    0    0    0  501 -0.00000000000E+00  0.00000000000E+00  0.62083982810E+01  0.62083988047E+01  0.25500000000E-02 0. -1.
          2   -1    0    0  501    0  0.00000000000E+00 -0.00000000000E+00 -0.32273696191E+04  0.32273696191E+04  0.25500000000E-02 0.  1.
    5000001    1    1    2    0    0 -0.79415600572E+02 -0.33065462749E+02 -0.67512347397E+03  0.68492398669E+03  0.77000000000E+02 0.  0.
   -5000001    1    1    2    0    0  0.79415600572E+02  0.33065462749E+02 -0.25460377469E+04  0.25486540312E+04  0.77000000000E+02 0.  0.
<mgrwt>
<rscale>  0 0.28310279E+03</rscale>
<asrwt>0</asrwt>
<pdfrwt beam="1">  1        2 0.46105173E+00 0.28310279E+03</pdfrwt>
<pdfrwt beam="2">  1       -2 0.88691615E-03 0.28310279E+03</pdfrwt>
<totfact> 0.53091028E+03</totfact>
</mgrwt>
</event>
<event>
 4    1  0.1305170E-003  0.2136023E+03  0.7818608E-02  0.1138745E+00
          2   -1    0    0  501    0  0.00000000000E+00  0.00000000000E+00  0.50781036408E+03  0.50781036409E+03  0.25500000000E-02 0.  1.
         -2   -1    0    0    0  501 -0.00000000000E+00 -0.00000000000E+00 -0.22462106443E+02  0.22462106587E+02  0.25500000000E-02 0. -1.
    5000001    1    1    2    0    0 -0.65865145194E+02  0.40111426902E+01  0.15947505461E+03  0.18898571284E+03  0.77000000000E+02 0.  0.
   -5000001    1    1    2    0    0  0.65865145194E+02 -0.40111426902E+01  0.32587320303E+03  0.34128675783E+03  0.77000000000E+02 0.  0.
<mgrwt>
<rscale>  0 0.21360235E+03</rscale>
<asrwt>0</asrwt>
<pdfrwt beam="1">  1        2 0.72544342E-01 0.21360235E+03</pdfrwt>
<pdfrwt beam="2">  1       -2 0.32088722E-02 0.21360235E+03</pdfrwt>
<totfact> 0.24809750E+04</totfact>
</mgrwt>
</event>
<event>
 4    1  0.1305170E-003  0.2453135E+03  0.7818608E-02  0.1116303E+00
         -2   -1    0    0    0  501 -0.00000000000E+00  0.00000000000E+00  0.17083670331E+04  0.17083670331E+04  0.25500000000E-02 0. -1.
          2   -1    0    0  501    0  0.00000000000E+00 -0.00000000000E+00 -0.88064638963E+01  0.88064642655E+01  0.25500000000E-02 0.  1.
    5000001    1    1    2    0    0  0.75630240065E+02  0.32608914443E+02  0.11878405858E+04  0.11931795890E+04  0.77000000000E+02 0.  0.
   -5000001    1    1    2    0    0 -0.75630240065E+02 -0.32608914443E+02  0.51171998347E+03  0.52399390835E+03  0.77000000000E+02 0.  0.
<mgrwt>
<rscale>  0 0.24531346E+03</rscale>
<asrwt>0</asrwt>
<pdfrwt beam="1">  1        2 0.12580650E-02 0.24531346E+03</pdfrwt>
<pdfrwt beam="2">  1       -2 0.24405268E+00 0.24531346E+03</pdfrwt>
<totfact> 0.81101341E+02</totfact>
</mgrwt>
</event>
<event>
 4    1  0.1305170E-003  0.1753027E+03  0.7818608E-02  0.1172428E+00
         -2   -1    0    0    0  501 -0.00000000000E+00  0.00000000000E+00  0.73795209594E+01  0.73795214000E+01  0.25500000000E-02 0. -1.
          2   -1    0    0  501    0  0.00000000000E+00 -0.00000000000E+00 -0.10410921199E+04  0.10410921199E+04  0.25500000000E-02 0.  1.
    5000001    1    1    2    0    0  0.19174963640E+02  0.32352040583E+02 -0.62704614969E+03  0.63287455913E+03  0.77000000000E+02 0.  0.
   -5000001    1    1    2    0    0 -0.19174963640E+02 -0.32352040583E+02 -0.40666644929E+03  0.41559708221E+03  0.77000000000E+02 0.  0.
<mgrwt>
<rscale>  0 0.17530273E+03</rscale>
<asrwt>0</asrwt>
<pdfrwt beam="1">  1        2 0.14872735E+00 0.17530273E+03</pdfrwt>
<pdfrwt beam="2">  1       -2 0.10542180E-02 0.17530273E+03</pdfrwt>
<totfact> 0.52275785E+04</totfact>
</mgrwt>
</event>
<event>
 4    1  0.1305170E-003  0.1903867E+03  0.7818608E-02  0.1158113E+00
          2   -1    0    0  501    0  0.00000000000E+00  0.00000000000E+00  0.11337335931E+04  0.11337335932E+04  0.25500000000E-02 0.  1.
         -2   -1    0    0    0  501 -0.00000000000E+00 -0.00000000000E+00 -0.79928566390E+01  0.79928570458E+01  0.25500000000E-02 0. -1.
    5000001    1    1    2    0    0  0.47580908792E+02  0.21479054743E+02  0.68392389067E+03  0.69022183456E+03  0.77000000000E+02 0.  0.
   -5000001    1    1    2    0    0 -0.47580908792E+02 -0.21479054743E+02  0.44181684584E+03  0.45150461564E+03  0.77000000000E+02 0.  0.
<mgrwt>
<rscale>  0 0.19038666E+03</rscale>
<asrwt>0</asrwt>
<pdfrwt beam="1">  1        2 0.16196203E+00 0.19038666E+03</pdfrwt>
<pdfrwt beam="2">  1       -2 0.11418361E-02 0.19038666E+03</pdfrwt>
<totfact> 0.41636703E+04</totfact>
</mgrwt>
</event>
<event>
 4    1  0.1305170E-003  0.4738279E+03  0.7818608E-02  0.1020845E+00
         -2   -1    0    0    0  501 -0.00000000000E+00  0.00000000000E+00  0.30057096683E+03  0.30057096684E+03  0.25500000000E-02 0. -1.
          2   -1    0    0  501    0  0.00000000000E+00 -0.00000000000E+00 -0.18673863540E+03  0.18673863541E+03  0.25500000000E-02 0.  1.
    5000001    1    1    2    0    0 -0.19326361266E+02 -0.20926207996E+03  0.13681236032E+03  0.26231802890E+03  0.77000000000E+02 0.  0.
   -5000001    1    1    2    0    0  0.19326361266E+02  0.20926207996E+03 -0.22980028891E+02  0.22499157335E+03  0.77000000000E+02 0.  0.
<mgrwt>
<rscale>  0 0.47382787E+03</rscale>
<asrwt>0</asrwt>
<pdfrwt beam="1">  1        2 0.26676948E-01 0.47382787E+03</pdfrwt>
<pdfrwt beam="2">  1       -2 0.42938710E-01 0.47382787E+03</pdfrwt>
<totfact> 0.10467644E+03</totfact>
</mgrwt>
</event>
<event>
 4    1  0.1305170E-003  0.1657606E+03  0.7818608E-02  0.1182342E+00
          2   -1    0    0  501    0  0.00000000000E+00  0.00000000000E+00  0.61747511963E+03  0.61747511963E+03  0.25500000000E-02 0.  1.
         -2   -1    0    0    0  501 -0.00000000000E+00 -0.00000000000E+00 -0.11124572654E+02  0.11124572946E+02  0.25500000000E-02 0. -1.
    5000001    1    1    2    0    0 -0.20476967501E+02 -0.21688762729E+02  0.33010754431E+03  0.34027885541E+03  0.77000000000E+02 0.  0.
   -5000001    1    1    2    0    0  0.20476967501E+02  0.21688762729E+02  0.27624300267E+03  0.28832083717E+03  0.77000000000E+02 0.  0.
<mgrwt>
<rscale>  0 0.16576063E+03</rscale>
<asrwt>0</asrwt>
<pdfrwt beam="1">  1        2 0.88210767E-01 0.16576063E+03</pdfrwt>
<pdfrwt beam="2">  1       -2 0.15892240E-02 0.16576063E+03</pdfrwt>
<totfact> 0.54675451E+04</totfact>
</mgrwt>
</event>
<event>
 4    1  0.1305170E-003  0.1877462E+03  0.7818608E-02  0.1160510E+00
          2   -1    0    0  501    0  0.00000000000E+00  0.00000000000E+00  0.43521840515E+03  0.43521840516E+03  0.25500000000E-02 0.  1.
         -2   -1    0    0    0  501 -0.00000000000E+00 -0.00000000000E+00 -0.20247660494E+02  0.20247660655E+02  0.25500000000E-02 0. -1.
    5000001    1    1    2    0    0  0.14063996098E+02  0.46517433232E+02  0.26288498221E+03  0.27820708375E+03  0.77000000000E+02 0.  0.
   -5000001    1    1    2    0    0 -0.14063996098E+02 -0.46517433232E+02  0.15208576245E+03  0.17725898206E+03  0.77000000000E+02 0.  0.
<mgrwt>
<rscale>  0 0.18774615E+03</rscale>
<asrwt>0</asrwt>
<pdfrwt beam="1">  1        2 0.62174065E-01 0.18774615E+03</pdfrwt>
<pdfrwt beam="2">  1       -2 0.28925226E-02 0.18774615E+03</pdfrwt>
<totfact> 0.33881491E+04</totfact>
</mgrwt>
</event>
<event>
 4    1  0.1305170E-003  0.1778465E+03  0.7818608E-02  0.1169904E+00
         -2   -1    0    0    0  501 -0.00000000000E+00  0.00000000000E+00  0.36207135790E+02  0.36207135880E+02  0.25500000000E-02 0. -1.
          2   -1    0    0  501    0  0.00000000000E+00 -0.00000000000E+00 -0.21839187102E+03  0.21839187104E+03  0.25500000000E-02 0.  1.
    5000001    1    1    2    0    0  0.18179432327E+02  0.22310969951E+02 -0.13964067509E+03  0.16203946828E+03  0.77000000000E+02 0.  0.
   -5000001    1    1    2    0    0 -0.18179432327E+02 -0.22310969951E+02 -0.42544060143E+02  0.92559538640E+02  0.77000000000E+02 0.  0.
<mgrwt>
<rscale>  0 0.17784650E+03</rscale>
<asrwt>0</asrwt>
<pdfrwt beam="1">  1        2 0.31198838E-01 0.17784650E+03</pdfrwt>
<pdfrwt beam="2">  1       -2 0.51724481E-02 0.17784650E+03</pdfrwt>
<totfact> 0.29665618E+04</totfact>
</mgrwt>
</event>
<event>
 4    1  0.1305170E-003  0.2485740E+03  0.7818608E-02  0.1114209E+00
          2   -1    0    0  501    0  0.00000000000E+00  0.00000000000E+00  0.15199522066E+04  0.15199522066E+04  0.25500000000E-02 0.  1.
         -2   -1    0    0    0  501 -0.00000000000E+00 -0.00000000000E+00 -0.10162987101E+02  0.10162987420E+02  0.25500000000E-02 0. -1.
    5000001    1    1    2    0    0  0.84222564370E+02  0.22507921906E+02  0.48529682068E+03  0.49904113163E+03  0.77000000000E+02 0.  0.
   -5000001    1    1    2    0    0 -0.84222564370E+02 -0.22507921906E+02  0.10244923988E+04  0.10310740624E+04  0.77000000000E+02 0.  0.
<mgrwt>
<rscale>  0 0.24857397E+03</rscale>
<asrwt>0</asrwt>
<pdfrwt beam="1">  1        2 0.21713621E+00 0.24857397E+03</pdfrwt>
<pdfrwt beam="2">  1       -2 0.14518541E-02 0.24857397E+03</pdfrwt>
<totfact> 0.18772983E+04</totfact>
</mgrwt>
</event>
<event>
 4    1  0.1305170E-003  0.1956774E+03  0.7818608E-02  0.1153438E+00
          2   -1    0    0  501    0  0.00000000000E+00  0.00000000000E+00  0.32221877204E+03  0.32221877205E+03  0.25500000000E-02 0.  1.
         -2   -1    0    0    0  501 -0.00000000000E+00 -0.00000000000E+00 -0.29707796568E+02  0.29707796677E+02  0.25500000000E-02 0. -1.
    5000001    1    1    2    0    0  0.42579968872E+02  0.39260674292E+02  0.11568327529E+03  0.15055256383E+03  0.77000000000E+02 0.  0.
   -5000001    1    1    2    0    0 -0.42579968872E+02 -0.39260674292E+02  0.17682770018E+03  0.20137400489E+03  0.77000000000E+02 0.  0.
<mgrwt>
<rscale>  0 0.19567739E+03</rscale>
<asrwt>0</asrwt>
<pdfrwt beam="1">  1        2 0.46031252E-01 0.19567739E+03</pdfrwt>
<pdfrwt beam="2">  1       -2 0.42439710E-02 0.19567739E+03</pdfrwt>
<totfact> 0.26528509E+04</totfact>
</mgrwt>
</event>
<event>
 4    1  0.1305170E-003  0.2456009E+03  0.7818608E-02  0.1116117E+00
          2   -1    0    0  501    0  0.00000000000E+00  0.00000000000E+00  0.13646599168E+04  0.13646599168E+04  0.25500000000E-02 0.  1.
         -2   -1    0    0    0  501 -0.00000000000E+00 -0.00000000000E+00 -0.11050338604E+02  0.11050338898E+02  0.25500000000E-02 0. -1.
    5000001    1    1    2    0    0  0.90798014076E+02 -0.21144314982E+02  0.79688837371E+03  0.80600957908E+03  0.77000000000E+02 0.  0.
   -5000001    1    1    2    0    0 -0.90798014076E+02  0.21144314982E+02  0.55672120446E+03  0.56970067660E+03  0.77000000000E+02 0.  0.
<mgrwt>
<rscale>  0 0.24560093E+03</rscale>
<asrwt>0</asrwt>
<pdfrwt beam="1">  1        2 0.19495153E+00 0.24560093E+03</pdfrwt>
<pdfrwt beam="2">  1       -2 0.15786189E-02 0.24560093E+03</pdfrwt>
<totfact> 0.19917425E+04</totfact>
</mgrwt>
</event>
