<event>
 4    1  0.8362047E-005  0.7692054E+03  0.7818608E-02  0.9605693E-01
          2   -1    0    0  501    0  0.00000000000E+00  0.00000000000E+00  0.26071471551E+04  0.26071471551E+04  0.25500000000E-02 0. -1.
         -2   -1    0    0    0  501 -0.00000000000E+00 -0.00000000000E+00 -0.56736054694E+02  0.56736054751E+02  0.25500000000E-02 0.  1.
    5000001    1    1    2    0    0  0.21219146169E+03  0.27200176834E+03  0.14173246036E+04  0.14680068836E+04  0.16500000000E+03 0.  0.
   -5000001    1    1    2    0    0 -0.21219146169E+03 -0.27200176834E+03  0.11330864968E+04  0.11958763263E+04  0.16500000000E+03 0.  0.
<mgrwt>
<rscale>  0 0.76920542E+03</rscale>
<asrwt>0</asrwt>
<pdfrwt beam="1">  1        2 0.40109933E+00 0.76920542E+03</pdfrwt>
<pdfrwt beam="2">  1       -2 0.87286288E-02 0.76920542E+03</pdfrwt>
<totfact> 0.26800808E+02</totfact>
</mgrwt>
</event>
<event>
 4    1  0.8362047E-005  0.5645121E+03  0.7818608E-02  0.9981897E-01
         -2   -1    0    0    0  501 -0.00000000000E+00  0.00000000000E+00  0.50739884309E+03  0.50739884309E+03  0.25500000000E-02 0. -1.
          2   -1    0    0  501    0  0.00000000000E+00 -0.00000000000E+00 -0.15701350411E+03  0.15701350413E+03  0.25500000000E-02 0.  1.
    5000001    1    1    2    0    0  0.20628131478E+03  0.91995099080E+02  0.13071028578E+03  0.30874788726E+03  0.16500000000E+03 0.  0.
   -5000001    1    1    2    0    0 -0.20628131478E+03 -0.91995099080E+02  0.21967505320E+03  0.35566445996E+03  0.16500000000E+03 0.  0.
<mgrwt>
<rscale>  0 0.56451207E+03</rscale>
<asrwt>0</asrwt>
<pdfrwt beam="1">  1        2 0.24155923E-01 0.56451207E+03</pdfrwt>
<pdfrwt beam="2">  1       -2 0.78061361E-01 0.56451207E+03</pdfrwt>
<totfact> 0.33657621E+02</totfact>
</mgrwt>
</event>
<event>
 4    1  0.8362047E-005  0.4003307E+03  0.7818608E-02  0.1043665E+00
          2   -1    0    0  501    0  0.00000000000E+00  0.00000000000E+00  0.86825346160E+03  0.86825346160E+03  0.25500000000E-02 0.  1.
         -2   -1    0    0    0  501 -0.00000000000E+00 -0.00000000000E+00 -0.46145700882E+02  0.46145700952E+02  0.25500000000E-02 0. -1.
    5000001    1    1    2    0    0  0.16178797898E+01 -0.97383928840E+02  0.27875448579E+03  0.33825332294E+03  0.16500000000E+03 0.  0.
   -5000001    1    1    2    0    0 -0.16178797898E+01  0.97383928840E+02  0.54335327493E+03  0.57614583961E+03  0.16500000000E+03 0.  0.
<mgrwt>
<rscale>  0 0.40033069E+03</rscale>
<asrwt>0</asrwt>
<pdfrwt beam="1">  1        2 0.13357746E+00 0.40033069E+03</pdfrwt>
<pdfrwt beam="2">  1       -2 0.70993384E-02 0.40033069E+03</pdfrwt>
<totfact> 0.36516105E+03</totfact>
</mgrwt>
</event>
<event>
 4    1  0.8362047E-005  0.4682881E+03  0.7818608E-02  0.1022404E+00
         -2   -1    0    0    0  501 -0.00000000000E+00  0.00000000000E+00  0.98527336730E+02  0.98527336763E+02  0.25500000000E-02 0. -1.
          2   -1    0    0  501    0  0.00000000000E+00 -0.00000000000E+00 -0.55642868483E+03  0.55642868484E+03  0.25500000000E-02 0.  1.
    5000001    1    1    2    0    0  0.22316693652E+02 -0.15955174622E+03 -0.17224812085E+03  0.28783538642E+03  0.16500000000E+03 0.  0.
   -5000001    1    1    2    0    0 -0.22316693652E+02  0.15955174622E+03 -0.28565322726E+03  0.36712063519E+03  0.16500000000E+03 0.  0.
<mgrwt>
<rscale>  0 0.46828810E+03</rscale>
<asrwt>0</asrwt>
<pdfrwt beam="1">  1        2 0.85604411E-01 0.46828810E+03</pdfrwt>
<pdfrwt beam="2">  1       -2 0.15158052E-01 0.46828810E+03</pdfrwt>
<totfact> 0.18631204E+03</totfact>
</mgrwt>
</event>
<event>
 4    1  0.8362047E-005  0.4985961E+03  0.7818608E-02  0.1014146E+00
         -2   -1    0    0    0  501 -0.00000000000E+00  0.00000000000E+00  0.66132923177E+02  0.66132923226E+02  0.25500000000E-02 0. -1.
          2   -1    0    0  501    0  0.00000000000E+00 -0.00000000000E+00 -0.93976669433E+03  0.93976669433E+03  0.25500000000E-02 0.  1.
    5000001    1    1    2    0    0  0.12265603572E+03 -0.13894120586E+03 -0.48520897832E+03  0.54497882017E+03  0.16500000000E+03 0.  0.
   -5000001    1    1    2    0    0 -0.12265603572E+03  0.13894120586E+03 -0.38842479283E+03  0.46092079739E+03  0.16500000000E+03 0.  0.
<mgrwt>
<rscale>  0 0.49859610E+03</rscale>
<asrwt>0</asrwt>
<pdfrwt beam="1">  1        2 0.14457948E+00 0.49859610E+03</pdfrwt>
<pdfrwt beam="2">  1       -2 0.10174297E-01 0.49859610E+03</pdfrwt>
<totfact> 0.18493934E+03</totfact>
</mgrwt>
</event>
<event>
 4    1  0.8362047E-005  0.3968798E+03  0.7818608E-02  0.1044865E+00
         -2   -1    0    0    0  501 -0.00000000000E+00  0.00000000000E+00  0.27304529390E+03  0.27304529391E+03  0.25500000000E-02 0. -1.
          2   -1    0    0  501    0  0.00000000000E+00 -0.00000000000E+00 -0.14421924811E+03  0.14421924814E+03  0.25500000000E-02 0.  1.
    5000001    1    1    2    0    0  0.50658551390E+02 -0.74255200514E+02  0.13151321593E+03  0.22934875102E+03  0.16500000000E+03 0.  0.
   -5000001    1    1    2    0    0 -0.50658551390E+02  0.74255200514E+02 -0.26871701457E+01  0.18791579102E+03  0.16500000000E+03 0.  0.
<mgrwt>
<rscale>  0 0.39687977E+03</rscale>
<asrwt>0</asrwt>
<pdfrwt beam="1">  1        2 0.22187577E-01 0.39687977E+03</pdfrwt>
<pdfrwt beam="2">  1       -2 0.42006968E-01 0.39687977E+03</pdfrwt>
<totfact> 0.13448112E+03</totfact>
</mgrwt>
</event>
<event>
 4    1  0.8362047E-005  0.6071968E+03  0.7818608E-02  0.9890587E-01
          2   -1    0    0  501    0  0.00000000000E+00  0.00000000000E+00  0.19725832345E+03  0.19725832347E+03  0.25500000000E-02 0.  1.
         -2   -1    0    0    0  501 -0.00000000000E+00 -0.00000000000E+00 -0.46726533360E+03  0.46726533361E+03  0.25500000000E-02 0. -1.
    5000001    1    1    2    0    0 -0.17873025343E+03  0.24573964345E+02  0.61986448019E+02  0.25222153547E+03  0.16500000000E+03 0.  0.
   -5000001    1    1    2    0    0  0.17873025343E+03 -0.24573964345E+02 -0.33199345817E+03  0.41230212161E+03  0.16500000000E+03 0.  0.
<mgrwt>
<rscale>  0 0.60719676E+03</rscale>
<asrwt>0</asrwt>
<pdfrwt beam="1">  1        2 0.30347434E-01 0.60719676E+03</pdfrwt>
<pdfrwt beam="2">  1       -2 0.71886974E-01 0.60719676E+03</pdfrwt>
<totfact> 0.31129215E+02</totfact>
</mgrwt>
</event>
<event>
 4    1  0.8362047E-005  0.3973623E+03  0.7818608E-02  0.1044697E+00
          2   -1    0    0  501    0  0.00000000000E+00  0.00000000000E+00  0.23184181526E+04  0.23184181526E+04  0.25500000000E-02 0.  1.
         -2   -1    0    0    0  501 -0.00000000000E+00 -0.00000000000E+00 -0.17026349869E+02  0.17026350059E+02  0.25500000000E-02 0. -1.
    5000001    1    1    2    0    0 -0.68766834286E+01 -0.10698696477E+03  0.98912712352E+03  0.10085092790E+04  0.16500000000E+03 0.  0.
   -5000001    1    1    2    0    0  0.68766834286E+01  0.10698696477E+03  0.13122646792E+04  0.13269352236E+04  0.16500000000E+03 0.  0.
<mgrwt>
<rscale>  0 0.39736230E+03</rscale>
<asrwt>0</asrwt>
<pdfrwt beam="1">  1        2 0.35667976E+00 0.39736230E+03</pdfrwt>
<pdfrwt beam="2">  1       -2 0.26194381E-02 0.39736230E+03</pdfrwt>
<totfact> 0.25879844E+03</totfact>
</mgrwt>
</event>
<event>
 4    1  0.8362047E-005  0.5186565E+03  0.7818608E-02  0.1009021E+00
          2   -1    0    0  501    0  0.00000000000E+00  0.00000000000E+00  0.13782732214E+04  0.13782732214E+04  0.25500000000E-02 0. -1.
         -2   -1    0    0    0  501 -0.00000000000E+00 -0.00000000000E+00 -0.48793765505E+02  0.48793765571E+02  0.25500000000E-02 0.  1.
    5000001    1    1    2    0    0  0.17247438040E+03  0.10029155830E+03  0.62389808730E+03  0.67548473846E+03  0.16500000000E+03 0.  0.
   -5000001    1    1    2    0    0 -0.17247438040E+03 -0.10029155830E+03  0.70558136856E+03  0.75158224847E+03  0.16500000000E+03 0.  0.
<mgrwt>
<rscale>  0 0.51865650E+03</rscale>
<asrwt>0</asrwt>
<pdfrwt beam="1">  1        2 0.21204199E+00 0.51865650E+03</pdfrwt>
<pdfrwt beam="2">  1       -2 0.75067347E-02 0.51865650E+03</pdfrwt>
<totfact> 0.16482600E+03</totfact>
</mgrwt>
</event>
<event>
 4    1  0.8362047E-005  0.4561920E+03  0.7818608E-02  0.1025891E+00
         -2   -1    0    0    0  501 -0.00000000000E+00  0.00000000000E+00  0.26655280949E+02  0.26655281071E+02  0.25500000000E-02 0. -1.
          2   -1    0    0  501    0  0.00000000000E+00 -0.00000000000E+00 -0.19518753413E+04  0.19518753413E+04  0.25500000000E-02 0.  1.
    5000001    1    1    2    0    0 -0.85246438705E+02  0.13209205076E+03 -0.10031842425E+04  0.10287462708E+04  0.16500000000E+03 0.  0.
   -5000001    1    1    2    0    0  0.85246438705E+02 -0.13209205076E+03 -0.92203581784E+03  0.94978435161E+03  0.16500000000E+03 0.  0.
<mgrwt>
<rscale>  0 0.45619200E+03</rscale>
<asrwt>0</asrwt>
<pdfrwt beam="1">  1        2 0.30028840E+00 0.45619200E+03</pdfrwt>
<pdfrwt beam="2">  1       -2 0.41008140E-02 0.45619200E+03</pdfrwt>
<totfact> 0.20641782E+03</totfact>
</mgrwt>
</event>
<event>
 4    1  0.8362047E-005  0.3753638E+03  0.7818608E-02  0.1052661E+00
         -2   -1    0    0    0  501 -0.00000000000E+00  0.00000000000E+00  0.12690424137E+02  0.12690424393E+02  0.25500000000E-02 0. -1.
          2   -1    0    0  501    0  0.00000000000E+00 -0.00000000000E+00 -0.27756747995E+04  0.27756747995E+04  0.25500000000E-02 0.  1.
    5000001    1    1    2    0    0  0.69168276297E+02  0.23031663150E+00 -0.96028047275E+03  0.97680493951E+03  0.16500000000E+03 0.  0.
   -5000001    1    1    2    0    0 -0.69168276297E+02 -0.23031663150E+00 -0.18027039026E+04  0.18115602844E+04  0.16500000000E+03 0.  0.
<mgrwt>
<rscale>  0 0.37536377E+03</rscale>
<asrwt>0</asrwt>
<pdfrwt beam="1">  1        2 0.42702641E+00 0.37536377E+03</pdfrwt>
<pdfrwt beam="2">  1       -2 0.19523752E-02 0.37536377E+03</pdfrwt>
<totfact> 0.22310229E+03</totfact>
</mgrwt>
</event>
<event>
 4    1  0.8362047E-005  0.5892485E+03  0.7818608E-02  0.9927966E-01
         -2   -1    0    0    0  501 -0.00000000000E+00  0.00000000000E+00  0.65689729256E+02  0.65689729305E+02  0.25500000000E-02 0. -1.
          2   -1    0    0  501    0  0.00000000000E+00 -0.00000000000E+00 -0.13214158808E+04  0.13214158808E+04  0.25500000000E-02 0.  1.
    5000001    1    1    2    0    0 -0.15434884848E+03 -0.18412000701E+03 -0.72924224929E+03  0.78532986838E+03  0.16500000000E+03 0.  0.
   -5000001    1    1    2    0    0  0.15434884848E+03  0.18412000701E+03 -0.52648390229E+03  0.60177574177E+03  0.16500000000E+03 0.  0.
<mgrwt>
<rscale>  0 0.58924851E+03</rscale>
<asrwt>0</asrwt>
<pdfrwt beam="1">  1        2 0.20329473E+00 0.58924851E+03</pdfrwt>
<pdfrwt beam="2">  1       -2 0.10106113E-01 0.58924851E+03</pdfrwt>
<totfact> 0.10995604E+03</totfact>
</mgrwt>
</event>
<event>
 4    1  0.8362047E-005  0.5154319E+03  0.7818608E-02  0.1009828E+00
         -2   -1    0    0    0  501 -0.00000000000E+00  0.00000000000E+00  0.34558696851E+02  0.34558696945E+02  0.25500000000E-02 0. -1.
          2   -1    0    0  501    0  0.00000000000E+00 -0.00000000000E+00 -0.19218752447E+04  0.19218752447E+04  0.25500000000E-02 0.  1.
    5000001    1    1    2    0    0 -0.14895415625E+02  0.11912482329E+03 -0.15411663156E+04  0.15546160971E+04  0.16500000000E+03 0.  0.
   -5000001    1    1    2    0    0  0.14895415625E+02 -0.11912482329E+03 -0.34615023222E+03  0.40181784455E+03  0.16500000000E+03 0.  0.
<mgrwt>
<rscale>  0 0.51543187E+03</rscale>
<asrwt>0</asrwt>
<pdfrwt beam="1">  1        2 0.29567303E+00 0.51543187E+03</pdfrwt>
<pdfrwt beam="2">  1       -2 0.53167241E-02 0.51543187E+03</pdfrwt>
<totfact> 0.14318918E+03</totfact>
</mgrwt>
</event>
<event>
 4    1  0.8362047E-005  0.5661912E+03  0.7818608E-02  0.9978143E-01
          2   -1    0    0  501    0  0.00000000000E+00  0.00000000000E+00  0.32245734292E+03  0.32245734293E+03  0.25500000000E-02 0.  1.
         -2   -1    0    0    0  501 -0.00000000000E+00 -0.00000000000E+00 -0.24853863733E+03  0.24853863735E+03  0.25500000000E-02 0. -1.
    5000001    1    1    2    0    0  0.22451163068E+03  0.50109692252E+02  0.38256756303E+02  0.28566594647E+03  0.16500000000E+03 0.  0.
   -5000001    1    1    2    0    0 -0.22451163068E+03 -0.50109692252E+02  0.35661949282E+02  0.28533003381E+03  0.16500000000E+03 0.  0.
<mgrwt>
<rscale>  0 0.56619116E+03</rscale>
<asrwt>0</asrwt>
<pdfrwt beam="1">  1        2 0.49608822E-01 0.56619116E+03</pdfrwt>
<pdfrwt beam="2">  1       -2 0.38236713E-01 0.56619116E+03</pdfrwt>
<totfact> 0.65826893E+02</totfact>
</mgrwt>
</event>
<event>
 4    1  0.8362047E-005  0.3822673E+03  0.7818608E-02  0.1050099E+00
         -2   -1    0    0    0  501 -0.00000000000E+00  0.00000000000E+00  0.23982485689E+03  0.23982485690E+03  0.25500000000E-02 0. -1.
          2   -1    0    0  501    0  0.00000000000E+00 -0.00000000000E+00 -0.15232810023E+03  0.15232810025E+03  0.25500000000E-02 0.  1.
    5000001    1    1    2    0    0 -0.65244045996E+02  0.57715984180E+02  0.86283196139E+02  0.20556680253E+03  0.16500000000E+03 0.  0.
   -5000001    1    1    2    0    0  0.65244045996E+02 -0.57715984180E+02  0.12135605151E+01  0.18658615462E+03  0.16500000000E+03 0.  0.
<mgrwt>
<rscale>  0 0.38226726E+03</rscale>
<asrwt>0</asrwt>
<pdfrwt beam="1">  1        2 0.23435093E-01 0.38226726E+03</pdfrwt>
<pdfrwt beam="2">  1       -2 0.36896131E-01 0.38226726E+03</pdfrwt>
<totfact> 0.16199889E+03</totfact>
</mgrwt>
</event>
<event>
 4    1  0.8362047E-005  0.3702670E+03  0.7818608E-02  0.1054591E+00
          2   -1    0    0  501    0  0.00000000000E+00  0.00000000000E+00  0.76465009494E+02  0.76465009536E+02  0.25500000000E-02 0.  1.
         -2   -1    0    0    0  501 -0.00000000000E+00 -0.00000000000E+00 -0.44823650262E+03  0.44823650262E+03  0.25500000000E-02 0. -1.
    5000001    1    1    2    0    0  0.20618635626E+02  0.76624548494E+02 -0.22477082365E+03  0.28990235034E+03  0.16500000000E+03 0.  0.
   -5000001    1    1    2    0    0 -0.20618635626E+02 -0.76624548494E+02 -0.14700066947E+03  0.23479916182E+03  0.16500000000E+03 0.  0.
<mgrwt>
<rscale>  0 0.37026698E+03</rscale>
<asrwt>0</asrwt>
<pdfrwt beam="1">  1        2 0.11763848E-01 0.37026698E+03</pdfrwt>
<pdfrwt beam="2">  1       -2 0.68959461E-01 0.37026698E+03</pdfrwt>
<totfact> 0.10378323E+03</totfact>
</mgrwt>
</event>
<event>
 4    1  0.8362047E-005  0.4539258E+03  0.7818608E-02  0.1026558E+00
          2   -1    0    0  501    0  0.00000000000E+00  0.00000000000E+00  0.32661641386E+03  0.32661641387E+03  0.25500000000E-02 0.  1.
         -2   -1    0    0    0  501 -0.00000000000E+00 -0.00000000000E+00 -0.15771454822E+03  0.15771454824E+03  0.25500000000E-02 0. -1.
    5000001    1    1    2    0    0  0.92779131807E+02 -0.12447810760E+03  0.69962204537E+02  0.23711279306E+03  0.16500000000E+03 0.  0.
   -5000001    1    1    2    0    0 -0.92779131807E+02  0.12447810760E+03  0.98939661102E+02  0.24721816905E+03  0.16500000000E+03 0.  0.
<mgrwt>
<rscale>  0 0.45392581E+03</rscale>
<asrwt>0</asrwt>
<pdfrwt beam="1">  1        2 0.50248678E-01 0.45392581E+03</pdfrwt>
<pdfrwt beam="2">  1       -2 0.24263777E-01 0.45392581E+03</pdfrwt>
<totfact> 0.15042864E+03</totfact>
</mgrwt>
</event>
<event>
 4    1  0.8362047E-005  0.5918617E+03  0.7818608E-02  0.9922436E-01
         -2   -1    0    0    0  501 -0.00000000000E+00  0.00000000000E+00  0.66761064627E+02  0.66761064675E+02  0.25500000000E-02 0. -1.
          2   -1    0    0  501    0  0.00000000000E+00 -0.00000000000E+00 -0.13117684096E+04  0.13117684096E+04  0.25500000000E-02 0.  1.
    5000001    1    1    2    0    0  0.55766968531E+02 -0.23522695349E+03 -0.72425226535E+03  0.78115812630E+03  0.16500000000E+03 0.  0.
   -5000001    1    1    2    0    0 -0.55766968531E+02  0.23522695349E+03 -0.52075507966E+03  0.59737134801E+03  0.16500000000E+03 0.  0.
<mgrwt>
<rscale>  0 0.59186166E+03</rscale>
<asrwt>0</asrwt>
<pdfrwt beam="1">  1        2 0.20181051E+00 0.59186166E+03</pdfrwt>
<pdfrwt beam="2">  1       -2 0.10270934E-01 0.59186166E+03</pdfrwt>
<totfact> 0.10845905E+03</totfact>
</mgrwt>
</event>
<event>
 4    1  0.8362047E-005  0.4345916E+03  0.7818608E-02  0.1032419E+00
          2   -1    0    0  501    0  0.00000000000E+00  0.00000000000E+00  0.84663662265E+03  0.84663662266E+03  0.25500000000E-02 0.  1.
         -2   -1    0    0    0  501 -0.00000000000E+00 -0.00000000000E+00 -0.55770643860E+02  0.55770643919E+02  0.25500000000E-02 0. -1.
    5000001    1    1    2    0    0 -0.11725632654E+03  0.29813951919E+02  0.54737672288E+03  0.58436648996E+03  0.16500000000E+03 0.  0.
   -5000001    1    1    2    0    0  0.11725632654E+03 -0.29813951919E+02  0.24348925591E+03  0.31804077661E+03  0.16500000000E+03 0.  0.
<mgrwt>
<rscale>  0 0.43459162E+03</rscale>
<asrwt>0</asrwt>
<pdfrwt beam="1">  1        2 0.13025178E+00 0.43459162E+03</pdfrwt>
<pdfrwt beam="2">  1       -2 0.85800998E-02 0.43459162E+03</pdfrwt>
<totfact> 0.28023572E+03</totfact>
</mgrwt>
</event>
<event>
 4    1  0.8362047E-005  0.4000937E+03  0.7818608E-02  0.1043747E+00
         -2   -1    0    0    0  501 -0.00000000000E+00  0.00000000000E+00  0.37381623840E+03  0.37381623841E+03  0.25500000000E-02 0. -1.
          2   -1    0    0  501    0  0.00000000000E+00 -0.00000000000E+00 -0.10705458743E+03  0.10705458746E+03  0.25500000000E-02 0.  1.
    5000001    1    1    2    0    0  0.23805782007E+02 -0.10158180295E+03  0.80878964105E+02  0.21131016252E+03  0.16500000000E+03 0.  0.
   -5000001    1    1    2    0    0 -0.23805782007E+02  0.10158180295E+03  0.18588268687E+03  0.26956066335E+03  0.16500000000E+03 0.  0.
<mgrwt>
<rscale>  0 0.40009370E+03</rscale>
<asrwt>0</asrwt>
<pdfrwt beam="1">  1        2 0.16469936E-01 0.40009370E+03</pdfrwt>
<pdfrwt beam="2">  1       -2 0.57510191E-01 0.40009370E+03</pdfrwt>
<totfact> 0.10138081E+03</totfact>
</mgrwt>
</event>
<event>
 4    1  0.8362047E-005  0.3975776E+03  0.7818608E-02  0.1044622E+00
          2   -1    0    0  501    0  0.00000000000E+00  0.00000000000E+00  0.39308667184E+03  0.39308667185E+03  0.25500000000E-02 0.  1.
         -2   -1    0    0    0  501 -0.00000000000E+00 -0.00000000000E+00 -0.10052995759E+03  0.10052995762E+03  0.25500000000E-02 0. -1.
    5000001    1    1    2    0    0 -0.68925456092E+02 -0.29510314310E+02  0.44876917813E+02  0.18670970757E+03  0.16500000000E+03 0.  0.
   -5000001    1    1    2    0    0  0.68925456092E+02  0.29510314310E+02  0.24767979644E+03  0.30690692191E+03  0.16500000000E+03 0.  0.
<mgrwt>
<rscale>  0 0.39757760E+03</rscale>
<asrwt>0</asrwt>
<pdfrwt beam="1">  1        2 0.60474873E-01 0.39757760E+03</pdfrwt>
<pdfrwt beam="2">  1       -2 0.15466147E-01 0.39757760E+03</pdfrwt>
<totfact> 0.26630786E+03</totfact>
</mgrwt>
</event>
<event>
 4    1  0.8362047E-005  0.5062901E+03  0.7818608E-02  0.1012150E+00
         -2   -1    0    0    0  501 -0.00000000000E+00  0.00000000000E+00  0.23230687152E+03  0.23230687153E+03  0.25500000000E-02 0. -1.
          2   -1    0    0  501    0  0.00000000000E+00 -0.00000000000E+00 -0.27585240482E+03  0.27585240483E+03  0.25500000000E-02 0.  1.
    5000001    1    1    2    0    0  0.13356241907E+03  0.13661195388E+03 -0.28440984046E+01  0.25245758976E+03  0.16500000000E+03 0.  0.
   -5000001    1    1    2    0    0 -0.13356241907E+03 -0.13661195388E+03 -0.40701434898E+02  0.25570168661E+03  0.16500000000E+03 0.  0.
<mgrwt>
<rscale>  0 0.50629007E+03</rscale>
<asrwt>0</asrwt>
<pdfrwt beam="1">  1        2 0.42438832E-01 0.50629007E+03</pdfrwt>
<pdfrwt beam="2">  1       -2 0.35739519E-01 0.50629007E+03</pdfrwt>
<totfact> 0.88981265E+02</totfact>
</mgrwt>
</event>
<event>
 4    1  0.8362047E-005  0.4918243E+03  0.7818608E-02  0.1015935E+00
          2   -1    0    0  501    0  0.00000000000E+00  0.00000000000E+00  0.55100185066E+03  0.55100185067E+03  0.25500000000E-02 0.  1.
         -2   -1    0    0    0  501 -0.00000000000E+00 -0.00000000000E+00 -0.10975062469E+03  0.10975062472E+03  0.25500000000E-02 0. -1.
    5000001    1    1    2    0    0 -0.12138580223E+03  0.11998175721E+03  0.30683491643E+03  0.38794690486E+03  0.16500000000E+03 0.  0.
   -5000001    1    1    2    0    0  0.12138580223E+03 -0.11998175721E+03  0.13441630953E+03  0.27280557053E+03  0.16500000000E+03 0.  0.
<mgrwt>
<rscale>  0 0.49182435E+03</rscale>
<asrwt>0</asrwt>
<pdfrwt beam="1">  1        2 0.84769513E-01 0.49182435E+03</pdfrwt>
<pdfrwt beam="2">  1       -2 0.16884712E-01 0.49182435E+03</pdfrwt>
<totfact> 0.15711246E+03</totfact>
</mgrwt>
</event>
<event>
 4    1  0.8362047E-005  0.4811056E+03  0.7818608E-02  0.1018832E+00
          2   -1    0    0  501    0  0.00000000000E+00  0.00000000000E+00  0.14191688722E+04  0.14191688722E+04  0.25500000000E-02 0.  1.
         -2   -1    0    0    0  501 -0.00000000000E+00 -0.00000000000E+00 -0.40774328836E+02  0.40774328916E+02  0.25500000000E-02 0. -1.
    5000001    1    1    2    0    0  0.88936292895E+02  0.13231464470E+03  0.46987133726E+03  0.52289664655E+03  0.16500000000E+03 0.  0.
   -5000001    1    1    2    0    0 -0.88936292895E+02 -0.13231464470E+03  0.90852320610E+03  0.93704655456E+03  0.16500000000E+03 0.  0.
<mgrwt>
<rscale>  0 0.48110564E+03</rscale>
<asrwt>0</asrwt>
<pdfrwt beam="1">  1        2 0.21833364E+00 0.48110564E+03</pdfrwt>
<pdfrwt beam="2">  1       -2 0.62729746E-02 0.48110564E+03</pdfrwt>
<totfact> 0.20764250E+03</totfact>
</mgrwt>
</event>
<event>
 4    1  0.8362047E-005  0.1458210E+04  0.7818608E-02  0.8912729E-01
         -2   -1    0    0    0  501 -0.00000000000E+00  0.00000000000E+00  0.70621965005E+03  0.70621965006E+03  0.25500000000E-02 0. -1.
          2   -1    0    0  501    0  0.00000000000E+00 -0.00000000000E+00 -0.75273152021E+03  0.75273152022E+03  0.25500000000E-02 0.  1.
    5000001    1    1    2    0    0  0.20404722682E+03 -0.37784959423E+03 -0.58919650768E+03  0.74751796720E+03  0.16500000000E+03 0.  0.
   -5000001    1    1    2    0    0 -0.20404722682E+03  0.37784959423E+03  0.54268463752E+03  0.71143320307E+03  0.16500000000E+03 0.  0.
<mgrwt>
<rscale>  0 0.14582096E+04</rscale>
<asrwt>0</asrwt>
<pdfrwt beam="1">  1        2 0.11580485E+00 0.14582096E+04</pdfrwt>
<pdfrwt beam="2">  1       -2 0.10864918E+00 0.14582096E+04</pdfrwt>
<totfact> 0.24490699E+01</totfact>
</mgrwt>
</event>
<event>
 4    1  0.8362047E-005  0.6175476E+03  0.7818608E-02  0.9869655E-01
         -2   -1    0    0    0  501 -0.00000000000E+00  0.00000000000E+00  0.16496763187E+03  0.16496763189E+03  0.25500000000E-02 0. -1.
          2   -1    0    0  501    0  0.00000000000E+00 -0.00000000000E+00 -0.57793910867E+03  0.57793910868E+03  0.25500000000E-02 0.  1.
    5000001    1    1    2    0    0 -0.17455912351E+03  0.67049723971E+02 -0.42551576044E+03  0.49320909914E+03  0.16500000000E+03 0.  0.
   -5000001    1    1    2    0    0  0.17455912351E+03 -0.67049723971E+02  0.12544283644E+02  0.24969764143E+03  0.16500000000E+03 0.  0.
<mgrwt>
<rscale>  0 0.61754756E+03</rscale>
<asrwt>0</asrwt>
<pdfrwt beam="1">  1        2 0.88913708E-01 0.61754756E+03</pdfrwt>
<pdfrwt beam="2">  1       -2 0.25379636E-01 0.61754756E+03</pdfrwt>
<totfact> 0.72750892E+02</totfact>
</mgrwt>
</event>
<event>
 4    1  0.8362047E-005  0.3406845E+03  0.7818608E-02  0.1066505E+00
         -2   -1    0    0    0  501 -0.00000000000E+00  0.00000000000E+00  0.67680489990E+01  0.67680494794E+01  0.25500000000E-02 0. -1.
          2   -1    0    0  501    0  0.00000000000E+00 -0.00000000000E+00 -0.42872744297E+04  0.42872744297E+04  0.25500000000E-02 0.  1.
    5000001    1    1    2    0    0 -0.70396457980E+01 -0.32222854243E+02 -0.24745880354E+04  0.24803021618E+04  0.16500000000E+03 0.  0.
   -5000001    1    1    2    0    0  0.70396457980E+01  0.32222854243E+02 -0.18059183453E+04  0.18137403174E+04  0.16500000000E+03 0.  0.
<mgrwt>
<rscale>  0 0.34068451E+03</rscale>
<asrwt>0</asrwt>
<pdfrwt beam="1">  1        2 0.65957851E+00 0.34068451E+03</pdfrwt>
<pdfrwt beam="2">  1       -2 0.10412418E-02 0.34068451E+03</pdfrwt>
<totfact> 0.51787967E+02</totfact>
</mgrwt>
</event>
<event>
 4    1  0.8362047E-005  0.5527889E+03  0.7818608E-02  0.1000850E+00
         -2   -1    0    0    0  501 -0.00000000000E+00  0.00000000000E+00  0.53576132162E+02  0.53576132223E+02  0.25500000000E-02 0. -1.
          2   -1    0    0  501    0  0.00000000000E+00 -0.00000000000E+00 -0.14258943117E+04  0.14258943117E+04  0.25500000000E-02 0.  1.
    5000001    1    1    2    0    0  0.50380333158E+02  0.21030754461E+03 -0.81731404577E+03  0.86139113688E+03  0.16500000000E+03 0.  0.
   -5000001    1    1    2    0    0 -0.50380333158E+02 -0.21030754461E+03 -0.55500413373E+03  0.61807930701E+03  0.16500000000E+03 0.  0.
<mgrwt>
<rscale>  0 0.55278894E+03</rscale>
<asrwt>0</asrwt>
<pdfrwt beam="1">  1        2 0.21936833E+00 0.55278894E+03</pdfrwt>
<pdfrwt beam="2">  1       -2 0.82424829E-02 0.55278894E+03</pdfrwt>
<totfact> 0.13348179E+03</totfact>
</mgrwt>
</event>
<event>
 4    1  0.8362047E-005  0.5136803E+03  0.7818608E-02  0.1010269E+00
          2   -1    0    0  501    0  0.00000000000E+00  0.00000000000E+00  0.11706342351E+04  0.11706342351E+04  0.25500000000E-02 0.  1.
         -2   -1    0    0    0  501 -0.00000000000E+00 -0.00000000000E+00 -0.56351376019E+02  0.56351376077E+02  0.25500000000E-02 0. -1.
    5000001    1    1    2    0    0  0.15370245601E+03 -0.77794675541E+02  0.32971552516E+03  0.40695673487E+03  0.16500000000E+03 0.  0.
   -5000001    1    1    2    0    0 -0.15370245601E+03  0.77794675541E+02  0.78456733393E+03  0.82002887632E+03  0.16500000000E+03 0.  0.
<mgrwt>
<rscale>  0 0.51368025E+03</rscale>
<asrwt>0</asrwt>
<pdfrwt beam="1">  1        2 0.18009758E+00 0.51368025E+03</pdfrwt>
<pdfrwt beam="2">  1       -2 0.86694423E-02 0.51368025E+03</pdfrwt>
<totfact> 0.17242901E+03</totfact>
</mgrwt>
</event>
<event>
 4    1  0.8362047E-005  0.5805063E+03  0.7818608E-02  0.9946695E-01
          2   -1    0    0  501    0  0.00000000000E+00  0.00000000000E+00  0.10522832864E+04  0.10522832864E+04  0.25500000000E-02 0.  1.
         -2   -1    0    0    0  501 -0.00000000000E+00 -0.00000000000E+00 -0.80061046274E+02  0.80061046314E+02  0.25500000000E-02 0. -1.
    5000001    1    1    2    0    0  0.14965464409E+03 -0.91847219554E+02  0.80178231799E+03  0.83720505832E+03  0.16500000000E+03 0.  0.
   -5000001    1    1    2    0    0 -0.14965464409E+03  0.91847219554E+02  0.17043992215E+03  0.29513927441E+03  0.16500000000E+03 0.  0.
<mgrwt>
<rscale>  0 0.58050633E+03</rscale>
<asrwt>0</asrwt>
<pdfrwt beam="1">  1        2 0.16188973E+00 0.58050633E+03</pdfrwt>
<pdfrwt beam="2">  1       -2 0.12317085E-01 0.58050633E+03</pdfrwt>
<totfact> 0.11473335E+03</totfact>
</mgrwt>
</event>
<event>
 4    1  0.8362047E-005  0.9418423E+03  0.7818608E-02  0.9374737E-01
         -2   -1    0    0    0  501 -0.00000000000E+00  0.00000000000E+00  0.66233933411E+03  0.66233933412E+03  0.25500000000E-02 0. -1.
          2   -1    0    0  501    0  0.00000000000E+00 -0.00000000000E+00 -0.33482340272E+03  0.33482340273E+03  0.25500000000E-02 0.  1.
    5000001    1    1    2    0    0 -0.37070111185E+03 -0.34026707350E+02  0.41422149000E+03  0.58084556805E+03  0.16500000000E+03 0.  0.
   -5000001    1    1    2    0    0  0.37070111185E+03  0.34026707350E+02 -0.86705558609E+02  0.41631716880E+03  0.16500000000E+03 0.  0.
<mgrwt>
<rscale>  0 0.94184226E+03</rscale>
<asrwt>0</asrwt>
<pdfrwt beam="1">  1        2 0.51511293E-01 0.94184226E+03</pdfrwt>
<pdfrwt beam="2">  1       -2 0.10189836E+00 0.94184226E+03</pdfrwt>
<totfact> 0.76813557E+01</totfact>
</mgrwt>
</event>
<event>
 4    1  0.8362047E-005  0.1246820E+04  0.7818608E-02  0.9072834E-01
         -2   -1    0    0    0  501 -0.00000000000E+00  0.00000000000E+00  0.56560000394E+03  0.56560000394E+03  0.25500000000E-02 0. -1.
          2   -1    0    0  501    0  0.00000000000E+00 -0.00000000000E+00 -0.68712895031E+03  0.68712895031E+03  0.25500000000E-02 0.  1.
    5000001    1    1    2    0    0 -0.23257677569E+03  0.53499031031E+03 -0.20674081555E+03  0.64052584142E+03  0.16500000000E+03 0.  0.
   -5000001    1    1    2    0    0  0.23257677569E+03 -0.53499031031E+03  0.85211869183E+02  0.61220311283E+03  0.16500000000E+03 0.  0.
<mgrwt>
<rscale>  0 0.12468202E+04</rscale>
<asrwt>0</asrwt>
<pdfrwt beam="1">  1        2 0.10571215E+00 0.12468202E+04</pdfrwt>
<pdfrwt beam="2">  1       -2 0.87015385E-01 0.12468202E+04</pdfrwt>
<totfact> 0.47145938E+01</totfact>
</mgrwt>
</event>
<event>
 4    1  0.8362047E-005  0.5776421E+03  0.7818608E-02  0.9952909E-01
         -2   -1    0    0    0  501 -0.00000000000E+00  0.00000000000E+00  0.90340778803E+02  0.90340778839E+02  0.25500000000E-02 0. -1.
          2   -1    0    0  501    0  0.00000000000E+00 -0.00000000000E+00 -0.92336603157E+03  0.92336603157E+03  0.25500000000E-02 0.  1.
    5000001    1    1    2    0    0  0.23030184844E+03 -0.39732919034E+02 -0.48615736230E+03  0.56408476948E+03  0.16500000000E+03 0.  0.
   -5000001    1    1    2    0    0 -0.23030184844E+03  0.39732919034E+02 -0.34686789047E+03  0.44962204092E+03  0.16500000000E+03 0.  0.
<mgrwt>
<rscale>  0 0.57764213E+03</rscale>
<asrwt>0</asrwt>
<pdfrwt beam="1">  1        2 0.14205631E+00 0.57764213E+03</pdfrwt>
<pdfrwt beam="2">  1       -2 0.13898582E-01 0.57764213E+03</pdfrwt>
<totfact> 0.11342351E+03</totfact>
</mgrwt>
</event>
<event>
 4    1  0.8362047E-005  0.4684159E+03  0.7818608E-02  0.1022368E+00
          2   -1    0    0  501    0  0.00000000000E+00  0.00000000000E+00  0.34451168807E+04  0.34451168807E+04  0.25500000000E-02 0.  1.
         -2   -1    0    0    0  501 -0.00000000000E+00 -0.00000000000E+00 -0.15922061334E+02  0.15922061538E+02  0.25500000000E-02 0. -1.
    5000001    1    1    2    0    0 -0.15222723433E+03  0.52369575878E+02  0.20203783056E+04  0.20334869562E+04  0.16500000000E+03 0.  0.
   -5000001    1    1    2    0    0  0.15222723433E+03 -0.52369575878E+02  0.14088165138E+04  0.14275519860E+04  0.16500000000E+03 0.  0.
<mgrwt>
<rscale>  0 0.46841589E+03</rscale>
<asrwt>0</asrwt>
<pdfrwt beam="1">  1        2 0.53001821E+00 0.46841589E+03</pdfrwt>
<pdfrwt beam="2">  1       -2 0.24495468E-02 0.46841589E+03</pdfrwt>
<totfact> 0.60811745E+02</totfact>
</mgrwt>
</event>
<event>
 4    1  0.8362047E-005  0.4107011E+03  0.7818608E-02  0.1040136E+00
         -2   -1    0    0    0  501 -0.00000000000E+00  0.00000000000E+00  0.15668313990E+02  0.15668314198E+02  0.25500000000E-02 0.  1.
          2   -1    0    0  501    0  0.00000000000E+00 -0.00000000000E+00 -0.26913460449E+04  0.26913460449E+04  0.25500000000E-02 0. -1.
    5000001    1    1    2    0    0  0.41615855992E+02 -0.11448888040E+03 -0.14051440376E+04  0.14200332213E+04  0.16500000000E+03 0.  0.
   -5000001    1    1    2    0    0 -0.41615855992E+02  0.11448888040E+03 -0.12705336934E+04  0.12869811378E+04  0.16500000000E+03 0.  0.
<mgrwt>
<rscale>  0 0.41070113E+03</rscale>
<asrwt>0</asrwt>
<pdfrwt beam="1">  1        2 0.41405287E+00 0.41070113E+03</pdfrwt>
<pdfrwt beam="2">  1       -2 0.24105120E-02 0.41070113E+03</pdfrwt>
<totfact> 0.18156345E+03</totfact>
</mgrwt>
</event>
<event>
 4    1  0.8362047E-005  0.3925993E+03  0.7818608E-02  0.1046373E+00
          2   -1    0    0  501    0  0.00000000000E+00  0.00000000000E+00  0.16565966387E+04  0.16565966387E+04  0.25500000000E-02 0.  1.
         -2   -1    0    0    0  501 -0.00000000000E+00 -0.00000000000E+00 -0.23260672510E+02  0.23260672650E+02  0.25500000000E-02 0. -1.
    5000001    1    1    2    0    0  0.92966044775E+02  0.36571897663E+02  0.66071947152E+03  0.68829892432E+03  0.16500000000E+03 0.  0.
   -5000001    1    1    2    0    0 -0.92966044775E+02 -0.36571897663E+02  0.97261649465E+03  0.99155838701E+03  0.16500000000E+03 0.  0.
<mgrwt>
<rscale>  0 0.39259930E+03</rscale>
<asrwt>0</asrwt>
<pdfrwt beam="1">  1        2 0.25486115E+00 0.39259930E+03</pdfrwt>
<pdfrwt beam="2">  1       -2 0.35785632E-02 0.39259930E+03</pdfrwt>
<totfact> 0.36602869E+03</totfact>
</mgrwt>
</event>
<event>
 4    1  0.8362047E-005  0.6189343E+03  0.7818608E-02  0.9866884E-01
          2   -1    0    0  501    0  0.00000000000E+00  0.00000000000E+00  0.12780734311E+04  0.12780734311E+04  0.25500000000E-02 0.  1.
         -2   -1    0    0    0  501 -0.00000000000E+00 -0.00000000000E+00 -0.74933033954E+02  0.74933033997E+02  0.25500000000E-02 0. -1.
    5000001    1    1    2    0    0 -0.23870062693E+02 -0.25945331970E+03  0.54544784692E+03  0.62659728591E+03  0.16500000000E+03 0.  0.
   -5000001    1    1    2    0    0  0.23870062693E+02  0.25945331970E+03  0.65769255023E+03  0.72640917920E+03  0.16500000000E+03 0.  0.
<mgrwt>
<rscale>  0 0.61893431E+03</rscale>
<asrwt>0</asrwt>
<pdfrwt beam="1">  1        2 0.19662667E+00 0.61893431E+03</pdfrwt>
<pdfrwt beam="2">  1       -2 0.11528159E-01 0.61893431E+03</pdfrwt>
<totfact> 0.93800935E+02</totfact>
</mgrwt>
</event>
<event>
 4    1  0.8362047E-005  0.6168043E+03  0.7818608E-02  0.9871143E-01
         -2   -1    0    0    0  501 -0.00000000000E+00  0.00000000000E+00  0.25765140579E+03  0.25765140580E+03  0.25500000000E-02 0. -1.
          2   -1    0    0  501    0  0.00000000000E+00 -0.00000000000E+00 -0.36914946375E+03  0.36914946376E+03  0.25500000000E-02 0.  1.
    5000001    1    1    2    0    0  0.12910695774E+03 -0.22279955287E+03 -0.15373099995E+02  0.30621818937E+03  0.16500000000E+03 0.  0.
   -5000001    1    1    2    0    0 -0.12910695774E+03  0.22279955287E+03 -0.96124957964E+02  0.32058268019E+03  0.16500000000E+03 0.  0.
<mgrwt>
<rscale>  0 0.61680427E+03</rscale>
<asrwt>0</asrwt>
<pdfrwt beam="1">  1        2 0.56792225E-01 0.61680427E+03</pdfrwt>
<pdfrwt beam="2">  1       -2 0.39638678E-01 0.61680427E+03</pdfrwt>
<totfact> 0.52810658E+02</totfact>
</mgrwt>
</event>
<event>
 4    1  0.8362047E-005  0.5821511E+03  0.7818608E-02  0.9943145E-01
          2   -1    0    0  501    0  0.00000000000E+00  0.00000000000E+00  0.32326500013E+03  0.32326500014E+03  0.25500000000E-02 0.  1.
         -2   -1    0    0    0  501 -0.00000000000E+00 -0.00000000000E+00 -0.26209141584E+03  0.26209141586E+03  0.25500000000E-02 0. -1.
    5000001    1    1    2    0    0 -0.19129964563E+03 -0.11072163965E+03  0.12407800712E+03  0.30244865309E+03  0.16500000000E+03 0.  0.
   -5000001    1    1    2    0    0  0.19129964563E+03  0.11072163965E+03 -0.62904422829E+02  0.28290776291E+03  0.16500000000E+03 0.  0.
<mgrwt>
<rscale>  0 0.58215112E+03</rscale>
<asrwt>0</asrwt>
<pdfrwt beam="1">  1        2 0.49733077E-01 0.58215112E+03</pdfrwt>
<pdfrwt beam="2">  1       -2 0.40321756E-01 0.58215112E+03</pdfrwt>
<totfact> 0.59226481E+02</totfact>
</mgrwt>
</event>
<event>
 4    1  0.8362047E-005  0.4159307E+03  0.7818608E-02  0.1038399E+00
          2   -1    0    0  501    0  0.00000000000E+00  0.00000000000E+00  0.21433767602E+04  0.21433767602E+04  0.25500000000E-02 0.  1.
         -2   -1    0    0    0  501 -0.00000000000E+00 -0.00000000000E+00 -0.20178245500E+02  0.20178245661E+02  0.25500000000E-02 0. -1.
    5000001    1    1    2    0    0 -0.90148635847E+02 -0.87713608174E+02  0.11359181755E+04  0.11547101606E+04  0.16500000000E+03 0.  0.
   -5000001    1    1    2    0    0  0.90148635847E+02  0.87713608174E+02  0.98728033919E+03  0.10088448452E+04  0.16500000000E+03 0.  0.
<mgrwt>
<rscale>  0 0.41593068E+03</rscale>
<asrwt>0</asrwt>
<pdfrwt beam="1">  1        2 0.32975020E+00 0.41593068E+03</pdfrwt>
<pdfrwt beam="2">  1       -2 0.31043462E-02 0.41593068E+03</pdfrwt>
<totfact> 0.24908931E+03</totfact>
</mgrwt>
</event>
<event>
 4    1  0.8362047E-005  0.1230795E+04  0.7818608E-02  0.9086320E-01
         -2   -1    0    0    0  501 -0.00000000000E+00  0.00000000000E+00  0.61908731809E+03  0.61908731809E+03  0.25500000000E-02 0. -1.
          2   -1    0    0  501    0  0.00000000000E+00 -0.00000000000E+00 -0.61173013336E+03  0.61173013336E+03  0.25500000000E-02 0.  1.
    5000001    1    1    2    0    0  0.56803391266E+03  0.72585438277E+02 -0.14981094360E+03  0.61449124534E+03  0.16500000000E+03 0.  0.
   -5000001    1    1    2    0    0 -0.56803391266E+03 -0.72585438277E+02  0.15716812833E+03  0.61632620611E+03  0.16500000000E+03 0.  0.
<mgrwt>
<rscale>  0 0.12307955E+04</rscale>
<asrwt>0</asrwt>
<pdfrwt beam="1">  1        2 0.94112329E-01 0.12307955E+04</pdfrwt>
<pdfrwt beam="2">  1       -2 0.95244202E-01 0.12307955E+04</pdfrwt>
<totfact> 0.44209726E+01</totfact>
</mgrwt>
</event>
<event>
 4    1  0.8362047E-005  0.4736145E+03  0.7818608E-02  0.1020905E+00
         -2   -1    0    0    0  501 -0.00000000000E+00  0.00000000000E+00  0.87425237691E+02  0.87425237728E+02  0.25500000000E-02 0. -1.
          2   -1    0    0  501    0  0.00000000000E+00 -0.00000000000E+00 -0.64143585713E+03  0.64143585713E+03  0.25500000000E-02 0.  1.
    5000001    1    1    2    0    0 -0.10599033095E+03 -0.92402432886E+02 -0.13035764102E+03  0.25296299024E+03  0.16500000000E+03 0.  0.
   -5000001    1    1    2    0    0  0.10599033095E+03  0.92402432886E+02 -0.42365297842E+03  0.47589810462E+03  0.16500000000E+03 0.  0.
<mgrwt>
<rscale>  0 0.47361454E+03</rscale>
<asrwt>0</asrwt>
<pdfrwt beam="1">  1        2 0.98682437E-01 0.47361454E+03</pdfrwt>
<pdfrwt beam="2">  1       -2 0.13450037E-01 0.47361454E+03</pdfrwt>
<totfact> 0.19208788E+03</totfact>
</mgrwt>
</event>
<event>
 4    1  0.8362047E-005  0.5475602E+03  0.7818608E-02  0.1002060E+00
         -2   -1    0    0    0  501 -0.00000000000E+00  0.00000000000E+00  0.14586942140E+03  0.14586942142E+03  0.25500000000E-02 0. -1.
          2   -1    0    0  501    0  0.00000000000E+00 -0.00000000000E+00 -0.51385372671E+03  0.51385372672E+03  0.25500000000E-02 0.  1.
    5000001    1    1    2    0    0  0.32410024602E+02  0.14739601298E+03  0.63367421502E+01  0.22369878998E+03  0.16500000000E+03 0.  0.
   -5000001    1    1    2    0    0 -0.32410024602E+02 -0.14739601298E+03 -0.37432104746E+03  0.43602435816E+03  0.16500000000E+03 0.  0.
<mgrwt>
<rscale>  0 0.54756021E+03</rscale>
<asrwt>0</asrwt>
<pdfrwt beam="1">  1        2 0.79054419E-01 0.54756021E+03</pdfrwt>
<pdfrwt beam="2">  1       -2 0.22441450E-01 0.54756021E+03</pdfrwt>
<totfact> 0.10407825E+03</totfact>
</mgrwt>
</event>
<event>
 4    1  0.8362047E-005  0.8570267E+03  0.7818608E-02  0.9480954E-01
          2   -1    0    0  501    0  0.00000000000E+00  0.00000000000E+00  0.17147149439E+04  0.17147149439E+04  0.25500000000E-02 0.  1.
         -2   -1    0    0    0  501 -0.00000000000E+00 -0.00000000000E+00 -0.10708699541E+03  0.10708699544E+03  0.25500000000E-02 0. -1.
    5000001    1    1    2    0    0  0.22367368437E+03 -0.27147284778E+03  0.11880425738E+04  0.12499590319E+04  0.16500000000E+03 0.  0.
   -5000001    1    1    2    0    0 -0.22367368437E+03  0.27147284778E+03  0.41958537463E+03  0.57184290742E+03  0.16500000000E+03 0.  0.
<mgrwt>
<rscale>  0 0.85702665E+03</rscale>
<asrwt>0</asrwt>
<pdfrwt beam="1">  1        2 0.26380228E+00 0.85702665E+03</pdfrwt>
<pdfrwt beam="2">  1       -2 0.16474924E-01 0.85702665E+03</pdfrwt>
<totfact> 0.29020911E+02</totfact>
</mgrwt>
</event>
<event>
 4    1  0.8362047E-005  0.1099690E+04  0.7818608E-02  0.9205494E-01
         -2   -1    0    0    0  501 -0.00000000000E+00  0.00000000000E+00  0.20322698335E+03  0.20322698337E+03  0.25500000000E-02 0. -1.
          2   -1    0    0  501    0  0.00000000000E+00 -0.00000000000E+00 -0.14876459008E+04  0.14876459009E+04  0.25500000000E-02 0.  1.
    5000001    1    1    2    0    0 -0.31545714901E+03  0.36388653744E+03 -0.32270819657E+03  0.60273726044E+03  0.16500000000E+03 0.  0.
   -5000001    1    1    2    0    0  0.31545714901E+03 -0.36388653744E+03 -0.96171072093E+03  0.10881356238E+04  0.16500000000E+03 0.  0.
<mgrwt>
<rscale>  0 0.10996905E+04</rscale>
<asrwt>0</asrwt>
<pdfrwt beam="1">  1        2 0.22886859E+00 0.10996905E+04</pdfrwt>
<pdfrwt beam="2">  1       -2 0.31265691E-01 0.10996905E+04</pdfrwt>
<totfact> 0.12145302E+02</totfact>
</mgrwt>
</event>
<event>
 4    1  0.8362047E-005  0.4420941E+03  0.7818608E-02  0.1030106E+00
          2   -1    0    0  501    0  0.00000000000E+00  0.00000000000E+00  0.94410449623E+03  0.94410449624E+03  0.25500000000E-02 0.  1.
         -2   -1    0    0    0  501 -0.00000000000E+00 -0.00000000000E+00 -0.51754640118E+02  0.51754640181E+02  0.25500000000E-02 0. -1.
    5000001    1    1    2    0    0  0.70359527995E+02 -0.11572378802E+03  0.31688437326E+03  0.38207743234E+03  0.16500000000E+03 0.  0.
   -5000001    1    1    2    0    0 -0.70359527995E+02  0.11572378802E+03  0.57546548286E+03  0.61378170407E+03  0.16500000000E+03 0.  0.
<mgrwt>
<rscale>  0 0.44209406E+03</rscale>
<asrwt>0</asrwt>
<pdfrwt beam="1">  1        2 0.14524685E+00 0.44209406E+03</pdfrwt>
<pdfrwt beam="2">  1       -2 0.79622523E-02 0.44209406E+03</pdfrwt>
<totfact> 0.27198424E+03</totfact>
</mgrwt>
</event>
<event>
 4    1  0.8362047E-005  0.8095825E+03  0.7818608E-02  0.9546249E-01
          2   -1    0    0  501    0  0.00000000000E+00  0.00000000000E+00  0.18187673101E+04  0.18187673101E+04  0.25500000000E-02 0.  1.
         -2   -1    0    0    0  501 -0.00000000000E+00 -0.00000000000E+00 -0.90091773457E+02  0.90091773493E+02  0.25500000000E-02 0. -1.
    5000001    1    1    2    0    0  0.37591430965E+02 -0.36704260165E+03  0.81174251515E+03  0.90679892920E+03  0.16500000000E+03 0.  0.
   -5000001    1    1    2    0    0 -0.37591430965E+02  0.36704260165E+03  0.91693302150E+03  0.10020601544E+04  0.16500000000E+03 0.  0.
<mgrwt>
<rscale>  0 0.80958254E+03</rscale>
<asrwt>0</asrwt>
<pdfrwt beam="1">  1        2 0.27981037E+00 0.80958254E+03</pdfrwt>
<pdfrwt beam="2">  1       -2 0.13860272E-01 0.80958254E+03</pdfrwt>
<totfact> 0.34227074E+02</totfact>
</mgrwt>
</event>
<event>
 4    1  0.8362047E-005  0.5030845E+03  0.7818608E-02  0.1012977E+00
          2   -1    0    0  501    0  0.00000000000E+00  0.00000000000E+00  0.77857826994E+03  0.77857826995E+03  0.25500000000E-02 0.  1.
         -2   -1    0    0    0  501 -0.00000000000E+00 -0.00000000000E+00 -0.81268004931E+02  0.81268004971E+02  0.25500000000E-02 0. -1.
    5000001    1    1    2    0    0 -0.21800508911E+02  0.11908226808E+03  0.59863913251E+03  0.63265287460E+03  0.16500000000E+03 0.  0.
   -5000001    1    1    2    0    0  0.21800508911E+02 -0.11908226808E+03  0.98671132500E+02  0.22719340032E+03  0.16500000000E+03 0.  0.
<mgrwt>
<rscale>  0 0.50308450E+03</rscale>
<asrwt>0</asrwt>
<pdfrwt beam="1">  1        2 0.11978127E+00 0.50308450E+03</pdfrwt>
<pdfrwt beam="2">  1       -2 0.12502770E-01 0.50308450E+03</pdfrwt>
<totfact> 0.17015690E+03</totfact>
</mgrwt>
</event>
<event>
 4    1  0.8362047E-005  0.6443488E+03  0.7818608E-02  0.9817441E-01
          2   -1    0    0  501    0  0.00000000000E+00  0.00000000000E+00  0.80462108581E+03  0.80462108581E+03  0.25500000000E-02 0.  1.
         -2   -1    0    0    0  501 -0.00000000000E+00 -0.00000000000E+00 -0.12900026163E+03  0.12900026166E+03  0.25500000000E-02 0. -1.
    5000001    1    1    2    0    0 -0.12096572875E+03 -0.19555062446E+03  0.56086486927E+03  0.62822540210E+03  0.16500000000E+03 0.  0.
   -5000001    1    1    2    0    0  0.12096572875E+03  0.19555062446E+03  0.11475595490E+03  0.30539594537E+03  0.16500000000E+03 0.  0.
<mgrwt>
<rscale>  0 0.64434876E+03</rscale>
<asrwt>0</asrwt>
<pdfrwt beam="1">  1        2 0.12378786E+00 0.64434876E+03</pdfrwt>
<pdfrwt beam="2">  1       -2 0.19846194E-01 0.64434876E+03</pdfrwt>
<totfact> 0.74375560E+02</totfact>
</mgrwt>
</event>
<event>
 4    1  0.8362047E-005  0.7502400E+03  0.7818608E-02  0.9634974E-01
          2   -1    0    0  501    0  0.00000000000E+00  0.00000000000E+00  0.18885233343E+04  0.18885233343E+04  0.25500000000E-02 0.  1.
         -2   -1    0    0    0  501 -0.00000000000E+00 -0.00000000000E+00 -0.74510612320E+02  0.74510612363E+02  0.25500000000E-02 0. -1.
    5000001    1    1    2    0    0  0.21613919541E+03  0.10493367264E+03  0.15248802846E+04  0.15524857841E+04  0.16500000000E+03 0.  0.
   -5000001    1    1    2    0    0 -0.21613919541E+03 -0.10493367264E+03  0.28913243739E+03  0.41054816258E+03  0.16500000000E+03 0.  0.
<mgrwt>
<rscale>  0 0.75024004E+03</rscale>
<asrwt>0</asrwt>
<pdfrwt beam="1">  1        2 0.29054204E+00 0.75024004E+03</pdfrwt>
<pdfrwt beam="2">  1       -2 0.11463172E-01 0.75024004E+03</pdfrwt>
<totfact> 0.43172798E+02</totfact>
</mgrwt>
</event>
<event>
 4    1  0.8362047E-005  0.5303235E+03  0.7818608E-02  0.1006154E+00
          2   -1    0    0  501    0  0.00000000000E+00  0.00000000000E+00  0.25761710331E+04  0.25761710331E+04  0.25500000000E-02 0.  1.
         -2   -1    0    0    0  501 -0.00000000000E+00 -0.00000000000E+00 -0.27292735361E+02  0.27292735480E+02  0.25500000000E-02 0. -1.
    5000001    1    1    2    0    0  0.44753021648E+02  0.18111360661E+03  0.82770786689E+03  0.86436698477E+03  0.16500000000E+03 0.  0.
   -5000001    1    1    2    0    0 -0.44753021648E+02 -0.18111360661E+03  0.17211704309E+04  0.17390967839E+04  0.16500000000E+03 0.  0.
<mgrwt>
<rscale>  0 0.53032350E+03</rscale>
<asrwt>0</asrwt>
<pdfrwt beam="1">  1        2 0.39633407E+00 0.53032350E+03</pdfrwt>
<pdfrwt beam="2">  1       -2 0.41988817E-02 0.53032350E+03</pdfrwt>
<totfact> 0.90100804E+02</totfact>
</mgrwt>
</event>
<event>
 4    1  0.8362047E-005  0.8386686E+03  0.7818608E-02  0.9505673E-01
         -2   -1    0    0    0  501 -0.00000000000E+00  0.00000000000E+00  0.11257485644E+03  0.11257485647E+03  0.25500000000E-02 0. -1.
          2   -1    0    0  501    0  0.00000000000E+00 -0.00000000000E+00 -0.15619939867E+04  0.15619939867E+04  0.25500000000E-02 0.  1.
    5000001    1    1    2    0    0  0.37282523389E+03 -0.27446566479E+02 -0.91269939686E+03  0.99999857903E+03  0.16500000000E+03 0.  0.
   -5000001    1    1    2    0    0 -0.37282523389E+03  0.27446566479E+02 -0.53671973339E+03  0.67457026412E+03  0.16500000000E+03 0.  0.
<mgrwt>
<rscale>  0 0.83866858E+03</rscale>
<asrwt>0</asrwt>
<pdfrwt beam="1">  1        2 0.24030675E+00 0.83866858E+03</pdfrwt>
<pdfrwt beam="2">  1       -2 0.17319210E-01 0.83866858E+03</pdfrwt>
<totfact> 0.32375457E+02</totfact>
</mgrwt>
</event>
<event>
 4    1  0.8362047E-005  0.4367300E+03  0.7818608E-02  0.1031755E+00
         -2   -1    0    0    0  501 -0.00000000000E+00  0.00000000000E+00  0.37740217340E+02  0.37740217426E+02  0.25500000000E-02 0. -1.
          2   -1    0    0  501    0  0.00000000000E+00 -0.00000000000E+00 -0.12634606893E+04  0.12634606893E+04  0.25500000000E-02 0.  1.
    5000001    1    1    2    0    0  0.94434951969E+02 -0.10734487665E+03 -0.60043268187E+03  0.63889380037E+03  0.16500000000E+03 0.  0.
   -5000001    1    1    2    0    0 -0.94434951969E+02  0.10734487665E+03 -0.62528779012E+03  0.66230710639E+03  0.16500000000E+03 0.  0.
<mgrwt>
<rscale>  0 0.43673004E+03</rscale>
<asrwt>0</asrwt>
<pdfrwt beam="1">  1        2 0.19437854E+00 0.43673004E+03</pdfrwt>
<pdfrwt beam="2">  1       -2 0.58061883E-02 0.43673004E+03</pdfrwt>
<totfact> 0.28664876E+03</totfact>
</mgrwt>
</event>
<event>
 4    1  0.8362047E-005  0.1098878E+04  0.7818608E-02  0.9206286E-01
          2   -1    0    0  501    0  0.00000000000E+00  0.00000000000E+00  0.24745222093E+04  0.24745222093E+04  0.25500000000E-02 0.  1.
         -2   -1    0    0    0  501 -0.00000000000E+00 -0.00000000000E+00 -0.12199650202E+03  0.12199650205E+03  0.25500000000E-02 0. -1.
    5000001    1    1    2    0    0 -0.48465886574E+03  0.19578393634E+03  0.12656937474E+04  0.13792864924E+04  0.16500000000E+03 0.  0.
   -5000001    1    1    2    0    0  0.48465886574E+03 -0.19578393634E+03  0.10868319598E+04  0.12172322189E+04  0.16500000000E+03 0.  0.
<mgrwt>
<rscale>  0 0.10988777E+04</rscale>
<asrwt>0</asrwt>
<pdfrwt beam="1">  1        2 0.38069570E+00 0.10988777E+04</pdfrwt>
<pdfrwt beam="2">  1       -2 0.18768694E-01 0.10988777E+04</pdfrwt>
<totfact> 0.86156319E+01</totfact>
</mgrwt>
</event>
<event>
 4    1  0.8362047E-005  0.7707434E+03  0.7818608E-02  0.9603358E-01
         -2   -1    0    0    0  501 -0.00000000000E+00  0.00000000000E+00  0.24947976809E+03  0.24947976810E+03  0.25500000000E-02 0. -1.
          2   -1    0    0  501    0  0.00000000000E+00 -0.00000000000E+00 -0.59528406091E+03  0.59528406092E+03  0.25500000000E-02 0.  1.
    5000001    1    1    2    0    0 -0.87522061898E+02 -0.33584057144E+03 -0.20461778914E+03  0.43536472110E+03  0.16500000000E+03 0.  0.
   -5000001    1    1    2    0    0  0.87522061898E+02  0.33584057144E+03 -0.14118650368E+03  0.40939910792E+03  0.16500000000E+03 0.  0.
<mgrwt>
<rscale>  0 0.77074335E+03</rscale>
<asrwt>0</asrwt>
<pdfrwt beam="1">  1        2 0.91582163E-01 0.77074335E+03</pdfrwt>
<pdfrwt beam="2">  1       -2 0.38381503E-01 0.77074335E+03</pdfrwt>
<totfact> 0.32309901E+02</totfact>
</mgrwt>
</event>
<event>
 4    1  0.8362047E-005  0.7042337E+03  0.7818608E-02  0.9710019E-01
         -2   -1    0    0    0  501 -0.00000000000E+00  0.00000000000E+00  0.56711614011E+02  0.56711614068E+02  0.25500000000E-02 0. -1.
          2   -1    0    0  501    0  0.00000000000E+00 -0.00000000000E+00 -0.21862591351E+04  0.21862591351E+04  0.25500000000E-02 0.  1.
    5000001    1    1    2    0    0  0.11447354597E+03 -0.26428432029E+03 -0.69047566407E+03  0.76611489827E+03  0.16500000000E+03 0.  0.
   -5000001    1    1    2    0    0 -0.11447354597E+03  0.26428432029E+03 -0.14390718570E+04  0.14768558509E+04  0.16500000000E+03 0.  0.
<mgrwt>
<rscale>  0 0.70423372E+03</rscale>
<asrwt>0</asrwt>
<pdfrwt beam="1">  1        2 0.33634749E+00 0.70423372E+03</pdfrwt>
<pdfrwt beam="2">  1       -2 0.87248654E-02 0.70423372E+03</pdfrwt>
<totfact> 0.46449358E+02</totfact>
</mgrwt>
</event>
<event>
 4    1  0.8362047E-005  0.5845737E+03  0.7818608E-02  0.9937938E-01
          2   -1    0    0  501    0  0.00000000000E+00  0.00000000000E+00  0.19059406387E+04  0.19059406387E+04  0.25500000000E-02 0.  1.
         -2   -1    0    0    0  501 -0.00000000000E+00 -0.00000000000E+00 -0.44823859925E+02  0.44823859998E+02  0.25500000000E-02 0. -1.
    5000001    1    1    2    0    0  0.10384075687E+03 -0.21530318408E+03  0.10396276778E+04  0.10794392397E+04  0.16500000000E+03 0.  0.
   -5000001    1    1    2    0    0 -0.10384075687E+03  0.21530318408E+03  0.82148910097E+03  0.87132525894E+03  0.16500000000E+03 0.  0.
<mgrwt>
<rscale>  0 0.58457375E+03</rscale>
<asrwt>0</asrwt>
<pdfrwt beam="1">  1        2 0.29322168E+00 0.58457375E+03</pdfrwt>
<pdfrwt beam="2">  1       -2 0.68959774E-02 0.58457375E+03</pdfrwt>
<totfact> 0.96834995E+02</totfact>
</mgrwt>
</event>
<event>
 4    1  0.8362047E-005  0.4795492E+03  0.7818608E-02  0.1019259E+00
          2   -1    0    0  501    0  0.00000000000E+00  0.00000000000E+00  0.16601929070E+03  0.16601929072E+03  0.25500000000E-02 0.  1.
         -2   -1    0    0    0  501 -0.00000000000E+00 -0.00000000000E+00 -0.34629625669E+03  0.34629625670E+03  0.25500000000E-02 0. -1.
    5000001    1    1    2    0    0  0.11968107342E+02 -0.14688945419E+03  0.86290147424E+01  0.22140281669E+03  0.16500000000E+03 0.  0.
   -5000001    1    1    2    0    0 -0.11968107342E+02  0.14688945419E+03 -0.18890598072E+03  0.29091273073E+03  0.16500000000E+03 0.  0.
<mgrwt>
<rscale>  0 0.47954920E+03</rscale>
<asrwt>0</asrwt>
<pdfrwt beam="1">  1        2 0.25541429E-01 0.47954920E+03</pdfrwt>
<pdfrwt beam="2">  1       -2 0.53276347E-01 0.47954920E+03</pdfrwt>
<totfact> 0.71383385E+02</totfact>
</mgrwt>
</event>
<event>
 4    1  0.8362047E-005  0.5368662E+03  0.7818608E-02  0.1004580E+00
          2   -1    0    0  501    0  0.00000000000E+00  0.00000000000E+00  0.22358809749E+03  0.22358809750E+03  0.25500000000E-02 0.  1.
         -2   -1    0    0    0  501 -0.00000000000E+00 -0.00000000000E+00 -0.32227270112E+03  0.32227270113E+03  0.25500000000E-02 0. -1.
    5000001    1    1    2    0    0 -0.90246972021E+02  0.18545542799E+03 -0.98030993286E+02  0.28173268780E+03  0.16500000000E+03 0.  0.
   -5000001    1    1    2    0    0  0.90246972021E+02 -0.18545542799E+03 -0.65361035169E+00  0.26412811084E+03  0.16500000000E+03 0.  0.
<mgrwt>
<rscale>  0 0.53686624E+03</rscale>
<asrwt>0</asrwt>
<pdfrwt beam="1">  1        2 0.34398169E-01 0.53686624E+03</pdfrwt>
<pdfrwt beam="2">  1       -2 0.49580416E-01 0.53686624E+03</pdfrwt>
<totfact> 0.59137401E+02</totfact>
</mgrwt>
</event>
<event>
 4    1  0.8362047E-005  0.4454244E+03  0.7818608E-02  0.1029095E+00
          2   -1    0    0  501    0  0.00000000000E+00  0.00000000000E+00  0.75432132920E+03  0.75432132921E+03  0.25500000000E-02 0.  1.
         -2   -1    0    0    0  501 -0.00000000000E+00 -0.00000000000E+00 -0.65755427821E+02  0.65755427870E+02  0.25500000000E-02 0. -1.
    5000001    1    1    2    0    0 -0.67661435453E+01  0.14930885819E+03  0.35545259289E+03  0.41941681133E+03  0.16500000000E+03 0.  0.
   -5000001    1    1    2    0    0  0.67661435453E+01 -0.14930885819E+03  0.33311330849E+03  0.40065994575E+03  0.16500000000E+03 0.  0.
<mgrwt>
<rscale>  0 0.44542439E+03</rscale>
<asrwt>0</asrwt>
<pdfrwt beam="1">  1        2 0.11604944E+00 0.44542439E+03</pdfrwt>
<pdfrwt beam="2">  1       -2 0.10116220E-01 0.44542439E+03</pdfrwt>
<totfact> 0.25015865E+03</totfact>
</mgrwt>
</event>
<event>
 4    1  0.8362047E-005  0.3641532E+03  0.7818608E-02  0.1056951E+00
          2   -1    0    0  501    0  0.00000000000E+00  0.00000000000E+00  0.96668608974E+03  0.96668608974E+03  0.25500000000E-02 0.  1.
         -2   -1    0    0    0  501 -0.00000000000E+00 -0.00000000000E+00 -0.34294361459E+02  0.34294361554E+02  0.25500000000E-02 0. -1.
    5000001    1    1    2    0    0  0.30610255183E+02  0.18079068842E+02  0.27849072727E+03  0.32564693400E+03  0.16500000000E+03 0.  0.
   -5000001    1    1    2    0    0 -0.30610255183E+02 -0.18079068842E+02  0.65390100101E+03  0.67533351729E+03  0.16500000000E+03 0.  0.
<mgrwt>
<rscale>  0 0.36415317E+03</rscale>
<asrwt>0</asrwt>
<pdfrwt beam="1">  1        2 0.14872092E+00 0.36415317E+03</pdfrwt>
<pdfrwt beam="2">  1       -2 0.52760562E-02 0.36415317E+03</pdfrwt>
<totfact> 0.49888241E+03</totfact>
</mgrwt>
</event>
<event>
 4    1  0.8362047E-005  0.5426587E+03  0.7818608E-02  0.1003208E+00
          2   -1    0    0  501    0  0.00000000000E+00  0.00000000000E+00  0.23582547350E+04  0.23582547350E+04  0.25500000000E-02 0.  1.
         -2   -1    0    0    0  501 -0.00000000000E+00 -0.00000000000E+00 -0.31217843369E+02  0.31217843473E+02  0.25500000000E-02 0. -1.
    5000001    1    1    2    0    0 -0.21295130421E+03 -0.26941498726E+02  0.10846858130E+04  0.11179635125E+04  0.16500000000E+03 0.  0.
   -5000001    1    1    2    0    0  0.21295130421E+03  0.26941498726E+02  0.12423510786E+04  0.12715090660E+04  0.16500000000E+03 0.  0.
<mgrwt>
<rscale>  0 0.54265874E+03</rscale>
<asrwt>0</asrwt>
<pdfrwt beam="1">  1        2 0.36280853E+00 0.54265874E+03</pdfrwt>
<pdfrwt beam="2">  1       -2 0.48027437E-02 0.54265874E+03</pdfrwt>
<totfact> 0.96877180E+02</totfact>
</mgrwt>
</event>
<event>
 4    1  0.8362047E-005  0.3650777E+03  0.7818608E-02  0.1056591E+00
          2   -1    0    0  501    0  0.00000000000E+00  0.00000000000E+00  0.75414391452E+03  0.75414391452E+03  0.25500000000E-02 0.  1.
         -2   -1    0    0    0  501 -0.00000000000E+00 -0.00000000000E+00 -0.44183131668E+02  0.44183131742E+02  0.25500000000E-02 0. -1.
    5000001    1    1    2    0    0 -0.51892879004E+02  0.41014029640E+02  0.26427929827E+03  0.31850207066E+03  0.16500000000E+03 0.  0.
   -5000001    1    1    2    0    0  0.51892879004E+02 -0.41014029640E+02  0.44568148458E+03  0.47982497560E+03  0.16500000000E+03 0.  0.
<mgrwt>
<rscale>  0 0.36507774E+03</rscale>
<asrwt>0</asrwt>
<pdfrwt beam="1">  1        2 0.11602214E+00 0.36507774E+03</pdfrwt>
<pdfrwt beam="2">  1       -2 0.67974051E-02 0.36507774E+03</pdfrwt>
<totfact> 0.46867375E+03</totfact>
</mgrwt>
</event>
<event>
 4    1  0.8362047E-005  0.6433142E+03  0.7818608E-02  0.9819406E-01
          2   -1    0    0  501    0  0.00000000000E+00  0.00000000000E+00  0.22876857656E+04  0.22876857656E+04  0.25500000000E-02 0.  1.
         -2   -1    0    0    0  501 -0.00000000000E+00 -0.00000000000E+00 -0.45226179009E+02  0.45226179080E+02  0.25500000000E-02 0. -1.
    5000001    1    1    2    0    0  0.21849686198E+03 -0.16861459575E+03  0.10916517738E+04  0.11380247606E+04  0.16500000000E+03 0.  0.
   -5000001    1    1    2    0    0 -0.21849686198E+03  0.16861459575E+03  0.11508078128E+04  0.11948871841E+04  0.16500000000E+03 0.  0.
<mgrwt>
<rscale>  0 0.64331419E+03</rscale>
<asrwt>0</asrwt>
<pdfrwt beam="1">  1        2 0.35195164E+00 0.64331419E+03</pdfrwt>
<pdfrwt beam="2">  1       -2 0.69578740E-02 0.64331419E+03</pdfrwt>
<totfact> 0.58889331E+02</totfact>
</mgrwt>
</event>
<event>
 4    1  0.8362047E-005  0.3709486E+03  0.7818608E-02  0.1054331E+00
          2   -1    0    0  501    0  0.00000000000E+00  0.00000000000E+00  0.10870513242E+03  0.10870513245E+03  0.25500000000E-02 0.  1.
         -2   -1    0    0    0  501 -0.00000000000E+00 -0.00000000000E+00 -0.31645892901E+03  0.31645892902E+03  0.25500000000E-02 0. -1.
    5000001    1    1    2    0    0 -0.47802239448E+02 -0.16692435042E+02 -0.18171430549E+03  0.25061679972E+03  0.16500000000E+03 0.  0.
   -5000001    1    1    2    0    0  0.47802239448E+02  0.16692435042E+02 -0.26039491098E+02  0.17454726174E+03  0.16500000000E+03 0.  0.
<mgrwt>
<rscale>  0 0.37094857E+03</rscale>
<asrwt>0</asrwt>
<pdfrwt beam="1">  1        2 0.16723867E-01 0.37094857E+03</pdfrwt>
<pdfrwt beam="2">  1       -2 0.48685989E-01 0.37094857E+03</pdfrwt>
<totfact> 0.13958504E+03</totfact>
</mgrwt>
</event>
<event>
 4    1  0.8362047E-005  0.3906866E+03  0.7818608E-02  0.1047053E+00
         -2   -1    0    0    0  501 -0.00000000000E+00  0.00000000000E+00  0.26417162236E+03  0.26417162237E+03  0.25500000000E-02 0. -1.
          2   -1    0    0  501    0  0.00000000000E+00 -0.00000000000E+00 -0.14444781293E+03  0.14444781295E+03  0.25500000000E-02 0.  1.
    5000001    1    1    2    0    0  0.82767358154E+02 -0.43386386771E+02  0.10893236213E+03  0.21868715932E+03  0.16500000000E+03 0.  0.
   -5000001    1    1    2    0    0 -0.82767358154E+02  0.43386386771E+02  0.10791447299E+02  0.18993227600E+03  0.16500000000E+03 0.  0.
<mgrwt>
<rscale>  0 0.39068664E+03</rscale>
<asrwt>0</asrwt>
<pdfrwt beam="1">  1        2 0.22222741E-01 0.39068664E+03</pdfrwt>
<pdfrwt beam="2">  1       -2 0.40641787E-01 0.39068664E+03</pdfrwt>
<totfact> 0.14308617E+03</totfact>
</mgrwt>
</event>
<event>
 4    1  0.8362047E-005  0.9170933E+03  0.7818608E-02  0.9404463E-01
         -2   -1    0    0    0  501 -0.00000000000E+00  0.00000000000E+00  0.54143569140E+03  0.54143569140E+03  0.25500000000E-02 0. -1.
          2   -1    0    0  501    0  0.00000000000E+00 -0.00000000000E+00 -0.38834715166E+03  0.38834715167E+03  0.25500000000E-02 0.  1.
    5000001    1    1    2    0    0  0.22587866219E+03  0.36326591572E+03  0.84179275857E+02  0.46614852359E+03  0.16500000000E+03 0.  0.
   -5000001    1    1    2    0    0 -0.22587866219E+03 -0.36326591572E+03  0.68909263877E+02  0.46363431949E+03  0.16500000000E+03 0.  0.
<mgrwt>
<rscale>  0 0.91709325E+03</rscale>
<asrwt>0</asrwt>
<pdfrwt beam="1">  1        2 0.59745716E-01 0.91709325E+03</pdfrwt>
<pdfrwt beam="2">  1       -2 0.83297799E-01 0.91709325E+03</pdfrwt>
<totfact> 0.10405220E+02</totfact>
</mgrwt>
</event>
<event>
 4    1  0.8362047E-005  0.6459411E+03  0.7818608E-02  0.9814425E-01
          2   -1    0    0  501    0  0.00000000000E+00  0.00000000000E+00  0.14127425705E+04  0.14127425705E+04  0.25500000000E-02 0.  1.
         -2   -1    0    0    0  501 -0.00000000000E+00 -0.00000000000E+00 -0.73835086578E+02  0.73835086622E+02  0.25500000000E-02 0. -1.
    5000001    1    1    2    0    0 -0.82417147410E+02  0.25972592880E+03  0.54691938379E+03  0.63292650177E+03  0.16500000000E+03 0.  0.
   -5000001    1    1    2    0    0  0.82417147410E+02 -0.25972592880E+03  0.79198810009E+03  0.85365115531E+03  0.16500000000E+03 0.  0.
<mgrwt>
<rscale>  0 0.64594108E+03</rscale>
<asrwt>0</asrwt>
<pdfrwt beam="1">  1        2 0.21734498E+00 0.64594108E+03</pdfrwt>
<pdfrwt beam="2">  1       -2 0.11359246E-01 0.64594108E+03</pdfrwt>
<totfact> 0.80490889E+02</totfact>
</mgrwt>
</event>
<event>
 4    1  0.8362047E-005  0.6772087E+03  0.7818608E-02  0.9757022E-01
          2   -1    0    0  501    0  0.00000000000E+00  0.00000000000E+00  0.33147134644E+03  0.33147134645E+03  0.25500000000E-02 0.  1.
         -2   -1    0    0    0  501 -0.00000000000E+00 -0.00000000000E+00 -0.34589089711E+03  0.34589089712E+03  0.25500000000E-02 0. -1.
    5000001    1    1    2    0    0  0.19039466710E+03 -0.23073093233E+02 -0.23230616783E+03  0.34347292834E+03  0.16500000000E+03 0.  0.
   -5000001    1    1    2    0    0 -0.19039466710E+03  0.23073093233E+02  0.21788661716E+03  0.33388931524E+03  0.16500000000E+03 0.  0.
<mgrwt>
<rscale>  0 0.67720875E+03</rscale>
<asrwt>0</asrwt>
<pdfrwt beam="1">  1        2 0.50995592E-01 0.67720875E+03</pdfrwt>
<pdfrwt beam="2">  1       -2 0.53213984E-01 0.67720875E+03</pdfrwt>
<totfact> 0.33012265E+02</totfact>
</mgrwt>
</event>
<event>
 4    1  0.8362047E-005  0.6116062E+03  0.7818608E-02  0.9881615E-01
         -2   -1    0    0    0  501 -0.00000000000E+00  0.00000000000E+00  0.59065323923E+02  0.59065323978E+02  0.25500000000E-02 0. -1.
          2   -1    0    0  501    0  0.00000000000E+00 -0.00000000000E+00 -0.15832558911E+04  0.15832558911E+04  0.25500000000E-02 0.  1.
    5000001    1    1    2    0    0  0.18715105866E+03  0.12650843592E+03 -0.10938157983E+04  0.11290207721E+04  0.16500000000E+03 0.  0.
   -5000001    1    1    2    0    0 -0.18715105866E+03 -0.12650843592E+03 -0.43037476882E+03  0.51330044297E+03  0.16500000000E+03 0.  0.
<mgrwt>
<rscale>  0 0.61160615E+03</rscale>
<asrwt>0</asrwt>
<pdfrwt beam="1">  1        2 0.24357780E+00 0.61160615E+03</pdfrwt>
<pdfrwt beam="2">  1       -2 0.90869741E-02 0.61160615E+03</pdfrwt>
<totfact> 0.93232323E+02</totfact>
</mgrwt>
</event>
<event>
 4    1  0.8362047E-005  0.9169706E+03  0.7818608E-02  0.9404613E-01
          2   -1    0    0  501    0  0.00000000000E+00  0.00000000000E+00  0.47533402660E+03  0.47533402660E+03  0.25500000000E-02 0.  1.
         -2   -1    0    0    0  501 -0.00000000000E+00 -0.00000000000E+00 -0.44223377229E+03  0.44223377230E+03  0.25500000000E-02 0. -1.
    5000001    1    1    2    0    0  0.32086465872E+03  0.54898232781E+02 -0.26114785238E+03  0.44876624871E+03  0.16500000000E+03 0.  0.
   -5000001    1    1    2    0    0 -0.32086465872E+03 -0.54898232781E+02  0.29424810668E+03  0.46880155019E+03  0.16500000000E+03 0.  0.
<mgrwt>
<rscale>  0 0.91697058E+03</rscale>
<asrwt>0</asrwt>
<pdfrwt beam="1">  1        2 0.73128312E-01 0.91697058E+03</pdfrwt>
<pdfrwt beam="2">  1       -2 0.68035965E-01 0.91697058E+03</pdfrwt>
<totfact> 0.12958318E+02</totfact>
</mgrwt>
</event>
<event>
 4    1  0.8362047E-005  0.6870636E+03  0.7818608E-02  0.9739614E-01
         -2   -1    0    0    0  501 -0.00000000000E+00  0.00000000000E+00  0.15279523598E+03  0.15279523601E+03  0.25500000000E-02 0. -1.
          2   -1    0    0  501    0  0.00000000000E+00 -0.00000000000E+00 -0.77236768786E+03  0.77236768786E+03  0.25500000000E-02 0.  1.
    5000001    1    1    2    0    0  0.80814121996E+02 -0.28924193754E+03 -0.34269495634E+03  0.48462011292E+03  0.16500000000E+03 0.  0.
   -5000001    1    1    2    0    0 -0.80814121996E+02  0.28924193754E+03 -0.27687749553E+03  0.44054281094E+03  0.16500000000E+03 0.  0.
<mgrwt>
<rscale>  0 0.68706362E+03</rscale>
<asrwt>0</asrwt>
<pdfrwt beam="1">  1        2 0.11882580E+00 0.68706362E+03</pdfrwt>
<pdfrwt beam="2">  1       -2 0.23506960E-01 0.68706362E+03</pdfrwt>
<totfact> 0.58143911E+02</totfact>
</mgrwt>
</event>
<event>
 4    1  0.8362047E-005  0.4349304E+03  0.7818608E-02  0.1032314E+00
         -2   -1    0    0    0  501 -0.00000000000E+00  0.00000000000E+00  0.27747710416E+02  0.27747710533E+02  0.25500000000E-02 0. -1.
          2   -1    0    0  501    0  0.00000000000E+00 -0.00000000000E+00 -0.17043247279E+04  0.17043247279E+04  0.25500000000E-02 0.  1.
    5000001    1    1    2    0    0 -0.94681961189E+02  0.71286078229E+02 -0.11472716796E+04  0.11651196014E+04  0.16500000000E+03 0.  0.
   -5000001    1    1    2    0    0  0.94681961189E+02 -0.71286078229E+02 -0.52930533789E+03  0.56695283705E+03  0.16500000000E+03 0.  0.
<mgrwt>
<rscale>  0 0.43493038E+03</rscale>
<asrwt>0</asrwt>
<pdfrwt beam="1">  1        2 0.26220372E+00 0.43493038E+03</pdfrwt>
<pdfrwt beam="2">  1       -2 0.42688799E-02 0.43493038E+03</pdfrwt>
<totfact> 0.26363357E+03</totfact>
</mgrwt>
</event>
<event>
 4    1  0.8362047E-005  0.5701059E+03  0.7818608E-02  0.9969444E-01
          2   -1    0    0  501    0  0.00000000000E+00  0.00000000000E+00  0.11456008940E+03  0.11456008943E+03  0.25500000000E-02 0.  1.
         -2   -1    0    0    0  501 -0.00000000000E+00 -0.00000000000E+00 -0.70928015556E+03  0.70928015556E+03  0.25500000000E-02 0. -1.
    5000001    1    1    2    0    0  0.13766778658E+01 -0.23157086317E+03 -0.26834198280E+03  0.39097235151E+03  0.16500000000E+03 0.  0.
   -5000001    1    1    2    0    0 -0.13766778658E+01  0.23157086317E+03 -0.32637808336E+03  0.43286789348E+03  0.16500000000E+03 0.  0.
<mgrwt>
<rscale>  0 0.57010595E+03</rscale>
<asrwt>0</asrwt>
<pdfrwt beam="1">  1        2 0.17624630E-01 0.57010595E+03</pdfrwt>
<pdfrwt beam="2">  1       -2 0.10912002E+00 0.57010595E+03</pdfrwt>
<totfact> 0.22403591E+02</totfact>
</mgrwt>
</event>
<event>
 4    1  0.8362047E-005  0.6133597E+03  0.7818608E-02  0.9878070E-01
         -2   -1    0    0    0  501 -0.00000000000E+00  0.00000000000E+00  0.11600669762E+03  0.11600669765E+03  0.25500000000E-02 0. -1.
          2   -1    0    0  501    0  0.00000000000E+00 -0.00000000000E+00 -0.81075090151E+03  0.81075090151E+03  0.25500000000E-02 0.  1.
    5000001    1    1    2    0    0  0.18686591539E+03  0.13543673777E+03 -0.17138952125E+03  0.33145338777E+03  0.16500000000E+03 0.  0.
   -5000001    1    1    2    0    0 -0.18686591539E+03 -0.13543673777E+03 -0.52335468263E+03  0.59530421139E+03  0.16500000000E+03 0.  0.
<mgrwt>
<rscale>  0 0.61335971E+03</rscale>
<asrwt>0</asrwt>
<pdfrwt beam="1">  1        2 0.12473090E+00 0.61335971E+03</pdfrwt>
<pdfrwt beam="2">  1       -2 0.17847185E-01 0.61335971E+03</pdfrwt>
<totfact> 0.88557769E+02</totfact>
</mgrwt>
</event>
<event>
 4    1  0.8362047E-005  0.4607498E+03  0.7818608E-02  0.1024564E+00
          2   -1    0    0  501    0  0.00000000000E+00  0.00000000000E+00  0.23201362456E+04  0.23201362456E+04  0.25500000000E-02 0.  1.
         -2   -1    0    0    0  501 -0.00000000000E+00 -0.00000000000E+00 -0.22874776220E+02  0.22874776363E+02  0.25500000000E-02 0. -1.
    5000001    1    1    2    0    0  0.14087857436E+03  0.54841264372E+02  0.87041516663E+03  0.89872237053E+03  0.16500000000E+03 0.  0.
   -5000001    1    1    2    0    0 -0.14087857436E+03 -0.54841264372E+02  0.14268463028E+04  0.14442886514E+04  0.16500000000E+03 0.  0.
<mgrwt>
<rscale>  0 0.46074981E+03</rscale>
<asrwt>0</asrwt>
<pdfrwt beam="1">  1        2 0.35694396E+00 0.46074981E+03</pdfrwt>
<pdfrwt beam="2">  1       -2 0.35191972E-02 0.46074981E+03</pdfrwt>
<totfact> 0.16472874E+03</totfact>
</mgrwt>
</event>
<event>
 4    1  0.8362047E-005  0.5151095E+03  0.7818608E-02  0.1009909E+00
          2   -1    0    0  501    0  0.00000000000E+00  0.00000000000E+00  0.51932672033E+03  0.51932672034E+03  0.25500000000E-02 0.  1.
         -2   -1    0    0    0  501 -0.00000000000E+00 -0.00000000000E+00 -0.12773161859E+03  0.12773161862E+03  0.25500000000E-02 0. -1.
    5000001    1    1    2    0    0  0.11356347771E+03 -0.16164583377E+03  0.18432563053E+03  0.31658644493E+03  0.16500000000E+03 0.  0.
   -5000001    1    1    2    0    0 -0.11356347771E+03  0.16164583377E+03  0.20726947120E+03  0.33047189402E+03  0.16500000000E+03 0.  0.
<mgrwt>
<rscale>  0 0.51510947E+03</rscale>
<asrwt>0</asrwt>
<pdfrwt beam="1">  1        2 0.79896418E-01 0.51510947E+03</pdfrwt>
<pdfrwt beam="2">  1       -2 0.19651018E-01 0.51510947E+03</pdfrwt>
<totfact> 0.12971990E+03</totfact>
</mgrwt>
</event>
<event>
 4    1  0.8362047E-005  0.4502891E+03  0.7818608E-02  0.1027636E+00
         -2   -1    0    0    0  501 -0.00000000000E+00  0.00000000000E+00  0.36968387688E+03  0.36968387689E+03  0.25500000000E-02 0. -1.
          2   -1    0    0  501    0  0.00000000000E+00 -0.00000000000E+00 -0.13711732475E+03  0.13711732478E+03  0.25500000000E-02 0.  1.
    5000001    1    1    2    0    0  0.55815633861E+02 -0.13903795617E+03  0.15219588677E+03  0.26988057764E+03  0.16500000000E+03 0.  0.
   -5000001    1    1    2    0    0 -0.55815633861E+02  0.13903795617E+03  0.80370665357E+02  0.23692062402E+03  0.16500000000E+03 0.  0.
<mgrwt>
<rscale>  0 0.45028908E+03</rscale>
<asrwt>0</asrwt>
<pdfrwt beam="1">  1        2 0.21094973E-01 0.45028908E+03</pdfrwt>
<pdfrwt beam="2">  1       -2 0.56874442E-01 0.45028908E+03</pdfrwt>
<totfact> 0.77680802E+02</totfact>
</mgrwt>
</event>
<event>
 4    1  0.8362047E-005  0.4532234E+03  0.7818608E-02  0.1026765E+00
          2   -1    0    0  501    0  0.00000000000E+00  0.00000000000E+00  0.28741340916E+03  0.28741340917E+03  0.25500000000E-02 0.  1.
         -2   -1    0    0    0  501 -0.00000000000E+00 -0.00000000000E+00 -0.17867246061E+03  0.17867246062E+03  0.25500000000E-02 0. -1.
    5000001    1    1    2    0    0  0.13580489046E+03 -0.47595665442E+02  0.11450692678E+03  0.24707317119E+03  0.16500000000E+03 0.  0.
   -5000001    1    1    2    0    0 -0.13580489046E+03  0.47595665442E+02 -0.57659782269E+01  0.21901269860E+03  0.16500000000E+03 0.  0.
<mgrwt>
<rscale>  0 0.45322339E+03</rscale>
<asrwt>0</asrwt>
<pdfrwt beam="1">  1        2 0.44217448E-01 0.45322339E+03</pdfrwt>
<pdfrwt beam="2">  1       -2 0.27488071E-01 0.45322339E+03</pdfrwt>
<totfact> 0.13833143E+03</totfact>
</mgrwt>
</event>
<event>
 4    1  0.8362047E-005  0.4216106E+03  0.7818608E-02  0.1036543E+00
          2   -1    0    0  501    0  0.00000000000E+00  0.00000000000E+00  0.65215010232E+03  0.65215010232E+03  0.25500000000E-02 0.  1.
         -2   -1    0    0    0  501 -0.00000000000E+00 -0.00000000000E+00 -0.68142094023E+02  0.68142094071E+02  0.25500000000E-02 0. -1.
    5000001    1    1    2    0    0  0.10986526302E+02 -0.77967854083E+02  0.11270686988E+03  0.21477320259E+03  0.16500000000E+03 0.  0.
   -5000001    1    1    2    0    0 -0.10986526302E+02  0.77967854083E+02  0.47130113841E+03  0.50551899381E+03  0.16500000000E+03 0.  0.
<mgrwt>
<rscale>  0 0.42161060E+03</rscale>
<asrwt>0</asrwt>
<pdfrwt beam="1">  1        2 0.10033079E+00 0.42161060E+03</pdfrwt>
<pdfrwt beam="2">  1       -2 0.10483399E-01 0.42161060E+03</pdfrwt>
<totfact> 0.28273452E+03</totfact>
</mgrwt>
</event>
<event>
 4    1  0.8362047E-005  0.9809032E+03  0.7818608E-02  0.9329741E-01
         -2   -1    0    0    0  501 -0.00000000000E+00  0.00000000000E+00  0.15289532986E+03  0.15289532988E+03  0.25500000000E-02 0. -1.
          2   -1    0    0  501    0  0.00000000000E+00 -0.00000000000E+00 -0.15732511295E+04  0.15732511295E+04  0.25500000000E-02 0.  1.
    5000001    1    1    2    0    0 -0.10232055722E+02 -0.33370366820E+03 -0.14855797106E+03  0.40094551238E+03  0.16500000000E+03 0.  0.
   -5000001    1    1    2    0    0  0.10232055722E+02  0.33370366820E+03 -0.12717978286E+04  0.13252009470E+04  0.16500000000E+03 0.  0.
<mgrwt>
<rscale>  0 0.98090316E+03</rscale>
<asrwt>0</asrwt>
<pdfrwt beam="1">  1        2 0.24203862E+00 0.98090316E+03</pdfrwt>
<pdfrwt beam="2">  1       -2 0.23522360E-01 0.98090316E+03</pdfrwt>
<totfact> 0.18469781E+02</totfact>
</mgrwt>
</event>
<event>
 4    1  0.8362047E-005  0.8079129E+03  0.7818608E-02  0.9548634E-01
          2   -1    0    0  501    0  0.00000000000E+00  0.00000000000E+00  0.21685267564E+04  0.21685267564E+04  0.25500000000E-02 0.  1.
         -2   -1    0    0    0  501 -0.00000000000E+00 -0.00000000000E+00 -0.75249614663E+02  0.75249614706E+02  0.25500000000E-02 0. -1.
    5000001    1    1    2    0    0  0.29117880070E+03 -0.21349178900E+03  0.12543198071E+04  0.13156393945E+04  0.16500000000E+03 0.  0.
   -5000001    1    1    2    0    0 -0.29117880070E+03  0.21349178900E+03  0.83895733464E+03  0.92813697658E+03  0.16500000000E+03 0.  0.
<mgrwt>
<rscale>  0 0.80791287E+03</rscale>
<asrwt>0</asrwt>
<pdfrwt beam="1">  1        2 0.33361951E+00 0.80791287E+03</pdfrwt>
<pdfrwt beam="2">  1       -2 0.11576863E-01 0.80791287E+03</pdfrwt>
<totfact> 0.29719463E+02</totfact>
</mgrwt>
</event>
<event>
 4    1  0.8362047E-005  0.5564026E+03  0.7818608E-02  0.1000023E+00
          2   -1    0    0  501    0  0.00000000000E+00  0.00000000000E+00  0.23476219233E+03  0.23476219234E+03  0.25500000000E-02 0.  1.
         -2   -1    0    0    0  501 -0.00000000000E+00 -0.00000000000E+00 -0.32967808883E+03  0.32967808884E+03  0.25500000000E-02 0. -1.
    5000001    1    1    2    0    0  0.17406755997E+03 -0.13081637118E+03  0.58223149893E+01  0.27326056751E+03  0.16500000000E+03 0.  0.
   -5000001    1    1    2    0    0 -0.17406755997E+03  0.13081637118E+03 -0.10073821149E+03  0.29117971368E+03  0.16500000000E+03 0.  0.
<mgrwt>
<rscale>  0 0.55640256E+03</rscale>
<asrwt>0</asrwt>
<pdfrwt beam="1">  1        2 0.36117261E-01 0.55640256E+03</pdfrwt>
<pdfrwt beam="2">  1       -2 0.50719706E-01 0.55640256E+03</pdfrwt>
<totfact> 0.53488440E+02</totfact>
</mgrwt>
</event>
<event>
 4    1  0.8362047E-005  0.4670655E+03  0.7818608E-02  0.1022752E+00
         -2   -1    0    0    0  501 -0.00000000000E+00  0.00000000000E+00  0.57832397256E+02  0.57832397313E+02  0.25500000000E-02 0.  1.
          2   -1    0    0  501    0  0.00000000000E+00 -0.00000000000E+00 -0.94302777129E+03  0.94302777129E+03  0.25500000000E-02 0. -1.
    5000001    1    1    2    0    0 -0.15220886717E+03  0.62810816855E+02 -0.41230668043E+03  0.47363966967E+03  0.16500000000E+03 0.  0.
   -5000001    1    1    2    0    0  0.15220886717E+03 -0.62810816855E+02 -0.47288869361E+03  0.52722049894E+03  0.16500000000E+03 0.  0.
<mgrwt>
<rscale>  0 0.46706555E+03</rscale>
<asrwt>0</asrwt>
<pdfrwt beam="1">  1        2 0.14508118E+00 0.46706555E+03</pdfrwt>
<pdfrwt beam="2">  1       -2 0.88972926E-02 0.46706555E+03</pdfrwt>
<totfact> 0.22835125E+03</totfact>
</mgrwt>
</event>
<event>
 4    1  0.8362047E-005  0.5016687E+03  0.7818608E-02  0.1013344E+00
         -2   -1    0    0    0  501 -0.00000000000E+00  0.00000000000E+00  0.30195490357E+02  0.30195490464E+02  0.25500000000E-02 0. -1.
          2   -1    0    0  501    0  0.00000000000E+00 -0.00000000000E+00 -0.20836844462E+04  0.20836844462E+04  0.25500000000E-02 0.  1.
    5000001    1    1    2    0    0 -0.15840512138E+03  0.94711596304E+02 -0.85660267911E+03  0.89165891394E+03  0.16500000000E+03 0.  0.
   -5000001    1    1    2    0    0  0.15840512138E+03 -0.94711596304E+02 -0.11968862767E+04  0.12222210227E+04  0.16500000000E+03 0.  0.
<mgrwt>
<rscale>  0 0.50166871E+03</rscale>
<asrwt>0</asrwt>
<pdfrwt beam="1">  1        2 0.32056672E+00 0.50166871E+03</pdfrwt>
<pdfrwt beam="2">  1       -2 0.46454617E-02 0.50166871E+03</pdfrwt>
<totfact> 0.14443074E+03</totfact>
</mgrwt>
</event>
<event>
 4    1  0.8362047E-005  0.4437145E+03  0.7818608E-02  0.1029613E+00
          2   -1    0    0  501    0  0.00000000000E+00  0.00000000000E+00  0.21225205886E+03  0.21225205888E+03  0.25500000000E-02 0.  1.
         -2   -1    0    0    0  501 -0.00000000000E+00 -0.00000000000E+00 -0.23189711230E+03  0.23189711232E+03  0.25500000000E-02 0. -1.
    5000001    1    1    2    0    0  0.49966686012E+02  0.13955034193E+03 -0.48505800207E+01  0.22185467264E+03  0.16500000000E+03 0.  0.
   -5000001    1    1    2    0    0 -0.49966686012E+02 -0.13955034193E+03 -0.14794473419E+02  0.22229449856E+03  0.16500000000E+03 0.  0.
<mgrwt>
<rscale>  0 0.44371450E+03</rscale>
<asrwt>0</asrwt>
<pdfrwt beam="1">  1        2 0.32654163E-01 0.44371450E+03</pdfrwt>
<pdfrwt beam="2">  1       -2 0.35676479E-01 0.44371450E+03</pdfrwt>
<totfact> 0.11916889E+03</totfact>
</mgrwt>
</event>
<event>
 4    1  0.8362047E-005  0.5123078E+03  0.7818608E-02  0.1010615E+00
          2   -1    0    0  501    0  0.00000000000E+00  0.00000000000E+00  0.11143425864E+04  0.11143425864E+04  0.25500000000E-02 0.  1.
         -2   -1    0    0    0  501 -0.00000000000E+00 -0.00000000000E+00 -0.58882099377E+02  0.58882099432E+02  0.25500000000E-02 0. -1.
    5000001    1    1    2    0    0  0.17973788879E+03 -0.17358303552E+02  0.35358175455E+03  0.42994427141E+03  0.16500000000E+03 0.  0.
   -5000001    1    1    2    0    0 -0.17973788879E+03  0.17358303552E+02  0.70187873244E+03  0.74328041439E+03  0.16500000000E+03 0.  0.
<mgrwt>
<rscale>  0 0.51230784E+03</rscale>
<asrwt>0</asrwt>
<pdfrwt beam="1">  1        2 0.17143730E+00 0.51230784E+03</pdfrwt>
<pdfrwt beam="2">  1       -2 0.90587857E-02 0.51230784E+03</pdfrwt>
<totfact> 0.17359714E+03</totfact>
</mgrwt>
</event>
<event>
 4    1  0.8362047E-005  0.3784748E+03  0.7818608E-02  0.1051499E+00
          2   -1    0    0  501    0  0.00000000000E+00  0.00000000000E+00  0.13620641086E+03  0.13620641088E+03  0.25500000000E-02 0.  1.
         -2   -1    0    0    0  501 -0.00000000000E+00 -0.00000000000E+00 -0.26291556006E+03  0.26291556007E+03  0.25500000000E-02 0. -1.
    5000001    1    1    2    0    0  0.80820500596E+02  0.30514872421E+02 -0.98688798937E+02  0.21077853257E+03  0.16500000000E+03 0.  0.
   -5000001    1    1    2    0    0 -0.80820500596E+02 -0.30514872421E+02 -0.28020350263E+02  0.18834343839E+03  0.16500000000E+03 0.  0.
<mgrwt>
<rscale>  0 0.37847475E+03</rscale>
<asrwt>0</asrwt>
<pdfrwt beam="1">  1        2 0.20954833E-01 0.37847475E+03</pdfrwt>
<pdfrwt beam="2">  1       -2 0.40448547E-01 0.37847475E+03</pdfrwt>
<totfact> 0.15442043E+03</totfact>
</mgrwt>
</event>
<event>
 4    1  0.8362047E-005  0.8434458E+03  0.7818608E-02  0.9499176E-01
         -2   -1    0    0    0  501 -0.00000000000E+00  0.00000000000E+00  0.19710066253E+03  0.19710066254E+03  0.25500000000E-02 0. -1.
          2   -1    0    0  501    0  0.00000000000E+00 -0.00000000000E+00 -0.90233186314E+03  0.90233186314E+03  0.25500000000E-02 0.  1.
    5000001    1    1    2    0    0  0.59028408730E+02 -0.33299495430E+03 -0.10441853527E+03  0.39051020875E+03  0.16500000000E+03 0.  0.
   -5000001    1    1    2    0    0 -0.59028408730E+02  0.33299495430E+03 -0.60081266534E+03  0.70892231694E+03  0.16500000000E+03 0.  0.
<mgrwt>
<rscale>  0 0.84344581E+03</rscale>
<asrwt>0</asrwt>
<pdfrwt beam="1">  1        2 0.13882028E+00 0.84344581E+03</pdfrwt>
<pdfrwt beam="2">  1       -2 0.30323179E-01 0.84344581E+03</pdfrwt>
<totfact> 0.29455269E+02</totfact>
</mgrwt>
</event>
<event>
 4    1  0.8362047E-005  0.5500495E+03  0.7818608E-02  0.1001482E+00
          2   -1    0    0  501    0  0.00000000000E+00  0.00000000000E+00  0.23605269089E+04  0.23605269089E+04  0.25500000000E-02 0.  1.
         -2   -1    0    0    0  501 -0.00000000000E+00 -0.00000000000E+00 -0.32043108181E+02  0.32043108282E+02  0.25500000000E-02 0. -1.
    5000001    1    1    2    0    0 -0.21293524789E+03  0.50812505095E+02  0.12605557701E+04  0.12900190619E+04  0.16500000000E+03 0.  0.
   -5000001    1    1    2    0    0  0.21293524789E+03 -0.50812505095E+02  0.10679280306E+04  0.11025509553E+04  0.16500000000E+03 0.  0.
<mgrwt>
<rscale>  0 0.55004952E+03</rscale>
<asrwt>0</asrwt>
<pdfrwt beam="1">  1        2 0.36315810E+00 0.55004952E+03</pdfrwt>
<pdfrwt beam="2">  1       -2 0.49297074E-02 0.55004952E+03</pdfrwt>
<totfact> 0.92721779E+02</totfact>
</mgrwt>
</event>
<event>
 4    1  0.8362047E-005  0.3803996E+03  0.7818608E-02  0.1050786E+00
          2   -1    0    0  501    0  0.00000000000E+00  0.00000000000E+00  0.67281292354E+03  0.67281292354E+03  0.25500000000E-02 0.  1.
         -2   -1    0    0    0  501 -0.00000000000E+00 -0.00000000000E+00 -0.53768230586E+02  0.53768230647E+02  0.25500000000E-02 0. -1.
    5000001    1    1    2    0    0 -0.51139740449E+02  0.29722549849E+02  0.16848560212E+03  0.24312774655E+03  0.16500000000E+03 0.  0.
   -5000001    1    1    2    0    0  0.51139740449E+02 -0.29722549849E+02  0.45055909083E+03  0.48345340764E+03  0.16500000000E+03 0.  0.
<mgrwt>
<rscale>  0 0.38039958E+03</rscale>
<asrwt>0</asrwt>
<pdfrwt beam="1">  1        2 0.10350969E+00 0.38039958E+03</pdfrwt>
<pdfrwt beam="2">  1       -2 0.82720350E-02 0.38039958E+03</pdfrwt>
<totfact> 0.39690057E+03</totfact>
</mgrwt>
</event>
<event>
 4    1  0.8362047E-005  0.4723343E+03  0.7818608E-02  0.1021263E+00
          2   -1    0    0  501    0  0.00000000000E+00  0.00000000000E+00  0.36313485656E+04  0.36313485656E+04  0.25500000000E-02 0.  1.
         -2   -1    0    0    0  501 -0.00000000000E+00 -0.00000000000E+00 -0.15359284069E+02  0.15359284280E+02  0.25500000000E-02 0. -1.
    5000001    1    1    2    0    0 -0.19921267428E+02  0.16048771975E+03  0.14300198463E+04  0.14485630555E+04  0.16500000000E+03 0.  0.
   -5000001    1    1    2    0    0  0.19921267428E+02 -0.16048771975E+03  0.21859694353E+04  0.21981447944E+04  0.16500000000E+03 0.  0.
<mgrwt>
<rscale>  0 0.47233427E+03</rscale>
<asrwt>0</asrwt>
<pdfrwt beam="1">  1        2 0.55866845E+00 0.47233427E+03</pdfrwt>
<pdfrwt beam="2">  1       -2 0.23629692E-02 0.47233427E+03</pdfrwt>
<totfact> 0.47917667E+02</totfact>
</mgrwt>
</event>
<event>
 4    1  0.8362047E-005  0.4646226E+03  0.7818608E-02  0.1023449E+00
          2   -1    0    0  501    0  0.00000000000E+00  0.00000000000E+00  0.24949306991E+04  0.24949306991E+04  0.25500000000E-02 0.  1.
         -2   -1    0    0    0  501 -0.00000000000E+00 -0.00000000000E+00 -0.21631276536E+02  0.21631276687E+02  0.25500000000E-02 0. -1.
    5000001    1    1    2    0    0 -0.15974969355E+03 -0.16070144519E+02  0.14049339358E+04  0.14236722158E+04  0.16500000000E+03 0.  0.
   -5000001    1    1    2    0    0  0.15974969355E+03  0.16070144519E+02  0.10683654868E+04  0.10928897600E+04  0.16500000000E+03 0.  0.
<mgrwt>
<rscale>  0 0.46462258E+03</rscale>
<asrwt>0</asrwt>
<pdfrwt beam="1">  1        2 0.38383555E+00 0.46462258E+03</pdfrwt>
<pdfrwt beam="2">  1       -2 0.33278882E-02 0.46462258E+03</pdfrwt>
<totfact> 0.14351493E+03</totfact>
</mgrwt>
</event>
<event>
 4    1  0.8362047E-005  0.8420879E+03  0.7818608E-02  0.9501018E-01
          2   -1    0    0  501    0  0.00000000000E+00  0.00000000000E+00  0.43829661065E+04  0.43829661065E+04  0.25500000000E-02 0.  1.
         -2   -1    0    0    0  501 -0.00000000000E+00 -0.00000000000E+00 -0.40447040817E+02  0.40447040897E+02  0.25500000000E-02 0. -1.
    5000001    1    1    2    0    0 -0.38686426856E+03  0.17651646987E+02  0.22174929892E+04  0.22570945261E+04  0.16500000000E+03 0.  0.
   -5000001    1    1    2    0    0  0.38686426856E+03 -0.17651646987E+02  0.21250260765E+04  0.21663186213E+04  0.16500000000E+03 0.  0.
<mgrwt>
<rscale>  0 0.84208790E+03</rscale>
<asrwt>0</asrwt>
<pdfrwt beam="1">  1        2 0.67430233E+00 0.84208790E+03</pdfrwt>
<pdfrwt beam="2">  1       -2 0.62226230E-02 0.84208790E+03</pdfrwt>
<totfact> 0.25822128E+01</totfact>
</mgrwt>
</event>
<event>
 4    1  0.8362047E-005  0.6101889E+03  0.7818608E-02  0.9884490E-01
         -2   -1    0    0    0  501 -0.00000000000E+00  0.00000000000E+00  0.80418849514E+02  0.80418849554E+02  0.25500000000E-02 0. -1.
          2   -1    0    0  501    0  0.00000000000E+00 -0.00000000000E+00 -0.11574726826E+04  0.11574726826E+04  0.25500000000E-02 0.  1.
    5000001    1    1    2    0    0 -0.24464756759E+02  0.22063719317E+03 -0.27731761765E+03  0.39167506481E+03  0.16500000000E+03 0.  0.
   -5000001    1    1    2    0    0  0.24464756759E+02 -0.22063719317E+03 -0.79973621549E+03  0.84621646740E+03  0.16500000000E+03 0.  0.
<mgrwt>
<rscale>  0 0.61018889E+03</rscale>
<asrwt>0</asrwt>
<pdfrwt beam="1">  1        2 0.17807271E+00 0.61018889E+03</pdfrwt>
<pdfrwt beam="2">  1       -2 0.12372132E-01 0.61018889E+03</pdfrwt>
<totfact> 0.98254612E+02</totfact>
</mgrwt>
</event>
<event>
 4    1  0.8362047E-005  0.3888485E+03  0.7818608E-02  0.1047711E+00
          2   -1    0    0  501    0  0.00000000000E+00  0.00000000000E+00  0.63042949729E+03  0.63042949729E+03  0.25500000000E-02 0.  1.
         -2   -1    0    0    0  501 -0.00000000000E+00 -0.00000000000E+00 -0.59960389016E+02  0.59960389070E+02  0.25500000000E-02 0. -1.
    5000001    1    1    2    0    0  0.16865903498E+02 -0.30433976285E+02  0.11341585112E+03  0.20322116253E+03  0.16500000000E+03 0.  0.
   -5000001    1    1    2    0    0 -0.16865903498E+02  0.30433976285E+02  0.45705325715E+03  0.48716872384E+03  0.16500000000E+03 0.  0.
<mgrwt>
<rscale>  0 0.38884855E+03</rscale>
<asrwt>0</asrwt>
<pdfrwt beam="1">  1        2 0.96989157E-01 0.38884855E+03</pdfrwt>
<pdfrwt beam="2">  1       -2 0.92246749E-02 0.38884855E+03</pdfrwt>
<totfact> 0.36119220E+03</totfact>
</mgrwt>
</event>
<event>
 4    1  0.8362047E-005  0.9847559E+03  0.7818608E-02  0.9325424E-01
          2   -1    0    0  501    0  0.00000000000E+00  0.00000000000E+00  0.12991579249E+04  0.12991579249E+04  0.25500000000E-02 0.  1.
         -2   -1    0    0    0  501 -0.00000000000E+00 -0.00000000000E+00 -0.18661014423E+03  0.18661014425E+03  0.25500000000E-02 0. -1.
    5000001    1    1    2    0    0 -0.63079883211E+02 -0.45941942173E+03  0.53684818791E+03  0.72833800779E+03  0.16500000000E+03 0.  0.
   -5000001    1    1    2    0    0  0.63079883211E+02  0.45941942173E+03  0.57569959272E+03  0.75743006132E+03  0.16500000000E+03 0.  0.
<mgrwt>
<rscale>  0 0.98475590E+03</rscale>
<asrwt>0</asrwt>
<pdfrwt beam="1">  1        2 0.19987045E+00 0.98475590E+03</pdfrwt>
<pdfrwt beam="2">  1       -2 0.28709253E-01 0.98475590E+03</pdfrwt>
<totfact> 0.18377014E+02</totfact>
</mgrwt>
</event>
<event>
 4    1  0.8362047E-005  0.6724101E+03  0.7818608E-02  0.9765614E-01
         -2   -1    0    0    0  501 -0.00000000000E+00  0.00000000000E+00  0.32199851024E+03  0.32199851025E+03  0.25500000000E-02 0. -1.
          2   -1    0    0  501    0  0.00000000000E+00 -0.00000000000E+00 -0.35103835427E+03  0.35103835428E+03  0.25500000000E-02 0.  1.
    5000001    1    1    2    0    0  0.25265314627E+03 -0.84832157311E+02 -0.13620100031E+03  0.34176866404E+03  0.16500000000E+03 0.  0.
   -5000001    1    1    2    0    0 -0.25265314627E+03  0.84832157311E+02  0.10716115628E+03  0.33126820048E+03  0.16500000000E+03 0.  0.
<mgrwt>
<rscale>  0 0.67241007E+03</rscale>
<asrwt>0</asrwt>
<pdfrwt beam="1">  1        2 0.54005901E-01 0.67241007E+03</pdfrwt>
<pdfrwt beam="2">  1       -2 0.49538232E-01 0.67241007E+03</pdfrwt>
<totfact> 0.35851846E+02</totfact>
</mgrwt>
</event>
<event>
 4    1  0.8362047E-005  0.4342400E+03  0.7818608E-02  0.1032529E+00
         -2   -1    0    0    0  501 -0.00000000000E+00  0.00000000000E+00  0.72321316728E+02  0.72321316772E+02  0.25500000000E-02 0. -1.
          2   -1    0    0  501    0  0.00000000000E+00 -0.00000000000E+00 -0.65182834339E+03  0.65182834339E+03  0.25500000000E-02 0.  1.
    5000001    1    1    2    0    0 -0.82379056070E+02 -0.52501403970E+01 -0.48063809531E+03  0.51483186723E+03  0.16500000000E+03 0.  0.
   -5000001    1    1    2    0    0  0.82379056070E+02  0.52501403970E+01 -0.98868931354E+02  0.20931779294E+03  0.16500000000E+03 0.  0.
<mgrwt>
<rscale>  0 0.43423995E+03</rscale>
<asrwt>0</asrwt>
<pdfrwt beam="1">  1        2 0.10028128E+00 0.43423995E+03</pdfrwt>
<pdfrwt beam="2">  1       -2 0.11126357E-01 0.43423995E+03</pdfrwt>
<totfact> 0.25697836E+03</totfact>
</mgrwt>
</event>
<event>
 4    1  0.8362047E-005  0.4790881E+03  0.7818608E-02  0.1019386E+00
         -2   -1    0    0    0  501 -0.00000000000E+00  0.00000000000E+00  0.71466193110E+03  0.71466193111E+03  0.25500000000E-02 0. -1.
          2   -1    0    0  501    0  0.00000000000E+00 -0.00000000000E+00 -0.80291618588E+02  0.80291618628E+02  0.25500000000E-02 0.  1.
    5000001    1    1    2    0    0  0.20344660118E+02  0.17054184658E+03  0.27462351740E+03  0.36351272734E+03  0.16500000000E+03 0.  0.
   -5000001    1    1    2    0    0 -0.20344660118E+02 -0.17054184658E+03  0.35974679512E+03  0.43144082239E+03  0.16500000000E+03 0.  0.
<mgrwt>
<rscale>  0 0.47908815E+03</rscale>
<asrwt>0</asrwt>
<pdfrwt beam="1">  1        2 0.12352557E-01 0.47908815E+03</pdfrwt>
<pdfrwt beam="2">  1       -2 0.10994799E+00 0.47908815E+03</pdfrwt>
<totfact> 0.33901723E+02</totfact>
</mgrwt>
</event>
<event>
 4    1  0.8362047E-005  0.1078661E+04  0.7818608E-02  0.9226244E-01
         -2   -1    0    0    0  501 -0.00000000000E+00  0.00000000000E+00  0.34454011134E+03  0.34454011135E+03  0.25500000000E-02 0. -1.
          2   -1    0    0  501    0  0.00000000000E+00 -0.00000000000E+00 -0.84424810251E+03  0.84424810251E+03  0.25500000000E-02 0.  1.
    5000001    1    1    2    0    0  0.11297480058E+03  0.30983045527E+03 -0.68360152837E+03  0.77672019812E+03  0.16500000000E+03 0.  0.
   -5000001    1    1    2    0    0 -0.11297480058E+03 -0.30983045527E+03  0.18389353720E+03  0.41206801575E+03  0.16500000000E+03 0.  0.
<mgrwt>
<rscale>  0 0.10786609E+04</rscale>
<asrwt>0</asrwt>
<pdfrwt beam="1">  1        2 0.12988432E+00 0.10786609E+04</pdfrwt>
<pdfrwt beam="2">  1       -2 0.53006172E-01 0.10786609E+04</pdfrwt>
<totfact> 0.10689529E+02</totfact>
</mgrwt>
</event>
<event>
 4    1  0.8362047E-005  0.4543653E+03  0.7818608E-02  0.1026428E+00
         -2   -1    0    0    0  501 -0.00000000000E+00  0.00000000000E+00  0.58472582895E+02  0.58472582951E+02  0.25500000000E-02 0. -1.
          2   -1    0    0  501    0  0.00000000000E+00 -0.00000000000E+00 -0.88266918187E+03  0.88266918188E+03  0.25500000000E-02 0.  1.
    5000001    1    1    2    0    0  0.12957280236E+03  0.39437433325E+02 -0.25108596529E+03  0.32956575099E+03  0.16500000000E+03 0.  0.
   -5000001    1    1    2    0    0 -0.12957280236E+03 -0.39437433325E+02 -0.57311063369E+03  0.61157601384E+03  0.16500000000E+03 0.  0.
<mgrwt>
<rscale>  0 0.45436526E+03</rscale>
<asrwt>0</asrwt>
<pdfrwt beam="1">  1        2 0.13579525E+00 0.45436526E+03</pdfrwt>
<pdfrwt beam="2">  1       -2 0.89957826E-02 0.45436526E+03</pdfrwt>
<totfact> 0.24577858E+03</totfact>
</mgrwt>
</event>
<event>
 4    1  0.8362047E-005  0.8046904E+03  0.7818608E-02  0.9553253E-01
          2   -1    0    0  501    0  0.00000000000E+00  0.00000000000E+00  0.98652587368E+03  0.98652587368E+03  0.25500000000E-02 0.  1.
         -2   -1    0    0    0  501 -0.00000000000E+00 -0.00000000000E+00 -0.16409264704E+03  0.16409264706E+03  0.25500000000E-02 0. -1.
    5000001    1    1    2    0    0 -0.86353324448E+02  0.32953287558E+03  0.21616460762E+03  0.43589098444E+03  0.16500000000E+03 0.  0.
   -5000001    1    1    2    0    0  0.86353324448E+02 -0.32953287558E+03  0.60626861902E+03  0.71472753630E+03  0.16500000000E+03 0.  0.
<mgrwt>
<rscale>  0 0.80469036E+03</rscale>
<asrwt>0</asrwt>
<pdfrwt beam="1">  1        2 0.15177321E+00 0.80469036E+03</pdfrwt>
<pdfrwt beam="2">  1       -2 0.25245023E-01 0.80469036E+03</pdfrwt>
<totfact> 0.36352492E+02</totfact>
</mgrwt>
</event>
<event>
 4    1  0.8362047E-005  0.6189082E+03  0.7818608E-02  0.9866936E-01
         -2   -1    0    0    0  501 -0.00000000000E+00  0.00000000000E+00  0.39476548407E+02  0.39476548489E+02  0.25500000000E-02 0. -1.
          2   -1    0    0  501    0  0.00000000000E+00 -0.00000000000E+00 -0.24257902256E+04  0.24257902256E+04  0.25500000000E-02 0.  1.
    5000001    1    1    2    0    0  0.16585752272E+03 -0.17009327778E+03 -0.16312490259E+04  0.16566951516E+04  0.16500000000E+03 0.  0.
   -5000001    1    1    2    0    0 -0.16585752272E+03  0.17009327778E+03 -0.75506465130E+03  0.80857162245E+03  0.16500000000E+03 0.  0.
<mgrwt>
<rscale>  0 0.61890815E+03</rscale>
<asrwt>0</asrwt>
<pdfrwt beam="1">  1        2 0.37319838E+00 0.61890815E+03</pdfrwt>
<pdfrwt beam="2">  1       -2 0.60733170E-02 0.61890815E+03</pdfrwt>
<totfact> 0.61268984E+02</totfact>
</mgrwt>
</event>
<event>
 4    1  0.8362047E-005  0.3571739E+03  0.7818608E-02  0.1059708E+00
         -2   -1    0    0    0  501 -0.00000000000E+00  0.00000000000E+00  0.21666532920E+02  0.21666533070E+02  0.25500000000E-02 0. -1.
          2   -1    0    0  501    0  0.00000000000E+00 -0.00000000000E+00 -0.14720076119E+04  0.14720076119E+04  0.25500000000E-02 0.  1.
    5000001    1    1    2    0    0  0.22995261541E+01  0.68250965843E+02 -0.71598996715E+03  0.73792283826E+03  0.16500000000E+03 0.  0.
   -5000001    1    1    2    0    0 -0.22995261541E+01 -0.68250965843E+02 -0.73435111185E+03  0.75575130674E+03  0.16500000000E+03 0.  0.
<mgrwt>
<rscale>  0 0.35717392E+03</rscale>
<asrwt>0</asrwt>
<pdfrwt beam="1">  1        2 0.22646263E+00 0.35717392E+03</pdfrwt>
<pdfrwt beam="2">  1       -2 0.33333139E-02 0.35717392E+03</pdfrwt>
<totfact> 0.51234719E+03</totfact>
</mgrwt>
</event>
<event>
 4    1  0.8362047E-005  0.4450134E+03  0.7818608E-02  0.1029220E+00
         -2   -1    0    0    0  501 -0.00000000000E+00  0.00000000000E+00  0.25638038114E+02  0.25638038241E+02  0.25500000000E-02 0. -1.
          2   -1    0    0  501    0  0.00000000000E+00 -0.00000000000E+00 -0.19310850228E+04  0.19310850228E+04  0.25500000000E-02 0.  1.
    5000001    1    1    2    0    0  0.72791988774E+02  0.83948742871E+02 -0.51438520254E+03  0.55150992887E+03  0.16500000000E+03 0.  0.
   -5000001    1    1    2    0    0 -0.72791988774E+02 -0.83948742871E+02 -0.13910617822E+04  0.14052131322E+04  0.16500000000E+03 0.  0.
<mgrwt>
<rscale>  0 0.44501340E+03</rscale>
<asrwt>0</asrwt>
<pdfrwt beam="1">  1        2 0.29708989E+00 0.44501340E+03</pdfrwt>
<pdfrwt beam="2">  1       -2 0.39443151E-02 0.44501340E+03</pdfrwt>
<totfact> 0.22485274E+03</totfact>
</mgrwt>
</event>
<event>
 4    1  0.8362047E-005  0.7611381E+03  0.7818608E-02  0.9618037E-01
         -2   -1    0    0    0  501 -0.00000000000E+00  0.00000000000E+00  0.56737617110E+02  0.56737617167E+02  0.25500000000E-02 0. -1.
          2   -1    0    0  501    0  0.00000000000E+00 -0.00000000000E+00 -0.25526765390E+04  0.25526765390E+04  0.25500000000E-02 0.  1.
    5000001    1    1    2    0    0 -0.42246025293E+02 -0.30762594203E+03 -0.17470128029E+04  0.17820485909E+04  0.16500000000E+03 0.  0.
   -5000001    1    1    2    0    0  0.42246025293E+02  0.30762594203E+03 -0.74892611894E+03  0.82736556521E+03  0.16500000000E+03 0.  0.
<mgrwt>
<rscale>  0 0.76113805E+03</rscale>
<asrwt>0</asrwt>
<pdfrwt beam="1">  1        2 0.39271938E+00 0.76113805E+03</pdfrwt>
<pdfrwt beam="2">  1       -2 0.87288661E-02 0.76113805E+03</pdfrwt>
<totfact> 0.28817779E+02</totfact>
</mgrwt>
</event>
<event>
 4    1  0.8362047E-005  0.4344994E+03  0.7818608E-02  0.1032448E+00
          2   -1    0    0  501    0  0.00000000000E+00  0.00000000000E+00  0.67622719274E+03  0.67622719274E+03  0.25500000000E-02 0.  1.
         -2   -1    0    0    0  501 -0.00000000000E+00 -0.00000000000E+00 -0.69795235846E+02  0.69795235892E+02  0.25500000000E-02 0. -1.
    5000001    1    1    2    0    0 -0.81880079162E+02 -0.11412018252E+03  0.27635908925E+03  0.35117959741E+03  0.16500000000E+03 0.  0.
   -5000001    1    1    2    0    0  0.81880079162E+02  0.11412018252E+03  0.33007286764E+03  0.39484283123E+03  0.16500000000E+03 0.  0.
<mgrwt>
<rscale>  0 0.43449942E+03</rscale>
<asrwt>0</asrwt>
<pdfrwt beam="1">  1        2 0.10403495E+00 0.43449942E+03</pdfrwt>
<pdfrwt beam="2">  1       -2 0.10737729E-01 0.43449942E+03</pdfrwt>
<totfact> 0.26031493E+03</totfact>
</mgrwt>
</event>
<event>
 4    1  0.8362047E-005  0.3987522E+03  0.7818608E-02  0.1044213E+00
          2   -1    0    0  501    0  0.00000000000E+00  0.00000000000E+00  0.82423407107E+02  0.82423407146E+02  0.25500000000E-02 0.  1.
         -2   -1    0    0    0  501 -0.00000000000E+00 -0.00000000000E+00 -0.48227609678E+03  0.48227609678E+03  0.25500000000E-02 0. -1.
    5000001    1    1    2    0    0 -0.77002092017E+02  0.54758564970E+02 -0.11497977758E+03  0.22220074677E+03  0.16500000000E+03 0.  0.
   -5000001    1    1    2    0    0  0.77002092017E+02 -0.54758564970E+02 -0.28487291209E+03  0.34249875716E+03  0.16500000000E+03 0.  0.
<mgrwt>
<rscale>  0 0.39875225E+03</rscale>
<asrwt>0</asrwt>
<pdfrwt beam="1">  1        2 0.12680524E-01 0.39875225E+03</pdfrwt>
<pdfrwt beam="2">  1       -2 0.74196321E-01 0.39875225E+03</pdfrwt>
<totfact> 0.80819285E+02</totfact>
</mgrwt>
</event>
<event>
 4    1  0.8362047E-005  0.5372286E+03  0.7818608E-02  0.1004494E+00
          2   -1    0    0  501    0  0.00000000000E+00  0.00000000000E+00  0.88544296620E+02  0.88544296657E+02  0.25500000000E-02 0.  1.
         -2   -1    0    0    0  501 -0.00000000000E+00 -0.00000000000E+00 -0.81488738188E+03  0.81488738188E+03  0.25500000000E-02 0. -1.
    5000001    1    1    2    0    0 -0.20737605751E+03 -0.43664749138E+02 -0.35619916622E+03  0.44611017200E+03  0.16500000000E+03 0.  0.
   -5000001    1    1    2    0    0  0.20737605751E+03  0.43664749138E+02 -0.37014391904E+03  0.45732150655E+03  0.16500000000E+03 0.  0.
<mgrwt>
<rscale>  0 0.53722855E+03</rscale>
<asrwt>0</asrwt>
<pdfrwt beam="1">  1        2 0.13622200E-01 0.53722855E+03</pdfrwt>
<pdfrwt beam="2">  1       -2 0.12536728E+00 0.53722855E+03</pdfrwt>
<totfact> 0.21787440E+02</totfact>
</mgrwt>
</event>
<event>
 4    1  0.8362047E-005  0.4490934E+03  0.7818608E-02  0.1027993E+00
         -2   -1    0    0    0  501 -0.00000000000E+00  0.00000000000E+00  0.93213213023E+02  0.93213213057E+02  0.25500000000E-02 0. -1.
          2   -1    0    0  501    0  0.00000000000E+00 -0.00000000000E+00 -0.54092355523E+03  0.54092355524E+03  0.25500000000E-02 0.  1.
    5000001    1    1    2    0    0  0.58268142362E+01  0.13890413965E+03 -0.13603698157E+03  0.25506738743E+03  0.16500000000E+03 0.  0.
   -5000001    1    1    2    0    0 -0.58268142362E+01 -0.13890413965E+03 -0.31167336063E+03  0.37906938086E+03  0.16500000000E+03 0.  0.
<mgrwt>
<rscale>  0 0.44909341E+03</rscale>
<asrwt>0</asrwt>
<pdfrwt beam="1">  1        2 0.83219007E-01 0.44909341E+03</pdfrwt>
<pdfrwt beam="2">  1       -2 0.14340495E-01 0.44909341E+03</pdfrwt>
<totfact> 0.21117177E+03</totfact>
</mgrwt>
</event>
<event>
 4    1  0.8362047E-005  0.8284813E+03  0.7818608E-02  0.9519683E-01
         -2   -1    0    0    0  501 -0.00000000000E+00  0.00000000000E+00  0.78023478290E+03  0.78023478291E+03  0.25500000000E-02 0. -1.
          2   -1    0    0  501    0  0.00000000000E+00 -0.00000000000E+00 -0.21992778682E+03  0.21992778683E+03  0.25500000000E-02 0.  1.
    5000001    1    1    2    0    0 -0.26191015758E+03 -0.23147852649E+03  0.10031733862E+03  0.39933420502E+03  0.16500000000E+03 0.  0.
   -5000001    1    1    2    0    0  0.26191015758E+03  0.23147852649E+03  0.45998965747E+03  0.60082836472E+03  0.16500000000E+03 0.  0.
<mgrwt>
<rscale>  0 0.82848128E+03</rscale>
<asrwt>0</asrwt>
<pdfrwt beam="1">  1        2 0.33835044E-01 0.82848128E+03</pdfrwt>
<pdfrwt beam="2">  1       -2 0.12003612E+00 0.82848128E+03</pdfrwt>
<totfact> 0.82942581E+01</totfact>
</mgrwt>
</event>
<event>
 4    1  0.8362047E-005  0.7334239E+03  0.7818608E-02  0.9661721E-01
          2   -1    0    0  501    0  0.00000000000E+00  0.00000000000E+00  0.14722286505E+04  0.14722286505E+04  0.25500000000E-02 0. -1.
         -2   -1    0    0    0  501 -0.00000000000E+00 -0.00000000000E+00 -0.91342917913E+02  0.91342917948E+02  0.25500000000E-02 0.  1.
    5000001    1    1    2    0    0  0.27519215412E+03 -0.13854347858E+03  0.92714530489E+03  0.99083219241E+03  0.16500000000E+03 0.  0.
   -5000001    1    1    2    0    0 -0.27519215412E+03  0.13854347858E+03  0.45374042774E+03  0.57273937608E+03  0.16500000000E+03 0.  0.
<mgrwt>
<rscale>  0 0.73342392E+03</rscale>
<asrwt>0</asrwt>
<pdfrwt beam="1">  1        2 0.22649671E+00 0.73342392E+03</pdfrwt>
<pdfrwt beam="2">  1       -2 0.14052757E-01 0.73342392E+03</pdfrwt>
<totfact> 0.52134735E+02</totfact>
</mgrwt>
</event>
<event>
 4    1  0.8362047E-005  0.5588721E+03  0.7818608E-02  0.9994610E-01
         -2   -1    0    0    0  501 -0.00000000000E+00  0.00000000000E+00  0.86954077474E+02  0.86954077511E+02  0.25500000000E-02 0. -1.
          2   -1    0    0  501    0  0.00000000000E+00 -0.00000000000E+00 -0.89799711483E+03  0.89799711483E+03  0.25500000000E-02 0.  1.
    5000001    1    1    2    0    0  0.18717324589E+02  0.21669015291E+03 -0.51059535485E+03  0.57899704404E+03  0.16500000000E+03 0.  0.
   -5000001    1    1    2    0    0 -0.18717324589E+02 -0.21669015291E+03 -0.30044768250E+03  0.40595414831E+03  0.16500000000E+03 0.  0.
<mgrwt>
<rscale>  0 0.55887212E+03</rscale>
<asrwt>0</asrwt>
<pdfrwt beam="1">  1        2 0.13815340E+00 0.55887212E+03</pdfrwt>
<pdfrwt beam="2">  1       -2 0.13377551E-01 0.55887212E+03</pdfrwt>
<totfact> 0.12569265E+03</totfact>
</mgrwt>
</event>
<event>
 4    1  0.8362047E-005  0.1248222E+04  0.7818608E-02  0.9071664E-01
         -2   -1    0    0    0  501 -0.00000000000E+00  0.00000000000E+00  0.11412701787E+03  0.11412701790E+03  0.25500000000E-02 0. -1.
          2   -1    0    0  501    0  0.00000000000E+00 -0.00000000000E+00 -0.34129941340E+04  0.34129941340E+04  0.25500000000E-02 0.  1.
    5000001    1    1    2    0    0 -0.38872823579E+03  0.11907224226E+03 -0.39524251086E+03  0.59053321885E+03  0.16500000000E+03 0.  0.
   -5000001    1    1    2    0    0  0.38872823579E+03 -0.11907224226E+03 -0.29036246053E+04  0.29365879331E+04  0.16500000000E+03 0.  0.
<mgrwt>
<rscale>  0 0.12482225E+04</rscale>
<asrwt>0</asrwt>
<pdfrwt beam="1">  1        2 0.52507594E+00 0.12482225E+04</pdfrwt>
<pdfrwt beam="2">  1       -2 0.17558005E-01 0.12482225E+04</pdfrwt>
<totfact> 0.25171665E+01</totfact>
</mgrwt>
</event>
<event>
 4    1  0.8362047E-005  0.3691074E+03  0.7818608E-02  0.1055035E+00
         -2   -1    0    0    0  501 -0.00000000000E+00  0.00000000000E+00  0.34757365561E+02  0.34757365655E+02  0.25500000000E-02 0. -1.
          2   -1    0    0  501    0  0.00000000000E+00 -0.00000000000E+00 -0.97993790324E+03  0.97993790324E+03  0.25500000000E-02 0.  1.
    5000001    1    1    2    0    0 -0.54333715672E+02 -0.23051586446E+02 -0.63173952026E+03  0.65559389087E+03  0.16500000000E+03 0.  0.
   -5000001    1    1    2    0    0  0.54333715672E+02  0.23051586446E+02 -0.31344101742E+03  0.35910137803E+03  0.16500000000E+03 0.  0.
<mgrwt>
<rscale>  0 0.36910736E+03</rscale>
<asrwt>0</asrwt>
<pdfrwt beam="1">  1        2 0.15075966E+00 0.36910736E+03</pdfrwt>
<pdfrwt beam="2">  1       -2 0.53472878E-02 0.36910736E+03</pdfrwt>
<totfact> 0.47950505E+03</totfact>
</mgrwt>
</event>
<event>
 4    1  0.8362047E-005  0.5360366E+03  0.7818608E-02  0.1004779E+00
          2   -1    0    0  501    0  0.00000000000E+00  0.00000000000E+00  0.11828993122E+04  0.11828993122E+04  0.25500000000E-02 0.  1.
         -2   -1    0    0    0  501 -0.00000000000E+00 -0.00000000000E+00 -0.60726909021E+02  0.60726909074E+02  0.25500000000E-02 0. -1.
    5000001    1    1    2    0    0  0.19755799556E+03 -0.25011833373E+01  0.38788314226E+03  0.46552524054E+03  0.16500000000E+03 0.  0.
   -5000001    1    1    2    0    0 -0.19755799556E+03  0.25011833373E+01  0.73428926090E+03  0.77810098072E+03  0.16500000000E+03 0.  0.
<mgrwt>
<rscale>  0 0.53603664E+03</rscale>
<asrwt>0</asrwt>
<pdfrwt beam="1">  1        2 0.18198449E+00 0.53603664E+03</pdfrwt>
<pdfrwt beam="2">  1       -2 0.93426022E-02 0.53603664E+03</pdfrwt>
<totfact> 0.15034644E+03</totfact>
</mgrwt>
</event>
<event>
 4    1  0.8362047E-005  0.7815371E+03  0.7818608E-02  0.9587133E-01
         -2   -1    0    0    0  501 -0.00000000000E+00  0.00000000000E+00  0.54283045888E+03  0.54283045888E+03  0.25500000000E-02 0. -1.
          2   -1    0    0  501    0  0.00000000000E+00 -0.00000000000E+00 -0.28130338825E+03  0.28130338826E+03  0.25500000000E-02 0.  1.
    5000001    1    1    2    0    0 -0.28503475810E+03  0.20379220009E+03  0.75980327982E+02  0.39468225750E+03  0.16500000000E+03 0.  0.
   -5000001    1    1    2    0    0  0.28503475810E+03 -0.20379220009E+03  0.18554674265E+03  0.42945158965E+03  0.16500000000E+03 0.  0.
<mgrwt>
<rscale>  0 0.78153707E+03</rscale>
<asrwt>0</asrwt>
<pdfrwt beam="1">  1        2 0.43277445E-01 0.78153707E+03</pdfrwt>
<pdfrwt beam="2">  1       -2 0.83512377E-01 0.78153707E+03</pdfrwt>
<totfact> 0.14915281E+02</totfact>
</mgrwt>
</event>
<event>
 4    1  0.8362047E-005  0.8922200E+03  0.7818608E-02  0.9435359E-01
          2   -1    0    0  501    0  0.00000000000E+00  0.00000000000E+00  0.13313818836E+03  0.13313818839E+03  0.25500000000E-02 0.  1.
         -2   -1    0    0    0  501 -0.00000000000E+00 -0.00000000000E+00 -0.14947938289E+04  0.14947938289E+04  0.25500000000E-02 0. -1.
    5000001    1    1    2    0    0  0.21518127320E+03  0.34896686721E+03 -0.79193727223E+03  0.90690159217E+03  0.16500000000E+03 0.  0.
   -5000001    1    1    2    0    0 -0.21518127320E+03 -0.34896686721E+03 -0.56971836831E+03  0.72103042512E+03  0.16500000000E+03 0.  0.
<mgrwt>
<rscale>  0 0.89222002E+03</rscale>
<asrwt>0</asrwt>
<pdfrwt beam="1">  1        2 0.20482799E-01 0.89222002E+03</pdfrwt>
<pdfrwt beam="2">  1       -2 0.22996827E+00 0.89222002E+03</pdfrwt>
<totfact> 0.23915795E+01</totfact>
</mgrwt>
</event>
<event>
 4    1  0.8362047E-005  0.7725050E+03  0.7818608E-02  0.9600690E-01
          2   -1    0    0  501    0  0.00000000000E+00  0.00000000000E+00  0.11056643009E+04  0.11056643009E+04  0.25500000000E-02 0.  1.
         -2   -1    0    0    0  501 -0.00000000000E+00 -0.00000000000E+00 -0.13493336558E+03  0.13493336561E+03  0.25500000000E-02 0. -1.
    5000001    1    1    2    0    0 -0.22086750134E+03 -0.26963571863E+03  0.52055469355E+03  0.64783336043E+03  0.16500000000E+03 0.  0.
   -5000001    1    1    2    0    0  0.22086750134E+03  0.26963571863E+03  0.45017624177E+03  0.59276430609E+03  0.16500000000E+03 0.  0.
<mgrwt>
<rscale>  0 0.77250503E+03</rscale>
<asrwt>0</asrwt>
<pdfrwt beam="1">  1        2 0.17010220E+00 0.77250503E+03</pdfrwt>
<pdfrwt beam="2">  1       -2 0.20758979E-01 0.77250503E+03</pdfrwt>
<totfact> 0.43456326E+02</totfact>
</mgrwt>
</event>
<event>
 4    1  0.8362047E-005  0.5582569E+03  0.7818608E-02  0.9996006E-01
         -2   -1    0    0    0  501 -0.00000000000E+00  0.00000000000E+00  0.23817162110E+02  0.23817162246E+02  0.25500000000E-02 0. -1.
          2   -1    0    0  501    0  0.00000000000E+00 -0.00000000000E+00 -0.32712839034E+04  0.32712839034E+04  0.25500000000E-02 0.  1.
    5000001    1    1    2    0    0  0.19655054261E+03  0.75478684963E+01 -0.22702804351E+04  0.22847510456E+04  0.16500000000E+03 0.  0.
   -5000001    1    1    2    0    0 -0.19655054261E+03 -0.75478684963E+01 -0.97718630623E+03  0.10103500201E+04  0.16500000000E+03 0.  0.
<mgrwt>
<rscale>  0 0.55825693E+03</rscale>
<asrwt>0</asrwt>
<pdfrwt beam="1">  1        2 0.50327409E+00 0.55825693E+03</pdfrwt>
<pdfrwt beam="2">  1       -2 0.36641814E-02 0.55825693E+03</pdfrwt>
<totfact> 0.42376254E+02</totfact>
</mgrwt>
</event>
<event>
 4    1  0.8362047E-005  0.6068769E+03  0.7818608E-02  0.9891240E-01
          2   -1    0    0  501    0  0.00000000000E+00  0.00000000000E+00  0.26599372438E+04  0.26599372438E+04  0.25500000000E-02 0. -1.
         -2   -1    0    0    0  501 -0.00000000000E+00 -0.00000000000E+00 -0.34615439668E+02  0.34615439762E+02  0.25500000000E-02 0.  1.
    5000001    1    1    2    0    0 -0.10495493000E+03  0.21133166664E+03  0.88740676775E+03  0.93294822048E+03  0.16500000000E+03 0.  0.
   -5000001    1    1    2    0    0  0.10495493000E+03 -0.21133166664E+03  0.17379150364E+04  0.17616044631E+04  0.16500000000E+03 0.  0.
<mgrwt>
<rscale>  0 0.60687691E+03</rscale>
<asrwt>0</asrwt>
<pdfrwt beam="1">  1        2 0.40922111E+00 0.60687691E+03</pdfrwt>
<pdfrwt beam="2">  1       -2 0.53254523E-02 0.60687691E+03</pdfrwt>
<totfact> 0.55488986E+02</totfact>
</mgrwt>
</event>
<event>
 4    1  0.8362047E-005  0.3911145E+03  0.7818608E-02  0.1046901E+00
          2   -1    0    0  501    0  0.00000000000E+00  0.00000000000E+00  0.19902150348E+04  0.19902150348E+04  0.25500000000E-02 0.  1.
         -2   -1    0    0    0  501 -0.00000000000E+00 -0.00000000000E+00 -0.19215332282E+02  0.19215332451E+02  0.25500000000E-02 0. -1.
    5000001    1    1    2    0    0  0.91126626483E+02 -0.47353061133E+02  0.10970328594E+04  0.11141151058E+04  0.16500000000E+03 0.  0.
   -5000001    1    1    2    0    0 -0.91126626483E+02  0.47353061133E+02  0.87396684312E+03  0.89531526142E+03  0.16500000000E+03 0.  0.
<mgrwt>
<rscale>  0 0.39111453E+03</rscale>
<asrwt>0</asrwt>
<pdfrwt beam="1">  1        2 0.30618689E+00 0.39111453E+03</pdfrwt>
<pdfrwt beam="2">  1       -2 0.29562054E-02 0.39111453E+03</pdfrwt>
<totfact> 0.32421962E+03</totfact>
</mgrwt>
</event>
<event>
 4    1  0.8362047E-005  0.5254878E+03  0.7818608E-02  0.1007332E+00
          2   -1    0    0  501    0  0.00000000000E+00  0.00000000000E+00  0.77396423433E+03  0.77396423433E+03  0.25500000000E-02 0.  1.
         -2   -1    0    0    0  501 -0.00000000000E+00 -0.00000000000E+00 -0.89195804234E+02  0.89195804270E+02  0.25500000000E-02 0. -1.
    5000001    1    1    2    0    0  0.14622004656E+03 -0.12288943503E+03  0.22249500695E+03  0.33646863654E+03  0.16500000000E+03 0.  0.
   -5000001    1    1    2    0    0 -0.14622004656E+03  0.12288943503E+03  0.46227342314E+03  0.52669140206E+03  0.16500000000E+03 0.  0.
<mgrwt>
<rscale>  0 0.52548782E+03</rscale>
<asrwt>0</asrwt>
<pdfrwt beam="1">  1        2 0.11907142E+00 0.52548782E+03</pdfrwt>
<pdfrwt beam="2">  1       -2 0.13722432E-01 0.52548782E+03</pdfrwt>
<totfact> 0.14695648E+03</totfact>
</mgrwt>
</event>
<event>
 4    1  0.8362047E-005  0.4551737E+03  0.7818608E-02  0.1026190E+00
          2   -1    0    0  501    0  0.00000000000E+00  0.00000000000E+00  0.91573534520E+03  0.91573534520E+03  0.25500000000E-02 0.  1.
         -2   -1    0    0    0  501 -0.00000000000E+00 -0.00000000000E+00 -0.56561950469E+02  0.56561950526E+02  0.25500000000E-02 0. -1.
    5000001    1    1    2    0    0 -0.12993608966E+03  0.32014533424E+02  0.25522977418E+03  0.33207763456E+03  0.16500000000E+03 0.  0.
   -5000001    1    1    2    0    0  0.12993608966E+03 -0.32014533424E+02  0.60394362054E+03  0.64021966116E+03  0.16500000000E+03 0.  0.
<mgrwt>
<rscale>  0 0.45517371E+03</rscale>
<asrwt>0</asrwt>
<pdfrwt beam="1">  1        2 0.14088235E+00 0.45517371E+03</pdfrwt>
<pdfrwt beam="2">  1       -2 0.87018395E-02 0.45517371E+03</pdfrwt>
<totfact> 0.24644450E+03</totfact>
</mgrwt>
</event>
<event>
 4    1  0.8362047E-005  0.6401826E+03  0.7818608E-02  0.9825377E-01
         -2   -1    0    0    0  501 -0.00000000000E+00  0.00000000000E+00  0.65533694588E+03  0.65533694588E+03  0.25500000000E-02 0. -1.
          2   -1    0    0  501    0  0.00000000000E+00 -0.00000000000E+00 -0.15634466284E+03  0.15634466287E+03  0.25500000000E-02 0.  1.
    5000001    1    1    2    0    0 -0.23060849684E+03  0.51422433194E+02  0.72858936112E+02  0.29725068549E+03  0.16500000000E+03 0.  0.
   -5000001    1    1    2    0    0  0.23060849684E+03 -0.51422433194E+02  0.42613334692E+03  0.51443092326E+03  0.16500000000E+03 0.  0.
<mgrwt>
<rscale>  0 0.64018258E+03</rscale>
<asrwt>0</asrwt>
<pdfrwt beam="1">  1        2 0.24053025E-01 0.64018258E+03</pdfrwt>
<pdfrwt beam="2">  1       -2 0.10082107E+00 0.64018258E+03</pdfrwt>
<totfact> 0.18778080E+02</totfact>
</mgrwt>
</event>
<event>
 4    1  0.8362047E-005  0.4376395E+03  0.7818608E-02  0.1031474E+00
         -2   -1    0    0    0  501 -0.00000000000E+00  0.00000000000E+00  0.26745312891E+02  0.26745313013E+02  0.25500000000E-02 0. -1.
          2   -1    0    0  501    0  0.00000000000E+00 -0.00000000000E+00 -0.17902980100E+04  0.17902980100E+04  0.25500000000E-02 0.  1.
    5000001    1    1    2    0    0 -0.12516008491E+03  0.70064617445E+02 -0.91959826838E+03  0.94523016915E+03  0.16500000000E+03 0.  0.
   -5000001    1    1    2    0    0  0.12516008491E+03 -0.70064617445E+02 -0.84395442875E+03  0.87181315388E+03  0.16500000000E+03 0.  0.
<mgrwt>
<rscale>  0 0.43763949E+03</rscale>
<asrwt>0</asrwt>
<pdfrwt beam="1">  1        2 0.27543037E+00 0.43763949E+03</pdfrwt>
<pdfrwt beam="2">  1       -2 0.41146649E-02 0.43763949E+03</pdfrwt>
<totfact> 0.25079493E+03</totfact>
</mgrwt>
</event>
<event>
 4    1  0.8362047E-005  0.4090326E+03  0.7818608E-02  0.1040696E+00
          2   -1    0    0  501    0  0.00000000000E+00  0.00000000000E+00  0.21585207799E+03  0.21585207801E+03  0.25500000000E-02 0.  1.
         -2   -1    0    0    0  501 -0.00000000000E+00 -0.00000000000E+00 -0.19377580768E+03  0.19377580770E+03  0.25500000000E-02 0. -1.
    5000001    1    1    2    0    0 -0.11237375567E+03 -0.29173997100E+02 -0.22520749551E+02  0.20300533793E+03  0.16500000000E+03 0.  0.
   -5000001    1    1    2    0    0  0.11237375567E+03  0.29173997100E+02  0.44597019861E+02  0.20662254778E+03  0.16500000000E+03 0.  0.
<mgrwt>
<rscale>  0 0.40903257E+03</rscale>
<asrwt>0</asrwt>
<pdfrwt beam="1">  1        2 0.33208012E-01 0.40903257E+03</pdfrwt>
<pdfrwt beam="2">  1       -2 0.29811663E-01 0.40903257E+03</pdfrwt>
<totfact> 0.16328600E+03</totfact>
</mgrwt>
</event>
<event>
 4    1  0.8362047E-005  0.3635385E+03  0.7818608E-02  0.1057191E+00
          2   -1    0    0  501    0  0.00000000000E+00  0.00000000000E+00  0.55322586202E+03  0.55322586203E+03  0.25500000000E-02 0.  1.
         -2   -1    0    0    0  501 -0.00000000000E+00 -0.00000000000E+00 -0.59722547856E+02  0.59722547911E+02  0.25500000000E-02 0. -1.
    5000001    1    1    2    0    0  0.74775489128E+02 -0.70594325064E+01  0.22452064571E+03  0.28857534494E+03  0.16500000000E+03 0.  0.
   -5000001    1    1    2    0    0 -0.74775489128E+02  0.70594325064E+01  0.26898266846E+03  0.32437306499E+03  0.16500000000E+03 0.  0.
<mgrwt>
<rscale>  0 0.36353849E+03</rscale>
<asrwt>0</asrwt>
<pdfrwt beam="1">  1        2 0.85111672E-01 0.36353849E+03</pdfrwt>
<pdfrwt beam="2">  1       -2 0.91880842E-02 0.36353849E+03</pdfrwt>
<totfact> 0.42318438E+03</totfact>
</mgrwt>
</event>
<event>
 4    1  0.8362047E-005  0.4346645E+03  0.7818608E-02  0.1032397E+00
          2   -1    0    0  501    0  0.00000000000E+00  0.00000000000E+00  0.10443792701E+04  0.10443792701E+04  0.25500000000E-02 0.  1.
         -2   -1    0    0    0  501 -0.00000000000E+00 -0.00000000000E+00 -0.45226200526E+02  0.45226200598E+02  0.25500000000E-02 0. -1.
    5000001    1    1    2    0    0 -0.53814025104E+02 -0.98812150157E+02  0.28468716688E+03  0.34775217225E+03  0.16500000000E+03 0.  0.
   -5000001    1    1    2    0    0  0.53814025104E+02  0.98812150157E+02  0.71446590271E+03  0.74185329847E+03  0.16500000000E+03 0.  0.
<mgrwt>
<rscale>  0 0.43466450E+03</rscale>
<asrwt>0</asrwt>
<pdfrwt beam="1">  1        2 0.16067374E+00 0.43466450E+03</pdfrwt>
<pdfrwt beam="2">  1       -2 0.69578768E-02 0.43466450E+03</pdfrwt>
<totfact> 0.29098044E+03</totfact>
</mgrwt>
</event>
<event>
 4    1  0.8362047E-005  0.4144842E+03  0.7818608E-02  0.1038877E+00
          2   -1    0    0  501    0  0.00000000000E+00  0.00000000000E+00  0.48063910430E+03  0.48063910431E+03  0.25500000000E-02 0.  1.
         -2   -1    0    0    0  501 -0.00000000000E+00 -0.00000000000E+00 -0.89358684574E+02  0.89358684610E+02  0.25500000000E-02 0. -1.
    5000001    1    1    2    0    0 -0.95967008057E+02 -0.79696253242E+02  0.21320395520E+03  0.29705569499E+03  0.16500000000E+03 0.  0.
   -5000001    1    1    2    0    0  0.95967008057E+02  0.79696253242E+02  0.17807646453E+03  0.27294209392E+03  0.16500000000E+03 0.  0.
<mgrwt>
<rscale>  0 0.41448415E+03</rscale>
<asrwt>0</asrwt>
<pdfrwt beam="1">  1        2 0.73944479E-01 0.41448415E+03</pdfrwt>
<pdfrwt beam="2">  1       -2 0.13747490E-01 0.41448415E+03</pdfrwt>
<totfact> 0.25909260E+03</totfact>
</mgrwt>
</event>
<event>
 4    1  0.8362047E-005  0.8535532E+03  0.7818608E-02  0.9485580E-01
         -2   -1    0    0    0  501 -0.00000000000E+00  0.00000000000E+00  0.10573366572E+03  0.10573366575E+03  0.25500000000E-02 0. -1.
          2   -1    0    0  501    0  0.00000000000E+00 -0.00000000000E+00 -0.17226137953E+04  0.17226137953E+04  0.25500000000E-02 0.  1.
    5000001    1    1    2    0    0  0.36643336884E+03  0.66836598093E+02 -0.10808480001E+04  0.11550748651E+04  0.16500000000E+03 0.  0.
   -5000001    1    1    2    0    0 -0.36643336884E+03 -0.66836598093E+02 -0.53603212952E+03  0.67327259600E+03  0.16500000000E+03 0.  0.
<mgrwt>
<rscale>  0 0.85355321E+03</rscale>
<asrwt>0</asrwt>
<pdfrwt beam="1">  1        2 0.26501749E+00 0.85355321E+03</pdfrwt>
<pdfrwt beam="2">  1       -2 0.16266719E-01 0.85355321E+03</pdfrwt>
<totfact> 0.29371375E+02</totfact>
</mgrwt>
</event>
<event>
 4    1  0.8362047E-005  0.3956986E+03  0.7818608E-02  0.1045279E+00
         -2   -1    0    0    0  501 -0.00000000000E+00  0.00000000000E+00  0.66115892323E+03  0.66115892324E+03  0.25500000000E-02 0. -1.
          2   -1    0    0  501    0  0.00000000000E+00 -0.00000000000E+00 -0.59205654930E+02  0.59205654985E+02  0.25500000000E-02 0.  1.
    5000001    1    1    2    0    0  0.32744393548E+02  0.44674560915E+02  0.12970232459E+03  0.21706152286E+03  0.16500000000E+03 0.  0.
   -5000001    1    1    2    0    0 -0.32744393548E+02 -0.44674560915E+02  0.47225094371E+03  0.50330305536E+03  0.16500000000E+03 0.  0.
<mgrwt>
<rscale>  0 0.39569861E+03</rscale>
<asrwt>0</asrwt>
<pdfrwt beam="1">  1        2 0.91085623E-02 0.39569861E+03</pdfrwt>
<pdfrwt beam="2">  1       -2 0.10171676E+00 0.39569861E+03</pdfrwt>
<totfact> 0.59752700E+02</totfact>
</mgrwt>
</event>
<event>
 4    1  0.8362047E-005  0.5470546E+03  0.7818608E-02  0.1002178E+00
         -2   -1    0    0    0  501 -0.00000000000E+00  0.00000000000E+00  0.93981675186E+02  0.93981675221E+02  0.25500000000E-02 0. -1.
          2   -1    0    0  501    0  0.00000000000E+00 -0.00000000000E+00 -0.79608279908E+03  0.79608279908E+03  0.25500000000E-02 0.  1.
    5000001    1    1    2    0    0  0.13181308517E+03  0.22722591737E+02 -0.63145035025E+03  0.66621734474E+03  0.16500000000E+03 0.  0.
   -5000001    1    1    2    0    0 -0.13181308517E+03 -0.22722591737E+02 -0.70650773642E+02  0.22384712957E+03  0.16500000000E+03 0.  0.
<mgrwt>
<rscale>  0 0.54705464E+03</rscale>
<asrwt>0</asrwt>
<pdfrwt beam="1">  1        2 0.12247427E+00 0.54705464E+03</pdfrwt>
<pdfrwt beam="2">  1       -2 0.14458720E-01 0.54705464E+03</pdfrwt>
<totfact> 0.12980177E+03</totfact>
</mgrwt>
</event>
<event>
 4    1  0.8362047E-005  0.7034257E+03  0.7818608E-02  0.9711392E-01
         -2   -1    0    0    0  501 -0.00000000000E+00  0.00000000000E+00  0.28027358915E+03  0.28027358917E+03  0.25500000000E-02 0. -1.
          2   -1    0    0  501    0  0.00000000000E+00 -0.00000000000E+00 -0.44136135313E+03  0.44136135314E+03  0.25500000000E-02 0.  1.
    5000001    1    1    2    0    0 -0.12501221443E+03  0.28180920723E+03 -0.11937131511E+03  0.36948476817E+03  0.16500000000E+03 0.  0.
   -5000001    1    1    2    0    0  0.12501221443E+03 -0.28180920723E+03 -0.41716448870E+02  0.35215017414E+03  0.16500000000E+03 0.  0.
<mgrwt>
<rscale>  0 0.70342570E+03</rscale>
<asrwt>0</asrwt>
<pdfrwt beam="1">  1        2 0.67901746E-01 0.70342570E+03</pdfrwt>
<pdfrwt beam="2">  1       -2 0.43119014E-01 0.70342570E+03</pdfrwt>
<totfact> 0.36567060E+02</totfact>
</mgrwt>
</event>
<event>
 4    1  0.8362047E-005  0.7803848E+03  0.7818608E-02  0.9588851E-01
         -2   -1    0    0    0  501 -0.00000000000E+00  0.00000000000E+00  0.73558870337E+02  0.73558870381E+02  0.25500000000E-02 0. -1.
          2   -1    0    0  501    0  0.00000000000E+00 -0.00000000000E+00 -0.20697723888E+04  0.20697723888E+04  0.25500000000E-02 0.  1.
    5000001    1    1    2    0    0  0.21561972154E+03  0.25304691543E+03 -0.66737784346E+03  0.76363786684E+03  0.16500000000E+03 0.  0.
   -5000001    1    1    2    0    0 -0.21561972154E+03 -0.25304691543E+03 -0.13288356750E+04  0.13796933924E+04  0.16500000000E+03 0.  0.
<mgrwt>
<rscale>  0 0.78038483E+03</rscale>
<asrwt>0</asrwt>
<pdfrwt beam="1">  1        2 0.31842648E+00 0.78038483E+03</pdfrwt>
<pdfrwt beam="2">  1       -2 0.11316751E-01 0.78038483E+03</pdfrwt>
<totfact> 0.35034693E+02</totfact>
</mgrwt>
</event>
<event>
 4    1  0.8362047E-005  0.1103200E+04  0.7818608E-02  0.9202079E-01
          2   -1    0    0  501    0  0.00000000000E+00  0.00000000000E+00  0.59809885994E+03  0.59809885995E+03  0.25500000000E-02 0.  1.
         -2   -1    0    0    0  501 -0.00000000000E+00 -0.00000000000E+00 -0.50871591317E+03  0.50871591317E+03  0.25500000000E-02 0. -1.
    5000001    1    1    2    0    0 -0.15460467444E+03 -0.48360768734E+03  0.18392088382E+03  0.56465112425E+03  0.16500000000E+03 0.  0.
   -5000001    1    1    2    0    0  0.15460467444E+03  0.48360768734E+03 -0.94537937047E+02  0.54216364887E+03  0.16500000000E+03 0.  0.
<mgrwt>
<rscale>  0 0.11031997E+04</rscale>
<asrwt>0</asrwt>
<pdfrwt beam="1">  1        2 0.92015209E-01 0.11031997E+04</pdfrwt>
<pdfrwt beam="2">  1       -2 0.78263987E-01 0.11031997E+04</pdfrwt>
<totfact> 0.71812829E+01</totfact>
</mgrwt>
</event>
<event>
 4    1  0.8362047E-005  0.7752656E+03  0.7818608E-02  0.9596526E-01
          2   -1    0    0  501    0  0.00000000000E+00  0.00000000000E+00  0.10972234703E+04  0.10972234703E+04  0.25500000000E-02 0.  1.
         -2   -1    0    0    0  501 -0.00000000000E+00 -0.00000000000E+00 -0.13694494380E+03  0.13694494382E+03  0.25500000000E-02 0. -1.
    5000001    1    1    2    0    0 -0.34803743860E+03  0.32211501429E+02  0.43327681650E+03  0.58062159726E+03  0.16500000000E+03 0.  0.
   -5000001    1    1    2    0    0  0.34803743860E+03 -0.32211501429E+02  0.52700171003E+03  0.65354681689E+03  0.16500000000E+03 0.  0.
<mgrwt>
<rscale>  0 0.77526565E+03</rscale>
<asrwt>0</asrwt>
<pdfrwt beam="1">  1        2 0.16880361E+00 0.77526565E+03</pdfrwt>
<pdfrwt beam="2">  1       -2 0.21068452E-01 0.77526565E+03</pdfrwt>
<totfact> 0.42839803E+02</totfact>
</mgrwt>
</event>
<event>
 4    1  0.8362047E-005  0.9837529E+03  0.7818608E-02  0.9326546E-01
          2   -1    0    0  501    0  0.00000000000E+00  0.00000000000E+00  0.20672574339E+04  0.20672574339E+04  0.25500000000E-02 0.  1.
         -2   -1    0    0    0  501 -0.00000000000E+00 -0.00000000000E+00 -0.11703546961E+03  0.11703546964E+03  0.25500000000E-02 0. -1.
    5000001    1    1    2    0    0 -0.24891554921E+03  0.36897634587E+03  0.68890785913E+03  0.83661313211E+03  0.16500000000E+03 0.  0.
   -5000001    1    1    2    0    0  0.24891554921E+03 -0.36897634587E+03  0.12613141052E+04  0.13476797714E+04  0.16500000000E+03 0.  0.
<mgrwt>
<rscale>  0 0.98375291E+03</rscale>
<asrwt>0</asrwt>
<pdfrwt beam="1">  1        2 0.31803959E+00 0.98375291E+03</pdfrwt>
<pdfrwt beam="2">  1       -2 0.18005458E-01 0.98375291E+03</pdfrwt>
<totfact> 0.15804913E+02</totfact>
</mgrwt>
</event>
<event>
 4    1  0.8362047E-005  0.4569323E+03  0.7818608E-02  0.1025675E+00
          2   -1    0    0  501    0  0.00000000000E+00  0.00000000000E+00  0.22695601309E+04  0.22695601309E+04  0.25500000000E-02 0.  1.
         -2   -1    0    0    0  501 -0.00000000000E+00 -0.00000000000E+00 -0.22998628753E+02  0.22998628895E+02  0.25500000000E-02 0. -1.
    5000001    1    1    2    0    0 -0.69768247060E+02  0.97848549353E+02  0.16381289765E+04  0.16507978345E+04  0.16500000000E+03 0.  0.
   -5000001    1    1    2    0    0  0.69768247060E+02 -0.97848549353E+02  0.60843252566E+03  0.64176092526E+03  0.16500000000E+03 0.  0.
<mgrwt>
<rscale>  0 0.45693225E+03</rscale>
<asrwt>0</asrwt>
<pdfrwt beam="1">  1        2 0.34916330E+00 0.45693225E+03</pdfrwt>
<pdfrwt beam="2">  1       -2 0.35382486E-02 0.45693225E+03</pdfrwt>
<totfact> 0.17416165E+03</totfact>
</mgrwt>
</event>
<event>
 4    1  0.8362047E-005  0.5090998E+03  0.7818608E-02  0.1011431E+00
          2   -1    0    0  501    0  0.00000000000E+00  0.00000000000E+00  0.17974147472E+04  0.17974147472E+04  0.25500000000E-02 0.  1.
         -2   -1    0    0    0  501 -0.00000000000E+00 -0.00000000000E+00 -0.36049360026E+02  0.36049360116E+02  0.25500000000E-02 0. -1.
    5000001    1    1    2    0    0  0.82678181452E+02  0.13892105405E+03  0.12658104858E+04  0.12867151693E+04  0.16500000000E+03 0.  0.
   -5000001    1    1    2    0    0 -0.82678181452E+02 -0.13892105405E+03  0.49555490135E+03  0.54674893799E+03  0.16500000000E+03 0.  0.
<mgrwt>
<rscale>  0 0.50909980E+03</rscale>
<asrwt>0</asrwt>
<pdfrwt beam="1">  1        2 0.27652532E+00 0.50909980E+03</pdfrwt>
<pdfrwt beam="2">  1       -2 0.55460558E-02 0.50909980E+03</pdfrwt>
<totfact> 0.15650282E+03</totfact>
</mgrwt>
</event>
<event>
 4    1  0.8362047E-005  0.9267787E+03  0.7818608E-02  0.9392712E-01
          2   -1    0    0  501    0  0.00000000000E+00  0.00000000000E+00  0.69875652685E+03  0.69875652686E+03  0.25500000000E-02 0.  1.
         -2   -1    0    0    0  501 -0.00000000000E+00 -0.00000000000E+00 -0.30730255950E+03  0.30730255951E+03  0.25500000000E-02 0. -1.
    5000001    1    1    2    0    0  0.38315764759E+03 -0.19808971698E+03  0.23713946316E+03  0.51914298981E+03  0.16500000000E+03 0.  0.
   -5000001    1    1    2    0    0 -0.38315764759E+03  0.19808971698E+03  0.15431450420E+03  0.48691609656E+03  0.16500000000E+03 0.  0.
<mgrwt>
<rscale>  0 0.92677866E+03</rscale>
<asrwt>0</asrwt>
<pdfrwt beam="1">  1        2 0.10750100E+00 0.92677866E+03</pdfrwt>
<pdfrwt beam="2">  1       -2 0.47277318E-01 0.92677866E+03</pdfrwt>
<totfact> 0.17445626E+02</totfact>
</mgrwt>
</event>
<event>
 4    1  0.8362047E-005  0.5210397E+03  0.7818608E-02  0.1008429E+00
         -2   -1    0    0    0  501 -0.00000000000E+00  0.00000000000E+00  0.46354636075E+03  0.46354636076E+03  0.25500000000E-02 0. -1.
          2   -1    0    0  501    0  0.00000000000E+00 -0.00000000000E+00 -0.14641595377E+03  0.14641595379E+03  0.25500000000E-02 0.  1.
    5000001    1    1    2    0    0  0.97601481357E+02 -0.13336613268E+03  0.29374017600E+03  0.37526106314E+03  0.16500000000E+03 0.  0.
   -5000001    1    1    2    0    0 -0.97601481357E+02  0.13336613268E+03  0.23390230980E+02  0.23470125141E+03  0.16500000000E+03 0.  0.
<mgrwt>
<rscale>  0 0.52103966E+03</rscale>
<asrwt>0</asrwt>
<pdfrwt beam="1">  1        2 0.22525532E-01 0.52103966E+03</pdfrwt>
<pdfrwt beam="2">  1       -2 0.71314824E-01 0.52103966E+03</pdfrwt>
<totfact> 0.44535481E+02</totfact>
</mgrwt>
</event>
<event>
 4    1  0.8362047E-005  0.4943373E+03  0.7818608E-02  0.1015268E+00
         -2   -1    0    0    0  501 -0.00000000000E+00  0.00000000000E+00  0.35326198701E+02  0.35326198793E+02  0.25500000000E-02 0. -1.
          2   -1    0    0  501    0  0.00000000000E+00 -0.00000000000E+00 -0.17293776689E+04  0.17293776689E+04  0.25500000000E-02 0.  1.
    5000001    1    1    2    0    0 -0.17932708947E+03  0.31025042437E+02 -0.74948479846E+03  0.78871618558E+03  0.16500000000E+03 0.  0.
   -5000001    1    1    2    0    0  0.17932708947E+03 -0.31025042437E+02 -0.94456667176E+03  0.97598768213E+03  0.16500000000E+03 0.  0.
<mgrwt>
<rscale>  0 0.49433729E+03</rscale>
<asrwt>0</asrwt>
<pdfrwt beam="1">  1        2 0.26605804E+00 0.49433729E+03</pdfrwt>
<pdfrwt beam="2">  1       -2 0.54348012E-02 0.49433729E+03</pdfrwt>
<totfact> 0.17583213E+03</totfact>
</mgrwt>
</event>
<event>
 4    1  0.8362047E-005  0.4327748E+03  0.7818608E-02  0.1032987E+00
         -2   -1    0    0    0  501 -0.00000000000E+00  0.00000000000E+00  0.85660532876E+02  0.85660532914E+02  0.25500000000E-02 0. -1.
          2   -1    0    0  501    0  0.00000000000E+00 -0.00000000000E+00 -0.54661708010E+03  0.54661708011E+03  0.25500000000E-02 0.  1.
    5000001    1    1    2    0    0  0.13629019286E+03 -0.22726253173E+02 -0.26337514279E+03  0.34012198561E+03  0.16500000000E+03 0.  0.
   -5000001    1    1    2    0    0 -0.13629019286E+03  0.22726253173E+02 -0.19758140443E+03  0.29215562742E+03  0.16500000000E+03 0.  0.
<mgrwt>
<rscale>  0 0.43277482E+03</rscale>
<asrwt>0</asrwt>
<pdfrwt beam="1">  1        2 0.84094933E-01 0.43277482E+03</pdfrwt>
<pdfrwt beam="2">  1       -2 0.13178544E-01 0.43277482E+03</pdfrwt>
<totfact> 0.23991968E+03</totfact>
</mgrwt>
</event>
<event>
 4    1  0.8362047E-005  0.3941462E+03  0.7818608E-02  0.1045826E+00
         -2   -1    0    0    0  501 -0.00000000000E+00  0.00000000000E+00  0.37743993051E+03  0.37743993051E+03  0.25500000000E-02 0. -1.
          2   -1    0    0  501    0  0.00000000000E+00 -0.00000000000E+00 -0.10289798473E+03  0.10289798477E+03  0.25500000000E-02 0.  1.
    5000001    1    1    2    0    0  0.10480631997E+03  0.24537887900E+02  0.13101692986E+03  0.23659439672E+03  0.16500000000E+03 0.  0.
   -5000001    1    1    2    0    0 -0.10480631997E+03 -0.24537887900E+02  0.14352501591E+03  0.24374351856E+03  0.16500000000E+03 0.  0.
<mgrwt>
<rscale>  0 0.39414621E+03</rscale>
<asrwt>0</asrwt>
<pdfrwt beam="1">  1        2 0.15830459E-01 0.39414621E+03</pdfrwt>
<pdfrwt beam="2">  1       -2 0.58067681E-01 0.39414621E+03</pdfrwt>
<totfact> 0.10415272E+03</totfact>
</mgrwt>
</event>
<event>
 4    1  0.8362047E-005  0.4891039E+03  0.7818608E-02  0.1016663E+00
         -2   -1    0    0    0  501 -0.00000000000E+00  0.00000000000E+00  0.38460305522E+02  0.38460305607E+02  0.25500000000E-02 0. -1.
          2   -1    0    0  501    0  0.00000000000E+00 -0.00000000000E+00 -0.15549972169E+04  0.15549972169E+04  0.25500000000E-02 0.  1.
    5000001    1    1    2    0    0  0.16728406343E+03 -0.52822763169E+02 -0.61979892846E+03  0.66494354190E+03  0.16500000000E+03 0.  0.
   -5000001    1    1    2    0    0 -0.16728406343E+03  0.52822763169E+02 -0.89673798292E+03  0.92851398062E+03  0.16500000000E+03 0.  0.
<mgrwt>
<rscale>  0 0.48910395E+03</rscale>
<asrwt>0</asrwt>
<pdfrwt beam="1">  1        2 0.23923029E+00 0.48910395E+03</pdfrwt>
<pdfrwt beam="2">  1       -2 0.59169713E-02 0.48910395E+03</pdfrwt>
<totfact> 0.19151113E+03</totfact>
</mgrwt>
</event>
<event>
 4    1  0.8362047E-005  0.1008388E+04  0.7818608E-02  0.9299393E-01
         -2   -1    0    0    0  501 -0.00000000000E+00  0.00000000000E+00  0.36291123351E+03  0.36291123352E+03  0.25500000000E-02 0. -1.
          2   -1    0    0  501    0  0.00000000000E+00 -0.00000000000E+00 -0.70047862405E+03  0.70047862405E+03  0.25500000000E-02 0.  1.
    5000001    1    1    2    0    0 -0.34344590700E+03  0.11937263852E+03  0.15587496098E+03  0.42863378463E+03  0.16500000000E+03 0.  0.
   -5000001    1    1    2    0    0  0.34344590700E+03 -0.11937263852E+03 -0.49344235152E+03  0.63475607294E+03  0.16500000000E+03 0.  0.
<mgrwt>
<rscale>  0 0.10083879E+04</rscale>
<asrwt>0</asrwt>
<pdfrwt beam="1">  1        2 0.10776594E+00 0.10083879E+04</pdfrwt>
<pdfrwt beam="2">  1       -2 0.55832498E-01 0.10083879E+04</pdfrwt>
<totfact> 0.12314326E+02</totfact>
</mgrwt>
</event>
<event>
 4    1  0.8362047E-005  0.4565162E+03  0.7818608E-02  0.1025796E+00
         -2   -1    0    0    0  501 -0.00000000000E+00  0.00000000000E+00  0.30117568429E+02  0.30117568537E+02  0.25500000000E-02 0. -1.
          2   -1    0    0  501    0  0.00000000000E+00 -0.00000000000E+00 -0.17299460403E+04  0.17299460403E+04  0.25500000000E-02 0.  1.
    5000001    1    1    2    0    0  0.86477777017E+02 -0.18132224215E+02 -0.34620070671E+03  0.39355700070E+03  0.16500000000E+03 0.  0.
   -5000001    1    1    2    0    0 -0.86477777017E+02  0.18132224215E+02 -0.13536277651E+04  0.13665066081E+04  0.16500000000E+03 0.  0.
<mgrwt>
<rscale>  0 0.45651624E+03</rscale>
<asrwt>0</asrwt>
<pdfrwt beam="1">  1        2 0.26614547E+00 0.45651624E+03</pdfrwt>
<pdfrwt beam="2">  1       -2 0.46334734E-02 0.45651624E+03</pdfrwt>
<totfact> 0.22510790E+03</totfact>
</mgrwt>
</event>
<event>
 4    1  0.8362047E-005  0.4069472E+03  0.7818608E-02  0.1041400E+00
          2   -1    0    0  501    0  0.00000000000E+00  0.00000000000E+00  0.53430172742E+03  0.53430172742E+03  0.25500000000E-02 0.  1.
         -2   -1    0    0    0  501 -0.00000000000E+00 -0.00000000000E+00 -0.77487127636E+02  0.77487127678E+02  0.25500000000E-02 0. -1.
    5000001    1    1    2    0    0 -0.70982490383E+02  0.78821658566E+02  0.14709865895E+03  0.24518234697E+03  0.16500000000E+03 0.  0.
   -5000001    1    1    2    0    0  0.70982490383E+02 -0.78821658566E+02  0.30971594084E+03  0.36660650814E+03  0.16500000000E+03 0.  0.
<mgrwt>
<rscale>  0 0.40694720E+03</rscale>
<asrwt>0</asrwt>
<pdfrwt beam="1">  1        2 0.82200268E-01 0.40694720E+03</pdfrwt>
<pdfrwt beam="2">  1       -2 0.11921096E-01 0.40694720E+03</pdfrwt>
<totfact> 0.29015815E+03</totfact>
</mgrwt>
</event>
<event>
 4    1  0.8362047E-005  0.6541539E+03  0.7818608E-02  0.9799016E-01
         -2   -1    0    0    0  501 -0.00000000000E+00  0.00000000000E+00  0.11202338819E+03  0.11202338822E+03  0.25500000000E-02 0. -1.
          2   -1    0    0  501    0  0.00000000000E+00 -0.00000000000E+00 -0.95497312796E+03  0.95497312796E+03  0.25500000000E-02 0.  1.
    5000001    1    1    2    0    0  0.37114738687E+01 -0.24582415824E+03 -0.19480915298E+03  0.35442756368E+03  0.16500000000E+03 0.  0.
   -5000001    1    1    2    0    0 -0.37114738687E+01  0.24582415824E+03 -0.64814058679E+03  0.71256895249E+03  0.16500000000E+03 0.  0.
<mgrwt>
<rscale>  0 0.65415388E+03</rscale>
<asrwt>0</asrwt>
<pdfrwt beam="1">  1        2 0.14691894E+00 0.65415388E+03</pdfrwt>
<pdfrwt beam="2">  1       -2 0.17234368E-01 0.65415388E+03</pdfrwt>
<totfact> 0.75011842E+02</totfact>
</mgrwt>
</event>
<event>
 4    1  0.8362047E-005  0.2429909E+04  0.7818608E-02  0.8428390E-01
          2   -1    0    0  501    0  0.00000000000E+00  0.00000000000E+00  0.25926099699E+04  0.25926099699E+04  0.25500000000E-02 0.  1.
         -2   -1    0    0    0  501 -0.00000000000E+00 -0.00000000000E+00 -0.56935439064E+03  0.56935439065E+03  0.25500000000E-02 0. -1.
    5000001    1    1    2    0    0  0.86760110284E+03  0.81396315779E+03  0.77302611923E+03  0.14283074168E+04  0.16500000000E+03 0.  0.
   -5000001    1    1    2    0    0 -0.86760110284E+03 -0.81396315779E+03  0.12502294601E+04  0.17336569438E+04  0.16500000000E+03 0.  0.
<mgrwt>
<rscale>  0 0.24299085E+04</rscale>
<asrwt>0</asrwt>
<pdfrwt beam="1">  1        2 0.39886308E+00 0.24299085E+04</pdfrwt>
<pdfrwt beam="2">  1       -2 0.87592982E-01 0.24299085E+04</pdfrwt>
<totfact> 0.31013121E+00</totfact>
</mgrwt>
</event>
<event>
 4    1  0.8362047E-005  0.7525080E+03  0.7818608E-02  0.9631424E-01
         -2   -1    0    0    0  501 -0.00000000000E+00  0.00000000000E+00  0.16264355017E+03  0.16264355019E+03  0.25500000000E-02 0. -1.
          2   -1    0    0  501    0  0.00000000000E+00 -0.00000000000E+00 -0.87041298654E+03  0.87041298655E+03  0.25500000000E-02 0.  1.
    5000001    1    1    2    0    0 -0.20622023638E+03 -0.23843272078E+03 -0.52182425373E+03  0.63158728614E+03  0.16500000000E+03 0.  0.
   -5000001    1    1    2    0    0  0.20622023638E+03  0.23843272078E+03 -0.18594518264E+03  0.40146925060E+03  0.16500000000E+03 0.  0.
<mgrwt>
<rscale>  0 0.75250796E+03</rscale>
<asrwt>0</asrwt>
<pdfrwt beam="1">  1        2 0.13390969E+00 0.75250796E+03</pdfrwt>
<pdfrwt beam="2">  1       -2 0.25022085E-01 0.75250796E+03</pdfrwt>
<totfact> 0.44201159E+02</totfact>
</mgrwt>
</event>
<event>
 4    1  0.8362047E-005  0.4967789E+03  0.7818608E-02  0.1014623E+00
         -2   -1    0    0    0  501 -0.00000000000E+00  0.00000000000E+00  0.22496629455E+03  0.22496629456E+03  0.25500000000E-02 0. -1.
          2   -1    0    0  501    0  0.00000000000E+00 -0.00000000000E+00 -0.27425143141E+03  0.27425143142E+03  0.25500000000E-02 0.  1.
    5000001    1    1    2    0    0  0.61480238964E+02 -0.63694492896E+02 -0.18864769122E+03  0.26580022500E+03  0.16500000000E+03 0.  0.
   -5000001    1    1    2    0    0 -0.61480238964E+02  0.63694492896E+02  0.13936255435E+03  0.23341750098E+03  0.16500000000E+03 0.  0.
<mgrwt>
<rscale>  0 0.49677894E+03</rscale>
<asrwt>0</asrwt>
<pdfrwt beam="1">  1        2 0.42192528E-01 0.49677894E+03</pdfrwt>
<pdfrwt beam="2">  1       -2 0.34610199E-01 0.49677894E+03</pdfrwt>
<totfact> 0.95161151E+02</totfact>
</mgrwt>
</event>
<event>
 4    1  0.8362047E-005  0.7209010E+03  0.7818608E-02  0.9682142E-01
          2   -1    0    0  501    0  0.00000000000E+00  0.00000000000E+00  0.47454832486E+03  0.47454832487E+03  0.25500000000E-02 0.  1.
         -2   -1    0    0    0  501 -0.00000000000E+00 -0.00000000000E+00 -0.27378572313E+03  0.27378572314E+03  0.25500000000E-02 0. -1.
    5000001    1    1    2    0    0  0.30611571036E+03 -0.50559690146E+01  0.19867993363E+03  0.40053852122E+03  0.16500000000E+03 0.  0.
   -5000001    1    1    2    0    0 -0.30611571036E+03  0.50559690146E+01  0.20826681074E+01  0.34779552680E+03  0.16500000000E+03 0.  0.
<mgrwt>
<rscale>  0 0.72090098E+03</rscale>
<asrwt>0</asrwt>
<pdfrwt beam="1">  1        2 0.73007434E-01 0.72090098E+03</pdfrwt>
<pdfrwt beam="2">  1       -2 0.42120881E-01 0.72090098E+03</pdfrwt>
<totfact> 0.35232274E+02</totfact>
</mgrwt>
</event>
<event>
 4    1  0.8362047E-005  0.6853752E+03  0.7818608E-02  0.9742575E-01
          2   -1    0    0  501    0  0.00000000000E+00  0.00000000000E+00  0.14920351211E+04  0.14920351211E+04  0.25500000000E-02 0.  1.
         -2   -1    0    0    0  501 -0.00000000000E+00 -0.00000000000E+00 -0.78707799947E+02  0.78707799988E+02  0.25500000000E-02 0. -1.
    5000001    1    1    2    0    0 -0.21982121590E+03  0.53510223190E+02  0.25392386801E+03  0.37800402338E+03  0.16500000000E+03 0.  0.
   -5000001    1    1    2    0    0  0.21982121590E+03 -0.53510223190E+02  0.11594034531E+04  0.11927388977E+04  0.16500000000E+03 0.  0.
<mgrwt>
<rscale>  0 0.68537523E+03</rscale>
<asrwt>0</asrwt>
<pdfrwt beam="1">  1        2 0.22954389E+00 0.68537523E+03</pdfrwt>
<pdfrwt beam="2">  1       -2 0.12108891E-01 0.68537523E+03</pdfrwt>
<totfact> 0.65300315E+02</totfact>
</mgrwt>
</event>
<event>
 4    1  0.8362047E-005  0.7600645E+03  0.7818608E-02  0.9619692E-01
          2   -1    0    0  501    0  0.00000000000E+00  0.00000000000E+00  0.21185488300E+04  0.21185488300E+04  0.25500000000E-02 0.  1.
         -2   -1    0    0    0  501 -0.00000000000E+00 -0.00000000000E+00 -0.68171425905E+02  0.68171425952E+02  0.25500000000E-02 0. -1.
    5000001    1    1    2    0    0  0.28435883154E+02  0.33135678492E+03  0.79157230519E+03  0.87430980362E+03  0.16500000000E+03 0.  0.
   -5000001    1    1    2    0    0 -0.28435883154E+02 -0.33135678492E+03  0.12588050989E+04  0.13124104523E+04  0.16500000000E+03 0.  0.
<mgrwt>
<rscale>  0 0.76006446E+03</rscale>
<asrwt>0</asrwt>
<pdfrwt beam="1">  1        2 0.32593056E+00 0.76006446E+03</pdfrwt>
<pdfrwt beam="2">  1       -2 0.10487913E-01 0.76006446E+03</pdfrwt>
<totfact> 0.37378729E+02</totfact>
</mgrwt>
</event>
<event>
 4    1  0.8362047E-005  0.3573910E+03  0.7818608E-02  0.1059622E+00
         -2   -1    0    0    0  501 -0.00000000000E+00  0.00000000000E+00  0.53372556895E+02  0.53372556956E+02  0.25500000000E-02 0.  1.
          2   -1    0    0  501    0  0.00000000000E+00 -0.00000000000E+00 -0.59828655600E+03  0.59828655601E+03  0.25500000000E-02 0. -1.
    5000001    1    1    2    0    0  0.14207765419E+01  0.56719577393E+02 -0.20212197663E+03  0.26701577201E+03  0.16500000000E+03 0.  0.
   -5000001    1    1    2    0    0 -0.14207765419E+01 -0.56719577393E+02 -0.34279202248E+03  0.38464334096E+03  0.16500000000E+03 0.  0.
<mgrwt>
<rscale>  0 0.35739101E+03</rscale>
<asrwt>0</asrwt>
<pdfrwt beam="1">  1        2 0.92044081E-01 0.35739101E+03</pdfrwt>
<pdfrwt beam="2">  1       -2 0.82111630E-02 0.35739101E+03</pdfrwt>
<totfact> 0.46146438E+03</totfact>
</mgrwt>
</event>
<event>
 4    1  0.8362047E-005  0.7918134E+03  0.7818608E-02  0.9571943E-01
          2   -1    0    0  501    0  0.00000000000E+00  0.00000000000E+00  0.28397516137E+04  0.28397516137E+04  0.25500000000E-02 0.  1.
         -2   -1    0    0    0  501 -0.00000000000E+00 -0.00000000000E+00 -0.55195709626E+02  0.55195709685E+02  0.25500000000E-02 0. -1.
    5000001    1    1    2    0    0  0.10855511282E+03  0.31724194031E+03  0.91431469809E+03  0.98773631519E+03  0.16500000000E+03 0.  0.
   -5000001    1    1    2    0    0 -0.10855511282E+03 -0.31724194031E+03  0.18702412060E+04  0.19072110082E+04  0.16500000000E+03 0.  0.
<mgrwt>
<rscale>  0 0.79181338E+03</rscale>
<asrwt>0</asrwt>
<pdfrwt beam="1">  1        2 0.43688479E+00 0.79181338E+03</pdfrwt>
<pdfrwt beam="2">  1       -2 0.84916492E-02 0.79181338E+03</pdfrwt>
<totfact> 0.20434271E+02</totfact>
</mgrwt>
</event>
<event>
 4    1  0.8362047E-005  0.4663321E+03  0.7818608E-02  0.1022961E+00
          2   -1    0    0  501    0  0.00000000000E+00  0.00000000000E+00  0.11907390819E+04  0.11907390819E+04  0.25500000000E-02 0.  1.
         -2   -1    0    0    0  501 -0.00000000000E+00 -0.00000000000E+00 -0.45657705232E+02  0.45657705303E+02  0.25500000000E-02 0. -1.
    5000001    1    1    2    0    0 -0.20109498326E+02 -0.16045052643E+03  0.48900717374E+03  0.54083433630E+03  0.16500000000E+03 0.  0.
   -5000001    1    1    2    0    0  0.20109498326E+02  0.16045052643E+03  0.65607420290E+03  0.69556245088E+03  0.16500000000E+03 0.  0.
<mgrwt>
<rscale>  0 0.46633213E+03</rscale>
<asrwt>0</asrwt>
<pdfrwt beam="1">  1        2 0.18319060E+00 0.46633213E+03</pdfrwt>
<pdfrwt beam="2">  1       -2 0.70242633E-02 0.46633213E+03</pdfrwt>
<totfact> 0.23441206E+03</totfact>
</mgrwt>
</event>
<event>
 4    1  0.8362047E-005  0.6376042E+03  0.7818608E-02  0.9830321E-01
          2   -1    0    0  501    0  0.00000000000E+00  0.00000000000E+00  0.22504539432E+04  0.22504539432E+04  0.25500000000E-02 0.  1.
         -2   -1    0    0    0  501 -0.00000000000E+00 -0.00000000000E+00 -0.45161896907E+02  0.45161896979E+02  0.25500000000E-02 0. -1.
    5000001    1    1    2    0    0  0.11740202186E+03 -0.23681972824E+03  0.85997547343E+03  0.91468553794E+03  0.16500000000E+03 0.  0.
   -5000001    1    1    2    0    0 -0.11740202186E+03  0.23681972824E+03  0.13453165729E+04  0.13809303022E+04  0.16500000000E+03 0.  0.
<mgrwt>
<rscale>  0 0.63760417E+03</rscale>
<asrwt>0</asrwt>
<pdfrwt beam="1">  1        2 0.34622374E+00 0.63760417E+03</pdfrwt>
<pdfrwt beam="2">  1       -2 0.69479830E-02 0.63760417E+03</pdfrwt>
<totfact> 0.61906787E+02</totfact>
</mgrwt>
</event>
<event>
 4    1  0.8362047E-005  0.5769207E+03  0.7818608E-02  0.9954480E-01
          2   -1    0    0  501    0  0.00000000000E+00  0.00000000000E+00  0.29831376839E+03  0.29831376840E+03  0.25500000000E-02 0.  1.
         -2   -1    0    0    0  501 -0.00000000000E+00 -0.00000000000E+00 -0.27893236663E+03  0.27893236664E+03  0.25500000000E-02 0. -1.
    5000001    1    1    2    0    0  0.19592995940E+03 -0.58958823931E+02 -0.10920256599E+03  0.28463115137E+03  0.16500000000E+03 0.  0.
   -5000001    1    1    2    0    0 -0.19592995940E+03  0.58958823931E+02  0.12858396775E+03  0.29261498368E+03  0.16500000000E+03 0.  0.
<mgrwt>
<rscale>  0 0.57692067E+03</rscale>
<asrwt>0</asrwt>
<pdfrwt beam="1">  1        2 0.45894426E-01 0.57692067E+03</pdfrwt>
<pdfrwt beam="2">  1       -2 0.42912672E-01 0.57692067E+03</pdfrwt>
<totfact> 0.57304220E+02</totfact>
</mgrwt>
</event>
<event>
 4    1  0.8362047E-005  0.3430298E+03  0.7818608E-02  0.1065513E+00
          2   -1    0    0  501    0  0.00000000000E+00  0.00000000000E+00  0.20850596276E+03  0.20850596277E+03  0.25500000000E-02 0.  1.
         -2   -1    0    0    0  501 -0.00000000000E+00 -0.00000000000E+00 -0.14108639826E+03  0.14108639828E+03  0.25500000000E-02 0. -1.
    5000001    1    1    2    0    0 -0.37375193262E+02 -0.23892379306E+02  0.48983308008E+02  0.17774170958E+03  0.16500000000E+03 0.  0.
   -5000001    1    1    2    0    0  0.37375193262E+02  0.23892379306E+02  0.18436256489E+02  0.17185065148E+03  0.16500000000E+03 0.  0.
<mgrwt>
<rscale>  0 0.34302977E+03</rscale>
<asrwt>0</asrwt>
<pdfrwt beam="1">  1        2 0.32077840E-01 0.34302977E+03</pdfrwt>
<pdfrwt beam="2">  1       -2 0.21705600E-01 0.34302977E+03</pdfrwt>
<totfact> 0.29791769E+03</totfact>
</mgrwt>
</event>
<event>
 4    1  0.8362047E-005  0.4776937E+03  0.7818608E-02  0.1019771E+00
         -2   -1    0    0    0  501 -0.00000000000E+00  0.00000000000E+00  0.64030968080E+02  0.64030968131E+02  0.25500000000E-02 0. -1.
          2   -1    0    0  501    0  0.00000000000E+00 -0.00000000000E+00 -0.89094102911E+03  0.89094102912E+03  0.25500000000E-02 0.  1.
    5000001    1    1    2    0    0  0.16840249770E+03  0.30116683203E+02 -0.46061081708E+03  0.51831818475E+03  0.16500000000E+03 0.  0.
   -5000001    1    1    2    0    0 -0.16840249770E+03 -0.30116683203E+02 -0.36629924396E+03  0.43665381249E+03  0.16500000000E+03 0.  0.
<mgrwt>
<rscale>  0 0.47769370E+03</rscale>
<asrwt>0</asrwt>
<pdfrwt beam="1">  1        2 0.13706784E+00 0.47769370E+03</pdfrwt>
<pdfrwt beam="2">  1       -2 0.98509188E-02 0.47769370E+03</pdfrwt>
<totfact> 0.20978287E+03</totfact>
</mgrwt>
</event>
<event>
 4    1  0.8362047E-005  0.4659149E+03  0.7818608E-02  0.1023080E+00
         -2   -1    0    0    0  501 -0.00000000000E+00  0.00000000000E+00  0.17590400625E+03  0.17590400626E+03  0.25500000000E-02 0. -1.
          2   -1    0    0  501    0  0.00000000000E+00 -0.00000000000E+00 -0.30851589825E+03  0.30851589826E+03  0.25500000000E-02 0.  1.
    5000001    1    1    2    0    0 -0.10429842459E+02  0.14685782910E+03  0.98719257821E+01  0.22135595429E+03  0.16500000000E+03 0.  0.
   -5000001    1    1    2    0    0  0.10429842459E+02 -0.14685782910E+03 -0.14248381778E+03  0.26306395023E+03  0.16500000000E+03 0.  0.
<mgrwt>
<rscale>  0 0.46591494E+03</rscale>
<asrwt>0</asrwt>
<pdfrwt beam="1">  1        2 0.47463984E-01 0.46591494E+03</pdfrwt>
<pdfrwt beam="2">  1       -2 0.27062155E-01 0.46591494E+03</pdfrwt>
<totfact> 0.13168990E+03</totfact>
</mgrwt>
</event>
<event>
 4    1  0.8362047E-005  0.3888369E+03  0.7818608E-02  0.1047715E+00
          2   -1    0    0  501    0  0.00000000000E+00  0.00000000000E+00  0.74256559524E+03  0.74256559524E+03  0.25500000000E-02 0.  1.
         -2   -1    0    0    0  501 -0.00000000000E+00 -0.00000000000E+00 -0.50902624735E+02  0.50902624798E+02  0.25500000000E-02 0. -1.
    5000001    1    1    2    0    0 -0.26449079207E+02  0.97229484914E+02  0.30399075561E+03  0.36026171879E+03  0.16500000000E+03 0.  0.
   -5000001    1    1    2    0    0  0.26449079207E+02 -0.97229484914E+02  0.38767221489E+03  0.43320650125E+03  0.16500000000E+03 0.  0.
<mgrwt>
<rscale>  0 0.38883692E+03</rscale>
<asrwt>0</asrwt>
<pdfrwt beam="1">  1        2 0.11424086E+00 0.38883692E+03</pdfrwt>
<pdfrwt beam="2">  1       -2 0.78311730E-02 0.38883692E+03</pdfrwt>
<totfact> 0.38319481E+03</totfact>
</mgrwt>
</event>
<event>
 4    1  0.8362047E-005  0.4077232E+03  0.7818608E-02  0.1041138E+00
         -2   -1    0    0    0  501 -0.00000000000E+00  0.00000000000E+00  0.50649849992E+02  0.50649850056E+02  0.25500000000E-02 0. -1.
          2   -1    0    0  501    0  0.00000000000E+00 -0.00000000000E+00 -0.82052674227E+03  0.82052674228E+03  0.25500000000E-02 0.  1.
    5000001    1    1    2    0    0 -0.50819698114E+02  0.95340881784E+02 -0.49518050193E+03  0.53301149608E+03  0.16500000000E+03 0.  0.
   -5000001    1    1    2    0    0  0.50819698114E+02 -0.95340881784E+02 -0.27469639035E+03  0.33816509626E+03  0.16500000000E+03 0.  0.
<mgrwt>
<rscale>  0 0.40772322E+03</rscale>
<asrwt>0</asrwt>
<pdfrwt beam="1">  1        2 0.12623487E+00 0.40772322E+03</pdfrwt>
<pdfrwt beam="2">  1       -2 0.77922852E-02 0.40772322E+03</pdfrwt>
<totfact> 0.34001464E+03</totfact>
</mgrwt>
</event>
<event>
 4    1  0.8362047E-005  0.5836568E+03  0.7818608E-02  0.9939905E-01
         -2   -1    0    0    0  501 -0.00000000000E+00  0.00000000000E+00  0.16032134339E+03  0.16032134341E+03  0.25500000000E-02 0. -1.
          2   -1    0    0  501    0  0.00000000000E+00 -0.00000000000E+00 -0.53120691864E+03  0.53120691864E+03  0.25500000000E-02 0.  1.
    5000001    1    1    2    0    0  0.12721828426E+03 -0.18350372802E+03 -0.78936116660E+02  0.28864168195E+03  0.16500000000E+03 0.  0.
   -5000001    1    1    2    0    0 -0.12721828426E+03  0.18350372802E+03 -0.29194945859E+03  0.40288658009E+03  0.16500000000E+03 0.  0.
<mgrwt>
<rscale>  0 0.58365677E+03</rscale>
<asrwt>0</asrwt>
<pdfrwt beam="1">  1        2 0.81724141E-01 0.58365677E+03</pdfrwt>
<pdfrwt beam="2">  1       -2 0.24664822E-01 0.58365677E+03</pdfrwt>
<totfact> 0.84618848E+02</totfact>
</mgrwt>
</event>
<event>
 4    1  0.8362047E-005  0.6349742E+03  0.7818608E-02  0.9835390E-01
          2   -1    0    0  501    0  0.00000000000E+00  0.00000000000E+00  0.16848162129E+04  0.16848162129E+04  0.25500000000E-02 0.  1.
         -2   -1    0    0    0  501 -0.00000000000E+00 -0.00000000000E+00 -0.59827330368E+02  0.59827330422E+02  0.25500000000E-02 0. -1.
    5000001    1    1    2    0    0 -0.22061760159E+03 -0.13521881769E+03  0.58899590439E+03  0.66415166203E+03  0.16500000000E+03 0.  0.
   -5000001    1    1    2    0    0  0.22061760159E+03  0.13521881769E+03  0.10359929782E+04  0.10804918813E+04  0.16500000000E+03 0.  0.
<mgrwt>
<rscale>  0 0.63497419E+03</rscale>
<asrwt>0</asrwt>
<pdfrwt beam="1">  1        2 0.25920250E+00 0.63497419E+03</pdfrwt>
<pdfrwt beam="2">  1       -2 0.92042046E-02 0.63497419E+03</pdfrwt>
<totfact> 0.80275944E+02</totfact>
</mgrwt>
</event>
<event>
 4    1  0.8362047E-005  0.4291537E+03  0.7818608E-02  0.1034128E+00
          2   -1    0    0  501    0  0.00000000000E+00  0.00000000000E+00  0.95019153119E+03  0.95019153120E+03  0.25500000000E-02 0. -1.
         -2   -1    0    0    0  501 -0.00000000000E+00 -0.00000000000E+00 -0.48456771419E+02  0.48456771486E+02  0.25500000000E-02 0.  1.
    5000001    1    1    2    0    0 -0.29249548638E+02 -0.11507122106E+03  0.29097411102E+03  0.35494767966E+03  0.16500000000E+03 0.  0.
   -5000001    1    1    2    0    0  0.29249548638E+02  0.11507122106E+03  0.61076064876E+03  0.64370062302E+03  0.16500000000E+03 0.  0.
<mgrwt>
<rscale>  0 0.42915365E+03</rscale>
<asrwt>0</asrwt>
<pdfrwt beam="1">  1        2 0.14618330E+00 0.42915365E+03</pdfrwt>
<pdfrwt beam="2">  1       -2 0.74548885E-02 0.42915365E+03</pdfrwt>
<totfact> 0.29903928E+03</totfact>
</mgrwt>
</event>
<event>
 4    1  0.8362047E-005  0.5687530E+03  0.7818608E-02  0.9972442E-01
          2   -1    0    0  501    0  0.00000000000E+00  0.00000000000E+00  0.86318101067E+03  0.86318101067E+03  0.25500000000E-02 0.  1.
         -2   -1    0    0    0  501 -0.00000000000E+00 -0.00000000000E+00 -0.93688350324E+02  0.93688350359E+02  0.25500000000E-02 0. -1.
    5000001    1    1    2    0    0 -0.33929895241E+02  0.22219189515E+03  0.29070447459E+03  0.40280835096E+03  0.16500000000E+03 0.  0.
   -5000001    1    1    2    0    0  0.33929895241E+02 -0.22219189515E+03  0.47878818576E+03  0.55406101007E+03  0.16500000000E+03 0.  0.
<mgrwt>
<rscale>  0 0.56875304E+03</rscale>
<asrwt>0</asrwt>
<pdfrwt beam="1">  1        2 0.13279707E+00 0.56875304E+03</pdfrwt>
<pdfrwt beam="2">  1       -2 0.14413593E-01 0.56875304E+03</pdfrwt>
<totfact> 0.11712022E+03</totfact>
</mgrwt>
</event>
<event>
 4    1  0.8362047E-005  0.6250807E+03  0.7818608E-02  0.9854696E-01
          2   -1    0    0  501    0  0.00000000000E+00  0.00000000000E+00  0.30361298843E+03  0.30361298844E+03  0.25500000000E-02 0.  1.
         -2   -1    0    0    0  501 -0.00000000000E+00 -0.00000000000E+00 -0.32173023410E+03  0.32173023411E+03  0.25500000000E-02 0. -1.
    5000001    1    1    2    0    0  0.56649104193E+02 -0.19852652274E+03  0.15784841545E+03  0.30783603346E+03  0.16500000000E+03 0.  0.
   -5000001    1    1    2    0    0 -0.56649104193E+02  0.19852652274E+03 -0.17596566112E+03  0.31750718910E+03  0.16500000000E+03 0.  0.
<mgrwt>
<rscale>  0 0.62508072E+03</rscale>
<asrwt>0</asrwt>
<pdfrwt beam="1">  1        2 0.46709690E-01 0.62508072E+03</pdfrwt>
<pdfrwt beam="2">  1       -2 0.49496960E-01 0.62508072E+03</pdfrwt>
<totfact> 0.42234130E+02</totfact>
</mgrwt>
</event>
<event>
 4    1  0.8362047E-005  0.5876849E+03  0.7818608E-02  0.9931291E-01
          2   -1    0    0  501    0  0.00000000000E+00  0.00000000000E+00  0.80292381458E+03  0.80292381458E+03  0.25500000000E-02 0.  1.
         -2   -1    0    0    0  501 -0.00000000000E+00 -0.00000000000E+00 -0.10753619790E+03  0.10753619793E+03  0.25500000000E-02 0. -1.
    5000001    1    1    2    0    0 -0.51705114463E+02  0.23718537957E+03  0.32644892735E+03  0.43900367346E+03  0.16500000000E+03 0.  0.
   -5000001    1    1    2    0    0  0.51705114463E+02 -0.23718537957E+03  0.36893868934E+03  0.47145633905E+03  0.16500000000E+03 0.  0.
<mgrwt>
<rscale>  0 0.58768486E+03</rscale>
<asrwt>0</asrwt>
<pdfrwt beam="1">  1        2 0.12352674E+00 0.58768486E+03</pdfrwt>
<pdfrwt beam="2">  1       -2 0.16544031E-01 0.58768486E+03</pdfrwt>
<totfact> 0.10217452E+03</totfact>
</mgrwt>
</event>
<event>
 4    1  0.8362047E-005  0.4724995E+03  0.7818608E-02  0.1021217E+00
         -2   -1    0    0    0  501 -0.00000000000E+00  0.00000000000E+00  0.13858380353E+03  0.13858380356E+03  0.25500000000E-02 0. -1.
          2   -1    0    0  501    0  0.00000000000E+00 -0.00000000000E+00 -0.40274499494E+03  0.40274499495E+03  0.25500000000E-02 0.  1.
    5000001    1    1    2    0    0 -0.15649674841E+03 -0.34652085048E+02 -0.70416960690E+02  0.24057337262E+03  0.16500000000E+03 0.  0.
   -5000001    1    1    2    0    0  0.15649674841E+03  0.34652085048E+02 -0.19374423072E+03  0.30075542588E+03  0.16500000000E+03 0.  0.
<mgrwt>
<rscale>  0 0.47249945E+03</rscale>
<asrwt>0</asrwt>
<pdfrwt beam="1">  1        2 0.61960768E-01 0.47249945E+03</pdfrwt>
<pdfrwt beam="2">  1       -2 0.21320585E-01 0.47249945E+03</pdfrwt>
<totfact> 0.15000192E+03</totfact>
</mgrwt>
</event>
<event>
 4    1  0.8362047E-005  0.4493694E+03  0.7818608E-02  0.1027910E+00
          2   -1    0    0  501    0  0.00000000000E+00  0.00000000000E+00  0.31674476833E+04  0.31674476833E+04  0.25500000000E-02 0.  1.
         -2   -1    0    0    0  501 -0.00000000000E+00 -0.00000000000E+00 -0.15938135107E+02  0.15938135311E+02  0.25500000000E-02 0. -1.
    5000001    1    1    2    0    0  0.88693400536E+02 -0.11022450232E+03  0.19791297954E+04  0.19910288062E+04  0.16500000000E+03 0.  0.
   -5000001    1    1    2    0    0 -0.88693400536E+02  0.11022450232E+03  0.11723797528E+04  0.11923570124E+04  0.16500000000E+03 0.  0.
<mgrwt>
<rscale>  0 0.44936938E+03</rscale>
<asrwt>0</asrwt>
<pdfrwt beam="1">  1        2 0.48729988E+00 0.44936938E+03</pdfrwt>
<pdfrwt beam="2">  1       -2 0.24520196E-02 0.44936938E+03</pdfrwt>
<totfact> 0.91820044E+02</totfact>
</mgrwt>
</event>
<event>
 4    1  0.8362047E-005  0.4101123E+03  0.7818608E-02  0.1040333E+00
          2   -1    0    0  501    0  0.00000000000E+00  0.00000000000E+00  0.92047942495E+03  0.92047942495E+03  0.25500000000E-02 0.  1.
         -2   -1    0    0    0  501 -0.00000000000E+00 -0.00000000000E+00 -0.45680562660E+02  0.45680562731E+02  0.25500000000E-02 0. -1.
    5000001    1    1    2    0    0 -0.86202225708E+01 -0.11121532323E+03  0.55232645203E+03  0.58713939229E+03  0.16500000000E+03 0.  0.
   -5000001    1    1    2    0    0  0.86202225708E+01  0.11121532323E+03  0.32247241025E+03  0.37902059540E+03  0.16500000000E+03 0.  0.
<mgrwt>
<rscale>  0 0.41011227E+03</rscale>
<asrwt>0</asrwt>
<pdfrwt beam="1">  1        2 0.14161219E+00 0.41011227E+03</pdfrwt>
<pdfrwt beam="2">  1       -2 0.70277801E-02 0.41011227E+03</pdfrwt>
<totfact> 0.34278936E+03</totfact>
</mgrwt>
</event>
<event>
 4    1  0.8362047E-005  0.4744204E+03  0.7818608E-02  0.1020680E+00
          2   -1    0    0  501    0  0.00000000000E+00  0.00000000000E+00  0.21702417871E+04  0.21702417871E+04  0.25500000000E-02 0.  1.
         -2   -1    0    0    0  501 -0.00000000000E+00 -0.00000000000E+00 -0.25927375505E+02  0.25927375630E+02  0.25500000000E-02 0. -1.
    5000001    1    1    2    0    0 -0.95515587399E+02 -0.99797661373E+00  0.17255000372E+04  0.17360010374E+04  0.16500000000E+03 0.  0.
   -5000001    1    1    2    0    0  0.95515587399E+02  0.99797661373E+00  0.41881437440E+03  0.46016812536E+03  0.16500000000E+03 0.  0.
<mgrwt>
<rscale>  0 0.47442038E+03</rscale>
<asrwt>0</asrwt>
<pdfrwt beam="1">  1        2 0.33388325E+00 0.47442038E+03</pdfrwt>
<pdfrwt beam="2">  1       -2 0.39888282E-02 0.47442038E+03</pdfrwt>
<totfact> 0.16410046E+03</totfact>
</mgrwt>
</event>
<event>
 4    1  0.8362047E-005  0.8812048E+03  0.7818608E-02  0.9449386E-01
         -2   -1    0    0    0  501 -0.00000000000E+00  0.00000000000E+00  0.17512582209E+03  0.17512582211E+03  0.25500000000E-02 0. -1.
          2   -1    0    0  501    0  0.00000000000E+00 -0.00000000000E+00 -0.11085201062E+04  0.11085201062E+04  0.25500000000E-02 0.  1.
    5000001    1    1    2    0    0 -0.30188491921E+03 -0.24398732518E+03 -0.65233951133E+03  0.77681153270E+03  0.16500000000E+03 0.  0.
   -5000001    1    1    2    0    0  0.30188491921E+03  0.24398732518E+03 -0.28105477282E+03  0.50683439566E+03  0.16500000000E+03 0.  0.
<mgrwt>
<rscale>  0 0.88120485E+03</rscale>
<asrwt>0</asrwt>
<pdfrwt beam="1">  1        2 0.17054155E+00 0.88120485E+03</pdfrwt>
<pdfrwt beam="2">  1       -2 0.26942435E-01 0.88120485E+03</pdfrwt>
<totfact> 0.26979648E+02</totfact>
</mgrwt>
</event>
<event>
 4    1  0.8362047E-005  0.5073744E+03  0.7818608E-02  0.1011872E+00
          2   -1    0    0  501    0  0.00000000000E+00  0.00000000000E+00  0.12208403404E+03  0.12208403406E+03  0.25500000000E-02 0.  1.
         -2   -1    0    0    0  501 -0.00000000000E+00 -0.00000000000E+00 -0.52715479993E+03  0.52715479993E+03  0.25500000000E-02 0. -1.
    5000001    1    1    2    0    0 -0.13331432447E+03 -0.13117193798E+02 -0.37978455114E+03  0.43520808261E+03  0.16500000000E+03 0.  0.
   -5000001    1    1    2    0    0  0.13331432447E+03  0.13117193798E+02 -0.25286214748E+02  0.21403075138E+03  0.16500000000E+03 0.  0.
<mgrwt>
<rscale>  0 0.50737436E+03</rscale>
<asrwt>0</asrwt>
<pdfrwt beam="1">  1        2 0.18782159E-01 0.50737436E+03</pdfrwt>
<pdfrwt beam="2">  1       -2 0.81100737E-01 0.50737436E+03</pdfrwt>
<totfact> 0.41428327E+02</totfact>
</mgrwt>
</event>
<event>
 4    1  0.8362047E-005  0.6049380E+03  0.7818608E-02  0.9895214E-01
         -2   -1    0    0    0  501 -0.00000000000E+00  0.00000000000E+00  0.27888901056E+02  0.27888901173E+02  0.25500000000E-02 0. -1.
          2   -1    0    0  501    0  0.00000000000E+00 -0.00000000000E+00 -0.32804265620E+04  0.32804265620E+04  0.25500000000E-02 0.  1.
    5000001    1    1    2    0    0  0.22094834520E+03  0.11728947092E+03 -0.18509248439E+04  0.18750260715E+04  0.16500000000E+03 0.  0.
   -5000001    1    1    2    0    0 -0.22094834520E+03 -0.11728947092E+03 -0.14016128170E+04  0.14332893916E+04  0.16500000000E+03 0.  0.
<mgrwt>
<rscale>  0 0.60493799E+03</rscale>
<asrwt>0</asrwt>
<pdfrwt beam="1">  1        2 0.50468070E+00 0.60493799E+03</pdfrwt>
<pdfrwt beam="2">  1       -2 0.42906028E-02 0.60493799E+03</pdfrwt>
<totfact> 0.32614769E+02</totfact>
</mgrwt>
</event>
<event>
 4    1  0.8362047E-005  0.4865954E+03  0.7818608E-02  0.1017338E+00
          2   -1    0    0  501    0  0.00000000000E+00  0.00000000000E+00  0.95955471707E+03  0.95955471708E+03  0.25500000000E-02 0.  1.
         -2   -1    0    0    0  501 -0.00000000000E+00 -0.00000000000E+00 -0.61688791367E+02  0.61688791419E+02  0.25500000000E-02 0. -1.
    5000001    1    1    2    0    0  0.11072134336E+03  0.84480896287E+01  0.15482148048E+03  0.25204221256E+03  0.16500000000E+03 0.  0.
   -5000001    1    1    2    0    0 -0.11072134336E+03 -0.84480896287E+01  0.74304444522E+03  0.76920129594E+03  0.16500000000E+03 0.  0.
<mgrwt>
<rscale>  0 0.48659540E+03</rscale>
<asrwt>0</asrwt>
<pdfrwt beam="1">  1        2 0.14762380E+00 0.48659540E+03</pdfrwt>
<pdfrwt beam="2">  1       -2 0.94905832E-02 0.48659540E+03</pdfrwt>
<totfact> 0.20092049E+03</totfact>
</mgrwt>
</event>
<event>
 4    1  0.8362047E-005  0.5782820E+03  0.7818608E-02  0.9951517E-01
         -2   -1    0    0    0  501 -0.00000000000E+00  0.00000000000E+00  0.34065008658E+02  0.34065008754E+02  0.25500000000E-02 0. -1.
          2   -1    0    0  501    0  0.00000000000E+00 -0.00000000000E+00 -0.24542047875E+04  0.24542047875E+04  0.25500000000E-02 0.  1.
    5000001    1    1    2    0    0 -0.17467160577E+03 -0.36046701298E+01 -0.19019400200E+04  0.19170612935E+04  0.16500000000E+03 0.  0.
   -5000001    1    1    2    0    0  0.17467160577E+03  0.36046701298E+01 -0.51819975883E+03  0.57120850270E+03  0.16500000000E+03 0.  0.
<mgrwt>
<rscale>  0 0.57828196E+03</rscale>
<asrwt>0</asrwt>
<pdfrwt beam="1">  1        2 0.37756983E+00 0.57828196E+03</pdfrwt>
<pdfrwt beam="2">  1       -2 0.52407725E-02 0.57828196E+03</pdfrwt>
<totfact> 0.74615593E+02</totfact>
</mgrwt>
</event>
<event>
 4    1  0.8362047E-005  0.4943254E+03  0.7818608E-02  0.1015271E+00
         -2   -1    0    0    0  501 -0.00000000000E+00  0.00000000000E+00  0.27727471272E+03  0.27727471274E+03  0.25500000000E-02 0. -1.
          2   -1    0    0  501    0  0.00000000000E+00 -0.00000000000E+00 -0.22032084411E+03  0.22032084412E+03  0.25500000000E-02 0.  1.
    5000001    1    1    2    0    0 -0.86887672653E+02  0.13300389227E+03  0.12196162593E+03  0.25949786361E+03  0.16500000000E+03 0.  0.
   -5000001    1    1    2    0    0  0.86887672653E+02 -0.13300389227E+03 -0.65007757315E+02  0.23809769325E+03  0.16500000000E+03 0.  0.
<mgrwt>
<rscale>  0 0.49432539E+03</rscale>
<asrwt>0</asrwt>
<pdfrwt beam="1">  1        2 0.33895514E-01 0.49432539E+03</pdfrwt>
<pdfrwt beam="2">  1       -2 0.42657648E-01 0.49432539E+03</pdfrwt>
<totfact> 0.81092393E+02</totfact>
</mgrwt>
</event>
<event>
 4    1  0.8362047E-005  0.3643685E+03  0.7818608E-02  0.1056867E+00
          2   -1    0    0  501    0  0.00000000000E+00  0.00000000000E+00  0.26915226180E+03  0.26915226181E+03  0.25500000000E-02 0.  1.
         -2   -1    0    0    0  501 -0.00000000000E+00 -0.00000000000E+00 -0.12331716678E+03  0.12331716681E+03  0.25500000000E-02 0. -1.
    5000001    1    1    2    0    0 -0.87000996117E+01 -0.71652303835E+02  0.10254037116E+03  0.20724206160E+03  0.16500000000E+03 0.  0.
   -5000001    1    1    2    0    0  0.87000996117E+01  0.71652303835E+02  0.43294723856E+02  0.18522736702E+03  0.16500000000E+03 0.  0.
<mgrwt>
<rscale>  0 0.36436846E+03</rscale>
<asrwt>0</asrwt>
<pdfrwt beam="1">  1        2 0.41408040E-01 0.36436846E+03</pdfrwt>
<pdfrwt beam="2">  1       -2 0.18971872E-01 0.36436846E+03</pdfrwt>
<totfact> 0.28457093E+03</totfact>
</mgrwt>
</event>
<event>
 4    1  0.8362047E-005  0.4776152E+03  0.7818608E-02  0.1019793E+00
         -2   -1    0    0    0  501 -0.00000000000E+00  0.00000000000E+00  0.68642053503E+02  0.68642053550E+02  0.25500000000E-02 0. -1.
          2   -1    0    0  501    0  0.00000000000E+00 -0.00000000000E+00 -0.83081819101E+03  0.83081819101E+03  0.25500000000E-02 0.  1.
    5000001    1    1    2    0    0 -0.13219084738E+03  0.88022779589E+02 -0.25361625130E+03  0.34171425604E+03  0.16500000000E+03 0.  0.
   -5000001    1    1    2    0    0  0.13219084738E+03 -0.88022779589E+02 -0.50855988620E+03  0.55774598852E+03  0.16500000000E+03 0.  0.
<mgrwt>
<rscale>  0 0.47761519E+03</rscale>
<asrwt>0</asrwt>
<pdfrwt beam="1">  1        2 0.12781818E+00 0.47761519E+03</pdfrwt>
<pdfrwt beam="2">  1       -2 0.10560317E-01 0.47761519E+03</pdfrwt>
<totfact> 0.20594511E+03</totfact>
</mgrwt>
</event>
<event>
 4    1  0.8362047E-005  0.5701654E+03  0.7818608E-02  0.9969313E-01
         -2   -1    0    0    0  501 -0.00000000000E+00  0.00000000000E+00  0.25581644440E+02  0.25581644567E+02  0.25500000000E-02 0. -1.
          2   -1    0    0  501    0  0.00000000000E+00 -0.00000000000E+00 -0.31769710723E+04  0.31769710723E+04  0.25500000000E-02 0.  1.
    5000001    1    1    2    0    0  0.92276516313E+02  0.21063767387E+03 -0.13840643350E+04  0.14127074249E+04  0.16500000000E+03 0.  0.
   -5000001    1    1    2    0    0 -0.92276516313E+02 -0.21063767387E+03 -0.17673250929E+04  0.17898452920E+04  0.16500000000E+03 0.  0.
<mgrwt>
<rscale>  0 0.57016540E+03</rscale>
<asrwt>0</asrwt>
<pdfrwt beam="1">  1        2 0.48876447E+00 0.57016540E+03</pdfrwt>
<pdfrwt beam="2">  1       -2 0.39356401E-02 0.57016540E+03</pdfrwt>
<totfact> 0.43531660E+02</totfact>
</mgrwt>
</event>
<event>
 4    1  0.8362047E-005  0.4072383E+03  0.7818608E-02  0.1041302E+00
         -2   -1    0    0    0  501 -0.00000000000E+00  0.00000000000E+00  0.18677574876E+02  0.18677575050E+02  0.25500000000E-02 0. -1.
          2   -1    0    0  501    0  0.00000000000E+00 -0.00000000000E+00 -0.22198151828E+04  0.22198151828E+04  0.25500000000E-02 0.  1.
    5000001    1    1    2    0    0  0.88995471617E+02  0.79459790403E+02 -0.11077614263E+04  0.11263189734E+04  0.16500000000E+03 0.  0.
   -5000001    1    1    2    0    0 -0.88995471617E+02 -0.79459790403E+02 -0.10933761816E+04  0.11121737844E+04  0.16500000000E+03 0.  0.
<mgrwt>
<rscale>  0 0.40723833E+03</rscale>
<asrwt>0</asrwt>
<pdfrwt beam="1">  1        2 0.34150982E+00 0.40723833E+03</pdfrwt>
<pdfrwt beam="2">  1       -2 0.28734748E-02 0.40723833E+03</pdfrwt>
<totfact> 0.25460849E+03</totfact>
</mgrwt>
</event>
<event>
 4    1  0.8362047E-005  0.4319736E+03  0.7818608E-02  0.1033238E+00
         -2   -1    0    0    0  501 -0.00000000000E+00  0.00000000000E+00  0.25785780478E+02  0.25785780605E+02  0.25500000000E-02 0. -1.
          2   -1    0    0  501    0  0.00000000000E+00 -0.00000000000E+00 -0.18091481542E+04  0.18091481542E+04  0.25500000000E-02 0.  1.
    5000001    1    1    2    0    0  0.12640924778E+03 -0.56535928768E+02 -0.82455960860E+03  0.85223186827E+03  0.16500000000E+03 0.  0.
   -5000001    1    1    2    0    0 -0.12640924778E+03  0.56535928768E+02 -0.95880276514E+03  0.98270206655E+03  0.16500000000E+03 0.  0.
<mgrwt>
<rscale>  0 0.43197360E+03</rscale>
<asrwt>0</asrwt>
<pdfrwt beam="1">  1        2 0.27833039E+00 0.43197360E+03</pdfrwt>
<pdfrwt beam="2">  1       -2 0.39670446E-02 0.43197360E+03</pdfrwt>
<totfact> 0.25913233E+03</totfact>
</mgrwt>
</event>
<event>
 4    1  0.8362047E-005  0.4936138E+03  0.7818608E-02  0.1015459E+00
         -2   -1    0    0    0  501 -0.00000000000E+00  0.00000000000E+00  0.24630589380E+03  0.24630589381E+03  0.25500000000E-02 0. -1.
          2   -1    0    0  501    0  0.00000000000E+00 -0.00000000000E+00 -0.24730891607E+03  0.24730891608E+03  0.25500000000E-02 0.  1.
    5000001    1    1    2    0    0  0.15822126677E+03  0.92956296088E+02  0.32135178717E+01  0.24679985603E+03  0.16500000000E+03 0.  0.
   -5000001    1    1    2    0    0 -0.15822126677E+03 -0.92956296088E+02 -0.42165401432E+01  0.24681495386E+03  0.16500000000E+03 0.  0.
<mgrwt>
<rscale>  0 0.49361379E+03</rscale>
<asrwt>0</asrwt>
<pdfrwt beam="1">  1        2 0.38047525E-01 0.49361379E+03</pdfrwt>
<pdfrwt beam="2">  1       -2 0.37893215E-01 0.49361379E+03</pdfrwt>
<totfact> 0.89760580E+02</totfact>
</mgrwt>
</event>
<event>
 4    1  0.8362047E-005  0.5030486E+03  0.7818608E-02  0.1012986E+00
         -2   -1    0    0    0  501 -0.00000000000E+00  0.00000000000E+00  0.31206427454E+02  0.31206427559E+02  0.25500000000E-02 0. -1.
          2   -1    0    0  501    0  0.00000000000E+00 -0.00000000000E+00 -0.20272896874E+04  0.20272896874E+04  0.25500000000E-02 0.  1.
    5000001    1    1    2    0    0 -0.99623555054E+02  0.14437196479E+03 -0.70094267710E+03  0.74115703701E+03  0.16500000000E+03 0.  0.
   -5000001    1    1    2    0    0  0.99623555054E+02 -0.14437196479E+03 -0.12951405828E+04  0.13173390779E+04  0.16500000000E+03 0.  0.
<mgrwt>
<rscale>  0 0.50304858E+03</rscale>
<asrwt>0</asrwt>
<pdfrwt beam="1">  1        2 0.31189062E+00 0.50304858E+03</pdfrwt>
<pdfrwt beam="2">  1       -2 0.48009904E-02 0.50304858E+03</pdfrwt>
<totfact> 0.14723353E+03</totfact>
</mgrwt>
</event>
<event>
 4    1  0.8362047E-005  0.5650360E+03  0.7818608E-02  0.9980724E-01
          2   -1    0    0  501    0  0.00000000000E+00  0.00000000000E+00  0.10237302040E+04  0.10237302040E+04  0.25500000000E-02 0.  1.
         -2   -1    0    0    0  501 -0.00000000000E+00 -0.00000000000E+00 -0.77966277028E+02  0.77966277070E+02  0.25500000000E-02 0. -1.
    5000001    1    1    2    0    0  0.12093689213E+03 -0.10381704019E+03  0.79437548666E+03  0.82683802738E+03  0.16500000000E+03 0.  0.
   -5000001    1    1    2    0    0 -0.12093689213E+03  0.10381704019E+03  0.15138844032E+03  0.27485845371E+03  0.16500000000E+03 0.  0.
<mgrwt>
<rscale>  0 0.56503604E+03</rscale>
<asrwt>0</asrwt>
<pdfrwt beam="1">  1        2 0.15749694E+00 0.56503604E+03</pdfrwt>
<pdfrwt beam="2">  1       -2 0.11994813E-01 0.56503604E+03</pdfrwt>
<totfact> 0.12490043E+03</totfact>
</mgrwt>
</event>
<event>
 4    1  0.8362047E-005  0.5024859E+03  0.7818608E-02  0.1013132E+00
          2   -1    0    0  501    0  0.00000000000E+00  0.00000000000E+00  0.41714280964E+03  0.41714280965E+03  0.25500000000E-02 0.  1.
         -2   -1    0    0    0  501 -0.00000000000E+00 -0.00000000000E+00 -0.15132234964E+03  0.15132234966E+03  0.25500000000E-02 0. -1.
    5000001    1    1    2    0    0 -0.16740930409E+03 -0.67586495846E+02  0.19794033476E+03  0.31464136035E+03  0.16500000000E+03 0.  0.
   -5000001    1    1    2    0    0  0.16740930409E+03  0.67586495846E+02  0.67880125238E+02  0.25382379896E+03  0.16500000000E+03 0.  0.
<mgrwt>
<rscale>  0 0.50248594E+03</rscale>
<asrwt>0</asrwt>
<pdfrwt beam="1">  1        2 0.64175815E-01 0.50248594E+03</pdfrwt>
<pdfrwt beam="2">  1       -2 0.23280362E-01 0.50248594E+03</pdfrwt>
<totfact> 0.12358618E+03</totfact>
</mgrwt>
</event>
<event>
 4    1  0.8362047E-005  0.5692259E+03  0.7818608E-02  0.9971393E-01
          2   -1    0    0  501    0  0.00000000000E+00  0.00000000000E+00  0.32288469406E+03  0.32288469407E+03  0.25500000000E-02 0.  1.
         -2   -1    0    0    0  501 -0.00000000000E+00 -0.00000000000E+00 -0.25087758743E+03  0.25087758744E+03  0.25500000000E-02 0. -1.
    5000001    1    1    2    0    0  0.78236256230E+02 -0.20643681381E+03  0.10757976449E+03  0.29586394781E+03  0.16500000000E+03 0.  0.
   -5000001    1    1    2    0    0 -0.78236256230E+02  0.20643681381E+03 -0.35572657860E+02  0.27789833370E+03  0.16500000000E+03 0.  0.
<mgrwt>
<rscale>  0 0.56922591E+03</rscale>
<asrwt>0</asrwt>
<pdfrwt beam="1">  1        2 0.49674568E-01 0.56922591E+03</pdfrwt>
<pdfrwt beam="2">  1       -2 0.38596552E-01 0.56922591E+03</pdfrwt>
<totfact> 0.64553218E+02</totfact>
</mgrwt>
</event>
<event>
 4    1  0.8362047E-005  0.8256760E+03  0.7818608E-02  0.9523578E-01
          2   -1    0    0  501    0  0.00000000000E+00  0.00000000000E+00  0.29919373399E+03  0.29919373400E+03  0.25500000000E-02 0.  1.
         -2   -1    0    0    0  501 -0.00000000000E+00 -0.00000000000E+00 -0.56964830224E+03  0.56964830224E+03  0.25500000000E-02 0. -1.
    5000001    1    1    2    0    0 -0.13348220327E+03 -0.11178263900E+03 -0.48879535918E+03  0.54448026606E+03  0.16500000000E+03 0.  0.
   -5000001    1    1    2    0    0  0.13348220327E+03  0.11178263900E+03  0.21834079094E+03  0.32436177019E+03  0.16500000000E+03 0.  0.
<mgrwt>
<rscale>  0 0.82567597E+03</rscale>
<asrwt>0</asrwt>
<pdfrwt beam="1">  1        2 0.46029805E-01 0.82567597E+03</pdfrwt>
<pdfrwt beam="2">  1       -2 0.87638200E-01 0.82567597E+03</pdfrwt>
<totfact> 0.12454253E+02</totfact>
</mgrwt>
</event>
<event>
 4    1  0.8362047E-005  0.5150446E+03  0.7818608E-02  0.1009925E+00
         -2   -1    0    0    0  501 -0.00000000000E+00  0.00000000000E+00  0.25239183712E+03  0.25239183713E+03  0.25500000000E-02 0. -1.
          2   -1    0    0  501    0  0.00000000000E+00 -0.00000000000E+00 -0.26275709939E+03  0.26275709941E+03  0.25500000000E-02 0.  1.
    5000001    1    1    2    0    0  0.16852781309E+03  0.48940895932E+02 -0.96282971019E+02  0.25940748946E+03  0.16500000000E+03 0.  0.
   -5000001    1    1    2    0    0 -0.16852781309E+03 -0.48940895932E+02  0.85917708740E+02  0.25574144708E+03  0.16500000000E+03 0.  0.
<mgrwt>
<rscale>  0 0.51504465E+03</rscale>
<asrwt>0</asrwt>
<pdfrwt beam="1">  1        2 0.40424169E-01 0.51504465E+03</pdfrwt>
<pdfrwt beam="2">  1       -2 0.38829513E-01 0.51504465E+03</pdfrwt>
<totfact> 0.80110058E+02</totfact>
</mgrwt>
</event>
<event>
 4    1  0.8362047E-005  0.4607269E+03  0.7818608E-02  0.1024571E+00
         -2   -1    0    0    0  501 -0.00000000000E+00  0.00000000000E+00  0.44395583717E+02  0.44395583790E+02  0.25500000000E-02 0. -1.
          2   -1    0    0  501    0  0.00000000000E+00 -0.00000000000E+00 -0.11953289259E+04  0.11953289259E+04  0.25500000000E-02 0.  1.
    5000001    1    1    2    0    0 -0.15861092138E+03 -0.15647233817E+02 -0.63191356825E+03  0.67226632970E+03  0.16500000000E+03 0.  0.
   -5000001    1    1    2    0    0  0.15861092138E+03  0.15647233817E+02 -0.51901977394E+03  0.56745818000E+03  0.16500000000E+03 0.  0.
<mgrwt>
<rscale>  0 0.46072693E+03</rscale>
<asrwt>0</asrwt>
<pdfrwt beam="1">  1        2 0.18389673E+00 0.46072693E+03</pdfrwt>
<pdfrwt beam="2">  1       -2 0.68300907E-02 0.46072693E+03</pdfrwt>
<totfact> 0.24347221E+03</totfact>
</mgrwt>
</event>
<event>
 4    1  0.8362047E-005  0.1214438E+04  0.7818608E-02  0.9100312E-01
         -2   -1    0    0    0  501 -0.00000000000E+00  0.00000000000E+00  0.71869008479E+03  0.71869008479E+03  0.25500000000E-02 0. -1.
          2   -1    0    0  501    0  0.00000000000E+00 -0.00000000000E+00 -0.51303760044E+03  0.51303760045E+03  0.25500000000E-02 0.  1.
    5000001    1    1    2    0    0 -0.30485644551E+03  0.30688731266E+03  0.50132284144E+03  0.68239787983E+03  0.16500000000E+03 0.  0.
   -5000001    1    1    2    0    0  0.30485644551E+03 -0.30688731266E+03 -0.29567035709E+03  0.54932980541E+03  0.16500000000E+03 0.  0.
<mgrwt>
<rscale>  0 0.12144382E+04</rscale>
<asrwt>0</asrwt>
<pdfrwt beam="1">  1        2 0.78928862E-01 0.12144382E+04</pdfrwt>
<pdfrwt beam="2">  1       -2 0.11056771E+00 0.12144382E+04</pdfrwt>
<totfact> 0.38222904E+01</totfact>
</mgrwt>
</event>
<event>
 4    1  0.8362047E-005  0.3894106E+03  0.7818608E-02  0.1047509E+00
         -2   -1    0    0    0  501 -0.00000000000E+00  0.00000000000E+00  0.22574352337E+02  0.22574352481E+02  0.25500000000E-02 0. -1.
          2   -1    0    0  501    0  0.00000000000E+00 -0.00000000000E+00 -0.16793462692E+04  0.16793462692E+04  0.25500000000E-02 0.  1.
    5000001    1    1    2    0    0 -0.25248617281E+02  0.92492738317E+02 -0.65952633294E+03  0.68658020883E+03  0.16500000000E+03 0.  0.
   -5000001    1    1    2    0    0  0.25248617281E+02 -0.92492738317E+02 -0.99724558390E+03  0.10153404128E+04  0.16500000000E+03 0.  0.
<mgrwt>
<rscale>  0 0.38941060E+03</rscale>
<asrwt>0</asrwt>
<pdfrwt beam="1">  1        2 0.25836087E+00 0.38941060E+03</pdfrwt>
<pdfrwt beam="2">  1       -2 0.34729786E-02 0.38941060E+03</pdfrwt>
<totfact> 0.37242014E+03</totfact>
</mgrwt>
</event>
<event>
 4    1  0.8362047E-005  0.5981187E+03  0.7818608E-02  0.9909317E-01
          2   -1    0    0  501    0  0.00000000000E+00  0.00000000000E+00  0.76875485270E+03  0.76875485271E+03  0.25500000000E-02 0.  1.
         -2   -1    0    0    0  501 -0.00000000000E+00 -0.00000000000E+00 -0.11633943108E+03  0.11633943111E+03  0.25500000000E-02 0. -1.
    5000001    1    1    2    0    0 -0.15943086345E+03 -0.13270302421E+03  0.53116471792E+03  0.59362382905E+03  0.16500000000E+03 0.  0.
   -5000001    1    1    2    0    0  0.15943086345E+03  0.13270302421E+03  0.12125070371E+03  0.29147045477E+03  0.16500000000E+03 0.  0.
<mgrwt>
<rscale>  0 0.59811872E+03</rscale>
<asrwt>0</asrwt>
<pdfrwt beam="1">  1        2 0.11826998E+00 0.59811872E+03</pdfrwt>
<pdfrwt beam="2">  1       -2 0.17898374E-01 0.59811872E+03</pdfrwt>
<totfact> 0.94509225E+02</totfact>
</mgrwt>
</event>
<event>
 4    1  0.8362047E-005  0.5648390E+03  0.7818608E-02  0.9981165E-01
         -2   -1    0    0    0  501 -0.00000000000E+00  0.00000000000E+00  0.36576819911E+03  0.36576819912E+03  0.25500000000E-02 0. -1.
          2   -1    0    0  501    0  0.00000000000E+00 -0.00000000000E+00 -0.21806370153E+03  0.21806370155E+03  0.25500000000E-02 0.  1.
    5000001    1    1    2    0    0 -0.60647835630E+02  0.18487202734E+03  0.19908713282E+03  0.32359930920E+03  0.16500000000E+03 0.  0.
   -5000001    1    1    2    0    0  0.60647835630E+02 -0.18487202734E+03 -0.51382635247E+02  0.26023259147E+03  0.16500000000E+03 0.  0.
<mgrwt>
<rscale>  0 0.56483898E+03</rscale>
<asrwt>0</asrwt>
<pdfrwt beam="1">  1        2 0.33548262E-01 0.56483898E+03</pdfrwt>
<pdfrwt beam="2">  1       -2 0.56272030E-01 0.56483898E+03</pdfrwt>
<totfact> 0.46909019E+02</totfact>
</mgrwt>
</event>
<event>
 4    1  0.8362047E-005  0.4543325E+03  0.7818608E-02  0.1026438E+00
         -2   -1    0    0    0  501 -0.00000000000E+00  0.00000000000E+00  0.68975682542E+02  0.68975682589E+02  0.25500000000E-02 0. -1.
          2   -1    0    0  501    0  0.00000000000E+00 -0.00000000000E+00 -0.74815499061E+03  0.74815499062E+03  0.25500000000E-02 0.  1.
    5000001    1    1    2    0    0  0.10893383974E+03  0.59366357542E+02 -0.51010468678E+03  0.55029331935E+03  0.16500000000E+03 0.  0.
   -5000001    1    1    2    0    0 -0.10893383974E+03 -0.59366357542E+02 -0.16907462129E+03  0.26683735386E+03  0.16500000000E+03 0.  0.
<mgrwt>
<rscale>  0 0.45433248E+03</rscale>
<asrwt>0</asrwt>
<pdfrwt beam="1">  1        2 0.11510076E+00 0.45433248E+03</pdfrwt>
<pdfrwt beam="2">  1       -2 0.10611644E-01 0.45433248E+03</pdfrwt>
<totfact> 0.23401273E+03</totfact>
</mgrwt>
</event>
<event>
 4    1  0.8362047E-005  0.7287458E+03  0.7818608E-02  0.9669298E-01
         -2   -1    0    0    0  501 -0.00000000000E+00  0.00000000000E+00  0.26578878739E+03  0.26578878740E+03  0.25500000000E-02 0. -1.
          2   -1    0    0  501    0  0.00000000000E+00 -0.00000000000E+00 -0.49952304600E+03  0.49952304601E+03  0.25500000000E-02 0.  1.
    5000001    1    1    2    0    0  0.25571831492E+03 -0.68567054942E+02 -0.31459429356E+03  0.44304386594E+03  0.16500000000E+03 0.  0.
   -5000001    1    1    2    0    0 -0.25571831492E+03  0.68567054942E+02  0.80860034947E+02  0.32226796747E+03  0.16500000000E+03 0.  0.
<mgrwt>
<rscale>  0 0.72874584E+03</rscale>
<asrwt>0</asrwt>
<pdfrwt beam="1">  1        2 0.76849699E-01 0.72874584E+03</pdfrwt>
<pdfrwt beam="2">  1       -2 0.40890583E-01 0.72874584E+03</pdfrwt>
<totfact> 0.35186858E+02</totfact>
</mgrwt>
</event>
<event>
 4    1  0.8362047E-005  0.4288003E+03  0.7818608E-02  0.1034240E+00
          2   -1    0    0  501    0  0.00000000000E+00  0.00000000000E+00  0.92227832802E+03  0.92227832802E+03  0.25500000000E-02 0.  1.
         -2   -1    0    0    0  501 -0.00000000000E+00 -0.00000000000E+00 -0.49841153683E+02  0.49841153748E+02  0.25500000000E-02 0. -1.
    5000001    1    1    2    0    0  0.10340705938E+03 -0.75637764211E+02  0.32682638366E+03  0.38788474623E+03  0.16500000000E+03 0.  0.
   -5000001    1    1    2    0    0 -0.10340705938E+03  0.75637764211E+02  0.54561079068E+03  0.58423473554E+03  0.16500000000E+03 0.  0.
<mgrwt>
<rscale>  0 0.42880026E+03</rscale>
<asrwt>0</asrwt>
<pdfrwt beam="1">  1        2 0.14188897E+00 0.42880026E+03</pdfrwt>
<pdfrwt beam="2">  1       -2 0.76678698E-02 0.42880026E+03</pdfrwt>
<totfact> 0.29816869E+03</totfact>
</mgrwt>
</event>
<event>
 4    1  0.8362047E-005  0.9584100E+03  0.7818608E-02  0.9355374E-01
          2   -1    0    0  501    0  0.00000000000E+00  0.00000000000E+00  0.64162784932E+03  0.64162784933E+03  0.25500000000E-02 0.  1.
         -2   -1    0    0    0  501 -0.00000000000E+00 -0.00000000000E+00 -0.35789814177E+03  0.35789814178E+03  0.25500000000E-02 0. -1.
    5000001    1    1    2    0    0 -0.70675540387E+02  0.37516290062E+03  0.39013246820E+03  0.57023729864E+03  0.16500000000E+03 0.  0.
   -5000001    1    1    2    0    0  0.70675540387E+02 -0.37516290062E+03 -0.10640276065E+03  0.42928869247E+03  0.16500000000E+03 0.  0.
<mgrwt>
<rscale>  0 0.95840996E+03</rscale>
<asrwt>0</asrwt>
<pdfrwt beam="1">  1        2 0.98711976E-01 0.95840996E+03</pdfrwt>
<pdfrwt beam="2">  1       -2 0.55061253E-01 0.95840996E+03</pdfrwt>
<totfact> 0.14184586E+02</totfact>
</mgrwt>
</event>
<event>
 4    1  0.8362047E-005  0.5451551E+03  0.7818608E-02  0.1002622E+00
         -2   -1    0    0    0  501 -0.00000000000E+00  0.00000000000E+00  0.41683097460E+02  0.41683097538E+02  0.25500000000E-02 0. -1.
          2   -1    0    0  501    0  0.00000000000E+00 -0.00000000000E+00 -0.17824616384E+04  0.17824616384E+04  0.25500000000E-02 0.  1.
    5000001    1    1    2    0    0 -0.59560689415E+02 -0.12997535606E+03 -0.32432369616E+03  0.39096282278E+03  0.16500000000E+03 0.  0.
   -5000001    1    1    2    0    0  0.59560689415E+02  0.12997535606E+03 -0.14164548448E+04  0.14331819132E+04  0.16500000000E+03 0.  0.
<mgrwt>
<rscale>  0 0.54515511E+03</rscale>
<asrwt>0</asrwt>
<pdfrwt beam="1">  1        2 0.27422481E+00 0.54515511E+03</pdfrwt>
<pdfrwt beam="2">  1       -2 0.64127856E-02 0.54515511E+03</pdfrwt>
<totfact> 0.12686017E+03</totfact>
</mgrwt>
</event>
<event>
 4    1  0.8362047E-005  0.9004928E+03  0.7818608E-02  0.9424966E-01
         -2   -1    0    0    0  501 -0.00000000000E+00  0.00000000000E+00  0.20492238743E+03  0.20492238744E+03  0.25500000000E-02 0. -1.
          2   -1    0    0  501    0  0.00000000000E+00 -0.00000000000E+00 -0.98926144904E+03  0.98926144904E+03  0.25500000000E-02 0.  1.
    5000001    1    1    2    0    0 -0.40107868181E+02 -0.40364265257E+03 -0.25333042954E+03  0.50590249909E+03  0.16500000000E+03 0.  0.
   -5000001    1    1    2    0    0  0.40107868181E+02  0.40364265257E+03 -0.53100863207E+03  0.68828133739E+03  0.16500000000E+03 0.  0.
<mgrwt>
<rscale>  0 0.90049279E+03</rscale>
<asrwt>0</asrwt>
<pdfrwt beam="1">  1        2 0.15219407E+00 0.90049279E+03</pdfrwt>
<pdfrwt beam="2">  1       -2 0.31526522E-01 0.90049279E+03</pdfrwt>
<totfact> 0.23941103E+02</totfact>
</mgrwt>
</event>
<event>
 4    1  0.8362047E-005  0.5576293E+03  0.7818608E-02  0.9997433E-01
          2   -1    0    0  501    0  0.00000000000E+00  0.00000000000E+00  0.82138040676E+03  0.82138040677E+03  0.25500000000E-02 0.  1.
         -2   -1    0    0    0  501 -0.00000000000E+00 -0.00000000000E+00 -0.94642644121E+02  0.94642644156E+02  0.25500000000E-02 0. -1.
    5000001    1    1    2    0    0  0.12670433987E+03 -0.60029187388E+02  0.65192110658E+03  0.68693785912E+03  0.16500000000E+03 0.  0.
   -5000001    1    1    2    0    0 -0.12670433987E+03  0.60029187388E+02  0.74816656058E+02  0.22908519180E+03  0.16500000000E+03 0.  0.
<mgrwt>
<rscale>  0 0.55762932E+03</rscale>
<asrwt>0</asrwt>
<pdfrwt beam="1">  1        2 0.12636622E+00 0.55762932E+03</pdfrwt>
<pdfrwt beam="2">  1       -2 0.14560407E-01 0.55762932E+03</pdfrwt>
<totfact> 0.12309049E+03</totfact>
</mgrwt>
</event>
<event>
 4    1  0.8362047E-005  0.5730674E+03  0.7818608E-02  0.9962914E-01
          2   -1    0    0  501    0  0.00000000000E+00  0.00000000000E+00  0.22830791995E+04  0.22830791995E+04  0.25500000000E-02 0.  1.
         -2   -1    0    0    0  501 -0.00000000000E+00 -0.00000000000E+00 -0.35960895414E+02  0.35960895504E+02  0.25500000000E-02 0. -1.
    5000001    1    1    2    0    0  0.23318309390E+02  0.12362604735E+03  0.32389087135E+03  0.38465236211E+03  0.16500000000E+03 0.  0.
   -5000001    1    1    2    0    0 -0.23318309390E+02 -0.12362604735E+03  0.19232274327E+04  0.19343877329E+04  0.16500000000E+03 0.  0.
<mgrwt>
<rscale>  0 0.57306744E+03</rscale>
<asrwt>0</asrwt>
<pdfrwt beam="1">  1        2 0.35124289E+00 0.57306744E+03</pdfrwt>
<pdfrwt beam="2">  1       -2 0.55324465E-02 0.57306744E+03</pdfrwt>
<totfact> 0.85369885E+02</totfact>
</mgrwt>
</event>
<event>
 4    1  0.8362047E-005  0.4214386E+03  0.7818608E-02  0.1036599E+00
          2   -1    0    0  501    0  0.00000000000E+00  0.00000000000E+00  0.11473731780E+04  0.11473731780E+04  0.25500000000E-02 0.  1.
         -2   -1    0    0    0  501 -0.00000000000E+00 -0.00000000000E+00 -0.38699375823E+02  0.38699375907E+02  0.25500000000E-02 0. -1.
    5000001    1    1    2    0    0  0.10869611587E+03 -0.62139736784E+02  0.66338798015E+03  0.69497108192E+03  0.16500000000E+03 0.  0.
   -5000001    1    1    2    0    0 -0.10869611587E+03  0.62139736784E+02  0.44528582198E+03  0.49110147195E+03  0.16500000000E+03 0.  0.
<mgrwt>
<rscale>  0 0.42143861E+03</rscale>
<asrwt>0</asrwt>
<pdfrwt beam="1">  1        2 0.17651894E+00 0.42143861E+03</pdfrwt>
<pdfrwt beam="2">  1       -2 0.59537504E-02 0.42143861E+03</pdfrwt>
<totfact> 0.32183773E+03</totfact>
</mgrwt>
</event>
<event>
 4    1  0.8362047E-005  0.3901763E+03  0.7818608E-02  0.1047235E+00
         -2   -1    0    0    0  501 -0.00000000000E+00  0.00000000000E+00  0.30554725667E+03  0.30554725668E+03  0.25500000000E-02 0. -1.
          2   -1    0    0  501    0  0.00000000000E+00 -0.00000000000E+00 -0.12456139002E+03  0.12456139005E+03  0.25500000000E-02 0.  1.
    5000001    1    1    2    0    0  0.86743013002E+02 -0.57482123675E+02  0.87827591165E+02  0.21393277125E+03  0.16500000000E+03 0.  0.
   -5000001    1    1    2    0    0 -0.86743013002E+02  0.57482123675E+02  0.93158275481E+02  0.21617587548E+03  0.16500000000E+03 0.  0.
<mgrwt>
<rscale>  0 0.39017632E+03</rscale>
<asrwt>0</asrwt>
<pdfrwt beam="1">  1        2 0.19163291E-01 0.39017632E+03</pdfrwt>
<pdfrwt beam="2">  1       -2 0.47007270E-01 0.39017632E+03</pdfrwt>
<totfact> 0.12767030E+03</totfact>
</mgrwt>
</event>
<event>
 4    1  0.8362047E-005  0.6222691E+03  0.7818608E-02  0.9860252E-01
          2   -1    0    0  501    0  0.00000000000E+00  0.00000000000E+00  0.11209230935E+04  0.11209230935E+04  0.25500000000E-02 0.  1.
         -2   -1    0    0    0  501 -0.00000000000E+00 -0.00000000000E+00 -0.86361587425E+02  0.86361587463E+02  0.25500000000E-02 0. -1.
    5000001    1    1    2    0    0  0.25388758692E+03  0.16192722586E+02  0.38204657794E+03  0.48775577779E+03  0.16500000000E+03 0.  0.
   -5000001    1    1    2    0    0 -0.25388758692E+03 -0.16192722586E+02  0.65251492810E+03  0.71952890314E+03  0.16500000000E+03 0.  0.
<mgrwt>
<rscale>  0 0.62226907E+03</rscale>
<asrwt>0</asrwt>
<pdfrwt beam="1">  1        2 0.17244970E+00 0.62226907E+03</pdfrwt>
<pdfrwt beam="2">  1       -2 0.13286398E-01 0.62226907E+03</pdfrwt>
<totfact> 0.91774375E+02</totfact>
</mgrwt>
</event>
<event>
 4    1  0.8362047E-005  0.4479362E+03  0.7818608E-02  0.1028339E+00
          2   -1    0    0  501    0  0.00000000000E+00  0.00000000000E+00  0.14282337413E+04  0.14282337413E+04  0.25500000000E-02 0.  1.
         -2   -1    0    0    0  501 -0.00000000000E+00 -0.00000000000E+00 -0.35121503057E+02  0.35121503149E+02  0.25500000000E-02 0. -1.
    5000001    1    1    2    0    0  0.14252904452E+03  0.46039195898E+02  0.62331819137E+03  0.66195521282E+03  0.16500000000E+03 0.  0.
   -5000001    1    1    2    0    0 -0.14252904452E+03 -0.46039195898E+02  0.76979404683E+03  0.80140003159E+03  0.16500000000E+03 0.  0.
<mgrwt>
<rscale>  0 0.44793623E+03</rscale>
<asrwt>0</asrwt>
<pdfrwt beam="1">  1        2 0.21972829E+00 0.44793623E+03</pdfrwt>
<pdfrwt beam="2">  1       -2 0.54033075E-02 0.44793623E+03</pdfrwt>
<totfact> 0.25903968E+03</totfact>
</mgrwt>
</event>
<event>
 4    1  0.8362047E-005  0.7120193E+03  0.7818608E-02  0.9696895E-01
          2   -1    0    0  501    0  0.00000000000E+00  0.00000000000E+00  0.47647691943E+03  0.47647691944E+03  0.25500000000E-02 0.  1.
         -2   -1    0    0    0  501 -0.00000000000E+00 -0.00000000000E+00 -0.26600004396E+03  0.26600004397E+03  0.25500000000E-02 0. -1.
    5000001    1    1    2    0    0  0.23543612410E+03 -0.20535949643E+03  0.59603532096E+02  0.35830192902E+03  0.16500000000E+03 0.  0.
   -5000001    1    1    2    0    0 -0.23543612410E+03  0.20535949643E+03  0.15087334338E+03  0.38417503438E+03  0.16500000000E+03 0.  0.
<mgrwt>
<rscale>  0 0.71201933E+03</rscale>
<asrwt>0</asrwt>
<pdfrwt beam="1">  1        2 0.73304141E-01 0.71201933E+03</pdfrwt>
<pdfrwt beam="2">  1       -2 0.40923084E-01 0.71201933E+03</pdfrwt>
<totfact> 0.37120053E+02</totfact>
</mgrwt>
</event>
<event>
 4    1  0.8362047E-005  0.1697875E+04  0.7818608E-02  0.8762577E-01
         -2   -1    0    0    0  501 -0.00000000000E+00  0.00000000000E+00  0.90535282608E+03  0.90535282608E+03  0.25500000000E-02 0. -1.
          2   -1    0    0  501    0  0.00000000000E+00 -0.00000000000E+00 -0.79603768734E+03  0.79603768734E+03  0.25500000000E-02 0.  1.
    5000001    1    1    2    0    0 -0.81497827318E+03  0.16713817236E+03  0.91410687992E+02  0.85305666183E+03  0.16500000000E+03 0.  0.
   -5000001    1    1    2    0    0  0.81497827318E+03 -0.16713817236E+03  0.17904450750E+02  0.84833385160E+03  0.16500000000E+03 0.  0.
<mgrwt>
<rscale>  0 0.16978751E+04</rscale>
<asrwt>0</asrwt>
<pdfrwt beam="1">  1        2 0.12246734E+00 0.16978751E+04</pdfrwt>
<pdfrwt beam="2">  1       -2 0.13928505E+00 0.16978751E+04</pdfrwt>
<totfact> 0.12007536E+01</totfact>
</mgrwt>
</event>
<event>
 4    1  0.8362047E-005  0.4903384E+03  0.7818608E-02  0.1016332E+00
         -2   -1    0    0    0  501 -0.00000000000E+00  0.00000000000E+00  0.50805038480E+03  0.50805038481E+03  0.25500000000E-02 0. -1.
          2   -1    0    0  501    0  0.00000000000E+00 -0.00000000000E+00 -0.11831099078E+03  0.11831099081E+03  0.25500000000E-02 0.  1.
    5000001    1    1    2    0    0 -0.13503397741E+03  0.65141227038E+02  0.64565556938E+02  0.23210184329E+03  0.16500000000E+03 0.  0.
   -5000001    1    1    2    0    0  0.13503397741E+03 -0.65141227038E+02  0.32517383708E+03  0.39425953233E+03  0.16500000000E+03 0.  0.
<mgrwt>
<rscale>  0 0.49033843E+03</rscale>
<asrwt>0</asrwt>
<pdfrwt beam="1">  1        2 0.18201691E-01 0.49033843E+03</pdfrwt>
<pdfrwt beam="2">  1       -2 0.78161597E-01 0.49033843E+03</pdfrwt>
<totfact> 0.46686541E+02</totfact>
</mgrwt>
</event>
<event>
 4    1  0.8362047E-005  0.4255055E+03  0.7818608E-02  0.1035289E+00
          2   -1    0    0  501    0  0.00000000000E+00  0.00000000000E+00  0.15342509908E+04  0.15342509908E+04  0.25500000000E-02 0.  1.
         -2   -1    0    0    0  501 -0.00000000000E+00 -0.00000000000E+00 -0.29502171680E+02  0.29502171791E+02  0.25500000000E-02 0. -1.
    5000001    1    1    2    0    0 -0.12302000994E+03 -0.43470743886E+02  0.63528460308E+03  0.66920486798E+03  0.16500000000E+03 0.  0.
   -5000001    1    1    2    0    0  0.12302000994E+03  0.43470743886E+02  0.86946421606E+03  0.89454829463E+03  0.16500000000E+03 0.  0.
<mgrwt>
<rscale>  0 0.42550552E+03</rscale>
<asrwt>0</asrwt>
<pdfrwt beam="1">  1        2 0.23603867E+00 0.42550552E+03</pdfrwt>
<pdfrwt beam="2">  1       -2 0.45387945E-02 0.42550552E+03</pdfrwt>
<totfact> 0.29653450E+03</totfact>
</mgrwt>
</event>
<event>
 4    1  0.8362047E-005  0.3735714E+03  0.7818608E-02  0.1053336E+00
          2   -1    0    0  501    0  0.00000000000E+00  0.00000000000E+00  0.19516975621E+04  0.19516975621E+04  0.25500000000E-02 0.  1.
         -2   -1    0    0    0  501 -0.00000000000E+00 -0.00000000000E+00 -0.17876175671E+02  0.17876175853E+02  0.25500000000E-02 0. -1.
    5000001    1    1    2    0    0  0.11090586053E+02  0.71186423071E+02  0.70470376201E+03  0.72733960440E+03  0.16500000000E+03 0.  0.
   -5000001    1    1    2    0    0 -0.11090586053E+02 -0.71186423071E+02  0.12291176244E+04  0.12422341336E+04  0.16500000000E+03 0.  0.
<mgrwt>
<rscale>  0 0.37357135E+03</rscale>
<asrwt>0</asrwt>
<pdfrwt beam="1">  1        2 0.30026122E+00 0.37357135E+03</pdfrwt>
<pdfrwt beam="2">  1       -2 0.27501804E-02 0.37357135E+03</pdfrwt>
<totfact> 0.37902599E+03</totfact>
</mgrwt>
</event>
<event>
 4    1  0.8362047E-005  0.3857008E+03  0.7818608E-02  0.1048847E+00
         -2   -1    0    0    0  501 -0.00000000000E+00  0.00000000000E+00  0.49275602170E+02  0.49275602236E+02  0.25500000000E-02 0. -1.
          2   -1    0    0  501    0  0.00000000000E+00 -0.00000000000E+00 -0.75476064334E+03  0.75476064334E+03  0.25500000000E-02 0.  1.
    5000001    1    1    2    0    0  0.91162363552E+01  0.91989664784E+02 -0.43132657996E+03  0.47097008692E+03  0.16500000000E+03 0.  0.
   -5000001    1    1    2    0    0 -0.91162363552E+01 -0.91989664784E+02 -0.27415846121E+03  0.33306615866E+03  0.16500000000E+03 0.  0.
<mgrwt>
<rscale>  0 0.38570084E+03</rscale>
<asrwt>0</asrwt>
<pdfrwt beam="1">  1        2 0.11611701E+00 0.38570084E+03</pdfrwt>
<pdfrwt beam="2">  1       -2 0.75808625E-02 0.38570084E+03</pdfrwt>
<totfact> 0.39505175E+03</totfact>
</mgrwt>
</event>
<event>
 4    1  0.8362047E-005  0.3817154E+03  0.7818608E-02  0.1050302E+00
         -2   -1    0    0    0  501 -0.00000000000E+00  0.00000000000E+00  0.42893322326E+02  0.42893322402E+02  0.25500000000E-02 0. -1.
          2   -1    0    0  501    0  0.00000000000E+00 -0.00000000000E+00 -0.84923870974E+03  0.84923870974E+03  0.25500000000E-02 0.  1.
    5000001    1    1    2    0    0 -0.91284529225E+02  0.33281782852E+01 -0.33472416453E+03  0.38419943827E+03  0.16500000000E+03 0.  0.
   -5000001    1    1    2    0    0  0.91284529225E+02 -0.33281782852E+01 -0.47162122289E+03  0.50793259388E+03  0.16500000000E+03 0.  0.
<mgrwt>
<rscale>  0 0.38171544E+03</rscale>
<asrwt>0</asrwt>
<pdfrwt beam="1">  1        2 0.13065210E+00 0.38171544E+03</pdfrwt>
<pdfrwt beam="2">  1       -2 0.65989733E-02 0.38171544E+03</pdfrwt>
<totfact> 0.42133395E+03</totfact>
</mgrwt>
</event>
<event>
 4    1  0.8362047E-005  0.3967500E+03  0.7818608E-02  0.1044911E+00
         -2   -1    0    0    0  501 -0.00000000000E+00  0.00000000000E+00  0.69409159872E+02  0.69409159919E+02  0.25500000000E-02 0. -1.
          2   -1    0    0  501    0  0.00000000000E+00 -0.00000000000E+00 -0.56696621777E+03  0.56696621778E+03  0.25500000000E-02 0.  1.
    5000001    1    1    2    0    0  0.97892891676E+02 -0.18018613689E+01 -0.32963811729E+03  0.38140864347E+03  0.16500000000E+03 0.  0.
   -5000001    1    1    2    0    0 -0.97892891676E+02  0.18018613689E+01 -0.16791894061E+03  0.25496673422E+03  0.16500000000E+03 0.  0.
<mgrwt>
<rscale>  0 0.39675004E+03</rscale>
<asrwt>0</asrwt>
<pdfrwt beam="1">  1        2 0.87225569E-01 0.39675004E+03</pdfrwt>
<pdfrwt beam="2">  1       -2 0.10678333E-01 0.39675004E+03</pdfrwt>
<totfact> 0.32376346E+03</totfact>
</mgrwt>
</event>
<event>
 4    1  0.8362047E-005  0.5956772E+03  0.7818608E-02  0.9914415E-01
          2   -1    0    0  501    0  0.00000000000E+00  0.00000000000E+00  0.22973956202E+04  0.22973956202E+04  0.25500000000E-02 0.  1.
         -2   -1    0    0    0  501 -0.00000000000E+00 -0.00000000000E+00 -0.38612344515E+02  0.38612344599E+02  0.25500000000E-02 0. -1.
    5000001    1    1    2    0    0 -0.24140924147E+02 -0.24619338962E+03  0.10627403535E+04  0.11035560830E+04  0.16500000000E+03 0.  0.
   -5000001    1    1    2    0    0  0.24140924147E+02  0.24619338962E+03  0.11960429221E+04  0.12324518818E+04  0.16500000000E+03 0.  0.
<mgrwt>
<rscale>  0 0.59567720E+03</rscale>
<asrwt>0</asrwt>
<pdfrwt beam="1">  1        2 0.35344541E+00 0.59567720E+03</pdfrwt>
<pdfrwt beam="2">  1       -2 0.59403619E-02 0.59567720E+03</pdfrwt>
<totfact> 0.74884046E+02</totfact>
</mgrwt>
</event>
<event>
 4    1  0.8362047E-005  0.6699846E+03  0.7818608E-02  0.9769986E-01
         -2   -1    0    0    0  501 -0.00000000000E+00  0.00000000000E+00  0.13028963239E+03  0.13028963242E+03  0.25500000000E-02 0. -1.
          2   -1    0    0  501    0  0.00000000000E+00 -0.00000000000E+00 -0.86131049026E+03  0.86131049027E+03  0.25500000000E-02 0.  1.
    5000001    1    1    2    0    0  0.17367716555E+03  0.89752064691E+02 -0.68560744821E+03  0.73177986034E+03  0.16500000000E+03 0.  0.
   -5000001    1    1    2    0    0 -0.17367716555E+03 -0.89752064691E+02 -0.45413409659E+02  0.25982026235E+03  0.16500000000E+03 0.  0.
<mgrwt>
<rscale>  0 0.66998456E+03</rscale>
<asrwt>0</asrwt>
<pdfrwt beam="1">  1        2 0.13250930E+00 0.66998456E+03</pdfrwt>
<pdfrwt beam="2">  1       -2 0.20044559E-01 0.66998456E+03</pdfrwt>
<totfact> 0.66667161E+02</totfact>
</mgrwt>
</event>
<event>
 4    1  0.8362047E-005  0.4849370E+03  0.7818608E-02  0.1017787E+00
         -2   -1    0    0    0  501 -0.00000000000E+00  0.00000000000E+00  0.20659061001E+02  0.20659061159E+02  0.25500000000E-02 0. -1.
          2   -1    0    0  501    0  0.00000000000E+00 -0.00000000000E+00 -0.28457722332E+04  0.28457722332E+04  0.25500000000E-02 0.  1.
    5000001    1    1    2    0    0  0.46905214092E+02  0.56748308496E+02 -0.23683296000E+04  0.23752116882E+04  0.16500000000E+03 0.  0.
   -5000001    1    1    2    0    0 -0.46905214092E+02 -0.56748308496E+02 -0.45678357223E+03  0.49121960617E+03  0.16500000000E+03 0.  0.
<mgrwt>
<rscale>  0 0.48493704E+03</rscale>
<asrwt>0</asrwt>
<pdfrwt beam="1">  1        2 0.43781080E+00 0.48493704E+03</pdfrwt>
<pdfrwt beam="2">  1       -2 0.31783193E-02 0.48493704E+03</pdfrwt>
<totfact> 0.96756209E+02</totfact>
</mgrwt>
</event>
<event>
 4    1  0.8362047E-005  0.4096114E+03  0.7818608E-02  0.1040501E+00
         -2   -1    0    0    0  501 -0.00000000000E+00  0.00000000000E+00  0.88044723449E+02  0.88044723486E+02  0.25500000000E-02 0. -1.
          2   -1    0    0  501    0  0.00000000000E+00 -0.00000000000E+00 -0.47640985814E+03  0.47640985815E+03  0.25500000000E-02 0.  1.
    5000001    1    1    2    0    0 -0.65183340333E+02 -0.10059405267E+03 -0.22004919149E+03  0.30002446228E+03  0.16500000000E+03 0.  0.
   -5000001    1    1    2    0    0  0.65183340333E+02  0.10059405267E+03 -0.16831594320E+03  0.26443011936E+03  0.16500000000E+03 0.  0.
<mgrwt>
<rscale>  0 0.40961140E+03</rscale>
<asrwt>0</asrwt>
<pdfrwt beam="1">  1        2 0.73293823E-01 0.40961140E+03</pdfrwt>
<pdfrwt beam="2">  1       -2 0.13545342E-01 0.40961140E+03</pdfrwt>
<totfact> 0.26814350E+03</totfact>
</mgrwt>
</event>
<event>
 4    1  0.8362047E-005  0.8262905E+03  0.7818608E-02  0.9522723E-01
         -2   -1    0    0    0  501 -0.00000000000E+00  0.00000000000E+00  0.16313956407E+03  0.16313956409E+03  0.25500000000E-02 0. -1.
          2   -1    0    0  501    0  0.00000000000E+00 -0.00000000000E+00 -0.10462760106E+04  0.10462760106E+04  0.25500000000E-02 0.  1.
    5000001    1    1    2    0    0 -0.27396903190E+03 -0.22174601093E+03 -0.64455795404E+03  0.75293444597E+03  0.16500000000E+03 0.  0.
   -5000001    1    1    2    0    0  0.27396903190E+03  0.22174601093E+03 -0.23857849249E+03  0.45648112873E+03  0.16500000000E+03 0.  0.
<mgrwt>
<rscale>  0 0.82629054E+03</rscale>
<asrwt>0</asrwt>
<pdfrwt beam="1">  1        2 0.16096554E+00 0.82629054E+03</pdfrwt>
<pdfrwt beam="2">  1       -2 0.25098395E-01 0.82629054E+03</pdfrwt>
<totfact> 0.33631152E+02</totfact>
</mgrwt>
</event>
<event>
 4    1  0.8362047E-005  0.4699412E+03  0.7818608E-02  0.1021937E+00
         -2   -1    0    0    0  501 -0.00000000000E+00  0.00000000000E+00  0.53427712136E+02  0.53427712197E+02  0.25500000000E-02 0. -1.
          2   -1    0    0  501    0  0.00000000000E+00 -0.00000000000E+00 -0.10333808674E+04  0.10333808674E+04  0.25500000000E-02 0.  1.
    5000001    1    1    2    0    0 -0.64827717428E+02 -0.15164459058E+03 -0.55487348812E+03  0.60192051187E+03  0.16500000000E+03 0.  0.
   -5000001    1    1    2    0    0  0.64827717428E+02  0.15164459058E+03 -0.42507966715E+03  0.48488806773E+03  0.16500000000E+03 0.  0.
<mgrwt>
<rscale>  0 0.46994117E+03</rscale>
<asrwt>0</asrwt>
<pdfrwt beam="1">  1        2 0.15898166E+00 0.46994117E+03</pdfrwt>
<pdfrwt beam="2">  1       -2 0.82196488E-02 0.46994117E+03</pdfrwt>
<totfact> 0.22719643E+03</totfact>
</mgrwt>
</event>
<event>
 4    1  0.8362047E-005  0.5251116E+03  0.7818608E-02  0.1007425E+00
          2   -1    0    0  501    0  0.00000000000E+00  0.00000000000E+00  0.13153754376E+03  0.13153754378E+03  0.25500000000E-02 0.  1.
         -2   -1    0    0    0  501 -0.00000000000E+00 -0.00000000000E+00 -0.52407499333E+03  0.52407499333E+03  0.25500000000E-02 0. -1.
    5000001    1    1    2    0    0  0.21449105112E+02  0.20236551573E+03 -0.17469165708E+03  0.31488734672E+03  0.16500000000E+03 0.  0.
   -5000001    1    1    2    0    0 -0.21449105112E+02 -0.20236551573E+03 -0.21784579249E+03  0.34072519040E+03  0.16500000000E+03 0.  0.
<mgrwt>
<rscale>  0 0.52511156E+03</rscale>
<asrwt>0</asrwt>
<pdfrwt beam="1">  1        2 0.20236545E-01 0.52511156E+03</pdfrwt>
<pdfrwt beam="2">  1       -2 0.80626921E-01 0.52511156E+03</pdfrwt>
<totfact> 0.38455060E+02</totfact>
</mgrwt>
</event>
<event>
 4    1  0.8362047E-005  0.8842524E+03  0.7818608E-02  0.9445484E-01
          2   -1    0    0  501    0  0.00000000000E+00  0.00000000000E+00  0.16720351500E+04  0.16720351500E+04  0.25500000000E-02 0.  1.
         -2   -1    0    0    0  501 -0.00000000000E+00 -0.00000000000E+00 -0.11690877041E+03  0.11690877043E+03  0.25500000000E-02 0. -1.
    5000001    1    1    2    0    0 -0.21567104285E+03  0.64178718909E+01  0.14833239994E+04  0.15079888180E+04  0.16500000000E+03 0.  0.
   -5000001    1    1    2    0    0  0.21567104285E+03 -0.64178718909E+01  0.71802380153E+02  0.28095510246E+03  0.16500000000E+03 0.  0.
<mgrwt>
<rscale>  0 0.88425239E+03</rscale>
<asrwt>0</asrwt>
<pdfrwt beam="1">  1        2 0.25723615E+00 0.88425239E+03</pdfrwt>
<pdfrwt beam="2">  1       -2 0.17985967E-01 0.88425239E+03</pdfrwt>
<totfact> 0.26291727E+02</totfact>
</mgrwt>
</event>
<event>
 4    1  0.8362047E-005  0.4174270E+03  0.7818608E-02  0.1037907E+00
          2   -1    0    0  501    0  0.00000000000E+00  0.00000000000E+00  0.22573650354E+04  0.22573650354E+04  0.25500000000E-02 0.  1.
         -2   -1    0    0    0  501 -0.00000000000E+00 -0.00000000000E+00 -0.19297420223E+02  0.19297420392E+02  0.25500000000E-02 0. -1.
    5000001    1    1    2    0    0 -0.82443431835E+02 -0.89717494010E+02  0.90849286093E+03  0.93135945077E+03  0.16500000000E+03 0.  0.
   -5000001    1    1    2    0    0  0.82443431835E+02  0.89717494010E+02  0.13295747542E+04  0.13453030050E+04  0.16500000000E+03 0.  0.
<mgrwt>
<rscale>  0 0.41742698E+03</rscale>
<asrwt>0</asrwt>
<pdfrwt beam="1">  1        2 0.34728676E+00 0.41742698E+03</pdfrwt>
<pdfrwt beam="2">  1       -2 0.29688353E-02 0.41742698E+03</pdfrwt>
<totfact> 0.23117639E+03</totfact>
</mgrwt>
</event>
<event>
 4    1  0.8362047E-005  0.7862111E+03  0.7818608E-02  0.9580193E-01
          2   -1    0    0  501    0  0.00000000000E+00  0.00000000000E+00  0.23577290622E+04  0.23577290622E+04  0.25500000000E-02 0.  1.
         -2   -1    0    0    0  501 -0.00000000000E+00 -0.00000000000E+00 -0.65542723212E+02  0.65542723261E+02  0.25500000000E-02 0. -1.
    5000001    1    1    2    0    0  0.74411651883E+02 -0.33207294227E+03  0.81559906673E+03  0.89901967196E+03  0.16500000000E+03 0.  0.
   -5000001    1    1    2    0    0 -0.74411651883E+02  0.33207294227E+03  0.14765872722E+04  0.15242521135E+04  0.16500000000E+03 0.  0.
<mgrwt>
<rscale>  0 0.78621113E+03</rscale>
<asrwt>0</asrwt>
<pdfrwt beam="1">  1        2 0.36272758E+00 0.78621113E+03</pdfrwt>
<pdfrwt beam="2">  1       -2 0.10083495E-01 0.78621113E+03</pdfrwt>
<totfact> 0.29323569E+02</totfact>
</mgrwt>
</event>
<event>
 4    1  0.8362047E-005  0.8735122E+03  0.7818608E-02  0.9459312E-01
         -2   -1    0    0    0  501 -0.00000000000E+00  0.00000000000E+00  0.90758492237E+02  0.90758492273E+02  0.25500000000E-02 0. -1.
          2   -1    0    0  501    0  0.00000000000E+00 -0.00000000000E+00 -0.21017966701E+04  0.21017966701E+04  0.25500000000E-02 0.  1.
    5000001    1    1    2    0    0  0.14493674337E+03 -0.36596515764E+03 -0.77283179563E+03  0.88285397463E+03  0.16500000000E+03 0.  0.
   -5000001    1    1    2    0    0 -0.14493674337E+03  0.36596515764E+03 -0.12382063822E+04  0.13097011877E+04  0.16500000000E+03 0.  0.
<mgrwt>
<rscale>  0 0.87351221E+03</rscale>
<asrwt>0</asrwt>
<pdfrwt beam="1">  1        2 0.32335330E+00 0.87351221E+03</pdfrwt>
<pdfrwt beam="2">  1       -2 0.13962847E-01 0.87351221E+03</pdfrwt>
<totfact> 0.23547968E+02</totfact>
</mgrwt>
</event>
<event>
 4    1  0.8362047E-005  0.6033858E+03  0.7818608E-02  0.9898406E-01
         -2   -1    0    0    0  501 -0.00000000000E+00  0.00000000000E+00  0.49292032535E+03  0.49292032536E+03  0.25500000000E-02 0. -1.
          2   -1    0    0  501    0  0.00000000000E+00 -0.00000000000E+00 -0.18465178823E+03  0.18465178825E+03  0.25500000000E-02 0.  1.
    5000001    1    1    2    0    0 -0.88858365829E+02 -0.21224486500E+03  0.27110408996E+03  0.39200270342E+03  0.16500000000E+03 0.  0.
   -5000001    1    1    2    0    0  0.88858365829E+02  0.21224486500E+03  0.37164447164E+02  0.28556941018E+03  0.16500000000E+03 0.  0.
<mgrwt>
<rscale>  0 0.60338585E+03</rscale>
<asrwt>0</asrwt>
<pdfrwt beam="1">  1        2 0.28407967E-01 0.60338585E+03</pdfrwt>
<pdfrwt beam="2">  1       -2 0.75833897E-01 0.60338585E+03</pdfrwt>
<totfact> 0.29816664E+02</totfact>
</mgrwt>
</event>
<event>
 4    1  0.8362047E-005  0.7130280E+03  0.7818608E-02  0.9695208E-01
         -2   -1    0    0    0  501 -0.00000000000E+00  0.00000000000E+00  0.64313745900E+02  0.64313745951E+02  0.25500000000E-02 0. -1.
          2   -1    0    0  501    0  0.00000000000E+00 -0.00000000000E+00 -0.19762840437E+04  0.19762840437E+04  0.25500000000E-02 0.  1.
    5000001    1    1    2    0    0  0.91042827794E+02  0.21836803906E+03 -0.35632933368E+03  0.45844191673E+03  0.16500000000E+03 0.  0.
   -5000001    1    1    2    0    0 -0.91042827794E+02 -0.21836803906E+03 -0.15556409641E+04  0.15821558730E+04  0.16500000000E+03 0.  0.
<mgrwt>
<rscale>  0 0.71302799E+03</rscale>
<asrwt>0</asrwt>
<pdfrwt beam="1">  1        2 0.30404365E+00 0.71302799E+03</pdfrwt>
<pdfrwt beam="2">  1       -2 0.98944240E-02 0.71302799E+03</pdfrwt>
<totfact> 0.49330168E+02</totfact>
</mgrwt>
</event>
<event>
 4    1  0.8362047E-005  0.4426033E+03  0.7818608E-02  0.1029951E+00
         -2   -1    0    0    0  501 -0.00000000000E+00  0.00000000000E+00  0.31821702895E+02  0.31821702997E+02  0.25500000000E-02 0. -1.
          2   -1    0    0  501    0  0.00000000000E+00 -0.00000000000E+00 -0.15390258332E+04  0.15390258332E+04  0.25500000000E-02 0.  1.
    5000001    1    1    2    0    0  0.71995660295E+02  0.12268105620E+03 -0.61544156022E+03  0.65286088158E+03  0.16500000000E+03 0.  0.
   -5000001    1    1    2    0    0 -0.71995660295E+02 -0.12268105620E+03 -0.89176257007E+03  0.91798665460E+03  0.16500000000E+03 0.  0.
<mgrwt>
<rscale>  0 0.44260331E+03</rscale>
<asrwt>0</asrwt>
<pdfrwt beam="1">  1        2 0.23677315E+00 0.44260331E+03</pdfrwt>
<pdfrwt beam="2">  1       -2 0.48956478E-02 0.44260331E+03</pdfrwt>
<totfact> 0.26233683E+03</totfact>
</mgrwt>
</event>
<event>
 4    1  0.8362047E-005  0.6448117E+03  0.7818608E-02  0.9816564E-01
         -2   -1    0    0    0  501 -0.00000000000E+00  0.00000000000E+00  0.79230187409E+02  0.79230187450E+02  0.25500000000E-02 0. -1.
          2   -1    0    0  501    0  0.00000000000E+00 -0.00000000000E+00 -0.13119433690E+04  0.13119433690E+04  0.25500000000E-02 0.  1.
    5000001    1    1    2    0    0 -0.67366812808E+02  0.24190669558E+03 -0.36416677730E+03  0.47212241901E+03  0.16500000000E+03 0.  0.
   -5000001    1    1    2    0    0  0.67366812808E+02 -0.24190669558E+03 -0.86854640425E+03  0.91905113741E+03  0.16500000000E+03 0.  0.
<mgrwt>
<rscale>  0 0.64481166E+03</rscale>
<asrwt>0</asrwt>
<pdfrwt beam="1">  1        2 0.20183743E+00 0.64481166E+03</pdfrwt>
<pdfrwt beam="2">  1       -2 0.12189261E-01 0.64481166E+03</pdfrwt>
<totfact> 0.81737688E+02</totfact>
</mgrwt>
</event>
<event>
 4    1  0.8362047E-005  0.5382458E+03  0.7818608E-02  0.1004252E+00
          2   -1    0    0  501    0  0.00000000000E+00  0.00000000000E+00  0.67810721791E+03  0.67810721791E+03  0.25500000000E-02 0.  1.
         -2   -1    0    0    0  501 -0.00000000000E+00 -0.00000000000E+00 -0.10680779122E+03  0.10680779125E+03  0.25500000000E-02 0. -1.
    5000001    1    1    2    0    0 -0.14941772863E+03  0.14214826121E+03  0.36100712082E+03  0.44730630118E+03  0.16500000000E+03 0.  0.
   -5000001    1    1    2    0    0  0.14941772863E+03 -0.14214826121E+03  0.21029230587E+03  0.33760870797E+03  0.16500000000E+03 0.  0.
<mgrwt>
<rscale>  0 0.53824580E+03</rscale>
<asrwt>0</asrwt>
<pdfrwt beam="1">  1        2 0.10432419E+00 0.53824580E+03</pdfrwt>
<pdfrwt beam="2">  1       -2 0.16431968E-01 0.53824580E+03</pdfrwt>
<totfact> 0.12826905E+03</totfact>
</mgrwt>
</event>
<event>
 4    1  0.8362047E-005  0.4541582E+03  0.7818608E-02  0.1026489E+00
          2   -1    0    0  501    0  0.00000000000E+00  0.00000000000E+00  0.19826747170E+04  0.19826747170E+04  0.25500000000E-02 0.  1.
         -2   -1    0    0    0  501 -0.00000000000E+00 -0.00000000000E+00 -0.26007751697E+02  0.26007751822E+02  0.25500000000E-02 0. -1.
    5000001    1    1    2    0    0  0.13165530882E+03 -0.80912676898E+02  0.88348068692E+03  0.91194468351E+03  0.16500000000E+03 0.  0.
   -5000001    1    1    2    0    0 -0.13165530882E+03  0.80912676898E+02  0.10731862784E+04  0.10967377853E+04  0.16500000000E+03 0.  0.
<mgrwt>
<rscale>  0 0.45415817E+03</rscale>
<asrwt>0</asrwt>
<pdfrwt beam="1">  1        2 0.30502698E+00 0.45415817E+03</pdfrwt>
<pdfrwt beam="2">  1       -2 0.40011912E-02 0.45415817E+03</pdfrwt>
<totfact> 0.20634376E+03</totfact>
</mgrwt>
</event>
<event>
 4    1  0.8362047E-005  0.3823089E+03  0.7818608E-02  0.1050084E+00
          2   -1    0    0  501    0  0.00000000000E+00  0.00000000000E+00  0.20809750499E+03  0.20809750500E+03  0.25500000000E-02 0.  1.
         -2   -1    0    0    0  501 -0.00000000000E+00 -0.00000000000E+00 -0.17559086538E+03  0.17559086540E+03  0.25500000000E-02 0. -1.
    5000001    1    1    2    0    0 -0.24834045899E+02  0.52059322221E+02  0.93915472318E+02  0.19842383629E+03  0.16500000000E+03 0.  0.
   -5000001    1    1    2    0    0  0.24834045899E+02 -0.52059322221E+02 -0.61408832709E+02  0.18526453411E+03  0.16500000000E+03 0.  0.
<mgrwt>
<rscale>  0 0.38230889E+03</rscale>
<asrwt>0</asrwt>
<pdfrwt beam="1">  1        2 0.32015001E-01 0.38230889E+03</pdfrwt>
<pdfrwt beam="2">  1       -2 0.27013979E-01 0.38230889E+03</pdfrwt>
<totfact> 0.20315142E+03</totfact>
</mgrwt>
</event>
<event>
 4    1  0.8362047E-005  0.4830385E+03  0.7818608E-02  0.1018303E+00
          2   -1    0    0  501    0  0.00000000000E+00  0.00000000000E+00  0.11061372393E+04  0.11061372393E+04  0.25500000000E-02 0.  1.
         -2   -1    0    0    0  501 -0.00000000000E+00 -0.00000000000E+00 -0.52734451937E+02  0.52734451998E+02  0.25500000000E-02 0. -1.
    5000001    1    1    2    0    0  0.13706189432E+03  0.10082039982E+03  0.41530775059E+03  0.47818013719E+03  0.16500000000E+03 0.  0.
   -5000001    1    1    2    0    0 -0.13706189432E+03 -0.10082039982E+03  0.63809503675E+03  0.68069155409E+03  0.16500000000E+03 0.  0.
<mgrwt>
<rscale>  0 0.48303847E+03</rscale>
<asrwt>0</asrwt>
<pdfrwt beam="1">  1        2 0.17017495E+00 0.48303847E+03</pdfrwt>
<pdfrwt beam="2">  1       -2 0.81129932E-02 0.48303847E+03</pdfrwt>
<totfact> 0.20944495E+03</totfact>
</mgrwt>
</event>
<event>
 4    1  0.8362047E-005  0.5291862E+03  0.7818608E-02  0.1006430E+00
          2   -1    0    0  501    0  0.00000000000E+00  0.00000000000E+00  0.17043024365E+03  0.17043024367E+03  0.25500000000E-02 0.  1.
         -2   -1    0    0    0  501 -0.00000000000E+00 -0.00000000000E+00 -0.41078106405E+03  0.41078106405E+03  0.25500000000E-02 0. -1.
    5000001    1    1    2    0    0 -0.16751180406E+03 -0.23790044986E+02 -0.25086222750E+03  0.34464913742E+03  0.16500000000E+03 0.  0.
   -5000001    1    1    2    0    0  0.16751180406E+03  0.23790044986E+02  0.10511407112E+02  0.23656217030E+03  0.16500000000E+03 0.  0.
<mgrwt>
<rscale>  0 0.52918623E+03</rscale>
<asrwt>0</asrwt>
<pdfrwt beam="1">  1        2 0.26220038E-01 0.52918623E+03</pdfrwt>
<pdfrwt beam="2">  1       -2 0.63197087E-01 0.52918623E+03</pdfrwt>
<totfact> 0.48532713E+02</totfact>
</mgrwt>
</event>
<event>
 4    1  0.8362047E-005  0.6636422E+03  0.7818608E-02  0.9781512E-01
         -2   -1    0    0    0  501 -0.00000000000E+00  0.00000000000E+00  0.12185359454E+03  0.12185359457E+03  0.25500000000E-02 0. -1.
          2   -1    0    0  501    0  0.00000000000E+00 -0.00000000000E+00 -0.90358636757E+03  0.90358636757E+03  0.25500000000E-02 0.  1.
    5000001    1    1    2    0    0 -0.26102218432E+03  0.10854196364E+03 -0.47502224966E+03  0.57687526924E+03  0.16500000000E+03 0.  0.
   -5000001    1    1    2    0    0  0.26102218432E+03 -0.10854196364E+03 -0.30671052336E+03  0.44856469290E+03  0.16500000000E+03 0.  0.
<mgrwt>
<rscale>  0 0.66364221E+03</rscale>
<asrwt>0</asrwt>
<pdfrwt beam="1">  1        2 0.13901328E+00 0.66364221E+03</pdfrwt>
<pdfrwt beam="2">  1       -2 0.18746707E-01 0.66364221E+03</pdfrwt>
<totfact> 0.70135163E+02</totfact>
</mgrwt>
</event>
<event>
 4    1  0.8362047E-005  0.3918377E+03  0.7818608E-02  0.1046643E+00
         -2   -1    0    0    0  501 -0.00000000000E+00  0.00000000000E+00  0.75938326444E+02  0.75938326487E+02  0.25500000000E-02 0. -1.
          2   -1    0    0  501    0  0.00000000000E+00 -0.00000000000E+00 -0.50546526278E+03  0.50546526279E+03  0.25500000000E-02 0.  1.
    5000001    1    1    2    0    0  0.50959222475E+02  0.90146992935E+02 -0.24574099724E+03  0.31358724530E+03  0.16500000000E+03 0.  0.
   -5000001    1    1    2    0    0 -0.50959222475E+02 -0.90146992935E+02 -0.18378593910E+03  0.26781634398E+03  0.16500000000E+03 0.  0.
<mgrwt>
<rscale>  0 0.39183765E+03</rscale>
<asrwt>0</asrwt>
<pdfrwt beam="1">  1        2 0.77763884E-01 0.39183765E+03</pdfrwt>
<pdfrwt beam="2">  1       -2 0.11682820E-01 0.39183765E+03</pdfrwt>
<totfact> 0.31932777E+03</totfact>
</mgrwt>
</event>
<event>
 4    1  0.8362047E-005  0.4248856E+03  0.7818608E-02  0.1035488E+00
          2   -1    0    0  501    0  0.00000000000E+00  0.00000000000E+00  0.16010235091E+04  0.16010235091E+04  0.25500000000E-02 0.  1.
         -2   -1    0    0    0  501 -0.00000000000E+00 -0.00000000000E+00 -0.28189430048E+02  0.28189430163E+02  0.25500000000E-02 0. -1.
    5000001    1    1    2    0    0  0.75084901502E+02 -0.10857934289E+03  0.87040202551E+03  0.89568515794E+03  0.16500000000E+03 0.  0.
   -5000001    1    1    2    0    0 -0.75084901502E+02  0.10857934289E+03  0.70243205351E+03  0.73352778130E+03  0.16500000000E+03 0.  0.
<mgrwt>
<rscale>  0 0.42488559E+03</rscale>
<asrwt>0</asrwt>
<pdfrwt beam="1">  1        2 0.24631134E+00 0.42488559E+03</pdfrwt>
<pdfrwt beam="2">  1       -2 0.43368349E-02 0.42488559E+03</pdfrwt>
<totfact> 0.29254345E+03</totfact>
</mgrwt>
</event>
<event>
 4    1  0.8362047E-005  0.3804238E+03  0.7818608E-02  0.1050777E+00
          2   -1    0    0  501    0  0.00000000000E+00  0.00000000000E+00  0.21233412231E+04  0.21233412231E+04  0.25500000000E-02 0.  1.
         -2   -1    0    0    0  501 -0.00000000000E+00 -0.00000000000E+00 -0.17039449851E+02  0.17039450042E+02  0.25500000000E-02 0. -1.
    5000001    1    1    2    0    0 -0.86215115099E+02  0.37805189008E+02  0.11074929944E+04  0.11236672154E+04  0.16500000000E+03 0.  0.
   -5000001    1    1    2    0    0  0.86215115099E+02 -0.37805189008E+02  0.99880877886E+03  0.10167134577E+04  0.16500000000E+03 0.  0.
<mgrwt>
<rscale>  0 0.38042380E+03</rscale>
<asrwt>0</asrwt>
<pdfrwt beam="1">  1        2 0.32666763E+00 0.38042380E+03</pdfrwt>
<pdfrwt beam="2">  1       -2 0.26214558E-02 0.38042380E+03</pdfrwt>
<totfact> 0.32973636E+03</totfact>
</mgrwt>
</event>
<event>
 4    1  0.8362047E-005  0.7184263E+03  0.7818608E-02  0.9686230E-01
          2   -1    0    0  501    0  0.00000000000E+00  0.00000000000E+00  0.16432041410E+04  0.16432041410E+04  0.25500000000E-02 0.  1.
         -2   -1    0    0    0  501 -0.00000000000E+00 -0.00000000000E+00 -0.78525895089E+02  0.78525895130E+02  0.25500000000E-02 0. -1.
    5000001    1    1    2    0    0 -0.92278315905E+02 -0.17820472745E+03  0.13768373047E+04  0.14011346031E+04  0.16500000000E+03 0.  0.
   -5000001    1    1    2    0    0  0.92278315905E+02  0.17820472745E+03  0.18784094123E+03  0.32059543302E+03  0.16500000000E+03 0.  0.
<mgrwt>
<rscale>  0 0.71842627E+03</rscale>
<asrwt>0</asrwt>
<pdfrwt beam="1">  1        2 0.25280059E+00 0.71842627E+03</pdfrwt>
<pdfrwt beam="2">  1       -2 0.12080909E-01 0.71842627E+03</pdfrwt>
<totfact> 0.53997686E+02</totfact>
</mgrwt>
</event>
<event>
 4    1  0.8362047E-005  0.4301696E+03  0.7818608E-02  0.1033806E+00
         -2   -1    0    0    0  501 -0.00000000000E+00  0.00000000000E+00  0.23259037631E+02  0.23259037771E+02  0.25500000000E-02 0. -1.
          2   -1    0    0  501    0  0.00000000000E+00 -0.00000000000E+00 -0.19889674151E+04  0.19889674151E+04  0.25500000000E-02 0.  1.
    5000001    1    1    2    0    0  0.84372792651E+02 -0.17490573658E+02 -0.14869191949E+04  0.14985254021E+04  0.16500000000E+03 0.  0.
   -5000001    1    1    2    0    0 -0.84372792651E+02  0.17490573658E+02 -0.47878918248E+03  0.51370105078E+03  0.16500000000E+03 0.  0.
<mgrwt>
<rscale>  0 0.43016959E+03</rscale>
<asrwt>0</asrwt>
<pdfrwt beam="1">  1        2 0.30599485E+00 0.43016959E+03</pdfrwt>
<pdfrwt beam="2">  1       -2 0.35783151E-02 0.43016959E+03</pdfrwt>
<totfact> 0.24296166E+03</totfact>
</mgrwt>
</event>
<event>
 4    1  0.8362047E-005  0.7740553E+03  0.7818608E-02  0.9598349E-01
         -2   -1    0    0    0  501 -0.00000000000E+00  0.00000000000E+00  0.12571110262E+03  0.12571110264E+03  0.25500000000E-02 0. -1.
          2   -1    0    0  501    0  0.00000000000E+00 -0.00000000000E+00 -0.11915448459E+04  0.11915448459E+04  0.25500000000E-02 0.  1.
    5000001    1    1    2    0    0  0.34715081404E+02  0.33173334179E+03 -0.71392256053E+03  0.80508544227E+03  0.16500000000E+03 0.  0.
   -5000001    1    1    2    0    0 -0.34715081404E+02 -0.33173334179E+03 -0.35191118271E+03  0.51217050622E+03  0.16500000000E+03 0.  0.
<mgrwt>
<rscale>  0 0.77405534E+03</rscale>
<asrwt>0</asrwt>
<pdfrwt beam="1">  1        2 0.18331458E+00 0.77405534E+03</pdfrwt>
<pdfrwt beam="2">  1       -2 0.19340170E-01 0.77405534E+03</pdfrwt>
<totfact> 0.43667201E+02</totfact>
</mgrwt>
</event>
<event>
 4    1  0.8362047E-005  0.5042751E+03  0.7818608E-02  0.1012669E+00
          2   -1    0    0  501    0  0.00000000000E+00  0.00000000000E+00  0.27274880050E+04  0.27274880050E+04  0.25500000000E-02 0.  1.
         -2   -1    0    0    0  501 -0.00000000000E+00 -0.00000000000E+00 -0.23308387175E+02  0.23308387314E+02  0.25500000000E-02 0. -1.
    5000001    1    1    2    0    0 -0.99254805129E+02 -0.74271640837E+02  0.21422213263E+04  0.21521396339E+04  0.16500000000E+03 0.  0.
   -5000001    1    1    2    0    0  0.99254805129E+02  0.74271640837E+02  0.56195829150E+03  0.59865675839E+03  0.16500000000E+03 0.  0.
<mgrwt>
<rscale>  0 0.50427511E+03</rscale>
<asrwt>0</asrwt>
<pdfrwt beam="1">  1        2 0.41961355E+00 0.50427511E+03</pdfrwt>
<pdfrwt beam="2">  1       -2 0.35859056E-02 0.50427511E+03</pdfrwt>
<totfact> 0.94208467E+02</totfact>
</mgrwt>
</event>
<event>
 4    1  0.8362047E-005  0.3884554E+03  0.7818608E-02  0.1047852E+00
         -2   -1    0    0    0  501 -0.00000000000E+00  0.00000000000E+00  0.29992615146E+02  0.29992615254E+02  0.25500000000E-02 0. -1.
          2   -1    0    0  501    0  0.00000000000E+00 -0.00000000000E+00 -0.12577895287E+04  0.12577895287E+04  0.25500000000E-02 0.  1.
    5000001    1    1    2    0    0  0.10072107450E+03  0.18458815680E+02 -0.60152335645E+03  0.63209240707E+03  0.16500000000E+03 0.  0.
   -5000001    1    1    2    0    0 -0.10072107450E+03 -0.18458815680E+02 -0.62627355710E+03  0.65568973688E+03  0.16500000000E+03 0.  0.
<mgrwt>
<rscale>  0 0.38845539E+03</rscale>
<asrwt>0</asrwt>
<pdfrwt beam="1">  1        2 0.19350604E+00 0.38845539E+03</pdfrwt>
<pdfrwt beam="2">  1       -2 0.46142495E-02 0.38845539E+03</pdfrwt>
<totfact> 0.41138228E+03</totfact>
</mgrwt>
</event>
<event>
 4    1  0.8362047E-005  0.1127429E+04  0.7818608E-02  0.9178863E-01
         -2   -1    0    0    0  501 -0.00000000000E+00  0.00000000000E+00  0.28012038827E+03  0.28012038828E+03  0.25500000000E-02 0. -1.
          2   -1    0    0  501    0  0.00000000000E+00 -0.00000000000E+00 -0.11344191284E+04  0.11344191284E+04  0.25500000000E-02 0.  1.
    5000001    1    1    2    0    0  0.48899692763E+03  0.79726449406E+02 -0.69352348425E+03  0.86814406937E+03  0.16500000000E+03 0.  0.
   -5000001    1    1    2    0    0 -0.48899692763E+03 -0.79726449406E+02 -0.16077525591E+03  0.54639544735E+03  0.16500000000E+03 0.  0.
<mgrwt>
<rscale>  0 0.11274288E+04</rscale>
<asrwt>0</asrwt>
<pdfrwt beam="1">  1        2 0.17452602E+00 0.11274288E+04</pdfrwt>
<pdfrwt beam="2">  1       -2 0.43095445E-01 0.11274288E+04</pdfrwt>
<totfact> 0.10494605E+02</totfact>
</mgrwt>
</event>
<event>
 4    1  0.8362047E-005  0.6887962E+03  0.7818608E-02  0.9736586E-01
          2   -1    0    0  501    0  0.00000000000E+00  0.00000000000E+00  0.32061794749E+03  0.32061794750E+03  0.25500000000E-02 0.  1.
         -2   -1    0    0    0  501 -0.00000000000E+00 -0.00000000000E+00 -0.36994202317E+03  0.36994202318E+03  0.25500000000E-02 0. -1.
    5000001    1    1    2    0    0  0.26970495738E+03 -0.10648823786E+03 -0.11034750932E+03  0.35140017310E+03  0.16500000000E+03 0.  0.
   -5000001    1    1    2    0    0 -0.26970495738E+03  0.10648823786E+03  0.61023433641E+02  0.33915979758E+03  0.16500000000E+03 0.  0.
<mgrwt>
<rscale>  0 0.68879620E+03</rscale>
<asrwt>0</asrwt>
<pdfrwt beam="1">  1        2 0.49325838E-01 0.68879620E+03</pdfrwt>
<pdfrwt beam="2">  1       -2 0.56914157E-01 0.68879620E+03</pdfrwt>
<totfact> 0.29792859E+02</totfact>
</mgrwt>
</event>
<event>
 4    1  0.8362047E-005  0.7724215E+03  0.7818608E-02  0.9600817E-01
          2   -1    0    0  501    0  0.00000000000E+00  0.00000000000E+00  0.11984404273E+03  0.11984404276E+03  0.25500000000E-02 0.  1.
         -2   -1    0    0    0  501 -0.00000000000E+00 -0.00000000000E+00 -0.12446071632E+04  0.12446071632E+04  0.25500000000E-02 0. -1.
    5000001    1    1    2    0    0  0.84432180900E+02  0.33035654393E+03 -0.42937392065E+03  0.57258292240E+03  0.16500000000E+03 0.  0.
   -5000001    1    1    2    0    0 -0.84432180900E+02 -0.33035654393E+03 -0.69538919981E+03  0.79186828355E+03  0.16500000000E+03 0.  0.
<mgrwt>
<rscale>  0 0.77242153E+03</rscale>
<asrwt>0</asrwt>
<pdfrwt beam="1">  1        2 0.18437546E-01 0.77242153E+03</pdfrwt>
<pdfrwt beam="2">  1       -2 0.19147802E+00 0.77242153E+03</pdfrwt>
<totfact> 0.48081315E+01</totfact>
</mgrwt>
</event>
<event>
 4    1  0.8362047E-005  0.8719267E+03  0.7818608E-02  0.9461371E-01
         -2   -1    0    0    0  501 -0.00000000000E+00  0.00000000000E+00  0.80296652763E+02  0.80296652804E+02  0.25500000000E-02 0. -1.
          2   -1    0    0  501    0  0.00000000000E+00 -0.00000000000E+00 -0.23670231112E+04  0.23670231112E+04  0.25500000000E-02 0.  1.
    5000001    1    1    2    0    0  0.17798300188E+03  0.27194767460E+03 -0.47204286719E+03  0.59639161224E+03  0.16500000000E+03 0.  0.
   -5000001    1    1    2    0    0 -0.17798300188E+03 -0.27194767460E+03 -0.18146835912E+04  0.18509281517E+04  0.16500000000E+03 0.  0.
<mgrwt>
<rscale>  0 0.87192668E+03</rscale>
<asrwt>0</asrwt>
<pdfrwt beam="1">  1        2 0.36415735E+00 0.87192668E+03</pdfrwt>
<pdfrwt beam="2">  1       -2 0.12353333E-01 0.87192668E+03</pdfrwt>
<totfact> 0.20590467E+02</totfact>
</mgrwt>
</event>
<event>
 4    1  0.8362047E-005  0.5557852E+03  0.7818608E-02  0.1000164E+00
          2   -1    0    0  501    0  0.00000000000E+00  0.00000000000E+00  0.34077928632E+03  0.34077928633E+03  0.25500000000E-02 0.  1.
         -2   -1    0    0    0  501 -0.00000000000E+00 -0.00000000000E+00 -0.22661091866E+03  0.22661091867E+03  0.25500000000E-02 0. -1.
    5000001    1    1    2    0    0  0.20115821942E+03 -0.43086898035E+02  0.14653915024E+03  0.30169493296E+03  0.16500000000E+03 0.  0.
   -5000001    1    1    2    0    0 -0.20115821942E+03  0.43086898035E+02 -0.32370782580E+02  0.26569527204E+03  0.16500000000E+03 0.  0.
<mgrwt>
<rscale>  0 0.55578524E+03</rscale>
<asrwt>0</asrwt>
<pdfrwt beam="1">  1        2 0.52427582E-01 0.55578524E+03</pdfrwt>
<pdfrwt beam="2">  1       -2 0.34863218E-01 0.55578524E+03</pdfrwt>
<totfact> 0.73870558E+02</totfact>
</mgrwt>
</event>
<event>
 4    1  0.8362047E-005  0.4731676E+03  0.7818608E-02  0.1021030E+00
         -2   -1    0    0    0  501 -0.00000000000E+00  0.00000000000E+00  0.12323327669E+04  0.12323327669E+04  0.25500000000E-02 0. -1.
          2   -1    0    0  501    0  0.00000000000E+00 -0.00000000000E+00 -0.45419472634E+02  0.45419472706E+02  0.25500000000E-02 0.  1.
    5000001    1    1    2    0    0 -0.12740403172E+03  0.11012162982E+03  0.54024094585E+03  0.58944367010E+03  0.16500000000E+03 0.  0.
   -5000001    1    1    2    0    0  0.12740403172E+03 -0.11012162982E+03  0.64667234845E+03  0.68830856954E+03  0.16500000000E+03 0.  0.
<mgrwt>
<rscale>  0 0.47316764E+03</rscale>
<asrwt>0</asrwt>
<pdfrwt beam="1">  1        2 0.69876127E-02 0.47316764E+03</pdfrwt>
<pdfrwt beam="2">  1       -2 0.18958962E+00 0.47316764E+03</pdfrwt>
<totfact> 0.16936239E+02</totfact>
</mgrwt>
</event>
<event>
 4    1  0.8362047E-005  0.8729919E+03  0.7818608E-02  0.9459987E-01
          2   -1    0    0  501    0  0.00000000000E+00  0.00000000000E+00  0.10100182927E+04  0.10100182927E+04  0.25500000000E-02 0.  1.
         -2   -1    0    0    0  501 -0.00000000000E+00 -0.00000000000E+00 -0.18863888038E+03  0.18863888039E+03  0.25500000000E-02 0. -1.
    5000001    1    1    2    0    0 -0.30439898787E+03  0.11477265799E+03  0.73985476530E+03  0.82488882922E+03  0.16500000000E+03 0.  0.
   -5000001    1    1    2    0    0  0.30439898787E+03 -0.11477265799E+03  0.81524647071E+02  0.37376834392E+03  0.16500000000E+03 0.  0.
<mgrwt>
<rscale>  0 0.87299191E+03</rscale>
<asrwt>0</asrwt>
<pdfrwt beam="1">  1        2 0.15538743E+00 0.87299191E+03</pdfrwt>
<pdfrwt beam="2">  1       -2 0.29021366E-01 0.87299191E+03</pdfrwt>
<totfact> 0.27126157E+02</totfact>
</mgrwt>
</event>
<event>
 4    1  0.8362047E-005  0.7887917E+03  0.7818608E-02  0.9576384E-01
          2   -1    0    0  501    0  0.00000000000E+00  0.00000000000E+00  0.37133028784E+03  0.37133028785E+03  0.25500000000E-02 0.  1.
         -2   -1    0    0    0  501 -0.00000000000E+00 -0.00000000000E+00 -0.41889411806E+03  0.41889411806E+03  0.25500000000E-02 0. -1.
    5000001    1    1    2    0    0 -0.35410332051E+03 -0.49352286463E+02 -0.46144280175E+02  0.39645820003E+03  0.16500000000E+03 0.  0.
   -5000001    1    1    2    0    0  0.35410332051E+03  0.49352286463E+02 -0.14195500446E+01  0.39376620588E+03  0.16500000000E+03 0.  0.
<mgrwt>
<rscale>  0 0.78879167E+03</rscale>
<asrwt>0</asrwt>
<pdfrwt beam="1">  1        2 0.57127736E-01 0.78879167E+03</pdfrwt>
<pdfrwt beam="2">  1       -2 0.64445249E-01 0.78879167E+03</pdfrwt>
<totfact> 0.19383550E+02</totfact>
</mgrwt>
</event>
<event>
 4    1  0.8362047E-005  0.5293447E+03  0.7818608E-02  0.1006391E+00
         -2   -1    0    0    0  501 -0.00000000000E+00  0.00000000000E+00  0.31743251899E+02  0.31743252002E+02  0.25500000000E-02 0. -1.
          2   -1    0    0  501    0  0.00000000000E+00 -0.00000000000E+00 -0.22068137009E+04  0.22068137009E+04  0.25500000000E-02 0.  1.
    5000001    1    1    2    0    0  0.20623819264E+03  0.17087627106E+02 -0.10897089758E+04  0.11213905792E+04  0.16500000000E+03 0.  0.
   -5000001    1    1    2    0    0 -0.20623819264E+03 -0.17087627106E+02 -0.10853614732E+04  0.11171663737E+04  0.16500000000E+03 0.  0.
<mgrwt>
<rscale>  0 0.52934466E+03</rscale>
<asrwt>0</asrwt>
<pdfrwt beam="1">  1        2 0.33950968E+00 0.52934466E+03</pdfrwt>
<pdfrwt beam="2">  1       -2 0.48835790E-02 0.52934466E+03</pdfrwt>
<totfact> 0.11443586E+03</totfact>
</mgrwt>
</event>
<event>
 4    1  0.8362047E-005  0.7951862E+03  0.7818608E-02  0.9567011E-01
          2   -1    0    0  501    0  0.00000000000E+00  0.00000000000E+00  0.16093057071E+03  0.16093057073E+03  0.25500000000E-02 0.  1.
         -2   -1    0    0    0  501 -0.00000000000E+00 -0.00000000000E+00 -0.98228861897E+03  0.98228861897E+03  0.25500000000E-02 0. -1.
    5000001    1    1    2    0    0  0.27246094012E+03 -0.18075767284E+03 -0.63315644649E+03  0.73145087730E+03  0.16500000000E+03 0.  0.
   -5000001    1    1    2    0    0 -0.27246094012E+03  0.18075767284E+03 -0.18820160177E+03  0.41176831239E+03  0.16500000000E+03 0.  0.
<mgrwt>
<rscale>  0 0.79518619E+03</rscale>
<asrwt>0</asrwt>
<pdfrwt beam="1">  1        2 0.24758550E-01 0.79518619E+03</pdfrwt>
<pdfrwt beam="2">  1       -2 0.15112132E+00 0.79518619E+03</pdfrwt>
<totfact> 0.65667807E+01</totfact>
</mgrwt>
</event>
<event>
 4    1  0.8362047E-005  0.5241869E+03  0.7818608E-02  0.1007652E+00
          2   -1    0    0  501    0  0.00000000000E+00  0.00000000000E+00  0.15951513318E+03  0.15951513320E+03  0.25500000000E-02 0.  1.
         -2   -1    0    0    0  501 -0.00000000000E+00 -0.00000000000E+00 -0.43063618028E+03  0.43063618029E+03  0.25500000000E-02 0. -1.
    5000001    1    1    2    0    0 -0.36924985756E+02  0.17448364205E+03 -0.24906921165E+02  0.24424035424E+03  0.16500000000E+03 0.  0.
   -5000001    1    1    2    0    0  0.36924985756E+02 -0.17448364205E+03 -0.24621412594E+03  0.34591095925E+03  0.16500000000E+03 0.  0.
<mgrwt>
<rscale>  0 0.52418694E+03</rscale>
<asrwt>0</asrwt>
<pdfrwt beam="1">  1        2 0.24540790E-01 0.52418694E+03</pdfrwt>
<pdfrwt beam="2">  1       -2 0.66251719E-01 0.52418694E+03</pdfrwt>
<totfact> 0.47324319E+02</totfact>
</mgrwt>
</event>
<event>
 4    1  0.8362047E-005  0.5758760E+03  0.7818608E-02  0.9956759E-01
          2   -1    0    0  501    0  0.00000000000E+00  0.00000000000E+00  0.71693384853E+03  0.71693384854E+03  0.25500000000E-02 0.  1.
         -2   -1    0    0    0  501 -0.00000000000E+00 -0.00000000000E+00 -0.11564289541E+03  0.11564289544E+03  0.25500000000E-02 0. -1.
    5000001    1    1    2    0    0  0.99535244021E+00  0.21765321737E+03  0.16885625548E+03  0.32110955883E+03  0.16500000000E+03 0.  0.
   -5000001    1    1    2    0    0 -0.99535244021E+00 -0.21765321737E+03  0.43243469764E+03  0.51146718514E+03  0.16500000000E+03 0.  0.
<mgrwt>
<rscale>  0 0.57587605E+03</rscale>
<asrwt>0</asrwt>
<pdfrwt beam="1">  1        2 0.11029751E+00 0.57587605E+03</pdfrwt>
<pdfrwt beam="2">  1       -2 0.17791215E-01 0.57587605E+03</pdfrwt>
<totfact> 0.10443398E+03</totfact>
</mgrwt>
</event>
<event>
 4    1  0.8362047E-005  0.4884657E+03  0.7818608E-02  0.1016834E+00
          2   -1    0    0  501    0  0.00000000000E+00  0.00000000000E+00  0.24175106977E+03  0.24175106978E+03  0.25500000000E-02 0.  1.
         -2   -1    0    0    0  501 -0.00000000000E+00 -0.00000000000E+00 -0.24674006345E+03  0.24674006347E+03  0.25500000000E-02 0. -1.
    5000001    1    1    2    0    0  0.53094965027E+02 -0.17132523587E+03 -0.18409551451E+02  0.24440810818E+03  0.16500000000E+03 0.  0.
   -5000001    1    1    2    0    0 -0.53094965027E+02  0.17132523587E+03  0.13420557767E+02  0.24408302507E+03  0.16500000000E+03 0.  0.
<mgrwt>
<rscale>  0 0.48846566E+03</rscale>
<asrwt>0</asrwt>
<pdfrwt beam="1">  1        2 0.37192472E-01 0.48846566E+03</pdfrwt>
<pdfrwt beam="2">  1       -2 0.37960010E-01 0.48846566E+03</pdfrwt>
<totfact> 0.91729706E+02</totfact>
</mgrwt>
</event>
<event>
 4    1  0.8362047E-005  0.3887458E+03  0.7818608E-02  0.1047748E+00
          2   -1    0    0  501    0  0.00000000000E+00  0.00000000000E+00  0.15608855126E+04  0.15608855126E+04  0.25500000000E-02 0. -1.
         -2   -1    0    0    0  501 -0.00000000000E+00 -0.00000000000E+00 -0.24204742916E+02  0.24204743050E+02  0.25500000000E-02 0.  1.
    5000001    1    1    2    0    0  0.85667857051E+02 -0.52949430487E+02  0.68545594853E+03  0.71219202558E+03  0.16500000000E+03 0.  0.
   -5000001    1    1    2    0    0 -0.85667857051E+02  0.52949430487E+02  0.85122482119E+03  0.87289823011E+03  0.16500000000E+03 0.  0.
<mgrwt>
<rscale>  0 0.38874584E+03</rscale>
<asrwt>0</asrwt>
<pdfrwt beam="1">  1        2 0.24013629E+00 0.38874584E+03</pdfrwt>
<pdfrwt beam="2">  1       -2 0.37238057E-02 0.38874584E+03</pdfrwt>
<totfact> 0.38798231E+03</totfact>
</mgrwt>
</event>
<event>
 4    1  0.8362047E-005  0.8756701E+03  0.7818608E-02  0.9456517E-01
          2   -1    0    0  501    0  0.00000000000E+00  0.00000000000E+00  0.32954963495E+04  0.32954963495E+04  0.25500000000E-02 0.  1.
         -2   -1    0    0    0  501 -0.00000000000E+00 -0.00000000000E+00 -0.58170149722E+02  0.58170149778E+02  0.25500000000E-02 0. -1.
    5000001    1    1    2    0    0 -0.15859662843E+03 -0.13276718252E+03  0.29546889016E+04  0.29665116754E+04  0.16500000000E+03 0.  0.
   -5000001    1    1    2    0    0  0.15859662843E+03  0.13276718252E+03  0.28263729820E+03  0.38715482386E+03  0.16500000000E+03 0.  0.
<mgrwt>
<rscale>  0 0.87567007E+03</rscale>
<asrwt>0</asrwt>
<pdfrwt beam="1">  1        2 0.50699942E+00 0.87567007E+03</pdfrwt>
<pdfrwt beam="2">  1       -2 0.89492541E-02 0.87567007E+03</pdfrwt>
<totfact> 0.96804805E+01</totfact>
</mgrwt>
</event>
<event>
 4    1  0.8362047E-005  0.5477040E+03  0.7818608E-02  0.1002027E+00
          2   -1    0    0  501    0  0.00000000000E+00  0.00000000000E+00  0.11826066441E+03  0.11826066444E+03  0.25500000000E-02 0.  1.
         -2   -1    0    0    0  501 -0.00000000000E+00 -0.00000000000E+00 -0.63414920297E+03  0.63414920298E+03  0.25500000000E-02 0. -1.
    5000001    1    1    2    0    0 -0.12305801810E+03  0.17076766321E+03 -0.17707892378E+03  0.32075974789E+03  0.16500000000E+03 0.  0.
   -5000001    1    1    2    0    0  0.12305801810E+03 -0.17076766321E+03 -0.33880961478E+03  0.43165011953E+03  0.16500000000E+03 0.  0.
<mgrwt>
<rscale>  0 0.54770396E+03</rscale>
<asrwt>0</asrwt>
<pdfrwt beam="1">  1        2 0.18193949E-01 0.54770396E+03</pdfrwt>
<pdfrwt beam="2">  1       -2 0.97561413E-01 0.54770396E+03</pdfrwt>
<totfact> 0.28164935E+02</totfact>
</mgrwt>
</event>
<event>
 4    1  0.8362047E-005  0.4410703E+03  0.7818608E-02  0.1030419E+00
         -2   -1    0    0    0  501 -0.00000000000E+00  0.00000000000E+00  0.37024986206E+02  0.37024986294E+02  0.25500000000E-02 0. -1.
          2   -1    0    0  501    0  0.00000000000E+00 -0.00000000000E+00 -0.13135930016E+04  0.13135930016E+04  0.25500000000E-02 0.  1.
    5000001    1    1    2    0    0 -0.14519063825E+03 -0.15281367516E+02 -0.60813770537E+03  0.64681551491E+03  0.16500000000E+03 0.  0.
   -5000001    1    1    2    0    0  0.14519063825E+03  0.15281367516E+02 -0.66843031000E+03  0.70380247297E+03  0.16500000000E+03 0.  0.
<mgrwt>
<rscale>  0 0.44107035E+03</rscale>
<asrwt>0</asrwt>
<pdfrwt beam="1">  1        2 0.20209120E+00 0.44107035E+03</pdfrwt>
<pdfrwt beam="2">  1       -2 0.56961527E-02 0.44107035E+03</pdfrwt>
<totfact> 0.27657513E+03</totfact>
</mgrwt>
</event>
<event>
 4    1  0.8362047E-005  0.1138289E+04  0.7818608E-02  0.9168656E-01
         -2   -1    0    0    0  501 -0.00000000000E+00  0.00000000000E+00  0.13789031226E+03  0.13789031229E+03  0.25500000000E-02 0. -1.
          2   -1    0    0  501    0  0.00000000000E+00 -0.00000000000E+00 -0.23491544144E+04  0.23491544144E+04  0.25500000000E-02 0.  1.
    5000001    1    1    2    0    0  0.42650894092E+03 -0.18498494246E+03 -0.48544712422E+03  0.69210780666E+03  0.16500000000E+03 0.  0.
   -5000001    1    1    2    0    0 -0.42650894092E+03  0.18498494246E+03 -0.17258169779E+04  0.17949369200E+04  0.16500000000E+03 0.  0.
<mgrwt>
<rscale>  0 0.11382893E+04</rscale>
<asrwt>0</asrwt>
<pdfrwt beam="1">  1        2 0.36140834E+00 0.11382893E+04</pdfrwt>
<pdfrwt beam="2">  1       -2 0.21213896E-01 0.11382893E+04</pdfrwt>
<totfact> 0.81565825E+01</totfact>
</mgrwt>
</event>
<event>
 4    1  0.8362047E-005  0.4385945E+03  0.7818608E-02  0.1031179E+00
         -2   -1    0    0    0  501 -0.00000000000E+00  0.00000000000E+00  0.15154109832E+03  0.15154109834E+03  0.25500000000E-02 0. -1.
          2   -1    0    0  501    0  0.00000000000E+00 -0.00000000000E+00 -0.31734811167E+03  0.31734811168E+03  0.25500000000E-02 0.  1.
    5000001    1    1    2    0    0  0.14068156922E+02  0.40978056519E+02  0.64415922872E+02  0.18235000761E+03  0.16500000000E+03 0.  0.
   -5000001    1    1    2    0    0 -0.14068156922E+02 -0.40978056519E+02 -0.23022293623E+03  0.28653920241E+03  0.16500000000E+03 0.  0.
<mgrwt>
<rscale>  0 0.43859449E+03</rscale>
<asrwt>0</asrwt>
<pdfrwt beam="1">  1        2 0.48822786E-01 0.43859449E+03</pdfrwt>
<pdfrwt beam="2">  1       -2 0.23314015E-01 0.43859449E+03</pdfrwt>
<totfact> 0.16659367E+03</totfact>
</mgrwt>
</event>
<event>
 4    1  0.8362047E-005  0.5671802E+03  0.7818608E-02  0.9975938E-01
          2   -1    0    0  501    0  0.00000000000E+00  0.00000000000E+00  0.58078716219E+03  0.58078716220E+03  0.25500000000E-02 0.  1.
         -2   -1    0    0    0  501 -0.00000000000E+00 -0.00000000000E+00 -0.13847302764E+03  0.13847302766E+03  0.25500000000E-02 0. -1.
    5000001    1    1    2    0    0 -0.14716324615E+03 -0.30148995461E+02 -0.79298738126E+00  0.22314034098E+03  0.16500000000E+03 0.  0.
   -5000001    1    1    2    0    0  0.14716324615E+03  0.30148995461E+02  0.44310712194E+03  0.49611984888E+03  0.16500000000E+03 0.  0.
<mgrwt>
<rscale>  0 0.56718024E+03</rscale>
<asrwt>0</asrwt>
<pdfrwt beam="1">  1        2 0.89351872E-01 0.56718024E+03</pdfrwt>
<pdfrwt beam="2">  1       -2 0.21303542E-01 0.56718024E+03</pdfrwt>
<totfact> 0.98819118E+02</totfact>
</mgrwt>
</event>
<event>
 4    1  0.8362047E-005  0.7656148E+03  0.7818608E-02  0.9611167E-01
          2   -1    0    0  501    0  0.00000000000E+00  0.00000000000E+00  0.72130518159E+03  0.72130518160E+03  0.25500000000E-02 0.  1.
         -2   -1    0    0    0  501 -0.00000000000E+00 -0.00000000000E+00 -0.20316159158E+03  0.20316159160E+03  0.25500000000E-02 0. -1.
    5000001    1    1    2    0    0  0.32161794613E+03  0.79090886018E+02  0.14062124987E+03  0.39584442327E+03  0.16500000000E+03 0.  0.
   -5000001    1    1    2    0    0 -0.32161794613E+03 -0.79090886018E+02  0.37752234015E+03  0.52862234992E+03  0.16500000000E+03 0.  0.
<mgrwt>
<rscale>  0 0.76561481E+03</rscale>
<asrwt>0</asrwt>
<pdfrwt beam="1">  1        2 0.11097003E+00 0.76561481E+03</pdfrwt>
<pdfrwt beam="2">  1       -2 0.31255629E-01 0.76561481E+03</pdfrwt>
<totfact> 0.37647171E+02</totfact>
</mgrwt>
</event>
<event>
 4    1  0.8362047E-005  0.4371787E+03  0.7818608E-02  0.1031616E+00
          2   -1    0    0  501    0  0.00000000000E+00  0.00000000000E+00  0.71167094513E+03  0.71167094513E+03  0.25500000000E-02 0.  1.
         -2   -1    0    0    0  501 -0.00000000000E+00 -0.00000000000E+00 -0.67139592616E+02  0.67139592665E+02  0.25500000000E-02 0. -1.
    5000001    1    1    2    0    0  0.10160000629E+03  0.32068969209E+02  0.49318542114E+03  0.53085576167E+03  0.16500000000E+03 0.  0.
   -5000001    1    1    2    0    0 -0.10160000629E+03 -0.32068969209E+02  0.15134593137E+03  0.24795477613E+03  0.16500000000E+03 0.  0.
<mgrwt>
<rscale>  0 0.43717867E+03</rscale>
<asrwt>0</asrwt>
<pdfrwt beam="1">  1        2 0.10948783E+00 0.43717867E+03</pdfrwt>
<pdfrwt beam="2">  1       -2 0.10329169E-01 0.43717867E+03</pdfrwt>
<totfact> 0.26023316E+03</totfact>
</mgrwt>
</event>
<event>
 4    1  0.8362047E-005  0.5639198E+03  0.7818608E-02  0.9983224E-01
          2   -1    0    0  501    0  0.00000000000E+00  0.00000000000E+00  0.28324521566E+04  0.28324521566E+04  0.25500000000E-02 0.  1.
         -2   -1    0    0    0  501 -0.00000000000E+00 -0.00000000000E+00 -0.28068044636E+02  0.28068044752E+02  0.25500000000E-02 0. -1.
    5000001    1    1    2    0    0 -0.16590683122E+03 -0.15344730553E+03  0.15782942199E+04  0.16029063593E+04  0.16500000000E+03 0.  0.
   -5000001    1    1    2    0    0  0.16590683122E+03  0.15344730553E+03  0.12260898920E+04  0.12576138420E+04  0.16500000000E+03 0.  0.
<mgrwt>
<rscale>  0 0.56391983E+03</rscale>
<asrwt>0</asrwt>
<pdfrwt beam="1">  1        2 0.43576188E+00 0.56391983E+03</pdfrwt>
<pdfrwt beam="2">  1       -2 0.43181606E-02 0.56391983E+03</pdfrwt>
<totfact> 0.61188056E+02</totfact>
</mgrwt>
</event>
<event>
 4    1  0.8362047E-005  0.3879945E+03  0.7818608E-02  0.1048018E+00
          2   -1    0    0  501    0  0.00000000000E+00  0.00000000000E+00  0.10117918047E+04  0.10117918047E+04  0.25500000000E-02 0.  1.
         -2   -1    0    0    0  501 -0.00000000000E+00 -0.00000000000E+00 -0.37196319883E+02  0.37196319970E+02  0.25500000000E-02 0. -1.
    5000001    1    1    2    0    0  0.40810302384E+02 -0.77717010725E+02  0.62789921805E+03  0.65512429550E+03  0.16500000000E+03 0.  0.
   -5000001    1    1    2    0    0 -0.40810302384E+02  0.77717010725E+02  0.34669626679E+03  0.39386382919E+03  0.16500000000E+03 0.  0.
<mgrwt>
<rscale>  0 0.38799449E+03</rscale>
<asrwt>0</asrwt>
<pdfrwt beam="1">  1        2 0.15566026E+00 0.38799449E+03</pdfrwt>
<pdfrwt beam="2">  1       -2 0.57225113E-02 0.38799449E+03</pdfrwt>
<totfact> 0.41285274E+03</totfact>
</mgrwt>
</event>
<event>
 4    1  0.8362047E-005  0.4655432E+03  0.7818608E-02  0.1023186E+00
          2   -1    0    0  501    0  0.00000000000E+00  0.00000000000E+00  0.11403273111E+04  0.11403273111E+04  0.25500000000E-02 0.  1.
         -2   -1    0    0    0  501 -0.00000000000E+00 -0.00000000000E+00 -0.47514971393E+02  0.47514971462E+02  0.25500000000E-02 0. -1.
    5000001    1    1    2    0    0 -0.13342750880E+03 -0.75775820582E+02  0.39734975393E+03  0.45678955990E+03  0.16500000000E+03 0.  0.
   -5000001    1    1    2    0    0  0.13342750880E+03  0.75775820582E+02  0.69546258573E+03  0.73105272261E+03  0.16500000000E+03 0.  0.
<mgrwt>
<rscale>  0 0.46554321E+03</rscale>
<asrwt>0</asrwt>
<pdfrwt beam="1">  1        2 0.17543496E+00 0.46554321E+03</pdfrwt>
<pdfrwt beam="2">  1       -2 0.73099962E-02 0.46554321E+03</pdfrwt>
<totfact> 0.23569651E+03</totfact>
</mgrwt>
</event>
<event>
 4    1  0.8362047E-005  0.7009005E+03  0.7818608E-02  0.9715693E-01
          2   -1    0    0  501    0  0.00000000000E+00  0.00000000000E+00  0.20504161983E+03  0.20504161985E+03  0.25500000000E-02 0.  1.
         -2   -1    0    0    0  501 -0.00000000000E+00 -0.00000000000E+00 -0.59897779976E+03  0.59897779977E+03  0.25500000000E-02 0. -1.
    5000001    1    1    2    0    0 -0.17281403877E+03  0.23665576053E+03 -0.31006153450E+03  0.45742080863E+03  0.16500000000E+03 0.  0.
   -5000001    1    1    2    0    0  0.17281403877E+03 -0.23665576053E+03 -0.83874645434E+02  0.34659861099E+03  0.16500000000E+03 0.  0.
<mgrwt>
<rscale>  0 0.70090050E+03</rscale>
<asrwt>0</asrwt>
<pdfrwt beam="1">  1        2 0.31544865E-01 0.70090050E+03</pdfrwt>
<pdfrwt beam="2">  1       -2 0.92150430E-01 0.70090050E+03</pdfrwt>
<totfact> 0.16994660E+02</totfact>
</mgrwt>
</event>
<event>
 4    1  0.8362047E-005  0.6944424E+03  0.7818608E-02  0.9726784E-01
          2   -1    0    0  501    0  0.00000000000E+00  0.00000000000E+00  0.76477883771E+03  0.76477883772E+03  0.25500000000E-02 0.  1.
         -2   -1    0    0    0  501 -0.00000000000E+00 -0.00000000000E+00 -0.15764369608E+03  0.15764369610E+03  0.25500000000E-02 0. -1.
    5000001    1    1    2    0    0 -0.29087650428E+03 -0.47046575591E+02  0.41078176137E+03  0.53177925542E+03  0.16500000000E+03 0.  0.
   -5000001    1    1    2    0    0  0.29087650428E+03  0.47046575591E+02  0.19635338026E+03  0.39064327840E+03  0.16500000000E+03 0.  0.
<mgrwt>
<rscale>  0 0.69444240E+03</rscale>
<asrwt>0</asrwt>
<pdfrwt beam="1">  1        2 0.11765828E+00 0.69444240E+03</pdfrwt>
<pdfrwt beam="2">  1       -2 0.24252876E-01 0.69444240E+03</pdfrwt>
<totfact> 0.55680663E+02</totfact>
</mgrwt>
</event>
<event>
 4    1  0.8362047E-005  0.4238727E+03  0.7818608E-02  0.1035813E+00
          2   -1    0    0  501    0  0.00000000000E+00  0.00000000000E+00  0.34145728475E+03  0.34145728476E+03  0.25500000000E-02 0.  1.
         -2   -1    0    0    0  501 -0.00000000000E+00 -0.00000000000E+00 -0.13154505645E+03  0.13154505647E+03  0.25500000000E-02 0. -1.
    5000001    1    1    2    0    0  0.10166678318E+03 -0.73024334384E+02  0.15515119454E+03  0.25877708821E+03  0.16500000000E+03 0.  0.
   -5000001    1    1    2    0    0 -0.10166678318E+03  0.73024334384E+02  0.54761033761E+02  0.21422525302E+03  0.16500000000E+03 0.  0.
<mgrwt>
<rscale>  0 0.42387271E+03</rscale>
<asrwt>0</asrwt>
<pdfrwt beam="1">  1        2 0.52531888E-01 0.42387271E+03</pdfrwt>
<pdfrwt beam="2">  1       -2 0.20237702E-01 0.42387271E+03</pdfrwt>
<totfact> 0.19687166E+03</totfact>
</mgrwt>
</event>
<event>
 4    1  0.8362047E-005  0.4883901E+03  0.7818608E-02  0.1016854E+00
         -2   -1    0    0    0  501 -0.00000000000E+00  0.00000000000E+00  0.37080143761E+02  0.37080143849E+02  0.25500000000E-02 0. -1.
          2   -1    0    0  501    0  0.00000000000E+00 -0.00000000000E+00 -0.16081710870E+04  0.16081710870E+04  0.25500000000E-02 0.  1.
    5000001    1    1    2    0    0 -0.10508065829E+03  0.13775643508E+03 -0.62094496072E+03  0.66544453142E+03  0.16500000000E+03 0.  0.
   -5000001    1    1    2    0    0  0.10508065829E+03 -0.13775643508E+03 -0.95014598255E+03  0.97980669946E+03  0.16500000000E+03 0.  0.
<mgrwt>
<rscale>  0 0.48839007E+03</rscale>
<asrwt>0</asrwt>
<pdfrwt beam="1">  1        2 0.24741088E+00 0.48839007E+03</pdfrwt>
<pdfrwt beam="2">  1       -2 0.57046387E-02 0.48839007E+03</pdfrwt>
<totfact> 0.18967001E+03</totfact>
</mgrwt>
</event>
<event>
 4    1  0.8362047E-005  0.5474904E+03  0.7818608E-02  0.1002076E+00
         -2   -1    0    0    0  501 -0.00000000000E+00  0.00000000000E+00  0.46860592010E+02  0.46860592079E+02  0.25500000000E-02 0. -1.
          2   -1    0    0  501    0  0.00000000000E+00 -0.00000000000E+00 -0.15991353643E+04  0.15991353643E+04  0.25500000000E-02 0.  1.
    5000001    1    1    2    0    0 -0.18406038554E+03 -0.60375336917E+02 -0.10795944346E+04  0.11091765189E+04  0.16500000000E+03 0.  0.
   -5000001    1    1    2    0    0  0.18406038554E+03  0.60375336917E+02 -0.47268033772E+03  0.53681943752E+03  0.16500000000E+03 0.  0.
<mgrwt>
<rscale>  0 0.54749038E+03</rscale>
<asrwt>0</asrwt>
<pdfrwt beam="1">  1        2 0.24602078E+00 0.54749038E+03</pdfrwt>
<pdfrwt beam="2">  1       -2 0.72093231E-02 0.54749038E+03</pdfrwt>
<totfact> 0.13259481E+03</totfact>
</mgrwt>
</event>
<event>
 4    1  0.8362047E-005  0.6002787E+03  0.7818608E-02  0.9904828E-01
          2   -1    0    0  501    0  0.00000000000E+00  0.00000000000E+00  0.17279998775E+03  0.17279998777E+03  0.25500000000E-02 0.  1.
         -2   -1    0    0    0  501 -0.00000000000E+00 -0.00000000000E+00 -0.52131731199E+03  0.52131731200E+03  0.25500000000E-02 0. -1.
    5000001    1    1    2    0    0  0.15431118811E+03 -0.19341155136E+03 -0.12745028345E+03  0.32355609363E+03  0.16500000000E+03 0.  0.
   -5000001    1    1    2    0    0 -0.15431118811E+03  0.19341155136E+03 -0.22106704079E+03  0.37056120614E+03  0.16500000000E+03 0.  0.
<mgrwt>
<rscale>  0 0.60027869E+03</rscale>
<asrwt>0</asrwt>
<pdfrwt beam="1">  1        2 0.26584614E-01 0.60027869E+03</pdfrwt>
<pdfrwt beam="2">  1       -2 0.80202663E-01 0.60027869E+03</pdfrwt>
<totfact> 0.28377862E+02</totfact>
</mgrwt>
</event>
<event>
 4    1  0.8362047E-005  0.4230966E+03  0.7818608E-02  0.1036063E+00
         -2   -1    0    0    0  501 -0.00000000000E+00  0.00000000000E+00  0.14027123347E+03  0.14027123350E+03  0.25500000000E-02 0. -1.
          2   -1    0    0  501    0  0.00000000000E+00 -0.00000000000E+00 -0.31904395152E+03  0.31904395153E+03  0.25500000000E-02 0.  1.
    5000001    1    1    2    0    0 -0.78755730427E+02  0.98922230237E+02 -0.46789513675E+02  0.21307822812E+03  0.16500000000E+03 0.  0.
   -5000001    1    1    2    0    0  0.78755730427E+02 -0.98922230237E+02 -0.13198320437E+03  0.24623695691E+03  0.16500000000E+03 0.  0.
<mgrwt>
<rscale>  0 0.42309663E+03</rscale>
<asrwt>0</asrwt>
<pdfrwt beam="1">  1        2 0.49083685E-01 0.42309663E+03</pdfrwt>
<pdfrwt beam="2">  1       -2 0.21580190E-01 0.42309663E+03</pdfrwt>
<totfact> 0.18964442E+03</totfact>
</mgrwt>
</event>
<event>
 4    1  0.8362047E-005  0.5917759E+03  0.7818608E-02  0.9922617E-01
         -2   -1    0    0    0  501 -0.00000000000E+00  0.00000000000E+00  0.28780491622E+03  0.28780491623E+03  0.25500000000E-02 0. -1.
          2   -1    0    0  501    0  0.00000000000E+00 -0.00000000000E+00 -0.30419799374E+03  0.30419799375E+03  0.25500000000E-02 0.  1.
    5000001    1    1    2    0    0 -0.54914926505E+02  0.21586084287E+03  0.95347396036E+02  0.29313423302E+03  0.16500000000E+03 0.  0.
   -5000001    1    1    2    0    0  0.54914926505E+02 -0.21586084287E+03 -0.11174047355E+03  0.29886867696E+03  0.16500000000E+03 0.  0.
<mgrwt>
<rscale>  0 0.59177590E+03</rscale>
<asrwt>0</asrwt>
<pdfrwt beam="1">  1        2 0.46799691E-01 0.59177590E+03</pdfrwt>
<pdfrwt beam="2">  1       -2 0.44277679E-01 0.59177590E+03</pdfrwt>
<totfact> 0.52710443E+02</totfact>
</mgrwt>
</event>
<event>
 4    1  0.8362047E-005  0.6483639E+03  0.7818608E-02  0.9809854E-01
         -2   -1    0    0    0  501 -0.00000000000E+00  0.00000000000E+00  0.24517335814E+03  0.24517335816E+03  0.25500000000E-02 0. -1.
          2   -1    0    0  501    0  0.00000000000E+00 -0.00000000000E+00 -0.42865157929E+03  0.42865157930E+03  0.25500000000E-02 0.  1.
    5000001    1    1    2    0    0 -0.12915505084E+02  0.23746463840E+03 -0.24346066686E+03  0.37822527820E+03  0.16500000000E+03 0.  0.
   -5000001    1    1    2    0    0  0.12915505084E+02 -0.23746463840E+03  0.59982445708E+02  0.29559965926E+03  0.16500000000E+03 0.  0.
<mgrwt>
<rscale>  0 0.64836393E+03</rscale>
<asrwt>0</asrwt>
<pdfrwt beam="1">  1        2 0.65946397E-01 0.64836393E+03</pdfrwt>
<pdfrwt beam="2">  1       -2 0.37718978E-01 0.64836393E+03</pdfrwt>
<totfact> 0.49131586E+02</totfact>
</mgrwt>
</event>
<event>
 4    1  0.8362047E-005  0.4181679E+03  0.7818608E-02  0.1037664E+00
         -2   -1    0    0    0  501 -0.00000000000E+00  0.00000000000E+00  0.38926470314E+02  0.38926470398E+02  0.25500000000E-02 0. -1.
          2   -1    0    0  501    0  0.00000000000E+00 -0.00000000000E+00 -0.11230431680E+04  0.11230431680E+04  0.25500000000E-02 0.  1.
    5000001    1    1    2    0    0  0.82529956894E+02 -0.20109725094E+02 -0.27444178704E+03  0.33129879158E+03  0.16500000000E+03 0.  0.
   -5000001    1    1    2    0    0 -0.82529956894E+02  0.20109725094E+02 -0.80967491062E+03  0.83067084680E+03  0.16500000000E+03 0.  0.
<mgrwt>
<rscale>  0 0.41816794E+03</rscale>
<asrwt>0</asrwt>
<pdfrwt beam="1">  1        2 0.17277585E+00 0.41816794E+03</pdfrwt>
<pdfrwt beam="2">  1       -2 0.59886886E-02 0.41816794E+03</pdfrwt>
<totfact> 0.32965834E+03</totfact>
</mgrwt>
</event>
<event>
 4    1  0.8362047E-005  0.5173707E+03  0.7818608E-02  0.1009342E+00
         -2   -1    0    0    0  501 -0.00000000000E+00  0.00000000000E+00  0.42248881702E+02  0.42248881779E+02  0.25500000000E-02 0. -1.
          2   -1    0    0  501    0  0.00000000000E+00 -0.00000000000E+00 -0.15839023196E+04  0.15839023196E+04  0.25500000000E-02 0.  1.
    5000001    1    1    2    0    0 -0.17532183426E+03 -0.11795557495E+02 -0.10659478845E+04  0.10928617356E+04  0.16500000000E+03 0.  0.
   -5000001    1    1    2    0    0  0.17532183426E+03  0.11795557495E+02 -0.47570555340E+03  0.53328946575E+03  0.16500000000E+03 0.  0.
<mgrwt>
<rscale>  0 0.51737067E+03</rscale>
<asrwt>0</asrwt>
<pdfrwt beam="1">  1        2 0.24367723E+00 0.51737067E+03</pdfrwt>
<pdfrwt beam="2">  1       -2 0.64998292E-02 0.51737067E+03</pdfrwt>
<totfact> 0.15930043E+03</totfact>
</mgrwt>
</event>
<event>
 4    1  0.8362047E-005  0.7452975E+03  0.7818608E-02  0.9642757E-01
         -2   -1    0    0    0  501 -0.00000000000E+00  0.00000000000E+00  0.15095583739E+03  0.15095583741E+03  0.25500000000E-02 0. -1.
          2   -1    0    0  501    0  0.00000000000E+00 -0.00000000000E+00 -0.91991876360E+03  0.91991876360E+03  0.25500000000E-02 0.  1.
    5000001    1    1    2    0    0  0.25132321635E+03 -0.20424473041E+03 -0.26632066091E+03  0.45058957312E+03  0.16500000000E+03 0.  0.
   -5000001    1    1    2    0    0 -0.25132321635E+03  0.20424473041E+03 -0.50264226530E+03  0.62028502790E+03  0.16500000000E+03 0.  0.
<mgrwt>
<rscale>  0 0.74529754E+03</rscale>
<asrwt>0</asrwt>
<pdfrwt beam="1">  1        2 0.14152596E+00 0.74529754E+03</pdfrwt>
<pdfrwt beam="2">  1       -2 0.23223976E-01 0.74529754E+03</pdfrwt>
<totfact> 0.46802726E+02</totfact>
</mgrwt>
</event>
<event>
 4    1  0.8362047E-005  0.4757664E+03  0.7818608E-02  0.1020305E+00
          2   -1    0    0  501    0  0.00000000000E+00  0.00000000000E+00  0.47828954460E+03  0.47828954461E+03  0.25500000000E-02 0.  1.
         -2   -1    0    0    0  501 -0.00000000000E+00 -0.00000000000E+00 -0.11831415338E+03  0.11831415341E+03  0.25500000000E-02 0. -1.
    5000001    1    1    2    0    0  0.11884214185E+03  0.13371601998E+02  0.33388162184E+03  0.39115750258E+03  0.16500000000E+03 0.  0.
   -5000001    1    1    2    0    0 -0.11884214185E+03 -0.13371601998E+02  0.26093769382E+02  0.20544619544E+03  0.16500000000E+03 0.  0.
<mgrwt>
<rscale>  0 0.47576642E+03</rscale>
<asrwt>0</asrwt>
<pdfrwt beam="1">  1        2 0.73583006E-01 0.47576642E+03</pdfrwt>
<pdfrwt beam="2">  1       -2 0.18202178E-01 0.47576642E+03</pdfrwt>
<totfact> 0.16262643E+03</totfact>
</mgrwt>
</event>
<event>
 4    1  0.8362047E-005  0.4928947E+03  0.7818608E-02  0.1015650E+00
          2   -1    0    0  501    0  0.00000000000E+00  0.00000000000E+00  0.19753164823E+03  0.19753164825E+03  0.25500000000E-02 0.  1.
         -2   -1    0    0    0  501 -0.00000000000E+00 -0.00000000000E+00 -0.30747623360E+03  0.30747623361E+03  0.25500000000E-02 0. -1.
    5000001    1    1    2    0    0 -0.11524858451E+02 -0.16031756947E+03  0.34797972237E+02  0.23296017753E+03  0.16500000000E+03 0.  0.
   -5000001    1    1    2    0    0  0.11524858451E+02  0.16031756947E+03 -0.14474255761E+03  0.27204770432E+03  0.16500000000E+03 0.  0.
<mgrwt>
<rscale>  0 0.49289466E+03</rscale>
<asrwt>0</asrwt>
<pdfrwt beam="1">  1        2 0.30389484E-01 0.49289466E+03</pdfrwt>
<pdfrwt beam="2">  1       -2 0.47304036E-01 0.49289466E+03</pdfrwt>
<totfact> 0.74640118E+02</totfact>
</mgrwt>
</event>
<event>
 4    1  0.8362047E-005  0.9005002E+03  0.7818608E-02  0.9424956E-01
          2   -1    0    0  501    0  0.00000000000E+00  0.00000000000E+00  0.64537272046E+03  0.64537272047E+03  0.25500000000E-02 0.  1.
         -2   -1    0    0    0  501 -0.00000000000E+00 -0.00000000000E+00 -0.31412107725E+03  0.31412107726E+03  0.25500000000E-02 0. -1.
    5000001    1    1    2    0    0  0.27271270743E+03  0.12708157838E+03  0.47623348375E+03  0.58697979471E+03  0.16500000000E+03 0.  0.
   -5000001    1    1    2    0    0 -0.27271270743E+03 -0.12708157838E+03 -0.14498184054E+03  0.37251400302E+03  0.16500000000E+03 0.  0.
<mgrwt>
<rscale>  0 0.90050025E+03</rscale>
<asrwt>0</asrwt>
<pdfrwt beam="1">  1        2 0.99288109E-01 0.90050025E+03</pdfrwt>
<pdfrwt beam="2">  1       -2 0.48326321E-01 0.90050025E+03</pdfrwt>
<totfact> 0.18456666E+02</totfact>
</mgrwt>
</event>
<event>
 4    1  0.8362047E-005  0.3938611E+03  0.7818608E-02  0.1045926E+00
          2   -1    0    0  501    0  0.00000000000E+00  0.00000000000E+00  0.21261919833E+04  0.21261919833E+04  0.25500000000E-02 0.  1.
         -2   -1    0    0    0  501 -0.00000000000E+00 -0.00000000000E+00 -0.18239949270E+02  0.18239949448E+02  0.25500000000E-02 0. -1.
    5000001    1    1    2    0    0 -0.67392136802E+01 -0.10720349207E+03  0.10304766087E+04  0.10491163171E+04  0.16500000000E+03 0.  0.
   -5000001    1    1    2    0    0  0.67392136802E+01  0.10720349207E+03  0.10774754253E+04  0.10953156156E+04  0.16500000000E+03 0.  0.
<mgrwt>
<rscale>  0 0.39386106E+03</rscale>
<asrwt>0</asrwt>
<pdfrwt beam="1">  1        2 0.32710624E+00 0.39386106E+03</pdfrwt>
<pdfrwt beam="2">  1       -2 0.28061479E-02 0.39386106E+03</pdfrwt>
<totfact> 0.29652713E+03</totfact>
</mgrwt>
</event>
<event>
 4    1  0.8362047E-005  0.3773392E+03  0.7818608E-02  0.1051922E+00
         -2   -1    0    0    0  501 -0.00000000000E+00  0.00000000000E+00  0.19649029328E+02  0.19649029494E+02  0.25500000000E-02 0. -1.
          2   -1    0    0  501    0  0.00000000000E+00 -0.00000000000E+00 -0.18116016412E+04  0.18116016412E+04  0.25500000000E-02 0.  1.
    5000001    1    1    2    0    0 -0.69375797885E+01  0.89990068477E+02 -0.96875145424E+03  0.98683875204E+03  0.16500000000E+03 0.  0.
   -5000001    1    1    2    0    0  0.69375797885E+01 -0.89990068477E+02 -0.82320115759E+03  0.84441191862E+03  0.16500000000E+03 0.  0.
<mgrwt>
<rscale>  0 0.37733918E+03</rscale>
<asrwt>0</asrwt>
<pdfrwt beam="1">  1        2 0.27870781E+00 0.37733918E+03</pdfrwt>
<pdfrwt beam="2">  1       -2 0.30229290E-02 0.37733918E+03</pdfrwt>
<totfact> 0.39037086E+03</totfact>
</mgrwt>
</event>
<event>
 4    1  0.8362047E-005  0.4288133E+03  0.7818608E-02  0.1034235E+00
          2   -1    0    0  501    0  0.00000000000E+00  0.00000000000E+00  0.12919610481E+04  0.12919610481E+04  0.25500000000E-02 0.  1.
         -2   -1    0    0    0  501 -0.00000000000E+00 -0.00000000000E+00 -0.35581735432E+02  0.35581735523E+02  0.25500000000E-02 0. -1.
    5000001    1    1    2    0    0 -0.21227595864E+02  0.13386954178E+03  0.68802466214E+03  0.72039891779E+03  0.16500000000E+03 0.  0.
   -5000001    1    1    2    0    0  0.21227595864E+02 -0.13386954178E+03  0.56835465050E+03  0.60714386581E+03  0.16500000000E+03 0.  0.
<mgrwt>
<rscale>  0 0.42881332E+03</rscale>
<asrwt>0</asrwt>
<pdfrwt beam="1">  1        2 0.19876323E+00 0.42881332E+03</pdfrwt>
<pdfrwt beam="2">  1       -2 0.54741134E-02 0.42881332E+03</pdfrwt>
<totfact> 0.30255625E+03</totfact>
</mgrwt>
</event>
<event>
 4    1  0.8362047E-005  0.7084137E+03  0.7818608E-02  0.9702951E-01
         -2   -1    0    0    0  501 -0.00000000000E+00  0.00000000000E+00  0.33585429128E+03  0.33585429129E+03  0.25500000000E-02 0. -1.
          2   -1    0    0  501    0  0.00000000000E+00 -0.00000000000E+00 -0.37356227054E+03  0.37356227055E+03  0.25500000000E-02 0.  1.
    5000001    1    1    2    0    0  0.16020967694E+03  0.17229571560E+03 -0.22623297170E+03  0.36573120141E+03  0.16500000000E+03 0.  0.
   -5000001    1    1    2    0    0 -0.16020967694E+03 -0.17229571560E+03  0.18852499244E+03  0.34368536043E+03  0.16500000000E+03 0.  0.
<mgrwt>
<rscale>  0 0.70841370E+03</rscale>
<asrwt>0</asrwt>
<pdfrwt beam="1">  1        2 0.57471119E-01 0.70841370E+03</pdfrwt>
<pdfrwt beam="2">  1       -2 0.51669891E-01 0.70841370E+03</pdfrwt>
<totfact> 0.30666446E+02</totfact>
</mgrwt>
</event>
<event>
 4    1  0.8362047E-005  0.1586887E+04  0.7818608E-02  0.8828644E-01
          2   -1    0    0  501    0  0.00000000000E+00  0.00000000000E+00  0.26108504707E+04  0.26108504707E+04  0.25500000000E-02 0.  1.
         -2   -1    0    0    0  501 -0.00000000000E+00 -0.00000000000E+00 -0.24112943770E+03  0.24112943772E+03  0.25500000000E-02 0. -1.
    5000001    1    1    2    0    0  0.48130284037E+03 -0.51455625466E+03  0.59998507638E+03  0.94001471012E+03  0.16500000000E+03 0.  0.
   -5000001    1    1    2    0    0 -0.48130284037E+03  0.51455625466E+03  0.17697359567E+04  0.19119651983E+04  0.16500000000E+03 0.  0.
<mgrwt>
<rscale>  0 0.15868874E+04</rscale>
<asrwt>0</asrwt>
<pdfrwt beam="1">  1        2 0.40166927E+00 0.15868874E+04</pdfrwt>
<pdfrwt beam="2">  1       -2 0.37096840E-01 0.15868874E+04</pdfrwt>
<totfact> 0.19773040E+01</totfact>
</mgrwt>
</event>
<event>
 4    1  0.8362047E-005  0.7531897E+03  0.7818608E-02  0.9630359E-01
          2   -1    0    0  501    0  0.00000000000E+00  0.00000000000E+00  0.46481075430E+03  0.46481075431E+03  0.25500000000E-02 0.  1.
         -2   -1    0    0    0  501 -0.00000000000E+00 -0.00000000000E+00 -0.30512135528E+03  0.30512135529E+03  0.25500000000E-02 0. -1.
    5000001    1    1    2    0    0  0.21104337484E+03  0.24968082316E+03  0.16965473154E+03  0.40359329461E+03  0.16500000000E+03 0.  0.
   -5000001    1    1    2    0    0 -0.21104337484E+03 -0.24968082316E+03 -0.99653325160E+01  0.36633881499E+03  0.16500000000E+03 0.  0.
<mgrwt>
<rscale>  0 0.75318972E+03</rscale>
<asrwt>0</asrwt>
<pdfrwt beam="1">  1        2 0.71509347E-01 0.75318972E+03</pdfrwt>
<pdfrwt beam="2">  1       -2 0.46941747E-01 0.75318972E+03</pdfrwt>
<totfact> 0.29057473E+02</totfact>
</mgrwt>
</event>
<event>
 4    1  0.8362047E-005  0.5487038E+03  0.7818608E-02  0.1001794E+00
         -2   -1    0    0    0  501 -0.00000000000E+00  0.00000000000E+00  0.20462375995E+03  0.20462375997E+03  0.25500000000E-02 0. -1.
          2   -1    0    0  501    0  0.00000000000E+00 -0.00000000000E+00 -0.36784076718E+03  0.36784076719E+03  0.25500000000E-02 0.  1.
    5000001    1    1    2    0    0  0.48290671300E+02 -0.19350007069E+03  0.13267276420E+02  0.25918195715E+03  0.16500000000E+03 0.  0.
   -5000001    1    1    2    0    0 -0.48290671300E+02  0.19350007069E+03 -0.17648428365E+03  0.31328257000E+03  0.16500000000E+03 0.  0.
<mgrwt>
<rscale>  0 0.54870378E+03</rscale>
<asrwt>0</asrwt>
<pdfrwt beam="1">  1        2 0.56590887E-01 0.54870378E+03</pdfrwt>
<pdfrwt beam="2">  1       -2 0.31480579E-01 0.54870378E+03</pdfrwt>
<totfact> 0.82202022E+02</totfact>
</mgrwt>
</event>
<event>
 4    1  0.8362047E-005  0.3565777E+03  0.7818608E-02  0.1059947E+00
         -2   -1    0    0    0  501 -0.00000000000E+00  0.00000000000E+00  0.14929539531E+02  0.14929539748E+02  0.25500000000E-02 0. -1.
          2   -1    0    0  501    0  0.00000000000E+00 -0.00000000000E+00 -0.21291289165E+04  0.21291289165E+04  0.25500000000E-02 0.  1.
    5000001    1    1    2    0    0  0.57924614048E+01 -0.62043363593E+02 -0.12137790830E+04  0.12265266380E+04  0.16500000000E+03 0.  0.
   -5000001    1    1    2    0    0 -0.57924614048E+01  0.62043363593E+02 -0.90042029401E+03  0.91753181822E+03  0.16500000000E+03 0.  0.
<mgrwt>
<rscale>  0 0.35657770E+03</rscale>
<asrwt>0</asrwt>
<pdfrwt beam="1">  1        2 0.32755805E+00 0.35657770E+03</pdfrwt>
<pdfrwt beam="2">  1       -2 0.22968539E-02 0.35657770E+03</pdfrwt>
<totfact> 0.39914522E+03</totfact>
</mgrwt>
</event>
<event>
 4    1  0.8362047E-005  0.3785784E+03  0.7818608E-02  0.1051460E+00
         -2   -1    0    0    0  501 -0.00000000000E+00  0.00000000000E+00  0.11499915100E+03  0.11499915103E+03  0.25500000000E-02 0.  1.
          2   -1    0    0  501    0  0.00000000000E+00 -0.00000000000E+00 -0.31157107208E+03  0.31157107209E+03  0.25500000000E-02 0. -1.
    5000001    1    1    2    0    0 -0.89167552030E+02  0.10739084235E+02 -0.72120939910E+02  0.20122775713E+03  0.16500000000E+03 0.  0.
   -5000001    1    1    2    0    0  0.89167552030E+02 -0.10739084235E+02 -0.12445098117E+03  0.22534246599E+03  0.16500000000E+03 0.  0.
<mgrwt>
<rscale>  0 0.37857844E+03</rscale>
<asrwt>0</asrwt>
<pdfrwt beam="1">  1        2 0.47934011E-01 0.37857844E+03</pdfrwt>
<pdfrwt beam="2">  1       -2 0.17692177E-01 0.37857844E+03</pdfrwt>
<totfact> 0.27354814E+03</totfact>
</mgrwt>
</event>
<event>
 4    1  0.8362047E-005  0.3996552E+03  0.7818608E-02  0.1043899E+00
          2   -1    0    0  501    0  0.00000000000E+00  0.00000000000E+00  0.10192573406E+04  0.10192573406E+04  0.25500000000E-02 0.  1.
         -2   -1    0    0    0  501 -0.00000000000E+00 -0.00000000000E+00 -0.39176637440E+02  0.39176637523E+02  0.25500000000E-02 0. -1.
    5000001    1    1    2    0    0 -0.10724639229E+03 -0.32004893034E+02  0.45451138650E+03  0.49631814625E+03  0.16500000000E+03 0.  0.
   -5000001    1    1    2    0    0  0.10724639229E+03  0.32004893034E+02  0.52556931670E+03  0.56211583192E+03  0.16500000000E+03 0.  0.
<mgrwt>
<rscale>  0 0.39965523E+03</rscale>
<asrwt>0</asrwt>
<pdfrwt beam="1">  1        2 0.15680883E+00 0.39965523E+03</pdfrwt>
<pdfrwt beam="2">  1       -2 0.60271747E-02 0.39965523E+03</pdfrwt>
<totfact> 0.37706409E+03</totfact>
</mgrwt>
</event>
<event>
 4    1  0.8362047E-005  0.7439282E+03  0.7818608E-02  0.9644924E-01
         -2   -1    0    0    0  501 -0.00000000000E+00  0.00000000000E+00  0.94226935096E+02  0.94226935131E+02  0.25500000000E-02 0. -1.
          2   -1    0    0  501    0  0.00000000000E+00 -0.00000000000E+00 -0.14683412111E+04  0.14683412111E+04  0.25500000000E-02 0.  1.
    5000001    1    1    2    0    0 -0.39708424519E+02 -0.25698094036E+03 -0.11252184940E+04  0.11666008837E+04  0.16500000000E+03 0.  0.
   -5000001    1    1    2    0    0  0.39708424519E+02  0.25698094036E+03 -0.24889578204E+03  0.39596726254E+03  0.16500000000E+03 0.  0.
<mgrwt>
<rscale>  0 0.74392820E+03</rscale>
<asrwt>0</asrwt>
<pdfrwt beam="1">  1        2 0.22589863E+00 0.74392820E+03</pdfrwt>
<pdfrwt beam="2">  1       -2 0.14496453E-01 0.74392820E+03</pdfrwt>
<totfact> 0.49698192E+02</totfact>
</mgrwt>
</event>
<event>
 4    1  0.8362047E-005  0.4603631E+03  0.7818608E-02  0.1024676E+00
          2   -1    0    0  501    0  0.00000000000E+00  0.00000000000E+00  0.71383876738E+02  0.71383876784E+02  0.25500000000E-02 0. -1.
         -2   -1    0    0    0  501 -0.00000000000E+00 -0.00000000000E+00 -0.74223405238E+03  0.74223405239E+03  0.25500000000E-02 0.  1.
    5000001    1    1    2    0    0  0.53666748833E+02  0.13543093131E+03 -0.21638342214E+03  0.30865586413E+03  0.16500000000E+03 0.  0.
   -5000001    1    1    2    0    0 -0.53666748833E+02 -0.13543093131E+03 -0.45446675351E+03  0.50496206504E+03  0.16500000000E+03 0.  0.
<mgrwt>
<rscale>  0 0.46036309E+03</rscale>
<asrwt>0</asrwt>
<pdfrwt beam="1">  1        2 0.10982135E-01 0.46036309E+03</pdfrwt>
<pdfrwt beam="2">  1       -2 0.11418985E+00 0.46036309E+03</pdfrwt>
<totfact> 0.35820923E+02</totfact>
</mgrwt>
</event>
<event>
 4    1  0.8362047E-005  0.4563317E+03  0.7818608E-02  0.1025851E+00
         -2   -1    0    0    0  501 -0.00000000000E+00  0.00000000000E+00  0.30583141221E+02  0.30583141328E+02  0.25500000000E-02 0. -1.
          2   -1    0    0  501    0  0.00000000000E+00 -0.00000000000E+00 -0.17022339706E+04  0.17022339706E+04  0.25500000000E-02 0.  1.
    5000001    1    1    2    0    0  0.12945817089E+03 -0.89855554215E+02 -0.83162538914E+03  0.86235678608E+03  0.16500000000E+03 0.  0.
   -5000001    1    1    2    0    0 -0.12945817089E+03  0.89855554215E+02 -0.84002544028E+03  0.87046032589E+03  0.16500000000E+03 0.  0.
<mgrwt>
<rscale>  0 0.45633173E+03</rscale>
<asrwt>0</asrwt>
<pdfrwt beam="1">  1        2 0.26188208E+00 0.45633173E+03</pdfrwt>
<pdfrwt beam="2">  1       -2 0.47051000E-02 0.45633173E+03</pdfrwt>
<totfact> 0.22753217E+03</totfact>
</mgrwt>
</event>
<event>
 4    1  0.8362047E-005  0.4548729E+03  0.7818608E-02  0.1026279E+00
         -2   -1    0    0    0  501 -0.00000000000E+00  0.00000000000E+00  0.14209963346E+03  0.14209963348E+03  0.25500000000E-02 0. -1.
          2   -1    0    0  501    0  0.00000000000E+00 -0.00000000000E+00 -0.36402159053E+03  0.36402159054E+03  0.25500000000E-02 0.  1.
    5000001    1    1    2    0    0 -0.26318823583E+01 -0.15160877486E+03 -0.15420040178E+03  0.27202005685E+03  0.16500000000E+03 0.  0.
   -5000001    1    1    2    0    0  0.26318823583E+01  0.15160877486E+03 -0.67721555297E+02  0.23410116717E+03  0.16500000000E+03 0.  0.
<mgrwt>
<rscale>  0 0.45487288E+03</rscale>
<asrwt>0</asrwt>
<pdfrwt beam="1">  1        2 0.56003321E-01 0.45487288E+03</pdfrwt>
<pdfrwt beam="2">  1       -2 0.21861482E-01 0.45487288E+03</pdfrwt>
<totfact> 0.16050836E+03</totfact>
</mgrwt>
</event>
<event>
 4    1  0.8362047E-005  0.6664367E+03  0.7818608E-02  0.9776417E-01
          2   -1    0    0  501    0  0.00000000000E+00  0.00000000000E+00  0.61597895202E+03  0.61597895203E+03  0.25500000000E-02 0.  1.
         -2   -1    0    0    0  501 -0.00000000000E+00 -0.00000000000E+00 -0.18025689713E+03  0.18025689715E+03  0.25500000000E-02 0. -1.
    5000001    1    1    2    0    0 -0.13738745578E+03  0.62978047344E+02 -0.77146768686E+02  0.23668158224E+03  0.16500000000E+03 0.  0.
   -5000001    1    1    2    0    0  0.13738745578E+03 -0.62978047344E+02  0.51286882358E+03  0.55955426694E+03  0.16500000000E+03 0.  0.
<mgrwt>
<rscale>  0 0.66643666E+03</rscale>
<asrwt>0</asrwt>
<pdfrwt beam="1">  1        2 0.94765993E-01 0.66643666E+03</pdfrwt>
<pdfrwt beam="2">  1       -2 0.27731830E-01 0.66643666E+03</pdfrwt>
<totfact> 0.57314853E+02</totfact>
</mgrwt>
</event>
<event>
 4    1  0.8362047E-005  0.1389768E+04  0.7818608E-02  0.8961259E-01
          2   -1    0    0  501    0  0.00000000000E+00  0.00000000000E+00  0.11855079546E+04  0.11855079546E+04  0.25500000000E-02 0.  1.
         -2   -1    0    0    0  501 -0.00000000000E+00 -0.00000000000E+00 -0.40730529310E+03  0.40730529311E+03  0.25500000000E-02 0. -1.
    5000001    1    1    2    0    0 -0.54221213975E+03 -0.21878446267E+03  0.77569237140E+03  0.98528386805E+03  0.16500000000E+03 0.  0.
   -5000001    1    1    2    0    0  0.54221213975E+03  0.21878446267E+03  0.25102900980E+01  0.60752937966E+03  0.16500000000E+03 0.  0.
<mgrwt>
<rscale>  0 0.13897678E+04</rscale>
<asrwt>0</asrwt>
<pdfrwt beam="1">  1        2 0.18238583E+00 0.13897678E+04</pdfrwt>
<pdfrwt beam="2">  1       -2 0.62662355E-01 0.13897678E+04</pdfrwt>
<totfact> 0.44449412E+01</totfact>
</mgrwt>
</event>
<event>
 4    1  0.8362047E-005  0.4505303E+03  0.7818608E-02  0.1027564E+00
          2   -1    0    0  501    0  0.00000000000E+00  0.00000000000E+00  0.96459201182E+03  0.96459201183E+03  0.25500000000E-02 0.  1.
         -2   -1    0    0    0  501 -0.00000000000E+00 -0.00000000000E+00 -0.52607104030E+02  0.52607104092E+02  0.25500000000E-02 0. -1.
    5000001    1    1    2    0    0 -0.10954345414E+03  0.63309085486E+02  0.26031188352E+03  0.33315924924E+03  0.16500000000E+03 0.  0.
   -5000001    1    1    2    0    0  0.10954345414E+03 -0.63309085486E+02  0.65167302427E+03  0.68403986668E+03  0.16500000000E+03 0.  0.
<mgrwt>
<rscale>  0 0.45053032E+03</rscale>
<asrwt>0</asrwt>
<pdfrwt beam="1">  1        2 0.14839877E+00 0.45053032E+03</pdfrwt>
<pdfrwt beam="2">  1       -2 0.80934009E-02 0.45053032E+03</pdfrwt>
<totfact> 0.25716251E+03</totfact>
</mgrwt>
</event>
<event>
 4    1  0.8362047E-005  0.1214551E+04  0.7818608E-02  0.9100215E-01
          2   -1    0    0  501    0  0.00000000000E+00  0.00000000000E+00  0.24118568790E+04  0.24118568790E+04  0.25500000000E-02 0.  1.
         -2   -1    0    0    0  501 -0.00000000000E+00 -0.00000000000E+00 -0.15290431526E+03  0.15290431529E+03  0.25500000000E-02 0. -1.
    5000001    1    1    2    0    0  0.26393422238E+03  0.51099995765E+03  0.13486871033E+04  0.14754538736E+04  0.16500000000E+03 0.  0.
   -5000001    1    1    2    0    0 -0.26393422238E+03 -0.51099995765E+03  0.91026546039E+03  0.10893073207E+04  0.16500000000E+03 0.  0.
<mgrwt>
<rscale>  0 0.12145507E+04</rscale>
<asrwt>0</asrwt>
<pdfrwt beam="1">  1        2 0.37105490E+00 0.12145507E+04</pdfrwt>
<pdfrwt beam="2">  1       -2 0.23523741E-01 0.12145507E+04</pdfrwt>
<totfact> 0.62099693E+01</totfact>
</mgrwt>
</event>
<event>
 4    1  0.8362047E-005  0.6239994E+03  0.7818608E-02  0.9856829E-01
          2   -1    0    0  501    0  0.00000000000E+00  0.00000000000E+00  0.26113047075E+04  0.26113047075E+04  0.25500000000E-02 0.  1.
         -2   -1    0    0    0  501 -0.00000000000E+00 -0.00000000000E+00 -0.37277839575E+02  0.37277839663E+02  0.25500000000E-02 0. -1.
    5000001    1    1    2    0    0 -0.24253620605E+03  0.96907502096E+02  0.14722190066E+04  0.15042834436E+04  0.16500000000E+03 0.  0.
   -5000001    1    1    2    0    0  0.24253620605E+03 -0.96907502096E+02  0.11018078613E+04  0.11442991036E+04  0.16500000000E+03 0.  0.
<mgrwt>
<rscale>  0 0.62399935E+03</rscale>
<asrwt>0</asrwt>
<pdfrwt beam="1">  1        2 0.40173927E+00 0.62399935E+03</pdfrwt>
<pdfrwt beam="2">  1       -2 0.57350511E-02 0.62399935E+03</pdfrwt>
<totfact> 0.52623854E+02</totfact>
</mgrwt>
</event>
<event>
 4    1  0.8362047E-005  0.6620088E+03  0.7818608E-02  0.9784503E-01
          2   -1    0    0  501    0  0.00000000000E+00  0.00000000000E+00  0.38249651543E+03  0.38249651544E+03  0.25500000000E-02 0. -1.
         -2   -1    0    0    0  501 -0.00000000000E+00 -0.00000000000E+00 -0.28644424713E+03  0.28644424714E+03  0.25500000000E-02 0.  1.
    5000001    1    1    2    0    0  0.25147013309E+03  0.91210348908E+02 -0.56899355189E+02  0.31940427706E+03  0.16500000000E+03 0.  0.
   -5000001    1    1    2    0    0 -0.25147013309E+03 -0.91210348908E+02  0.15295162349E+03  0.34953648552E+03  0.16500000000E+03 0.  0.
<mgrwt>
<rscale>  0 0.66200884E+03</rscale>
<asrwt>0</asrwt>
<pdfrwt beam="1">  1        2 0.58845618E-01 0.66200884E+03</pdfrwt>
<pdfrwt beam="2">  1       -2 0.44068346E-01 0.66200884E+03</pdfrwt>
<totfact> 0.41198191E+02</totfact>
</mgrwt>
</event>
<event>
 4    1  0.8362047E-005  0.8317530E+03  0.7818608E-02  0.9515160E-01
         -2   -1    0    0    0  501 -0.00000000000E+00  0.00000000000E+00  0.20260961323E+03  0.20260961324E+03  0.25500000000E-02 0. -1.
          2   -1    0    0  501    0  0.00000000000E+00 -0.00000000000E+00 -0.85362819668E+03  0.85362819668E+03  0.25500000000E-02 0.  1.
    5000001    1    1    2    0    0  0.10137593311E+03 -0.29065623575E+03 -0.38810886683E+02  0.35141060331E+03  0.16500000000E+03 0.  0.
   -5000001    1    1    2    0    0 -0.10137593311E+03  0.29065623575E+03 -0.61220769677E+03  0.70482720661E+03  0.16500000000E+03 0.  0.
<mgrwt>
<rscale>  0 0.83175304E+03</rscale>
<asrwt>0</asrwt>
<pdfrwt beam="1">  1        2 0.13132741E+00 0.83175304E+03</pdfrwt>
<pdfrwt beam="2">  1       -2 0.31170710E-01 0.83175304E+03</pdfrwt>
<totfact> 0.30224913E+02</totfact>
</mgrwt>
</event>
<event>
 4    1  0.8362047E-005  0.4165258E+03  0.7818608E-02  0.1038203E+00
          2   -1    0    0  501    0  0.00000000000E+00  0.00000000000E+00  0.22210018044E+02  0.22210018190E+02  0.25500000000E-02 0.  1.
         -2   -1    0    0    0  501 -0.00000000000E+00 -0.00000000000E+00 -0.19528771990E+04  0.19528771990E+04  0.25500000000E-02 0. -1.
    5000001    1    1    2    0    0 -0.84817738748E+02  0.75834821012E+02 -0.69695082255E+03  0.72519681324E+03  0.16500000000E+03 0.  0.
   -5000001    1    1    2    0    0  0.84817738748E+02 -0.75834821012E+02 -0.12337163584E+04  0.12498904039E+04  0.16500000000E+03 0.  0.
<mgrwt>
<rscale>  0 0.41652581E+03</rscale>
<asrwt>0</asrwt>
<pdfrwt beam="1">  1        2 0.34169274E-02 0.41652581E+03</pdfrwt>
<pdfrwt beam="2">  1       -2 0.30044251E+00 0.41652581E+03</pdfrwt>
<totfact> 0.94126587E+01</totfact>
</mgrwt>
</event>
<event>
 4    1  0.8362047E-005  0.6217624E+03  0.7818608E-02  0.9861257E-01
          2   -1    0    0  501    0  0.00000000000E+00  0.00000000000E+00  0.12489552984E+04  0.12489552984E+04  0.25500000000E-02 0. -1.
         -2   -1    0    0    0  501 -0.00000000000E+00 -0.00000000000E+00 -0.77382369753E+02  0.77382369795E+02  0.25500000000E-02 0.  1.
    5000001    1    1    2    0    0  0.14732941073E+03  0.11329522457E+03  0.18738574659E+03  0.31125581313E+03  0.16500000000E+03 0.  0.
   -5000001    1    1    2    0    0 -0.14732941073E+03 -0.11329522457E+03  0.98418718209E+03  0.10150818551E+04  0.16500000000E+03 0.  0.
<mgrwt>
<rscale>  0 0.62176240E+03</rscale>
<asrwt>0</asrwt>
<pdfrwt beam="1">  1        2 0.19214694E+00 0.62176240E+03</pdfrwt>
<pdfrwt beam="2">  1       -2 0.11904982E-01 0.62176240E+03</pdfrwt>
<totfact> 0.92472229E+02</totfact>
</mgrwt>
</event>
<event>
 4    1  0.8362047E-005  0.5415484E+03  0.7818608E-02  0.1003469E+00
         -2   -1    0    0    0  501 -0.00000000000E+00  0.00000000000E+00  0.12794244041E+03  0.12794244043E+03  0.25500000000E-02 0.  1.
          2   -1    0    0  501    0  0.00000000000E+00 -0.00000000000E+00 -0.57305968426E+03  0.57305968427E+03  0.25500000000E-02 0. -1.
    5000001    1    1    2    0    0 -0.11597138753E+03 -0.87051850660E+02 -0.17618529954E+02  0.22036968945E+03  0.16500000000E+03 0.  0.
   -5000001    1    1    2    0    0  0.11597138753E+03  0.87051850660E+02 -0.42749871390E+03  0.48063243525E+03  0.16500000000E+03 0.  0.
<mgrwt>
<rscale>  0 0.54154835E+03</rscale>
<asrwt>0</asrwt>
<pdfrwt beam="1">  1        2 0.88163027E-01 0.54154835E+03</pdfrwt>
<pdfrwt beam="2">  1       -2 0.19683453E-01 0.54154835E+03</pdfrwt>
<totfact> 0.11528906E+03</totfact>
</mgrwt>
</event>
<event>
 4    1  0.8362047E-005  0.4330402E+03  0.7818608E-02  0.1032904E+00
         -2   -1    0    0    0  501 -0.00000000000E+00  0.00000000000E+00  0.17678806051E+03  0.17678806053E+03  0.25500000000E-02 0. -1.
          2   -1    0    0  501    0  0.00000000000E+00 -0.00000000000E+00 -0.26518170482E+03  0.26518170484E+03  0.25500000000E-02 0.  1.
    5000001    1    1    2    0    0 -0.39656663504E+02 -0.11709505532E+03 -0.11168181334E+03  0.23448183378E+03  0.16500000000E+03 0.  0.
   -5000001    1    1    2    0    0  0.39656663504E+02  0.11709505532E+03  0.23288169029E+02  0.20748793159E+03  0.16500000000E+03 0.  0.
<mgrwt>
<rscale>  0 0.43304023E+03</rscale>
<asrwt>0</asrwt>
<pdfrwt beam="1">  1        2 0.40797185E-01 0.43304023E+03</pdfrwt>
<pdfrwt beam="2">  1       -2 0.27198163E-01 0.43304023E+03</pdfrwt>
<totfact> 0.15395402E+03</totfact>
</mgrwt>
</event>
<event>
 4    1  0.8362047E-005  0.3782741E+03  0.7818608E-02  0.1051574E+00
         -2   -1    0    0    0  501 -0.00000000000E+00  0.00000000000E+00  0.10088330199E+03  0.10088330202E+03  0.25500000000E-02 0. -1.
          2   -1    0    0  501    0  0.00000000000E+00 -0.00000000000E+00 -0.35459604891E+03  0.35459604892E+03  0.25500000000E-02 0.  1.
    5000001    1    1    2    0    0  0.32801589593E+02  0.51131489841E+02 -0.21077650031E+03  0.27448516648E+03  0.16500000000E+03 0.  0.
   -5000001    1    1    2    0    0 -0.32801589593E+02 -0.51131489841E+02 -0.42936246607E+02  0.18099418445E+03  0.16500000000E+03 0.  0.
<mgrwt>
<rscale>  0 0.37827408E+03</rscale>
<asrwt>0</asrwt>
<pdfrwt beam="1">  1        2 0.54553238E-01 0.37827408E+03</pdfrwt>
<pdfrwt beam="2">  1       -2 0.15520508E-01 0.37827408E+03</pdfrwt>
<totfact> 0.29619056E+03</totfact>
</mgrwt>
</event>
<event>
 4    1  0.8362047E-005  0.7034624E+03  0.7818608E-02  0.9711329E-01
         -2   -1    0    0    0  501 -0.00000000000E+00  0.00000000000E+00  0.95465245319E+03  0.95465245319E+03  0.25500000000E-02 0. -1.
          2   -1    0    0  501    0  0.00000000000E+00 -0.00000000000E+00 -0.12959148201E+03  0.12959148204E+03  0.25500000000E-02 0.  1.
    5000001    1    1    2    0    0 -0.32162119330E+02 -0.30597764021E+03  0.34654017720E+03  0.49190630474E+03  0.16500000000E+03 0.  0.
   -5000001    1    1    2    0    0  0.32162119330E+02  0.30597764021E+03  0.47852079398E+03  0.59233763049E+03  0.16500000000E+03 0.  0.
<mgrwt>
<rscale>  0 0.70346237E+03</rscale>
<asrwt>0</asrwt>
<pdfrwt beam="1">  1        2 0.19937151E-01 0.70346237E+03</pdfrwt>
<pdfrwt beam="2">  1       -2 0.14686961E+00 0.70346237E+03</pdfrwt>
<totfact> 0.91504363E+01</totfact>
</mgrwt>
</event>
<event>
 4    1  0.8362047E-005  0.4232421E+03  0.7818608E-02  0.1036016E+00
         -2   -1    0    0    0  501 -0.00000000000E+00  0.00000000000E+00  0.34366294179E+02  0.34366294274E+02  0.25500000000E-02 0. -1.
          2   -1    0    0  501    0  0.00000000000E+00 -0.00000000000E+00 -0.13031219493E+04  0.13031219493E+04  0.25500000000E-02 0.  1.
    5000001    1    1    2    0    0 -0.12768332899E+03 -0.29351293415E+02 -0.69709939551E+03  0.72824247208E+03  0.16500000000E+03 0.  0.
   -5000001    1    1    2    0    0  0.12768332899E+03  0.29351293415E+02 -0.57165625959E+03  0.60924577147E+03  0.16500000000E+03 0.  0.
<mgrwt>
<rscale>  0 0.42324212E+03</rscale>
<asrwt>0</asrwt>
<pdfrwt beam="1">  1        2 0.20048026E+00 0.42324212E+03</pdfrwt>
<pdfrwt beam="2">  1       -2 0.52871232E-02 0.42324212E+03</pdfrwt>
<totfact> 0.31465105E+03</totfact>
</mgrwt>
</event>
<event>
 4    1  0.8362047E-005  0.4714425E+03  0.7818608E-02  0.1021514E+00
          2   -1    0    0  501    0  0.00000000000E+00  0.00000000000E+00  0.17399096005E+04  0.17399096005E+04  0.25500000000E-02 0. -1.
         -2   -1    0    0    0  501 -0.00000000000E+00 -0.00000000000E+00 -0.31935287514E+02  0.31935287616E+02  0.25500000000E-02 0.  1.
    5000001    1    1    2    0    0 -0.12170572090E+03 -0.11429250825E+03  0.77299031921E+03  0.80784534010E+03  0.16500000000E+03 0.  0.
   -5000001    1    1    2    0    0  0.12170572090E+03  0.11429250825E+03  0.93498399376E+03  0.96399954800E+03  0.16500000000E+03 0.  0.
<mgrwt>
<rscale>  0 0.47144252E+03</rscale>
<asrwt>0</asrwt>
<pdfrwt beam="1">  1        2 0.26767853E+00 0.47144252E+03</pdfrwt>
<pdfrwt beam="2">  1       -2 0.49131188E-02 0.47144252E+03</pdfrwt>
<totfact> 0.20305886E+03</totfact>
</mgrwt>
</event>
<event>
 4    1  0.8362047E-005  0.6551928E+03  0.7818608E-02  0.9797084E-01
          2   -1    0    0  501    0  0.00000000000E+00  0.00000000000E+00  0.51800643620E+03  0.51800643620E+03  0.25500000000E-02 0.  1.
         -2   -1    0    0    0  501 -0.00000000000E+00 -0.00000000000E+00 -0.20717773177E+03  0.20717773178E+03  0.25500000000E-02 0. -1.
    5000001    1    1    2    0    0  0.22812517104E+03 -0.15542208779E+03  0.86317227147E+02  0.33297564887E+03  0.16500000000E+03 0.  0.
   -5000001    1    1    2    0    0 -0.22812517104E+03  0.15542208779E+03  0.22451147728E+03  0.39220851912E+03  0.16500000000E+03 0.  0.
<mgrwt>
<rscale>  0 0.65519279E+03</rscale>
<asrwt>0</asrwt>
<pdfrwt beam="1">  1        2 0.79693298E-01 0.65519279E+03</pdfrwt>
<pdfrwt beam="2">  1       -2 0.31873497E-01 0.65519279E+03</pdfrwt>
<totfact> 0.54425730E+02</totfact>
</mgrwt>
</event>
<event>
 4    1  0.8362047E-005  0.7703763E+03  0.7818608E-02  0.9603915E-01
         -2   -1    0    0    0  501 -0.00000000000E+00  0.00000000000E+00  0.64541978512E+02  0.64541978562E+02  0.25500000000E-02 0. -1.
          2   -1    0    0  501    0  0.00000000000E+00 -0.00000000000E+00 -0.22988125544E+04  0.22988125544E+04  0.25500000000E-02 0.  1.
    5000001    1    1    2    0    0  0.11812938471E+03  0.24694581636E+03 -0.45768034796E+03  0.55824106680E+03  0.16500000000E+03 0.  0.
   -5000001    1    1    2    0    0 -0.11812938471E+03 -0.24694581636E+03 -0.17765902279E+04  0.18051134661E+04  0.16500000000E+03 0.  0.
<mgrwt>
<rscale>  0 0.77037630E+03</rscale>
<asrwt>0</asrwt>
<pdfrwt beam="1">  1        2 0.35366341E+00 0.77037630E+03</pdfrwt>
<pdfrwt beam="2">  1       -2 0.99295370E-02 0.77037630E+03</pdfrwt>
<totfact> 0.32473607E+02</totfact>
</mgrwt>
</event>
<event>
 4    1  0.8362047E-005  0.4426245E+03  0.7818608E-02  0.1029945E+00
          2   -1    0    0  501    0  0.00000000000E+00  0.00000000000E+00  0.10173014675E+04  0.10173014675E+04  0.25500000000E-02 0.  1.
         -2   -1    0    0    0  501 -0.00000000000E+00 -0.00000000000E+00 -0.48146122145E+02  0.48146122212E+02  0.25500000000E-02 0. -1.
    5000001    1    1    2    0    0  0.12704508639E+03 -0.83486540526E+01  0.66380610731E+03  0.69575405288E+03  0.16500000000E+03 0.  0.
   -5000001    1    1    2    0    0 -0.12704508639E+03  0.83486540526E+01  0.30534923805E+03  0.36969353684E+03  0.16500000000E+03 0.  0.
<mgrwt>
<rscale>  0 0.44262454E+03</rscale>
<asrwt>0</asrwt>
<pdfrwt beam="1">  1        2 0.15650790E+00 0.44262454E+03</pdfrwt>
<pdfrwt beam="2">  1       -2 0.74070965E-02 0.44262454E+03</pdfrwt>
<totfact> 0.27407532E+03</totfact>
</mgrwt>
</event>
<event>
 4    1  0.8362047E-005  0.8780759E+03  0.7818608E-02  0.9453410E-01
         -2   -1    0    0    0  501 -0.00000000000E+00  0.00000000000E+00  0.11883054448E+03  0.11883054451E+03  0.25500000000E-02 0. -1.
          2   -1    0    0  501    0  0.00000000000E+00 -0.00000000000E+00 -0.16220939420E+04  0.16220939420E+04  0.25500000000E-02 0.  1.
    5000001    1    1    2    0    0  0.95237724626E+02  0.37429888372E+03 -0.10052215962E+04  0.10894334931E+04  0.16500000000E+03 0.  0.
   -5000001    1    1    2    0    0 -0.95237724626E+02 -0.37429888372E+03 -0.49804180131E+03  0.65149099334E+03  0.16500000000E+03 0.  0.
<mgrwt>
<rscale>  0 0.87807587E+03</rscale>
<asrwt>0</asrwt>
<pdfrwt beam="1">  1        2 0.24955290E+00 0.87807587E+03</pdfrwt>
<pdfrwt beam="2">  1       -2 0.18281623E-01 0.87807587E+03</pdfrwt>
<totfact> 0.27244987E+02</totfact>
</mgrwt>
</event>
<event>
 4    1  0.8362047E-005  0.4773910E+03  0.7818608E-02  0.1019855E+00
         -2   -1    0    0    0  501 -0.00000000000E+00  0.00000000000E+00  0.35014279943E+02  0.35014280036E+02  0.25500000000E-02 0. -1.
          2   -1    0    0  501    0  0.00000000000E+00 -0.00000000000E+00 -0.16272086145E+04  0.16272086145E+04  0.25500000000E-02 0.  1.
    5000001    1    1    2    0    0  0.12359214018E+03 -0.11777184307E+03 -0.88176255226E+03  0.91316779548E+03  0.16500000000E+03 0.  0.
   -5000001    1    1    2    0    0 -0.12359214018E+03  0.11777184307E+03 -0.71043178234E+03  0.74905509910E+03  0.16500000000E+03 0.  0.
<mgrwt>
<rscale>  0 0.47739098E+03</rscale>
<asrwt>0</asrwt>
<pdfrwt beam="1">  1        2 0.25033973E+00 0.47739098E+03</pdfrwt>
<pdfrwt beam="2">  1       -2 0.53868136E-02 0.47739098E+03</pdfrwt>
<totfact> 0.20253209E+03</totfact>
</mgrwt>
</event>
<event>
 4    1  0.8362047E-005  0.4948215E+03  0.7818608E-02  0.1015139E+00
          2   -1    0    0  501    0  0.00000000000E+00  0.00000000000E+00  0.10055388805E+04  0.10055388805E+04  0.25500000000E-02 0.  1.
         -2   -1    0    0    0  501 -0.00000000000E+00 -0.00000000000E+00 -0.60874900884E+02  0.60874900938E+02  0.25500000000E-02 0. -1.
    5000001    1    1    2    0    0  0.15440632524E+03  0.35204003484E+02  0.67572188415E+03  0.71337626807E+03  0.16500000000E+03 0.  0.
   -5000001    1    1    2    0    0 -0.15440632524E+03 -0.35204003484E+02  0.26894209550E+03  0.35303751340E+03  0.16500000000E+03 0.  0.
<mgrwt>
<rscale>  0 0.49482150E+03</rscale>
<asrwt>0</asrwt>
<pdfrwt beam="1">  1        2 0.15469828E+00 0.49482150E+03</pdfrwt>
<pdfrwt beam="2">  1       -2 0.93653701E-02 0.49482150E+03</pdfrwt>
<totfact> 0.19192476E+03</totfact>
</mgrwt>
</event>
<event>
 4    1  0.8362047E-005  0.5215533E+03  0.7818608E-02  0.1008301E+00
          2   -1    0    0  501    0  0.00000000000E+00  0.00000000000E+00  0.20337930827E+04  0.20337930827E+04  0.25500000000E-02 0.  1.
         -2   -1    0    0    0  501 -0.00000000000E+00 -0.00000000000E+00 -0.33437256944E+02  0.33437257041E+02  0.25500000000E-02 0. -1.
    5000001    1    1    2    0    0  0.16366888683E+03  0.11079466478E+03  0.11643926157E+04  0.11925175578E+04  0.16500000000E+03 0.  0.
   -5000001    1    1    2    0    0 -0.16366888683E+03 -0.11079466478E+03  0.83596321012E+03  0.87471278197E+03  0.16500000000E+03 0.  0.
<mgrwt>
<rscale>  0 0.52155330E+03</rscale>
<asrwt>0</asrwt>
<pdfrwt beam="1">  1        2 0.31289124E+00 0.52155330E+03</pdfrwt>
<pdfrwt beam="2">  1       -2 0.51441934E-02 0.52155330E+03</pdfrwt>
<totfact> 0.13111844E+03</totfact>
</mgrwt>
</event>
<event>
 4    1  0.8362047E-005  0.1241344E+04  0.7818608E-02  0.9077419E-01
         -2   -1    0    0    0  501 -0.00000000000E+00  0.00000000000E+00  0.24485924942E+03  0.24485924943E+03  0.25500000000E-02 0. -1.
          2   -1    0    0  501    0  0.00000000000E+00 -0.00000000000E+00 -0.15732861100E+04  0.15732861100E+04  0.25500000000E-02 0.  1.
    5000001    1    1    2    0    0  0.56023262327E+03  0.52782304120E+02 -0.96209096055E+03  0.11267167258E+04  0.16500000000E+03 0.  0.
   -5000001    1    1    2    0    0 -0.56023262327E+03 -0.52782304120E+02 -0.36633590007E+03  0.69142863369E+03  0.16500000000E+03 0.  0.
<mgrwt>
<rscale>  0 0.12413439E+04</rscale>
<asrwt>0</asrwt>
<pdfrwt beam="1">  1        2 0.24204401E+00 0.12413439E+04</pdfrwt>
<pdfrwt beam="2">  1       -2 0.37670655E-01 0.12413439E+04</pdfrwt>
<totfact> 0.75488673E+01</totfact>
</mgrwt>
</event>
<event>
 4    1  0.8362047E-005  0.8926034E+03  0.7818608E-02  0.9434875E-01
          2   -1    0    0  501    0  0.00000000000E+00  0.00000000000E+00  0.21205059866E+03  0.21205059867E+03  0.25500000000E-02 0.  1.
         -2   -1    0    0    0  501 -0.00000000000E+00 -0.00000000000E+00 -0.93932874559E+03  0.93932874560E+03  0.25500000000E-02 0. -1.
    5000001    1    1    2    0    0  0.23555345567E+03 -0.33294625894E+03 -0.26692512419E+03  0.51459951782E+03  0.16500000000E+03 0.  0.
   -5000001    1    1    2    0    0 -0.23555345567E+03  0.33294625894E+03 -0.46035302275E+03  0.63677982645E+03  0.16500000000E+03 0.  0.
<mgrwt>
<rscale>  0 0.89260343E+03</rscale>
<asrwt>0</asrwt>
<pdfrwt beam="1">  1        2 0.32623170E-01 0.89260343E+03</pdfrwt>
<pdfrwt beam="2">  1       -2 0.14451211E+00 0.89260343E+03</pdfrwt>
<totfact> 0.53699323E+01</totfact>
</mgrwt>
</event>
<event>
 4    1  0.8362047E-005  0.4219629E+03  0.7818608E-02  0.1036429E+00
          2   -1    0    0  501    0  0.00000000000E+00  0.00000000000E+00  0.13068859875E+03  0.13068859878E+03  0.25500000000E-02 0.  1.
         -2   -1    0    0    0  501 -0.00000000000E+00 -0.00000000000E+00 -0.34060480522E+03  0.34060480523E+03  0.25500000000E-02 0. -1.
    5000001    1    1    2    0    0  0.91840474519E+02 -0.49481958751E+02 -0.19434577735E+03  0.27546037497E+03  0.16500000000E+03 0.  0.
   -5000001    1    1    2    0    0 -0.91840474519E+02  0.49481958751E+02 -0.15570429113E+02  0.19583302904E+03  0.16500000000E+03 0.  0.
<mgrwt>
<rscale>  0 0.42196286E+03</rscale>
<asrwt>0</asrwt>
<pdfrwt beam="1">  1        2 0.20105938E-01 0.42196286E+03</pdfrwt>
<pdfrwt beam="2">  1       -2 0.52400739E-01 0.42196286E+03</pdfrwt>
<totfact> 0.97130864E+02</totfact>
</mgrwt>
</event>
<event>
 4    1  0.8362047E-005  0.3837595E+03  0.7818608E-02  0.1049553E+00
          2   -1    0    0  501    0  0.00000000000E+00  0.00000000000E+00  0.29392900993E+03  0.29392900994E+03  0.25500000000E-02 0.  1.
         -2   -1    0    0    0  501 -0.00000000000E+00 -0.00000000000E+00 -0.12526097534E+03  0.12526097537E+03  0.25500000000E-02 0. -1.
    5000001    1    1    2    0    0  0.49153549755E+02 -0.79885319093E+02  0.11513484125E+03  0.22198821440E+03  0.16500000000E+03 0.  0.
   -5000001    1    1    2    0    0 -0.49153549755E+02  0.79885319093E+02  0.53533193332E+02  0.19720177091E+03  0.16500000000E+03 0.  0.
<mgrwt>
<rscale>  0 0.38375948E+03</rscale>
<asrwt>0</asrwt>
<pdfrwt beam="1">  1        2 0.45219847E-01 0.38375948E+03</pdfrwt>
<pdfrwt beam="2">  1       -2 0.19270919E-01 0.38375948E+03</pdfrwt>
<totfact> 0.25195894E+03</totfact>
</mgrwt>
</event>
<event>
 4    1  0.8362047E-005  0.1289974E+04  0.7818608E-02  0.9037554E-01
         -2   -1    0    0    0  501 -0.00000000000E+00  0.00000000000E+00  0.32586979184E+03  0.32586979185E+03  0.25500000000E-02 0. -1.
          2   -1    0    0  501    0  0.00000000000E+00 -0.00000000000E+00 -0.12766094767E+04  0.12766094767E+04  0.25500000000E-02 0.  1.
    5000001    1    1    2    0    0 -0.58135322523E+03 -0.18774405142E+03 -0.63034883458E+03  0.89318758085E+03  0.16500000000E+03 0.  0.
   -5000001    1    1    2    0    0  0.58135322523E+03  0.18774405142E+03 -0.32039085030E+03  0.70929168773E+03  0.16500000000E+03 0.  0.
<mgrwt>
<rscale>  0 0.12899744E+04</rscale>
<asrwt>0</asrwt>
<pdfrwt beam="1">  1        2 0.19640146E+00 0.12899744E+04</pdfrwt>
<pdfrwt beam="2">  1       -2 0.50133815E-01 0.12899744E+04</pdfrwt>
<totfact> 0.62964751E+01</totfact>
</mgrwt>
</event>
<event>
 4    1  0.8362047E-005  0.3929118E+03  0.7818608E-02  0.1046262E+00
         -2   -1    0    0    0  501 -0.00000000000E+00  0.00000000000E+00  0.29157251761E+03  0.29157251762E+03  0.25500000000E-02 0. -1.
          2   -1    0    0  501    0  0.00000000000E+00 -0.00000000000E+00 -0.13236820147E+03  0.13236820149E+03  0.25500000000E-02 0.  1.
    5000001    1    1    2    0    0  0.71090467472E+02 -0.69931300633E+02  0.12034227912E+03  0.22726967576E+03  0.16500000000E+03 0.  0.
   -5000001    1    1    2    0    0 -0.71090467472E+02  0.69931300633E+02  0.38862037024E+02  0.19667104336E+03  0.16500000000E+03 0.  0.
<mgrwt>
<rscale>  0 0.39291185E+03</rscale>
<asrwt>0</asrwt>
<pdfrwt beam="1">  1        2 0.20364339E-01 0.39291185E+03</pdfrwt>
<pdfrwt beam="2">  1       -2 0.44857310E-01 0.39291185E+03</pdfrwt>
<totfact> 0.13052568E+03</totfact>
</mgrwt>
</event>
<event>
 4    1  0.8362047E-005  0.5755944E+03  0.7818608E-02  0.9957375E-01
         -2   -1    0    0    0  501 -0.00000000000E+00  0.00000000000E+00  0.29559172593E+04  0.29559172593E+04  0.25500000000E-02 0. -1.
          2   -1    0    0  501    0  0.00000000000E+00 -0.00000000000E+00 -0.28020825677E+02  0.28020825793E+02  0.25500000000E-02 0.  1.
    5000001    1    1    2    0    0  0.12078884197E+03 -0.13052760095E+03  0.22666442203E+04  0.22795895290E+04  0.16500000000E+03 0.  0.
   -5000001    1    1    2    0    0 -0.12078884197E+03  0.13052760095E+03  0.66125221328E+03  0.70434855613E+03  0.16500000000E+03 0.  0.
<mgrwt>
<rscale>  0 0.57559445E+03</rscale>
<asrwt>0</asrwt>
<pdfrwt beam="1">  1        2 0.43108990E-02 0.57559445E+03</pdfrwt>
<pdfrwt beam="2">  1       -2 0.45475621E+00 0.57559445E+03</pdfrwt>
<totfact> 0.71560391E+00</totfact>
</mgrwt>
</event>
<event>
 4    1  0.8362047E-005  0.7752400E+03  0.7818608E-02  0.9596564E-01
         -2   -1    0    0    0  501 -0.00000000000E+00  0.00000000000E+00  0.15259127852E+03  0.15259127854E+03  0.25500000000E-02 0. -1.
          2   -1    0    0  501    0  0.00000000000E+00 -0.00000000000E+00 -0.98465181532E+03  0.98465181532E+03  0.25500000000E-02 0.  1.
    5000001    1    1    2    0    0 -0.12943395373E+03 -0.19573838694E+03 -0.33614159978E+02  0.28882793537E+03  0.16500000000E+03 0.  0.
   -5000001    1    1    2    0    0  0.12943395373E+03  0.19573838694E+03 -0.79844637682E+03  0.84841515849E+03  0.16500000000E+03 0.  0.
<mgrwt>
<rscale>  0 0.77524004E+03</rscale>
<asrwt>0</asrwt>
<pdfrwt beam="1">  1        2 0.15148489E+00 0.77524004E+03</pdfrwt>
<pdfrwt beam="2">  1       -2 0.23475582E-01 0.77524004E+03</pdfrwt>
<totfact> 0.41596332E+02</totfact>
</mgrwt>
</event>
<event>
 4    1  0.8362047E-005  0.4572246E+03  0.7818608E-02  0.1025589E+00
         -2   -1    0    0    0  501 -0.00000000000E+00  0.00000000000E+00  0.49001518989E+03  0.49001518990E+03  0.25500000000E-02 0. -1.
          2   -1    0    0  501    0  0.00000000000E+00 -0.00000000000E+00 -0.10665706257E+03  0.10665706260E+03  0.25500000000E-02 0.  1.
    5000001    1    1    2    0    0 -0.40284595272E+02 -0.15216894288E+03  0.17062282100E+03  0.28480762426E+03  0.16500000000E+03 0.  0.
   -5000001    1    1    2    0    0  0.40284595272E+02  0.15216894288E+03  0.21273530632E+03  0.31186462824E+03  0.16500000000E+03 0.  0.
<mgrwt>
<rscale>  0 0.45722459E+03</rscale>
<asrwt>0</asrwt>
<pdfrwt beam="1">  1        2 0.16408779E-01 0.45722459E+03</pdfrwt>
<pdfrwt beam="2">  1       -2 0.75386952E-01 0.45722459E+03</pdfrwt>
<totfact> 0.57191775E+02</totfact>
</mgrwt>
</event>
<event>
 4    1  0.8362047E-005  0.4322105E+03  0.7818608E-02  0.1033164E+00
         -2   -1    0    0    0  501 -0.00000000000E+00  0.00000000000E+00  0.12517077581E+03  0.12517077583E+03  0.25500000000E-02 0. -1.
          2   -1    0    0  501    0  0.00000000000E+00 -0.00000000000E+00 -0.37310217884E+03  0.37310217885E+03  0.25500000000E-02 0.  1.
    5000001    1    1    2    0    0 -0.71522329930E+02  0.90593356236E+02 -0.21440283642E+03  0.29413632237E+03  0.16500000000E+03 0.  0.
   -5000001    1    1    2    0    0  0.71522329930E+02 -0.90593356236E+02 -0.33528566616E+02  0.20413663231E+03  0.16500000000E+03 0.  0.
<mgrwt>
<rscale>  0 0.43221055E+03</rscale>
<asrwt>0</asrwt>
<pdfrwt beam="1">  1        2 0.57400335E-01 0.43221055E+03</pdfrwt>
<pdfrwt beam="2">  1       -2 0.19257043E-01 0.43221055E+03</pdfrwt>
<totfact> 0.19463429E+03</totfact>
</mgrwt>
</event>
<event>
 4    1  0.8362047E-005  0.4772713E+03  0.7818608E-02  0.1019888E+00
         -2   -1    0    0    0  501 -0.00000000000E+00  0.00000000000E+00  0.76198328826E+02  0.76198328869E+02  0.25500000000E-02 0.  1.
          2   -1    0    0  501    0  0.00000000000E+00 -0.00000000000E+00 -0.74735186026E+03  0.74735186026E+03  0.25500000000E-02 0. -1.
    5000001    1    1    2    0    0  0.66825088384E+02  0.14004296504E+03 -0.20593906757E+03  0.30612664707E+03  0.16500000000E+03 0.  0.
   -5000001    1    1    2    0    0 -0.66825088384E+02 -0.14004296504E+03 -0.46521446387E+03  0.51742354207E+03  0.16500000000E+03 0.  0.
<mgrwt>
<rscale>  0 0.47727126E+03</rscale>
<asrwt>0</asrwt>
<pdfrwt beam="1">  1        2 0.11497720E+00 0.47727126E+03</pdfrwt>
<pdfrwt beam="2">  1       -2 0.11722820E-01 0.47727126E+03</pdfrwt>
<totfact> 0.19931212E+03</totfact>
</mgrwt>
</event>
<event>
 4    1  0.8362047E-005  0.7660294E+03  0.7818608E-02  0.9610533E-01
         -2   -1    0    0    0  501 -0.00000000000E+00  0.00000000000E+00  0.74053262338E+02  0.74053262382E+02  0.25500000000E-02 0. -1.
          2   -1    0    0  501    0  0.00000000000E+00 -0.00000000000E+00 -0.19810103301E+04  0.19810103301E+04  0.25500000000E-02 0.  1.
    5000001    1    1    2    0    0  0.71931025803E+02  0.30833713021E+03 -0.58146144733E+03  0.68232563565E+03  0.16500000000E+03 0.  0.
   -5000001    1    1    2    0    0 -0.71931025803E+02 -0.30833713021E+03 -0.13254956205E+04  0.13727379569E+04  0.16500000000E+03 0.  0.
<mgrwt>
<rscale>  0 0.76602945E+03</rscale>
<asrwt>0</asrwt>
<pdfrwt beam="1">  1        2 0.30477078E+00 0.76602945E+03</pdfrwt>
<pdfrwt beam="2">  1       -2 0.11392811E-01 0.76602945E+03</pdfrwt>
<totfact> 0.38788334E+02</totfact>
</mgrwt>
</event>
<event>
 4    1  0.8362047E-005  0.5463698E+03  0.7818608E-02  0.1002338E+00
         -2   -1    0    0    0  501 -0.00000000000E+00  0.00000000000E+00  0.88490083528E+03  0.88490083529E+03  0.25500000000E-02 0. -1.
          2   -1    0    0  501    0  0.00000000000E+00 -0.00000000000E+00 -0.84337107548E+02  0.84337107587E+02  0.25500000000E-02 0.  1.
    5000001    1    1    2    0    0 -0.27873310306E+02  0.14012621665E+03  0.10882994899E+03  0.24388775250E+03  0.16500000000E+03 0.  0.
   -5000001    1    1    2    0    0  0.27873310306E+02 -0.14012621665E+03  0.69173377874E+03  0.72535019037E+03  0.16500000000E+03 0.  0.
<mgrwt>
<rscale>  0 0.54636975E+03</rscale>
<asrwt>0</asrwt>
<pdfrwt beam="1">  1        2 0.12974939E-01 0.54636975E+03</pdfrwt>
<pdfrwt beam="2">  1       -2 0.13613860E+00 0.54636975E+03</pdfrwt>
<totfact> 0.18792125E+02</totfact>
</mgrwt>
</event>
<event>
 4    1  0.8362047E-005  0.3758107E+03  0.7818608E-02  0.1052493E+00
          2   -1    0    0  501    0  0.00000000000E+00  0.00000000000E+00  0.80942945795E+03  0.80942945795E+03  0.25500000000E-02 0.  1.
         -2   -1    0    0    0  501 -0.00000000000E+00 -0.00000000000E+00 -0.43621372901E+02  0.43621372975E+02  0.25500000000E-02 0. -1.
    5000001    1    1    2    0    0  0.28665647913E+01  0.61859010355E+02  0.53085992664E+03  0.55934963669E+03  0.16500000000E+03 0.  0.
   -5000001    1    1    2    0    0 -0.28665647913E+01 -0.61859010355E+02  0.23494815841E+03  0.29370119424E+03  0.16500000000E+03 0.  0.
<mgrwt>
<rscale>  0 0.37581072E+03</rscale>
<asrwt>0</asrwt>
<pdfrwt beam="1">  1        2 0.12452760E+00 0.37581072E+03</pdfrwt>
<pdfrwt beam="2">  1       -2 0.67109808E-02 0.37581072E+03</pdfrwt>
<totfact> 0.43697658E+03</totfact>
</mgrwt>
</event>
<event>
 4    1  0.8362047E-005  0.5825263E+03  0.7818608E-02  0.9942337E-01
          2   -1    0    0  501    0  0.00000000000E+00  0.00000000000E+00  0.11024007236E+04  0.11024007236E+04  0.25500000000E-02 0.  1.
         -2   -1    0    0    0  501 -0.00000000000E+00 -0.00000000000E+00 -0.76954075391E+02  0.76954075433E+02  0.25500000000E-02 0. -1.
    5000001    1    1    2    0    0 -0.12861267981E+03 -0.15568314095E+03  0.25007122558E+03  0.36130192312E+03  0.16500000000E+03 0.  0.
   -5000001    1    1    2    0    0  0.12861267981E+03  0.15568314095E+03  0.77537542266E+03  0.81805287595E+03  0.16500000000E+03 0.  0.
<mgrwt>
<rscale>  0 0.58252632E+03</rscale>
<asrwt>0</asrwt>
<pdfrwt beam="1">  1        2 0.16960010E+00 0.58252632E+03</pdfrwt>
<pdfrwt beam="2">  1       -2 0.11839089E-01 0.58252632E+03</pdfrwt>
<totfact> 0.11410913E+03</totfact>
</mgrwt>
</event>
<event>
 4    1  0.8362047E-005  0.1417496E+04  0.7818608E-02  0.8941251E-01
          2   -1    0    0  501    0  0.00000000000E+00  0.00000000000E+00  0.12665768491E+04  0.12665768491E+04  0.25500000000E-02 0.  1.
         -2   -1    0    0    0  501 -0.00000000000E+00 -0.00000000000E+00 -0.39659939061E+03  0.39659939062E+03  0.25500000000E-02 0. -1.
    5000001    1    1    2    0    0  0.49719293130E+03 -0.28143644815E+03  0.88742695699E+03  0.10682503870E+04  0.16500000000E+03 0.  0.
   -5000001    1    1    2    0    0 -0.49719293130E+03  0.28143644815E+03 -0.17449498478E+02  0.59492585276E+03  0.16500000000E+03 0.  0.
<mgrwt>
<rscale>  0 0.14174958E+04</rscale>
<asrwt>0</asrwt>
<pdfrwt beam="1">  1        2 0.19485797E+00 0.14174958E+04</pdfrwt>
<pdfrwt beam="2">  1       -2 0.61015292E-01 0.14174958E+04</pdfrwt>
<totfact> 0.42016514E+01</totfact>
</mgrwt>
</event>
<event>
 4    1  0.8362047E-005  0.3869932E+03  0.7818608E-02  0.1048379E+00
         -2   -1    0    0    0  501 -0.00000000000E+00  0.00000000000E+00  0.30560304680E+02  0.30560304786E+02  0.25500000000E-02 0. -1.
          2   -1    0    0  501    0  0.00000000000E+00 -0.00000000000E+00 -0.12251493499E+04  0.12251493499E+04  0.25500000000E-02 0.  1.
    5000001    1    1    2    0    0  0.96754063983E+02  0.27803122641E+02 -0.56798799928E+03  0.59997477434E+03  0.16500000000E+03 0.  0.
   -5000001    1    1    2    0    0 -0.96754063983E+02 -0.27803122641E+02 -0.62660104597E+03  0.65573488037E+03  0.16500000000E+03 0.  0.
<mgrwt>
<rscale>  0 0.38699322E+03</rscale>
<asrwt>0</asrwt>
<pdfrwt beam="1">  1        2 0.18848448E+00 0.38699322E+03</pdfrwt>
<pdfrwt beam="2">  1       -2 0.47015863E-02 0.38699322E+03</pdfrwt>
<totfact> 0.41724970E+03</totfact>
</mgrwt>
</event>
<event>
 4    1  0.8362047E-005  0.4861038E+03  0.7818608E-02  0.1017471E+00
         -2   -1    0    0    0  501 -0.00000000000E+00  0.00000000000E+00  0.12236009424E+03  0.12236009426E+03  0.25500000000E-02 0. -1.
          2   -1    0    0  501    0  0.00000000000E+00 -0.00000000000E+00 -0.48278993294E+03  0.48278993295E+03  0.25500000000E-02 0.  1.
    5000001    1    1    2    0    0 -0.11321001477E+03 -0.12813413590E+03 -0.24386757718E+03  0.34048679773E+03  0.16500000000E+03 0.  0.
   -5000001    1    1    2    0    0  0.11321001477E+03  0.12813413590E+03 -0.11656226152E+03  0.26466322948E+03  0.16500000000E+03 0.  0.
<mgrwt>
<rscale>  0 0.48610378E+03</rscale>
<asrwt>0</asrwt>
<pdfrwt beam="1">  1        2 0.74275373E-01 0.48610378E+03</pdfrwt>
<pdfrwt beam="2">  1       -2 0.18824630E-01 0.48610378E+03</pdfrwt>
<totfact> 0.15189178E+03</totfact>
</mgrwt>
</event>
<event>
 4    1  0.8362047E-005  0.9318191E+03  0.7818608E-02  0.9386657E-01
          2   -1    0    0  501    0  0.00000000000E+00  0.00000000000E+00  0.14167349976E+04  0.14167349976E+04  0.25500000000E-02 0.  1.
         -2   -1    0    0    0  501 -0.00000000000E+00 -0.00000000000E+00 -0.15321969372E+03  0.15321969374E+03  0.25500000000E-02 0. -1.
    5000001    1    1    2    0    0 -0.28347586428E+03  0.14502859517E+03  0.11328483329E+04  0.11882601585E+04  0.16500000000E+03 0.  0.
   -5000001    1    1    2    0    0  0.28347586428E+03 -0.14502859517E+03  0.13066697096E+03  0.38169453277E+03  0.16500000000E+03 0.  0.
<mgrwt>
<rscale>  0 0.93181909E+03</rscale>
<asrwt>0</asrwt>
<pdfrwt beam="1">  1        2 0.21795923E+00 0.93181909E+03</pdfrwt>
<pdfrwt beam="2">  1       -2 0.23572261E-01 0.93181909E+03</pdfrwt>
<totfact> 0.22596566E+02</totfact>
</mgrwt>
</event>
<event>
 4    1  0.8362047E-005  0.5823068E+03  0.7818608E-02  0.9942809E-01
         -2   -1    0    0    0  501 -0.00000000000E+00  0.00000000000E+00  0.49696241909E+02  0.49696241975E+02  0.25500000000E-02 0. -1.
          2   -1    0    0  501    0  0.00000000000E+00 -0.00000000000E+00 -0.17057685795E+04  0.17057685795E+04  0.25500000000E-02 0.  1.
    5000001    1    1    2    0    0  0.17780135289E+03  0.69274463650E+01 -0.13130518856E+04  0.13352870721E+04  0.16500000000E+03 0.  0.
   -5000001    1    1    2    0    0 -0.17780135289E+03 -0.69274463650E+01 -0.34302045201E+03  0.42017774941E+03  0.16500000000E+03 0.  0.
<mgrwt>
<rscale>  0 0.58230675E+03</rscale>
<asrwt>0</asrwt>
<pdfrwt beam="1">  1        2 0.26242589E+00 0.58230675E+03</pdfrwt>
<pdfrwt beam="2">  1       -2 0.76455770E-02 0.58230675E+03</pdfrwt>
<totfact> 0.10553474E+03</totfact>
</mgrwt>
</event>
<event>
 4    1  0.8362047E-005  0.6161220E+03  0.7818608E-02  0.9872511E-01
         -2   -1    0    0    0  501 -0.00000000000E+00  0.00000000000E+00  0.24983660879E+02  0.24983661009E+02  0.25500000000E-02 0. -1.
          2   -1    0    0  501    0  0.00000000000E+00 -0.00000000000E+00 -0.37985458962E+04  0.37985458962E+04  0.25500000000E-02 0.  1.
    5000001    1    1    2    0    0  0.16520799141E+03 -0.73934122144E+02 -0.30463965868E+04  0.30562259568E+04  0.16500000000E+03 0.  0.
   -5000001    1    1    2    0    0 -0.16520799141E+03  0.73934122144E+02 -0.72716564855E+03  0.76730360046E+03  0.16500000000E+03 0.  0.
<mgrwt>
<rscale>  0 0.61612201E+03</rscale>
<asrwt>0</asrwt>
<pdfrwt beam="1">  1        2 0.58439122E+00 0.61612201E+03</pdfrwt>
<pdfrwt beam="2">  1       -2 0.38436432E-02 0.61612201E+03</pdfrwt>
<totfact> 0.16992704E+02</totfact>
</mgrwt>
</event>
<event>
 4    1  0.8362047E-005  0.5454710E+03  0.7818608E-02  0.1002548E+00
         -2   -1    0    0    0  501 -0.00000000000E+00  0.00000000000E+00  0.13782065025E+04  0.13782065025E+04  0.25500000000E-02 0. -1.
          2   -1    0    0  501    0  0.00000000000E+00 -0.00000000000E+00 -0.53972070667E+02  0.53972070728E+02  0.25500000000E-02 0.  1.
    5000001    1    1    2    0    0 -0.12873377960E+02  0.20925896334E+03  0.51348469669E+03  0.57865928778E+03  0.16500000000E+03 0.  0.
   -5000001    1    1    2    0    0  0.12873377960E+02 -0.20925896334E+03  0.81074973512E+03  0.85351928543E+03  0.16500000000E+03 0.  0.
<mgrwt>
<rscale>  0 0.54547102E+03</rscale>
<asrwt>0</asrwt>
<pdfrwt beam="1">  1        2 0.83033970E-02 0.54547102E+03</pdfrwt>
<pdfrwt beam="2">  1       -2 0.21203173E+00 0.54547102E+03</pdfrwt>
<totfact> 0.96711218E+01</totfact>
</mgrwt>
</event>
<event>
 4    1  0.8362047E-005  0.4702093E+03  0.7818608E-02  0.1021861E+00
          2   -1    0    0  501    0  0.00000000000E+00  0.00000000000E+00  0.44992703681E+03  0.44992703682E+03  0.25500000000E-02 0. -1.
         -2   -1    0    0    0  501 -0.00000000000E+00 -0.00000000000E+00 -0.12285148896E+03  0.12285148899E+03  0.25500000000E-02 0.  1.
    5000001    1    1    2    0    0 -0.16503356739E+03 -0.10954462263E+02  0.13146753972E+03  0.26807609481E+03  0.16500000000E+03 0.  0.
   -5000001    1    1    2    0    0  0.16503356739E+03  0.10954462263E+02  0.19560800813E+03  0.30470243099E+03  0.16500000000E+03 0.  0.
<mgrwt>
<rscale>  0 0.47020934E+03</rscale>
<asrwt>0</asrwt>
<pdfrwt beam="1">  1        2 0.69219546E-01 0.47020934E+03</pdfrwt>
<pdfrwt beam="2">  1       -2 0.18900228E-01 0.47020934E+03</pdfrwt>
<totfact> 0.16334470E+03</totfact>
</mgrwt>
</event>
<event>
 4    1  0.8362047E-005  0.7399314E+03  0.7818608E-02  0.9651280E-01
         -2   -1    0    0    0  501 -0.00000000000E+00  0.00000000000E+00  0.26464695020E+03  0.26464695022E+03  0.25500000000E-02 0. -1.
          2   -1    0    0  501    0  0.00000000000E+00 -0.00000000000E+00 -0.51719701444E+03  0.51719701445E+03  0.25500000000E-02 0.  1.
    5000001    1    1    2    0    0  0.30530249874E+02  0.31168818347E+03 -0.12628119182E+02  0.35421192705E+03  0.16500000000E+03 0.  0.
   -5000001    1    1    2    0    0 -0.30530249874E+02 -0.31168818347E+03 -0.23992194506E+03  0.42763203761E+03  0.16500000000E+03 0.  0.
<mgrwt>
<rscale>  0 0.73993138E+03</rscale>
<asrwt>0</asrwt>
<pdfrwt beam="1">  1        2 0.79568771E-01 0.73993138E+03</pdfrwt>
<pdfrwt beam="2">  1       -2 0.40714916E-01 0.73993138E+03</pdfrwt>
<totfact> 0.34065382E+02</totfact>
</mgrwt>
</event>
<event>
 4    1  0.8362047E-005  0.4873027E+03  0.7818608E-02  0.1017147E+00
          2   -1    0    0  501    0  0.00000000000E+00  0.00000000000E+00  0.17124758214E+04  0.17124758214E+04  0.25500000000E-02 0. -1.
         -2   -1    0    0    0  501 -0.00000000000E+00 -0.00000000000E+00 -0.34666754732E+02  0.34666754826E+02  0.25500000000E-02 0.  1.
    5000001    1    1    2    0    0  0.14669694222E+03 -0.10301336288E+03  0.82800985072E+03  0.86310894948E+03  0.16500000000E+03 0.  0.
   -5000001    1    1    2    0    0 -0.14669694222E+03  0.10301336288E+03  0.84979921593E+03  0.88403362672E+03  0.16500000000E+03 0.  0.
<mgrwt>
<rscale>  0 0.48730270E+03</rscale>
<asrwt>0</asrwt>
<pdfrwt beam="1">  1        2 0.26345783E+00 0.48730270E+03</pdfrwt>
<pdfrwt beam="2">  1       -2 0.53333467E-02 0.48730270E+03</pdfrwt>
<totfact> 0.18493469E+03</totfact>
</mgrwt>
</event>
<event>
 4    1  0.8362047E-005  0.1255242E+04  0.7818608E-02  0.9065832E-01
          2   -1    0    0  501    0  0.00000000000E+00  0.00000000000E+00  0.76759651924E+03  0.76759651924E+03  0.25500000000E-02 0.  1.
         -2   -1    0    0    0  501 -0.00000000000E+00 -0.00000000000E+00 -0.51317043308E+03  0.51317043308E+03  0.25500000000E-02 0. -1.
    5000001    1    1    2    0    0 -0.25894484550E+03 -0.38594329836E+03 -0.26885334018E+03  0.56170435381E+03  0.16500000000E+03 0.  0.
   -5000001    1    1    2    0    0  0.25894484550E+03  0.38594329836E+03  0.52327942634E+03  0.71906259852E+03  0.16500000000E+03 0.  0.
<mgrwt>
<rscale>  0 0.12552416E+04</rscale>
<asrwt>0</asrwt>
<pdfrwt beam="1">  1        2 0.11809177E+00 0.12552416E+04</pdfrwt>
<pdfrwt beam="2">  1       -2 0.78949298E-01 0.12552416E+04</pdfrwt>
<totfact> 0.50958054E+01</totfact>
</mgrwt>
</event>
<event>
 4    1  0.8362047E-005  0.6345606E+03  0.7818608E-02  0.9836189E-01
         -2   -1    0    0    0  501 -0.00000000000E+00  0.00000000000E+00  0.60273780212E+03  0.60273780212E+03  0.25500000000E-02 0. -1.
          2   -1    0    0  501    0  0.00000000000E+00 -0.00000000000E+00 -0.16701590136E+03  0.16701590138E+03  0.25500000000E-02 0.  1.
    5000001    1    1    2    0    0 -0.15415079035E+03 -0.18501907208E+03  0.67094540912E+02  0.29953497395E+03  0.16500000000E+03 0.  0.
   -5000001    1    1    2    0    0  0.15415079035E+03  0.18501907208E+03  0.36862735985E+03  0.47021872956E+03  0.16500000000E+03 0.  0.
<mgrwt>
<rscale>  0 0.63456063E+03</rscale>
<asrwt>0</asrwt>
<pdfrwt beam="1">  1        2 0.25694754E-01 0.63456063E+03</pdfrwt>
<pdfrwt beam="2">  1       -2 0.92728892E-01 0.63456063E+03</pdfrwt>
<totfact> 0.21178338E+02</totfact>
</mgrwt>
</event>
<event>
 4    1  0.8362047E-005  0.7376556E+03  0.7818608E-02  0.9654918E-01
         -2   -1    0    0    0  501 -0.00000000000E+00  0.00000000000E+00  0.15451005315E+03  0.15451005317E+03  0.25500000000E-02 0. -1.
          2   -1    0    0  501    0  0.00000000000E+00 -0.00000000000E+00 -0.88042129581E+03  0.88042129582E+03  0.25500000000E-02 0.  1.
    5000001    1    1    2    0    0 -0.16550949035E+03 -0.28461345263E+03 -0.33452165841E+03  0.49752180732E+03  0.16500000000E+03 0.  0.
   -5000001    1    1    2    0    0  0.16550949035E+03  0.28461345263E+03 -0.39138958425E+03  0.53740954166E+03  0.16500000000E+03 0.  0.
<mgrwt>
<rscale>  0 0.73765559E+03</rscale>
<asrwt>0</asrwt>
<pdfrwt beam="1">  1        2 0.13544943E+00 0.73765559E+03</pdfrwt>
<pdfrwt beam="2">  1       -2 0.23770778E-01 0.73765559E+03</pdfrwt>
<totfact> 0.47741025E+02</totfact>
</mgrwt>
</event>
<event>
 4    1  0.8362047E-005  0.3557054E+03  0.7818608E-02  0.1060297E+00
         -2   -1    0    0    0  501 -0.00000000000E+00  0.00000000000E+00  0.39421917892E+02  0.39421917974E+02  0.25500000000E-02 0. -1.
          2   -1    0    0  501    0  0.00000000000E+00 -0.00000000000E+00 -0.80238562019E+03  0.80238562019E+03  0.25500000000E-02 0.  1.
    5000001    1    1    2    0    0 -0.52480440795E+01 -0.63086333460E+02 -0.33420028290E+03  0.37805060049E+03  0.16500000000E+03 0.  0.
   -5000001    1    1    2    0    0  0.52480440795E+01  0.63086333460E+02 -0.42876341939E+03  0.46375693768E+03  0.16500000000E+03 0.  0.
<mgrwt>
<rscale>  0 0.35570538E+03</rscale>
<asrwt>0</asrwt>
<pdfrwt beam="1">  1        2 0.12344393E+00 0.35570538E+03</pdfrwt>
<pdfrwt beam="2">  1       -2 0.60649111E-02 0.35570538E+03</pdfrwt>
<totfact> 0.51669766E+03</totfact>
</mgrwt>
</event>
<event>
 4    1  0.8362047E-005  0.3969352E+03  0.7818608E-02  0.1044846E+00
         -2   -1    0    0    0  501 -0.00000000000E+00  0.00000000000E+00  0.43693308822E+02  0.43693308896E+02  0.25500000000E-02 0. -1.
          2   -1    0    0  501    0  0.00000000000E+00 -0.00000000000E+00 -0.90149716814E+03  0.90149716814E+03  0.25500000000E-02 0.  1.
    5000001    1    1    2    0    0 -0.61916834651E+02 -0.84943105037E+01 -0.64529906121E+03  0.66898559485E+03  0.16500000000E+03 0.  0.
   -5000001    1    1    2    0    0  0.61916834651E+02  0.84943105037E+01 -0.21250479811E+03  0.27620488219E+03  0.16500000000E+03 0.  0.
<mgrwt>
<rscale>  0 0.39693523E+03</rscale>
<asrwt>0</asrwt>
<pdfrwt beam="1">  1        2 0.13869186E+00 0.39693523E+03</pdfrwt>
<pdfrwt beam="2">  1       -2 0.67220482E-02 0.39693523E+03</pdfrwt>
<totfact> 0.37800497E+03</totfact>
</mgrwt>
</event>
<event>
 4    1  0.8362047E-005  0.5248796E+03  0.7818608E-02  0.1007482E+00
          2   -1    0    0  501    0  0.00000000000E+00  0.00000000000E+00  0.17555492404E+03  0.17555492406E+03  0.25500000000E-02 0.  1.
         -2   -1    0    0    0  501 -0.00000000000E+00 -0.00000000000E+00 -0.39232536533E+03  0.39232536534E+03  0.25500000000E-02 0. -1.
    5000001    1    1    2    0    0 -0.12514410046E+03  0.15667657237E+03 -0.67314014953E+02  0.26826250357E+03  0.16500000000E+03 0.  0.
   -5000001    1    1    2    0    0  0.12514410046E+03 -0.15667657237E+03 -0.14945642633E+03  0.29961778583E+03  0.16500000000E+03 0.  0.
<mgrwt>
<rscale>  0 0.52487960E+03</rscale>
<asrwt>0</asrwt>
<pdfrwt beam="1">  1        2 0.27008450E-01 0.52487960E+03</pdfrwt>
<pdfrwt beam="2">  1       -2 0.60357748E-01 0.52487960E+03</pdfrwt>
<totfact> 0.51715740E+02</totfact>
</mgrwt>
</event>
<event>
 4    1  0.8362047E-005  0.6156942E+03  0.7818608E-02  0.9873370E-01
         -2   -1    0    0    0  501 -0.00000000000E+00  0.00000000000E+00  0.16987910193E+03  0.16987910195E+03  0.25500000000E-02 0. -1.
          2   -1    0    0  501    0  0.00000000000E+00 -0.00000000000E+00 -0.55786628081E+03  0.55786628082E+03  0.25500000000E-02 0.  1.
    5000001    1    1    2    0    0 -0.57693406706E+01 -0.25697327620E+03 -0.23940842439E+03  0.38808496962E+03  0.16500000000E+03 0.  0.
   -5000001    1    1    2    0    0  0.57693406706E+01  0.25697327620E+03 -0.14857875449E+03  0.33966041315E+03  0.16500000000E+03 0.  0.
<mgrwt>
<rscale>  0 0.61569415E+03</rscale>
<asrwt>0</asrwt>
<pdfrwt beam="1">  1        2 0.85825581E-01 0.61569415E+03</pdfrwt>
<pdfrwt beam="2">  1       -2 0.26135247E-01 0.61569415E+03</pdfrwt>
<totfact> 0.71948838E+02</totfact>
</mgrwt>
</event>
<event>
 4    1  0.8362047E-005  0.5177554E+03  0.7818608E-02  0.1009246E+00
          2   -1    0    0  501    0  0.00000000000E+00  0.00000000000E+00  0.10587254337E+03  0.10587254340E+03  0.25500000000E-02 0.  1.
         -2   -1    0    0    0  501 -0.00000000000E+00 -0.00000000000E+00 -0.63300323040E+03  0.63300323041E+03  0.25500000000E-02 0. -1.
    5000001    1    1    2    0    0 -0.17574939911E+03  0.23605911475E+02 -0.13318057134E+03  0.27641844173E+03  0.16500000000E+03 0.  0.
   -5000001    1    1    2    0    0  0.17574939911E+03 -0.23605911475E+02 -0.39395011569E+03  0.46245733208E+03  0.16500000000E+03 0.  0.
<mgrwt>
<rscale>  0 0.51775539E+03</rscale>
<asrwt>0</asrwt>
<pdfrwt beam="1">  1        2 0.16288084E-01 0.51775539E+03</pdfrwt>
<pdfrwt beam="2">  1       -2 0.97385110E-01 0.51775539E+03</pdfrwt>
<totfact> 0.32283743E+02</totfact>
</mgrwt>
</event>
<event>
 4    1  0.8362047E-005  0.4329085E+03  0.7818608E-02  0.1032945E+00
          2   -1    0    0  501    0  0.00000000000E+00  0.00000000000E+00  0.81931383728E+03  0.81931383728E+03  0.25500000000E-02 0.  1.
         -2   -1    0    0    0  501 -0.00000000000E+00 -0.00000000000E+00 -0.57184964871E+02  0.57184964928E+02  0.25500000000E-02 0. -1.
    5000001    1    1    2    0    0 -0.94348785359E+02 -0.15240709671E+02  0.58846723994E+03  0.61858925387E+03  0.16500000000E+03 0.  0.
   -5000001    1    1    2    0    0  0.94348785359E+02  0.15240709671E+02  0.17366163247E+03  0.25790954833E+03  0.16500000000E+03 0.  0.
<mgrwt>
<rscale>  0 0.43290846E+03</rscale>
<asrwt>0</asrwt>
<pdfrwt beam="1">  1        2 0.12604827E+00 0.43290846E+03</pdfrwt>
<pdfrwt beam="2">  1       -2 0.87976875E-02 0.43290846E+03</pdfrwt>
<totfact> 0.28119739E+03</totfact>
</mgrwt>
</event>
<event>
 4    1  0.8362047E-005  0.6066574E+03  0.7818608E-02  0.9891690E-01
          2   -1    0    0  501    0  0.00000000000E+00  0.00000000000E+00  0.57420745162E+03  0.57420745163E+03  0.25500000000E-02 0.  1.
         -2   -1    0    0    0  501 -0.00000000000E+00 -0.00000000000E+00 -0.16023529177E+03  0.16023529179E+03  0.25500000000E-02 0. -1.
    5000001    1    1    2    0    0  0.18210188665E+02  0.19763566467E+03  0.14073093804E+02  0.25848504578E+03  0.16500000000E+03 0.  0.
   -5000001    1    1    2    0    0 -0.18210188665E+02 -0.19763566467E+03  0.39989906605E+03  0.47595769764E+03  0.16500000000E+03 0.  0.
<mgrwt>
<rscale>  0 0.60665739E+03</rscale>
<asrwt>0</asrwt>
<pdfrwt beam="1">  1        2 0.88339607E-01 0.60665739E+03</pdfrwt>
<pdfrwt beam="2">  1       -2 0.24651583E-01 0.60665739E+03</pdfrwt>
<totfact> 0.77266943E+02</totfact>
</mgrwt>
</event>
<event>
 4    1  0.8362047E-005  0.3770500E+03  0.7818608E-02  0.1052030E+00
         -2   -1    0    0    0  501 -0.00000000000E+00  0.00000000000E+00  0.10886223483E+02  0.10886223782E+02  0.25500000000E-02 0. -1.
          2   -1    0    0  501    0  0.00000000000E+00 -0.00000000000E+00 -0.32648305699E+04  0.32648305699E+04  0.25500000000E-02 0.  1.
    5000001    1    1    2    0    0  0.69850843160E+02 -0.52714164515E+02 -0.18499534854E+04  0.18593576368E+04  0.16500000000E+03 0.  0.
   -5000001    1    1    2    0    0 -0.69850843160E+02  0.52714164515E+02 -0.14039908611E+04  0.14163591569E+04  0.16500000000E+03 0.  0.
<mgrwt>
<rscale>  0 0.37705000E+03</rscale>
<asrwt>0</asrwt>
<pdfrwt beam="1">  1        2 0.50228085E+00 0.37705000E+03</pdfrwt>
<pdfrwt beam="2">  1       -2 0.16748062E-02 0.37705000E+03</pdfrwt>
<totfact> 0.14205649E+03</totfact>
</mgrwt>
</event>
<event>
 4    1  0.8362047E-005  0.6070482E+03  0.7818608E-02  0.9890890E-01
         -2   -1    0    0    0  501 -0.00000000000E+00  0.00000000000E+00  0.43364028020E+02  0.43364028095E+02  0.25500000000E-02 0. -1.
          2   -1    0    0  501    0  0.00000000000E+00 -0.00000000000E+00 -0.21244998485E+04  0.21244998485E+04  0.25500000000E-02 0.  1.
    5000001    1    1    2    0    0 -0.19716200466E+03 -0.73972505134E+02 -0.15525910658E+04  0.15754709789E+04  0.16500000000E+03 0.  0.
   -5000001    1    1    2    0    0  0.19716200466E+03  0.73972505134E+02 -0.52854475465E+03  0.59239289772E+03  0.16500000000E+03 0.  0.
<mgrwt>
<rscale>  0 0.60704817E+03</rscale>
<asrwt>0</asrwt>
<pdfrwt beam="1">  1        2 0.32684605E+00 0.60704817E+03</pdfrwt>
<pdfrwt beam="2">  1       -2 0.66713906E-02 0.60704817E+03</pdfrwt>
<totfact> 0.77546875E+02</totfact>
</mgrwt>
</event>
<event>
 4    1  0.8362047E-005  0.7946107E+03  0.7818608E-02  0.9567851E-01
         -2   -1    0    0    0  501 -0.00000000000E+00  0.00000000000E+00  0.10384847809E+03  0.10384847812E+03  0.25500000000E-02 0. -1.
          2   -1    0    0  501    0  0.00000000000E+00 -0.00000000000E+00 -0.15200178056E+04  0.15200178056E+04  0.25500000000E-02 0.  1.
    5000001    1    1    2    0    0 -0.12911202363E+03 -0.32304241222E+03 -0.90831804451E+03  0.98655612345E+03  0.16500000000E+03 0.  0.
   -5000001    1    1    2    0    0  0.12911202363E+03  0.32304241222E+03 -0.50785128297E+03  0.63731016025E+03  0.16500000000E+03 0.  0.
<mgrwt>
<rscale>  0 0.79461069E+03</rscale>
<asrwt>0</asrwt>
<pdfrwt beam="1">  1        2 0.23384888E+00 0.79461069E+03</pdfrwt>
<pdfrwt beam="2">  1       -2 0.15976690E-01 0.79461069E+03</pdfrwt>
<totfact> 0.39328923E+02</totfact>
</mgrwt>
</event>
<event>
 4    1  0.8362047E-005  0.4916934E+03  0.7818608E-02  0.1015970E+00
         -2   -1    0    0    0  501 -0.00000000000E+00  0.00000000000E+00  0.40550020648E+02  0.40550020728E+02  0.25500000000E-02 0. -1.
          2   -1    0    0  501    0  0.00000000000E+00 -0.00000000000E+00 -0.14905194523E+04  0.14905194523E+04  0.25500000000E-02 0.  1.
    5000001    1    1    2    0    0  0.17941325062E+03  0.18231770057E+02 -0.80702103107E+03  0.84322562611E+03  0.16500000000E+03 0.  0.
   -5000001    1    1    2    0    0 -0.17941325062E+03 -0.18231770057E+02 -0.64294840061E+03  0.68784384695E+03  0.16500000000E+03 0.  0.
<mgrwt>
<rscale>  0 0.49169338E+03</rscale>
<asrwt>0</asrwt>
<pdfrwt beam="1">  1        2 0.22931064E+00 0.49169338E+03</pdfrwt>
<pdfrwt beam="2">  1       -2 0.62384659E-02 0.49169338E+03</pdfrwt>
<totfact> 0.19123704E+03</totfact>
</mgrwt>
</event>
<event>
 4    1  0.8362047E-005  0.8640442E+03  0.7818608E-02  0.9471679E-01
          2   -1    0    0  501    0  0.00000000000E+00  0.00000000000E+00  0.67533131277E+03  0.67533131277E+03  0.25500000000E-02 0.  1.
         -2   -1    0    0    0  501 -0.00000000000E+00 -0.00000000000E+00 -0.27637266231E+03  0.27637266232E+03  0.25500000000E-02 0. -1.
    5000001    1    1    2    0    0  0.39446289746E+03  0.57263297139E+02  0.17393012587E+03  0.46514164655E+03  0.16500000000E+03 0.  0.
   -5000001    1    1    2    0    0 -0.39446289746E+03 -0.57263297139E+02  0.22502852459E+03  0.48656232854E+03  0.16500000000E+03 0.  0.
<mgrwt>
<rscale>  0 0.86404424E+03</rscale>
<asrwt>0</asrwt>
<pdfrwt beam="1">  1        2 0.10389712E+00 0.86404424E+03</pdfrwt>
<pdfrwt beam="2">  1       -2 0.42518871E-01 0.86404424E+03</pdfrwt>
<totfact> 0.22569943E+02</totfact>
</mgrwt>
</event>
<event>
 4    1  0.8362047E-005  0.4867593E+03  0.7818608E-02  0.1017294E+00
         -2   -1    0    0    0  501 -0.00000000000E+00  0.00000000000E+00  0.57202759614E+02  0.57202759670E+02  0.25500000000E-02 0. -1.
          2   -1    0    0  501    0  0.00000000000E+00 -0.00000000000E+00 -0.10355033849E+04  0.10355033849E+04  0.25500000000E-02 0.  1.
    5000001    1    1    2    0    0  0.14853537991E+03 -0.77876881844E+02 -0.34929929632E+03  0.42114435319E+03  0.16500000000E+03 0.  0.
   -5000001    1    1    2    0    0 -0.14853537991E+03  0.77876881844E+02 -0.62900132893E+03  0.67156179136E+03  0.16500000000E+03 0.  0.
<mgrwt>
<rscale>  0 0.48675929E+03</rscale>
<asrwt>0</asrwt>
<pdfrwt beam="1">  1        2 0.15930820E+00 0.48675929E+03</pdfrwt>
<pdfrwt beam="2">  1       -2 0.88004253E-02 0.48675929E+03</pdfrwt>
<totfact> 0.20314549E+03</totfact>
</mgrwt>
</event>
<event>
 4    1  0.8362047E-005  0.7722193E+03  0.7818608E-02  0.9601123E-01
          2   -1    0    0  501    0  0.00000000000E+00  0.00000000000E+00  0.17290759988E+04  0.17290759988E+04  0.25500000000E-02 0.  1.
         -2   -1    0    0    0  501 -0.00000000000E+00 -0.00000000000E+00 -0.86219836252E+02  0.86219836289E+02  0.25500000000E-02 0. -1.
    5000001    1    1    2    0    0  0.17668690372E+03 -0.26044714376E+03  0.46643597100E+03  0.58637743108E+03  0.16500000000E+03 0.  0.
   -5000001    1    1    2    0    0 -0.17668690372E+03  0.26044714376E+03  0.11764201916E+04  0.12289184040E+04  0.16500000000E+03 0.  0.
<mgrwt>
<rscale>  0 0.77221927E+03</rscale>
<asrwt>0</asrwt>
<pdfrwt beam="1">  1        2 0.26601168E+00 0.77221927E+03</pdfrwt>
<pdfrwt beam="2">  1       -2 0.13264591E-01 0.77221927E+03</pdfrwt>
<totfact> 0.41346137E+02</totfact>
</mgrwt>
</event>
<event>
 4    1  0.8362047E-005  0.5043594E+03  0.7818608E-02  0.1012647E+00
         -2   -1    0    0    0  501 -0.00000000000E+00  0.00000000000E+00  0.18856771305E+03  0.18856771307E+03  0.25500000000E-02 0. -1.
          2   -1    0    0  501    0  0.00000000000E+00 -0.00000000000E+00 -0.33725073377E+03  0.33725073378E+03  0.25500000000E-02 0.  1.
    5000001    1    1    2    0    0  0.14879254969E+03 -0.10003870753E+03 -0.65949248764E+01  0.24375286435E+03  0.16500000000E+03 0.  0.
   -5000001    1    1    2    0    0 -0.14879254969E+03  0.10003870753E+03 -0.14208809585E+03  0.28206558249E+03  0.16500000000E+03 0.  0.
<mgrwt>
<rscale>  0 0.50435939E+03</rscale>
<asrwt>0</asrwt>
<pdfrwt beam="1">  1        2 0.51884728E-01 0.50435939E+03</pdfrwt>
<pdfrwt beam="2">  1       -2 0.29010417E-01 0.50435939E+03</pdfrwt>
<totfact> 0.10523866E+03</totfact>
</mgrwt>
</event>
<event>
 4    1  0.8362047E-005  0.4731642E+03  0.7818608E-02  0.1021031E+00
          2   -1    0    0  501    0  0.00000000000E+00  0.00000000000E+00  0.78955812877E+03  0.78955812877E+03  0.25500000000E-02 0.  1.
         -2   -1    0    0    0  501 -0.00000000000E+00 -0.00000000000E+00 -0.70889145898E+02  0.70889145944E+02  0.25500000000E-02 0. -1.
    5000001    1    1    2    0    0 -0.39613321612E+02  0.16455528783E+03  0.37737736277E+03  0.44529353457E+03  0.16500000000E+03 0.  0.
   -5000001    1    1    2    0    0  0.39613321612E+02 -0.16455528783E+03  0.34129162010E+03  0.41515374014E+03  0.16500000000E+03 0.  0.
<mgrwt>
<rscale>  0 0.47316425E+03</rscale>
<asrwt>0</asrwt>
<pdfrwt beam="1">  1        2 0.12147049E+00 0.47316425E+03</pdfrwt>
<pdfrwt beam="2">  1       -2 0.10906022E-01 0.47316425E+03</pdfrwt>
<totfact> 0.20894354E+03</totfact>
</mgrwt>
</event>
<event>
 4    1  0.8362047E-005  0.4352188E+03  0.7818608E-02  0.1032224E+00
         -2   -1    0    0    0  501 -0.00000000000E+00  0.00000000000E+00  0.10800308272E+04  0.10800308272E+04  0.25500000000E-02 0. -1.
          2   -1    0    0  501    0  0.00000000000E+00 -0.00000000000E+00 -0.43844914911E+02  0.43844914986E+02  0.25500000000E-02 0.  1.
    5000001    1    1    2    0    0  0.76886407206E+02 -0.11692204146E+03  0.57846502187E+03  0.61759943727E+03  0.16500000000E+03 0.  0.
   -5000001    1    1    2    0    0 -0.76886407206E+02  0.11692204146E+03  0.45772089040E+03  0.50627630490E+03  0.16500000000E+03 0.  0.
<mgrwt>
<rscale>  0 0.43521884E+03</rscale>
<asrwt>0</asrwt>
<pdfrwt beam="1">  1        2 0.67453717E-02 0.43521884E+03</pdfrwt>
<pdfrwt beam="2">  1       -2 0.16615858E+00 0.43521884E+03</pdfrwt>
<totfact> 0.25664771E+02</totfact>
</mgrwt>
</event>
<event>
 4    1  0.8362047E-005  0.6051967E+03  0.7818608E-02  0.9894683E-01
          2   -1    0    0  501    0  0.00000000000E+00  0.00000000000E+00  0.35447318355E+03  0.35447318356E+03  0.25500000000E-02 0.  1.
         -2   -1    0    0    0  501 -0.00000000000E+00 -0.00000000000E+00 -0.25831503041E+03  0.25831503043E+03  0.25500000000E-02 0. -1.
    5000001    1    1    2    0    0  0.25154429780E+03  0.32625580042E+02  0.49433378481E+02  0.30660662278E+03  0.16500000000E+03 0.  0.
   -5000001    1    1    2    0    0 -0.25154429780E+03 -0.32625580042E+02  0.46724774659E+02  0.30618159121E+03  0.16500000000E+03 0.  0.
<mgrwt>
<rscale>  0 0.60519667E+03</rscale>
<asrwt>0</asrwt>
<pdfrwt beam="1">  1        2 0.54534336E-01 0.60519667E+03</pdfrwt>
<pdfrwt beam="2">  1       -2 0.39740774E-01 0.60519667E+03</pdfrwt>
<totfact> 0.54986116E+02</totfact>
</mgrwt>
</event>
<event>
 4    1  0.8362047E-005  0.3737786E+03  0.7818608E-02  0.1053257E+00
          2   -1    0    0  501    0  0.00000000000E+00  0.00000000000E+00  0.50929870964E+02  0.50929871028E+02  0.25500000000E-02 0.  1.
         -2   -1    0    0    0  501 -0.00000000000E+00 -0.00000000000E+00 -0.68579800499E+03  0.68579800500E+03  0.25500000000E-02 0. -1.
    5000001    1    1    2    0    0 -0.66086087885E+02 -0.32978030300E+01 -0.43107808109E+03  0.46629556991E+03  0.16500000000E+03 0.  0.
   -5000001    1    1    2    0    0  0.66086087885E+02  0.32978030300E+01 -0.20379005294E+03  0.27043230612E+03  0.16500000000E+03 0.  0.
<mgrwt>
<rscale>  0 0.37377857E+03</rscale>
<asrwt>0</asrwt>
<pdfrwt beam="1">  1        2 0.78353653E-02 0.37377857E+03</pdfrwt>
<pdfrwt beam="2">  1       -2 0.10550738E+00 0.37377857E+03</pdfrwt>
<totfact> 0.66407143E+02</totfact>
</mgrwt>
</event>
<event>
 4    1  0.8362047E-005  0.4425626E+03  0.7818608E-02  0.1029963E+00
          2   -1    0    0  501    0  0.00000000000E+00  0.00000000000E+00  0.87908641671E+03  0.87908641671E+03  0.25500000000E-02 0.  1.
         -2   -1    0    0    0  501 -0.00000000000E+00 -0.00000000000E+00 -0.55700342067E+02  0.55700342126E+02  0.25500000000E-02 0. -1.
    5000001    1    1    2    0    0 -0.14257884081E+03 -0.34249723986E+02  0.44432278703E+03  0.49613456694E+03  0.16500000000E+03 0.  0.
   -5000001    1    1    2    0    0  0.14257884081E+03  0.34249723986E+02  0.37906328761E+03  0.43865219190E+03  0.16500000000E+03 0.  0.
<mgrwt>
<rscale>  0 0.44256260E+03</rscale>
<asrwt>0</asrwt>
<pdfrwt beam="1">  1        2 0.13524406E+00 0.44256260E+03</pdfrwt>
<pdfrwt beam="2">  1       -2 0.85692836E-02 0.44256260E+03</pdfrwt>
<totfact> 0.26701170E+03</totfact>
</mgrwt>
</event>
<event>
 4    1  0.8362047E-005  0.5815530E+03  0.7818608E-02  0.9944434E-01
         -2   -1    0    0    0  501 -0.00000000000E+00  0.00000000000E+00  0.10250838312E+03  0.10250838315E+03  0.25500000000E-02 0. -1.
          2   -1    0    0  501    0  0.00000000000E+00 -0.00000000000E+00 -0.82482015284E+03  0.82482015284E+03  0.25500000000E-02 0.  1.
    5000001    1    1    2    0    0 -0.99320925515E+02 -0.10141685424E+03 -0.53705262914E+02  0.22418581542E+03  0.16500000000E+03 0.  0.
   -5000001    1    1    2    0    0  0.99320925515E+02  0.10141685424E+03 -0.66860650680E+03  0.70314272058E+03  0.16500000000E+03 0.  0.
<mgrwt>
<rscale>  0 0.58155303E+03</rscale>
<asrwt>0</asrwt>
<pdfrwt beam="1">  1        2 0.12689540E+00 0.58155303E+03</pdfrwt>
<pdfrwt beam="2">  1       -2 0.15770521E-01 0.58155303E+03</pdfrwt>
<totfact> 0.10696171E+03</totfact>
</mgrwt>
</event>
<event>
 4    1  0.8362047E-005  0.5495131E+03  0.7818608E-02  0.1001607E+00
          2   -1    0    0  501    0  0.00000000000E+00  0.00000000000E+00  0.22306712485E+03  0.22306712486E+03  0.25500000000E-02 0.  1.
         -2   -1    0    0    0  501 -0.00000000000E+00 -0.00000000000E+00 -0.33842357112E+03  0.33842357113E+03  0.25500000000E-02 0. -1.
    5000001    1    1    2    0    0  0.19126017148E+03  0.10788403796E+03 -0.64664963459E+02  0.28218075119E+03  0.16500000000E+03 0.  0.
   -5000001    1    1    2    0    0 -0.19126017148E+03 -0.10788403796E+03 -0.50691482818E+02  0.27930994481E+03  0.16500000000E+03 0.  0.
<mgrwt>
<rscale>  0 0.54951314E+03</rscale>
<asrwt>0</asrwt>
<pdfrwt beam="1">  1        2 0.34318019E-01 0.54951314E+03</pdfrwt>
<pdfrwt beam="2">  1       -2 0.52065164E-01 0.54951314E+03</pdfrwt>
<totfact> 0.53679624E+02</totfact>
</mgrwt>
</event>
<event>
 4    1  0.8362047E-005  0.4660088E+03  0.7818608E-02  0.1023053E+00
         -2   -1    0    0    0  501 -0.00000000000E+00  0.00000000000E+00  0.40676478677E+02  0.40676478757E+02  0.25500000000E-02 0. -1.
          2   -1    0    0  501    0  0.00000000000E+00 -0.00000000000E+00 -0.13347036164E+04  0.13347036164E+04  0.25500000000E-02 0.  1.
    5000001    1    1    2    0    0 -0.12111029850E+03  0.11083447641E+03 -0.67853391116E+03  0.71734597940E+03  0.16500000000E+03 0.  0.
   -5000001    1    1    2    0    0  0.12111029850E+03 -0.11083447641E+03 -0.61549322656E+03  0.65803411576E+03  0.16500000000E+03 0.  0.
<mgrwt>
<rscale>  0 0.46600877E+03</rscale>
<asrwt>0</asrwt>
<pdfrwt beam="1">  1        2 0.20533898E+00 0.46600877E+03</pdfrwt>
<pdfrwt beam="2">  1       -2 0.62579209E-02 0.46600877E+03</pdfrwt>
<totfact> 0.23239684E+03</totfact>
</mgrwt>
</event>
<event>
 4    1  0.8362047E-005  0.8771125E+03  0.7818608E-02  0.9454653E-01
          2   -1    0    0  501    0  0.00000000000E+00  0.00000000000E+00  0.23457570744E+04  0.23457570744E+04  0.25500000000E-02 0.  1.
         -2   -1    0    0    0  501 -0.00000000000E+00 -0.00000000000E+00 -0.81991271245E+02  0.81991271285E+02  0.25500000000E-02 0. -1.
    5000001    1    1    2    0    0  0.96726657680E+02  0.16216171130E+03  0.21277612991E+04  0.21424858490E+04  0.16500000000E+03 0.  0.
   -5000001    1    1    2    0    0 -0.96726657680E+02 -0.16216171130E+03  0.13600450401E+03  0.28526249671E+03  0.16500000000E+03 0.  0.
<mgrwt>
<rscale>  0 0.87711255E+03</rscale>
<asrwt>0</asrwt>
<pdfrwt beam="1">  1        2 0.36088569E+00 0.87711255E+03</pdfrwt>
<pdfrwt beam="2">  1       -2 0.12614042E-01 0.87711255E+03</pdfrwt>
<totfact> 0.20432116E+02</totfact>
</mgrwt>
</event>
<event>
 4    1  0.8362047E-005  0.6689167E+03  0.7818608E-02  0.9771917E-01
          2   -1    0    0  501    0  0.00000000000E+00  0.00000000000E+00  0.34601146886E+04  0.34601146886E+04  0.25500000000E-02 0.  1.
         -2   -1    0    0    0  501 -0.00000000000E+00 -0.00000000000E+00 -0.32329093422E+02  0.32329093523E+02  0.25500000000E-02 0. -1.
    5000001    1    1    2    0    0 -0.25708125892E+03  0.13458380531E+03  0.18226356245E+04  0.18529514818E+04  0.16500000000E+03 0.  0.
   -5000001    1    1    2    0    0  0.25708125892E+03 -0.13458380531E+03  0.16051499707E+04  0.16394923003E+04  0.16500000000E+03 0.  0.
<mgrwt>
<rscale>  0 0.66891665E+03</rscale>
<asrwt>0</asrwt>
<pdfrwt beam="1">  1        2 0.53232535E+00 0.66891665E+03</pdfrwt>
<pdfrwt beam="2">  1       -2 0.49737066E-02 0.66891665E+03</pdfrwt>
<totfact> 0.19596507E+02</totfact>
</mgrwt>
</event>
<event>
 4    1  0.8362047E-005  0.8223384E+03  0.7818608E-02  0.9528234E-01
         -2   -1    0    0    0  501 -0.00000000000E+00  0.00000000000E+00  0.28588873945E+03  0.28588873946E+03  0.25500000000E-02 0. -1.
          2   -1    0    0  501    0  0.00000000000E+00 -0.00000000000E+00 -0.59134933137E+03  0.59134933137E+03  0.25500000000E-02 0.  1.
    5000001    1    1    2    0    0 -0.44737729774E+02  0.25770239158E+03  0.13632660110E+03  0.33796734940E+03  0.16500000000E+03 0.  0.
   -5000001    1    1    2    0    0  0.44737729774E+02 -0.25770239158E+03 -0.44178719301E+03  0.53927072144E+03  0.16500000000E+03 0.  0.
<mgrwt>
<rscale>  0 0.82233841E+03</rscale>
<asrwt>0</asrwt>
<pdfrwt beam="1">  1        2 0.90976820E-01 0.82233841E+03</pdfrwt>
<pdfrwt beam="2">  1       -2 0.43982883E-01 0.82233841E+03</pdfrwt>
<totfact> 0.24886118E+02</totfact>
</mgrwt>
</event>
<event>
 4    1  0.8362047E-005  0.4504776E+03  0.7818608E-02  0.1027580E+00
         -2   -1    0    0    0  501 -0.00000000000E+00  0.00000000000E+00  0.39839895766E+02  0.39839895848E+02  0.25500000000E-02 0. -1.
          2   -1    0    0  501    0  0.00000000000E+00 -0.00000000000E+00 -0.12734101133E+04  0.12734101133E+04  0.25500000000E-02 0.  1.
    5000001    1    1    2    0    0  0.51552576014E+02  0.13939356016E+03 -0.72661240297E+03  0.75978866591E+03  0.16500000000E+03 0.  0.
   -5000001    1    1    2    0    0 -0.51552576014E+02 -0.13939356016E+03 -0.50695781458E+03  0.55346134325E+03  0.16500000000E+03 0.  0.
<mgrwt>
<rscale>  0 0.45047764E+03</rscale>
<asrwt>0</asrwt>
<pdfrwt beam="1">  1        2 0.19590922E+00 0.45047764E+03</pdfrwt>
<pdfrwt beam="2">  1       -2 0.61292157E-02 0.45047764E+03</pdfrwt>
<totfact> 0.26006115E+03</totfact>
</mgrwt>
</event>
<event>
 4    1  0.8362047E-005  0.5935399E+03  0.7818608E-02  0.9918900E-01
         -2   -1    0    0    0  501 -0.00000000000E+00  0.00000000000E+00  0.39132288523E+02  0.39132288606E+02  0.25500000000E-02 0. -1.
          2   -1    0    0  501    0  0.00000000000E+00 -0.00000000000E+00 -0.22506328300E+04  0.22506328300E+04  0.25500000000E-02 0.  1.
    5000001    1    1    2    0    0 -0.93180306549E+02 -0.22629860686E+03 -0.98660794023E+03  0.10298125347E+04  0.16500000000E+03 0.  0.
   -5000001    1    1    2    0    0  0.93180306549E+02  0.22629860686E+03 -0.12248926013E+04  0.12599525839E+04  0.16500000000E+03 0.  0.
<mgrwt>
<rscale>  0 0.59353993E+03</rscale>
<asrwt>0</asrwt>
<pdfrwt beam="1">  1        2 0.34625111E+00 0.59353993E+03</pdfrwt>
<pdfrwt beam="2">  1       -2 0.60203538E-02 0.59353993E+03</pdfrwt>
<totfact> 0.77821451E+02</totfact>
</mgrwt>
</event>
<event>
 4    1  0.8362047E-005  0.4349931E+03  0.7818608E-02  0.1032294E+00
          2   -1    0    0  501    0  0.00000000000E+00  0.00000000000E+00  0.17543577006E+04  0.17543577006E+04  0.25500000000E-02 0.  1.
         -2   -1    0    0    0  501 -0.00000000000E+00 -0.00000000000E+00 -0.26964135891E+02  0.26964136012E+02  0.25500000000E-02 0. -1.
    5000001    1    1    2    0    0  0.81534652418E+02  0.11372644539E+03  0.77229937665E+03  0.80203050510E+03  0.16500000000E+03 0.  0.
   -5000001    1    1    2    0    0 -0.81534652418E+02 -0.11372644539E+03  0.95509418806E+03  0.97929133153E+03  0.16500000000E+03 0.  0.
<mgrwt>
<rscale>  0 0.43499306E+03</rscale>
<asrwt>0</asrwt>
<pdfrwt beam="1">  1        2 0.26990125E+00 0.43499306E+03</pdfrwt>
<pdfrwt beam="2">  1       -2 0.41483275E-02 0.43499306E+03</pdfrwt>
<totfact> 0.25893522E+03</totfact>
</mgrwt>
</event>
<event>
 4    1  0.8362047E-005  0.5627634E+03  0.7818608E-02  0.9985821E-01
          2   -1    0    0  501    0  0.00000000000E+00  0.00000000000E+00  0.28448844118E+04  0.28448844118E+04  0.25500000000E-02 0.  1.
         -2   -1    0    0    0  501 -0.00000000000E+00 -0.00000000000E+00 -0.27830884925E+02  0.27830885041E+02  0.25500000000E-02 0. -1.
    5000001    1    1    2    0    0  0.15469320541E+03  0.15048355625E+03  0.17827843761E+04  0.18033636406E+04  0.16500000000E+03 0.  0.
   -5000001    1    1    2    0    0 -0.15469320541E+03 -0.15048355625E+03  0.10342691507E+04  0.10693516562E+04  0.16500000000E+03 0.  0.
<mgrwt>
<rscale>  0 0.56276336E+03</rscale>
<asrwt>0</asrwt>
<pdfrwt beam="1">  1        2 0.43767418E+00 0.56276336E+03</pdfrwt>
<pdfrwt beam="2">  1       -2 0.42816780E-02 0.56276336E+03</pdfrwt>
<totfact> 0.60962227E+02</totfact>
</mgrwt>
</event>
<event>
 4    1  0.8362047E-005  0.6356454E+03  0.7818608E-02  0.9834094E-01
          2   -1    0    0  501    0  0.00000000000E+00  0.00000000000E+00  0.14845691287E+04  0.14845691287E+04  0.25500000000E-02 0.  1.
         -2   -1    0    0    0  501 -0.00000000000E+00 -0.00000000000E+00 -0.68040806269E+02  0.68040806317E+02  0.25500000000E-02 0. -1.
    5000001    1    1    2    0    0  0.24323517350E+03  0.53392541948E+01  0.10033449226E+04  0.10455227836E+04  0.16500000000E+03 0.  0.
   -5000001    1    1    2    0    0 -0.24323517350E+03 -0.53392541948E+01  0.41318339980E+03  0.50708715141E+03  0.16500000000E+03 0.  0.
<mgrwt>
<rscale>  0 0.63564544E+03</rscale>
<asrwt>0</asrwt>
<pdfrwt beam="1">  1        2 0.22839526E+00 0.63564544E+03</pdfrwt>
<pdfrwt beam="2">  1       -2 0.10467816E-01 0.63564544E+03</pdfrwt>
<totfact> 0.83933869E+02</totfact>
</mgrwt>
</event>
<event>
 4    1  0.8362047E-005  0.4178595E+03  0.7818608E-02  0.1037765E+00
          2   -1    0    0  501    0  0.00000000000E+00  0.00000000000E+00  0.63933926415E+03  0.63933926415E+03  0.25500000000E-02 0.  1.
         -2   -1    0    0    0  501 -0.00000000000E+00 -0.00000000000E+00 -0.68276178285E+02  0.68276178332E+02  0.25500000000E-02 0. -1.
    5000001    1    1    2    0    0 -0.94132456826E+02  0.54763162343E+02  0.39996924375E+03  0.44616176363E+03  0.16500000000E+03 0.  0.
   -5000001    1    1    2    0    0  0.94132456826E+02 -0.54763162343E+02  0.17109384211E+03  0.26145367885E+03  0.16500000000E+03 0.  0.
<mgrwt>
<rscale>  0 0.41785951E+03</rscale>
<asrwt>0</asrwt>
<pdfrwt beam="1">  1        2 0.98359882E-01 0.41785951E+03</pdfrwt>
<pdfrwt beam="2">  1       -2 0.10504028E-01 0.41785951E+03</pdfrwt>
<totfact> 0.28863903E+03</totfact>
</mgrwt>
</event>
<event>
 4    1  0.8362047E-005  0.4523356E+03  0.7818608E-02  0.1027028E+00
         -2   -1    0    0    0  501 -0.00000000000E+00  0.00000000000E+00  0.11225253403E+03  0.11225253406E+03  0.25500000000E-02 0. -1.
          2   -1    0    0  501    0  0.00000000000E+00 -0.00000000000E+00 -0.45568574169E+03  0.45568574170E+03  0.25500000000E-02 0.  1.
    5000001    1    1    2    0    0  0.71606615428E+02  0.10959811825E+03 -0.68274047332E+02  0.22141725415E+03  0.16500000000E+03 0.  0.
   -5000001    1    1    2    0    0 -0.71606615428E+02 -0.10959811825E+03 -0.27515916033E+03  0.34652102160E+03  0.16500000000E+03 0.  0.
<mgrwt>
<rscale>  0 0.45233562E+03</rscale>
<asrwt>0</asrwt>
<pdfrwt beam="1">  1        2 0.70105498E-01 0.45233562E+03</pdfrwt>
<pdfrwt beam="2">  1       -2 0.17269621E-01 0.45233562E+03</pdfrwt>
<totfact> 0.18784440E+03</totfact>
</mgrwt>
</event>
<event>
 4    1  0.8362047E-005  0.1117258E+04  0.7818608E-02  0.9188532E-01
          2   -1    0    0  501    0  0.00000000000E+00  0.00000000000E+00  0.50690293394E+03  0.50690293394E+03  0.25500000000E-02 0.  1.
         -2   -1    0    0    0  501 -0.00000000000E+00 -0.00000000000E+00 -0.61563363177E+03  0.61563363178E+03  0.25500000000E-02 0. -1.
    5000001    1    1    2    0    0  0.18667016955E+03  0.25143418966E+03 -0.48858367760E+03  0.60332736880E+03  0.16500000000E+03 0.  0.
   -5000001    1    1    2    0    0 -0.18667016955E+03 -0.25143418966E+03  0.37985297977E+03  0.51920919692E+03  0.16500000000E+03 0.  0.
<mgrwt>
<rscale>  0 0.11172582E+04</rscale>
<asrwt>0</asrwt>
<pdfrwt beam="1">  1        2 0.77985067E-01 0.11172582E+04</pdfrwt>
<pdfrwt beam="2">  1       -2 0.94712866E-01 0.11172582E+04</pdfrwt>
<totfact> 0.56440939E+01</totfact>
</mgrwt>
</event>
<event>
 4    1  0.8362047E-005  0.7718731E+03  0.7818608E-02  0.9601646E-01
          2   -1    0    0  501    0  0.00000000000E+00  0.00000000000E+00  0.19466222906E+04  0.19466222907E+04  0.25500000000E-02 0.  1.
         -2   -1    0    0    0  501 -0.00000000000E+00 -0.00000000000E+00 -0.76515615049E+02  0.76515615092E+02  0.25500000000E-02 0. -1.
    5000001    1    1    2    0    0 -0.21581982161E+03  0.22125832334E+03  0.51088775650E+03  0.61948748235E+03  0.16500000000E+03 0.  0.
   -5000001    1    1    2    0    0  0.21581982161E+03 -0.22125832334E+03  0.13592189191E+04  0.14036504234E+04  0.16500000000E+03 0.  0.
<mgrwt>
<rscale>  0 0.77187305E+03</rscale>
<asrwt>0</asrwt>
<pdfrwt beam="1">  1        2 0.29948033E+00 0.77187305E+03</pdfrwt>
<pdfrwt beam="2">  1       -2 0.11771634E-01 0.77187305E+03</pdfrwt>
<totfact> 0.38358057E+02</totfact>
</mgrwt>
</event>
<event>
 4    1  0.8362047E-005  0.8615875E+03  0.7818608E-02  0.9474915E-01
          2   -1    0    0  501    0  0.00000000000E+00  0.00000000000E+00  0.17802064294E+04  0.17802064294E+04  0.25500000000E-02 0.  1.
         -2   -1    0    0    0  501 -0.00000000000E+00 -0.00000000000E+00 -0.10424816049E+03  0.10424816052E+03  0.25500000000E-02 0. -1.
    5000001    1    1    2    0    0  0.24986937886E+03  0.12597817082E+02  0.16113397326E+03  0.34026837764E+03  0.16500000000E+03 0.  0.
   -5000001    1    1    2    0    0 -0.24986937886E+03 -0.12597817082E+02  0.15148242956E+04  0.15441862122E+04  0.16500000000E+03 0.  0.
<mgrwt>
<rscale>  0 0.86158748E+03</rscale>
<asrwt>0</asrwt>
<pdfrwt beam="1">  1        2 0.27387790E+00 0.86158748E+03</pdfrwt>
<pdfrwt beam="2">  1       -2 0.16038179E-01 0.86158748E+03</pdfrwt>
<totfact> 0.27964310E+02</totfact>
</mgrwt>
</event>
<event>
 4    1  0.8362047E-005  0.1182175E+04  0.7818608E-02  0.9128603E-01
         -2   -1    0    0    0  501 -0.00000000000E+00  0.00000000000E+00  0.16175713422E+04  0.16175713422E+04  0.25500000000E-02 0. -1.
          2   -1    0    0  501    0  0.00000000000E+00 -0.00000000000E+00 -0.21599318770E+03  0.21599318772E+03  0.25500000000E-02 0.  1.
    5000001    1    1    2    0    0 -0.56007297577E+03 -0.90518533867E+02  0.67464882012E+03  0.89680063205E+03  0.16500000000E+03 0.  0.
   -5000001    1    1    2    0    0  0.56007297577E+03  0.90518533867E+02  0.72692933436E+03  0.93676389786E+03  0.16500000000E+03 0.  0.
<mgrwt>
<rscale>  0 0.11821749E+04</rscale>
<asrwt>0</asrwt>
<pdfrwt beam="1">  1        2 0.33229720E-01 0.11821749E+04</pdfrwt>
<pdfrwt beam="2">  1       -2 0.24885714E+00 0.11821749E+04</pdfrwt>
<totfact> 0.10265120E+01</totfact>
</mgrwt>
</event>
<event>
 4    1  0.8362047E-005  0.5148755E+03  0.7818608E-02  0.1009967E+00
          2   -1    0    0  501    0  0.00000000000E+00  0.00000000000E+00  0.31001358580E+03  0.31001358581E+03  0.25500000000E-02 0.  1.
         -2   -1    0    0    0  501 -0.00000000000E+00 -0.00000000000E+00 -0.21377839335E+03  0.21377839336E+03  0.25500000000E-02 0. -1.
    5000001    1    1    2    0    0 -0.15628687538E+03 -0.85669254527E+02  0.13494431818E+03  0.27784847956E+03  0.16500000000E+03 0.  0.
   -5000001    1    1    2    0    0  0.15628687538E+03  0.85669254527E+02 -0.38709125726E+02  0.24594349961E+03  0.16500000000E+03 0.  0.
<mgrwt>
<rscale>  0 0.51487554E+03</rscale>
<asrwt>0</asrwt>
<pdfrwt beam="1">  1        2 0.47694398E-01 0.51487554E+03</pdfrwt>
<pdfrwt beam="2">  1       -2 0.32888984E-01 0.51487554E+03</pdfrwt>
<totfact> 0.91525825E+02</totfact>
</mgrwt>
</event>
<event>
 4    1  0.8362047E-005  0.7055583E+03  0.7818608E-02  0.9707774E-01
         -2   -1    0    0    0  501 -0.00000000000E+00  0.00000000000E+00  0.50275264858E+02  0.50275264923E+02  0.25500000000E-02 0. -1.
          2   -1    0    0  501    0  0.00000000000E+00 -0.00000000000E+00 -0.24754344500E+04  0.24754344500E+04  0.25500000000E-02 0.  1.
    5000001    1    1    2    0    0 -0.19986600570E+03  0.17777011595E+03 -0.17862252670E+04  0.18136632374E+04  0.16500000000E+03 0.  0.
   -5000001    1    1    2    0    0  0.19986600570E+03 -0.17777011595E+03 -0.63893391817E+03  0.71204647752E+03  0.16500000000E+03 0.  0.
<mgrwt>
<rscale>  0 0.70555828E+03</rscale>
<asrwt>0</asrwt>
<pdfrwt beam="1">  1        2 0.38083597E+00 0.70555828E+03</pdfrwt>
<pdfrwt beam="2">  1       -2 0.77346581E-02 0.70555828E+03</pdfrwt>
<totfact> 0.38895678E+02</totfact>
</mgrwt>
</event>
<event>
 4    1  0.8362047E-005  0.6310784E+03  0.7818608E-02  0.9842947E-01
          2   -1    0    0  501    0  0.00000000000E+00  0.00000000000E+00  0.91471461698E+03  0.91471461698E+03  0.25500000000E-02 0. -1.
         -2   -1    0    0    0  501 -0.00000000000E+00 -0.00000000000E+00 -0.10884814197E+03  0.10884814200E+03  0.25500000000E-02 0.  1.
    5000001    1    1    2    0    0  0.19709656437E+03  0.17328506935E+03  0.30745678180E+03  0.43661131871E+03  0.16500000000E+03 0.  0.
   -5000001    1    1    2    0    0 -0.19709656437E+03 -0.17328506935E+03  0.49840969321E+03  0.58695144027E+03  0.16500000000E+03 0.  0.
<mgrwt>
<rscale>  0 0.63107840E+03</rscale>
<asrwt>0</asrwt>
<pdfrwt beam="1">  1        2 0.14072532E+00 0.63107840E+03</pdfrwt>
<pdfrwt beam="2">  1       -2 0.16745869E-01 0.63107840E+03</pdfrwt>
<totfact> 0.83792663E+02</totfact>
</mgrwt>
</event>
<event>
 4    1  0.8362047E-005  0.4792252E+03  0.7818608E-02  0.1019348E+00
          2   -1    0    0  501    0  0.00000000000E+00  0.00000000000E+00  0.32084207024E+03  0.32084207025E+03  0.25500000000E-02 0.  1.
         -2   -1    0    0    0  501 -0.00000000000E+00 -0.00000000000E+00 -0.17894844203E+03  0.17894844205E+03  0.25500000000E-02 0. -1.
    5000001    1    1    2    0    0  0.12834565793E+03  0.92367168336E+02 -0.41493995313E+01  0.22857497504E+03  0.16500000000E+03 0.  0.
   -5000001    1    1    2    0    0 -0.12834565793E+03 -0.92367168336E+02  0.14604302774E+03  0.27121553725E+03  0.16500000000E+03 0.  0.
<mgrwt>
<rscale>  0 0.47922516E+03</rscale>
<asrwt>0</asrwt>
<pdfrwt beam="1">  1        2 0.49360318E-01 0.47922516E+03</pdfrwt>
<pdfrwt beam="2">  1       -2 0.27530530E-01 0.47922516E+03</pdfrwt>
<totfact> 0.12230173E+03</totfact>
</mgrwt>
</event>
<event>
 4    1  0.8362047E-005  0.5350173E+03  0.7818608E-02  0.1005023E+00
         -2   -1    0    0    0  501 -0.00000000000E+00  0.00000000000E+00  0.23891320219E+03  0.23891320220E+03  0.25500000000E-02 0. -1.
          2   -1    0    0  501    0  0.00000000000E+00 -0.00000000000E+00 -0.29952670475E+03  0.29952670476E+03  0.25500000000E-02 0.  1.
    5000001    1    1    2    0    0 -0.20276800710E+03  0.48466886400E+02 -0.60024968819E+02  0.27256540621E+03  0.16500000000E+03 0.  0.
   -5000001    1    1    2    0    0  0.20276800710E+03 -0.48466886400E+02 -0.58853374263E+00  0.26587450076E+03  0.16500000000E+03 0.  0.
<mgrwt>
<rscale>  0 0.53501732E+03</rscale>
<asrwt>0</asrwt>
<pdfrwt beam="1">  1        2 0.46081031E-01 0.53501732E+03</pdfrwt>
<pdfrwt beam="2">  1       -2 0.36755877E-01 0.53501732E+03</pdfrwt>
<totfact> 0.77041858E+02</totfact>
</mgrwt>
</event>
<event>
 4    1  0.8362047E-005  0.5598586E+03  0.7818608E-02  0.9992375E-01
          2   -1    0    0  501    0  0.00000000000E+00  0.00000000000E+00  0.25771850195E+04  0.25771850195E+04  0.25500000000E-02 0.  1.
         -2   -1    0    0    0  501 -0.00000000000E+00 -0.00000000000E+00 -0.30405423994E+02  0.30405424101E+02  0.25500000000E-02 0. -1.
    5000001    1    1    2    0    0 -0.14182751183E+03 -0.12951693768E+03  0.18292982831E+04  0.18467395293E+04  0.16500000000E+03 0.  0.
   -5000001    1    1    2    0    0  0.14182751183E+03  0.12951693768E+03  0.71748131242E+03  0.76085091439E+03  0.16500000000E+03 0.  0.
<mgrwt>
<rscale>  0 0.55985857E+03</rscale>
<asrwt>0</asrwt>
<pdfrwt beam="1">  1        2 0.39649003E+00 0.55985857E+03</pdfrwt>
<pdfrwt beam="2">  1       -2 0.46777573E-02 0.55985857E+03</pdfrwt>
<totfact> 0.75988946E+02</totfact>
</mgrwt>
</event>
<event>
 4    1  0.8362047E-005  0.5258607E+03  0.7818608E-02  0.1007241E+00
          2   -1    0    0  501    0  0.00000000000E+00  0.00000000000E+00  0.10557753755E+04  0.10557753755E+04  0.25500000000E-02 0.  1.
         -2   -1    0    0    0  501 -0.00000000000E+00 -0.00000000000E+00 -0.65480179709E+02  0.65480179759E+02  0.25500000000E-02 0. -1.
    5000001    1    1    2    0    0  0.87189769546E+02  0.11760881041E+03  0.19005640002E+03  0.29117060873E+03  0.16500000000E+03 0.  0.
   -5000001    1    1    2    0    0 -0.87189769546E+02 -0.11760881041E+03  0.80023879576E+03  0.83008494652E+03  0.16500000000E+03 0.  0.
<mgrwt>
<rscale>  0 0.52586067E+03</rscale>
<asrwt>0</asrwt>
<pdfrwt beam="1">  1        2 0.16242699E+00 0.52586067E+03</pdfrwt>
<pdfrwt beam="2">  1       -2 0.10073873E-01 0.52586067E+03</pdfrwt>
<totfact> 0.15874495E+03</totfact>
</mgrwt>
</event>
<event>
 4    1  0.8362047E-005  0.1294587E+04  0.7818608E-02  0.9033869E-01
          2   -1    0    0  501    0  0.00000000000E+00  0.00000000000E+00  0.22169778548E+04  0.22169778548E+04  0.25500000000E-02 0.  1.
         -2   -1    0    0    0  501 -0.00000000000E+00 -0.00000000000E+00 -0.18899087332E+03  0.18899087334E+03  0.25500000000E-02 0. -1.
    5000001    1    1    2    0    0 -0.41605807382E+02 -0.51711190047E+03  0.16648022556E+04  0.17515499739E+04  0.16500000000E+03 0.  0.
   -5000001    1    1    2    0    0  0.41605807382E+02  0.51711190047E+03  0.36318472594E+03  0.65441875430E+03  0.16500000000E+03 0.  0.
<mgrwt>
<rscale>  0 0.12945865E+04</rscale>
<asrwt>0</asrwt>
<pdfrwt beam="1">  1        2 0.34107353E+00 0.12945865E+04</pdfrwt>
<pdfrwt beam="2">  1       -2 0.29075518E-01 0.12945865E+04</pdfrwt>
<totfact> 0.53964184E+01</totfact>
</mgrwt>
</event>
<event>
 4    1  0.8362047E-005  0.5920675E+03  0.7818608E-02  0.9922002E-01
          2   -1    0    0  501    0  0.00000000000E+00  0.00000000000E+00  0.12922401640E+04  0.12922401640E+04  0.25500000000E-02 0.  1.
         -2   -1    0    0    0  501 -0.00000000000E+00 -0.00000000000E+00 -0.67817093375E+02  0.67817093423E+02  0.25500000000E-02 0. -1.
    5000001    1    1    2    0    0  0.38885835317E+02 -0.20354800506E+03  0.91580754904E+03  0.95334797710E+03  0.16500000000E+03 0.  0.
   -5000001    1    1    2    0    0 -0.38885835317E+02  0.20354800506E+03  0.30861552163E+03  0.40670928037E+03  0.16500000000E+03 0.  0.
<mgrwt>
<rscale>  0 0.59206747E+03</rscale>
<asrwt>0</asrwt>
<pdfrwt beam="1">  1        2 0.19880617E+00 0.59206747E+03</pdfrwt>
<pdfrwt beam="2">  1       -2 0.10433400E-01 0.59206747E+03</pdfrwt>
<totfact> 0.10847849E+03</totfact>
</mgrwt>
</event>
<event>
 4    1  0.8362047E-005  0.4380218E+03  0.7818608E-02  0.1031355E+00
         -2   -1    0    0    0  501 -0.00000000000E+00  0.00000000000E+00  0.10898905737E+03  0.10898905740E+03  0.25500000000E-02 0. -1.
          2   -1    0    0  501    0  0.00000000000E+00 -0.00000000000E+00 -0.44009725609E+03  0.44009725609E+03  0.25500000000E-02 0.  1.
    5000001    1    1    2    0    0  0.94895417811E+02  0.10787896766E+03 -0.17794932887E+03  0.28201768673E+03  0.16500000000E+03 0.  0.
   -5000001    1    1    2    0    0 -0.94895417811E+02 -0.10787896766E+03 -0.15315886985E+03  0.26706862676E+03  0.16500000000E+03 0.  0.
<mgrwt>
<rscale>  0 0.43802185E+03</rscale>
<asrwt>0</asrwt>
<pdfrwt beam="1">  1        2 0.67707269E-01 0.43802185E+03</pdfrwt>
<pdfrwt beam="2">  1       -2 0.16767548E-01 0.43802185E+03</pdfrwt>
<totfact> 0.20529701E+03</totfact>
</mgrwt>
</event>
<event>
 4    1  0.8362047E-005  0.5711758E+03  0.7818608E-02  0.9967080E-01
          2   -1    0    0  501    0  0.00000000000E+00  0.00000000000E+00  0.62987771188E+03  0.62987771188E+03  0.25500000000E-02 0.  1.
         -2   -1    0    0    0  501 -0.00000000000E+00 -0.00000000000E+00 -0.12948616675E+03  0.12948616678E+03  0.25500000000E-02 0. -1.
    5000001    1    1    2    0    0  0.14101287438E+03 -0.14260116691E+03  0.40815018233E+03  0.48376781092E+03  0.16500000000E+03 0.  0.
   -5000001    1    1    2    0    0 -0.14101287438E+03  0.14260116691E+03  0.92241362792E+02  0.27559606774E+03  0.16500000000E+03 0.  0.
<mgrwt>
<rscale>  0 0.57117581E+03</rscale>
<asrwt>0</asrwt>
<pdfrwt beam="1">  1        2 0.96904264E-01 0.57117581E+03</pdfrwt>
<pdfrwt beam="2">  1       -2 0.19920949E-01 0.57117581E+03</pdfrwt>
<totfact> 0.10080917E+03</totfact>
</mgrwt>
</event>
<event>
 4    1  0.8362047E-005  0.6343587E+03  0.7818608E-02  0.9836580E-01
         -2   -1    0    0    0  501 -0.00000000000E+00  0.00000000000E+00  0.32200737402E+02  0.32200737503E+02  0.25500000000E-02 0. -1.
          2   -1    0    0  501    0  0.00000000000E+00 -0.00000000000E+00 -0.31242376165E+04  0.31242376165E+04  0.25500000000E-02 0.  1.
    5000001    1    1    2    0    0 -0.10498352991E+03  0.23773214181E+03 -0.11657804488E+04  0.12057392619E+04  0.16500000000E+03 0.  0.
   -5000001    1    1    2    0    0  0.10498352991E+03 -0.23773214181E+03 -0.19262564303E+04  0.19506990921E+04  0.16500000000E+03 0.  0.
<mgrwt>
<rscale>  0 0.63435875E+03</rscale>
<asrwt>0</asrwt>
<pdfrwt beam="1">  1        2 0.48065170E+00 0.63435875E+03</pdfrwt>
<pdfrwt beam="2">  1       -2 0.49539621E-02 0.63435875E+03</pdfrwt>
<totfact> 0.32676836E+02</totfact>
</mgrwt>
</event>
<event>
 4    1  0.8362047E-005  0.6934034E+03  0.7818608E-02  0.9728580E-01
         -2   -1    0    0    0  501 -0.00000000000E+00  0.00000000000E+00  0.97780960676E+02  0.97780960709E+02  0.25500000000E-02 0.  1.
          2   -1    0    0  501    0  0.00000000000E+00 -0.00000000000E+00 -0.12292992810E+04  0.12292992810E+04  0.25500000000E-02 0. -1.
    5000001    1    1    2    0    0 -0.15490926816E+03  0.19144883582E+03 -0.90986929402E+03  0.95694130975E+03  0.16500000000E+03 0.  0.
   -5000001    1    1    2    0    0  0.15490926816E+03 -0.19144883582E+03 -0.22164902631E+03  0.37013893198E+03  0.16500000000E+03 0.  0.
<mgrwt>
<rscale>  0 0.69340339E+03</rscale>
<asrwt>0</asrwt>
<pdfrwt beam="1">  1        2 0.18912296E+00 0.69340339E+03</pdfrwt>
<pdfrwt beam="2">  1       -2 0.15043226E-01 0.69340339E+03</pdfrwt>
<totfact> 0.64075810E+02</totfact>
</mgrwt>
</event>
<event>
 4    1  0.8362047E-005  0.4333540E+03  0.7818608E-02  0.1032806E+00
         -2   -1    0    0    0  501 -0.00000000000E+00  0.00000000000E+00  0.79235551445E+02  0.79235551486E+02  0.25500000000E-02 0. -1.
          2   -1    0    0  501    0  0.00000000000E+00 -0.00000000000E+00 -0.59252344386E+03  0.59252344387E+03  0.25500000000E-02 0.  1.
    5000001    1    1    2    0    0 -0.40337364651E+02 -0.11984332468E+03 -0.35137249624E+03  0.40826113772E+03  0.16500000000E+03 0.  0.
   -5000001    1    1    2    0    0  0.40337364651E+02  0.11984332468E+03 -0.16191539618E+03  0.26349785763E+03  0.16500000000E+03 0.  0.
<mgrwt>
<rscale>  0 0.43335400E+03</rscale>
<asrwt>0</asrwt>
<pdfrwt beam="1">  1        2 0.91157450E-01 0.43335400E+03</pdfrwt>
<pdfrwt beam="2">  1       -2 0.12190085E-01 0.43335400E+03</pdfrwt>
<totfact> 0.24817516E+03</totfact>
</mgrwt>
</event>
<event>
 4    1  0.8362047E-005  0.6850310E+03  0.7818608E-02  0.9743179E-01
         -2   -1    0    0    0  501 -0.00000000000E+00  0.00000000000E+00  0.66610835449E+02  0.66610835498E+02  0.25500000000E-02 0. -1.
          2   -1    0    0  501    0  0.00000000000E+00 -0.00000000000E+00 -0.17612277760E+04  0.17612277760E+04  0.25500000000E-02 0.  1.
    5000001    1    1    2    0    0  0.50558760362E+02  0.28440769211E+03 -0.10648643717E+04  0.11156186865E+04  0.16500000000E+03 0.  0.
   -5000001    1    1    2    0    0 -0.50558760362E+02 -0.28440769211E+03 -0.62975256891E+03  0.71221992504E+03  0.16500000000E+03 0.  0.
<mgrwt>
<rscale>  0 0.68503096E+03</rscale>
<asrwt>0</asrwt>
<pdfrwt beam="1">  1        2 0.27095808E+00 0.68503096E+03</pdfrwt>
<pdfrwt beam="2">  1       -2 0.10247822E-01 0.68503096E+03</pdfrwt>
<totfact> 0.61106935E+02</totfact>
</mgrwt>
</event>
<event>
 4    1  0.8362047E-005  0.5202169E+03  0.7818608E-02  0.1008633E+00
         -2   -1    0    0    0  501 -0.00000000000E+00  0.00000000000E+00  0.32936857333E+03  0.32936857334E+03  0.25500000000E-02 0. -1.
          2   -1    0    0  501    0  0.00000000000E+00 -0.00000000000E+00 -0.20541243280E+03  0.20541243282E+03  0.25500000000E-02 0.  1.
    5000001    1    1    2    0    0 -0.10263953966E+02  0.14643611882E+03  0.20323880051E+03  0.30013312992E+03  0.16500000000E+03 0.  0.
   -5000001    1    1    2    0    0  0.10263953966E+02 -0.14643611882E+03 -0.79282659980E+02  0.23464787623E+03  0.16500000000E+03 0.  0.
<mgrwt>
<rscale>  0 0.52021688E+03</rscale>
<asrwt>0</asrwt>
<pdfrwt beam="1">  1        2 0.31601913E-01 0.52021688E+03</pdfrwt>
<pdfrwt beam="2">  1       -2 0.50672088E-01 0.52021688E+03</pdfrwt>
<totfact> 0.62201796E+02</totfact>
</mgrwt>
</event>
<event>
 4    1  0.8362047E-005  0.5486974E+03  0.7818608E-02  0.1001796E+00
          2   -1    0    0  501    0  0.00000000000E+00  0.00000000000E+00  0.35471591453E+03  0.35471591454E+03  0.25500000000E-02 0.  1.
         -2   -1    0    0    0  501 -0.00000000000E+00 -0.00000000000E+00 -0.21219009242E+03  0.21219009244E+03  0.25500000000E-02 0. -1.
    5000001    1    1    2    0    0  0.44208318745E+02 -0.21352290167E+03  0.94268345214E+02  0.28923679900E+03  0.16500000000E+03 0.  0.
   -5000001    1    1    2    0    0 -0.44208318745E+02  0.21352290167E+03  0.48257476900E+02  0.27766920798E+03  0.16500000000E+03 0.  0.
<mgrwt>
<rscale>  0 0.54869738E+03</rscale>
<asrwt>0</asrwt>
<pdfrwt beam="1">  1        2 0.54571679E-01 0.54869738E+03</pdfrwt>
<pdfrwt beam="2">  1       -2 0.32644630E-01 0.54869738E+03</pdfrwt>
<totfact> 0.79976917E+02</totfact>
</mgrwt>
</event>
<event>
 4    1  0.8362047E-005  0.3622738E+03  0.7818608E-02  0.1057687E+00
          2   -1    0    0  501    0  0.00000000000E+00  0.00000000000E+00  0.90861353693E+02  0.90861353729E+02  0.25500000000E-02 0.  1.
         -2   -1    0    0    0  501 -0.00000000000E+00 -0.00000000000E+00 -0.36110588846E+03  0.36110588847E+03  0.25500000000E-02 0. -1.
    5000001    1    1    2    0    0 -0.25337281445E+02 -0.70302344600E+02 -0.13377142925E+03  0.22517591516E+03  0.16500000000E+03 0.  0.
   -5000001    1    1    2    0    0  0.25337281445E+02  0.70302344600E+02 -0.13647310552E+03  0.22679132703E+03  0.16500000000E+03 0.  0.
<mgrwt>
<rscale>  0 0.36227376E+03</rscale>
<asrwt>0</asrwt>
<pdfrwt beam="1">  1        2 0.13978670E-01 0.36227376E+03</pdfrwt>
<pdfrwt beam="2">  1       -2 0.55554751E-01 0.36227376E+03</pdfrwt>
<totfact> 0.13233008E+03</totfact>
</mgrwt>
</event>
<event>
 4    1  0.8362047E-005  0.5843463E+03  0.7818608E-02  0.9938425E-01
         -2   -1    0    0    0  501 -0.00000000000E+00  0.00000000000E+00  0.43468369654E+02  0.43468369729E+02  0.25500000000E-02 0. -1.
          2   -1    0    0  501    0  0.00000000000E+00 -0.00000000000E+00 -0.19638452079E+04  0.19638452079E+04  0.25500000000E-02 0.  1.
    5000001    1    1    2    0    0  0.31846953120E+02 -0.21423503194E+03 -0.59617220528E+03  0.65540611508E+03  0.16500000000E+03 0.  0.
   -5000001    1    1    2    0    0 -0.31846953120E+02  0.21423503194E+03 -0.13242046329E+04  0.13519074625E+04  0.16500000000E+03 0.  0.
<mgrwt>
<rscale>  0 0.58434630E+03</rscale>
<asrwt>0</asrwt>
<pdfrwt beam="1">  1        2 0.30212996E+00 0.58434630E+03</pdfrwt>
<pdfrwt beam="2">  1       -2 0.66874430E-02 0.58434630E+03</pdfrwt>
<totfact> 0.94573196E+02</totfact>
</mgrwt>
</event>
<event>
 4    1  0.8362047E-005  0.6599609E+03  0.7818608E-02  0.9788266E-01
         -2   -1    0    0    0  501 -0.00000000000E+00  0.00000000000E+00  0.33879368722E+02  0.33879368818E+02  0.25500000000E-02 0. -1.
          2   -1    0    0  501    0  0.00000000000E+00 -0.00000000000E+00 -0.32139651719E+04  0.32139651719E+04  0.25500000000E-02 0.  1.
    5000001    1    1    2    0    0 -0.26612414184E+03  0.54529728514E+02 -0.11535577644E+04  0.11965433824E+04  0.16500000000E+03 0.  0.
   -5000001    1    1    2    0    0  0.26612414184E+03 -0.54529728514E+02 -0.20265280388E+04  0.20513011584E+04  0.16500000000E+03 0.  0.
<mgrwt>
<rscale>  0 0.65996094E+03</rscale>
<asrwt>0</asrwt>
<pdfrwt beam="1">  1        2 0.49445594E+00 0.65996094E+03</pdfrwt>
<pdfrwt beam="2">  1       -2 0.52122131E-02 0.65996094E+03</pdfrwt>
<totfact> 0.26427640E+02</totfact>
</mgrwt>
</event>
<event>
 4    1  0.8362047E-005  0.5884715E+03  0.7818608E-02  0.9929617E-01
         -2   -1    0    0    0  501 -0.00000000000E+00  0.00000000000E+00  0.18910724336E+03  0.18910724338E+03  0.25500000000E-02 0. -1.
          2   -1    0    0  501    0  0.00000000000E+00 -0.00000000000E+00 -0.45780735636E+03  0.45780735637E+03  0.25500000000E-02 0.  1.
    5000001    1    1    2    0    0  0.79696595807E+02  0.20721106828E+03 -0.24080036534E+02  0.27765594242E+03  0.16500000000E+03 0.  0.
   -5000001    1    1    2    0    0 -0.79696595807E+02 -0.20721106828E+03 -0.24462007647E+03  0.36925865733E+03  0.16500000000E+03 0.  0.
<mgrwt>
<rscale>  0 0.58847154E+03</rscale>
<asrwt>0</asrwt>
<pdfrwt beam="1">  1        2 0.70431901E-01 0.58847154E+03</pdfrwt>
<pdfrwt beam="2">  1       -2 0.29093422E-01 0.58847154E+03</pdfrwt>
<totfact> 0.74393341E+02</totfact>
</mgrwt>
</event>
<event>
 4    1  0.8362047E-005  0.6151117E+03  0.7818608E-02  0.9874541E-01
          2   -1    0    0  501    0  0.00000000000E+00  0.00000000000E+00  0.21625594602E+04  0.21625594602E+04  0.25500000000E-02 0.  1.
         -2   -1    0    0    0  501 -0.00000000000E+00 -0.00000000000E+00 -0.43740113753E+02  0.43740113828E+02  0.25500000000E-02 0. -1.
    5000001    1    1    2    0    0  0.14347519324E+03 -0.17486297994E+03  0.60283309048E+03  0.66467655879E+03  0.16500000000E+03 0.  0.
   -5000001    1    1    2    0    0 -0.14347519324E+03  0.17486297994E+03  0.15159862560E+04  0.15416230152E+04  0.16500000000E+03 0.  0.
<mgrwt>
<rscale>  0 0.61511169E+03</rscale>
<asrwt>0</asrwt>
<pdfrwt beam="1">  1        2 0.33270148E+00 0.61511169E+03</pdfrwt>
<pdfrwt beam="2">  1       -2 0.67292477E-02 0.61511169E+03</pdfrwt>
<totfact> 0.72883305E+02</totfact>
</mgrwt>
</event>
<event>
 4    1  0.8362047E-005  0.4528309E+03  0.7818608E-02  0.1026881E+00
         -2   -1    0    0    0  501 -0.00000000000E+00  0.00000000000E+00  0.30555476026E+03  0.30555476027E+03  0.25500000000E-02 0.  1.
          2   -1    0    0  501    0  0.00000000000E+00 -0.00000000000E+00 -0.16777337217E+03  0.16777337219E+03  0.25500000000E-02 0. -1.
    5000001    1    1    2    0    0  0.91821629500E+02  0.11851700654E+03  0.11019465627E+03  0.24868726295E+03  0.16500000000E+03 0.  0.
   -5000001    1    1    2    0    0 -0.91821629500E+02 -0.11851700654E+03  0.27586731820E+02  0.22464086951E+03  0.16500000000E+03 0.  0.
<mgrwt>
<rscale>  0 0.45283088E+03</rscale>
<asrwt>0</asrwt>
<pdfrwt beam="1">  1        2 0.25811288E-01 0.45283088E+03</pdfrwt>
<pdfrwt beam="2">  1       -2 0.47008424E-01 0.45283088E+03</pdfrwt>
<totfact> 0.90800876E+02</totfact>
</mgrwt>
</event>
<event>
 4    1  0.8362047E-005  0.3836213E+03  0.7818608E-02  0.1049603E+00
         -2   -1    0    0    0  501 -0.00000000000E+00  0.00000000000E+00  0.10183168179E+03  0.10183168182E+03  0.25500000000E-02 0. -1.
          2   -1    0    0  501    0  0.00000000000E+00 -0.00000000000E+00 -0.36129552072E+03  0.36129552072E+03  0.25500000000E-02 0.  1.
    5000001    1    1    2    0    0  0.39025149431E+02 -0.68265607818E+02 -0.19995175051E+03  0.27090378003E+03  0.16500000000E+03 0.  0.
   -5000001    1    1    2    0    0 -0.39025149431E+02  0.68265607818E+02 -0.59512088410E+02  0.19222342252E+03  0.16500000000E+03 0.  0.
<mgrwt>
<rscale>  0 0.38362133E+03</rscale>
<asrwt>0</asrwt>
<pdfrwt beam="1">  1        2 0.55583926E-01 0.38362133E+03</pdfrwt>
<pdfrwt beam="2">  1       -2 0.15666413E-01 0.38362133E+03</pdfrwt>
<totfact> 0.28574717E+03</totfact>
</mgrwt>
</event>
<event>
 4    1  0.8362047E-005  0.4229868E+03  0.7818608E-02  0.1036099E+00
         -2   -1    0    0    0  501 -0.00000000000E+00  0.00000000000E+00  0.10916656574E+03  0.10916656577E+03  0.25500000000E-02 0. -1.
          2   -1    0    0  501    0  0.00000000000E+00 -0.00000000000E+00 -0.40973586331E+03  0.40973586332E+03  0.25500000000E-02 0.  1.
    5000001    1    1    2    0    0  0.47969601172E+02 -0.87220189447E+02 -0.43366422875E+02  0.19751984892E+03  0.16500000000E+03 0.  0.
   -5000001    1    1    2    0    0 -0.47969601172E+02  0.87220189447E+02 -0.25720287469E+03  0.32138258017E+03  0.16500000000E+03 0.  0.
<mgrwt>
<rscale>  0 0.42298679E+03</rscale>
<asrwt>0</asrwt>
<pdfrwt beam="1">  1        2 0.63036286E-01 0.42298679E+03</pdfrwt>
<pdfrwt beam="2">  1       -2 0.16794856E-01 0.42298679E+03</pdfrwt>
<totfact> 0.22161445E+03</totfact>
</mgrwt>
</event>
<event>
 4    1  0.8362047E-005  0.5680752E+03  0.7818608E-02  0.9973947E-01
          2   -1    0    0  501    0  0.00000000000E+00  0.00000000000E+00  0.96596548808E+03  0.96596548808E+03  0.25500000000E-02 0.  1.
         -2   -1    0    0    0  501 -0.00000000000E+00 -0.00000000000E+00 -0.83519924845E+02  0.83519924884E+02  0.25500000000E-02 0. -1.
    5000001    1    1    2    0    0  0.21304631319E+03  0.18642852302E+02  0.27894134327E+03  0.38829056194E+03  0.16500000000E+03 0.  0.
   -5000001    1    1    2    0    0 -0.21304631319E+03 -0.18642852302E+02  0.60350421996E+03  0.66119485102E+03  0.16500000000E+03 0.  0.
<mgrwt>
<rscale>  0 0.56807522E+03</rscale>
<asrwt>0</asrwt>
<pdfrwt beam="1">  1        2 0.14861007E+00 0.56807522E+03</pdfrwt>
<pdfrwt beam="2">  1       -2 0.12849220E-01 0.56807522E+03</pdfrwt>
<totfact> 0.12128504E+03</totfact>
</mgrwt>
</event>
<event>
 4    1  0.8362047E-005  0.9355755E+03  0.7818608E-02  0.9382171E-01
         -2   -1    0    0    0  501 -0.00000000000E+00  0.00000000000E+00  0.19043484933E+03  0.19043484935E+03  0.25500000000E-02 0. -1.
          2   -1    0    0  501    0  0.00000000000E+00 -0.00000000000E+00 -0.11490825840E+04  0.11490825840E+04  0.25500000000E-02 0.  1.
    5000001    1    1    2    0    0 -0.99361262814E+02  0.33001669725E+03 -0.86567750002E+03  0.94625906339E+03  0.16500000000E+03 0.  0.
   -5000001    1    1    2    0    0  0.99361262814E+02 -0.33001669725E+03 -0.92970234654E+02  0.39325836996E+03  0.16500000000E+03 0.  0.
<mgrwt>
<rscale>  0 0.93557548E+03</rscale>
<asrwt>0</asrwt>
<pdfrwt beam="1">  1        2 0.17678193E+00 0.93557548E+03</pdfrwt>
<pdfrwt beam="2">  1       -2 0.29297670E-01 0.93557548E+03</pdfrwt>
<totfact> 0.21781047E+02</totfact>
</mgrwt>
</event>
<event>
 4    1  0.8362047E-005  0.6805082E+03  0.7818608E-02  0.9751159E-01
         -2   -1    0    0    0  501 -0.00000000000E+00  0.00000000000E+00  0.20742031693E+03  0.20742031695E+03  0.25500000000E-02 0. -1.
          2   -1    0    0  501    0  0.00000000000E+00 -0.00000000000E+00 -0.55815583967E+03  0.55815583967E+03  0.25500000000E-02 0.  1.
    5000001    1    1    2    0    0  0.14902399609E+03 -0.16618620867E+03  0.46009540889E+02  0.28136788235E+03  0.16500000000E+03 0.  0.
   -5000001    1    1    2    0    0 -0.14902399609E+03  0.16618620867E+03 -0.39674506363E+03  0.48420827427E+03  0.16500000000E+03 0.  0.
<mgrwt>
<rscale>  0 0.68050823E+03</rscale>
<asrwt>0</asrwt>
<pdfrwt beam="1">  1        2 0.85870129E-01 0.68050823E+03</pdfrwt>
<pdfrwt beam="2">  1       -2 0.31910818E-01 0.68050823E+03</pdfrwt>
<totfact> 0.49721676E+02</totfact>
</mgrwt>
</event>
<event>
 4    1  0.8362047E-005  0.5495210E+03  0.7818608E-02  0.1001605E+00
          2   -1    0    0  501    0  0.00000000000E+00  0.00000000000E+00  0.65018283236E+03  0.65018283236E+03  0.25500000000E-02 0.  1.
         -2   -1    0    0    0  501 -0.00000000000E+00 -0.00000000000E+00 -0.11611092913E+03  0.11611092916E+03  0.25500000000E-02 0. -1.
    5000001    1    1    2    0    0  0.20210009016E+03  0.69723150467E+02  0.19644504696E+03  0.33394823047E+03  0.16500000000E+03 0.  0.
   -5000001    1    1    2    0    0 -0.20210009016E+03 -0.69723150467E+02  0.33762685626E+03  0.43234553106E+03  0.16500000000E+03 0.  0.
<mgrwt>
<rscale>  0 0.54952100E+03</rscale>
<asrwt>0</asrwt>
<pdfrwt beam="1">  1        2 0.10002813E+00 0.54952100E+03</pdfrwt>
<pdfrwt beam="2">  1       -2 0.17863220E-01 0.54952100E+03</pdfrwt>
<totfact> 0.11712125E+03</totfact>
</mgrwt>
</event>
<event>
 4    1  0.8362047E-005  0.4719701E+03  0.7818608E-02  0.1021366E+00
          2   -1    0    0  501    0  0.00000000000E+00  0.00000000000E+00  0.26843112659E+04  0.26843112659E+04  0.25500000000E-02 0.  1.
         -2   -1    0    0    0  501 -0.00000000000E+00 -0.00000000000E+00 -0.20746085764E+02  0.20746085921E+02  0.25500000000E-02 0. -1.
    5000001    1    1    2    0    0 -0.95901653285E+02  0.12705691559E+03  0.16520946811E+04  0.16679275831E+04  0.16500000000E+03 0.  0.
   -5000001    1    1    2    0    0  0.95901653285E+02 -0.12705691559E+03  0.10114704990E+04  0.10371297687E+04  0.16500000000E+03 0.  0.
<mgrwt>
<rscale>  0 0.47197013E+03</rscale>
<asrwt>0</asrwt>
<pdfrwt beam="1">  1        2 0.41297073E+00 0.47197013E+03</pdfrwt>
<pdfrwt beam="2">  1       -2 0.31917073E-02 0.47197013E+03</pdfrwt>
<totfact> 0.11943103E+03</totfact>
</mgrwt>
</event>
<event>
 4    1  0.8362047E-005  0.4162530E+03  0.7818608E-02  0.1038293E+00
          2   -1    0    0  501    0  0.00000000000E+00  0.00000000000E+00  0.25399867511E+04  0.25399867511E+04  0.25500000000E-02 0.  1.
         -2   -1    0    0    0  501 -0.00000000000E+00 -0.00000000000E+00 -0.17053883981E+02  0.17053884172E+02  0.25500000000E-02 0. -1.
    5000001    1    1    2    0    0 -0.12220399721E+03 -0.21173488512E+01  0.10528450408E+04  0.10726816769E+04  0.16500000000E+03 0.  0.
   -5000001    1    1    2    0    0  0.12220399721E+03  0.21173488512E+01  0.14700878264E+04  0.14843589584E+04  0.16500000000E+03 0.  0.
<mgrwt>
<rscale>  0 0.41625300E+03</rscale>
<asrwt>0</asrwt>
<pdfrwt beam="1">  1        2 0.39076734E+00 0.41625300E+03</pdfrwt>
<pdfrwt beam="2">  1       -2 0.26236735E-02 0.41625300E+03</pdfrwt>
<totfact> 0.19460274E+03</totfact>
</mgrwt>
</event>
<event>
 4    1  0.8362047E-005  0.4966219E+03  0.7818608E-02  0.1014664E+00
          2   -1    0    0  501    0  0.00000000000E+00  0.00000000000E+00  0.60203354996E+03  0.60203354996E+03  0.25500000000E-02 0.  1.
         -2   -1    0    0    0  501 -0.00000000000E+00 -0.00000000000E+00 -0.10241677216E+03  0.10241677219E+03  0.25500000000E-02 0. -1.
    5000001    1    1    2    0    0 -0.11612489148E+03  0.12779078176E+03  0.15341554295E+03  0.28386053467E+03  0.16500000000E+03 0.  0.
   -5000001    1    1    2    0    0  0.11612489148E+03 -0.12779078176E+03  0.34620123484E+03  0.42058978748E+03  0.16500000000E+03 0.  0.
<mgrwt>
<rscale>  0 0.49662192E+03</rscale>
<asrwt>0</asrwt>
<pdfrwt beam="1">  1        2 0.92620545E-01 0.49662192E+03</pdfrwt>
<pdfrwt beam="2">  1       -2 0.15756427E-01 0.49662192E+03</pdfrwt>
<totfact> 0.15911831E+03</totfact>
</mgrwt>
</event>
<event>
 4    1  0.8362047E-005  0.5449627E+03  0.7818608E-02  0.1002667E+00
         -2   -1    0    0    0  501 -0.00000000000E+00  0.00000000000E+00  0.32877985884E+03  0.32877985885E+03  0.25500000000E-02 0. -1.
          2   -1    0    0  501    0  0.00000000000E+00 -0.00000000000E+00 -0.22582311512E+03  0.22582311513E+03  0.25500000000E-02 0.  1.
    5000001    1    1    2    0    0 -0.13350887221E+03 -0.15648549420E+03  0.12131267733E+03  0.29026555864E+03  0.16500000000E+03 0.  0.
   -5000001    1    1    2    0    0  0.13350887221E+03  0.15648549420E+03 -0.18355933608E+02  0.26433741534E+03  0.16500000000E+03 0.  0.
<mgrwt>
<rscale>  0 0.54496272E+03</rscale>
<asrwt>0</asrwt>
<pdfrwt beam="1">  1        2 0.34742018E-01 0.54496272E+03</pdfrwt>
<pdfrwt beam="2">  1       -2 0.50581516E-01 0.54496272E+03</pdfrwt>
<totfact> 0.56162868E+02</totfact>
</mgrwt>
</event>
<event>
 4    1  0.8362047E-005  0.4307760E+03  0.7818608E-02  0.1033615E+00
          2   -1    0    0  501    0  0.00000000000E+00  0.00000000000E+00  0.22961026789E+04  0.22961026789E+04  0.25500000000E-02 0.  1.
         -2   -1    0    0    0  501 -0.00000000000E+00 -0.00000000000E+00 -0.20204665569E+02  0.20204665730E+02  0.25500000000E-02 0. -1.
    5000001    1    1    2    0    0 -0.10627958470E+03  0.22727882462E+02  0.67680304787E+03  0.70505267348E+03  0.16500000000E+03 0.  0.
   -5000001    1    1    2    0    0  0.10627958470E+03 -0.22727882462E+02  0.15990949654E+04  0.16112546711E+04  0.16500000000E+03 0.  0.
<mgrwt>
<rscale>  0 0.43077598E+03</rscale>
<asrwt>0</asrwt>
<pdfrwt beam="1">  1        2 0.35324651E+00 0.43077598E+03</pdfrwt>
<pdfrwt beam="2">  1       -2 0.31084106E-02 0.43077598E+03</pdfrwt>
<totfact> 0.20531748E+03</totfact>
</mgrwt>
</event>
<event>
 4    1  0.8362047E-005  0.6504585E+03  0.7818608E-02  0.9805919E-01
         -2   -1    0    0    0  501 -0.00000000000E+00  0.00000000000E+00  0.37291314538E+03  0.37291314539E+03  0.25500000000E-02 0. -1.
          2   -1    0    0  501    0  0.00000000000E+00 -0.00000000000E+00 -0.28364261283E+03  0.28364261284E+03  0.25500000000E-02 0.  1.
    5000001    1    1    2    0    0 -0.15005294092E+03  0.22791406048E+03  0.10917487487E+03  0.33705319661E+03  0.16500000000E+03 0.  0.
   -5000001    1    1    2    0    0  0.15005294092E+03 -0.22791406048E+03 -0.19904342313E+02  0.31950256162E+03  0.16500000000E+03 0.  0.
<mgrwt>
<rscale>  0 0.65045848E+03</rscale>
<asrwt>0</asrwt>
<pdfrwt beam="1">  1        2 0.43637325E-01 0.65045848E+03</pdfrwt>
<pdfrwt beam="2">  1       -2 0.57371253E-01 0.65045848E+03</pdfrwt>
<totfact> 0.33595649E+02</totfact>
</mgrwt>
</event>
<event>
 4    1  0.8362047E-005  0.9982743E+03  0.7818608E-02  0.9310440E-01
         -2   -1    0    0    0  501 -0.00000000000E+00  0.00000000000E+00  0.68346617421E+02  0.68346617469E+02  0.25500000000E-02 0. -1.
          2   -1    0    0  501    0  0.00000000000E+00 -0.00000000000E+00 -0.36452118506E+04  0.36452118506E+04  0.25500000000E-02 0.  1.
    5000001    1    1    2    0    0  0.10251238009E+03  0.29546209279E+03 -0.47793202596E+03  0.59451716357E+03  0.16500000000E+03 0.  0.
   -5000001    1    1    2    0    0 -0.10251238009E+03 -0.29546209279E+03 -0.30989332072E+04  0.31190413045E+04  0.16500000000E+03 0.  0.
<mgrwt>
<rscale>  0 0.99827431E+03</rscale>
<asrwt>0</asrwt>
<pdfrwt beam="1">  1        2 0.56080167E+00 0.99827431E+03</pdfrwt>
<pdfrwt beam="2">  1       -2 0.10514867E-01 0.99827431E+03</pdfrwt>
<totfact> 0.42362819E+01</totfact>
</mgrwt>
</event>
<event>
 4    1  0.8362047E-005  0.6927410E+03  0.7818608E-02  0.9729727E-01
          2   -1    0    0  501    0  0.00000000000E+00  0.00000000000E+00  0.82582246259E+03  0.82582246259E+03  0.25500000000E-02 0.  1.
         -2   -1    0    0    0  501 -0.00000000000E+00 -0.00000000000E+00 -0.14527642588E+03  0.14527642590E+03  0.25500000000E-02 0. -1.
    5000001    1    1    2    0    0  0.10676713660E+03 -0.25630605183E+03  0.16487433849E+03  0.36263006102E+03  0.16500000000E+03 0.  0.
   -5000001    1    1    2    0    0 -0.10676713660E+03  0.25630605183E+03  0.51567169821E+03  0.60846882747E+03  0.16500000000E+03 0.  0.
<mgrwt>
<rscale>  0 0.69274104E+03</rscale>
<asrwt>0</asrwt>
<pdfrwt beam="1">  1        2 0.12704961E+00 0.69274104E+03</pdfrwt>
<pdfrwt beam="2">  1       -2 0.22350220E-01 0.69274104E+03</pdfrwt>
<totfact> 0.58215553E+02</totfact>
</mgrwt>
</event>
<event>
 4    1  0.8362047E-005  0.4126882E+03  0.7818608E-02  0.1039473E+00
          2   -1    0    0  501    0  0.00000000000E+00  0.00000000000E+00  0.78621328792E+03  0.78621328793E+03  0.25500000000E-02 0.  1.
         -2   -1    0    0    0  501 -0.00000000000E+00 -0.00000000000E+00 -0.54155641325E+02  0.54155641385E+02  0.25500000000E-02 0. -1.
    5000001    1    1    2    0    0  0.17049634924E+02  0.12248182607E+03  0.38185426854E+03  0.43397024111E+03  0.16500000000E+03 0.  0.
   -5000001    1    1    2    0    0 -0.17049634924E+02 -0.12248182607E+03  0.35020337806E+03  0.40639868821E+03  0.16500000000E+03 0.  0.
<mgrwt>
<rscale>  0 0.41268819E+03</rscale>
<asrwt>0</asrwt>
<pdfrwt beam="1">  1        2 0.12095590E+00 0.41268819E+03</pdfrwt>
<pdfrwt beam="2">  1       -2 0.83316365E-02 0.41268819E+03</pdfrwt>
<totfact> 0.32335351E+03</totfact>
</mgrwt>
</event>
<event>
 4    1  0.8362047E-005  0.8814322E+03  0.7818608E-02  0.9449094E-01
          2   -1    0    0  501    0  0.00000000000E+00  0.00000000000E+00  0.20545781084E+04  0.20545781084E+04  0.25500000000E-02 0.  1.
         -2   -1    0    0    0  501 -0.00000000000E+00 -0.00000000000E+00 -0.94535559915E+02  0.94535559949E+02  0.25500000000E-02 0. -1.
    5000001    1    1    2    0    0 -0.20065672004E+03  0.28177004904E+03  0.15105663086E+04  0.15584264668E+04  0.16500000000E+03 0.  0.
   -5000001    1    1    2    0    0  0.20065672004E+03 -0.28177004904E+03  0.44947623993E+03  0.59068720157E+03  0.16500000000E+03 0.  0.
<mgrwt>
<rscale>  0 0.88143223E+03</rscale>
<asrwt>0</asrwt>
<pdfrwt beam="1">  1        2 0.31608890E+00 0.88143223E+03</pdfrwt>
<pdfrwt beam="2">  1       -2 0.14543934E-01 0.88143223E+03</pdfrwt>
<totfact> 0.23323824E+02</totfact>
</mgrwt>
</event>
<event>
 4    1  0.8362047E-005  0.4605350E+03  0.7818608E-02  0.1024626E+00
          2   -1    0    0  501    0  0.00000000000E+00  0.00000000000E+00  0.33283271140E+03  0.33283271141E+03  0.25500000000E-02 0.  1.
         -2   -1    0    0    0  501 -0.00000000000E+00 -0.00000000000E+00 -0.15930864354E+03  0.15930864356E+03  0.25500000000E-02 0. -1.
    5000001    1    1    2    0    0 -0.10388610162E+02  0.14238305248E+03  0.81086392237E+01  0.21833828543E+03  0.16500000000E+03 0.  0.
   -5000001    1    1    2    0    0  0.10388610162E+02 -0.14238305248E+03  0.16541542864E+03  0.27380306953E+03  0.16500000000E+03 0.  0.
<mgrwt>
<rscale>  0 0.46053503E+03</rscale>
<asrwt>0</asrwt>
<pdfrwt beam="1">  1        2 0.51205033E-01 0.46053503E+03</pdfrwt>
<pdfrwt beam="2">  1       -2 0.24509022E-01 0.46053503E+03</pdfrwt>
<totfact> 0.14474697E+03</totfact>
</mgrwt>
</event>
<event>
 4    1  0.8362047E-005  0.3826678E+03  0.7818608E-02  0.1049952E+00
         -2   -1    0    0    0  501 -0.00000000000E+00  0.00000000000E+00  0.32034910546E+02  0.32034910647E+02  0.25500000000E-02 0. -1.
          2   -1    0    0  501    0  0.00000000000E+00 -0.00000000000E+00 -0.11427738619E+04  0.11427738619E+04  0.25500000000E-02 0.  1.
    5000001    1    1    2    0    0  0.86476948630E+02  0.39626247862E+02 -0.49916524658E+03  0.53426533254E+03  0.16500000000E+03 0.  0.
   -5000001    1    1    2    0    0 -0.86476948630E+02 -0.39626247862E+02 -0.61157370475E+03  0.64054343998E+03  0.16500000000E+03 0.  0.
<mgrwt>
<rscale>  0 0.38266779E+03</rscale>
<asrwt>0</asrwt>
<pdfrwt beam="1">  1        2 0.17581133E+00 0.38266779E+03</pdfrwt>
<pdfrwt beam="2">  1       -2 0.49284487E-02 0.38266779E+03</pdfrwt>
<totfact> 0.43327550E+03</totfact>
</mgrwt>
</event>
<event>
 4    1  0.8362047E-005  0.5928577E+03  0.7818608E-02  0.9920336E-01
         -2   -1    0    0    0  501 -0.00000000000E+00  0.00000000000E+00  0.43786003753E+02  0.43786003827E+02  0.25500000000E-02 0. -1.
          2   -1    0    0  501    0  0.00000000000E+00 -0.00000000000E+00 -0.20068068574E+04  0.20068068574E+04  0.25500000000E-02 0.  1.
    5000001    1    1    2    0    0 -0.24511844192E+03  0.12959031031E+02 -0.10501719246E+04  0.10910256909E+04  0.16500000000E+03 0.  0.
   -5000001    1    1    2    0    0  0.24511844192E+03 -0.12959031031E+02 -0.91284892909E+03  0.95956717034E+03  0.16500000000E+03 0.  0.
<mgrwt>
<rscale>  0 0.59285766E+03</rscale>
<asrwt>0</asrwt>
<pdfrwt beam="1">  1        2 0.30873944E+00 0.59285766E+03</pdfrwt>
<pdfrwt beam="2">  1       -2 0.67363098E-02 0.59285766E+03</pdfrwt>
<totfact> 0.88570183E+02</totfact>
</mgrwt>
</event>
<event>
 4    1  0.8362047E-005  0.4406569E+03  0.7818608E-02  0.1030545E+00
         -2   -1    0    0    0  501 -0.00000000000E+00  0.00000000000E+00  0.28120743863E+03  0.28120743864E+03  0.25500000000E-02 0. -1.
          2   -1    0    0  501    0  0.00000000000E+00 -0.00000000000E+00 -0.17262925412E+03  0.17262925414E+03  0.25500000000E-02 0.  1.
    5000001    1    1    2    0    0  0.43706216946E+01 -0.12792573930E+03  0.12664367663E+03  0.24422882291E+03  0.16500000000E+03 0.  0.
   -5000001    1    1    2    0    0 -0.43706216946E+01  0.12792573930E+03 -0.18065492120E+02  0.20960786988E+03  0.16500000000E+03 0.  0.
<mgrwt>
<rscale>  0 0.44065692E+03</rscale>
<asrwt>0</asrwt>
<pdfrwt beam="1">  1        2 0.26558347E-01 0.44065692E+03</pdfrwt>
<pdfrwt beam="2">  1       -2 0.43262683E-01 0.44065692E+03</pdfrwt>
<totfact> 0.10358034E+03</totfact>
</mgrwt>
</event>
<event>
 4    1  0.8362047E-005  0.5700844E+03  0.7818608E-02  0.9969492E-01
         -2   -1    0    0    0  501 -0.00000000000E+00  0.00000000000E+00  0.11023985548E+04  0.11023985548E+04  0.25500000000E-02 0. -1.
          2   -1    0    0  501    0  0.00000000000E+00 -0.00000000000E+00 -0.73702077839E+02  0.73702077883E+02  0.25500000000E-02 0.  1.
    5000001    1    1    2    0    0  0.14547376175E+03  0.14351445111E+03  0.74282392188E+03  0.78789046951E+03  0.16500000000E+03 0.  0.
   -5000001    1    1    2    0    0 -0.14547376175E+03 -0.14351445111E+03  0.28587255505E+03  0.38821016314E+03  0.16500000000E+03 0.  0.
<mgrwt>
<rscale>  0 0.57008443E+03</rscale>
<asrwt>0</asrwt>
<pdfrwt beam="1">  1        2 0.11338782E-01 0.57008443E+03</pdfrwt>
<pdfrwt beam="2">  1       -2 0.16959977E+00 0.57008443E+03</pdfrwt>
<totfact> 0.12411495E+02</totfact>
</mgrwt>
</event>
<event>
 4    1  0.8362047E-005  0.7415515E+03  0.7818608E-02  0.9648699E-01
         -2   -1    0    0    0  501 -0.00000000000E+00  0.00000000000E+00  0.37451195101E+03  0.37451195102E+03  0.25500000000E-02 0. -1.
          2   -1    0    0  501    0  0.00000000000E+00 -0.00000000000E+00 -0.36707682901E+03  0.36707682902E+03  0.25500000000E-02 0.  1.
    5000001    1    1    2    0    0  0.25224558897E+03 -0.13999961714E+03 -0.16067418442E+03  0.36914620882E+03  0.16500000000E+03 0.  0.
   -5000001    1    1    2    0    0 -0.25224558897E+03  0.13999961714E+03  0.16810930642E+03  0.37244257122E+03  0.16500000000E+03 0.  0.
<mgrwt>
<rscale>  0 0.74155151E+03</rscale>
<asrwt>0</asrwt>
<pdfrwt beam="1">  1        2 0.56473358E-01 0.74155151E+03</pdfrwt>
<pdfrwt beam="2">  1       -2 0.57617223E-01 0.74155151E+03</pdfrwt>
<totfact> 0.24933761E+02</totfact>
</mgrwt>
</event>
<event>
 4    1  0.8362047E-005  0.4081700E+03  0.7818608E-02  0.1040987E+00
         -2   -1    0    0    0  501 -0.00000000000E+00  0.00000000000E+00  0.99368811288E+02  0.99368811321E+02  0.25500000000E-02 0. -1.
          2   -1    0    0  501    0  0.00000000000E+00 -0.00000000000E+00 -0.41915256723E+03  0.41915256724E+03  0.25500000000E-02 0.  1.
    5000001    1    1    2    0    0  0.63349268025E+02  0.10072259908E+03 -0.13911385579E+03  0.24644641729E+03  0.16500000000E+03 0.  0.
   -5000001    1    1    2    0    0 -0.63349268025E+02 -0.10072259908E+03 -0.18066990016E+03  0.27207496127E+03  0.16500000000E+03 0.  0.
<mgrwt>
<rscale>  0 0.40817003E+03</rscale>
<asrwt>0</asrwt>
<pdfrwt beam="1">  1        2 0.64485010E-01 0.40817003E+03</pdfrwt>
<pdfrwt beam="2">  1       -2 0.15287510E-01 0.40817003E+03</pdfrwt>
<totfact> 0.25303492E+03</totfact>
</mgrwt>
</event>
<event>
 4    1  0.8362047E-005  0.4922122E+03  0.7818608E-02  0.1015832E+00
         -2   -1    0    0    0  501 -0.00000000000E+00  0.00000000000E+00  0.23284489592E+02  0.23284489732E+02  0.25500000000E-02 0. -1.
          2   -1    0    0  501    0  0.00000000000E+00 -0.00000000000E+00 -0.26012252687E+04  0.26012252688E+04  0.25500000000E-02 0.  1.
    5000001    1    1    2    0    0 -0.12522474300E+03 -0.85818085483E+02 -0.74789733373E+03  0.78078255734E+03  0.16500000000E+03 0.  0.
   -5000001    1    1    2    0    0  0.12522474300E+03  0.85818085483E+02 -0.18300434454E+04  0.18437272011E+04  0.16500000000E+03 0.  0.
<mgrwt>
<rscale>  0 0.49221216E+03</rscale>
<asrwt>0</asrwt>
<pdfrwt beam="1">  1        2 0.40018827E+00 0.49221216E+03</pdfrwt>
<pdfrwt beam="2">  1       -2 0.35822312E-02 0.49221216E+03</pdfrwt>
<totfact> 0.11155077E+03</totfact>
</mgrwt>
</event>
<event>
 4    1  0.8362047E-005  0.4492608E+03  0.7818608E-02  0.1027943E+00
         -2   -1    0    0    0  501 -0.00000000000E+00  0.00000000000E+00  0.70756172697E+02  0.70756172743E+02  0.25500000000E-02 0. -1.
          2   -1    0    0  501    0  0.00000000000E+00 -0.00000000000E+00 -0.71313655946E+03  0.71313655946E+03  0.25500000000E-02 0.  1.
    5000001    1    1    2    0    0 -0.10830965307E+03  0.54459066671E+02 -0.48240757052E+03  0.52405995362E+03  0.16500000000E+03 0.  0.
   -5000001    1    1    2    0    0  0.10830965307E+03 -0.54459066671E+02 -0.15997281624E+03  0.25983277858E+03  0.16500000000E+03 0.  0.
<mgrwt>
<rscale>  0 0.44926079E+03</rscale>
<asrwt>0</asrwt>
<pdfrwt beam="1">  1        2 0.10971331E+00 0.44926079E+03</pdfrwt>
<pdfrwt beam="2">  1       -2 0.10885566E-01 0.44926079E+03</pdfrwt>
<totfact> 0.23848253E+03</totfact>
</mgrwt>
</event>
<event>
 4    1  0.8362047E-005  0.6333864E+03  0.7818608E-02  0.9838463E-01
          2   -1    0    0  501    0  0.00000000000E+00  0.00000000000E+00  0.20052442653E+04  0.20052442653E+04  0.25500000000E-02 0.  1.
         -2   -1    0    0    0  501 -0.00000000000E+00 -0.00000000000E+00 -0.50016147260E+02  0.50016147325E+02  0.25500000000E-02 0. -1.
    5000001    1    1    2    0    0  0.21556721262E+03 -0.78535208991E+02  0.14414451070E+04  0.14688859720E+04  0.16500000000E+03 0.  0.
   -5000001    1    1    2    0    0 -0.21556721262E+03  0.78535208991E+02  0.51378301107E+03  0.58637444067E+03  0.16500000000E+03 0.  0.
<mgrwt>
<rscale>  0 0.63338643E+03</rscale>
<asrwt>0</asrwt>
<pdfrwt beam="1">  1        2 0.30849911E+00 0.63338643E+03</pdfrwt>
<pdfrwt beam="2">  1       -2 0.76947920E-02 0.63338643E+03</pdfrwt>
<totfact> 0.71682982E+02</totfact>
</mgrwt>
</event>
<event>
 4    1  0.8362047E-005  0.6338835E+03  0.7818608E-02  0.9837500E-01
         -2   -1    0    0    0  501 -0.00000000000E+00  0.00000000000E+00  0.44248059347E+02  0.44248059421E+02  0.25500000000E-02 0. -1.
          2   -1    0    0  501    0  0.00000000000E+00 -0.00000000000E+00 -0.22702030416E+04  0.22702030416E+04  0.25500000000E-02 0.  1.
    5000001    1    1    2    0    0 -0.17751241130E+03 -0.17950791592E+03 -0.75722507368E+03  0.81507580031E+03  0.16500000000E+03 0.  0.
   -5000001    1    1    2    0    0  0.17751241130E+03  0.17950791592E+03 -0.14687299085E+04  0.14993753007E+04  0.16500000000E+03 0.  0.
<mgrwt>
<rscale>  0 0.63388352E+03</rscale>
<asrwt>0</asrwt>
<pdfrwt beam="1">  1        2 0.34926192E+00 0.63388352E+03</pdfrwt>
<pdfrwt beam="2">  1       -2 0.68073955E-02 0.63388352E+03</pdfrwt>
<totfact> 0.62377053E+02</totfact>
</mgrwt>
</event>
<event>
 4    1  0.8362047E-005  0.4500413E+03  0.7818608E-02  0.1027710E+00
         -2   -1    0    0    0  501 -0.00000000000E+00  0.00000000000E+00  0.56927716857E+02  0.56927716915E+02  0.25500000000E-02 0. -1.
          2   -1    0    0  501    0  0.00000000000E+00 -0.00000000000E+00 -0.88944875618E+03  0.88944875618E+03  0.25500000000E-02 0.  1.
    5000001    1    1    2    0    0 -0.13457071709E+03  0.68631835622E+02 -0.46732511221E+03  0.51810941630E+03  0.16500000000E+03 0.  0.
   -5000001    1    1    2    0    0  0.13457071709E+03 -0.68631835622E+02 -0.36519592711E+03  0.42826705679E+03  0.16500000000E+03 0.  0.
<mgrwt>
<rscale>  0 0.45004127E+03</rscale>
<asrwt>0</asrwt>
<pdfrwt beam="1">  1        2 0.13683826E+00 0.45004127E+03</pdfrwt>
<pdfrwt beam="2">  1       -2 0.87581109E-02 0.45004127E+03</pdfrwt>
<totfact> 0.25385025E+03</totfact>
</mgrwt>
</event>
<event>
 4    1  0.8362047E-005  0.4072780E+03  0.7818608E-02  0.1041288E+00
          2   -1    0    0  501    0  0.00000000000E+00  0.00000000000E+00  0.19261633117E+04  0.19261633117E+04  0.25500000000E-02 0. -1.
         -2   -1    0    0    0  501 -0.00000000000E+00 -0.00000000000E+00 -0.21529242722E+02  0.21529242873E+02  0.25500000000E-02 0.  1.
    5000001    1    1    2    0    0  0.11341724493E+03  0.32305659880E+02  0.10400691928E+04  0.10596584605E+04  0.16500000000E+03 0.  0.
   -5000001    1    1    2    0    0 -0.11341724493E+03 -0.32305659880E+02  0.86456487616E+03  0.88803409406E+03  0.16500000000E+03 0.  0.
<mgrwt>
<rscale>  0 0.40727798E+03</rscale>
<asrwt>0</asrwt>
<pdfrwt beam="1">  1        2 0.29633292E+00 0.40727798E+03</pdfrwt>
<pdfrwt beam="2">  1       -2 0.33121901E-02 0.40727798E+03</pdfrwt>
<totfact> 0.29533111E+03</totfact>
</mgrwt>
</event>
<event>
 4    1  0.8362047E-005  0.1066776E+04  0.7818608E-02  0.9238193E-01
         -2   -1    0    0    0  501 -0.00000000000E+00  0.00000000000E+00  0.15768377000E+03  0.15768377002E+03  0.25500000000E-02 0. -1.
          2   -1    0    0  501    0  0.00000000000E+00 -0.00000000000E+00 -0.18042629418E+04  0.18042629418E+04  0.25500000000E-02 0.  1.
    5000001    1    1    2    0    0  0.32604186422E+03 -0.35809606135E+03 -0.11006389267E+04  0.12137409663E+04  0.16500000000E+03 0.  0.
   -5000001    1    1    2    0    0 -0.32604186422E+03  0.35809606135E+03 -0.54594024516E+03  0.74820574555E+03  0.16500000000E+03 0.  0.
<mgrwt>
<rscale>  0 0.10667764E+04</rscale>
<asrwt>0</asrwt>
<pdfrwt beam="1">  1        2 0.27757890E+00 0.10667764E+04</pdfrwt>
<pdfrwt beam="2">  1       -2 0.24259043E-01 0.10667764E+04</pdfrwt>
<totfact> 0.12943503E+02</totfact>
</mgrwt>
</event>
<event>
 4    1  0.8362047E-005  0.4428425E+03  0.7818608E-02  0.1029878E+00
          2   -1    0    0  501    0  0.00000000000E+00  0.00000000000E+00  0.45267067571E+03  0.45267067572E+03  0.25500000000E-02 0.  1.
         -2   -1    0    0    0  501 -0.00000000000E+00 -0.00000000000E+00 -0.10830690669E+03  0.10830690672E+03  0.25500000000E-02 0. -1.
    5000001    1    1    2    0    0 -0.41592568961E+02 -0.13921919118E+03  0.20546759721E+03  0.30092168165E+03  0.16500000000E+03 0.  0.
   -5000001    1    1    2    0    0  0.41592568961E+02  0.13921919118E+03  0.13889617182E+03  0.26005590078E+03  0.16500000000E+03 0.  0.
<mgrwt>
<rscale>  0 0.44284246E+03</rscale>
<asrwt>0</asrwt>
<pdfrwt beam="1">  1        2 0.69641641E-01 0.44284246E+03</pdfrwt>
<pdfrwt beam="2">  1       -2 0.16662601E-01 0.44284246E+03</pdfrwt>
<totfact> 0.20106036E+03</totfact>
</mgrwt>
</event>
<event>
 4    1  0.8362047E-005  0.5155084E+03  0.7818608E-02  0.1009808E+00
          2   -1    0    0  501    0  0.00000000000E+00  0.00000000000E+00  0.73473221508E+03  0.73473221509E+03  0.25500000000E-02 0.  1.
         -2   -1    0    0    0  501 -0.00000000000E+00 -0.00000000000E+00 -0.90423745293E+02  0.90423745329E+02  0.25500000000E-02 0. -1.
    5000001    1    1    2    0    0  0.16531747430E+03 -0.79990877221E+02  0.44068805676E+03  0.50513302319E+03  0.16500000000E+03 0.  0.
   -5000001    1    1    2    0    0 -0.16531747430E+03  0.79990877221E+02  0.20362041303E+03  0.32002293723E+03  0.16500000000E+03 0.  0.
<mgrwt>
<rscale>  0 0.51550844E+03</rscale>
<asrwt>0</asrwt>
<pdfrwt beam="1">  1        2 0.11303573E+00 0.51550844E+03</pdfrwt>
<pdfrwt beam="2">  1       -2 0.13911345E-01 0.51550844E+03</pdfrwt>
<totfact> 0.15354192E+03</totfact>
</mgrwt>
</event>
<event>
 4    1  0.8362047E-005  0.4667819E+03  0.7818608E-02  0.1022832E+00
          2   -1    0    0  501    0  0.00000000000E+00  0.00000000000E+00  0.25359459406E+03  0.25359459408E+03  0.25500000000E-02 0.  1.
         -2   -1    0    0    0  501 -0.00000000000E+00 -0.00000000000E+00 -0.21479691135E+03  0.21479691136E+03  0.25500000000E-02 0. -1.
    5000001    1    1    2    0    0 -0.80579348857E+02  0.12354066994E+03  0.93755694154E+02  0.24035486011E+03  0.16500000000E+03 0.  0.
   -5000001    1    1    2    0    0  0.80579348857E+02 -0.12354066994E+03 -0.54958011439E+02  0.22803664533E+03  0.16500000000E+03 0.  0.
<mgrwt>
<rscale>  0 0.46678190E+03</rscale>
<asrwt>0</asrwt>
<pdfrwt beam="1">  1        2 0.39014553E-01 0.46678190E+03</pdfrwt>
<pdfrwt beam="2">  1       -2 0.33045679E-01 0.46678190E+03</pdfrwt>
<totfact> 0.11310318E+03</totfact>
</mgrwt>
</event>
<event>
 4    1  0.8362047E-005  0.4958757E+03  0.7818608E-02  0.1014861E+00
          2   -1    0    0  501    0  0.00000000000E+00  0.00000000000E+00  0.17909410965E+03  0.17909410966E+03  0.25500000000E-02 0.  1.
         -2   -1    0    0    0  501 -0.00000000000E+00 -0.00000000000E+00 -0.34324512394E+03  0.34324512395E+03  0.25500000000E-02 0. -1.
    5000001    1    1    2    0    0 -0.85176910628E+02  0.13207638800E+03 -0.18500895478E+03  0.29351761739E+03  0.16500000000E+03 0.  0.
   -5000001    1    1    2    0    0  0.85176910628E+02 -0.13207638800E+03  0.20857940479E+02  0.22882161623E+03  0.16500000000E+03 0.  0.
<mgrwt>
<rscale>  0 0.49587571E+03</rscale>
<asrwt>0</asrwt>
<pdfrwt beam="1">  1        2 0.27552940E-01 0.49587571E+03</pdfrwt>
<pdfrwt beam="2">  1       -2 0.52806942E-01 0.49587571E+03</pdfrwt>
<totfact> 0.66709549E+02</totfact>
</mgrwt>
</event>
<event>
 4    1  0.8362047E-005  0.4341683E+03  0.7818608E-02  0.1032551E+00
          2   -1    0    0  501    0  0.00000000000E+00  0.00000000000E+00  0.76818912889E+02  0.76818912931E+02  0.25500000000E-02 0.  1.
         -2   -1    0    0    0  501 -0.00000000000E+00 -0.00000000000E+00 -0.61346268485E+03  0.61346268486E+03  0.25500000000E-02 0. -1.
    5000001    1    1    2    0    0 -0.29984228814E+02  0.13702282076E+03 -0.29223534808E+03  0.36373177762E+03  0.16500000000E+03 0.  0.
   -5000001    1    1    2    0    0  0.29984228814E+02 -0.13702282076E+03 -0.24440842389E+03  0.32654982017E+03  0.16500000000E+03 0.  0.
<mgrwt>
<rscale>  0 0.43416834E+03</rscale>
<asrwt>0</asrwt>
<pdfrwt beam="1">  1        2 0.11818295E-01 0.43416834E+03</pdfrwt>
<pdfrwt beam="2">  1       -2 0.94378871E-01 0.43416834E+03</pdfrwt>
<totfact> 0.51342999E+02</totfact>
</mgrwt>
</event>
<event>
 4    1  0.8362047E-005  0.6651431E+03  0.7818608E-02  0.9778772E-01
         -2   -1    0    0    0  501 -0.00000000000E+00  0.00000000000E+00  0.33093221141E+03  0.33093221141E+03  0.25500000000E-02 0. -1.
          2   -1    0    0  501    0  0.00000000000E+00 -0.00000000000E+00 -0.33421902169E+03  0.33421902170E+03  0.25500000000E-02 0.  1.
    5000001    1    1    2    0    0  0.19947230069E+03  0.14857324335E+03  0.14504046562E+03  0.33185078582E+03  0.16500000000E+03 0.  0.
   -5000001    1    1    2    0    0 -0.19947230069E+03 -0.14857324335E+03 -0.14832727590E+03  0.33330044729E+03  0.16500000000E+03 0.  0.
<mgrwt>
<rscale>  0 0.66514311E+03</rscale>
<asrwt>0</asrwt>
<pdfrwt beam="1">  1        2 0.51418311E-01 0.66514311E+03</pdfrwt>
<pdfrwt beam="2">  1       -2 0.50912648E-01 0.66514311E+03</pdfrwt>
<totfact> 0.35821636E+02</totfact>
</mgrwt>
</event>
<event>
 4    1  0.8362047E-005  0.4900574E+03  0.7818608E-02  0.1016407E+00
          2   -1    0    0  501    0  0.00000000000E+00  0.00000000000E+00  0.11860176099E+04  0.11860176099E+04  0.25500000000E-02 0.  1.
         -2   -1    0    0    0  501 -0.00000000000E+00 -0.00000000000E+00 -0.50622413859E+02  0.50622413923E+02  0.25500000000E-02 0. -1.
    5000001    1    1    2    0    0 -0.98540047929E+02 -0.69321581914E+02  0.22634479044E+03  0.30491406482E+03  0.16500000000E+03 0.  0.
   -5000001    1    1    2    0    0  0.98540047929E+02  0.69321581914E+02  0.90905040560E+03  0.93172595900E+03  0.16500000000E+03 0.  0.
<mgrwt>
<rscale>  0 0.49005744E+03</rscale>
<asrwt>0</asrwt>
<pdfrwt beam="1">  1        2 0.18246424E+00 0.49005744E+03</pdfrwt>
<pdfrwt beam="2">  1       -2 0.77880639E-02 0.49005744E+03</pdfrwt>
<totfact> 0.20038092E+03</totfact>
</mgrwt>
</event>
<event>
 4    1  0.8362047E-005  0.6994527E+03  0.7818608E-02  0.9718169E-01
          2   -1    0    0  501    0  0.00000000000E+00  0.00000000000E+00  0.10706076535E+04  0.10706076535E+04  0.25500000000E-02 0.  1.
         -2   -1    0    0    0  501 -0.00000000000E+00 -0.00000000000E+00 -0.11424215097E+03  0.11424215100E+03  0.25500000000E-02 0. -1.
    5000001    1    1    2    0    0 -0.19985436248E+03 -0.23293272861E+03  0.52855082956E+03  0.63308009105E+03  0.16500000000E+03 0.  0.
   -5000001    1    1    2    0    0  0.19985436248E+03  0.23293272861E+03  0.42781467292E+03  0.55176971340E+03  0.16500000000E+03 0.  0.
<mgrwt>
<rscale>  0 0.69945270E+03</rscale>
<asrwt>0</asrwt>
<pdfrwt beam="1">  1        2 0.16470887E+00 0.69945270E+03</pdfrwt>
<pdfrwt beam="2">  1       -2 0.17575716E-01 0.69945270E+03</pdfrwt>
<totfact> 0.61187852E+02</totfact>
</mgrwt>
</event>
<event>
 4    1  0.8362047E-005  0.5474902E+03  0.7818608E-02  0.1002077E+00
         -2   -1    0    0    0  501 -0.00000000000E+00  0.00000000000E+00  0.23113390504E+03  0.23113390505E+03  0.25500000000E-02 0. -1.
          2   -1    0    0  501    0  0.00000000000E+00 -0.00000000000E+00 -0.32421197420E+03  0.32421197421E+03  0.25500000000E-02 0.  1.
    5000001    1    1    2    0    0  0.37980930133E+02  0.15039147873E+03 -0.20253525852E+03  0.30381849660E+03  0.16500000000E+03 0.  0.
   -5000001    1    1    2    0    0 -0.37980930133E+02 -0.15039147873E+03  0.10945718935E+03  0.25152738267E+03  0.16500000000E+03 0.  0.
<mgrwt>
<rscale>  0 0.54749020E+03</rscale>
<asrwt>0</asrwt>
<pdfrwt beam="1">  1        2 0.49878765E-01 0.54749020E+03</pdfrwt>
<pdfrwt beam="2">  1       -2 0.35559062E-01 0.54749020E+03</pdfrwt>
<totfact> 0.75187379E+02</totfact>
</mgrwt>
</event>
<event>
 4    1  0.8362047E-005  0.5839064E+03  0.7818608E-02  0.9939369E-01
         -2   -1    0    0    0  501 -0.00000000000E+00  0.00000000000E+00  0.40042525799E+02  0.40042525880E+02  0.25500000000E-02 0. -1.
          2   -1    0    0  501    0  0.00000000000E+00 -0.00000000000E+00 -0.21286538402E+04  0.21286538402E+04  0.25500000000E-02 0.  1.
    5000001    1    1    2    0    0 -0.53132412032E+01 -0.23767377477E+03 -0.11878946944E+04  0.12226348019E+04  0.16500000000E+03 0.  0.
   -5000001    1    1    2    0    0  0.53132412032E+01  0.23767377477E+03 -0.90071662003E+03  0.94606156425E+03  0.16500000000E+03 0.  0.
<mgrwt>
<rscale>  0 0.58390642E+03</rscale>
<asrwt>0</asrwt>
<pdfrwt beam="1">  1        2 0.32748512E+00 0.58390642E+03</pdfrwt>
<pdfrwt beam="2">  1       -2 0.61603902E-02 0.58390642E+03</pdfrwt>
<totfact> 0.87587594E+02</totfact>
</mgrwt>
</event>
<event>
 4    1  0.8362047E-005  0.4394478E+03  0.7818608E-02  0.1030916E+00
         -2   -1    0    0    0  501 -0.00000000000E+00  0.00000000000E+00  0.26637287662E+02  0.26637287784E+02  0.25500000000E-02 0. -1.
          2   -1    0    0  501    0  0.00000000000E+00 -0.00000000000E+00 -0.18124437493E+04  0.18124437493E+04  0.25500000000E-02 0.  1.
    5000001    1    1    2    0    0  0.11266801884E+02  0.89837406853E+02 -0.41839407879E+03  0.45877696723E+03  0.16500000000E+03 0.  0.
   -5000001    1    1    2    0    0 -0.11266801884E+02 -0.89837406853E+02 -0.13674123829E+04  0.13803040699E+04  0.16500000000E+03 0.  0.
<mgrwt>
<rscale>  0 0.43944777E+03</rscale>
<asrwt>0</asrwt>
<pdfrwt beam="1">  1        2 0.27883740E+00 0.43944777E+03</pdfrwt>
<pdfrwt beam="2">  1       -2 0.40980457E-02 0.43944777E+03</pdfrwt>
<totfact> 0.24554205E+03</totfact>
</mgrwt>
</event>
<event>
 4    1  0.8362047E-005  0.3616579E+03  0.7818608E-02  0.1057929E+00
         -2   -1    0    0    0  501 -0.00000000000E+00  0.00000000000E+00  0.41715569426E+03  0.41715569427E+03  0.25500000000E-02 0. -1.
          2   -1    0    0  501    0  0.00000000000E+00 -0.00000000000E+00 -0.78385865307E+02  0.78385865348E+02  0.25500000000E-02 0.  1.
    5000001    1    1    2    0    0 -0.44730683120E+01 -0.69110341145E+02  0.20505900578E+03  0.27215885701E+03  0.16500000000E+03 0.  0.
   -5000001    1    1    2    0    0  0.44730683120E+01  0.69110341145E+02  0.13371082317E+03  0.22338270261E+03  0.16500000000E+03 0.  0.
<mgrwt>
<rscale>  0 0.36165791E+03</rscale>
<asrwt>0</asrwt>
<pdfrwt beam="1">  1        2 0.12059363E-01 0.36165791E+03</pdfrwt>
<pdfrwt beam="2">  1       -2 0.64177801E-01 0.36165791E+03</pdfrwt>
<totfact> 0.11728870E+03</totfact>
</mgrwt>
</event>
<event>
 4    1  0.8362047E-005  0.9452577E+03  0.7818608E-02  0.9370711E-01
          2   -1    0    0  501    0  0.00000000000E+00  0.00000000000E+00  0.28895690667E+04  0.28895690667E+04  0.25500000000E-02 0.  1.
         -2   -1    0    0    0  501 -0.00000000000E+00 -0.00000000000E+00 -0.77304962330E+02  0.77304962372E+02  0.25500000000E-02 0. -1.
    5000001    1    1    2    0    0  0.18745486494E+03  0.22159092885E+03  0.24561230779E+04  0.24787108424E+04  0.16500000000E+03 0.  0.
   -5000001    1    1    2    0    0 -0.18745486494E+03 -0.22159092885E+03  0.35614102644E+03  0.48816318671E+03  0.16500000000E+03 0.  0.
<mgrwt>
<rscale>  0 0.94525770E+03</rscale>
<asrwt>0</asrwt>
<pdfrwt beam="1">  1        2 0.44454900E+00 0.94525770E+03</pdfrwt>
<pdfrwt beam="2">  1       -2 0.11893073E-01 0.94525770E+03</pdfrwt>
<totfact> 0.10834141E+02</totfact>
</mgrwt>
</event>
<event>
 4    1  0.8362047E-005  0.3998149E+03  0.7818608E-02  0.1043844E+00
         -2   -1    0    0    0  501 -0.00000000000E+00  0.00000000000E+00  0.24795923271E+02  0.24795923402E+02  0.25500000000E-02 0. -1.
          2   -1    0    0  501    0  0.00000000000E+00 -0.00000000000E+00 -0.16116761516E+04  0.16116761516E+04  0.25500000000E-02 0.  1.
    5000001    1    1    2    0    0 -0.49956735337E+02  0.10097264946E+03 -0.82145509094E+03  0.84540204505E+03  0.16500000000E+03 0.  0.
   -5000001    1    1    2    0    0  0.49956735337E+02 -0.10097264946E+03 -0.76542513743E+03  0.79107002999E+03  0.16500000000E+03 0.  0.
<mgrwt>
<rscale>  0 0.39981495E+03</rscale>
<asrwt>0</asrwt>
<pdfrwt beam="1">  1        2 0.24795009E+00 0.39981495E+03</pdfrwt>
<pdfrwt beam="2">  1       -2 0.38147587E-02 0.39981495E+03</pdfrwt>
<totfact> 0.35115928E+03</totfact>
</mgrwt>
</event>
<event>
 4    1  0.8362047E-005  0.4936747E+03  0.7818608E-02  0.1015443E+00
          2   -1    0    0  501    0  0.00000000000E+00  0.00000000000E+00  0.15245000742E+04  0.15245000742E+04  0.25500000000E-02 0.  1.
         -2   -1    0    0    0  501 -0.00000000000E+00 -0.00000000000E+00 -0.39966336936E+02  0.39966337017E+02  0.25500000000E-02 0. -1.
    5000001    1    1    2    0    0 -0.16166838227E+03  0.45471561642E+02  0.50725963758E+03  0.55923310762E+03  0.16500000000E+03 0.  0.
   -5000001    1    1    2    0    0  0.16166838227E+03 -0.45471561642E+02  0.97727409970E+03  0.10052333036E+04  0.16500000000E+03 0.  0.
<mgrwt>
<rscale>  0 0.49367473E+03</rscale>
<asrwt>0</asrwt>
<pdfrwt beam="1">  1        2 0.23453845E+00 0.49367473E+03</pdfrwt>
<pdfrwt beam="2">  1       -2 0.61486678E-02 0.49367473E+03</pdfrwt>
<totfact> 0.18739642E+03</totfact>
</mgrwt>
</event>
<event>
 4    1  0.8362047E-005  0.4548355E+03  0.7818608E-02  0.1026290E+00
         -2   -1    0    0    0  501 -0.00000000000E+00  0.00000000000E+00  0.11335404677E+04  0.11335404677E+04  0.25500000000E-02 0. -1.
          2   -1    0    0  501    0  0.00000000000E+00 -0.00000000000E+00 -0.45625918760E+02  0.45625918832E+02  0.25500000000E-02 0.  1.
    5000001    1    1    2    0    0  0.69913445011E+02 -0.13148931711E+03  0.66873482478E+03  0.70470461626E+03  0.16500000000E+03 0.  0.
   -5000001    1    1    2    0    0 -0.69913445011E+02  0.13148931711E+03  0.41917972421E+03  0.47446177032E+03  0.16500000000E+03 0.  0.
<mgrwt>
<rscale>  0 0.45483547E+03</rscale>
<asrwt>0</asrwt>
<pdfrwt beam="1">  1        2 0.70193716E-02 0.45483547E+03</pdfrwt>
<pdfrwt beam="2">  1       -2 0.17439086E+00 0.45483547E+03</pdfrwt>
<totfact> 0.21329462E+02</totfact>
</mgrwt>
</event>
<event>
 4    1  0.8362047E-005  0.3614928E+03  0.7818608E-02  0.1057994E+00
          2   -1    0    0  501    0  0.00000000000E+00  0.00000000000E+00  0.12049975734E+03  0.12049975736E+03  0.25500000000E-02 0.  1.
         -2   -1    0    0    0  501 -0.00000000000E+00 -0.00000000000E+00 -0.27111481448E+03  0.27111481449E+03  0.25500000000E-02 0. -1.
    5000001    1    1    2    0    0  0.26605983505E+02 -0.35129498648E+02 -0.11195962252E+02  0.17114996233E+03  0.16500000000E+03 0.  0.
   -5000001    1    1    2    0    0 -0.26605983505E+02  0.35129498648E+02 -0.13941909489E+03  0.22046460953E+03  0.16500000000E+03 0.  0.
<mgrwt>
<rscale>  0 0.36149285E+03</rscale>
<asrwt>0</asrwt>
<pdfrwt beam="1">  1        2 0.18538424E-01 0.36149285E+03</pdfrwt>
<pdfrwt beam="2">  1       -2 0.41709971E-01 0.36149285E+03</pdfrwt>
<totfact> 0.16760458E+03</totfact>
</mgrwt>
</event>
<event>
 4    1  0.8362047E-005  0.5906646E+03  0.7818608E-02  0.9924965E-01
         -2   -1    0    0    0  501 -0.00000000000E+00  0.00000000000E+00  0.25066309783E+02  0.25066309913E+02  0.25500000000E-02 0. -1.
          2   -1    0    0  501    0  0.00000000000E+00 -0.00000000000E+00 -0.34796177200E+04  0.34796177200E+04  0.25500000000E-02 0.  1.
    5000001    1    1    2    0    0  0.43764710392E+02 -0.17278243522E+03 -0.27241506909E+04  0.27349572403E+04  0.16500000000E+03 0.  0.
   -5000001    1    1    2    0    0 -0.43764710392E+02  0.17278243522E+03 -0.73040071930E+03  0.76972678955E+03  0.16500000000E+03 0.  0.
<mgrwt>
<rscale>  0 0.59066463E+03</rscale>
<asrwt>0</asrwt>
<pdfrwt beam="1">  1        2 0.53532542E+00 0.59066463E+03</pdfrwt>
<pdfrwt beam="2">  1       -2 0.38563581E-02 0.59066463E+03</pdfrwt>
<totfact> 0.28461318E+02</totfact>
</mgrwt>
</event>
<event>
 4    1  0.8362047E-005  0.1104437E+04  0.7818608E-02  0.9200878E-01
         -2   -1    0    0    0  501 -0.00000000000E+00  0.00000000000E+00  0.38796852370E+03  0.38796852371E+03  0.25500000000E-02 0. -1.
          2   -1    0    0  501    0  0.00000000000E+00 -0.00000000000E+00 -0.78600502406E+03  0.78600502406E+03  0.25500000000E-02 0.  1.
    5000001    1    1    2    0    0  0.92132860555E+02 -0.19999256550E+03  0.30991122663E+03  0.41443390141E+03  0.16500000000E+03 0.  0.
   -5000001    1    1    2    0    0 -0.92132860555E+02  0.19999256550E+03 -0.70794772699E+03  0.75953964636E+03  0.16500000000E+03 0.  0.
<mgrwt>
<rscale>  0 0.11044369E+04</rscale>
<asrwt>0</asrwt>
<pdfrwt beam="1">  1        2 0.12092385E+00 0.11044369E+04</pdfrwt>
<pdfrwt beam="2">  1       -2 0.59687465E-01 0.11044369E+04</pdfrwt>
<totfact> 0.91694158E+01</totfact>
</mgrwt>
</event>
<event>
 4    1  0.8362047E-005  0.5524574E+03  0.7818608E-02  0.1000927E+00
         -2   -1    0    0    0  501 -0.00000000000E+00  0.00000000000E+00  0.79389935184E+02  0.79389935225E+02  0.25500000000E-02 0. -1.
          2   -1    0    0  501    0  0.00000000000E+00 -0.00000000000E+00 -0.96110791713E+03  0.96110791713E+03  0.25500000000E-02 0.  1.
    5000001    1    1    2    0    0  0.56731433339E+02 -0.10992085412E+03 -0.94721948884E+02  0.22693236283E+03  0.16500000000E+03 0.  0.
   -5000001    1    1    2    0    0 -0.56731433339E+02  0.10992085412E+03 -0.78699603306E+03  0.81356548953E+03  0.16500000000E+03 0.  0.
<mgrwt>
<rscale>  0 0.55245740E+03</rscale>
<asrwt>0</asrwt>
<pdfrwt beam="1">  1        2 0.14786275E+00 0.55245740E+03</pdfrwt>
<pdfrwt beam="2">  1       -2 0.12213837E-01 0.55245740E+03</pdfrwt>
<totfact> 0.13287303E+03</totfact>
</mgrwt>
</event>
<event>
 4    1  0.8362047E-005  0.6523933E+03  0.7818608E-02  0.9802299E-01
         -2   -1    0    0    0  501 -0.00000000000E+00  0.00000000000E+00  0.40318386835E+02  0.40318386916E+02  0.25500000000E-02 0. -1.
          2   -1    0    0  501    0  0.00000000000E+00 -0.00000000000E+00 -0.26390996920E+04  0.26390996920E+04  0.25500000000E-02 0.  1.
    5000001    1    1    2    0    0 -0.13674167688E+03 -0.21487185212E+03 -0.80806813950E+03  0.86317281995E+03  0.16500000000E+03 0.  0.
   -5000001    1    1    2    0    0  0.13674167688E+03  0.21487185212E+03 -0.17907131657E+04  0.18162452590E+04  0.16500000000E+03 0.  0.
<mgrwt>
<rscale>  0 0.65239326E+03</rscale>
<asrwt>0</asrwt>
<pdfrwt beam="1">  1        2 0.40601520E+00 0.65239326E+03</pdfrwt>
<pdfrwt beam="2">  1       -2 0.62028308E-02 0.65239326E+03</pdfrwt>
<totfact> 0.44739616E+02</totfact>
</mgrwt>
</event>
<event>
 4    1  0.8362047E-005  0.5142720E+03  0.7818608E-02  0.1010119E+00
          2   -1    0    0  501    0  0.00000000000E+00  0.00000000000E+00  0.21122170960E+04  0.21122170960E+04  0.25500000000E-02 0.  1.
         -2   -1    0    0    0  501 -0.00000000000E+00 -0.00000000000E+00 -0.31303089978E+02  0.31303090082E+02  0.25500000000E-02 0. -1.
    5000001    1    1    2    0    0 -0.10701411000E+03 -0.16553570132E+03  0.10141506636E+04  0.10462220876E+04  0.16500000000E+03 0.  0.
   -5000001    1    1    2    0    0  0.10701411000E+03  0.16553570132E+03  0.10667633425E+04  0.10972980985E+04  0.16500000000E+03 0.  0.
<mgrwt>
<rscale>  0 0.51427200E+03</rscale>
<asrwt>0</asrwt>
<pdfrwt beam="1">  1        2 0.32495656E+00 0.51427200E+03</pdfrwt>
<pdfrwt beam="2">  1       -2 0.48158588E-02 0.51427200E+03</pdfrwt>
<totfact> 0.13175348E+03</totfact>
</mgrwt>
</event>
<event>
 4    1  0.8362047E-005  0.8124863E+03  0.7818608E-02  0.9542117E-01
         -2   -1    0    0    0  501 -0.00000000000E+00  0.00000000000E+00  0.42205921230E+02  0.42205921307E+02  0.25500000000E-02 0. -1.
          2   -1    0    0  501    0  0.00000000000E+00 -0.00000000000E+00 -0.39101979793E+04  0.39101979793E+04  0.25500000000E-02 0.  1.
    5000001    1    1    2    0    0 -0.55849774984E+02  0.36157400849E+03 -0.22398673196E+04  0.22755407204E+04  0.16500000000E+03 0.  0.
   -5000001    1    1    2    0    0  0.55849774984E+02 -0.36157400849E+03 -0.16281247385E+04  0.16768631802E+04  0.16500000000E+03 0.  0.
<mgrwt>
<rscale>  0 0.81248633E+03</rscale>
<asrwt>0</asrwt>
<pdfrwt beam="1">  1        2 0.60156863E+00 0.81248633E+03</pdfrwt>
<pdfrwt beam="2">  1       -2 0.64932217E-02 0.81248633E+03</pdfrwt>
<totfact> 0.60097983E+01</totfact>
</mgrwt>
</event>
<event>
 4    1  0.8362047E-005  0.3664807E+03  0.7818608E-02  0.1056047E+00
          2   -1    0    0  501    0  0.00000000000E+00  0.00000000000E+00  0.72982971186E+03  0.72982971186E+03  0.25500000000E-02 0.  1.
         -2   -1    0    0    0  501 -0.00000000000E+00 -0.00000000000E+00 -0.46006646388E+02  0.46006646458E+02  0.25500000000E-02 0. -1.
    5000001    1    1    2    0    0  0.24384318997E+02 -0.75300220062E+02  0.36169145514E+03  0.40535222569E+03  0.16500000000E+03 0.  0.
   -5000001    1    1    2    0    0 -0.24384318997E+02  0.75300220062E+02  0.32213161034E+03  0.37048413263E+03  0.16500000000E+03 0.  0.
<mgrwt>
<rscale>  0 0.36648065E+03</rscale>
<asrwt>0</asrwt>
<pdfrwt beam="1">  1        2 0.11228150E+00 0.36648065E+03</pdfrwt>
<pdfrwt beam="2">  1       -2 0.70779455E-02 0.36648065E+03</pdfrwt>
<totfact> 0.45848570E+03</totfact>
</mgrwt>
</event>
<event>
 4    1  0.8362047E-005  0.6919424E+03  0.7818608E-02  0.9731112E-01
         -2   -1    0    0    0  501 -0.00000000000E+00  0.00000000000E+00  0.39593456903E+02  0.39593456986E+02  0.25500000000E-02 0. -1.
          2   -1    0    0  501    0  0.00000000000E+00 -0.00000000000E+00 -0.30231272181E+04  0.30231272181E+04  0.25500000000E-02 0.  1.
    5000001    1    1    2    0    0  0.97459113941E+02 -0.28030941209E+03 -0.17853525057E+04  0.18173552804E+04  0.16500000000E+03 0.  0.
   -5000001    1    1    2    0    0 -0.97459113941E+02  0.28030941209E+03 -0.11981812555E+04  0.12453653947E+04  0.16500000000E+03 0.  0.
<mgrwt>
<rscale>  0 0.69194236E+03</rscale>
<asrwt>0</asrwt>
<pdfrwt beam="1">  1        2 0.46509631E+00 0.69194236E+03</pdfrwt>
<pdfrwt beam="2">  1       -2 0.60913035E-02 0.69194236E+03</pdfrwt>
<totfact> 0.27142040E+02</totfact>
</mgrwt>
</event>
<event>
 4    1  0.8362047E-005  0.6624159E+03  0.7818608E-02  0.9783757E-01
         -2   -1    0    0    0  501 -0.00000000000E+00  0.00000000000E+00  0.97815282527E+02  0.97815282561E+02  0.25500000000E-02 0. -1.
          2   -1    0    0  501    0  0.00000000000E+00 -0.00000000000E+00 -0.11214882921E+04  0.11214882921E+04  0.25500000000E-02 0.  1.
    5000001    1    1    2    0    0  0.39488510844E+01  0.24157378008E+03 -0.79758998707E+03  0.84955769205E+03  0.16500000000E+03 0.  0.
   -5000001    1    1    2    0    0 -0.39488510844E+01 -0.24157378008E+03 -0.22608302250E+03  0.36974588261E+03  0.16500000000E+03 0.  0.
<mgrwt>
<rscale>  0 0.66241586E+03</rscale>
<asrwt>0</asrwt>
<pdfrwt beam="1">  1        2 0.17253665E+00 0.66241586E+03</pdfrwt>
<pdfrwt beam="2">  1       -2 0.15048506E-01 0.66241586E+03</pdfrwt>
<totfact> 0.74314214E+02</totfact>
</mgrwt>
</event>
<event>
 4    1  0.8362047E-005  0.3927873E+03  0.7818608E-02  0.1046306E+00
         -2   -1    0    0    0  501 -0.00000000000E+00  0.00000000000E+00  0.20797438085E+03  0.20797438086E+03  0.25500000000E-02 0. -1.
          2   -1    0    0  501    0  0.00000000000E+00 -0.00000000000E+00 -0.18545782042E+03  0.18545782044E+03  0.25500000000E-02 0.  1.
    5000001    1    1    2    0    0 -0.60445971003E+02 -0.74530997393E+02  0.57560683707E+02  0.19936603846E+03  0.16500000000E+03 0.  0.
   -5000001    1    1    2    0    0  0.60445971003E+02  0.74530997393E+02 -0.35044123275E+02  0.19406616284E+03  0.16500000000E+03 0.  0.
<mgrwt>
<rscale>  0 0.39278735E+03</rscale>
<asrwt>0</asrwt>
<pdfrwt beam="1">  1        2 0.28531972E-01 0.39278735E+03</pdfrwt>
<pdfrwt beam="2">  1       -2 0.31996059E-01 0.39278735E+03</pdfrwt>
<totfact> 0.16956172E+03</totfact>
</mgrwt>
</event>
<event>
 4    1  0.8362047E-005  0.5561389E+03  0.7818608E-02  0.1000083E+00
          2   -1    0    0  501    0  0.00000000000E+00  0.00000000000E+00  0.14973747011E+04  0.14973747011E+04  0.25500000000E-02 0.  1.
         -2   -1    0    0    0  501 -0.00000000000E+00 -0.00000000000E+00 -0.51638794616E+02  0.51638794679E+02  0.25500000000E-02 0. -1.
    5000001    1    1    2    0    0 -0.20551565591E+02  0.19924206779E+03  0.44464655165E+03  0.51483523997E+03  0.16500000000E+03 0.  0.
   -5000001    1    1    2    0    0  0.20551565591E+02 -0.19924206779E+03  0.10010893549E+04  0.10341782558E+04  0.16500000000E+03 0.  0.
<mgrwt>
<rscale>  0 0.55613892E+03</rscale>
<asrwt>0</asrwt>
<pdfrwt beam="1">  1        2 0.23036531E+00 0.55613892E+03</pdfrwt>
<pdfrwt beam="2">  1       -2 0.79444308E-02 0.55613892E+03</pdfrwt>
<totfact> 0.12919773E+03</totfact>
</mgrwt>
</event>
<event>
 4    1  0.8362047E-005  0.4794327E+03  0.7818608E-02  0.1019291E+00
          2   -1    0    0  501    0  0.00000000000E+00  0.00000000000E+00  0.59020971497E+03  0.59020971498E+03  0.25500000000E-02 0.  1.
         -2   -1    0    0    0  501 -0.00000000000E+00 -0.00000000000E+00 -0.97361872598E+02  0.97361872631E+02  0.25500000000E-02 0. -1.
    5000001    1    1    2    0    0 -0.17329716352E+03  0.11279202930E+02  0.25923483969E+03  0.35296859550E+03  0.16500000000E+03 0.  0.
   -5000001    1    1    2    0    0  0.17329716352E+03 -0.11279202930E+02  0.23361300269E+03  0.33460299211E+03  0.16500000000E+03 0.  0.
<mgrwt>
<rscale>  0 0.47943268E+03</rscale>
<asrwt>0</asrwt>
<pdfrwt beam="1">  1        2 0.90801495E-01 0.47943268E+03</pdfrwt>
<pdfrwt beam="2">  1       -2 0.14978750E-01 0.47943268E+03</pdfrwt>
<totfact> 0.17736466E+03</totfact>
</mgrwt>
</event>
<event>
 4    1  0.8362047E-005  0.5727392E+03  0.7818608E-02  0.9963635E-01
          2   -1    0    0  501    0  0.00000000000E+00  0.00000000000E+00  0.32395550442E+03  0.32395550443E+03  0.25500000000E-02 0.  1.
         -2   -1    0    0    0  501 -0.00000000000E+00 -0.00000000000E+00 -0.25314446502E+03  0.25314446503E+03  0.25500000000E-02 0. -1.
    5000001    1    1    2    0    0  0.21277866387E+03 -0.30831336546E+02 -0.57804005415E+02  0.27711303497E+03  0.16500000000E+03 0.  0.
   -5000001    1    1    2    0    0 -0.21277866387E+03  0.30831336546E+02  0.12861504482E+03  0.29998693449E+03  0.16500000000E+03 0.  0.
<mgrwt>
<rscale>  0 0.57273918E+03</rscale>
<asrwt>0</asrwt>
<pdfrwt beam="1">  1        2 0.49839308E-01 0.57273918E+03</pdfrwt>
<pdfrwt beam="2">  1       -2 0.38945302E-01 0.57273918E+03</pdfrwt>
<totfact> 0.63208213E+02</totfact>
</mgrwt>
</event>
<event>
 4    1  0.8362047E-005  0.6495266E+03  0.7818608E-02  0.9807668E-01
         -2   -1    0    0    0  501 -0.00000000000E+00  0.00000000000E+00  0.88515502738E+02  0.88515502775E+02  0.25500000000E-02 0. -1.
          2   -1    0    0  501    0  0.00000000000E+00 -0.00000000000E+00 -0.11915564225E+04  0.11915564225E+04  0.25500000000E-02 0.  1.
    5000001    1    1    2    0    0 -0.42512394983E+01  0.12433813298E+03 -0.57770424910E+02  0.21457042281E+03  0.16500000000E+03 0.  0.
   -5000001    1    1    2    0    0  0.42512394983E+01 -0.12433813298E+03 -0.10452704949E+04  0.10655015025E+04  0.16500000000E+03 0.  0.
<mgrwt>
<rscale>  0 0.64952665E+03</rscale>
<asrwt>0</asrwt>
<pdfrwt beam="1">  1        2 0.18331636E+00 0.64952665E+03</pdfrwt>
<pdfrwt beam="2">  1       -2 0.13617771E-01 0.64952665E+03</pdfrwt>
<totfact> 0.79855842E+02</totfact>
</mgrwt>
</event>
<event>
 4    1  0.8362047E-005  0.5735796E+03  0.7818608E-02  0.9961789E-01
         -2   -1    0    0    0  501 -0.00000000000E+00  0.00000000000E+00  0.91096752327E+02  0.91096752363E+02  0.25500000000E-02 0. -1.
          2   -1    0    0  501    0  0.00000000000E+00 -0.00000000000E+00 -0.90286860475E+03  0.90286860476E+03  0.25500000000E-02 0.  1.
    5000001    1    1    2    0    0 -0.16082161065E+03 -0.57964724520E+02 -0.12753893992E+03  0.26965659817E+03  0.16500000000E+03 0.  0.
   -5000001    1    1    2    0    0  0.16082161065E+03  0.57964724520E+02 -0.68423291250E+03  0.72430875895E+03  0.16500000000E+03 0.  0.
<mgrwt>
<rscale>  0 0.57357963E+03</rscale>
<asrwt>0</asrwt>
<pdfrwt beam="1">  1        2 0.13890286E+00 0.57357963E+03</pdfrwt>
<pdfrwt beam="2">  1       -2 0.14014886E-01 0.57357963E+03</pdfrwt>
<totfact> 0.11541263E+03</totfact>
</mgrwt>
</event>
<event>
 4    1  0.8362047E-005  0.4596598E+03  0.7818608E-02  0.1024880E+00
         -2   -1    0    0    0  501 -0.00000000000E+00  0.00000000000E+00  0.26736882058E+03  0.26736882060E+03  0.25500000000E-02 0. -1.
          2   -1    0    0  501    0  0.00000000000E+00 -0.00000000000E+00 -0.19756152979E+03  0.19756152980E+03  0.25500000000E-02 0.  1.
    5000001    1    1    2    0    0  0.10351485593E+03 -0.12198241283E+03  0.33562248457E+02  0.23226377022E+03  0.16500000000E+03 0.  0.
   -5000001    1    1    2    0    0 -0.10351485593E+03  0.12198241283E+03  0.36245042341E+02  0.23266658018E+03  0.16500000000E+03 0.  0.
<mgrwt>
<rscale>  0 0.45965984E+03</rscale>
<asrwt>0</asrwt>
<pdfrwt beam="1">  1        2 0.30394082E-01 0.45965984E+03</pdfrwt>
<pdfrwt beam="2">  1       -2 0.41133665E-01 0.45965984E+03</pdfrwt>
<totfact> 0.98267988E+02</totfact>
</mgrwt>
</event>
<event>
 4    1  0.8362047E-005  0.6924805E+03  0.7818608E-02  0.9730179E-01
          2   -1    0    0  501    0  0.00000000000E+00  0.00000000000E+00  0.78370039455E+03  0.78370039456E+03  0.25500000000E-02 0.  1.
         -2   -1    0    0    0  501 -0.00000000000E+00 -0.00000000000E+00 -0.15296957450E+03  0.15296957452E+03  0.25500000000E-02 0. -1.
    5000001    1    1    2    0    0  0.74719071616E+02 -0.29180335011E+03  0.25601621492E+03  0.42837067722E+03  0.16500000000E+03 0.  0.
   -5000001    1    1    2    0    0 -0.74719071616E+02  0.29180335011E+03  0.37471460514E+03  0.50829929186E+03  0.16500000000E+03 0.  0.
<mgrwt>
<rscale>  0 0.69248051E+03</rscale>
<asrwt>0</asrwt>
<pdfrwt beam="1">  1        2 0.12056929E+00 0.69248051E+03</pdfrwt>
<pdfrwt beam="2">  1       -2 0.23533780E-01 0.69248051E+03</pdfrwt>
<totfact> 0.56921705E+02</totfact>
</mgrwt>
</event>
<event>
 4    1  0.8362047E-005  0.4496566E+03  0.7818608E-02  0.1027824E+00
          2   -1    0    0  501    0  0.00000000000E+00  0.00000000000E+00  0.56764859592E+03  0.56764859593E+03  0.25500000000E-02 0.  1.
         -2   -1    0    0    0  501 -0.00000000000E+00 -0.00000000000E+00 -0.89047629757E+02  0.89047629793E+02  0.25500000000E-02 0. -1.
    5000001    1    1    2    0    0  0.88784667888E+02 -0.65973633443E+02  0.85520129949E+02  0.21627281426E+03  0.16500000000E+03 0.  0.
   -5000001    1    1    2    0    0 -0.88784667888E+02  0.65973633443E+02  0.39308083621E+03  0.44042341146E+03  0.16500000000E+03 0.  0.
<mgrwt>
<rscale>  0 0.44965659E+03</rscale>
<asrwt>0</asrwt>
<pdfrwt beam="1">  1        2 0.87330550E-01 0.44965659E+03</pdfrwt>
<pdfrwt beam="2">  1       -2 0.13699636E-01 0.44965659E+03</pdfrwt>
<totfact> 0.21540435E+03</totfact>
</mgrwt>
</event>
<event>
 4    1  0.8362047E-005  0.7791625E+03  0.7818608E-02  0.9590678E-01
         -2   -1    0    0    0  501 -0.00000000000E+00  0.00000000000E+00  0.31606392812E+03  0.31606392813E+03  0.25500000000E-02 0. -1.
          2   -1    0    0  501    0  0.00000000000E+00 -0.00000000000E+00 -0.48019894260E+03  0.48019894260E+03  0.25500000000E-02 0.  1.
    5000001    1    1    2    0    0 -0.17215876801E+03  0.27506397084E+03  0.59720917201E+02  0.36890434724E+03  0.16500000000E+03 0.  0.
   -5000001    1    1    2    0    0  0.17215876801E+03 -0.27506397084E+03 -0.22385593168E+03  0.42735852350E+03  0.16500000000E+03 0.  0.
<mgrwt>
<rscale>  0 0.77916254E+03</rscale>
<asrwt>0</asrwt>
<pdfrwt beam="1">  1        2 0.73876760E-01 0.77916254E+03</pdfrwt>
<pdfrwt beam="2">  1       -2 0.48625220E-01 0.77916254E+03</pdfrwt>
<totfact> 0.26045608E+02</totfact>
</mgrwt>
</event>
<event>
 4    1  0.8362047E-005  0.5081448E+03  0.7818608E-02  0.1011675E+00
         -2   -1    0    0    0  501 -0.00000000000E+00  0.00000000000E+00  0.11552660227E+03  0.11552660229E+03  0.25500000000E-02 0. -1.
          2   -1    0    0  501    0  0.00000000000E+00 -0.00000000000E+00 -0.55876988819E+03  0.55876988820E+03  0.25500000000E-02 0.  1.
    5000001    1    1    2    0    0 -0.66731052498E+00  0.16600478809E+03 -0.90460507213E+02  0.25093054485E+03  0.16500000000E+03 0.  0.
   -5000001    1    1    2    0    0  0.66731052498E+00 -0.16600478809E+03 -0.35278277871E+03  0.42336594564E+03  0.16500000000E+03 0.  0.
<mgrwt>
<rscale>  0 0.50814481E+03</rscale>
<asrwt>0</asrwt>
<pdfrwt beam="1">  1        2 0.85964596E-01 0.50814481E+03</pdfrwt>
<pdfrwt beam="2">  1       -2 0.17773324E-01 0.50814481E+03</pdfrwt>
<totfact> 0.14162320E+03</totfact>
</mgrwt>
</event>
<event>
 4    1  0.8362047E-005  0.6353199E+03  0.7818608E-02  0.9834722E-01
          2   -1    0    0  501    0  0.00000000000E+00  0.00000000000E+00  0.24933166719E+03  0.24933166720E+03  0.25500000000E-02 0.  1.
         -2   -1    0    0    0  501 -0.00000000000E+00 -0.00000000000E+00 -0.40471325547E+03  0.40471325548E+03  0.25500000000E-02 0. -1.
    5000001    1    1    2    0    0  0.31735433321E+02  0.16897992928E+03  0.13855126422E+03  0.27564979057E+03  0.16500000000E+03 0.  0.
   -5000001    1    1    2    0    0 -0.31735433321E+02 -0.16897992928E+03 -0.29393285249E+03  0.37839513211E+03  0.16500000000E+03 0.  0.
<mgrwt>
<rscale>  0 0.63531986E+03</rscale>
<asrwt>0</asrwt>
<pdfrwt beam="1">  1        2 0.38358718E-01 0.63531986E+03</pdfrwt>
<pdfrwt beam="2">  1       -2 0.62263578E-01 0.63531986E+03</pdfrwt>
<totfact> 0.32637421E+02</totfact>
</mgrwt>
</event>
<event>
 4    1  0.8362047E-005  0.4111178E+03  0.7818608E-02  0.1039997E+00
         -2   -1    0    0    0  501 -0.00000000000E+00  0.00000000000E+00  0.18216354098E+03  0.18216354100E+03  0.25500000000E-02 0. -1.
          2   -1    0    0  501    0  0.00000000000E+00 -0.00000000000E+00 -0.23195893236E+03  0.23195893237E+03  0.25500000000E-02 0.  1.
    5000001    1    1    2    0    0  0.12014121212E+03 -0.18538425764E+02 -0.40884301554E+02  0.20898351656E+03  0.16500000000E+03 0.  0.
   -5000001    1    1    2    0    0 -0.12014121212E+03  0.18538425764E+02 -0.89110898242E+01  0.20513895681E+03  0.16500000000E+03 0.  0.
<mgrwt>
<rscale>  0 0.41111780E+03</rscale>
<asrwt>0</asrwt>
<pdfrwt beam="1">  1        2 0.35685990E-01 0.41111780E+03</pdfrwt>
<pdfrwt beam="2">  1       -2 0.28025160E-01 0.41111780E+03</pdfrwt>
<totfact> 0.16882523E+03</totfact>
</mgrwt>
</event>
<event>
 4    1  0.8362047E-005  0.4601432E+03  0.7818608E-02  0.1024740E+00
         -2   -1    0    0    0  501 -0.00000000000E+00  0.00000000000E+00  0.23014618763E+02  0.23014618904E+02  0.25500000000E-02 0. -1.
          2   -1    0    0  501    0  0.00000000000E+00 -0.00000000000E+00 -0.22999706369E+04  0.22999706369E+04  0.25500000000E-02 0.  1.
    5000001    1    1    2    0    0 -0.26947157774E+02 -0.11785053851E+03 -0.16701929701E+04  0.16826718207E+04  0.16500000000E+03 0.  0.
   -5000001    1    1    2    0    0  0.26947157774E+02  0.11785053851E+03 -0.60676304806E+03  0.64031343515E+03  0.16500000000E+03 0.  0.
<mgrwt>
<rscale>  0 0.46014323E+03</rscale>
<asrwt>0</asrwt>
<pdfrwt beam="1">  1        2 0.35384145E+00 0.46014323E+03</pdfrwt>
<pdfrwt beam="2">  1       -2 0.35407124E-02 0.46014323E+03</pdfrwt>
<totfact> 0.16741710E+03</totfact>
</mgrwt>
</event>
<event>
 4    1  0.8362047E-005  0.5339742E+03  0.7818608E-02  0.1005273E+00
         -2   -1    0    0    0  501 -0.00000000000E+00  0.00000000000E+00  0.20280442409E+03  0.20280442411E+03  0.25500000000E-02 0. -1.
          2   -1    0    0  501    0  0.00000000000E+00 -0.00000000000E+00 -0.35148201674E+03  0.35148201675E+03  0.25500000000E-02 0.  1.
    5000001    1    1    2    0    0  0.11256586751E+03  0.17554769384E+03 -0.49576801019E+02  0.27050125054E+03  0.16500000000E+03 0.  0.
   -5000001    1    1    2    0    0 -0.11256586751E+03 -0.17554769384E+03 -0.99100791627E+02  0.28378519032E+03  0.16500000000E+03 0.  0.
<mgrwt>
<rscale>  0 0.53397419E+03</rscale>
<asrwt>0</asrwt>
<pdfrwt beam="1">  1        2 0.54074156E-01 0.53397419E+03</pdfrwt>
<pdfrwt beam="2">  1       -2 0.31200681E-01 0.53397419E+03</pdfrwt>
<totfact> 0.87907359E+02</totfact>
</mgrwt>
</event>
<event>
 4    1  0.8362047E-005  0.9633307E+03  0.7818608E-02  0.9349703E-01
         -2   -1    0    0    0  501 -0.00000000000E+00  0.00000000000E+00  0.96978391321E+02  0.96978391355E+02  0.25500000000E-02 0. -1.
          2   -1    0    0  501    0  0.00000000000E+00 -0.00000000000E+00 -0.23923008842E+04  0.23923008842E+04  0.25500000000E-02 0.  1.
    5000001    1    1    2    0    0  0.12902687220E+03  0.37080126885E+03 -0.56619628947E+03  0.70848059461E+03  0.16500000000E+03 0.  0.
   -5000001    1    1    2    0    0 -0.12902687220E+03 -0.37080126885E+03 -0.17291262034E+04  0.17807986809E+04  0.16500000000E+03 0.  0.
<mgrwt>
<rscale>  0 0.96333066E+03</rscale>
<asrwt>0</asrwt>
<pdfrwt beam="1">  1        2 0.36804625E+00 0.96333066E+03</pdfrwt>
<pdfrwt beam="2">  1       -2 0.14919754E-01 0.96333066E+03</pdfrwt>
<totfact> 0.14401607E+02</totfact>
</mgrwt>
</event>
<event>
 4    1  0.8362047E-005  0.4835040E+03  0.7818608E-02  0.1018177E+00
         -2   -1    0    0    0  501 -0.00000000000E+00  0.00000000000E+00  0.48958338407E+02  0.48958338473E+02  0.25500000000E-02 0. -1.
          2   -1    0    0  501    0  0.00000000000E+00 -0.00000000000E+00 -0.11937504758E+04  0.11937504758E+04  0.25500000000E-02 0.  1.
    5000001    1    1    2    0    0  0.13926156907E+03  0.46267704654E+02 -0.31946097081E+03  0.38834880840E+03  0.16500000000E+03 0.  0.
   -5000001    1    1    2    0    0 -0.13926156907E+03 -0.46267704654E+02 -0.82533116659E+03  0.85436000588E+03  0.16500000000E+03 0.  0.
<mgrwt>
<rscale>  0 0.48350404E+03</rscale>
<asrwt>0</asrwt>
<pdfrwt beam="1">  1        2 0.18365390E+00 0.48350404E+03</pdfrwt>
<pdfrwt beam="2">  1       -2 0.75320530E-02 0.48350404E+03</pdfrwt>
<totfact> 0.20909886E+03</totfact>
</mgrwt>
</event>
<event>
 4    1  0.8362047E-005  0.6893854E+03  0.7818608E-02  0.9735559E-01
          2   -1    0    0  501    0  0.00000000000E+00  0.00000000000E+00  0.12255020248E+04  0.12255020248E+04  0.25500000000E-02 0.  1.
         -2   -1    0    0    0  501 -0.00000000000E+00 -0.00000000000E+00 -0.96950506040E+02  0.96950506073E+02  0.25500000000E-02 0. -1.
    5000001    1    1    2    0    0 -0.25103548228E+03  0.10088123519E+03  0.30411910837E+03  0.43921437710E+03  0.16500000000E+03 0.  0.
   -5000001    1    1    2    0    0  0.25103548228E+03 -0.10088123519E+03  0.82443241036E+03  0.88323815374E+03  0.16500000000E+03 0.  0.
<mgrwt>
<rscale>  0 0.68938535E+03</rscale>
<asrwt>0</asrwt>
<pdfrwt beam="1">  1        2 0.18853877E+00 0.68938535E+03</pdfrwt>
<pdfrwt beam="2">  1       -2 0.14915463E-01 0.68938535E+03</pdfrwt>
<totfact> 0.65350649E+02</totfact>
</mgrwt>
</event>
<event>
 4    1  0.8362047E-005  0.5666718E+03  0.7818608E-02  0.9977071E-01
          2   -1    0    0  501    0  0.00000000000E+00  0.00000000000E+00  0.53879801055E+03  0.53879801056E+03  0.25500000000E-02 0.  1.
         -2   -1    0    0    0  501 -0.00000000000E+00 -0.00000000000E+00 -0.14899689101E+03  0.14899689103E+03  0.25500000000E-02 0. -1.
    5000001    1    1    2    0    0 -0.21952298450E+03 -0.55496873901E+02  0.24616579180E+03  0.37295152606E+03  0.16500000000E+03 0.  0.
   -5000001    1    1    2    0    0  0.21952298450E+03  0.55496873901E+02  0.14363532774E+03  0.31484337553E+03  0.16500000000E+03 0.  0.
<mgrwt>
<rscale>  0 0.56667179E+03</rscale>
<asrwt>0</asrwt>
<pdfrwt beam="1">  1        2 0.82892003E-01 0.56667179E+03</pdfrwt>
<pdfrwt beam="2">  1       -2 0.22922598E-01 0.56667179E+03</pdfrwt>
<totfact> 0.94858209E+02</totfact>
</mgrwt>
</event>
<event>
 4    1  0.8362047E-005  0.6086901E+03  0.7818608E-02  0.9887539E-01
         -2   -1    0    0    0  501 -0.00000000000E+00  0.00000000000E+00  0.25159406869E+03  0.25159406870E+03  0.25500000000E-02 0. -1.
          2   -1    0    0  501    0  0.00000000000E+00 -0.00000000000E+00 -0.36815614752E+03  0.36815614753E+03  0.25500000000E-02 0.  1.
    5000001    1    1    2    0    0 -0.23684142992E+03 -0.81221738158E+02 -0.52767923095E+01  0.29990611566E+03  0.16500000000E+03 0.  0.
   -5000001    1    1    2    0    0  0.23684142992E+03  0.81221738158E+02 -0.11128528652E+03  0.31984410057E+03  0.16500000000E+03 0.  0.
<mgrwt>
<rscale>  0 0.60869008E+03</rscale>
<asrwt>0</asrwt>
<pdfrwt beam="1">  1        2 0.56639407E-01 0.60869008E+03</pdfrwt>
<pdfrwt beam="2">  1       -2 0.38706780E-01 0.60869008E+03</pdfrwt>
<totfact> 0.55474256E+02</totfact>
</mgrwt>
</event>
<event>
 4    1  0.8362047E-005  0.1107365E+04  0.7818608E-02  0.9198043E-01
          2   -1    0    0  501    0  0.00000000000E+00  0.00000000000E+00  0.14395135018E+04  0.14395135018E+04  0.25500000000E-02 0.  1.
         -2   -1    0    0    0  501 -0.00000000000E+00 -0.00000000000E+00 -0.21296393342E+03  0.21296393344E+03  0.25500000000E-02 0. -1.
    5000001    1    1    2    0    0 -0.27943774483E+03  0.36170867332E+03  0.21727473342E+03  0.53230811319E+03  0.16500000000E+03 0.  0.
   -5000001    1    1    2    0    0  0.27943774483E+03 -0.36170867332E+03  0.10092748350E+04  0.11201693221E+04  0.16500000000E+03 0.  0.
<mgrwt>
<rscale>  0 0.11073653E+04</rscale>
<asrwt>0</asrwt>
<pdfrwt beam="1">  1        2 0.22146361E+00 0.11073653E+04</pdfrwt>
<pdfrwt beam="2">  1       -2 0.32763683E-01 0.11073653E+04</pdfrwt>
<totfact> 0.11834471E+02</totfact>
</mgrwt>
</event>
<event>
 4    1  0.8362047E-005  0.6213271E+03  0.7818608E-02  0.9862121E-01
         -2   -1    0    0    0  501 -0.00000000000E+00  0.00000000000E+00  0.32458111065E+02  0.32458111165E+02  0.25500000000E-02 0. -1.
          2   -1    0    0  501    0  0.00000000000E+00 -0.00000000000E+00 -0.29734276687E+04  0.29734276687E+04  0.25500000000E-02 0.  1.
    5000001    1    1    2    0    0  0.20706885912E+03  0.80862823639E+02 -0.78852781313E+03  0.83571371937E+03  0.16500000000E+03 0.  0.
   -5000001    1    1    2    0    0 -0.20706885912E+03 -0.80862823639E+02 -0.21524417445E+04  0.21701720605E+04  0.16500000000E+03 0.  0.
<mgrwt>
<rscale>  0 0.62132711E+03</rscale>
<asrwt>0</asrwt>
<pdfrwt beam="1">  1        2 0.45745020E+00 0.62132711E+03</pdfrwt>
<pdfrwt beam="2">  1       -2 0.49935579E-02 0.62132711E+03</pdfrwt>
<totfact> 0.40011440E+02</totfact>
</mgrwt>
</event>
<event>
 4    1  0.8362047E-005  0.4823971E+03  0.7818608E-02  0.1018478E+00
         -2   -1    0    0    0  501 -0.00000000000E+00  0.00000000000E+00  0.28197920111E+02  0.28197920227E+02  0.25500000000E-02 0. -1.
          2   -1    0    0  501    0  0.00000000000E+00 -0.00000000000E+00 -0.20631575353E+04  0.20631575353E+04  0.25500000000E-02 0.  1.
    5000001    1    1    2    0    0 -0.14325600169E+03  0.14809825864E+02 -0.14555451965E+04  0.14719301723E+04  0.16500000000E+03 0.  0.
   -5000001    1    1    2    0    0  0.14325600169E+03 -0.14809825864E+02 -0.57941441864E+03  0.61942528322E+03  0.16500000000E+03 0.  0.
<mgrwt>
<rscale>  0 0.48239715E+03</rscale>
<asrwt>0</asrwt>
<pdfrwt beam="1">  1        2 0.31740873E+00 0.48239715E+03</pdfrwt>
<pdfrwt beam="2">  1       -2 0.43381432E-02 0.48239715E+03</pdfrwt>
<totfact> 0.16479151E+03</totfact>
</mgrwt>
</event>
<event>
 4    1  0.8362047E-005  0.4056337E+03  0.7818608E-02  0.1041846E+00
          2   -1    0    0  501    0  0.00000000000E+00  0.00000000000E+00  0.79678077098E+03  0.79678077098E+03  0.25500000000E-02 0.  1.
         -2   -1    0    0    0  501 -0.00000000000E+00 -0.00000000000E+00 -0.51626081491E+02  0.51626081554E+02  0.25500000000E-02 0. -1.
    5000001    1    1    2    0    0 -0.64077767303E+02  0.68701888399E+02  0.52170653461E+03  0.55518340932E+03  0.16500000000E+03 0.  0.
   -5000001    1    1    2    0    0  0.64077767303E+02 -0.68701888399E+02  0.22344815487E+03  0.29322344321E+03  0.16500000000E+03 0.  0.
<mgrwt>
<rscale>  0 0.40563367E+03</rscale>
<asrwt>0</asrwt>
<pdfrwt beam="1">  1        2 0.12258165E+00 0.40563367E+03</pdfrwt>
<pdfrwt beam="2">  1       -2 0.79424742E-02 0.40563367E+03</pdfrwt>
<totfact> 0.34275256E+03</totfact>
</mgrwt>
</event>
<event>
 4    1  0.8362047E-005  0.5304644E+03  0.7818608E-02  0.1006120E+00
          2   -1    0    0  501    0  0.00000000000E+00  0.00000000000E+00  0.66083285693E+02  0.66083285743E+02  0.25500000000E-02 0.  1.
         -2   -1    0    0    0  501 -0.00000000000E+00 -0.00000000000E+00 -0.10645374344E+04  0.10645374344E+04  0.25500000000E-02 0. -1.
    5000001    1    1    2    0    0 -0.17907279676E+03  0.58401184949E+02 -0.31286402158E+03  0.40073265520E+03  0.16500000000E+03 0.  0.
   -5000001    1    1    2    0    0  0.17907279676E+03 -0.58401184949E+02 -0.68559012711E+03  0.72988806493E+03  0.16500000000E+03 0.  0.
<mgrwt>
<rscale>  0 0.53046444E+03</rscale>
<asrwt>0</asrwt>
<pdfrwt beam="1">  1        2 0.10166660E-01 0.53046444E+03</pdfrwt>
<pdfrwt beam="2">  1       -2 0.16377498E+00 0.53046444E+03</pdfrwt>
<totfact> 0.15688709E+02</totfact>
</mgrwt>
</event>
<event>
 4    1  0.8362047E-005  0.3942178E+03  0.7818608E-02  0.1045800E+00
          2   -1    0    0  501    0  0.00000000000E+00  0.00000000000E+00  0.20665459493E+04  0.20665459493E+04  0.25500000000E-02 0.  1.
         -2   -1    0    0    0  501 -0.00000000000E+00 -0.00000000000E+00 -0.18800409643E+02  0.18800409816E+02  0.25500000000E-02 0. -1.
    5000001    1    1    2    0    0  0.88241987447E+02 -0.61960979902E+02  0.10183267754E+04  0.10372271848E+04  0.16500000000E+03 0.  0.
   -5000001    1    1    2    0    0 -0.88241987447E+02  0.61960979902E+02  0.10294187642E+04  0.10481191743E+04  0.16500000000E+03 0.  0.
<mgrwt>
<rscale>  0 0.39421776E+03</rscale>
<asrwt>0</asrwt>
<pdfrwt beam="1">  1        2 0.31793008E+00 0.39421776E+03</pdfrwt>
<pdfrwt beam="2">  1       -2 0.28923713E-02 0.39421776E+03</pdfrwt>
<totfact> 0.30498090E+03</totfact>
</mgrwt>
</event>
<event>
 4    1  0.8362047E-005  0.5331080E+03  0.7818608E-02  0.1005481E+00
          2   -1    0    0  501    0  0.00000000000E+00  0.00000000000E+00  0.11123000651E+04  0.11123000651E+04  0.25500000000E-02 0.  1.
         -2   -1    0    0    0  501 -0.00000000000E+00 -0.00000000000E+00 -0.63877579610E+02  0.63877579661E+02  0.25500000000E-02 0. -1.
    5000001    1    1    2    0    0  0.61231091922E+01 -0.20392160273E+03  0.42062189932E+03  0.49575124278E+03  0.16500000000E+03 0.  0.
   -5000001    1    1    2    0    0 -0.61231091922E+01  0.20392160273E+03  0.62780058615E+03  0.68042640197E+03  0.16500000000E+03 0.  0.
<mgrwt>
<rscale>  0 0.53310800E+03</rscale>
<asrwt>0</asrwt>
<pdfrwt beam="1">  1        2 0.17112307E+00 0.53310800E+03</pdfrwt>
<pdfrwt beam="2">  1       -2 0.98273210E-02 0.53310800E+03</pdfrwt>
<totfact> 0.15264115E+03</totfact>
</mgrwt>
</event>
<event>
 4    1  0.8362047E-005  0.5230932E+03  0.7818608E-02  0.1007921E+00
         -2   -1    0    0    0  501 -0.00000000000E+00  0.00000000000E+00  0.17054221844E+03  0.17054221846E+03  0.25500000000E-02 0. -1.
          2   -1    0    0  501    0  0.00000000000E+00 -0.00000000000E+00 -0.40111257954E+03  0.40111257955E+03  0.25500000000E-02 0.  1.
    5000001    1    1    2    0    0  0.16445724485E+03 -0.88139742673E+02 -0.20248515819E+03  0.32099850297E+03  0.16500000000E+03 0.  0.
   -5000001    1    1    2    0    0 -0.16445724485E+03  0.88139742673E+02 -0.28085202917E+02  0.25065629504E+03  0.16500000000E+03 0.  0.
<mgrwt>
<rscale>  0 0.52309322E+03</rscale>
<asrwt>0</asrwt>
<pdfrwt beam="1">  1        2 0.61709628E-01 0.52309322E+03</pdfrwt>
<pdfrwt beam="2">  1       -2 0.26237264E-01 0.52309322E+03</pdfrwt>
<totfact> 0.10425504E+03</totfact>
</mgrwt>
</event>
<event>
 4    1  0.8362047E-005  0.5394964E+03  0.7818608E-02  0.1003955E+00
         -2   -1    0    0    0  501 -0.00000000000E+00  0.00000000000E+00  0.52214150822E+02  0.52214150884E+02  0.25500000000E-02 0. -1.
          2   -1    0    0  501    0  0.00000000000E+00 -0.00000000000E+00 -0.13935703394E+04  0.13935703394E+04  0.25500000000E-02 0.  1.
    5000001    1    1    2    0    0  0.20511608118E+03 -0.52676958769E+02 -0.60020070949E+03  0.65750540714E+03  0.16500000000E+03 0.  0.
   -5000001    1    1    2    0    0 -0.20511608118E+03  0.52676958769E+02 -0.74115547909E+03  0.78827908315E+03  0.16500000000E+03 0.  0.
<mgrwt>
<rscale>  0 0.53949640E+03</rscale>
<asrwt>0</asrwt>
<pdfrwt beam="1">  1        2 0.21439541E+00 0.53949640E+03</pdfrwt>
<pdfrwt beam="2">  1       -2 0.80329474E-02 0.53949640E+03</pdfrwt>
<totfact> 0.14503733E+03</totfact>
</mgrwt>
</event>
<event>
 4    1  0.8362047E-005  0.4280011E+03  0.7818608E-02  0.1034493E+00
         -2   -1    0    0    0  501 -0.00000000000E+00  0.00000000000E+00  0.44294670677E+02  0.44294670750E+02  0.25500000000E-02 0. -1.
          2   -1    0    0  501    0  0.00000000000E+00 -0.00000000000E+00 -0.10338996204E+04  0.10338996204E+04  0.25500000000E-02 0.  1.
    5000001    1    1    2    0    0  0.36186173657E+02  0.11871053452E+03 -0.63662827106E+03  0.66926989002E+03  0.16500000000E+03 0.  0.
   -5000001    1    1    2    0    0 -0.36186173657E+02 -0.11871053452E+03 -0.35297667871E+03  0.40892440118E+03  0.16500000000E+03 0.  0.
<mgrwt>
<rscale>  0 0.42800114E+03</rscale>
<asrwt>0</asrwt>
<pdfrwt beam="1">  1        2 0.15906146E+00 0.42800114E+03</pdfrwt>
<pdfrwt beam="2">  1       -2 0.68145655E-02 0.42800114E+03</pdfrwt>
<totfact> 0.30510171E+03</totfact>
</mgrwt>
</event>
<event>
 4    1  0.8362047E-005  0.4780427E+03  0.7818608E-02  0.1019674E+00
         -2   -1    0    0    0  501 -0.00000000000E+00  0.00000000000E+00  0.38555001091E+02  0.38555001175E+02  0.25500000000E-02 0. -1.
          2   -1    0    0  501    0  0.00000000000E+00 -0.00000000000E+00 -0.14818107909E+04  0.14818107909E+04  0.25500000000E-02 0.  1.
    5000001    1    1    2    0    0 -0.39474385297E+02 -0.12968934945E+03 -0.10631122532E+04  0.10843478304E+04  0.16500000000E+03 0.  0.
   -5000001    1    1    2    0    0  0.39474385297E+02  0.12968934945E+03 -0.38014353664E+03  0.43601796168E+03  0.16500000000E+03 0.  0.
<mgrwt>
<rscale>  0 0.47804275E+03</rscale>
<asrwt>0</asrwt>
<pdfrwt beam="1">  1        2 0.22797085E+00 0.47804275E+03</pdfrwt>
<pdfrwt beam="2">  1       -2 0.59315398E-02 0.47804275E+03</pdfrwt>
<totfact> 0.20926956E+03</totfact>
</mgrwt>
</event>
<event>
 4    1  0.8362047E-005  0.3528509E+03  0.7818608E-02  0.1061451E+00
          2   -1    0    0  501    0  0.00000000000E+00  0.00000000000E+00  0.95360071971E+03  0.95360071971E+03  0.25500000000E-02 0.  1.
         -2   -1    0    0    0  501 -0.00000000000E+00 -0.00000000000E+00 -0.32640429287E+02  0.32640429387E+02  0.25500000000E-02 0. -1.
    5000001    1    1    2    0    0 -0.58898398877E+02  0.14578107695E+02  0.50188054867E+03  0.53178061994E+03  0.16500000000E+03 0.  0.
   -5000001    1    1    2    0    0  0.58898398877E+02 -0.14578107695E+02  0.41907974175E+03  0.45446052916E+03  0.16500000000E+03 0.  0.
<mgrwt>
<rscale>  0 0.35285089E+03</rscale>
<asrwt>0</asrwt>
<pdfrwt beam="1">  1        2 0.14670782E+00 0.35285089E+03</pdfrwt>
<pdfrwt beam="2">  1       -2 0.50216040E-02 0.35285089E+03</pdfrwt>
<totfact> 0.54826958E+03</totfact>
</mgrwt>
</event>
<event>
 4    1  0.8362047E-005  0.3819037E+03  0.7818608E-02  0.1050232E+00
         -2   -1    0    0    0  501 -0.00000000000E+00  0.00000000000E+00  0.32568212495E+03  0.32568212496E+03  0.25500000000E-02 0. -1.
          2   -1    0    0  501    0  0.00000000000E+00 -0.00000000000E+00 -0.11195767364E+03  0.11195767366E+03  0.25500000000E-02 0.  1.
    5000001    1    1    2    0    0  0.22422601065E+02  0.90657999250E+02  0.13289221350E+03  0.23153182562E+03  0.16500000000E+03 0.  0.
   -5000001    1    1    2    0    0 -0.22422601065E+02 -0.90657999250E+02  0.80832237816E+02  0.20610797301E+03  0.16500000000E+03 0.  0.
<mgrwt>
<rscale>  0 0.38190372E+03</rscale>
<asrwt>0</asrwt>
<pdfrwt beam="1">  1        2 0.17224258E-01 0.38190372E+03</pdfrwt>
<pdfrwt beam="2">  1       -2 0.50104942E-01 0.38190372E+03</pdfrwt>
<totfact> 0.12731444E+03</totfact>
</mgrwt>
</event>
<event>
 4    1  0.8362047E-005  0.6609419E+03  0.7818608E-02  0.9786461E-01
         -2   -1    0    0    0  501 -0.00000000000E+00  0.00000000000E+00  0.14813341304E+03  0.14813341306E+03  0.25500000000E-02 0. -1.
          2   -1    0    0  501    0  0.00000000000E+00 -0.00000000000E+00 -0.73724796789E+03  0.73724796790E+03  0.25500000000E-02 0.  1.
    5000001    1    1    2    0    0  0.16962547435E+03 -0.58313911248E+01 -0.60347170411E+03  0.64823599432E+03  0.16500000000E+03 0.  0.
   -5000001    1    1    2    0    0 -0.16962547435E+03  0.58313911248E+01  0.14357149259E+02  0.23714538664E+03  0.16500000000E+03 0.  0.
<mgrwt>
<rscale>  0 0.66094193E+03</rscale>
<asrwt>0</asrwt>
<pdfrwt beam="1">  1        2 0.11342276E+00 0.66094193E+03</pdfrwt>
<pdfrwt beam="2">  1       -2 0.22789756E-01 0.66094193E+03</pdfrwt>
<totfact> 0.65297190E+02</totfact>
</mgrwt>
</event>
<event>
 4    1  0.8362047E-005  0.7039436E+03  0.7818608E-02  0.9710512E-01
          2   -1    0    0  501    0  0.00000000000E+00  0.00000000000E+00  0.42518683287E+03  0.42518683288E+03  0.25500000000E-02 0.  1.
         -2   -1    0    0    0  501 -0.00000000000E+00 -0.00000000000E+00 -0.29136401569E+03  0.29136401571E+03  0.25500000000E-02 0. -1.
    5000001    1    1    2    0    0  0.32379504057E+02 -0.30422503681E+03  0.12319948109E+03  0.36878776749E+03  0.16500000000E+03 0.  0.
   -5000001    1    1    2    0    0 -0.32379504057E+02  0.30422503681E+03  0.10623336081E+02  0.34776308110E+03  0.16500000000E+03 0.  0.
<mgrwt>
<rscale>  0 0.70394359E+03</rscale>
<asrwt>0</asrwt>
<pdfrwt beam="1">  1        2 0.65413358E-01 0.70394359E+03</pdfrwt>
<pdfrwt beam="2">  1       -2 0.44825234E-01 0.70394359E+03</pdfrwt>
<totfact> 0.35322968E+02</totfact>
</mgrwt>
</event>
<event>
 4    1  0.8362047E-005  0.3709608E+03  0.7818608E-02  0.1054326E+00
         -2   -1    0    0    0  501 -0.00000000000E+00  0.00000000000E+00  0.71407651038E+02  0.71407651083E+02  0.25500000000E-02 0. -1.
          2   -1    0    0  501    0  0.00000000000E+00 -0.00000000000E+00 -0.48178269630E+03  0.48178269631E+03  0.25500000000E-02 0.  1.
    5000001    1    1    2    0    0 -0.13643054256E+02  0.82469163845E+02 -0.22577927097E+03  0.29187081923E+03  0.16500000000E+03 0.  0.
   -5000001    1    1    2    0    0  0.13643054256E+02 -0.82469163845E+02 -0.18459577429E+03  0.26131952817E+03  0.16500000000E+03 0.  0.
<mgrwt>
<rscale>  0 0.37096076E+03</rscale>
<asrwt>0</asrwt>
<pdfrwt beam="1">  1        2 0.74120413E-01 0.37096076E+03</pdfrwt>
<pdfrwt beam="2">  1       -2 0.10985793E-01 0.37096076E+03</pdfrwt>
<totfact> 0.37213827E+03</totfact>
</mgrwt>
</event>
<event>
 4    1  0.8362047E-005  0.3836912E+03  0.7818608E-02  0.1049578E+00
          2   -1    0    0  501    0  0.00000000000E+00  0.00000000000E+00  0.58511404800E+02  0.58511404855E+02  0.25500000000E-02 0.  1.
         -2   -1    0    0    0  501 -0.00000000000E+00 -0.00000000000E+00 -0.62901807716E+03  0.62901807717E+03  0.25500000000E-02 0. -1.
    5000001    1    1    2    0    0  0.16400817722E+02 -0.29760252748E+02 -0.44972697920E+03  0.48024370406E+03  0.16500000000E+03 0.  0.
   -5000001    1    1    2    0    0 -0.16400817722E+02  0.29760252748E+02 -0.12077969316E+03  0.20728577796E+03  0.16500000000E+03 0.  0.
<mgrwt>
<rscale>  0 0.38369118E+03</rscale>
<asrwt>0</asrwt>
<pdfrwt beam="1">  1        2 0.90017550E-02 0.38369118E+03</pdfrwt>
<pdfrwt beam="2">  1       -2 0.96772007E-01 0.38369118E+03</pdfrwt>
<totfact> 0.68129762E+02</totfact>
</mgrwt>
</event>
<event>
 4    1  0.8362047E-005  0.3351574E+03  0.7818608E-02  0.1068877E+00
          2   -1    0    0  501    0  0.00000000000E+00  0.00000000000E+00  0.83942589123E+03  0.83942589123E+03  0.25500000000E-02 0. -1.
         -2   -1    0    0    0  501 -0.00000000000E+00 -0.00000000000E+00 -0.33454559782E+02  0.33454559879E+02  0.25500000000E-02 0.  1.
    5000001    1    1    2    0    0  0.17512710104E+02  0.13264507668E+02  0.35255312275E+03  0.38987350069E+03  0.16500000000E+03 0.  0.
   -5000001    1    1    2    0    0 -0.17512710104E+02 -0.13264507668E+02  0.45341820870E+03  0.48300695042E+03  0.16500000000E+03 0.  0.
<mgrwt>
<rscale>  0 0.33515742E+03</rscale>
<asrwt>0</asrwt>
<pdfrwt beam="1">  1        2 0.12914243E+00 0.33515742E+03</pdfrwt>
<pdfrwt beam="2">  1       -2 0.51468559E-02 0.33515742E+03</pdfrwt>
<totfact> 0.62652671E+03</totfact>
</mgrwt>
</event>
<event>
 4    1  0.8362047E-005  0.5938288E+03  0.7818608E-02  0.9918293E-01
         -2   -1    0    0    0  501 -0.00000000000E+00  0.00000000000E+00  0.50105846959E+03  0.50105846960E+03  0.25500000000E-02 0. -1.
          2   -1    0    0  501    0  0.00000000000E+00 -0.00000000000E+00 -0.17594385164E+03  0.17594385165E+03  0.25500000000E-02 0.  1.
    5000001    1    1    2    0    0  0.13269994785E+03 -0.20296263140E+03  0.21517404764E+03  0.36376912552E+03  0.16500000000E+03 0.  0.
   -5000001    1    1    2    0    0 -0.13269994785E+03  0.20296263140E+03  0.10994057031E+03  0.31323319573E+03  0.16500000000E+03 0.  0.
<mgrwt>
<rscale>  0 0.59382879E+03</rscale>
<asrwt>0</asrwt>
<pdfrwt beam="1">  1        2 0.27068285E-01 0.59382879E+03</pdfrwt>
<pdfrwt beam="2">  1       -2 0.77085917E-01 0.59382879E+03</pdfrwt>
<totfact> 0.30377203E+02</totfact>
</mgrwt>
</event>
<event>
 4    1  0.8362047E-005  0.4542729E+03  0.7818608E-02  0.1026455E+00
          2   -1    0    0  501    0  0.00000000000E+00  0.00000000000E+00  0.13379255776E+04  0.13379255776E+04  0.25500000000E-02 0.  1.
         -2   -1    0    0    0  501 -0.00000000000E+00 -0.00000000000E+00 -0.38560409220E+02  0.38560409305E+02  0.25500000000E-02 0. -1.
    5000001    1    1    2    0    0 -0.20061619183E+02 -0.15079205996E+03  0.54361900403E+03  0.58812187126E+03  0.16500000000E+03 0.  0.
   -5000001    1    1    2    0    0  0.20061619183E+02  0.15079205996E+03  0.75574616436E+03  0.78836411566E+03  0.16500000000E+03 0.  0.
<mgrwt>
<rscale>  0 0.45427286E+03</rscale>
<asrwt>0</asrwt>
<pdfrwt beam="1">  1        2 0.20583468E+00 0.45427286E+03</pdfrwt>
<pdfrwt beam="2">  1       -2 0.59323713E-02 0.45427286E+03</pdfrwt>
<totfact> 0.25156643E+03</totfact>
</mgrwt>
</event>
<event>
 4    1  0.8362047E-005  0.5859559E+03  0.7818608E-02  0.9934979E-01
          2   -1    0    0  501    0  0.00000000000E+00  0.00000000000E+00  0.14403488265E+04  0.14403488265E+04  0.25500000000E-02 0.  1.
         -2   -1    0    0    0  501 -0.00000000000E+00 -0.00000000000E+00 -0.59593950420E+02  0.59593950475E+02  0.25500000000E-02 0. -1.
    5000001    1    1    2    0    0 -0.16528873223E+03 -0.75018623469E+02  0.11004519548E+04  0.11274607149E+04  0.16500000000E+03 0.  0.
   -5000001    1    1    2    0    0  0.16528873223E+03  0.75018623469E+02  0.28030292124E+03  0.37248206202E+03  0.16500000000E+03 0.  0.
<mgrwt>
<rscale>  0 0.58595589E+03</rscale>
<asrwt>0</asrwt>
<pdfrwt beam="1">  1        2 0.22159211E+00 0.58595589E+03</pdfrwt>
<pdfrwt beam="2">  1       -2 0.91683010E-02 0.58595589E+03</pdfrwt>
<totfact> 0.11033924E+03</totfact>
</mgrwt>
</event>
<event>
 4    1  0.8362047E-005  0.3951342E+03  0.7818608E-02  0.1045478E+00
         -2   -1    0    0    0  501 -0.00000000000E+00  0.00000000000E+00  0.21883107092E+02  0.21883107240E+02  0.25500000000E-02 0. -1.
          2   -1    0    0  501    0  0.00000000000E+00 -0.00000000000E+00 -0.17836936088E+04  0.17836936088E+04  0.25500000000E-02 0.  1.
    5000001    1    1    2    0    0  0.58102309523E+02  0.98010248656E+01 -0.12981063949E+04  0.13098767694E+04  0.16500000000E+03 0.  0.
   -5000001    1    1    2    0    0 -0.58102309523E+02 -0.98010248656E+01 -0.46370410685E+03  0.49569994671E+03  0.16500000000E+03 0.  0.
<mgrwt>
<rscale>  0 0.39513420E+03</rscale>
<asrwt>0</asrwt>
<pdfrwt beam="1">  1        2 0.27441429E+00 0.39513420E+03</pdfrwt>
<pdfrwt beam="2">  1       -2 0.33666333E-02 0.39513420E+03</pdfrwt>
<totfact> 0.34331981E+03</totfact>
</mgrwt>
</event>
<event>
 4    1  0.8362047E-005  0.6134849E+03  0.7818608E-02  0.9877817E-01
          2   -1    0    0  501    0  0.00000000000E+00  0.00000000000E+00  0.35026286222E+03  0.35026286223E+03  0.25500000000E-02 0.  1.
         -2   -1    0    0    0  501 -0.00000000000E+00 -0.00000000000E+00 -0.26862948354E+03  0.26862948355E+03  0.25500000000E-02 0. -1.
    5000001    1    1    2    0    0 -0.13224479975E+03  0.78665441495E+02 -0.16883471238E+03  0.28179265223E+03  0.16500000000E+03 0.  0.
   -5000001    1    1    2    0    0  0.13224479975E+03 -0.78665441495E+02  0.25046809106E+03  0.33709969355E+03  0.16500000000E+03 0.  0.
<mgrwt>
<rscale>  0 0.61348490E+03</rscale>
<asrwt>0</asrwt>
<pdfrwt beam="1">  1        2 0.53886594E-01 0.61348490E+03</pdfrwt>
<pdfrwt beam="2">  1       -2 0.41327613E-01 0.61348490E+03</pdfrwt>
<totfact> 0.51621474E+02</totfact>
</mgrwt>
</event>
<event>
 4    1  0.8362047E-005  0.1125461E+04  0.7818608E-02  0.9180725E-01
         -2   -1    0    0    0  501 -0.00000000000E+00  0.00000000000E+00  0.26200976508E+03  0.26200976509E+03  0.25500000000E-02 0. -1.
          2   -1    0    0  501    0  0.00000000000E+00 -0.00000000000E+00 -0.12086027358E+04  0.12086027358E+04  0.25500000000E-02 0.  1.
    5000001    1    1    2    0    0  0.27558595211E+03  0.44715249031E+03 -0.62538672915E+03  0.83320257296E+03  0.16500000000E+03 0.  0.
   -5000001    1    1    2    0    0 -0.27558595211E+03 -0.44715249031E+03 -0.32120624154E+03  0.63740992791E+03  0.16500000000E+03 0.  0.
<mgrwt>
<rscale>  0 0.11254612E+04</rscale>
<asrwt>0</asrwt>
<pdfrwt beam="1">  1        2 0.18593888E+00 0.11254612E+04</pdfrwt>
<pdfrwt beam="2">  1       -2 0.40309195E-01 0.11254612E+04</pdfrwt>
<totfact> 0.10801993E+02</totfact>
</mgrwt>
</event>
<event>
 4    1  0.8362047E-005  0.4411386E+03  0.7818608E-02  0.1030398E+00
         -2   -1    0    0    0  501 -0.00000000000E+00  0.00000000000E+00  0.25002718554E+03  0.25002718556E+03  0.25500000000E-02 0. -1.
          2   -1    0    0  501    0  0.00000000000E+00 -0.00000000000E+00 -0.19458208528E+03  0.19458208529E+03  0.25500000000E-02 0.  1.
    5000001    1    1    2    0    0 -0.99024599922E+02 -0.10519838714E+03  0.51428639019E+02  0.22526090863E+03  0.16500000000E+03 0.  0.
   -5000001    1    1    2    0    0  0.99024599922E+02  0.10519838714E+03  0.40164612483E+01  0.21934836222E+03  0.16500000000E+03 0.  0.
<mgrwt>
<rscale>  0 0.44113858E+03</rscale>
<asrwt>0</asrwt>
<pdfrwt beam="1">  1        2 0.29935706E-01 0.44113858E+03</pdfrwt>
<pdfrwt beam="2">  1       -2 0.38465720E-01 0.44113858E+03</pdfrwt>
<totfact> 0.11373230E+03</totfact>
</mgrwt>
</event>
<event>
 4    1  0.8362047E-005  0.4827922E+03  0.7818608E-02  0.1018371E+00
         -2   -1    0    0    0  501 -0.00000000000E+00  0.00000000000E+00  0.20522379355E+03  0.20522379356E+03  0.25500000000E-02 0. -1.
          2   -1    0    0  501    0  0.00000000000E+00 -0.00000000000E+00 -0.28394405198E+03  0.28394405199E+03  0.25500000000E-02 0.  1.
    5000001    1    1    2    0    0 -0.83196204389E+02  0.15476461429E+03 -0.26018811548E+02  0.24243694606E+03  0.16500000000E+03 0.  0.
   -5000001    1    1    2    0    0  0.83196204389E+02 -0.15476461429E+03 -0.52701446886E+02  0.24673089949E+03  0.16500000000E+03 0.  0.
<mgrwt>
<rscale>  0 0.48279219E+03</rscale>
<asrwt>0</asrwt>
<pdfrwt beam="1">  1        2 0.43683700E-01 0.48279219E+03</pdfrwt>
<pdfrwt beam="2">  1       -2 0.31572891E-01 0.48279219E+03</pdfrwt>
<totfact> 0.10876538E+03</totfact>
</mgrwt>
</event>
<event>
 4    1  0.8362047E-005  0.3603832E+03  0.7818608E-02  0.1058432E+00
         -2   -1    0    0    0  501 -0.00000000000E+00  0.00000000000E+00  0.12816626136E+02  0.12816626390E+02  0.25500000000E-02 0. -1.
          2   -1    0    0  501    0  0.00000000000E+00 -0.00000000000E+00 -0.25333503991E+04  0.25333503991E+04  0.25500000000E-02 0.  1.
    5000001    1    1    2    0    0 -0.21057061067E+02 -0.63754932547E+02 -0.10686049202E+04  0.10833510819E+04  0.16500000000E+03 0.  0.
   -5000001    1    1    2    0    0  0.21057061067E+02  0.63754932547E+02 -0.14519288527E+04  0.14628159435E+04  0.16500000000E+03 0.  0.
<mgrwt>
<rscale>  0 0.36038316E+03</rscale>
<asrwt>0</asrwt>
<pdfrwt beam="1">  1        2 0.38974582E+00 0.36038316E+03</pdfrwt>
<pdfrwt beam="2">  1       -2 0.19717907E-02 0.36038316E+03</pdfrwt>
<totfact> 0.30175546E+03</totfact>
</mgrwt>
</event>
<event>
 4    1  0.8362047E-005  0.4972829E+03  0.7818608E-02  0.1014491E+00
         -2   -1    0    0    0  501 -0.00000000000E+00  0.00000000000E+00  0.34413211460E+02  0.34413211554E+02  0.25500000000E-02 0. -1.
          2   -1    0    0  501    0  0.00000000000E+00 -0.00000000000E+00 -0.17964777395E+04  0.17964777395E+04  0.25500000000E-02 0.  1.
    5000001    1    1    2    0    0  0.97602402158E+02 -0.15775311886E+03 -0.93114965687E+03  0.96367886710E+03  0.16500000000E+03 0.  0.
   -5000001    1    1    2    0    0 -0.97602402158E+02  0.15775311886E+03 -0.83091487118E+03  0.86721208396E+03  0.16500000000E+03 0.  0.
<mgrwt>
<rscale>  0 0.49728289E+03</rscale>
<asrwt>0</asrwt>
<pdfrwt beam="1">  1        2 0.27638112E+00 0.49728289E+03</pdfrwt>
<pdfrwt beam="2">  1       -2 0.52943416E-02 0.49728289E+03</pdfrwt>
<totfact> 0.16848814E+03</totfact>
</mgrwt>
</event>
<event>
 4    1  0.8362047E-005  0.5435904E+03  0.7818608E-02  0.1002988E+00
         -2   -1    0    0    0  501 -0.00000000000E+00  0.00000000000E+00  0.52025117666E+02  0.52025117728E+02  0.25500000000E-02 0. -1.
          2   -1    0    0  501    0  0.00000000000E+00 -0.00000000000E+00 -0.14199417165E+04  0.14199417165E+04  0.25500000000E-02 0.  1.
    5000001    1    1    2    0    0 -0.10700738579E+03 -0.84557540169E+02 -0.23046587632E+03  0.31454741830E+03  0.16500000000E+03 0.  0.
   -5000001    1    1    2    0    0  0.10700738579E+03  0.84557540169E+02 -0.11374507225E+04  0.11574194159E+04  0.16500000000E+03 0.  0.
<mgrwt>
<rscale>  0 0.54359042E+03</rscale>
<asrwt>0</asrwt>
<pdfrwt beam="1">  1        2 0.21845254E+00 0.54359042E+03</pdfrwt>
<pdfrwt beam="2">  1       -2 0.80038653E-02 0.54359042E+03</pdfrwt>
<totfact> 0.14099621E+03</totfact>
</mgrwt>
</event>
<event>
 4    1  0.8362047E-005  0.4736766E+03  0.7818608E-02  0.1020888E+00
          2   -1    0    0  501    0  0.00000000000E+00  0.00000000000E+00  0.25176320162E+04  0.25176320162E+04  0.25500000000E-02 0.  1.
         -2   -1    0    0    0  501 -0.00000000000E+00 -0.00000000000E+00 -0.22279818240E+02  0.22279818386E+02  0.25500000000E-02 0. -1.
    5000001    1    1    2    0    0 -0.39898437435E+02 -0.16062083468E+03  0.14537132280E+04  0.14723783777E+04  0.16500000000E+03 0.  0.
   -5000001    1    1    2    0    0  0.39898437435E+02  0.16062083468E+03  0.10416389700E+04  0.10675334569E+04  0.16500000000E+03 0.  0.
<mgrwt>
<rscale>  0 0.47367662E+03</rscale>
<asrwt>0</asrwt>
<pdfrwt beam="1">  1        2 0.38732802E+00 0.47367662E+03</pdfrwt>
<pdfrwt beam="2">  1       -2 0.34276642E-02 0.47367662E+03</pdfrwt>
<totfact> 0.13316996E+03</totfact>
</mgrwt>
</event>
<event>
 4    1  0.8362047E-005  0.8786378E+03  0.7818608E-02  0.9452686E-01
          2   -1    0    0  501    0  0.00000000000E+00  0.00000000000E+00  0.76136887011E+03  0.76136887012E+03  0.25500000000E-02 0.  1.
         -2   -1    0    0    0  501 -0.00000000000E+00 -0.00000000000E+00 -0.25349223688E+03  0.25349223689E+03  0.25500000000E-02 0. -1.
    5000001    1    1    2    0    0 -0.31944959761E+03 -0.23657857109E+03  0.15219888480E+03  0.45651611828E+03  0.16500000000E+03 0.  0.
   -5000001    1    1    2    0    0  0.31944959761E+03  0.23657857109E+03  0.35567774843E+03  0.55834498873E+03  0.16500000000E+03 0.  0.
<mgrwt>
<rscale>  0 0.87863780E+03</rscale>
<asrwt>0</asrwt>
<pdfrwt beam="1">  1        2 0.11713367E+00 0.87863780E+03</pdfrwt>
<pdfrwt beam="2">  1       -2 0.38998806E-01 0.87863780E+03</pdfrwt>
<totfact> 0.22922563E+02</totfact>
</mgrwt>
</event>
<event>
 4    1  0.8362047E-005  0.8300488E+03  0.7818608E-02  0.9517513E-01
         -2   -1    0    0    0  501 -0.00000000000E+00  0.00000000000E+00  0.38978473613E+03  0.38978473614E+03  0.25500000000E-02 0. -1.
          2   -1    0    0  501    0  0.00000000000E+00 -0.00000000000E+00 -0.44189843675E+03  0.44189843676E+03  0.25500000000E-02 0.  1.
    5000001    1    1    2    0    0 -0.50669417656E+02  0.36712336027E+03  0.61713080998E+02  0.41034187686E+03  0.16500000000E+03 0.  0.
   -5000001    1    1    2    0    0  0.50669417656E+02 -0.36712336027E+03 -0.11382678162E+03  0.42134129604E+03  0.16500000000E+03 0.  0.
<mgrwt>
<rscale>  0 0.83004883E+03</rscale>
<asrwt>0</asrwt>
<pdfrwt beam="1">  1        2 0.67984375E-01 0.83004883E+03</pdfrwt>
<pdfrwt beam="2">  1       -2 0.59966882E-01 0.83004883E+03</pdfrwt>
<totfact> 0.18535014E+02</totfact>
</mgrwt>
</event>
<event>
 4    1  0.8362047E-005  0.6291215E+03  0.7818608E-02  0.9846765E-01
          2   -1    0    0  501    0  0.00000000000E+00  0.00000000000E+00  0.21794325137E+03  0.21794325139E+03  0.25500000000E-02 0.  1.
         -2   -1    0    0    0  501 -0.00000000000E+00 -0.00000000000E+00 -0.45401016534E+03  0.45401016535E+03  0.25500000000E-02 0. -1.
    5000001    1    1    2    0    0 -0.62655735176E+02 -0.39171445800E+02  0.15690863135E+03  0.23938559253E+03  0.16500000000E+03 0.  0.
   -5000001    1    1    2    0    0  0.62655735176E+02  0.39171445800E+02 -0.39297554533E+03  0.43256782421E+03  0.16500000000E+03 0.  0.
<mgrwt>
<rscale>  0 0.62912146E+03</rscale>
<asrwt>0</asrwt>
<pdfrwt beam="1">  1        2 0.33529731E-01 0.62912146E+03</pdfrwt>
<pdfrwt beam="2">  1       -2 0.69847718E-01 0.62912146E+03</pdfrwt>
<totfact> 0.29624215E+02</totfact>
</mgrwt>
</event>
<event>
 4    1  0.8362047E-005  0.1120586E+04  0.7818608E-02  0.9185356E-01
          2   -1    0    0  501    0  0.00000000000E+00  0.00000000000E+00  0.48138651311E+03  0.48138651312E+03  0.25500000000E-02 0. -1.
         -2   -1    0    0    0  501 -0.00000000000E+00 -0.00000000000E+00 -0.65213361895E+03  0.65213361896E+03  0.25500000000E-02 0.  1.
    5000001    1    1    2    0    0  0.12866654044E+03  0.46630009528E+03 -0.31761550723E+03  0.60174368956E+03  0.16500000000E+03 0.  0.
   -5000001    1    1    2    0    0 -0.12866654044E+03 -0.46630009528E+03  0.14686840139E+03  0.53177644252E+03  0.16500000000E+03 0.  0.
<mgrwt>
<rscale>  0 0.11205861E+04</rscale>
<asrwt>0</asrwt>
<pdfrwt beam="1">  1        2 0.74059463E-01 0.11205861E+04</pdfrwt>
<pdfrwt beam="2">  1       -2 0.10032825E+00 0.11205861E+04</pdfrwt>
<totfact> 0.52315869E+01</totfact>
</mgrwt>
</event>
<event>
 4    1  0.8362047E-005  0.3542785E+03  0.7818608E-02  0.1060873E+00
         -2   -1    0    0    0  501 -0.00000000000E+00  0.00000000000E+00  0.19349687230E+03  0.19349687231E+03  0.25500000000E-02 0. -1.
          2   -1    0    0  501    0  0.00000000000E+00 -0.00000000000E+00 -0.16216446622E+03  0.16216446624E+03  0.25500000000E-02 0.  1.
    5000001    1    1    2    0    0  0.58624742796E+02  0.86235345217E+01 -0.97722208223E+01  0.17558964125E+03  0.16500000000E+03 0.  0.
   -5000001    1    1    2    0    0 -0.58624742796E+02 -0.86235345217E+01  0.41104626901E+02  0.18007169730E+03  0.16500000000E+03 0.  0.
<mgrwt>
<rscale>  0 0.35427852E+03</rscale>
<asrwt>0</asrwt>
<pdfrwt beam="1">  1        2 0.24948379E-01 0.35427852E+03</pdfrwt>
<pdfrwt beam="2">  1       -2 0.29768750E-01 0.35427852E+03</pdfrwt>
<totfact> 0.22470913E+03</totfact>
</mgrwt>
</event>
<event>
 4    1  0.8362047E-005  0.5262349E+03  0.7818608E-02  0.1007149E+00
          2   -1    0    0  501    0  0.00000000000E+00  0.00000000000E+00  0.50377714051E+03  0.50377714051E+03  0.25500000000E-02 0.  1.
         -2   -1    0    0    0  501 -0.00000000000E+00 -0.00000000000E+00 -0.13742344140E+03  0.13742344143E+03  0.25500000000E-02 0. -1.
    5000001    1    1    2    0    0 -0.12753095359E+03 -0.13752050126E+03  0.82479771951E+02  0.26306642730E+03  0.16500000000E+03 0.  0.
   -5000001    1    1    2    0    0  0.12753095359E+03  0.13752050126E+03  0.28387392715E+03  0.37813415464E+03  0.16500000000E+03 0.  0.
<mgrwt>
<rscale>  0 0.52623488E+03</rscale>
<asrwt>0</asrwt>
<pdfrwt beam="1">  1        2 0.77504177E-01 0.52623488E+03</pdfrwt>
<pdfrwt beam="2">  1       -2 0.21142068E-01 0.52623488E+03</pdfrwt>
<totfact> 0.11827025E+03</totfact>
</mgrwt>
</event>
<event>
 4    1  0.8362047E-005  0.4867111E+03  0.7818608E-02  0.1017307E+00
          2   -1    0    0  501    0  0.00000000000E+00  0.00000000000E+00  0.29836208196E+03  0.29836208197E+03  0.25500000000E-02 0.  1.
         -2   -1    0    0    0  501 -0.00000000000E+00 -0.00000000000E+00 -0.19849012523E+03  0.19849012525E+03  0.25500000000E-02 0. -1.
    5000001    1    1    2    0    0 -0.33760146792E+02  0.42313886390E+02  0.22397792537E+03  0.28341016838E+03  0.16500000000E+03 0.  0.
   -5000001    1    1    2    0    0  0.33760146792E+02 -0.42313886390E+02 -0.12410596863E+03  0.21344203884E+03  0.16500000000E+03 0.  0.
<mgrwt>
<rscale>  0 0.48671111E+03</rscale>
<asrwt>0</asrwt>
<pdfrwt beam="1">  1        2 0.45901859E-01 0.48671111E+03</pdfrwt>
<pdfrwt beam="2">  1       -2 0.30536942E-01 0.48671111E+03</pdfrwt>
<totfact> 0.10957392E+03</totfact>
</mgrwt>
</event>
<event>
 4    1  0.8362047E-005  0.5797295E+03  0.7818608E-02  0.9948377E-01
         -2   -1    0    0    0  501 -0.00000000000E+00  0.00000000000E+00  0.50304067635E+02  0.50304067700E+02  0.25500000000E-02 0. -1.
          2   -1    0    0  501    0  0.00000000000E+00 -0.00000000000E+00 -0.16702740920E+04  0.16702740920E+04  0.25500000000E-02 0.  1.
    5000001    1    1    2    0    0 -0.90091512084E+02 -0.21696787317E+03 -0.69108216832E+03  0.74833889509E+03  0.16500000000E+03 0.  0.
   -5000001    1    1    2    0    0  0.90091512084E+02  0.21696787317E+03 -0.92888785602E+03  0.97223926459E+03  0.16500000000E+03 0.  0.
<mgrwt>
<rscale>  0 0.57972953E+03</rscale>
<asrwt>0</asrwt>
<pdfrwt beam="1">  1        2 0.25696520E+00 0.57972953E+03</pdfrwt>
<pdfrwt beam="2">  1       -2 0.77390886E-02 0.57972953E+03</pdfrwt>
<totfact> 0.10822635E+03</totfact>
</mgrwt>
</event>
<event>
 4    1  0.8362047E-005  0.7066978E+03  0.7818608E-02  0.9705846E-01
          2   -1    0    0  501    0  0.00000000000E+00  0.00000000000E+00  0.12116429691E+03  0.12116429693E+03  0.25500000000E-02 0.  1.
         -2   -1    0    0    0  501 -0.00000000000E+00 -0.00000000000E+00 -0.10304639184E+04  0.10304639184E+04  0.25500000000E-02 0. -1.
    5000001    1    1    2    0    0 -0.28602711128E+03 -0.99383636728E+02 -0.58026389552E+03  0.67499615116E+03  0.16500000000E+03 0.  0.
   -5000001    1    1    2    0    0  0.28602711128E+03  0.99383636728E+02 -0.32903572599E+03  0.47663206419E+03  0.16500000000E+03 0.  0.
<mgrwt>
<rscale>  0 0.70669777E+03</rscale>
<asrwt>0</asrwt>
<pdfrwt beam="1">  1        2 0.18640662E-01 0.70669777E+03</pdfrwt>
<pdfrwt beam="2">  1       -2 0.15853290E+00 0.70669777E+03</pdfrwt>
<totfact> 0.80855902E+01</totfact>
</mgrwt>
</event>
<event>
 4    1  0.8362047E-005  0.4884720E+03  0.7818608E-02  0.1016832E+00
          2   -1    0    0  501    0  0.00000000000E+00  0.00000000000E+00  0.16051484218E+04  0.16051484218E+04  0.25500000000E-02 0.  1.
         -2   -1    0    0    0  501 -0.00000000000E+00 -0.00000000000E+00 -0.37162432065E+02  0.37162432152E+02  0.25500000000E-02 0. -1.
    5000001    1    1    2    0    0 -0.12412157676E+03  0.10973275013E+03  0.10212270550E+04  0.10476531583E+04  0.16500000000E+03 0.  0.
   -5000001    1    1    2    0    0  0.12412157676E+03 -0.10973275013E+03  0.54675893479E+03  0.59465769569E+03  0.16500000000E+03 0.  0.
<mgrwt>
<rscale>  0 0.48847198E+03</rscale>
<asrwt>0</asrwt>
<pdfrwt beam="1">  1        2 0.24694589E+00 0.48847198E+03</pdfrwt>
<pdfrwt beam="2">  1       -2 0.57172978E-02 0.48847198E+03</pdfrwt>
<totfact> 0.18973170E+03</totfact>
</mgrwt>
</event>
<event>
 4    1  0.8362047E-005  0.9996286E+03  0.7818608E-02  0.9308952E-01
          2   -1    0    0  501    0  0.00000000000E+00  0.00000000000E+00  0.10061163046E+04  0.10061163047E+04  0.25500000000E-02 0.  1.
         -2   -1    0    0    0  501 -0.00000000000E+00 -0.00000000000E+00 -0.24829567587E+03  0.24829567588E+03  0.25500000000E-02 0. -1.
    5000001    1    1    2    0    0  0.21997810251E+03 -0.52481456796E+01  0.90261923464E+03  0.94359122048E+03  0.16500000000E+03 0.  0.
   -5000001    1    1    2    0    0 -0.21997810251E+03  0.52481456796E+01 -0.14479860586E+03  0.31082076005E+03  0.16500000000E+03 0.  0.
<mgrwt>
<rscale>  0 0.99962859E+03</rscale>
<asrwt>0</asrwt>
<pdfrwt beam="1">  1        2 0.15478712E+00 0.99962859E+03</pdfrwt>
<pdfrwt beam="2">  1       -2 0.38199336E-01 0.99962859E+03</pdfrwt>
<totfact> 0.16109808E+02</totfact>
</mgrwt>
</event>
<event>
 4    1  0.8362047E-005  0.7575884E+03  0.7818608E-02  0.9623520E-01
          2   -1    0    0  501    0  0.00000000000E+00  0.00000000000E+00  0.13232139805E+04  0.13232139805E+04  0.25500000000E-02 0.  1.
         -2   -1    0    0    0  501 -0.00000000000E+00 -0.00000000000E+00 -0.10843675759E+03  0.10843675762E+03  0.25500000000E-02 0. -1.
    5000001    1    1    2    0    0  0.18109780373E+03 -0.27250574341E+03  0.78868857904E+03  0.86966112332E+03  0.16500000000E+03 0.  0.
   -5000001    1    1    2    0    0 -0.18109780373E+03  0.27250574341E+03  0.42608864390E+03  0.56198961482E+03  0.16500000000E+03 0.  0.
<mgrwt>
<rscale>  0 0.75758837E+03</rscale>
<asrwt>0</asrwt>
<pdfrwt beam="1">  1        2 0.20357139E+00 0.75758837E+03</pdfrwt>
<pdfrwt beam="2">  1       -2 0.16682577E-01 0.75758837E+03</pdfrwt>
<totfact> 0.47268581E+02</totfact>
</mgrwt>
</event>
<event>
 4    1  0.8362047E-005  0.5218734E+03  0.7818608E-02  0.1008222E+00
          2   -1    0    0  501    0  0.00000000000E+00  0.00000000000E+00  0.17431959220E+03  0.17431959222E+03  0.25500000000E-02 0.  1.
         -2   -1    0    0    0  501 -0.00000000000E+00 -0.00000000000E+00 -0.39059269298E+03  0.39059269299E+03  0.25500000000E-02 0. -1.
    5000001    1    1    2    0    0  0.67257066498E+02  0.10486066587E+03  0.64189431494E+02  0.21648222873E+03  0.16500000000E+03 0.  0.
   -5000001    1    1    2    0    0 -0.67257066498E+02 -0.10486066587E+03 -0.28046253228E+03  0.34843005647E+03  0.16500000000E+03 0.  0.
<mgrwt>
<rscale>  0 0.52187339E+03</rscale>
<asrwt>0</asrwt>
<pdfrwt beam="1">  1        2 0.26818399E-01 0.52187339E+03</pdfrwt>
<pdfrwt beam="2">  1       -2 0.60091183E-01 0.52187339E+03</pdfrwt>
<totfact> 0.52619568E+02</totfact>
</mgrwt>
</event>
<event>
 4    1  0.8362047E-005  0.4282485E+03  0.7818608E-02  0.1034415E+00
         -2   -1    0    0    0  501 -0.00000000000E+00  0.00000000000E+00  0.18324751562E+03  0.18324751564E+03  0.25500000000E-02 0. -1.
          2   -1    0    0  501    0  0.00000000000E+00 -0.00000000000E+00 -0.25020363475E+03  0.25020363476E+03  0.25500000000E-02 0.  1.
    5000001    1    1    2    0    0  0.80732934623E+02  0.10330690087E+03  0.48511429605E+01  0.21080478194E+03  0.16500000000E+03 0.  0.
   -5000001    1    1    2    0    0 -0.80732934623E+02 -0.10330690087E+03 -0.71807262093E+02  0.22264636846E+03  0.16500000000E+03 0.  0.
<mgrwt>
<rscale>  0 0.42824850E+03</rscale>
<asrwt>0</asrwt>
<pdfrwt beam="1">  1        2 0.38492867E-01 0.42824850E+03</pdfrwt>
<pdfrwt beam="2">  1       -2 0.28191926E-01 0.42824850E+03</pdfrwt>
<totfact> 0.15373841E+03</totfact>
</mgrwt>
</event>
<event>
 4    1  0.8362047E-005  0.9874658E+03  0.7818608E-02  0.9322400E-01
         -2   -1    0    0    0  501 -0.00000000000E+00  0.00000000000E+00  0.36809331691E+03  0.36809331692E+03  0.25500000000E-02 0. -1.
          2   -1    0    0  501    0  0.00000000000E+00 -0.00000000000E+00 -0.66225641750E+03  0.66225641750E+03  0.25500000000E-02 0.  1.
    5000001    1    1    2    0    0 -0.15980924458E+02 -0.33539537925E+03 -0.48325612951E+03  0.61115213906E+03  0.16500000000E+03 0.  0.
   -5000001    1    1    2    0    0  0.15980924458E+02  0.33539537925E+03  0.18909302892E+03  0.41919759536E+03  0.16500000000E+03 0.  0.
<mgrwt>
<rscale>  0 0.98746577E+03</rscale>
<asrwt>0</asrwt>
<pdfrwt beam="1">  1        2 0.10188560E+00 0.98746577E+03</pdfrwt>
<pdfrwt beam="2">  1       -2 0.56629741E-01 0.98746577E+03</pdfrwt>
<totfact> 0.12843535E+02</totfact>
</mgrwt>
</event>
<event>
 4    1  0.8362047E-005  0.4322260E+03  0.7818608E-02  0.1033159E+00
         -2   -1    0    0    0  501 -0.00000000000E+00  0.00000000000E+00  0.30215373869E+02  0.30215373976E+02  0.25500000000E-02 0. -1.
          2   -1    0    0  501    0  0.00000000000E+00 -0.00000000000E+00 -0.15457303027E+04  0.15457303027E+04  0.25500000000E-02 0.  1.
    5000001    1    1    2    0    0  0.12723806543E+03 -0.19747744326E+02 -0.56139729965E+03  0.59914224250E+03  0.16500000000E+03 0.  0.
   -5000001    1    1    2    0    0 -0.12723806543E+03  0.19747744326E+02 -0.95411762922E+03  0.97680343421E+03  0.16500000000E+03 0.  0.
<mgrwt>
<rscale>  0 0.43222596E+03</rscale>
<asrwt>0</asrwt>
<pdfrwt beam="1">  1        2 0.23780460E+00 0.43222596E+03</pdfrwt>
<pdfrwt beam="2">  1       -2 0.46485203E-02 0.43222596E+03</pdfrwt>
<totfact> 0.28176143E+03</totfact>
</mgrwt>
</event>
<event>
 4    1  0.8362047E-005  0.3573289E+03  0.7818608E-02  0.1059647E+00
          2   -1    0    0  501    0  0.00000000000E+00  0.00000000000E+00  0.31928173843E+03  0.31928173844E+03  0.25500000000E-02 0.  1.
         -2   -1    0    0    0  501 -0.00000000000E+00 -0.00000000000E+00 -0.99977475367E+02  0.99977475400E+02  0.25500000000E-02 0. -1.
    5000001    1    1    2    0    0  0.61725963949E+02 -0.25980223722E+02  0.92612164752E+02  0.20071641614E+03  0.16500000000E+03 0.  0.
   -5000001    1    1    2    0    0 -0.61725963949E+02  0.25980223722E+02  0.12669209831E+03  0.21854279770E+03  0.16500000000E+03 0.  0.
<mgrwt>
<rscale>  0 0.35732888E+03</rscale>
<asrwt>0</asrwt>
<pdfrwt beam="1">  1        2 0.49120268E-01 0.35732888E+03</pdfrwt>
<pdfrwt beam="2">  1       -2 0.15381150E-01 0.35732888E+03</pdfrwt>
<totfact> 0.33674548E+03</totfact>
</mgrwt>
</event>
<event>
 4    1  0.8362047E-005  0.4777289E+03  0.7818608E-02  0.1019761E+00
          2   -1    0    0  501    0  0.00000000000E+00  0.00000000000E+00  0.47769377373E+03  0.47769377374E+03  0.25500000000E-02 0.  1.
         -2   -1    0    0    0  501 -0.00000000000E+00 -0.00000000000E+00 -0.11944101480E+03  0.11944101482E+03  0.25500000000E-02 0. -1.
    5000001    1    1    2    0    0 -0.10331255422E+03 -0.13518325532E+03  0.21627377942E+03  0.32085408528E+03  0.16500000000E+03 0.  0.
   -5000001    1    1    2    0    0  0.10331255422E+03  0.13518325532E+03  0.14197897951E+03  0.27628070328E+03  0.16500000000E+03 0.  0.
<mgrwt>
<rscale>  0 0.47772892E+03</rscale>
<asrwt>0</asrwt>
<pdfrwt beam="1">  1        2 0.73491350E-01 0.47772892E+03</pdfrwt>
<pdfrwt beam="2">  1       -2 0.18375541E-01 0.47772892E+03</pdfrwt>
<totfact> 0.16023525E+03</totfact>
</mgrwt>
</event>
<event>
 4    1  0.8362047E-005  0.7001952E+03  0.7818608E-02  0.9716898E-01
          2   -1    0    0  501    0  0.00000000000E+00  0.00000000000E+00  0.12279132953E+04  0.12279132953E+04  0.25500000000E-02 0.  1.
         -2   -1    0    0    0  501 -0.00000000000E+00 -0.00000000000E+00 -0.99818388972E+02  0.99818389005E+02  0.25500000000E-02 0. -1.
    5000001    1    1    2    0    0  0.27334950661E+03  0.12218607204E+02  0.83537468906E+03  0.89439651064E+03  0.16500000000E+03 0.  0.
   -5000001    1    1    2    0    0 -0.27334950661E+03 -0.12218607204E+02  0.29272021723E+03  0.43333517363E+03  0.16500000000E+03 0.  0.
<mgrwt>
<rscale>  0 0.70019519E+03</rscale>
<asrwt>0</asrwt>
<pdfrwt beam="1">  1        2 0.18890976E+00 0.70019519E+03</pdfrwt>
<pdfrwt beam="2">  1       -2 0.15356674E-01 0.70019519E+03</pdfrwt>
<totfact> 0.61976111E+02</totfact>
</mgrwt>
</event>
<event>
 4    1  0.8362047E-005  0.4533498E+03  0.7818608E-02  0.1026728E+00
          2   -1    0    0  501    0  0.00000000000E+00  0.00000000000E+00  0.34960233683E+03  0.34960233684E+03  0.25500000000E-02 0.  1.
         -2   -1    0    0    0  501 -0.00000000000E+00 -0.00000000000E+00 -0.14697130627E+03  0.14697130630E+03  0.25500000000E-02 0. -1.
    5000001    1    1    2    0    0 -0.52164182915E+02 -0.13892577516E+03  0.50703556076E+02  0.22763418808E+03  0.16500000000E+03 0.  0.
   -5000001    1    1    2    0    0  0.52164182915E+02  0.13892577516E+03  0.15192747448E+03  0.26893945506E+03  0.16500000000E+03 0.  0.
<mgrwt>
<rscale>  0 0.45334981E+03</rscale>
<asrwt>0</asrwt>
<pdfrwt beam="1">  1        2 0.53784975E-01 0.45334981E+03</pdfrwt>
<pdfrwt beam="2">  1       -2 0.22610970E-01 0.45334981E+03</pdfrwt>
<totfact> 0.15816074E+03</totfact>
</mgrwt>
</event>
<event>
 4    1  0.8362047E-005  0.7580830E+03  0.7818608E-02  0.9622754E-01
          2   -1    0    0  501    0  0.00000000000E+00  0.00000000000E+00  0.14434639362E+04  0.14434639362E+04  0.25500000000E-02 0.  1.
         -2   -1    0    0    0  501 -0.00000000000E+00 -0.00000000000E+00 -0.99533118263E+02  0.99533118295E+02  0.25500000000E-02 0. -1.
    5000001    1    1    2    0    0  0.23714754952E+03  0.11778297650E+03  0.23383229003E+03  0.38989015076E+03  0.16500000000E+03 0.  0.
   -5000001    1    1    2    0    0 -0.23714754952E+03 -0.11778297650E+03  0.11100985279E+04  0.11531069037E+04  0.16500000000E+03 0.  0.
<mgrwt>
<rscale>  0 0.75808302E+03</rscale>
<asrwt>0</asrwt>
<pdfrwt beam="1">  1        2 0.22207137E+00 0.75808302E+03</pdfrwt>
<pdfrwt beam="2">  1       -2 0.15312788E-01 0.75808302E+03</pdfrwt>
<totfact> 0.46744191E+02</totfact>
</mgrwt>
</event>
<event>
 4    1  0.8362047E-005  0.5614246E+03  0.7818608E-02  0.9988836E-01
         -2   -1    0    0    0  501 -0.00000000000E+00  0.00000000000E+00  0.18801124988E+03  0.18801124990E+03  0.25500000000E-02 0. -1.
          2   -1    0    0  501    0  0.00000000000E+00 -0.00000000000E+00 -0.41912070723E+03  0.41912070724E+03  0.25500000000E-02 0.  1.
    5000001    1    1    2    0    0 -0.14273743211E+03  0.17621840229E+03 -0.12868880980E+03  0.30856556774E+03  0.16500000000E+03 0.  0.
   -5000001    1    1    2    0    0  0.14273743211E+03 -0.17621840229E+03 -0.10242064755E+03  0.29856638939E+03  0.16500000000E+03 0.  0.
<mgrwt>
<rscale>  0 0.56142465E+03</rscale>
<asrwt>0</asrwt>
<pdfrwt beam="1">  1        2 0.64480108E-01 0.56142465E+03</pdfrwt>
<pdfrwt beam="2">  1       -2 0.28924808E-01 0.56142465E+03</pdfrwt>
<totfact> 0.83097677E+02</totfact>
</mgrwt>
</event>
<event>
 4    1  0.8362047E-005  0.6373375E+03  0.7818608E-02  0.9830834E-01
          2   -1    0    0  501    0  0.00000000000E+00  0.00000000000E+00  0.57809335983E+03  0.57809335984E+03  0.25500000000E-02 0.  1.
         -2   -1    0    0    0  501 -0.00000000000E+00 -0.00000000000E+00 -0.17566325372E+03  0.17566325374E+03  0.25500000000E-02 0. -1.
    5000001    1    1    2    0    0 -0.10607976410E+03 -0.25058081641E+03  0.18138649818E+03  0.36629185580E+03  0.16500000000E+03 0.  0.
   -5000001    1    1    2    0    0  0.10607976410E+03  0.25058081641E+03  0.22104360793E+03  0.38746475777E+03  0.16500000000E+03 0.  0.
<mgrwt>
<rscale>  0 0.63733746E+03</rscale>
<asrwt>0</asrwt>
<pdfrwt beam="1">  1        2 0.88937440E-01 0.63733746E+03</pdfrwt>
<pdfrwt beam="2">  1       -2 0.27025116E-01 0.63733746E+03</pdfrwt>
<totfact> 0.64881251E+02</totfact>
</mgrwt>
</event>
<event>
 4    1  0.8362047E-005  0.1152401E+04  0.7818608E-02  0.9155571E-01
          2   -1    0    0  501    0  0.00000000000E+00  0.00000000000E+00  0.23681546706E+04  0.23681546706E+04  0.25500000000E-02 0.  1.
         -2   -1    0    0    0  501 -0.00000000000E+00 -0.00000000000E+00 -0.14019660222E+03  0.14019660225E+03  0.25500000000E-02 0. -1.
    5000001    1    1    2    0    0  0.14217888460E+03  0.43712179325E+03  0.44844285053E+03  0.66303566084E+03  0.16500000000E+03 0.  0.
   -5000001    1    1    2    0    0 -0.14217888460E+03 -0.43712179325E+03  0.17795152178E+04  0.18453156120E+04  0.16500000000E+03 0.  0.
<mgrwt>
<rscale>  0 0.11524014E+04</rscale>
<asrwt>0</asrwt>
<pdfrwt beam="1">  1        2 0.36433149E+00 0.11524014E+04</pdfrwt>
<pdfrwt beam="2">  1       -2 0.21568708E-01 0.11524014E+04</pdfrwt>
<totfact> 0.77175945E+01</totfact>
</mgrwt>
</event>
<event>
 4    1  0.8362047E-005  0.4826803E+03  0.7818608E-02  0.1018401E+00
         -2   -1    0    0    0  501 -0.00000000000E+00  0.00000000000E+00  0.97852991121E+02  0.97852991154E+02  0.25500000000E-02 0. -1.
          2   -1    0    0  501    0  0.00000000000E+00 -0.00000000000E+00 -0.59523026113E+03  0.59523026114E+03  0.25500000000E-02 0.  1.
    5000001    1    1    2    0    0  0.58694092862E+01  0.17450670049E+03 -0.28183980232E+03  0.37033189527E+03  0.16500000000E+03 0.  0.
   -5000001    1    1    2    0    0 -0.58694092862E+01 -0.17450670049E+03 -0.21553746769E+03  0.32275135702E+03  0.16500000000E+03 0.  0.
<mgrwt>
<rscale>  0 0.48268027E+03</rscale>
<asrwt>0</asrwt>
<pdfrwt beam="1">  1        2 0.91573884E-01 0.48268027E+03</pdfrwt>
<pdfrwt beam="2">  1       -2 0.15054307E-01 0.48268027E+03</pdfrwt>
<totfact> 0.17412193E+03</totfact>
</mgrwt>
</event>
<event>
 4    1  0.8362047E-005  0.5216771E+03  0.7818608E-02  0.1008271E+00
          2   -1    0    0  501    0  0.00000000000E+00  0.00000000000E+00  0.63717520032E+03  0.63717520033E+03  0.25500000000E-02 0.  1.
         -2   -1    0    0    0  501 -0.00000000000E+00 -0.00000000000E+00 -0.10677872760E+03  0.10677872763E+03  0.25500000000E-02 0. -1.
    5000001    1    1    2    0    0  0.16530032822E+03 -0.11161102749E+03  0.31097826686E+03  0.40461549949E+03  0.16500000000E+03 0.  0.
   -5000001    1    1    2    0    0 -0.16530032822E+03  0.11161102749E+03  0.21941820586E+03  0.33933842846E+03  0.16500000000E+03 0.  0.
<mgrwt>
<rscale>  0 0.52167713E+03</rscale>
<asrwt>0</asrwt>
<pdfrwt beam="1">  1        2 0.98026952E-01 0.52167713E+03</pdfrwt>
<pdfrwt beam="2">  1       -2 0.16427497E-01 0.52167713E+03</pdfrwt>
<totfact> 0.13850244E+03</totfact>
</mgrwt>
</event>
<event>
 4    1  0.8362047E-005  0.8663801E+03  0.7818608E-02  0.9468612E-01
          2   -1    0    0  501    0  0.00000000000E+00  0.00000000000E+00  0.97864963151E+03  0.97864963151E+03  0.25500000000E-02 0.  1.
         -2   -1    0    0    0  501 -0.00000000000E+00 -0.00000000000E+00 -0.19174751711E+03  0.19174751712E+03  0.25500000000E-02 0. -1.
    5000001    1    1    2    0    0 -0.20038610839E+03  0.33913076606E+03  0.29543485102E+03  0.51929858475E+03  0.16500000000E+03 0.  0.
   -5000001    1    1    2    0    0  0.20038610839E+03 -0.33913076606E+03  0.49146726338E+03  0.65109856389E+03  0.16500000000E+03 0.  0.
<mgrwt>
<rscale>  0 0.86638014E+03</rscale>
<asrwt>0</asrwt>
<pdfrwt beam="1">  1        2 0.15056148E+00 0.86638014E+03</pdfrwt>
<pdfrwt beam="2">  1       -2 0.29499618E-01 0.86638014E+03</pdfrwt>
<totfact> 0.27576288E+02</totfact>
</mgrwt>
</event>
<event>
 4    1  0.8362047E-005  0.6186920E+03  0.7818608E-02  0.9867367E-01
         -2   -1    0    0    0  501 -0.00000000000E+00  0.00000000000E+00  0.74121171743E+03  0.74121171743E+03  0.25500000000E-02 0.  1.
          2   -1    0    0  501    0  0.00000000000E+00 -0.00000000000E+00 -0.12910609819E+03  0.12910609822E+03  0.25500000000E-02 0. -1.
    5000001    1    1    2    0    0 -0.22157857229E+03 -0.85426087218E+02  0.46063228736E+03  0.54387662593E+03  0.16500000000E+03 0.  0.
   -5000001    1    1    2    0    0  0.22157857229E+03  0.85426087218E+02  0.15147333187E+03  0.32644118972E+03  0.16500000000E+03 0.  0.
<mgrwt>
<rscale>  0 0.61869202E+03</rscale>
<asrwt>0</asrwt>
<pdfrwt beam="1">  1        2 0.19862476E-01 0.61869202E+03</pdfrwt>
<pdfrwt beam="2">  1       -2 0.11403257E+00 0.61869202E+03</pdfrwt>
<totfact> 0.17464180E+02</totfact>
</mgrwt>
</event>
<event>
 4    1  0.8362047E-005  0.4907452E+03  0.7818608E-02  0.1016223E+00
         -2   -1    0    0    0  501 -0.00000000000E+00  0.00000000000E+00  0.29943682898E+02  0.29943683006E+02  0.25500000000E-02 0. -1.
          2   -1    0    0  501    0  0.00000000000E+00 -0.00000000000E+00 -0.20106984433E+04  0.20106984433E+04  0.25500000000E-02 0.  1.
    5000001    1    1    2    0    0  0.16046266948E+02  0.10271186860E+03 -0.16096010420E+04  0.16213721735E+04  0.16500000000E+03 0.  0.
   -5000001    1    1    2    0    0 -0.16046266948E+02 -0.10271186860E+03 -0.37115371841E+03  0.41926995280E+03  0.16500000000E+03 0.  0.
<mgrwt>
<rscale>  0 0.49074522E+03</rscale>
<asrwt>0</asrwt>
<pdfrwt beam="1">  1        2 0.30933812E+00 0.49074522E+03</pdfrwt>
<pdfrwt beam="2">  1       -2 0.46067220E-02 0.49074522E+03</pdfrwt>
<totfact> 0.16028370E+03</totfact>
</mgrwt>
</event>
<event>
 4    1  0.8362047E-005  0.5072384E+03  0.7818608E-02  0.1011907E+00
          2   -1    0    0  501    0  0.00000000000E+00  0.00000000000E+00  0.18018189319E+04  0.18018189319E+04  0.25500000000E-02 0.  1.
         -2   -1    0    0    0  501 -0.00000000000E+00 -0.00000000000E+00 -0.35698751508E+02  0.35698751599E+02  0.25500000000E-02 0. -1.
    5000001    1    1    2    0    0  0.46453340414E+02  0.15347268492E+03  0.12696079652E+04  0.12902872406E+04  0.16500000000E+03 0.  0.
   -5000001    1    1    2    0    0 -0.46453340414E+02 -0.15347268492E+03  0.49651221524E+03  0.54723044299E+03  0.16500000000E+03 0.  0.
<mgrwt>
<rscale>  0 0.50723835E+03</rscale>
<asrwt>0</asrwt>
<pdfrwt beam="1">  1        2 0.27720286E+00 0.50723835E+03</pdfrwt>
<pdfrwt beam="2">  1       -2 0.54921168E-02 0.50723835E+03</pdfrwt>
<totfact> 0.15804670E+03</totfact>
</mgrwt>
</event>
<event>
 4    1  0.8362047E-005  0.5631270E+03  0.7818608E-02  0.9985004E-01
         -2   -1    0    0    0  501 -0.00000000000E+00  0.00000000000E+00  0.15673753206E+03  0.15673753208E+03  0.25500000000E-02 0.  1.
          2   -1    0    0  501    0  0.00000000000E+00 -0.00000000000E+00 -0.50580097186E+03  0.50580097187E+03  0.25500000000E-02 0. -1.
    5000001    1    1    2    0    0  0.15816523565E+03 -0.15400474174E+03 -0.24231579007E+03  0.36698180386E+03  0.16500000000E+03 0.  0.
   -5000001    1    1    2    0    0 -0.15816523565E+03  0.15400474174E+03 -0.10674764974E+03  0.29555670009E+03  0.16500000000E+03 0.  0.
<mgrwt>
<rscale>  0 0.56312697E+03</rscale>
<asrwt>0</asrwt>
<pdfrwt beam="1">  1        2 0.77815533E-01 0.56312697E+03</pdfrwt>
<pdfrwt beam="2">  1       -2 0.24113467E-01 0.56312697E+03</pdfrwt>
<totfact> 0.93282818E+02</totfact>
</mgrwt>
</event>
<event>
 4    1  0.8362047E-005  0.3621814E+03  0.7818608E-02  0.1057723E+00
          2   -1    0    0  501    0  0.00000000000E+00  0.00000000000E+00  0.11642294771E+04  0.11642294771E+04  0.25500000000E-02 0.  1.
         -2   -1    0    0    0  501 -0.00000000000E+00 -0.00000000000E+00 -0.28167849780E+02  0.28167849895E+02  0.25500000000E-02 0. -1.
    5000001    1    1    2    0    0  0.72393057361E+02 -0.63516532005E+00  0.62762744932E+03  0.65297961172E+03  0.16500000000E+03 0.  0.
   -5000001    1    1    2    0    0 -0.72393057361E+02  0.63516532005E+00  0.50843417796E+03  0.53941771523E+03  0.16500000000E+03 0.  0.
<mgrwt>
<rscale>  0 0.36218140E+03</rscale>
<asrwt>0</asrwt>
<pdfrwt beam="1">  1        2 0.17911219E+00 0.36218140E+03</pdfrwt>
<pdfrwt beam="2">  1       -2 0.43335162E-02 0.36218140E+03</pdfrwt>
<totfact> 0.51210891E+03</totfact>
</mgrwt>
</event>
<event>
 4    1  0.8362047E-005  0.8622541E+03  0.7818608E-02  0.9474036E-01
         -2   -1    0    0    0  501 -0.00000000000E+00  0.00000000000E+00  0.20025083053E+03  0.20025083055E+03  0.25500000000E-02 0. -1.
          2   -1    0    0  501    0  0.00000000000E+00 -0.00000000000E+00 -0.92818859605E+03  0.92818859605E+03  0.25500000000E-02 0.  1.
    5000001    1    1    2    0    0  0.31794929201E+03 -0.19651999047E+03 -0.18389095854E+03  0.44805439802E+03  0.16500000000E+03 0.  0.
   -5000001    1    1    2    0    0 -0.31794929201E+03  0.19651999047E+03 -0.54404680698E+03  0.68038502859E+03  0.16500000000E+03 0.  0.
<mgrwt>
<rscale>  0 0.86225411E+03</rscale>
<asrwt>0</asrwt>
<pdfrwt beam="1">  1        2 0.14279824E+00 0.86225411E+03</pdfrwt>
<pdfrwt beam="2">  1       -2 0.30807821E-01 0.86225411E+03</pdfrwt>
<totfact> 0.27456505E+02</totfact>
</mgrwt>
</event>
<event>
 4    1  0.8362047E-005  0.5374000E+03  0.7818608E-02  0.1004453E+00
         -2   -1    0    0    0  501 -0.00000000000E+00  0.00000000000E+00  0.52032142065E+02  0.52032142127E+02  0.25500000000E-02 0. -1.
          2   -1    0    0  501    0  0.00000000000E+00 -0.00000000000E+00 -0.13875977222E+04  0.13875977222E+04  0.25500000000E-02 0.  1.
    5000001    1    1    2    0    0  0.84768253215E+02 -0.14991402608E+03 -0.99930224116E+03  0.10273703525E+04  0.16500000000E+03 0.  0.
   -5000001    1    1    2    0    0 -0.84768253215E+02  0.14991402608E+03 -0.33626333895E+03  0.41225951182E+03  0.16500000000E+03 0.  0.
<mgrwt>
<rscale>  0 0.53739997E+03</rscale>
<asrwt>0</asrwt>
<pdfrwt beam="1">  1        2 0.21347655E+00 0.53739997E+03</pdfrwt>
<pdfrwt beam="2">  1       -2 0.80049460E-02 0.53739997E+03</pdfrwt>
<totfact> 0.14698226E+03</totfact>
</mgrwt>
</event>
<event>
 4    1  0.8362047E-005  0.6080993E+03  0.7818608E-02  0.9888744E-01
          2   -1    0    0  501    0  0.00000000000E+00  0.00000000000E+00  0.27222797271E+03  0.27222797272E+03  0.25500000000E-02 0.  1.
         -2   -1    0    0    0  501 -0.00000000000E+00 -0.00000000000E+00 -0.33959105031E+03  0.33959105032E+03  0.25500000000E-02 0. -1.
    5000001    1    1    2    0    0  0.22954183092E+02  0.24305003455E+03  0.41750196230E+02  0.29760425518E+03  0.16500000000E+03 0.  0.
   -5000001    1    1    2    0    0 -0.22954183092E+02 -0.24305003455E+03 -0.10911327383E+03  0.31421476786E+03  0.16500000000E+03 0.  0.
<mgrwt>
<rscale>  0 0.60809928E+03</rscale>
<asrwt>0</asrwt>
<pdfrwt beam="1">  1        2 0.41881227E-01 0.60809928E+03</pdfrwt>
<pdfrwt beam="2">  1       -2 0.52244777E-01 0.60809928E+03</pdfrwt>
<totfact> 0.42702790E+02</totfact>
</mgrwt>
</event>
<event>
 4    1  0.8362047E-005  0.5194987E+03  0.7818608E-02  0.1008811E+00
         -2   -1    0    0    0  501 -0.00000000000E+00  0.00000000000E+00  0.57612331421E+02  0.57612331478E+02  0.25500000000E-02 0. -1.
          2   -1    0    0  501    0  0.00000000000E+00 -0.00000000000E+00 -0.11710986314E+04  0.11710986314E+04  0.25500000000E-02 0.  1.
    5000001    1    1    2    0    0 -0.53602502780E+02  0.14308208625E+03 -0.24927798579E+03  0.33572343664E+03  0.16500000000E+03 0.  0.
   -5000001    1    1    2    0    0  0.53602502780E+02 -0.14308208625E+03 -0.86420831419E+03  0.89298752624E+03  0.16500000000E+03 0.  0.
<mgrwt>
<rscale>  0 0.51949869E+03</rscale>
<asrwt>0</asrwt>
<pdfrwt beam="1">  1        2 0.18016900E+00 0.51949869E+03</pdfrwt>
<pdfrwt beam="2">  1       -2 0.88634365E-02 0.51949869E+03</pdfrwt>
<totfact> 0.16630695E+03</totfact>
</mgrwt>
</event>
<event>
 4    1  0.8362047E-005  0.4207979E+03  0.7818608E-02  0.1036807E+00
         -2   -1    0    0    0  501 -0.00000000000E+00  0.00000000000E+00  0.26392812071E+02  0.26392812194E+02  0.25500000000E-02 0. -1.
          2   -1    0    0  501    0  0.00000000000E+00 -0.00000000000E+00 -0.16772644464E+04  0.16772644464E+04  0.25500000000E-02 0.  1.
    5000001    1    1    2    0    0  0.12041227597E+03  0.42102868323E+02 -0.93785072422E+03  0.96076050535E+03  0.16500000000E+03 0.  0.
   -5000001    1    1    2    0    0 -0.12041227597E+03 -0.42102868323E+02 -0.71302091007E+03  0.74289675321E+03  0.16500000000E+03 0.  0.
<mgrwt>
<rscale>  0 0.42079793E+03</rscale>
<asrwt>0</asrwt>
<pdfrwt beam="1">  1        2 0.25804060E+00 0.42079793E+03</pdfrwt>
<pdfrwt beam="2">  1       -2 0.40604340E-02 0.42079793E+03</pdfrwt>
<totfact> 0.29435380E+03</totfact>
</mgrwt>
</event>
<event>
 4    1  0.8362047E-005  0.5771117E+03  0.7818608E-02  0.9954064E-01
          2   -1    0    0  501    0  0.00000000000E+00  0.00000000000E+00  0.19142196047E+04  0.19142196047E+04  0.25500000000E-02 0.  1.
         -2   -1    0    0    0  501 -0.00000000000E+00 -0.00000000000E+00 -0.43497870142E+02  0.43497870216E+02  0.25500000000E-02 0. -1.
    5000001    1    1    2    0    0 -0.22409669554E+03  0.76120338875E+02  0.91811662461E+03  0.96238078292E+03  0.16500000000E+03 0.  0.
   -5000001    1    1    2    0    0  0.22409669554E+03 -0.76120338875E+02  0.95260510997E+03  0.99533669202E+03  0.16500000000E+03 0.  0.
<mgrwt>
<rscale>  0 0.57711169E+03</rscale>
<asrwt>0</asrwt>
<pdfrwt beam="1">  1        2 0.29449525E+00 0.57711169E+03</pdfrwt>
<pdfrwt beam="2">  1       -2 0.66919816E-02 0.57711169E+03</pdfrwt>
<totfact> 0.10053678E+03</totfact>
</mgrwt>
</event>
<event>
 4    1  0.8362047E-005  0.4240565E+03  0.7818608E-02  0.1035754E+00
          2   -1    0    0  501    0  0.00000000000E+00  0.00000000000E+00  0.11094477250E+04  0.11094477250E+04  0.25500000000E-02 0.  1.
         -2   -1    0    0    0  501 -0.00000000000E+00 -0.00000000000E+00 -0.40521033903E+02  0.40521033983E+02  0.25500000000E-02 0. -1.
    5000001    1    1    2    0    0  0.11753105213E+03  0.62508283831E+02  0.54309666296E+03  0.58300927872E+03  0.16500000000E+03 0.  0.
   -5000001    1    1    2    0    0 -0.11753105213E+03 -0.62508283831E+02  0.52583002812E+03  0.56695948024E+03  0.16500000000E+03 0.  0.
<mgrwt>
<rscale>  0 0.42405645E+03</rscale>
<asrwt>0</asrwt>
<pdfrwt beam="1">  1        2 0.17068426E+00 0.42405645E+03</pdfrwt>
<pdfrwt beam="2">  1       -2 0.62340054E-02 0.42405645E+03</pdfrwt>
<totfact> 0.31554377E+03</totfact>
</mgrwt>
</event>
<event>
 4    1  0.8362047E-005  0.4229178E+03  0.7818608E-02  0.1036121E+00
          2   -1    0    0  501    0  0.00000000000E+00  0.00000000000E+00  0.31392853519E+03  0.31392853520E+03  0.25500000000E-02 0.  1.
         -2   -1    0    0    0  501 -0.00000000000E+00 -0.00000000000E+00 -0.14243644433E+03  0.14243644435E+03  0.25500000000E-02 0. -1.
    5000001    1    1    2    0    0 -0.78134528891E+00  0.13221191779E+03  0.89030199048E+02  0.22941660369E+03  0.16500000000E+03 0.  0.
   -5000001    1    1    2    0    0  0.78134528891E+00 -0.13221191779E+03  0.82461891808E+02  0.22694837586E+03  0.16500000000E+03 0.  0.
<mgrwt>
<rscale>  0 0.42291779E+03</rscale>
<asrwt>0</asrwt>
<pdfrwt beam="1">  1        2 0.48296697E-01 0.42291779E+03</pdfrwt>
<pdfrwt beam="2">  1       -2 0.21913299E-01 0.42291779E+03</pdfrwt>
<totfact> 0.18792400E+03</totfact>
</mgrwt>
</event>
<event>
 4    1  0.8362047E-005  0.6790397E+03  0.7818608E-02  0.9753764E-01
          2   -1    0    0  501    0  0.00000000000E+00  0.00000000000E+00  0.31090230298E+03  0.31090230299E+03  0.25500000000E-02 0.  1.
         -2   -1    0    0    0  501 -0.00000000000E+00 -0.00000000000E+00 -0.37077153165E+03  0.37077153166E+03  0.25500000000E-02 0. -1.
    5000001    1    1    2    0    0  0.16191853988E+03 -0.20252343202E+03 -0.17476961503E+03  0.35355731136E+03  0.16500000000E+03 0.  0.
   -5000001    1    1    2    0    0 -0.16191853988E+03  0.20252343202E+03  0.11490038636E+03  0.32811652330E+03  0.16500000000E+03 0.  0.
<mgrwt>
<rscale>  0 0.67903968E+03</rscale>
<asrwt>0</asrwt>
<pdfrwt beam="1">  1        2 0.47831124E-01 0.67903968E+03</pdfrwt>
<pdfrwt beam="2">  1       -2 0.57041774E-01 0.67903968E+03</pdfrwt>
<totfact> 0.30692195E+02</totfact>
</mgrwt>
</event>
<event>
 4    1  0.8362047E-005  0.5390570E+03  0.7818608E-02  0.1004059E+00
          2   -1    0    0  501    0  0.00000000000E+00  0.00000000000E+00  0.11073386617E+03  0.11073386620E+03  0.25500000000E-02 0.  1.
         -2   -1    0    0    0  501 -0.00000000000E+00 -0.00000000000E+00 -0.65603795120E+03  0.65603795121E+03  0.25500000000E-02 0. -1.
    5000001    1    1    2    0    0  0.20605046626E+03  0.30575734894E+02 -0.20858023967E+03  0.33782005060E+03  0.16500000000E+03 0.  0.
   -5000001    1    1    2    0    0 -0.20605046626E+03 -0.30575734894E+02 -0.33672384536E+03  0.42895176681E+03  0.16500000000E+03 0.  0.
<mgrwt>
<rscale>  0 0.53905702E+03</rscale>
<asrwt>0</asrwt>
<pdfrwt beam="1">  1        2 0.17035980E-01 0.53905702E+03</pdfrwt>
<pdfrwt beam="2">  1       -2 0.10092891E+00 0.53905702E+03</pdfrwt>
<totfact> 0.28122960E+02</totfact>
</mgrwt>
</event>
<event>
 4    1  0.8362047E-005  0.4606928E+03  0.7818608E-02  0.1024580E+00
          2   -1    0    0  501    0  0.00000000000E+00  0.00000000000E+00  0.72522351256E+02  0.72522351301E+02  0.25500000000E-02 0.  1.
         -2   -1    0    0    0  501 -0.00000000000E+00 -0.00000000000E+00 -0.73162904385E+03  0.73162904385E+03  0.25500000000E-02 0. -1.
    5000001    1    1    2    0    0 -0.58704362925E+02 -0.14928984424E+03 -0.31202851276E+03  0.38771181642E+03  0.16500000000E+03 0.  0.
   -5000001    1    1    2    0    0  0.58704362925E+02  0.14928984424E+03 -0.34707817984E+03  0.41643957873E+03  0.16500000000E+03 0.  0.
<mgrwt>
<rscale>  0 0.46069278E+03</rscale>
<asrwt>0</asrwt>
<pdfrwt beam="1">  1        2 0.11157285E-01 0.46069278E+03</pdfrwt>
<pdfrwt beam="2">  1       -2 0.11255831E+00 0.46069278E+03</pdfrwt>
<totfact> 0.36361111E+02</totfact>
</mgrwt>
</event>
<event>
 4    1  0.8362047E-005  0.5008254E+03  0.7818608E-02  0.1013564E+00
         -2   -1    0    0    0  501 -0.00000000000E+00  0.00000000000E+00  0.33964484137E+02  0.33964484233E+02  0.25500000000E-02 0. -1.
          2   -1    0    0  501    0  0.00000000000E+00 -0.00000000000E+00 -0.18462379246E+04  0.18462379246E+04  0.25500000000E-02 0.  1.
    5000001    1    1    2    0    0 -0.15036558350E+02 -0.12375943363E+03 -0.14362518555E+04  0.14510640536E+04  0.16500000000E+03 0.  0.
   -5000001    1    1    2    0    0  0.15036558350E+02  0.12375943363E+03 -0.37602158503E+03  0.42913835521E+03  0.16500000000E+03 0.  0.
<mgrwt>
<rscale>  0 0.50082539E+03</rscale>
<asrwt>0</asrwt>
<pdfrwt beam="1">  1        2 0.28403653E+00 0.50082539E+03</pdfrwt>
<pdfrwt beam="2">  1       -2 0.52253067E-02 0.50082539E+03</pdfrwt>
<totfact> 0.16165187E+03</totfact>
</mgrwt>
</event>
<event>
 4    1  0.8362047E-005  0.3411025E+03  0.7818608E-02  0.1066327E+00
         -2   -1    0    0    0  501 -0.00000000000E+00  0.00000000000E+00  0.24251299971E+02  0.24251300106E+02  0.25500000000E-02 0. -1.
          2   -1    0    0  501    0  0.00000000000E+00 -0.00000000000E+00 -0.11994299732E+04  0.11994299732E+04  0.25500000000E-02 0.  1.
    5000001    1    1    2    0    0  0.24627747258E+02  0.31461935185E+02 -0.52904090053E+03  0.55561286319E+03  0.16500000000E+03 0.  0.
   -5000001    1    1    2    0    0 -0.24627747258E+02 -0.31461935185E+02 -0.64613777271E+03  0.66806841014E+03  0.16500000000E+03 0.  0.
<mgrwt>
<rscale>  0 0.34110254E+03</rscale>
<asrwt>0</asrwt>
<pdfrwt beam="1">  1        2 0.18452764E+00 0.34110254E+03</pdfrwt>
<pdfrwt beam="2">  1       -2 0.37309702E-02 0.34110254E+03</pdfrwt>
<totfact> 0.61274102E+03</totfact>
</mgrwt>
</event>
<event>
 4    1  0.8362047E-005  0.3856114E+03  0.7818608E-02  0.1048879E+00
         -2   -1    0    0    0  501 -0.00000000000E+00  0.00000000000E+00  0.50543067650E+02  0.50543067714E+02  0.25500000000E-02 0. -1.
          2   -1    0    0  501    0  0.00000000000E+00 -0.00000000000E+00 -0.73549227175E+03  0.73549227176E+03  0.25500000000E-02 0.  1.
    5000001    1    1    2    0    0 -0.86148932904E+02  0.11464212177E+02 -0.44225214530E+03  0.47996356823E+03  0.16500000000E+03 0.  0.
   -5000001    1    1    2    0    0  0.86148932904E+02 -0.11464212177E+02 -0.24269705880E+03  0.30607177124E+03  0.16500000000E+03 0.  0.
<mgrwt>
<rscale>  0 0.38561139E+03</rscale>
<asrwt>0</asrwt>
<pdfrwt beam="1">  1        2 0.11315265E+00 0.38561139E+03</pdfrwt>
<pdfrwt beam="2">  1       -2 0.77758571E-02 0.38561139E+03</pdfrwt>
<totfact> 0.39213043E+03</totfact>
</mgrwt>
</event>
<event>
 4    1  0.8362047E-005  0.3708549E+03  0.7818608E-02  0.1054367E+00
          2   -1    0    0  501    0  0.00000000000E+00  0.00000000000E+00  0.11536827317E+04  0.11536827317E+04  0.25500000000E-02 0.  1.
         -2   -1    0    0    0  501 -0.00000000000E+00 -0.00000000000E+00 -0.29803122802E+02  0.29803122911E+02  0.25500000000E-02 0. -1.
    5000001    1    1    2    0    0  0.36974213920E+02  0.75982793288E+02  0.54844920421E+03  0.57893178092E+03  0.16500000000E+03 0.  0.
   -5000001    1    1    2    0    0 -0.36974213920E+02 -0.75982793288E+02  0.57543040472E+03  0.60455407371E+03  0.16500000000E+03 0.  0.
<mgrwt>
<rscale>  0 0.37085495E+03</rscale>
<asrwt>0</asrwt>
<pdfrwt beam="1">  1        2 0.17748965E+00 0.37085495E+03</pdfrwt>
<pdfrwt beam="2">  1       -2 0.45850958E-02 0.37085495E+03</pdfrwt>
<totfact> 0.47670291E+03</totfact>
</mgrwt>
</event>
<event>
 4    1  0.8362047E-005  0.4197641E+03  0.7818608E-02  0.1037143E+00
         -2   -1    0    0    0  501 -0.00000000000E+00  0.00000000000E+00  0.64115729173E+02  0.64115729224E+02  0.25500000000E-02 0. -1.
          2   -1    0    0  501    0  0.00000000000E+00 -0.00000000000E+00 -0.68704638507E+03  0.68704638508E+03  0.25500000000E-02 0.  1.
    5000001    1    1    2    0    0 -0.99535672130E+02 -0.82041769499E+02 -0.33595436717E+03  0.39588955378E+03  0.16500000000E+03 0.  0.
   -5000001    1    1    2    0    0  0.99535672130E+02  0.82041769499E+02 -0.28697628873E+03  0.35527256052E+03  0.16500000000E+03 0.  0.
<mgrwt>
<rscale>  0 0.41976412E+03</rscale>
<asrwt>0</asrwt>
<pdfrwt beam="1">  1        2 0.10569944E+00 0.41976412E+03</pdfrwt>
<pdfrwt beam="2">  1       -2 0.98639589E-02 0.41976412E+03</pdfrwt>
<totfact> 0.29265435E+03</totfact>
</mgrwt>
</event>
<event>
 4    1  0.8362047E-005  0.5491983E+03  0.7818608E-02  0.1001680E+00
         -2   -1    0    0    0  501 -0.00000000000E+00  0.00000000000E+00  0.85913740715E+02  0.85913740753E+02  0.25500000000E-02 0. -1.
          2   -1    0    0  501    0  0.00000000000E+00 -0.00000000000E+00 -0.87767911766E+03  0.87767911766E+03  0.25500000000E-02 0.  1.
    5000001    1    1    2    0    0  0.21564918561E+03  0.18512906251E+02 -0.45992709971E+03  0.53442046742E+03  0.16500000000E+03 0.  0.
   -5000001    1    1    2    0    0 -0.21564918561E+03 -0.18512906251E+02 -0.33183827723E+03  0.42917239099E+03  0.16500000000E+03 0.  0.
<mgrwt>
<rscale>  0 0.54919831E+03</rscale>
<asrwt>0</asrwt>
<pdfrwt beam="1">  1        2 0.13502755E+00 0.54919831E+03</pdfrwt>
<pdfrwt beam="2">  1       -2 0.13217499E-01 0.54919831E+03</pdfrwt>
<totfact> 0.13233914E+03</totfact>
</mgrwt>
</event>
<event>
 4    1  0.8362047E-005  0.5319909E+03  0.7818608E-02  0.1005750E+00
         -2   -1    0    0    0  501 -0.00000000000E+00  0.00000000000E+00  0.90625742233E+02  0.90625742269E+02  0.25500000000E-02 0. -1.
          2   -1    0    0  501    0  0.00000000000E+00 -0.00000000000E+00 -0.78072286334E+03  0.78072286334E+03  0.25500000000E-02 0.  1.
    5000001    1    1    2    0    0 -0.62558861342E+02  0.13824370678E+03 -0.57958123428E+03  0.62142122648E+03  0.16500000000E+03 0.  0.
   -5000001    1    1    2    0    0  0.62558861342E+02 -0.13824370678E+03 -0.11051588683E+03  0.24992737913E+03  0.16500000000E+03 0.  0.
<mgrwt>
<rscale>  0 0.53199094E+03</rscale>
<asrwt>0</asrwt>
<pdfrwt beam="1">  1        2 0.12011121E+00 0.53199094E+03</pdfrwt>
<pdfrwt beam="2">  1       -2 0.13942422E-01 0.53199094E+03</pdfrwt>
<totfact> 0.14150350E+03</totfact>
</mgrwt>
</event>
<event>
 4    1  0.8362047E-005  0.7232457E+03  0.7818608E-02  0.9678284E-01
         -2   -1    0    0    0  501 -0.00000000000E+00  0.00000000000E+00  0.34118563133E+03  0.34118563134E+03  0.25500000000E-02 0. -1.
          2   -1    0    0  501    0  0.00000000000E+00 -0.00000000000E+00 -0.38328427892E+03  0.38328427893E+03  0.25500000000E-02 0.  1.
    5000001    1    1    2    0    0  0.10375626890E+03  0.13382297202E+03 -0.29514021506E+03  0.37816226375E+03  0.16500000000E+03 0.  0.
   -5000001    1    1    2    0    0 -0.10375626890E+03 -0.13382297202E+03  0.25304156746E+03  0.34630764652E+03  0.16500000000E+03 0.  0.
<mgrwt>
<rscale>  0 0.72324571E+03</rscale>
<asrwt>0</asrwt>
<pdfrwt beam="1">  1        2 0.58966812E-01 0.72324571E+03</pdfrwt>
<pdfrwt beam="2">  1       -2 0.52490097E-01 0.72324571E+03</pdfrwt>
<totfact> 0.28837824E+02</totfact>
</mgrwt>
</event>
<event>
 4    1  0.8362047E-005  0.6548948E+03  0.7818608E-02  0.9797637E-01
         -2   -1    0    0    0  501 -0.00000000000E+00  0.00000000000E+00  0.17659640582E+03  0.17659640583E+03  0.25500000000E-02 0. -1.
          2   -1    0    0  501    0  0.00000000000E+00 -0.00000000000E+00 -0.60715736731E+03  0.60715736732E+03  0.25500000000E-02 0.  1.
    5000001    1    1    2    0    0 -0.17477837297E+03 -0.75643583576E+02  0.34975692791E+02  0.25439679731E+03  0.16500000000E+03 0.  0.
   -5000001    1    1    2    0    0  0.17477837297E+03  0.75643583576E+02 -0.46553665429E+03  0.52935697585E+03  0.16500000000E+03 0.  0.
<mgrwt>
<rscale>  0 0.65489483E+03</rscale>
<asrwt>0</asrwt>
<pdfrwt beam="1">  1        2 0.93408825E-01 0.65489483E+03</pdfrwt>
<pdfrwt beam="2">  1       -2 0.27168678E-01 0.65489483E+03</pdfrwt>
<totfact> 0.60566750E+02</totfact>
</mgrwt>
</event>
<event>
 4    1  0.8362047E-005  0.4377249E+03  0.7818608E-02  0.1031447E+00
          2   -1    0    0  501    0  0.00000000000E+00  0.00000000000E+00  0.17078471606E+04  0.17078471606E+04  0.25500000000E-02 0.  1.
         -2   -1    0    0    0  501 -0.00000000000E+00 -0.00000000000E+00 -0.28047459027E+02  0.28047459143E+02  0.25500000000E-02 0. -1.
    5000001    1    1    2    0    0 -0.80867481820E+02  0.11141349487E+03  0.67527434857E+03  0.70864163178E+03  0.16500000000E+03 0.  0.
   -5000001    1    1    2    0    0  0.80867481820E+02 -0.11141349487E+03  0.10045253530E+04  0.10272529879E+04  0.16500000000E+03 0.  0.
<mgrwt>
<rscale>  0 0.43772491E+03</rscale>
<asrwt>0</asrwt>
<pdfrwt beam="1">  1        2 0.26274575E+00 0.43772491E+03</pdfrwt>
<pdfrwt beam="2">  1       -2 0.43149931E-02 0.43772491E+03</pdfrwt>
<totfact> 0.25818887E+03</totfact>
</mgrwt>
</event>
<event>
 4    1  0.8362047E-005  0.3955322E+03  0.7818608E-02  0.1045338E+00
         -2   -1    0    0    0  501 -0.00000000000E+00  0.00000000000E+00  0.37057786405E+02  0.37057786493E+02  0.25500000000E-02 0. -1.
          2   -1    0    0  501    0  0.00000000000E+00 -0.00000000000E+00 -0.10554174234E+04  0.10554174234E+04  0.25500000000E-02 0.  1.
    5000001    1    1    2    0    0 -0.88862330619E+02 -0.58801199844E+02 -0.44545278496E+03  0.48683393322E+03  0.16500000000E+03 0.  0.
   -5000001    1    1    2    0    0  0.88862330619E+02  0.58801199844E+02 -0.57290685206E+03  0.60564127670E+03  0.16500000000E+03 0.  0.
<mgrwt>
<rscale>  0 0.39553222E+03</rscale>
<asrwt>0</asrwt>
<pdfrwt beam="1">  1        2 0.16237189E+00 0.39553222E+03</pdfrwt>
<pdfrwt beam="2">  1       -2 0.57011987E-02 0.39553222E+03</pdfrwt>
<totfact> 0.39050930E+03</totfact>
</mgrwt>
</event>
<event>
 4    1  0.8362047E-005  0.6758526E+03  0.7818608E-02  0.9759442E-01
         -2   -1    0    0    0  501 -0.00000000000E+00  0.00000000000E+00  0.90173040269E+03  0.90173040269E+03  0.25500000000E-02 0. -1.
          2   -1    0    0  501    0  0.00000000000E+00 -0.00000000000E+00 -0.12663895406E+03  0.12663895408E+03  0.25500000000E-02 0.  1.
    5000001    1    1    2    0    0  0.29287144435E+03 -0.32375618440E+02  0.36907666072E+03  0.50026437518E+03  0.16500000000E+03 0.  0.
   -5000001    1    1    2    0    0 -0.29287144435E+03  0.32375618440E+02  0.40601478791E+03  0.52810498160E+03  0.16500000000E+03 0.  0.
<mgrwt>
<rscale>  0 0.67585263E+03</rscale>
<asrwt>0</asrwt>
<pdfrwt beam="1">  1        2 0.19482917E-01 0.67585263E+03</pdfrwt>
<pdfrwt beam="2">  1       -2 0.13872775E+00 0.67585263E+03</pdfrwt>
<totfact> 0.10918950E+02</totfact>
</mgrwt>
</event>
<event>
 4    1  0.8362047E-005  0.7103532E+03  0.7818608E-02  0.9699689E-01
          2   -1    0    0  501    0  0.00000000000E+00  0.00000000000E+00  0.24769893985E+04  0.24769893985E+04  0.25500000000E-02 0.  1.
         -2   -1    0    0    0  501 -0.00000000000E+00 -0.00000000000E+00 -0.50928925579E+02  0.50928925643E+02  0.25500000000E-02 0. -1.
    5000001    1    1    2    0    0  0.29308215314E+02 -0.27935176617E+03  0.17166684199E+04  0.17473041649E+04  0.16500000000E+03 0.  0.
   -5000001    1    1    2    0    0 -0.29308215314E+02  0.27935176617E+03  0.70939205302E+03  0.78061415926E+03  0.16500000000E+03 0.  0.
<mgrwt>
<rscale>  0 0.71035318E+03</rscale>
<asrwt>0</asrwt>
<pdfrwt beam="1">  1        2 0.38107530E+00 0.71035318E+03</pdfrwt>
<pdfrwt beam="2">  1       -2 0.78352193E-02 0.71035318E+03</pdfrwt>
<totfact> 0.38008105E+02</totfact>
</mgrwt>
</event>
<event>
 4    1  0.8362047E-005  0.4875499E+03  0.7818608E-02  0.1017081E+00
          2   -1    0    0  501    0  0.00000000000E+00  0.00000000000E+00  0.14869377835E+03  0.14869377837E+03  0.25500000000E-02 0.  1.
         -2   -1    0    0    0  501 -0.00000000000E+00 -0.00000000000E+00 -0.39965511096E+03  0.39965511097E+03  0.25500000000E-02 0. -1.
    5000001    1    1    2    0    0  0.92253955654E+02  0.54255113603E+00  0.47629159103E+02  0.19494774554E+03  0.16500000000E+03 0.  0.
   -5000001    1    1    2    0    0 -0.92253955654E+02 -0.54255113603E+00 -0.29859049172E+03  0.35340114380E+03  0.16500000000E+03 0.  0.
<mgrwt>
<rscale>  0 0.48754991E+03</rscale>
<asrwt>0</asrwt>
<pdfrwt beam="1">  1        2 0.22875966E-01 0.48754991E+03</pdfrwt>
<pdfrwt beam="2">  1       -2 0.61485401E-01 0.48754991E+03</pdfrwt>
<totfact> 0.60128328E+02</totfact>
</mgrwt>
</event>
<event>
 4    1  0.8362047E-005  0.5230095E+03  0.7818608E-02  0.1007942E+00
          2   -1    0    0  501    0  0.00000000000E+00  0.00000000000E+00  0.17921287977E+03  0.17921287979E+03  0.25500000000E-02 0.  1.
         -2   -1    0    0    0  501 -0.00000000000E+00 -0.00000000000E+00 -0.38158374886E+03  0.38158374887E+03  0.25500000000E-02 0. -1.
    5000001    1    1    2    0    0 -0.76665369601E+02 -0.18750932836E+03 -0.11304799388E+03  0.28467907552E+03  0.16500000000E+03 0.  0.
   -5000001    1    1    2    0    0  0.76665369601E+02  0.18750932836E+03 -0.89322875205E+02  0.27611755314E+03  0.16500000000E+03 0.  0.
<mgrwt>
<rscale>  0 0.52300946E+03</rscale>
<asrwt>0</asrwt>
<pdfrwt beam="1">  1        2 0.27571212E-01 0.52300946E+03</pdfrwt>
<pdfrwt beam="2">  1       -2 0.58705192E-01 0.52300946E+03</pdfrwt>
<totfact> 0.53550793E+02</totfact>
</mgrwt>
</event>
<event>
 4    1  0.8362047E-005  0.5782610E+03  0.7818608E-02  0.9951563E-01
          2   -1    0    0  501    0  0.00000000000E+00  0.00000000000E+00  0.13482833097E+04  0.13482833097E+04  0.25500000000E-02 0.  1.
         -2   -1    0    0    0  501 -0.00000000000E+00 -0.00000000000E+00 -0.62002145359E+02  0.62002145411E+02  0.25500000000E-02 0. -1.
    5000001    1    1    2    0    0 -0.22262635675E+03 -0.58359877959E+02  0.78541265707E+03  0.83490503170E+03  0.16500000000E+03 0.  0.
   -5000001    1    1    2    0    0  0.22262635675E+03  0.58359877959E+02  0.50086850731E+03  0.57538042345E+03  0.16500000000E+03 0.  0.
<mgrwt>
<rscale>  0 0.57826104E+03</rscale>
<asrwt>0</asrwt>
<pdfrwt beam="1">  1        2 0.20742819E+00 0.57826104E+03</pdfrwt>
<pdfrwt beam="2">  1       -2 0.95387920E-02 0.57826104E+03</pdfrwt>
<totfact> 0.11661744E+03</totfact>
</mgrwt>
</event>
<event>
 4    1  0.8362047E-005  0.4257407E+03  0.7818608E-02  0.1035214E+00
          2   -1    0    0  501    0  0.00000000000E+00  0.00000000000E+00  0.95250598032E+03  0.95250598032E+03  0.25500000000E-02 0.  1.
         -2   -1    0    0    0  501 -0.00000000000E+00 -0.00000000000E+00 -0.47573222559E+02  0.47573222627E+02  0.25500000000E-02 0. -1.
    5000001    1    1    2    0    0  0.26505567971E+02 -0.12834494165E+03  0.52347599682E+03  0.56429344177E+03  0.16500000000E+03 0.  0.
   -5000001    1    1    2    0    0 -0.26505567971E+02  0.12834494165E+03  0.38145676094E+03  0.43578576118E+03  0.16500000000E+03 0.  0.
<mgrwt>
<rscale>  0 0.42574067E+03</rscale>
<asrwt>0</asrwt>
<pdfrwt beam="1">  1        2 0.14653937E+00 0.42574067E+03</pdfrwt>
<pdfrwt beam="2">  1       -2 0.73189580E-02 0.42574067E+03</pdfrwt>
<totfact> 0.30676518E+03</totfact>
</mgrwt>
</event>
<event>
 4    1  0.8362047E-005  0.5287399E+03  0.7818608E-02  0.1006538E+00
          2   -1    0    0  501    0  0.00000000000E+00  0.00000000000E+00  0.33085815461E+04  0.33085815461E+04  0.25500000000E-02 0.  1.
         -2   -1    0    0    0  501 -0.00000000000E+00 -0.00000000000E+00 -0.21124299165E+02  0.21124299319E+02  0.25500000000E-02 0. -1.
    5000001    1    1    2    0    0 -0.18904167183E+03 -0.68833867087E+02  0.19385409250E+04  0.19559245314E+04  0.16500000000E+03 0.  0.
   -5000001    1    1    2    0    0  0.18904167183E+03  0.68833867087E+02  0.13489163220E+04  0.13737813140E+04  0.16500000000E+03 0.  0.
<mgrwt>
<rscale>  0 0.52873989E+03</rscale>
<asrwt>0</asrwt>
<pdfrwt beam="1">  1        2 0.50901203E+00 0.52873989E+03</pdfrwt>
<pdfrwt beam="2">  1       -2 0.32498955E-02 0.52873989E+03</pdfrwt>
<totfact> 0.48332826E+02</totfact>
</mgrwt>
</event>
<event>
 4    1  0.8362047E-005  0.4559755E+03  0.7818608E-02  0.1025955E+00
          2   -1    0    0  501    0  0.00000000000E+00  0.00000000000E+00  0.12497348171E+04  0.12497348171E+04  0.25500000000E-02 0.  1.
         -2   -1    0    0    0  501 -0.00000000000E+00 -0.00000000000E+00 -0.41591551716E+02  0.41591551794E+02  0.25500000000E-02 0. -1.
    5000001    1    1    2    0    0  0.15291786546E+03 -0.36909458618E+02  0.59645747113E+03  0.63853950275E+03  0.16500000000E+03 0.  0.
   -5000001    1    1    2    0    0 -0.15291786546E+03  0.36909458618E+02  0.61168579426E+03  0.65278686615E+03  0.16500000000E+03 0.  0.
<mgrwt>
<rscale>  0 0.45597548E+03</rscale>
<asrwt>0</asrwt>
<pdfrwt beam="1">  1        2 0.19226688E+00 0.45597548E+03</pdfrwt>
<pdfrwt beam="2">  1       -2 0.63987007E-02 0.45597548E+03</pdfrwt>
<totfact> 0.25085137E+03</totfact>
</mgrwt>
</event>
<event>
 4    1  0.8362047E-005  0.4045622E+03  0.7818608E-02  0.1042211E+00
          2   -1    0    0  501    0  0.00000000000E+00  0.00000000000E+00  0.42292299346E+03  0.42292299347E+03  0.25500000000E-02 0.  1.
         -2   -1    0    0    0  501 -0.00000000000E+00 -0.00000000000E+00 -0.96749612141E+02  0.96749612175E+02  0.25500000000E-02 0. -1.
    5000001    1    1    2    0    0  0.25463224495E+02 -0.10472383535E+03  0.10454282027E+03  0.22309114451E+03  0.16500000000E+03 0.  0.
   -5000001    1    1    2    0    0 -0.25463224495E+02  0.10472383535E+03  0.22163056105E+03  0.29658146113E+03  0.16500000000E+03 0.  0.
<mgrwt>
<rscale>  0 0.40456216E+03</rscale>
<asrwt>0</asrwt>
<pdfrwt beam="1">  1        2 0.65065075E-01 0.40456216E+03</pdfrwt>
<pdfrwt beam="2">  1       -2 0.14884556E-01 0.40456216E+03</pdfrwt>
<totfact> 0.26192973E+03</totfact>
</mgrwt>
</event>
<event>
 4    1  0.8362047E-005  0.5847473E+03  0.7818608E-02  0.9937566E-01
          2   -1    0    0  501    0  0.00000000000E+00  0.00000000000E+00  0.11240247707E+04  0.11240247707E+04  0.25500000000E-02 0.  1.
         -2   -1    0    0    0  501 -0.00000000000E+00 -0.00000000000E+00 -0.76050237992E+02  0.76050238035E+02  0.25500000000E-02 0. -1.
    5000001    1    1    2    0    0 -0.69891731693E+02 -0.21862019821E+03  0.67726108602E+03  0.73388502087E+03  0.16500000000E+03 0.  0.
   -5000001    1    1    2    0    0  0.69891731693E+02  0.21862019821E+03  0.37071344665E+03  0.46618998782E+03  0.16500000000E+03 0.  0.
<mgrwt>
<rscale>  0 0.58474730E+03</rscale>
<asrwt>0</asrwt>
<pdfrwt beam="1">  1        2 0.17292688E+00 0.58474730E+03</pdfrwt>
<pdfrwt beam="2">  1       -2 0.11700037E-01 0.58474730E+03</pdfrwt>
<totfact> 0.11289488E+03</totfact>
</mgrwt>
</event>
<event>
 4    1  0.8362047E-005  0.4555948E+03  0.7818608E-02  0.1026067E+00
          2   -1    0    0  501    0  0.00000000000E+00  0.00000000000E+00  0.11496280228E+03  0.11496280231E+03  0.25500000000E-02 0.  1.
         -2   -1    0    0    0  501 -0.00000000000E+00 -0.00000000000E+00 -0.45137779141E+03  0.45137779141E+03  0.25500000000E-02 0. -1.
    5000001    1    1    2    0    0 -0.22894792701E+01 -0.11593771747E+03 -0.36535732981E+02  0.20495525324E+03  0.16500000000E+03 0.  0.
   -5000001    1    1    2    0    0  0.22894792701E+01  0.11593771747E+03 -0.29987925615E+03  0.36138534048E+03  0.16500000000E+03 0.  0.
<mgrwt>
<rscale>  0 0.45559480E+03</rscale>
<asrwt>0</asrwt>
<pdfrwt beam="1">  1        2 0.17686585E-01 0.45559480E+03</pdfrwt>
<pdfrwt beam="2">  1       -2 0.69442736E-01 0.45559480E+03</pdfrwt>
<totfact> 0.62581668E+02</totfact>
</mgrwt>
</event>
<event>
 4    1  0.8362047E-005  0.3533377E+03  0.7818608E-02  0.1061253E+00
         -2   -1    0    0    0  501 -0.00000000000E+00  0.00000000000E+00  0.14642572434E+03  0.14642572437E+03  0.25500000000E-02 0. -1.
          2   -1    0    0  501    0  0.00000000000E+00 -0.00000000000E+00 -0.21315842316E+03  0.21315842318E+03  0.25500000000E-02 0.  1.
    5000001    1    1    2    0    0 -0.90555826360E+01  0.34535806659E+02  0.19632633394E+02  0.16995636444E+03  0.16500000000E+03 0.  0.
   -5000001    1    1    2    0    0  0.90555826360E+01 -0.34535806659E+02 -0.86365332214E+02  0.18962778311E+03  0.16500000000E+03 0.  0.
<mgrwt>
<rscale>  0 0.35333767E+03</rscale>
<asrwt>0</asrwt>
<pdfrwt beam="1">  1        2 0.32793604E-01 0.35333767E+03</pdfrwt>
<pdfrwt beam="2">  1       -2 0.22527034E-01 0.35333767E+03</pdfrwt>
<totfact> 0.27268833E+03</totfact>
</mgrwt>
</event>
<event>
 4    1  0.8362047E-005  0.5602461E+03  0.7818608E-02  0.9991498E-01
         -2   -1    0    0    0  501 -0.00000000000E+00  0.00000000000E+00  0.18596400819E+03  0.18596400821E+03  0.25500000000E-02 0. -1.
          2   -1    0    0  501    0  0.00000000000E+00 -0.00000000000E+00 -0.42195764130E+03  0.42195764131E+03  0.25500000000E-02 0.  1.
    5000001    1    1    2    0    0 -0.15036900542E+03  0.16186883672E+03 -0.64489560895E+02  0.28318944465E+03  0.16500000000E+03 0.  0.
   -5000001    1    1    2    0    0  0.15036900542E+03 -0.16186883672E+03 -0.17150407221E+03  0.32473220487E+03  0.16500000000E+03 0.  0.
<mgrwt>
<rscale>  0 0.56024614E+03</rscale>
<asrwt>0</asrwt>
<pdfrwt beam="1">  1        2 0.64916560E-01 0.56024614E+03</pdfrwt>
<pdfrwt beam="2">  1       -2 0.28609848E-01 0.56024614E+03</pdfrwt>
<totfact> 0.84144420E+02</totfact>
</mgrwt>
</event>
<event>
 4    1  0.8362047E-005  0.4544678E+03  0.7818608E-02  0.1026398E+00
         -2   -1    0    0    0  501 -0.00000000000E+00  0.00000000000E+00  0.63810612821E+02  0.63810612872E+02  0.25500000000E-02 0. -1.
          2   -1    0    0  501    0  0.00000000000E+00 -0.00000000000E+00 -0.80919539331E+03  0.80919539331E+03  0.25500000000E-02 0.  1.
    5000001    1    1    2    0    0 -0.37447924355E+02 -0.14011144719E+03 -0.26106786431E+03  0.34119641623E+03  0.16500000000E+03 0.  0.
   -5000001    1    1    2    0    0  0.37447924355E+02  0.14011144719E+03 -0.48431691618E+03  0.53180958996E+03  0.16500000000E+03 0.  0.
<mgrwt>
<rscale>  0 0.45446784E+03</rscale>
<asrwt>0</asrwt>
<pdfrwt beam="1">  1        2 0.12449159E+00 0.45446784E+03</pdfrwt>
<pdfrwt beam="2">  1       -2 0.98170179E-02 0.45446784E+03</pdfrwt>
<totfact> 0.23985568E+03</totfact>
</mgrwt>
</event>
<event>
 4    1  0.8362047E-005  0.4606676E+03  0.7818608E-02  0.1024588E+00
         -2   -1    0    0    0  501 -0.00000000000E+00  0.00000000000E+00  0.16324491138E+03  0.16324491140E+03  0.25500000000E-02 0. -1.
          2   -1    0    0  501    0  0.00000000000E+00 -0.00000000000E+00 -0.32499426184E+03  0.32499426185E+03  0.25500000000E-02 0.  1.
    5000001    1    1    2    0    0  0.14521753280E+03  0.65311554397E+02 -0.10397186130E+03  0.25177148153E+03  0.16500000000E+03 0.  0.
   -5000001    1    1    2    0    0 -0.14521753280E+03 -0.65311554397E+02 -0.57777489167E+02  0.23646769172E+03  0.16500000000E+03 0.  0.
<mgrwt>
<rscale>  0 0.46066760E+03</rscale>
<asrwt>0</asrwt>
<pdfrwt beam="1">  1        2 0.49999117E-01 0.46066760E+03</pdfrwt>
<pdfrwt beam="2">  1       -2 0.25114602E-01 0.46066760E+03</pdfrwt>
<totfact> 0.14225106E+03</totfact>
</mgrwt>
</event>
<event>
 4    1  0.8362047E-005  0.4531981E+03  0.7818608E-02  0.1026773E+00
          2   -1    0    0  501    0  0.00000000000E+00  0.00000000000E+00  0.22500786684E+03  0.22500786686E+03  0.25500000000E-02 0.  1.
         -2   -1    0    0    0  501 -0.00000000000E+00 -0.00000000000E+00 -0.22820143877E+03  0.22820143878E+03  0.25500000000E-02 0. -1.
    5000001    1    1    2    0    0 -0.11307065567E+03  0.10403773647E+03 -0.24253366871E+02  0.22676430405E+03  0.16500000000E+03 0.  0.
   -5000001    1    1    2    0    0  0.11307065567E+03 -0.10403773647E+03  0.21059794945E+02  0.22644500160E+03  0.16500000000E+03 0.  0.
<mgrwt>
<rscale>  0 0.45319805E+03</rscale>
<asrwt>0</asrwt>
<pdfrwt beam="1">  1        2 0.34616595E-01 0.45319805E+03</pdfrwt>
<pdfrwt beam="2">  1       -2 0.35107913E-01 0.45319805E+03</pdfrwt>
<totfact> 0.11516850E+03</totfact>
</mgrwt>
</event>
<event>
 4    1  0.8362047E-005  0.9858110E+03  0.7818608E-02  0.9324245E-01
         -2   -1    0    0    0  501 -0.00000000000E+00  0.00000000000E+00  0.22472577290E+03  0.22472577291E+03  0.25500000000E-02 0. -1.
          2   -1    0    0  501    0  0.00000000000E+00 -0.00000000000E+00 -0.10811213692E+04  0.10811213692E+04  0.25500000000E-02 0.  1.
    5000001    1    1    2    0    0  0.15496046876E+03 -0.38941744021E+03 -0.69336510570E+03  0.82682456387E+03  0.16500000000E+03 0.  0.
   -5000001    1    1    2    0    0 -0.15496046876E+03  0.38941744021E+03 -0.16303049062E+03  0.47902257826E+03  0.16500000000E+03 0.  0.
<mgrwt>
<rscale>  0 0.98581101E+03</rscale>
<asrwt>0</asrwt>
<pdfrwt beam="1">  1        2 0.16632636E+00 0.98581101E+03</pdfrwt>
<pdfrwt beam="2">  1       -2 0.34573196E-01 0.98581101E+03</pdfrwt>
<totfact> 0.17514183E+02</totfact>
</mgrwt>
</event>
<event>
 4    1  0.8362047E-005  0.1349740E+04  0.7818608E-02  0.8991025E-01
          2   -1    0    0  501    0  0.00000000000E+00  0.00000000000E+00  0.32169966158E+03  0.32169966159E+03  0.25500000000E-02 0.  1.
         -2   -1    0    0    0  501 -0.00000000000E+00 -0.00000000000E+00 -0.14157593036E+04  0.14157593036E+04  0.25500000000E-02 0. -1.
    5000001    1    1    2    0    0 -0.32688714434E+03 -0.56395812005E+03 -0.62120433060E+03  0.91543639138E+03  0.16500000000E+03 0.  0.
   -5000001    1    1    2    0    0  0.32688714434E+03  0.56395812005E+03 -0.47285531141E+03  0.82202257380E+03  0.16500000000E+03 0.  0.
<mgrwt>
<rscale>  0 0.13497397E+04</rscale>
<asrwt>0</asrwt>
<pdfrwt beam="1">  1        2 0.49492256E-01 0.13497397E+04</pdfrwt>
<pdfrwt beam="2">  1       -2 0.21780912E+00 0.13497397E+04</pdfrwt>
<totfact> 0.10119955E+01</totfact>
</mgrwt>
</event>
<event>
 4    1  0.8362047E-005  0.3887255E+03  0.7818608E-02  0.1047755E+00
          2   -1    0    0  501    0  0.00000000000E+00  0.00000000000E+00  0.31975972290E+03  0.31975972291E+03  0.25500000000E-02 0.  1.
         -2   -1    0    0    0  501 -0.00000000000E+00 -0.00000000000E+00 -0.11814147756E+03  0.11814147759E+03  0.25500000000E-02 0. -1.
    5000001    1    1    2    0    0  0.15387202779E+02 -0.10154783346E+03  0.10281089551E+03  0.21987225547E+03  0.16500000000E+03 0.  0.
   -5000001    1    1    2    0    0 -0.15387202779E+02  0.10154783346E+03  0.98807349823E+02  0.21802894503E+03  0.16500000000E+03 0.  0.
<mgrwt>
<rscale>  0 0.38872554E+03</rscale>
<asrwt>0</asrwt>
<pdfrwt beam="1">  1        2 0.49193802E-01 0.38872554E+03</pdfrwt>
<pdfrwt beam="2">  1       -2 0.18175612E-01 0.38872554E+03</pdfrwt>
<totfact> 0.25411957E+03</totfact>
</mgrwt>
</event>
<event>
 4    1  0.8362047E-005  0.3763554E+03  0.7818608E-02  0.1052289E+00
          2   -1    0    0  501    0  0.00000000000E+00  0.00000000000E+00  0.86532377661E+03  0.86532377662E+03  0.25500000000E-02 0.  1.
         -2   -1    0    0    0  501 -0.00000000000E+00 -0.00000000000E+00 -0.40922069259E+02  0.40922069338E+02  0.25500000000E-02 0. -1.
    5000001    1    1    2    0    0  0.30010654889E+02  0.81213295141E+02  0.34896741312E+03  0.39560016953E+03  0.16500000000E+03 0.  0.
   -5000001    1    1    2    0    0 -0.30010654889E+02 -0.81213295141E+02  0.47543429424E+03  0.51064567642E+03  0.16500000000E+03 0.  0.
<mgrwt>
<rscale>  0 0.37635536E+03</rscale>
<asrwt>0</asrwt>
<pdfrwt beam="1">  1        2 0.13312673E+00 0.37635536E+03</pdfrwt>
<pdfrwt beam="2">  1       -2 0.62957030E-02 0.37635536E+03</pdfrwt>
<totfact> 0.44207049E+03</totfact>
</mgrwt>
</event>
<event>
 4    1  0.8362047E-005  0.4604760E+03  0.7818608E-02  0.1024643E+00
         -2   -1    0    0    0  501 -0.00000000000E+00  0.00000000000E+00  0.51101770445E+02  0.51101770509E+02  0.25500000000E-02 0. -1.
          2   -1    0    0  501    0  0.00000000000E+00 -0.00000000000E+00 -0.10373328300E+04  0.10373328300E+04  0.25500000000E-02 0.  1.
    5000001    1    1    2    0    0 -0.23416534362E+02  0.13212259530E+03 -0.28462786739E+03  0.35530653972E+03  0.16500000000E+03 0.  0.
   -5000001    1    1    2    0    0  0.23416534362E+02 -0.13212259530E+03 -0.70160319221E+03  0.73312806084E+03  0.16500000000E+03 0.  0.
<mgrwt>
<rscale>  0 0.46047603E+03</rscale>
<asrwt>0</asrwt>
<pdfrwt beam="1">  1        2 0.15958965E+00 0.46047603E+03</pdfrwt>
<pdfrwt beam="2">  1       -2 0.78618116E-02 0.46047603E+03</pdfrwt>
<totfact> 0.24245476E+03</totfact>
</mgrwt>
</event>
<event>
 4    1  0.8362047E-005  0.4450041E+03  0.7818608E-02  0.1029222E+00
          2   -1    0    0  501    0  0.00000000000E+00  0.00000000000E+00  0.10602640176E+04  0.10602640176E+04  0.25500000000E-02 0.  1.
         -2   -1    0    0    0  501 -0.00000000000E+00 -0.00000000000E+00 -0.46693239826E+02  0.46693239895E+02  0.25500000000E-02 0. -1.
    5000001    1    1    2    0    0 -0.13284333930E+03  0.43615607633E+02  0.37675466588E+03  0.43441771636E+03  0.16500000000E+03 0.  0.
   -5000001    1    1    2    0    0  0.13284333930E+03 -0.43615607633E+02  0.63681611190E+03  0.67253954114E+03  0.16500000000E+03 0.  0.
<mgrwt>
<rscale>  0 0.44500410E+03</rscale>
<asrwt>0</asrwt>
<pdfrwt beam="1">  1        2 0.16311755E+00 0.44500410E+03</pdfrwt>
<pdfrwt beam="2">  1       -2 0.71835750E-02 0.44500410E+03</pdfrwt>
<totfact> 0.27064419E+03</totfact>
</mgrwt>
</event>
<event>
 4    1  0.8362047E-005  0.4311828E+03  0.7818608E-02  0.1033487E+00
         -2   -1    0    0    0  501 -0.00000000000E+00  0.00000000000E+00  0.34133368604E+02  0.34133368699E+02  0.25500000000E-02 0. -1.
          2   -1    0    0  501    0  0.00000000000E+00 -0.00000000000E+00 -0.13617069273E+04  0.13617069273E+04  0.25500000000E-02 0.  1.
    5000001    1    1    2    0    0  0.73626448927E+02 -0.81538623622E+02 -0.38937984630E+03  0.43693370874E+03  0.16500000000E+03 0.  0.
   -5000001    1    1    2    0    0 -0.73626448927E+02  0.81538623622E+02 -0.93819371235E+03  0.95890658723E+03  0.16500000000E+03 0.  0.
<mgrwt>
<rscale>  0 0.43118277E+03</rscale>
<asrwt>0</asrwt>
<pdfrwt beam="1">  1        2 0.20949333E+00 0.43118277E+03</pdfrwt>
<pdfrwt beam="2">  1       -2 0.52512885E-02 0.43118277E+03</pdfrwt>
<totfact> 0.29479197E+03</totfact>
</mgrwt>
</event>
<event>
 4    1  0.8362047E-005  0.4397610E+03  0.7818608E-02  0.1030820E+00
         -2   -1    0    0    0  501 -0.00000000000E+00  0.00000000000E+00  0.94343873044E+03  0.94343873044E+03  0.25500000000E-02 0. -1.
          2   -1    0    0  501    0  0.00000000000E+00 -0.00000000000E+00 -0.51245965158E+02  0.51245965222E+02  0.25500000000E-02 0.  1.
    5000001    1    1    2    0    0  0.22816786531E+02 -0.12765071355E+03  0.29765255907E+03  0.36419411903E+03  0.16500000000E+03 0.  0.
   -5000001    1    1    2    0    0 -0.22816786531E+02  0.12765071355E+03  0.59454020621E+03  0.63049057663E+03  0.16500000000E+03 0.  0.
<mgrwt>
<rscale>  0 0.43976097E+03</rscale>
<asrwt>0</asrwt>
<pdfrwt beam="1">  1        2 0.78839954E-02 0.43976097E+03</pdfrwt>
<pdfrwt beam="2">  1       -2 0.14514441E+00 0.43976097E+03</pdfrwt>
<totfact> 0.29968688E+02</totfact>
</mgrwt>
</event>
<event>
 4    1  0.8362047E-005  0.4485576E+03  0.7818608E-02  0.1028153E+00
         -2   -1    0    0    0  501 -0.00000000000E+00  0.00000000000E+00  0.24461424704E+02  0.24461424837E+02  0.25500000000E-02 0. -1.
          2   -1    0    0  501    0  0.00000000000E+00 -0.00000000000E+00 -0.20563389372E+04  0.20563389372E+04  0.25500000000E-02 0.  1.
    5000001    1    1    2    0    0  0.14312436727E+03 -0.14379708863E+02 -0.78941082586E+03  0.81919827424E+03  0.16500000000E+03 0.  0.
   -5000001    1    1    2    0    0 -0.14312436727E+03  0.14379708863E+02 -0.12424666867E+04  0.12616020878E+04  0.16500000000E+03 0.  0.
<mgrwt>
<rscale>  0 0.44855760E+03</rscale>
<asrwt>0</asrwt>
<pdfrwt beam="1">  1        2 0.31635970E+00 0.44855760E+03</pdfrwt>
<pdfrwt beam="2">  1       -2 0.37632977E-02 0.44855760E+03</pdfrwt>
<totfact> 0.20689773E+03</totfact>
</mgrwt>
</event>
<event>
 4    1  0.8362047E-005  0.8317547E+03  0.7818608E-02  0.9515158E-01
          2   -1    0    0  501    0  0.00000000000E+00  0.00000000000E+00  0.69811395397E+03  0.69811395398E+03  0.25500000000E-02 0.  1.
         -2   -1    0    0    0  501 -0.00000000000E+00 -0.00000000000E+00 -0.24774458939E+03  0.24774458941E+03  0.25500000000E-02 0. -1.
    5000001    1    1    2    0    0  0.36208638268E+03  0.76980113881E+02  0.33123266434E+03  0.52342388595E+03  0.16500000000E+03 0.  0.
   -5000001    1    1    2    0    0 -0.36208638268E+03 -0.76980113881E+02  0.11913670024E+03  0.42243465743E+03  0.16500000000E+03 0.  0.
<mgrwt>
<rscale>  0 0.83175466E+03</rscale>
<asrwt>0</asrwt>
<pdfrwt beam="1">  1        2 0.10740214E+00 0.83175466E+03</pdfrwt>
<pdfrwt beam="2">  1       -2 0.38114553E-01 0.83175466E+03</pdfrwt>
<totfact> 0.26842859E+02</totfact>
</mgrwt>
</event>
<event>
 4    1  0.8362047E-005  0.3595019E+03  0.7818608E-02  0.1058781E+00
         -2   -1    0    0    0  501 -0.00000000000E+00  0.00000000000E+00  0.70408285612E+03  0.70408285613E+03  0.25500000000E-02 0. -1.
          2   -1    0    0  501    0  0.00000000000E+00 -0.00000000000E+00 -0.45890066666E+02  0.45890066736E+02  0.25500000000E-02 0.  1.
    5000001    1    1    2    0    0  0.29096991446E+02  0.48293794142E+02  0.42018434200E+03  0.45492725432E+03  0.16500000000E+03 0.  0.
   -5000001    1    1    2    0    0 -0.29096991446E+02 -0.48293794142E+02  0.23800844746E+03  0.29504566854E+03  0.16500000000E+03 0.  0.
<mgrwt>
<rscale>  0 0.35950193E+03</rscale>
<asrwt>0</asrwt>
<pdfrwt beam="1">  1        2 0.70600106E-02 0.35950193E+03</pdfrwt>
<pdfrwt beam="2">  1       -2 0.10832043E+00 0.35950193E+03</pdfrwt>
<totfact> 0.71349607E+02</totfact>
</mgrwt>
</event>
<event>
 4    1  0.8362047E-005  0.7961727E+03  0.7818608E-02  0.9565573E-01
          2   -1    0    0  501    0  0.00000000000E+00  0.00000000000E+00  0.23855394620E+04  0.23855394620E+04  0.25500000000E-02 0.  1.
         -2   -1    0    0    0  501 -0.00000000000E+00 -0.00000000000E+00 -0.66430573446E+02  0.66430573495E+02  0.25500000000E-02 0. -1.
    5000001    1    1    2    0    0  0.17369979444E+03 -0.31613806660E+03  0.12632107539E+04  0.13240246616E+04  0.16500000000E+03 0.  0.
   -5000001    1    1    2    0    0 -0.17369979444E+03  0.31613806660E+03  0.10558981347E+04  0.11279453739E+04  0.16500000000E+03 0.  0.
<mgrwt>
<rscale>  0 0.79617273E+03</rscale>
<asrwt>0</asrwt>
<pdfrwt beam="1">  1        2 0.36700605E+00 0.79617273E+03</pdfrwt>
<pdfrwt beam="2">  1       -2 0.10220089E-01 0.79617273E+03</pdfrwt>
<totfact> 0.27652510E+02</totfact>
</mgrwt>
</event>
<event>
 4    1  0.8362047E-005  0.5388175E+03  0.7818608E-02  0.1004116E+00
         -2   -1    0    0    0  501 -0.00000000000E+00  0.00000000000E+00  0.46751590575E+02  0.46751590644E+02  0.25500000000E-02 0. -1.
          2   -1    0    0  501    0  0.00000000000E+00 -0.00000000000E+00 -0.15524835980E+04  0.15524835980E+04  0.25500000000E-02 0.  1.
    5000001    1    1    2    0    0 -0.19006687191E+03 -0.91551512035E+02 -0.66638514526E+03  0.71819304994E+03  0.16500000000E+03 0.  0.
   -5000001    1    1    2    0    0  0.19006687191E+03  0.91551512035E+02 -0.83934686218E+03  0.88104213872E+03  0.16500000000E+03 0.  0.
<mgrwt>
<rscale>  0 0.53881751E+03</rscale>
<asrwt>0</asrwt>
<pdfrwt beam="1">  1        2 0.23884359E+00 0.53881751E+03</pdfrwt>
<pdfrwt beam="2">  1       -2 0.71925536E-02 0.53881751E+03</pdfrwt>
<totfact> 0.14117564E+03</totfact>
</mgrwt>
</event>
<event>
 4    1  0.8362047E-005  0.3641875E+03  0.7818608E-02  0.1056938E+00
         -2   -1    0    0    0  501 -0.00000000000E+00  0.00000000000E+00  0.12791345489E+03  0.12791345491E+03  0.25500000000E-02 0. -1.
          2   -1    0    0  501    0  0.00000000000E+00 -0.00000000000E+00 -0.25922323786E+03  0.25922323788E+03  0.25500000000E-02 0.  1.
    5000001    1    1    2    0    0 -0.76034443944E+02 -0.10515386179E+02 -0.72488838938E+02  0.19588629810E+03  0.16500000000E+03 0.  0.
   -5000001    1    1    2    0    0  0.76034443944E+02  0.10515386179E+02 -0.58820944037E+02  0.19125039469E+03  0.16500000000E+03 0.  0.
<mgrwt>
<rscale>  0 0.36418753E+03</rscale>
<asrwt>0</asrwt>
<pdfrwt beam="1">  1        2 0.39880498E-01 0.36418753E+03</pdfrwt>
<pdfrwt beam="2">  1       -2 0.19678993E-01 0.36418753E+03</pdfrwt>
<totfact> 0.27841446E+03</totfact>
</mgrwt>
</event>
<event>
 4    1  0.8362047E-005  0.3828258E+03  0.7818608E-02  0.1049894E+00
         -2   -1    0    0    0  501 -0.00000000000E+00  0.00000000000E+00  0.52709606884E+02  0.52709606946E+02  0.25500000000E-02 0. -1.
          2   -1    0    0  501    0  0.00000000000E+00 -0.00000000000E+00 -0.69510867928E+03  0.69510867928E+03  0.25500000000E-02 0.  1.
    5000001    1    1    2    0    0  0.49287473925E+02  0.62473450068E+02 -0.42963998401E+03  0.46706284685E+03  0.16500000000E+03 0.  0.
   -5000001    1    1    2    0    0 -0.49287473925E+02 -0.62473450068E+02 -0.21275908838E+03  0.28075543938E+03  0.16500000000E+03 0.  0.
<mgrwt>
<rscale>  0 0.38282584E+03</rscale>
<asrwt>0</asrwt>
<pdfrwt beam="1">  1        2 0.10693979E+00 0.38282584E+03</pdfrwt>
<pdfrwt beam="2">  1       -2 0.81091708E-02 0.38282584E+03</pdfrwt>
<totfact> 0.39360686E+03</totfact>
</mgrwt>
</event>
<event>
 4    1  0.8362047E-005  0.6649210E+03  0.7818608E-02  0.9779177E-01
         -2   -1    0    0    0  501 -0.00000000000E+00  0.00000000000E+00  0.34965644060E+03  0.34965644061E+03  0.25500000000E-02 0. -1.
          2   -1    0    0  501    0  0.00000000000E+00 -0.00000000000E+00 -0.31611022538E+03  0.31611022539E+03  0.25500000000E-02 0.  1.
    5000001    1    1    2    0    0  0.25379512960E+03 -0.13527917535E+03  0.41146482653E+02  0.33411144268E+03  0.16500000000E+03 0.  0.
   -5000001    1    1    2    0    0 -0.25379512960E+03  0.13527917535E+03 -0.76002674295E+01  0.33165522332E+03  0.16500000000E+03 0.  0.
<mgrwt>
<rscale>  0 0.66492098E+03</rscale>
<asrwt>0</asrwt>
<pdfrwt beam="1">  1        2 0.48632342E-01 0.66492098E+03</pdfrwt>
<pdfrwt beam="2">  1       -2 0.53793299E-01 0.66492098E+03</pdfrwt>
<totfact> 0.34041041E+02</totfact>
</mgrwt>
</event>
<event>
 4    1  0.8362047E-005  0.5192744E+03  0.7818608E-02  0.1008867E+00
         -2   -1    0    0    0  501 -0.00000000000E+00  0.00000000000E+00  0.24415655374E+02  0.24415655507E+02  0.25500000000E-02 0.  1.
          2   -1    0    0  501    0  0.00000000000E+00 -0.00000000000E+00 -0.27609943832E+04  0.27609943832E+04  0.25500000000E-02 0. -1.
    5000001    1    1    2    0    0  0.10304840632E+03 -0.95840654286E+02 -0.60248742280E+03  0.64032843111E+03  0.16500000000E+03 0.  0.
   -5000001    1    1    2    0    0 -0.10304840632E+03  0.95840654286E+02 -0.21340913050E+04  0.21450816076E+04  0.16500000000E+03 0.  0.
<mgrwt>
<rscale>  0 0.51927445E+03</rscale>
<asrwt>0</asrwt>
<pdfrwt beam="1">  1        2 0.42476812E+00 0.51927445E+03</pdfrwt>
<pdfrwt beam="2">  1       -2 0.37562569E-02 0.51927445E+03</pdfrwt>
<totfact> 0.83810270E+02</totfact>
</mgrwt>
</event>
<event>
 4    1  0.8362047E-005  0.6402287E+03  0.7818608E-02  0.9825289E-01
          2   -1    0    0  501    0  0.00000000000E+00  0.00000000000E+00  0.30044054033E+04  0.30044054033E+04  0.25500000000E-02 0.  1.
         -2   -1    0    0    0  501 -0.00000000000E+00 -0.00000000000E+00 -0.34107645971E+02  0.34107646066E+02  0.25500000000E-02 0. -1.
    5000001    1    1    2    0    0 -0.25256917065E+03 -0.37530387430E+02  0.19608959865E+04  0.19843230044E+04  0.16500000000E+03 0.  0.
   -5000001    1    1    2    0    0  0.25256917065E+03  0.37530387430E+02  0.10094017708E+04  0.10541900450E+04  0.16500000000E+03 0.  0.
<mgrwt>
<rscale>  0 0.64022870E+03</rscale>
<asrwt>0</asrwt>
<pdfrwt beam="1">  1        2 0.46221644E+00 0.64022870E+03</pdfrwt>
<pdfrwt beam="2">  1       -2 0.52473276E-02 0.64022870E+03</pdfrwt>
<totfact> 0.35397289E+02</totfact>
</mgrwt>
</event>
<event>
 4    1  0.8362047E-005  0.6065216E+03  0.7818608E-02  0.9891967E-01
         -2   -1    0    0    0  501 -0.00000000000E+00  0.00000000000E+00  0.36821834939E+02  0.36821835028E+02  0.25500000000E-02 0. -1.
          2   -1    0    0  501    0  0.00000000000E+00 -0.00000000000E+00 -0.24976246838E+04  0.24976246838E+04  0.25500000000E-02 0.  1.
    5000001    1    1    2    0    0  0.96739821300E+02 -0.15645010980E+03 -0.49577843537E+03  0.55394628518E+03  0.16500000000E+03 0.  0.
   -5000001    1    1    2    0    0 -0.96739821300E+02  0.15645010980E+03 -0.19650244134E+04  0.19805002336E+04  0.16500000000E+03 0.  0.
<mgrwt>
<rscale>  0 0.60652164E+03</rscale>
<asrwt>0</asrwt>
<pdfrwt beam="1">  1        2 0.38424982E+00 0.60652164E+03</pdfrwt>
<pdfrwt beam="2">  1       -2 0.56648996E-02 0.60652164E+03</pdfrwt>
<totfact> 0.62333748E+02</totfact>
</mgrwt>
</event>
<event>
 4    1  0.8362047E-005  0.5410048E+03  0.7818608E-02  0.1003598E+00
          2   -1    0    0  501    0  0.00000000000E+00  0.00000000000E+00  0.18194376248E+03  0.18194376250E+03  0.25500000000E-02 0.  1.
         -2   -1    0    0    0  501 -0.00000000000E+00 -0.00000000000E+00 -0.40216578890E+03  0.40216578891E+03  0.25500000000E-02 0. -1.
    5000001    1    1    2    0    0 -0.94615117221E+02  0.18646189359E+03 -0.16105634316E+03  0.31126227500E+03  0.16500000000E+03 0.  0.
   -5000001    1    1    2    0    0  0.94615117221E+02 -0.18646189359E+03 -0.59165683260E+02  0.27284727641E+03  0.16500000000E+03 0.  0.
<mgrwt>
<rscale>  0 0.54100483E+03</rscale>
<asrwt>0</asrwt>
<pdfrwt beam="1">  1        2 0.27991348E-01 0.54100483E+03</pdfrwt>
<pdfrwt beam="2">  1       -2 0.61871659E-01 0.54100483E+03</pdfrwt>
<totfact> 0.47132812E+02</totfact>
</mgrwt>
</event>
<event>
 4    1  0.8362047E-005  0.7649235E+03  0.7818608E-02  0.9612224E-01
         -2   -1    0    0    0  501 -0.00000000000E+00  0.00000000000E+00  0.10961452237E+03  0.10961452240E+03  0.25500000000E-02 0. -1.
          2   -1    0    0  501    0  0.00000000000E+00 -0.00000000000E+00 -0.13344672583E+04  0.13344672583E+04  0.25500000000E-02 0.  1.
    5000001    1    1    2    0    0  0.21832867130E+03 -0.26716938077E+03 -0.60816108995E+03  0.71842313302E+03  0.16500000000E+03 0.  0.
   -5000001    1    1    2    0    0 -0.21832867130E+03  0.26716938077E+03 -0.61669164600E+03  0.72565864770E+03  0.16500000000E+03 0.  0.
<mgrwt>
<rscale>  0 0.76492350E+03</rscale>
<asrwt>0</asrwt>
<pdfrwt beam="1">  1        2 0.20530264E+00 0.76492350E+03</pdfrwt>
<pdfrwt beam="2">  1       -2 0.16863774E-01 0.76492350E+03</pdfrwt>
<totfact> 0.45700752E+02</totfact>
</mgrwt>
</event>
<event>
 4    1  0.8362047E-005  0.4859716E+03  0.7818608E-02  0.1017507E+00
          2   -1    0    0  501    0  0.00000000000E+00  0.00000000000E+00  0.25703682174E+04  0.25703682174E+04  0.25500000000E-02 0. -1.
         -2   -1    0    0    0  501 -0.00000000000E+00 -0.00000000000E+00 -0.22970290894E+02  0.22970291036E+02  0.25500000000E-02 0.  1.
    5000001    1    1    2    0    0 -0.67254157310E+02 -0.13972625391E+03  0.80329128629E+03  0.83459477493E+03  0.16500000000E+03 0.  0.
   -5000001    1    1    2    0    0  0.67254157310E+02  0.13972625391E+03  0.17441066402E+04  0.17587437335E+04  0.16500000000E+03 0.  0.
<mgrwt>
<rscale>  0 0.48597163E+03</rscale>
<asrwt>0</asrwt>
<pdfrwt beam="1">  1        2 0.39544127E+00 0.48597163E+03</pdfrwt>
<pdfrwt beam="2">  1       -2 0.35338908E-02 0.48597163E+03</pdfrwt>
<totfact> 0.11861732E+03</totfact>
</mgrwt>
</event>
<event>
 4    1  0.8362047E-005  0.3847303E+03  0.7818608E-02  0.1049199E+00
          2   -1    0    0  501    0  0.00000000000E+00  0.00000000000E+00  0.15173046852E+04  0.15173046852E+04  0.25500000000E-02 0.  1.
         -2   -1    0    0    0  501 -0.00000000000E+00 -0.00000000000E+00 -0.24388209530E+02  0.24388209663E+02  0.25500000000E-02 0. -1.
    5000001    1    1    2    0    0 -0.45999807769E+02  0.87245473577E+02  0.77524037725E+03  0.79871797118E+03  0.16500000000E+03 0.  0.
   -5000001    1    1    2    0    0  0.45999807769E+02 -0.87245473577E+02  0.71767609842E+03  0.74297492368E+03  0.16500000000E+03 0.  0.
<mgrwt>
<rscale>  0 0.38473027E+03</rscale>
<asrwt>0</asrwt>
<pdfrwt beam="1">  1        2 0.23343150E+00 0.38473027E+03</pdfrwt>
<pdfrwt beam="2">  1       -2 0.37520320E-02 0.38473027E+03</pdfrwt>
<totfact> 0.40496388E+03</totfact>
</mgrwt>
</event>
<event>
 4    1  0.8362047E-005  0.1017485E+04  0.7818608E-02  0.9289573E-01
         -2   -1    0    0    0  501 -0.00000000000E+00  0.00000000000E+00  0.21530312368E+03  0.21530312370E+03  0.25500000000E-02 0. -1.
          2   -1    0    0  501    0  0.00000000000E+00 -0.00000000000E+00 -0.12021146302E+04  0.12021146302E+04  0.25500000000E-02 0.  1.
    5000001    1    1    2    0    0 -0.11565159668E+03  0.46713347330E+03 -0.49027175980E+03  0.70652697906E+03  0.16500000000E+03 0.  0.
   -5000001    1    1    2    0    0  0.11565159668E+03 -0.46713347330E+03 -0.49653974674E+03  0.71089077486E+03  0.16500000000E+03 0.  0.
<mgrwt>
<rscale>  0 0.10174852E+04</rscale>
<asrwt>0</asrwt>
<pdfrwt beam="1">  1        2 0.18494071E+00 0.10174852E+04</pdfrwt>
<pdfrwt beam="2">  1       -2 0.33123558E-01 0.10174852E+04</pdfrwt>
<totfact> 0.16009367E+02</totfact>
</mgrwt>
</event>
<event>
 4    1  0.8362047E-005  0.4839907E+03  0.7818608E-02  0.1018044E+00
         -2   -1    0    0    0  501 -0.00000000000E+00  0.00000000000E+00  0.33460414847E+02  0.33460414944E+02  0.25500000000E-02 0. -1.
          2   -1    0    0  501    0  0.00000000000E+00 -0.00000000000E+00 -0.17501797471E+04  0.17501797471E+04  0.25500000000E-02 0.  1.
    5000001    1    1    2    0    0 -0.45893633399E+02 -0.45666300362E+02 -0.25118168547E+03  0.30742295896E+03  0.16500000000E+03 0.  0.
   -5000001    1    1    2    0    0  0.45893633399E+02  0.45666300362E+02 -0.14655376467E+04  0.14762172031E+04  0.16500000000E+03 0.  0.
<mgrwt>
<rscale>  0 0.48399066E+03</rscale>
<asrwt>0</asrwt>
<pdfrwt beam="1">  1        2 0.26925835E+00 0.48399066E+03</pdfrwt>
<pdfrwt beam="2">  1       -2 0.51477575E-02 0.48399066E+03</pdfrwt>
<totfact> 0.18646363E+03</totfact>
</mgrwt>
</event>
<event>
 4    1  0.8362047E-005  0.5698193E+03  0.7818608E-02  0.9970079E-01
          2   -1    0    0  501    0  0.00000000000E+00  0.00000000000E+00  0.14528995885E+04  0.14528995885E+04  0.25500000000E-02 0.  1.
         -2   -1    0    0    0  501 -0.00000000000E+00 -0.00000000000E+00 -0.55870007870E+02  0.55870007929E+02  0.25500000000E-02 0. -1.
    5000001    1    1    2    0    0  0.18081346344E+03  0.84133255408E+02  0.10137769002E+04  0.10462984835E+04  0.16500000000E+03 0.  0.
   -5000001    1    1    2    0    0 -0.18081346344E+03 -0.84133255408E+02  0.38325268045E+03  0.46247111293E+03  0.16500000000E+03 0.  0.
<mgrwt>
<rscale>  0 0.56981931E+03</rscale>
<asrwt>0</asrwt>
<pdfrwt beam="1">  1        2 0.22352300E+00 0.56981931E+03</pdfrwt>
<pdfrwt beam="2">  1       -2 0.85953865E-02 0.56981931E+03</pdfrwt>
<totfact> 0.12051151E+03</totfact>
</mgrwt>
</event>
<event>
 4    1  0.8362047E-005  0.2775012E+04  0.7818608E-02  0.8311068E-01
          2   -1    0    0  501    0  0.00000000000E+00  0.00000000000E+00  0.11744091203E+04  0.11744091203E+04  0.25500000000E-02 0.  1.
         -2   -1    0    0    0  501 -0.00000000000E+00 -0.00000000000E+00 -0.16392699323E+04  0.16392699323E+04  0.25500000000E-02 0. -1.
    5000001    1    1    2    0    0  0.31138181120E+03 -0.11285622175E+04 -0.96872878054E+03  0.15284867554E+04  0.16500000000E+03 0.  0.
   -5000001    1    1    2    0    0 -0.31138181120E+03  0.11285622175E+04  0.50386796848E+03  0.12851922972E+04  0.16500000000E+03 0.  0.
<mgrwt>
<rscale>  0 0.27750125E+04</rscale>
<asrwt>0</asrwt>
<pdfrwt beam="1">  1        2 0.18067833E+00 0.27750125E+04</pdfrwt>
<pdfrwt beam="2">  1       -2 0.25219537E+00 0.27750125E+04</pdfrwt>
<totfact> 0.10658447E+00</totfact>
</mgrwt>
</event>
<event>
 4    1  0.8362047E-005  0.5775905E+03  0.7818608E-02  0.9953021E-01
          2   -1    0    0  501    0  0.00000000000E+00  0.00000000000E+00  0.60541061226E+03  0.60541061227E+03  0.25500000000E-02 0.  1.
         -2   -1    0    0    0  501 -0.00000000000E+00 -0.00000000000E+00 -0.13776221118E+03  0.13776221120E+03  0.25500000000E-02 0. -1.
    5000001    1    1    2    0    0  0.17330718325E+03  0.97101168385E+02  0.67480674983E+02  0.26691320343E+03  0.16500000000E+03 0.  0.
   -5000001    1    1    2    0    0 -0.17330718325E+03 -0.97101168385E+02  0.40016772610E+03  0.47625962004E+03  0.16500000000E+03 0.  0.
<mgrwt>
<rscale>  0 0.57759053E+03</rscale>
<asrwt>0</asrwt>
<pdfrwt beam="1">  1        2 0.93140094E-01 0.57759053E+03</pdfrwt>
<pdfrwt beam="2">  1       -2 0.21194186E-01 0.57759053E+03</pdfrwt>
<totfact> 0.94883681E+02</totfact>
</mgrwt>
</event>
<event>
 4    1  0.8362047E-005  0.3741285E+03  0.7818608E-02  0.1053125E+00
          2   -1    0    0  501    0  0.00000000000E+00  0.00000000000E+00  0.63997624398E+03  0.63997624398E+03  0.25500000000E-02 0.  1.
         -2   -1    0    0    0  501 -0.00000000000E+00 -0.00000000000E+00 -0.54678634703E+02  0.54678634762E+02  0.25500000000E-02 0. -1.
    5000001    1    1    2    0    0 -0.52475513140E+02 -0.70480441589E+02  0.30535826311E+03  0.35803608893E+03  0.16500000000E+03 0.  0.
   -5000001    1    1    2    0    0  0.52475513140E+02  0.70480441589E+02  0.27993934617E+03  0.33661878982E+03  0.16500000000E+03 0.  0.
<mgrwt>
<rscale>  0 0.37412847E+03</rscale>
<asrwt>0</asrwt>
<pdfrwt beam="1">  1        2 0.98457880E-01 0.37412847E+03</pdfrwt>
<pdfrwt beam="2">  1       -2 0.84120980E-02 0.37412847E+03</pdfrwt>
<totfact> 0.41043992E+03</totfact>
</mgrwt>
</event>
<event>
 4    1  0.8362047E-005  0.3743209E+03  0.7818608E-02  0.1053053E+00
         -2   -1    0    0    0  501 -0.00000000000E+00  0.00000000000E+00  0.17823069067E+03  0.17823069069E+03  0.25500000000E-02 0. -1.
          2   -1    0    0  501    0  0.00000000000E+00 -0.00000000000E+00 -0.19653760236E+03  0.19653760238E+03  0.25500000000E-02 0.  1.
    5000001    1    1    2    0    0 -0.88123725232E+02  0.34704720094E+01 -0.40289895166E+01  0.18713382346E+03  0.16500000000E+03 0.  0.
   -5000001    1    1    2    0    0  0.88123725232E+02 -0.34704720094E+01 -0.14277922170E+02  0.18763446961E+03  0.16500000000E+03 0.  0.
<mgrwt>
<rscale>  0 0.37432089E+03</rscale>
<asrwt>0</asrwt>
<pdfrwt beam="1">  1        2 0.30236554E-01 0.37432089E+03</pdfrwt>
<pdfrwt beam="2">  1       -2 0.27420106E-01 0.37432089E+03</pdfrwt>
<totfact> 0.21060610E+03</totfact>
</mgrwt>
</event>
<event>
 4    1  0.8362047E-005  0.4678967E+03  0.7818608E-02  0.1022516E+00
          2   -1    0    0  501    0  0.00000000000E+00  0.00000000000E+00  0.10136807297E+04  0.10136807297E+04  0.25500000000E-02 0.  1.
         -2   -1    0    0    0  501 -0.00000000000E+00 -0.00000000000E+00 -0.53993170607E+02  0.53993170668E+02  0.25500000000E-02 0. -1.
    5000001    1    1    2    0    0  0.15523286062E+03 -0.23119291174E+02  0.35749077400E+03  0.42385893424E+03  0.16500000000E+03 0.  0.
   -5000001    1    1    2    0    0 -0.15523286062E+03  0.23119291174E+02  0.60219678511E+03  0.64381496615E+03  0.16500000000E+03 0.  0.
<mgrwt>
<rscale>  0 0.46789673E+03</rscale>
<asrwt>0</asrwt>
<pdfrwt beam="1">  1        2 0.15595086E+00 0.46789673E+03</pdfrwt>
<pdfrwt beam="2">  1       -2 0.83066426E-02 0.46789673E+03</pdfrwt>
<totfact> 0.22980526E+03</totfact>
</mgrwt>
</event>
<event>
 4    1  0.8362047E-005  0.4999456E+03  0.7818608E-02  0.1013793E+00
          2   -1    0    0  501    0  0.00000000000E+00  0.00000000000E+00  0.74217195859E+02  0.74217195903E+02  0.25500000000E-02 0.  1.
         -2   -1    0    0    0  501 -0.00000000000E+00 -0.00000000000E+00 -0.84193960688E+03  0.84193960688E+03  0.25500000000E-02 0. -1.
    5000001    1    1    2    0    0  0.14846122735E+03  0.11035839893E+03 -0.44300581552E+03  0.50764048777E+03  0.16500000000E+03 0.  0.
   -5000001    1    1    2    0    0 -0.14846122735E+03 -0.11035839893E+03 -0.32471659550E+03  0.40851631501E+03  0.16500000000E+03 0.  0.
<mgrwt>
<rscale>  0 0.49994558E+03</rscale>
<asrwt>0</asrwt>
<pdfrwt beam="1">  1        2 0.11418031E-01 0.49994558E+03</pdfrwt>
<pdfrwt beam="2">  1       -2 0.12952916E+00 0.49994558E+03</pdfrwt>
<totfact> 0.24994657E+02</totfact>
</mgrwt>
</event>
<event>
 4    1  0.8362047E-005  0.4945870E+03  0.7818608E-02  0.1015202E+00
         -2   -1    0    0    0  501 -0.00000000000E+00  0.00000000000E+00  0.70017680640E+02  0.70017680686E+02  0.25500000000E-02 0. -1.
          2   -1    0    0  501    0  0.00000000000E+00 -0.00000000000E+00 -0.87340904464E+03  0.87340904465E+03  0.25500000000E-02 0.  1.
    5000001    1    1    2    0    0  0.36780351511E+02 -0.79897395329E+02 -0.92982263171E+02  0.20882310529E+03  0.16500000000E+03 0.  0.
   -5000001    1    1    2    0    0 -0.36780351511E+02  0.79897395329E+02 -0.71040910083E+03  0.73460362005E+03  0.16500000000E+03 0.  0.
<mgrwt>
<rscale>  0 0.49458700E+03</rscale>
<asrwt>0</asrwt>
<pdfrwt beam="1">  1        2 0.13437061E+00 0.49458700E+03</pdfrwt>
<pdfrwt beam="2">  1       -2 0.10771951E-01 0.49458700E+03</pdfrwt>
<totfact> 0.18650339E+03</totfact>
</mgrwt>
</event>
<event>
 4    1  0.8362047E-005  0.7075299E+03  0.7818608E-02  0.9704441E-01
          2   -1    0    0  501    0  0.00000000000E+00  0.00000000000E+00  0.12132148152E+04  0.12132148152E+04  0.25500000000E-02 0.  1.
         -2   -1    0    0    0  501 -0.00000000000E+00 -0.00000000000E+00 -0.10315537648E+03  0.10315537652E+03  0.25500000000E-02 0. -1.
    5000001    1    1    2    0    0 -0.17519106247E+03 -0.15671086708E+03  0.17068837469E+03  0.33408041769E+03  0.16500000000E+03 0.  0.
   -5000001    1    1    2    0    0  0.17519106247E+03  0.15671086708E+03  0.93937106402E+03  0.98228977402E+03  0.16500000000E+03 0.  0.
<mgrwt>
<rscale>  0 0.70752988E+03</rscale>
<asrwt>0</asrwt>
<pdfrwt beam="1">  1        2 0.18664842E+00 0.70752988E+03</pdfrwt>
<pdfrwt beam="2">  1       -2 0.15870059E-01 0.70752988E+03</pdfrwt>
<totfact> 0.59769369E+02</totfact>
</mgrwt>
</event>
<event>
 4    1  0.8362047E-005  0.3947231E+03  0.7818608E-02  0.1045622E+00
          2   -1    0    0  501    0  0.00000000000E+00  0.00000000000E+00  0.90580073566E+03  0.90580073566E+03  0.25500000000E-02 0.  1.
         -2   -1    0    0    0  501 -0.00000000000E+00 -0.00000000000E+00 -0.43002382010E+02  0.43002382086E+02  0.25500000000E-02 0. -1.
    5000001    1    1    2    0    0 -0.10826613040E+03  0.16309788322E+01  0.43510294139E+03  0.47776959372E+03  0.16500000000E+03 0.  0.
   -5000001    1    1    2    0    0  0.10826613040E+03 -0.16309788322E+01  0.42769541226E+03  0.47103352402E+03  0.16500000000E+03 0.  0.
<mgrwt>
<rscale>  0 0.39472314E+03</rscale>
<asrwt>0</asrwt>
<pdfrwt beam="1">  1        2 0.13935395E+00 0.39472314E+03</pdfrwt>
<pdfrwt beam="2">  1       -2 0.66157515E-02 0.39472314E+03</pdfrwt>
<totfact> 0.38499296E+03</totfact>
</mgrwt>
</event>
<event>
 4    1  0.8362047E-005  0.4926314E+03  0.7818608E-02  0.1015720E+00
         -2   -1    0    0    0  501 -0.00000000000E+00  0.00000000000E+00  0.32348280764E+02  0.32348280864E+02  0.25500000000E-02 0. -1.
          2   -1    0    0  501    0  0.00000000000E+00 -0.00000000000E+00 -0.18755687655E+04  0.18755687655E+04  0.25500000000E-02 0.  1.
    5000001    1    1    2    0    0 -0.17923589691E+03 -0.35726829965E+02 -0.94744925588E+03  0.97892134801E+03  0.16500000000E+03 0.  0.
   -5000001    1    1    2    0    0  0.17923589691E+03  0.35726829965E+02 -0.89577122884E+03  0.92899569834E+03  0.16500000000E+03 0.  0.
<mgrwt>
<rscale>  0 0.49263140E+03</rscale>
<asrwt>0</asrwt>
<pdfrwt beam="1">  1        2 0.28854896E+00 0.49263140E+03</pdfrwt>
<pdfrwt beam="2">  1       -2 0.49766601E-02 0.49263140E+03</pdfrwt>
<totfact> 0.16816984E+03</totfact>
</mgrwt>
</event>
<event>
 4    1  0.8362047E-005  0.4614827E+03  0.7818608E-02  0.1024352E+00
          2   -1    0    0  501    0  0.00000000000E+00  0.00000000000E+00  0.20749654423E+04  0.20749654423E+04  0.25500000000E-02 0.  1.
         -2   -1    0    0    0  501 -0.00000000000E+00 -0.00000000000E+00 -0.25659015498E+02  0.25659015625E+02  0.25500000000E-02 0. -1.
    5000001    1    1    2    0    0  0.22691145452E+02 -0.15830648402E+03  0.92909147631E+03  0.95708505490E+03  0.16500000000E+03 0.  0.
   -5000001    1    1    2    0    0 -0.22691145452E+02  0.15830648402E+03  0.11202149505E+04  0.11435394030E+04  0.16500000000E+03 0.  0.
<mgrwt>
<rscale>  0 0.46148270E+03</rscale>
<asrwt>0</asrwt>
<pdfrwt beam="1">  1        2 0.31922562E+00 0.46148270E+03</pdfrwt>
<pdfrwt beam="2">  1       -2 0.39475388E-02 0.46148270E+03</pdfrwt>
<totfact> 0.18784258E+03</totfact>
</mgrwt>
</event>
<event>
 4    1  0.8362047E-005  0.5227146E+03  0.7818608E-02  0.1008014E+00
         -2   -1    0    0    0  501 -0.00000000000E+00  0.00000000000E+00  0.16983092286E+03  0.16983092288E+03  0.25500000000E-02 0. -1.
          2   -1    0    0  501    0  0.00000000000E+00 -0.00000000000E+00 -0.40220973912E+03  0.40220973913E+03  0.25500000000E-02 0.  1.
    5000001    1    1    2    0    0 -0.18036406029E+03  0.59809942777E+02 -0.39005803127E+02  0.25466620541E+03  0.16500000000E+03 0.  0.
   -5000001    1    1    2    0    0  0.18036406029E+03 -0.59809942777E+02 -0.19337301313E+03  0.31737445660E+03  0.16500000000E+03 0.  0.
<mgrwt>
<rscale>  0 0.52271465E+03</rscale>
<asrwt>0</asrwt>
<pdfrwt beam="1">  1        2 0.61878421E-01 0.52271465E+03</pdfrwt>
<pdfrwt beam="2">  1       -2 0.26127834E-01 0.52271465E+03</pdfrwt>
<totfact> 0.10472488E+03</totfact>
</mgrwt>
</event>
<event>
 4    1  0.8362047E-005  0.4574619E+03  0.7818608E-02  0.1025520E+00
         -2   -1    0    0    0  501 -0.00000000000E+00  0.00000000000E+00  0.42654377479E+03  0.42654377480E+03  0.25500000000E-02 0. -1.
          2   -1    0    0  501    0  0.00000000000E+00 -0.00000000000E+00 -0.12265528261E+03  0.12265528264E+03  0.25500000000E-02 0.  1.
    5000001    1    1    2    0    0 -0.96889933200E+02 -0.11260155440E+03  0.85903052021E+02  0.23805693343E+03  0.16500000000E+03 0.  0.
   -5000001    1    1    2    0    0  0.96889933200E+02  0.11260155440E+03  0.21798544016E+03  0.31114212401E+03  0.16500000000E+03 0.  0.
<mgrwt>
<rscale>  0 0.45746190E+03</rscale>
<asrwt>0</asrwt>
<pdfrwt beam="1">  1        2 0.18870043E-01 0.45746190E+03</pdfrwt>
<pdfrwt beam="2">  1       -2 0.65622121E-01 0.45746190E+03</pdfrwt>
<totfact> 0.65480610E+02</totfact>
</mgrwt>
</event>
<event>
 4    1  0.8362047E-005  0.6342126E+03  0.7818608E-02  0.9836863E-01
          2   -1    0    0  501    0  0.00000000000E+00  0.00000000000E+00  0.11014837367E+04  0.11014837367E+04  0.25500000000E-02 0.  1.
         -2   -1    0    0    0  501 -0.00000000000E+00 -0.00000000000E+00 -0.91291776898E+02  0.91291776933E+02  0.25500000000E-02 0. -1.
    5000001    1    1    2    0    0 -0.26823195110E+03  0.17698953622E+02  0.56660942796E+03  0.64848506259E+03  0.16500000000E+03 0.  0.
   -5000001    1    1    2    0    0  0.26823195110E+03 -0.17698953622E+02  0.44358253185E+03  0.54429045106E+03  0.16500000000E+03 0.  0.
<mgrwt>
<rscale>  0 0.63421261E+03</rscale>
<asrwt>0</asrwt>
<pdfrwt beam="1">  1        2 0.16945903E+00 0.63421261E+03</pdfrwt>
<pdfrwt beam="2">  1       -2 0.14044889E-01 0.63421261E+03</pdfrwt>
<totfact> 0.85911247E+02</totfact>
</mgrwt>
</event>
<event>
 4    1  0.8362047E-005  0.6836324E+03  0.7818608E-02  0.9745640E-01
          2   -1    0    0  501    0  0.00000000000E+00  0.00000000000E+00  0.88698618379E+02  0.88698618416E+02  0.25500000000E-02 0.  1.
         -2   -1    0    0    0  501 -0.00000000000E+00 -0.00000000000E+00 -0.13172507820E+04  0.13172507820E+04  0.25500000000E-02 0. -1.
    5000001    1    1    2    0    0  0.53804304204E+02  0.25266693765E+03 -0.92534351347E+03  0.97479285105E+03  0.16500000000E+03 0.  0.
   -5000001    1    1    2    0    0 -0.53804304204E+02 -0.25266693765E+03 -0.30320865013E+03  0.43115654935E+03  0.16500000000E+03 0.  0.
<mgrwt>
<rscale>  0 0.68363243E+03</rscale>
<asrwt>0</asrwt>
<pdfrwt beam="1">  1        2 0.13645942E-01 0.68363243E+03</pdfrwt>
<pdfrwt beam="2">  1       -2 0.20265395E+00 0.68363243E+03</pdfrwt>
<totfact> 0.58787793E+01</totfact>
</mgrwt>
</event>
<event>
 4    1  0.8362047E-005  0.4525680E+03  0.7818608E-02  0.1026959E+00
         -2   -1    0    0    0  501 -0.00000000000E+00  0.00000000000E+00  0.17240743873E+03  0.17240743875E+03  0.25500000000E-02 0. -1.
          2   -1    0    0  501    0  0.00000000000E+00 -0.00000000000E+00 -0.29699668969E+03  0.29699668970E+03  0.25500000000E-02 0.  1.
    5000001    1    1    2    0    0  0.53076863156E+02 -0.13717205950E+03 -0.12056039372E+02  0.22136773793E+03  0.16500000000E+03 0.  0.
   -5000001    1    1    2    0    0 -0.53076863156E+02  0.13717205950E+03 -0.11253321159E+03  0.24803639052E+03  0.16500000000E+03 0.  0.
<mgrwt>
<rscale>  0 0.45256796E+03</rscale>
<asrwt>0</asrwt>
<pdfrwt beam="1">  1        2 0.45691798E-01 0.45256796E+03</pdfrwt>
<pdfrwt beam="2">  1       -2 0.26524221E-01 0.45256796E+03</pdfrwt>
<totfact> 0.14233999E+03</totfact>
</mgrwt>
</event>
<event>
 4    1  0.8362047E-005  0.3995882E+03  0.7818608E-02  0.1043922E+00
         -2   -1    0    0    0  501 -0.00000000000E+00  0.00000000000E+00  0.19531921235E+03  0.19531921237E+03  0.25500000000E-02 0. -1.
          2   -1    0    0  501    0  0.00000000000E+00 -0.00000000000E+00 -0.20437153867E+03  0.20437153869E+03  0.25500000000E-02 0.  1.
    5000001    1    1    2    0    0  0.11120026356E+03 -0.17765188359E+02 -0.11212575766E+01  0.19976826012E+03  0.16500000000E+03 0.  0.
   -5000001    1    1    2    0    0 -0.11120026356E+03  0.17765188359E+02 -0.79310687438E+01  0.19992249094E+03  0.16500000000E+03 0.  0.
<mgrwt>
<rscale>  0 0.39958823E+03</rscale>
<asrwt>0</asrwt>
<pdfrwt beam="1">  1        2 0.31441775E-01 0.39958823E+03</pdfrwt>
<pdfrwt beam="2">  1       -2 0.30049109E-01 0.39958823E+03</pdfrwt>
<totfact> 0.17090924E+03</totfact>
</mgrwt>
</event>
<event>
 4    1  0.8362047E-005  0.9186149E+03  0.7818608E-02  0.9402606E-01
          2   -1    0    0  501    0  0.00000000000E+00  0.00000000000E+00  0.41064061059E+03  0.41064061060E+03  0.25500000000E-02 0.  1.
         -2   -1    0    0    0  501 -0.00000000000E+00 -0.00000000000E+00 -0.51374201914E+03  0.51374201914E+03  0.25500000000E-02 0. -1.
    5000001    1    1    2    0    0  0.42246058196E+03 -0.69713684380E+02 -0.71811554124E+02  0.46445111735E+03  0.16500000000E+03 0.  0.
   -5000001    1    1    2    0    0 -0.42246058196E+03  0.69713684380E+02 -0.31289854418E+02  0.45993151239E+03  0.16500000000E+03 0.  0.
<mgrwt>
<rscale>  0 0.91861491E+03</rscale>
<asrwt>0</asrwt>
<pdfrwt beam="1">  1        2 0.63175478E-01 0.91861491E+03</pdfrwt>
<pdfrwt beam="2">  1       -2 0.79037234E-01 0.91861491E+03</pdfrwt>
<totfact> 0.10998930E+02</totfact>
</mgrwt>
</event>
<event>
 4    1  0.8362047E-005  0.9859846E+03  0.7818608E-02  0.9324052E-01
         -2   -1    0    0    0  501 -0.00000000000E+00  0.00000000000E+00  0.75233448899E+03  0.75233448899E+03  0.25500000000E-02 0. -1.
          2   -1    0    0  501    0  0.00000000000E+00 -0.00000000000E+00 -0.32304965036E+03  0.32304965037E+03  0.25500000000E-02 0.  1.
    5000001    1    1    2    0    0 -0.99301565054E+02 -0.36238228542E+03  0.51260643737E+03  0.65663694782E+03  0.16500000000E+03 0.  0.
   -5000001    1    1    2    0    0  0.99301565054E+02  0.36238228542E+03 -0.83321598741E+02  0.41874719154E+03  0.16500000000E+03 0.  0.
<mgrwt>
<rscale>  0 0.98598457E+03</rscale>
<asrwt>0</asrwt>
<pdfrwt beam="1">  1        2 0.49699947E-01 0.98598457E+03</pdfrwt>
<pdfrwt beam="2">  1       -2 0.11574377E+00 0.98598457E+03</pdfrwt>
<totfact> 0.58600855E+01</totfact>
</mgrwt>
</event>
<event>
 4    1  0.8362047E-005  0.4274765E+03  0.7818608E-02  0.1034660E+00
          2   -1    0    0  501    0  0.00000000000E+00  0.00000000000E+00  0.68794809899E+03  0.68794809899E+03  0.25500000000E-02 0.  1.
         -2   -1    0    0    0  501 -0.00000000000E+00 -0.00000000000E+00 -0.66406233967E+02  0.66406234016E+02  0.25500000000E-02 0. -1.
    5000001    1    1    2    0    0 -0.35795754723E+02  0.10984274454E+03  0.43694507312E+03  0.48113694673E+03  0.16500000000E+03 0.  0.
   -5000001    1    1    2    0    0  0.35795754723E+02 -0.10984274454E+03  0.18459679190E+03  0.27321738628E+03  0.16500000000E+03 0.  0.
<mgrwt>
<rscale>  0 0.42747651E+03</rscale>
<asrwt>0</asrwt>
<pdfrwt beam="1">  1        2 0.10583816E+00 0.42747651E+03</pdfrwt>
<pdfrwt beam="2">  1       -2 0.10216344E-01 0.42747651E+03</pdfrwt>
<totfact> 0.27618401E+03</totfact>
</mgrwt>
</event>
<event>
 4    1  0.8362047E-005  0.4922206E+03  0.7818608E-02  0.1015830E+00
         -2   -1    0    0    0  501 -0.00000000000E+00  0.00000000000E+00  0.14776706419E+02  0.14776706639E+02  0.25500000000E-02 0. -1.
          2   -1    0    0  501    0  0.00000000000E+00 -0.00000000000E+00 -0.40990383686E+04  0.40990383686E+04  0.25500000000E-02 0.  1.
    5000001    1    1    2    0    0 -0.83483797312E+02  0.15291196896E+03 -0.15848456923E+04  0.16029075092E+04  0.16500000000E+03 0.  0.
   -5000001    1    1    2    0    0  0.83483797312E+02 -0.15291196896E+03 -0.24994159700E+04  0.25109075661E+04  0.16500000000E+03 0.  0.
<mgrwt>
<rscale>  0 0.49222063E+03</rscale>
<asrwt>0</asrwt>
<pdfrwt beam="1">  1        2 0.63062038E+00 0.49222063E+03</pdfrwt>
<pdfrwt beam="2">  1       -2 0.22733427E-02 0.49222063E+03</pdfrwt>
<totfact> 0.22603562E+02</totfact>
</mgrwt>
</event>
<event>
 4    1  0.8362047E-005  0.5668805E+03  0.7818608E-02  0.9976606E-01
         -2   -1    0    0    0  501 -0.00000000000E+00  0.00000000000E+00  0.26360004074E+02  0.26360004198E+02  0.25500000000E-02 0. -1.
          2   -1    0    0  501    0  0.00000000000E+00 -0.00000000000E+00 -0.30477372583E+04  0.30477372583E+04  0.25500000000E-02 0.  1.
    5000001    1    1    2    0    0  0.13635810638E+03  0.10035361136E+03 -0.66276538938E+03  0.70366706747E+03  0.16500000000E+03 0.  0.
   -5000001    1    1    2    0    0 -0.13635810638E+03 -0.10035361136E+03 -0.23586118649E+04  0.23704301951E+04  0.16500000000E+03 0.  0.
<mgrwt>
<rscale>  0 0.56688047E+03</rscale>
<asrwt>0</asrwt>
<pdfrwt beam="1">  1        2 0.46888238E+00 0.56688047E+03</pdfrwt>
<pdfrwt beam="2">  1       -2 0.40553877E-02 0.56688047E+03</pdfrwt>
<totfact> 0.50023836E+02</totfact>
</mgrwt>
</event>
<event>
 4    1  0.8362047E-005  0.1342411E+04  0.7818608E-02  0.8996593E-01
          2   -1    0    0  501    0  0.00000000000E+00  0.00000000000E+00  0.12861040801E+04  0.12861040801E+04  0.25500000000E-02 0.  1.
         -2   -1    0    0    0  501 -0.00000000000E+00 -0.00000000000E+00 -0.35029572187E+03  0.35029572188E+03  0.25500000000E-02 0. -1.
    5000001    1    1    2    0    0  0.47366858881E+03  0.42855863717E+03  0.31728324144E+03  0.73206426823E+03  0.16500000000E+03 0.  0.
   -5000001    1    1    2    0    0 -0.47366858881E+03 -0.42855863717E+03  0.61852511683E+03  0.90433553378E+03  0.16500000000E+03 0.  0.
<mgrwt>
<rscale>  0 0.13424109E+04</rscale>
<asrwt>0</asrwt>
<pdfrwt beam="1">  1        2 0.19786217E+00 0.13424109E+04</pdfrwt>
<pdfrwt beam="2">  1       -2 0.53891648E-01 0.13424109E+04</pdfrwt>
<totfact> 0.53379682E+01</totfact>
</mgrwt>
</event>
<event>
 4    1  0.8362047E-005  0.4478429E+03  0.7818608E-02  0.1028367E+00
          2   -1    0    0  501    0  0.00000000000E+00  0.00000000000E+00  0.37231688206E+03  0.37231688207E+03  0.25500000000E-02 0.  1.
         -2   -1    0    0    0  501 -0.00000000000E+00 -0.00000000000E+00 -0.13467241781E+03  0.13467241784E+03  0.25500000000E-02 0. -1.
    5000001    1    1    2    0    0 -0.11535954932E+03 -0.63342318846E+02  0.20350632855E+03  0.29318918932E+03  0.16500000000E+03 0.  0.
   -5000001    1    1    2    0    0  0.11535954932E+03  0.63342318846E+02  0.34138135695E+02  0.21380011058E+03  0.16500000000E+03 0.  0.
<mgrwt>
<rscale>  0 0.44784290E+03</rscale>
<asrwt>0</asrwt>
<pdfrwt beam="1">  1        2 0.57279520E-01 0.44784290E+03</pdfrwt>
<pdfrwt beam="2">  1       -2 0.20718834E-01 0.44784290E+03</pdfrwt>
<totfact> 0.17193568E+03</totfact>
</mgrwt>
</event>
<event>
 4    1  0.8362047E-005  0.4262169E+03  0.7818608E-02  0.1035062E+00
         -2   -1    0    0    0  501 -0.00000000000E+00  0.00000000000E+00  0.92446282114E+02  0.92446282149E+02  0.25500000000E-02 0. -1.
          2   -1    0    0  501    0  0.00000000000E+00 -0.00000000000E+00 -0.49126050252E+03  0.49126050253E+03  0.25500000000E-02 0.  1.
    5000001    1    1    2    0    0  0.70082351772E+02  0.28877443867E+02 -0.35218391859E+03  0.39623724624E+03  0.16500000000E+03 0.  0.
   -5000001    1    1    2    0    0 -0.70082351772E+02 -0.28877443867E+02 -0.46630301816E+02  0.18746953844E+03  0.16500000000E+03 0.  0.
<mgrwt>
<rscale>  0 0.42621688E+03</rscale>
<asrwt>0</asrwt>
<pdfrwt beam="1">  1        2 0.75578537E-01 0.42621688E+03</pdfrwt>
<pdfrwt beam="2">  1       -2 0.14222505E-01 0.42621688E+03</pdfrwt>
<totfact> 0.23898130E+03</totfact>
</mgrwt>
</event>
<event>
 4    1  0.8362047E-005  0.6198234E+03  0.7818608E-02  0.9865111E-01
          2   -1    0    0  501    0  0.00000000000E+00  0.00000000000E+00  0.33578618896E+04  0.33578618896E+04  0.25500000000E-02 0.  1.
         -2   -1    0    0    0  501 -0.00000000000E+00 -0.00000000000E+00 -0.28603100163E+02  0.28603100277E+02  0.25500000000E-02 0. -1.
    5000001    1    1    2    0    0 -0.19781245468E+03 -0.17203072928E+03  0.16111192990E+04  0.16406263239E+04  0.16500000000E+03 0.  0.
   -5000001    1    1    2    0    0  0.19781245468E+03  0.17203072928E+03  0.17181394904E+04  0.17458386660E+04  0.16500000000E+03 0.  0.
<mgrwt>
<rscale>  0 0.61982339E+03</rscale>
<asrwt>0</asrwt>
<pdfrwt beam="1">  1        2 0.51659424E+00 0.61982339E+03</pdfrwt>
<pdfrwt beam="2">  1       -2 0.44004760E-02 0.61982339E+03</pdfrwt>
<totfact> 0.27882644E+02</totfact>
</mgrwt>
</event>
<event>
 4    1  0.8362047E-005  0.5755687E+03  0.7818608E-02  0.9957431E-01
          2   -1    0    0  501    0  0.00000000000E+00  0.00000000000E+00  0.14139057563E+04  0.14139057563E+04  0.25500000000E-02 0.  1.
         -2   -1    0    0    0  501 -0.00000000000E+00 -0.00000000000E+00 -0.58575216314E+02  0.58575216370E+02  0.25500000000E-02 0. -1.
    5000001    1    1    2    0    0  0.81777187856E+02  0.20223874698E+03  0.90658458996E+03  0.94694700907E+03  0.16500000000E+03 0.  0.
   -5000001    1    1    2    0    0 -0.81777187856E+02 -0.20223874698E+03  0.44874595001E+03  0.52553396359E+03  0.16500000000E+03 0.  0.
<mgrwt>
<rscale>  0 0.57556871E+03</rscale>
<asrwt>0</asrwt>
<pdfrwt beam="1">  1        2 0.21752395E+00 0.57556871E+03</pdfrwt>
<pdfrwt beam="2">  1       -2 0.90115721E-02 0.57556871E+03</pdfrwt>
<totfact> 0.11741040E+03</totfact>
</mgrwt>
</event>
<event>
 4    1  0.8362047E-005  0.7189617E+03  0.7818608E-02  0.9685344E-01
          2   -1    0    0  501    0  0.00000000000E+00  0.00000000000E+00  0.27440170276E+04  0.27440170276E+04  0.25500000000E-02 0.  1.
         -2   -1    0    0    0  501 -0.00000000000E+00 -0.00000000000E+00 -0.47093904929E+02  0.47093904998E+02  0.25500000000E-02 0. -1.
    5000001    1    1    2    0    0 -0.21289616264E+03 -0.23450383621E+03  0.15078021555E+04  0.15495190110E+04  0.16500000000E+03 0.  0.
   -5000001    1    1    2    0    0  0.21289616264E+03  0.23450383621E+03  0.11891209671E+04  0.12415919216E+04  0.16500000000E+03 0.  0.
<mgrwt>
<rscale>  0 0.71896169E+03</rscale>
<asrwt>0</asrwt>
<pdfrwt beam="1">  1        2 0.42215641E+00 0.71896169E+03</pdfrwt>
<pdfrwt beam="2">  1       -2 0.72452171E-02 0.71896169E+03</pdfrwt>
<totfact> 0.30222258E+02</totfact>
</mgrwt>
</event>
<event>
 4    1  0.8362047E-005  0.1074381E+04  0.7818608E-02  0.9230528E-01
          2   -1    0    0  501    0  0.00000000000E+00  0.00000000000E+00  0.30536146071E+03  0.30536146072E+03  0.25500000000E-02 0.  1.
         -2   -1    0    0    0  501 -0.00000000000E+00 -0.00000000000E+00 -0.94502387890E+03  0.94502387890E+03  0.25500000000E-02 0. -1.
    5000001    1    1    2    0    0  0.30084039713E+03  0.41283035937E+03 -0.29612179134E+03  0.61306359007E+03  0.16500000000E+03 0.  0.
   -5000001    1    1    2    0    0 -0.30084039713E+03 -0.41283035937E+03 -0.34354062685E+03  0.63732174956E+03  0.16500000000E+03 0.  0.
<mgrwt>
<rscale>  0 0.10743814E+04</rscale>
<asrwt>0</asrwt>
<pdfrwt beam="1">  1        2 0.46978687E-01 0.10743814E+04</pdfrwt>
<pdfrwt beam="2">  1       -2 0.14538829E+00 0.10743814E+04</pdfrwt>
<totfact> 0.34791370E+01</totfact>
</mgrwt>
</event>
<event>
 4    1  0.8362047E-005  0.7950097E+03  0.7818608E-02  0.9567269E-01
         -2   -1    0    0    0  501 -0.00000000000E+00  0.00000000000E+00  0.14364088650E+03  0.14364088652E+03  0.25500000000E-02 0. -1.
          2   -1    0    0  501    0  0.00000000000E+00 -0.00000000000E+00 -0.11000358548E+04  0.11000358548E+04  0.25500000000E-02 0.  1.
    5000001    1    1    2    0    0  0.33648534391E+03 -0.11894424431E+03 -0.38677968558E+03  0.55153752828E+03  0.16500000000E+03 0.  0.
   -5000001    1    1    2    0    0 -0.33648534391E+03  0.11894424431E+03 -0.56961528269E+03  0.69213921302E+03  0.16500000000E+03 0.  0.
<mgrwt>
<rscale>  0 0.79500975E+03</rscale>
<asrwt>0</asrwt>
<pdfrwt beam="1">  1        2 0.16923628E+00 0.79500975E+03</pdfrwt>
<pdfrwt beam="2">  1       -2 0.22098599E-01 0.79500975E+03</pdfrwt>
<totfact> 0.39179655E+02</totfact>
</mgrwt>
</event>
<event>
 4    1  0.8362047E-005  0.9186646E+03  0.7818608E-02  0.9402546E-01
          2   -1    0    0  501    0  0.00000000000E+00  0.00000000000E+00  0.16490215611E+04  0.16490215611E+04  0.25500000000E-02 0.  1.
         -2   -1    0    0    0  501 -0.00000000000E+00 -0.00000000000E+00 -0.12794626371E+03  0.12794626374E+03  0.25500000000E-02 0. -1.
    5000001    1    1    2    0    0  0.28088973979E+03  0.10520642770E+02  0.13449697217E+03  0.35259632069E+03  0.16500000000E+03 0.  0.
   -5000001    1    1    2    0    0 -0.28088973979E+03 -0.10520642770E+02  0.13865783252E+04  0.14243715041E+04  0.16500000000E+03 0.  0.
<mgrwt>
<rscale>  0 0.91866457E+03</rscale>
<asrwt>0</asrwt>
<pdfrwt beam="1">  1        2 0.25369563E+00 0.91866457E+03</pdfrwt>
<pdfrwt beam="2">  1       -2 0.19684040E-01 0.91866457E+03</pdfrwt>
<totfact> 0.23085426E+02</totfact>
</mgrwt>
</event>
<event>
 4    1  0.8362047E-005  0.6140899E+03  0.7818608E-02  0.9876598E-01
          2   -1    0    0  501    0  0.00000000000E+00  0.00000000000E+00  0.11578530693E+04  0.11578530693E+04  0.25500000000E-02 0. -1.
         -2   -1    0    0    0  501 -0.00000000000E+00 -0.00000000000E+00 -0.81423631601E+02  0.81423631641E+02  0.25500000000E-02 0.  1.
    5000001    1    1    2    0    0 -0.66984732842E+02 -0.12399611750E+03  0.99825844215E+02  0.23885600424E+03  0.16500000000E+03 0.  0.
   -5000001    1    1    2    0    0  0.66984732842E+02  0.12399611750E+03  0.97660359352E+03  0.10004206967E+04  0.16500000000E+03 0.  0.
<mgrwt>
<rscale>  0 0.61408990E+03</rscale>
<asrwt>0</asrwt>
<pdfrwt beam="1">  1        2 0.17813122E+00 0.61408990E+03</pdfrwt>
<pdfrwt beam="2">  1       -2 0.12526714E-01 0.61408990E+03</pdfrwt>
<totfact> 0.96194923E+02</totfact>
</mgrwt>
</event>
<event>
 4    1  0.8362047E-005  0.4000609E+03  0.7818608E-02  0.1043759E+00
          2   -1    0    0  501    0  0.00000000000E+00  0.00000000000E+00  0.11829144100E+04  0.11829144100E+04  0.25500000000E-02 0.  1.
         -2   -1    0    0    0  501 -0.00000000000E+00 -0.00000000000E+00 -0.33825077322E+02  0.33825077418E+02  0.25500000000E-02 0. -1.
    5000001    1    1    2    0    0 -0.17422075371E+02 -0.11129587619E+03  0.60447887016E+03  0.63663961959E+03  0.16500000000E+03 0.  0.
   -5000001    1    1    2    0    0  0.17422075371E+02  0.11129587619E+03  0.54461046248E+03  0.58009986779E+03  0.16500000000E+03 0.  0.
<mgrwt>
<rscale>  0 0.40006085E+03</rscale>
<asrwt>0</asrwt>
<pdfrwt beam="1">  1        2 0.18198684E+00 0.40006085E+03</pdfrwt>
<pdfrwt beam="2">  1       -2 0.52038579E-02 0.40006085E+03</pdfrwt>
<totfact> 0.37771533E+03</totfact>
</mgrwt>
</event>
<event>
 4    1  0.8362047E-005  0.6818761E+03  0.7818608E-02  0.9748738E-01
         -2   -1    0    0    0  501 -0.00000000000E+00  0.00000000000E+00  0.46455352966E+03  0.46455352967E+03  0.25500000000E-02 0. -1.
          2   -1    0    0  501    0  0.00000000000E+00 -0.00000000000E+00 -0.25021606877E+03  0.25021606878E+03  0.25500000000E-02 0.  1.
    5000001    1    1    2    0    0  0.26329317348E+03  0.14022018478E+03  0.11279051218E+03  0.35907059899E+03  0.16500000000E+03 0.  0.
   -5000001    1    1    2    0    0 -0.26329317348E+03 -0.14022018478E+03  0.10154694871E+03  0.35569899946E+03  0.16500000000E+03 0.  0.
<mgrwt>
<rscale>  0 0.68187611E+03</rscale>
<asrwt>0</asrwt>
<pdfrwt beam="1">  1        2 0.38494780E-01 0.68187611E+03</pdfrwt>
<pdfrwt beam="2">  1       -2 0.71469774E-01 0.68187611E+03</pdfrwt>
<totfact> 0.24120880E+02</totfact>
</mgrwt>
</event>
<event>
 4    1  0.8362047E-005  0.3878737E+03  0.7818608E-02  0.1048061E+00
         -2   -1    0    0    0  501 -0.00000000000E+00  0.00000000000E+00  0.46537428558E+02  0.46537428628E+02  0.25500000000E-02 0. -1.
          2   -1    0    0  501    0  0.00000000000E+00 -0.00000000000E+00 -0.80819895013E+03  0.80819895014E+03  0.25500000000E-02 0.  1.
    5000001    1    1    2    0    0  0.96285321093E+02 -0.63663416515E+00 -0.45442174024E+03  0.49294562211E+03  0.16500000000E+03 0.  0.
   -5000001    1    1    2    0    0 -0.96285321093E+02  0.63663416515E+00 -0.30723978134E+03  0.36179075665E+03  0.16500000000E+03 0.  0.
<mgrwt>
<rscale>  0 0.38787370E+03</rscale>
<asrwt>0</asrwt>
<pdfrwt beam="1">  1        2 0.12433829E+00 0.38787370E+03</pdfrwt>
<pdfrwt beam="2">  1       -2 0.71596050E-02 0.38787370E+03</pdfrwt>
<totfact> 0.39591426E+03</totfact>
</mgrwt>
</event>
<event>
 4    1  0.8362047E-005  0.6094653E+03  0.7818608E-02  0.9885961E-01
          2   -1    0    0  501    0  0.00000000000E+00  0.00000000000E+00  0.14005264221E+04  0.14005264221E+04  0.25500000000E-02 0.  1.
         -2   -1    0    0    0  501 -0.00000000000E+00 -0.00000000000E+00 -0.66305056889E+02  0.66305056938E+02  0.25500000000E-02 0. -1.
    5000001    1    1    2    0    0 -0.14185319241E+03  0.19530458532E+03  0.87373803936E+03  0.92136277907E+03  0.16500000000E+03 0.  0.
   -5000001    1    1    2    0    0  0.14185319241E+03 -0.19530458532E+03  0.46048332582E+03  0.54546869993E+03  0.16500000000E+03 0.  0.
<mgrwt>
<rscale>  0 0.60946529E+03</rscale>
<asrwt>0</asrwt>
<pdfrwt beam="1">  1        2 0.21546559E+00 0.60946529E+03</pdfrwt>
<pdfrwt beam="2">  1       -2 0.10200779E-01 0.60946529E+03</pdfrwt>
<totfact> 0.97633657E+02</totfact>
</mgrwt>
</event>
<event>
 4    1  0.8362047E-005  0.4989582E+03  0.7818608E-02  0.1014051E+00
         -2   -1    0    0    0  501 -0.00000000000E+00  0.00000000000E+00  0.44668737830E+02  0.44668737903E+02  0.25500000000E-02 0. -1.
          2   -1    0    0  501    0  0.00000000000E+00 -0.00000000000E+00 -0.13933641149E+04  0.13933641149E+04  0.25500000000E-02 0.  1.
    5000001    1    1    2    0    0 -0.10483035543E+03  0.13628583271E+03 -0.46155042137E+03  0.51943914281E+03  0.16500000000E+03 0.  0.
   -5000001    1    1    2    0    0  0.10483035543E+03 -0.13628583271E+03 -0.88714495571E+03  0.91859371001E+03  0.16500000000E+03 0.  0.
<mgrwt>
<rscale>  0 0.49895818E+03</rscale>
<asrwt>0</asrwt>
<pdfrwt beam="1">  1        2 0.21436368E+00 0.49895818E+03</pdfrwt>
<pdfrwt beam="2">  1       -2 0.68721146E-02 0.49895818E+03</pdfrwt>
<totfact> 0.18593364E+03</totfact>
</mgrwt>
</event>
<event>
 4    1  0.8362047E-005  0.8753146E+03  0.7818608E-02  0.9456977E-01
          2   -1    0    0  501    0  0.00000000000E+00  0.00000000000E+00  0.16879868548E+04  0.16879868548E+04  0.25500000000E-02 0.  1.
         -2   -1    0    0    0  501 -0.00000000000E+00 -0.00000000000E+00 -0.11347475244E+03  0.11347475246E+03  0.25500000000E-02 0. -1.
    5000001    1    1    2    0    0 -0.17716629312E+03  0.35186150150E+03  0.59066447842E+03  0.72890598689E+03  0.16500000000E+03 0.  0.
   -5000001    1    1    2    0    0  0.17716629312E+03 -0.35186150150E+03  0.98384762391E+03  0.10725556203E+04  0.16500000000E+03 0.  0.
<mgrwt>
<rscale>  0 0.87531455E+03</rscale>
<asrwt>0</asrwt>
<pdfrwt beam="1">  1        2 0.25969026E+00 0.87531455E+03</pdfrwt>
<pdfrwt beam="2">  1       -2 0.17457656E-01 0.87531455E+03</pdfrwt>
<totfact> 0.27142567E+02</totfact>
</mgrwt>
</event>
<event>
 4    1  0.8362047E-005  0.5203286E+03  0.7818608E-02  0.1008605E+00
          2   -1    0    0  501    0  0.00000000000E+00  0.00000000000E+00  0.98741894751E+03  0.98741894752E+03  0.25500000000E-02 0.  1.
         -2   -1    0    0    0  501 -0.00000000000E+00 -0.00000000000E+00 -0.68547863021E+02  0.68547863068E+02  0.25500000000E-02 0. -1.
    5000001    1    1    2    0    0  0.66821672532E+02 -0.17338325043E+03  0.30310973926E+03  0.39195331545E+03  0.16500000000E+03 0.  0.
   -5000001    1    1    2    0    0 -0.66821672532E+02  0.17338325043E+03  0.61576134523E+03  0.66401349514E+03  0.16500000000E+03 0.  0.
<mgrwt>
<rscale>  0 0.52032858E+03</rscale>
<asrwt>0</asrwt>
<pdfrwt beam="1">  1        2 0.15191060E+00 0.52032858E+03</pdfrwt>
<pdfrwt beam="2">  1       -2 0.10545826E-01 0.52032858E+03</pdfrwt>
<totfact> 0.16261027E+03</totfact>
</mgrwt>
</event>
<event>
 4    1  0.8362047E-005  0.4100228E+03  0.7818608E-02  0.1040363E+00
         -2   -1    0    0    0  501 -0.00000000000E+00  0.00000000000E+00  0.65491945081E+02  0.65491945131E+02  0.25500000000E-02 0. -1.
          2   -1    0    0  501    0  0.00000000000E+00 -0.00000000000E+00 -0.64175320641E+03  0.64175320641E+03  0.25500000000E-02 0.  1.
    5000001    1    1    2    0    0  0.11389053947E+03  0.25503005144E+02 -0.34746310702E+03  0.40196650233E+03  0.16500000000E+03 0.  0.
   -5000001    1    1    2    0    0 -0.11389053947E+03 -0.25503005144E+02 -0.22879815431E+03  0.30527864922E+03  0.16500000000E+03 0.  0.
<mgrwt>
<rscale>  0 0.41002276E+03</rscale>
<asrwt>0</asrwt>
<pdfrwt beam="1">  1        2 0.98731258E-01 0.41002276E+03</pdfrwt>
<pdfrwt beam="2">  1       -2 0.10075684E-01 0.41002276E+03</pdfrwt>
<totfact> 0.30720713E+03</totfact>
</mgrwt>
</event>
<event>
 4    1  0.8362047E-005  0.6827033E+03  0.7818608E-02  0.9747278E-01
         -2   -1    0    0    0  501 -0.00000000000E+00  0.00000000000E+00  0.20330564529E+03  0.20330564531E+03  0.25500000000E-02 0. -1.
          2   -1    0    0  501    0  0.00000000000E+00 -0.00000000000E+00 -0.57313187070E+03  0.57313187071E+03  0.25500000000E-02 0.  1.
    5000001    1    1    2    0    0 -0.24553207458E+03 -0.17783177357E+02 -0.37756258438E+03  0.47997994351E+03  0.16500000000E+03 0.  0.
   -5000001    1    1    2    0    0  0.24553207458E+03  0.17783177357E+02  0.77363589713E+01  0.29645757251E+03  0.16500000000E+03 0.  0.
<mgrwt>
<rscale>  0 0.68270329E+03</rscale>
<asrwt>0</asrwt>
<pdfrwt beam="1">  1        2 0.88174133E-01 0.68270329E+03</pdfrwt>
<pdfrwt beam="2">  1       -2 0.31277792E-01 0.68270329E+03</pdfrwt>
<totfact> 0.50019072E+02</totfact>
</mgrwt>
</event>
<event>
 4    1  0.8362047E-005  0.5443941E+03  0.7818608E-02  0.1002800E+00
          2   -1    0    0  501    0  0.00000000000E+00  0.00000000000E+00  0.27752457134E+04  0.27752457134E+04  0.25500000000E-02 0.  1.
         -2   -1    0    0    0  501 -0.00000000000E+00 -0.00000000000E+00 -0.26697179449E+02  0.26697179571E+02  0.25500000000E-02 0. -1.
    5000001    1    1    2    0    0 -0.14655619715E+03  0.13550335463E+03  0.94284369600E+03  0.97776229889E+03  0.16500000000E+03 0.  0.
   -5000001    1    1    2    0    0  0.14655619715E+03 -0.13550335463E+03  0.18057048379E+04  0.18241805941E+04  0.16500000000E+03 0.  0.
<mgrwt>
<rscale>  0 0.54439410E+03</rscale>
<asrwt>0</asrwt>
<pdfrwt beam="1">  1        2 0.42696071E+00 0.54439410E+03</pdfrwt>
<pdfrwt beam="2">  1       -2 0.41072600E-02 0.54439410E+03</pdfrwt>
<totfact> 0.71532866E+02</totfact>
</mgrwt>
</event>
<event>
 4    1  0.8362047E-005  0.4907001E+03  0.7818608E-02  0.1016235E+00
          2   -1    0    0  501    0  0.00000000000E+00  0.00000000000E+00  0.10341856133E+04  0.10341856133E+04  0.25500000000E-02 0.  1.
         -2   -1    0    0    0  501 -0.00000000000E+00 -0.00000000000E+00 -0.58206799626E+02  0.58206799682E+02  0.25500000000E-02 0. -1.
    5000001    1    1    2    0    0  0.33852625005E+02 -0.16205150639E+03  0.65406008784E+03  0.69456913943E+03  0.16500000000E+03 0.  0.
   -5000001    1    1    2    0    0 -0.33852625005E+02  0.16205150639E+03  0.32191872586E+03  0.39782327358E+03  0.16500000000E+03 0.  0.
<mgrwt>
<rscale>  0 0.49070005E+03</rscale>
<asrwt>0</asrwt>
<pdfrwt beam="1">  1        2 0.15910547E+00 0.49070005E+03</pdfrwt>
<pdfrwt beam="2">  1       -2 0.89548928E-02 0.49070005E+03</pdfrwt>
<totfact> 0.19793525E+03</totfact>
</mgrwt>
</event>
<event>
 4    1  0.8362047E-005  0.4107971E+03  0.7818608E-02  0.1040104E+00
         -2   -1    0    0    0  501 -0.00000000000E+00  0.00000000000E+00  0.25674344281E+03  0.25674344282E+03  0.25500000000E-02 0. -1.
          2   -1    0    0  501    0  0.00000000000E+00 -0.00000000000E+00 -0.16432188284E+03  0.16432188286E+03  0.25500000000E-02 0.  1.
    5000001    1    1    2    0    0  0.78974497442E+02  0.93415831848E+02  0.45926265197E+02  0.21047021338E+03  0.16500000000E+03 0.  0.
   -5000001    1    1    2    0    0 -0.78974497442E+02 -0.93415831848E+02  0.46495294778E+02  0.21059511230E+03  0.16500000000E+03 0.  0.
<mgrwt>
<rscale>  0 0.41079711E+03</rscale>
<asrwt>0</asrwt>
<pdfrwt beam="1">  1        2 0.25280290E-01 0.41079711E+03</pdfrwt>
<pdfrwt beam="2">  1       -2 0.39498991E-01 0.41079711E+03</pdfrwt>
<totfact> 0.13061874E+03</totfact>
</mgrwt>
</event>
<event>
 4    1  0.8362047E-005  0.7035565E+03  0.7818608E-02  0.9711169E-01
          2   -1    0    0  501    0  0.00000000000E+00  0.00000000000E+00  0.25307860849E+04  0.25307860849E+04  0.25500000000E-02 0.  1.
         -2   -1    0    0    0  501 -0.00000000000E+00 -0.00000000000E+00 -0.48897034580E+02  0.48897034646E+02  0.25500000000E-02 0. -1.
    5000001    1    1    2    0    0 -0.26886131897E+03 -0.15567670549E+03  0.12367811264E+04  0.12858359926E+04  0.16500000000E+03 0.  0.
   -5000001    1    1    2    0    0  0.26886131897E+03  0.15567670549E+03  0.12451079239E+04  0.12938471269E+04  0.16500000000E+03 0.  0.
<mgrwt>
<rscale>  0 0.70355649E+03</rscale>
<asrwt>0</asrwt>
<pdfrwt beam="1">  1        2 0.38935183E+00 0.70355649E+03</pdfrwt>
<pdfrwt beam="2">  1       -2 0.75226183E-02 0.70355649E+03</pdfrwt>
<totfact> 0.37834889E+02</totfact>
</mgrwt>
</event>
<event>
 4    1  0.8362047E-005  0.5263399E+03  0.7818608E-02  0.1007124E+00
         -2   -1    0    0    0  501 -0.00000000000E+00  0.00000000000E+00  0.46555068412E+02  0.46555068481E+02  0.25500000000E-02 0. -1.
          2   -1    0    0  501    0  0.00000000000E+00 -0.00000000000E+00 -0.14876667391E+04  0.14876667391E+04  0.25500000000E-02 0.  1.
    5000001    1    1    2    0    0 -0.20004432973E+03 -0.17227644761E+02 -0.59970565289E+03  0.65359497834E+03  0.16500000000E+03 0.  0.
   -5000001    1    1    2    0    0  0.20004432973E+03  0.17227644761E+02 -0.84140601780E+03  0.88062682925E+03  0.16500000000E+03 0.  0.
<mgrwt>
<rscale>  0 0.52633992E+03</rscale>
<asrwt>0</asrwt>
<pdfrwt beam="1">  1        2 0.22887177E+00 0.52633992E+03</pdfrwt>
<pdfrwt beam="2">  1       -2 0.71623194E-02 0.52633992E+03</pdfrwt>
<totfact> 0.15432385E+03</totfact>
</mgrwt>
</event>
<event>
 4    1  0.8362047E-005  0.6386239E+03  0.7818608E-02  0.9828363E-01
         -2   -1    0    0    0  501 -0.00000000000E+00  0.00000000000E+00  0.78317218565E+03  0.78317218566E+03  0.25500000000E-02 0. -1.
          2   -1    0    0  501    0  0.00000000000E+00 -0.00000000000E+00 -0.13018863998E+03  0.13018864000E+03  0.25500000000E-02 0.  1.
    5000001    1    1    2    0    0  0.10608233892E+03  0.23747190135E+03  0.20607632619E+03  0.37059252391E+03  0.16500000000E+03 0.  0.
   -5000001    1    1    2    0    0 -0.10608233892E+03 -0.23747190135E+03  0.44690721948E+03  0.54276830175E+03  0.16500000000E+03 0.  0.
<mgrwt>
<rscale>  0 0.63862390E+03</rscale>
<asrwt>0</asrwt>
<pdfrwt beam="1">  1        2 0.20029022E-01 0.63862390E+03</pdfrwt>
<pdfrwt beam="2">  1       -2 0.12048803E+00 0.63862390E+03</pdfrwt>
<totfact> 0.15101728E+02</totfact>
</mgrwt>
</event>
<event>
 4    1  0.8362047E-005  0.5192683E+03  0.7818608E-02  0.1008868E+00
         -2   -1    0    0    0  501 -0.00000000000E+00  0.00000000000E+00  0.10594208938E+03  0.10594208941E+03  0.25500000000E-02 0. -1.
          2   -1    0    0  501    0  0.00000000000E+00 -0.00000000000E+00 -0.63628995888E+03  0.63628995888E+03  0.25500000000E-02 0.  1.
    5000001    1    1    2    0    0 -0.35538659547E+02 -0.18526639051E+03 -0.36210086862E+03  0.44037333120E+03  0.16500000000E+03 0.  0.
   -5000001    1    1    2    0    0  0.35538659547E+02  0.18526639051E+03 -0.16824700089E+03  0.30185871709E+03  0.16500000000E+03 0.  0.
<mgrwt>
<rscale>  0 0.51926828E+03</rscale>
<asrwt>0</asrwt>
<pdfrwt beam="1">  1        2 0.97890761E-01 0.51926828E+03</pdfrwt>
<pdfrwt beam="2">  1       -2 0.16298783E-01 0.51926828E+03</pdfrwt>
<totfact> 0.14060006E+03</totfact>
</mgrwt>
</event>
<event>
 4    1  0.8362047E-005  0.5998915E+03  0.7818608E-02  0.9905631E-01
         -2   -1    0    0    0  501 -0.00000000000E+00  0.00000000000E+00  0.76475261238E+02  0.76475261281E+02  0.25500000000E-02 0. -1.
          2   -1    0    0  501    0  0.00000000000E+00 -0.00000000000E+00 -0.11764256807E+04  0.11764256807E+04  0.25500000000E-02 0.  1.
    5000001    1    1    2    0    0  0.24741091171E+03 -0.62861688545E+01 -0.63061542534E+03  0.69724636236E+03  0.16500000000E+03 0.  0.
   -5000001    1    1    2    0    0 -0.24741091171E+03  0.62861688545E+01 -0.46933499414E+03  0.55565457964E+03  0.16500000000E+03 0.  0.
<mgrwt>
<rscale>  0 0.59989153E+03</rscale>
<asrwt>0</asrwt>
<pdfrwt beam="1">  1        2 0.18098855E+00 0.59989153E+03</pdfrwt>
<pdfrwt beam="2">  1       -2 0.11765426E-01 0.59989153E+03</pdfrwt>
<totfact> 0.10405218E+03</totfact>
</mgrwt>
</event>
<event>
 4    1  0.8362047E-005  0.4203970E+03  0.7818608E-02  0.1036937E+00
          2   -1    0    0  501    0  0.00000000000E+00  0.00000000000E+00  0.11873919055E+04  0.11873919055E+04  0.25500000000E-02 0.  1.
         -2   -1    0    0    0  501 -0.00000000000E+00 -0.00000000000E+00 -0.37210468446E+02  0.37210468533E+02  0.25500000000E-02 0. -1.
    5000001    1    1    2    0    0  0.47465502022E+02 -0.11183604578E+03  0.71166300473E+03  0.74057376899E+03  0.16500000000E+03 0.  0.
   -5000001    1    1    2    0    0 -0.47465502022E+02  0.11183604578E+03  0.43851843237E+03  0.48402860509E+03  0.16500000000E+03 0.  0.
<mgrwt>
<rscale>  0 0.42039700E+03</rscale>
<asrwt>0</asrwt>
<pdfrwt beam="1">  1        2 0.18267568E+00 0.42039700E+03</pdfrwt>
<pdfrwt beam="2">  1       -2 0.57246875E-02 0.42039700E+03</pdfrwt>
<totfact> 0.32408055E+03</totfact>
</mgrwt>
</event>
<event>
 4    1  0.8362047E-005  0.4544633E+03  0.7818608E-02  0.1026399E+00
         -2   -1    0    0    0  501 -0.00000000000E+00  0.00000000000E+00  0.53508261007E+02  0.53508261068E+02  0.25500000000E-02 0. -1.
          2   -1    0    0  501    0  0.00000000000E+00 -0.00000000000E+00 -0.96497647622E+03  0.96497647623E+03  0.25500000000E-02 0.  1.
    5000001    1    1    2    0    0  0.96290241713E+02 -0.10397268158E+03 -0.30831512419E+03  0.37731332466E+03  0.16500000000E+03 0.  0.
   -5000001    1    1    2    0    0 -0.96290241713E+02  0.10397268158E+03 -0.60315309103E+03  0.64117141263E+03  0.16500000000E+03 0.  0.
<mgrwt>
<rscale>  0 0.45446326E+03</rscale>
<asrwt>0</asrwt>
<pdfrwt beam="1">  1        2 0.14845791E+00 0.45446326E+03</pdfrwt>
<pdfrwt beam="2">  1       -2 0.82320409E-02 0.45446326E+03</pdfrwt>
<totfact> 0.25018796E+03</totfact>
</mgrwt>
</event>
<event>
 4    1  0.8362047E-005  0.6310019E+03  0.7818608E-02  0.9843096E-01
         -2   -1    0    0    0  501 -0.00000000000E+00  0.00000000000E+00  0.10677938673E+03  0.10677938676E+03  0.25500000000E-02 0.  1.
          2   -1    0    0  501    0  0.00000000000E+00 -0.00000000000E+00 -0.93221024484E+03  0.93221024484E+03  0.25500000000E-02 0. -1.
    5000001    1    1    2    0    0 -0.13061929670E+03  0.21958164695E+03 -0.27457664527E+03  0.40974972175E+03  0.16500000000E+03 0.  0.
   -5000001    1    1    2    0    0  0.13061929670E+03 -0.21958164695E+03 -0.55085421284E+03  0.62923990986E+03  0.16500000000E+03 0.  0.
<mgrwt>
<rscale>  0 0.63100186E+03</rscale>
<asrwt>0</asrwt>
<pdfrwt beam="1">  1        2 0.14341696E+00 0.63100186E+03</pdfrwt>
<pdfrwt beam="2">  1       -2 0.16427599E-01 0.63100186E+03</pdfrwt>
<totfact> 0.84308342E+02</totfact>
</mgrwt>
</event>
<event>
 4    1  0.8362047E-005  0.7268188E+03  0.7818608E-02  0.9672437E-01
          2   -1    0    0  501    0  0.00000000000E+00  0.00000000000E+00  0.12714462354E+03  0.12714462356E+03  0.25500000000E-02 0.  1.
         -2   -1    0    0    0  501 -0.00000000000E+00 -0.00000000000E+00 -0.10387100644E+04  0.10387100644E+04  0.25500000000E-02 0. -1.
    5000001    1    1    2    0    0 -0.19703878776E+03 -0.25021950740E+03 -0.54941473312E+03  0.65613690243E+03  0.16500000000E+03 0.  0.
   -5000001    1    1    2    0    0  0.19703878776E+03  0.25021950740E+03 -0.36215070773E+03  0.50971778552E+03  0.16500000000E+03 0.  0.
<mgrwt>
<rscale>  0 0.72681882E+03</rscale>
<asrwt>0</asrwt>
<pdfrwt beam="1">  1        2 0.19560712E-01 0.72681882E+03</pdfrwt>
<pdfrwt beam="2">  1       -2 0.15980154E+00 0.72681882E+03</pdfrwt>
<totfact> 0.74675431E+01</totfact>
</mgrwt>
</event>
<event>
 4    1  0.8362047E-005  0.3843153E+03  0.7818608E-02  0.1049350E+00
          2   -1    0    0  501    0  0.00000000000E+00  0.00000000000E+00  0.15337356336E+03  0.15337356338E+03  0.25500000000E-02 0.  1.
         -2   -1    0    0    0  501 -0.00000000000E+00 -0.00000000000E+00 -0.24074924618E+03  0.24074924619E+03  0.25500000000E-02 0. -1.
    5000001    1    1    2    0    0 -0.40894165073E+02 -0.80633072260E+02 -0.83742803024E+02  0.20594145318E+03  0.16500000000E+03 0.  0.
   -5000001    1    1    2    0    0  0.40894165073E+02  0.80633072260E+02 -0.36328797918E+01  0.18818135640E+03  0.16500000000E+03 0.  0.
<mgrwt>
<rscale>  0 0.38431534E+03</rscale>
<asrwt>0</asrwt>
<pdfrwt beam="1">  1        2 0.23595933E-01 0.38431534E+03</pdfrwt>
<pdfrwt beam="2">  1       -2 0.37038346E-01 0.38431534E+03</pdfrwt>
<totfact> 0.15958613E+03</totfact>
</mgrwt>
</event>
<event>
 4    1  0.8362047E-005  0.5998258E+03  0.7818608E-02  0.9905768E-01
          2   -1    0    0  501    0  0.00000000000E+00  0.00000000000E+00  0.34775050566E+03  0.34775050567E+03  0.25500000000E-02 0.  1.
         -2   -1    0    0    0  501 -0.00000000000E+00 -0.00000000000E+00 -0.25865598260E+03  0.25865598261E+03  0.25500000000E-02 0. -1.
    5000001    1    1    2    0    0 -0.10010552510E+03 -0.22650009610E+03  0.82365402176E+02  0.30875956530E+03  0.16500000000E+03 0.  0.
   -5000001    1    1    2    0    0  0.10010552510E+03  0.22650009610E+03  0.67291208804E+01  0.29764692298E+03  0.16500000000E+03 0.  0.
<mgrwt>
<rscale>  0 0.59982580E+03</rscale>
<asrwt>0</asrwt>
<pdfrwt beam="1">  1        2 0.53500077E-01 0.59982580E+03</pdfrwt>
<pdfrwt beam="2">  1       -2 0.39793228E-01 0.59982580E+03</pdfrwt>
<totfact> 0.56029467E+02</totfact>
</mgrwt>
</event>
<event>
 4    1  0.8362047E-005  0.5454017E+03  0.7818608E-02  0.1002564E+00
         -2   -1    0    0    0  501 -0.00000000000E+00  0.00000000000E+00  0.21005679392E+03  0.21005679394E+03  0.25500000000E-02 0. -1.
          2   -1    0    0  501    0  0.00000000000E+00 -0.00000000000E+00 -0.35402689887E+03  0.35402689888E+03  0.25500000000E-02 0.  1.
    5000001    1    1    2    0    0  0.51093664885E+02  0.14950588605E+03  0.82039526981E+02  0.24273041949E+03  0.16500000000E+03 0.  0.
   -5000001    1    1    2    0    0 -0.51093664885E+02 -0.14950588605E+03 -0.22600963193E+03  0.32135327333E+03  0.16500000000E+03 0.  0.
<mgrwt>
<rscale>  0 0.54540171E+03</rscale>
<asrwt>0</asrwt>
<pdfrwt beam="1">  1        2 0.54465677E-01 0.54540171E+03</pdfrwt>
<pdfrwt beam="2">  1       -2 0.32316430E-01 0.54540171E+03</pdfrwt>
<totfact> 0.81679755E+02</totfact>
</mgrwt>
</event>
<event>
 4    1  0.8362047E-005  0.5318393E+03  0.7818608E-02  0.1005787E+00
          2   -1    0    0  501    0  0.00000000000E+00  0.00000000000E+00  0.33508651562E+04  0.33508651562E+04  0.25500000000E-02 0.  1.
         -2   -1    0    0    0  501 -0.00000000000E+00 -0.00000000000E+00 -0.21102983054E+02  0.21102983208E+02  0.25500000000E-02 0. -1.
    5000001    1    1    2    0    0 -0.98453077500E+01  0.20637729732E+03  0.14855831530E+04  0.15089303574E+04  0.16500000000E+03 0.  0.
   -5000001    1    1    2    0    0  0.98453077500E+01 -0.20637729732E+03  0.18441790201E+04  0.18630377820E+04  0.16500000000E+03 0.  0.
<mgrwt>
<rscale>  0 0.53183926E+03</rscale>
<asrwt>0</asrwt>
<pdfrwt beam="1">  1        2 0.51551805E+00 0.53183926E+03</pdfrwt>
<pdfrwt beam="2">  1       -2 0.32466107E-02 0.53183926E+03</pdfrwt>
<totfact> 0.45425508E+02</totfact>
</mgrwt>
</event>
<event>
 4    1  0.8362047E-005  0.3809099E+03  0.7818608E-02  0.1050598E+00
         -2   -1    0    0    0  501 -0.00000000000E+00  0.00000000000E+00  0.14481100007E+02  0.14481100231E+02  0.25500000000E-02 0. -1.
          2   -1    0    0  501    0  0.00000000000E+00 -0.00000000000E+00 -0.25048573562E+04  0.25048573562E+04  0.25500000000E-02 0.  1.
    5000001    1    1    2    0    0 -0.76047655300E+02 -0.54542605652E+02 -0.11325657635E+04  0.11483415652E+04  0.16500000000E+03 0.  0.
   -5000001    1    1    2    0    0  0.76047655300E+02  0.54542605652E+02 -0.13578104927E+04  0.13709968912E+04  0.16500000000E+03 0.  0.
<mgrwt>
<rscale>  0 0.38090991E+03</rscale>
<asrwt>0</asrwt>
<pdfrwt beam="1">  1        2 0.38536233E+00 0.38090991E+03</pdfrwt>
<pdfrwt beam="2">  1       -2 0.22278635E-02 0.38090991E+03</pdfrwt>
<totfact> 0.26064651E+03</totfact>
</mgrwt>
</event>
<event>
 4    1  0.8362047E-005  0.6577729E+03  0.7818608E-02  0.9792302E-01
          2   -1    0    0  501    0  0.00000000000E+00  0.00000000000E+00  0.88938309327E+03  0.88938309328E+03  0.25500000000E-02 0.  1.
         -2   -1    0    0    0  501 -0.00000000000E+00 -0.00000000000E+00 -0.12161945184E+03  0.12161945187E+03  0.25500000000E-02 0. -1.
    5000001    1    1    2    0    0  0.47622468096E+02 -0.28038955417E+03  0.39528915264E+03  0.51416409419E+03  0.16500000000E+03 0.  0.
   -5000001    1    1    2    0    0 -0.47622468096E+02  0.28038955417E+03  0.37247448879E+03  0.49683845096E+03  0.16500000000E+03 0.  0.
<mgrwt>
<rscale>  0 0.65777286E+03</rscale>
<asrwt>0</asrwt>
<pdfrwt beam="1">  1        2 0.13682817E+00 0.65777286E+03</pdfrwt>
<pdfrwt beam="2">  1       -2 0.18710685E-01 0.65777286E+03</pdfrwt>
<totfact> 0.71944281E+02</totfact>
</mgrwt>
</event>
<event>
 4    1  0.8362047E-005  0.4841421E+03  0.7818608E-02  0.1018003E+00
         -2   -1    0    0    0  501 -0.00000000000E+00  0.00000000000E+00  0.16830405822E+02  0.16830406015E+02  0.25500000000E-02 0. -1.
          2   -1    0    0  501    0  0.00000000000E+00 -0.00000000000E+00 -0.34816988532E+04  0.34816988532E+04  0.25500000000E-02 0.  1.
    5000001    1    1    2    0    0 -0.17653040964E+03 -0.26265698438E+01 -0.18355242844E+04  0.18513628178E+04  0.16500000000E+03 0.  0.
   -5000001    1    1    2    0    0  0.17653040964E+03  0.26265698438E+01 -0.16293441630E+04  0.16471664414E+04  0.16500000000E+03 0.  0.
<mgrwt>
<rscale>  0 0.48414215E+03</rscale>
<asrwt>0</asrwt>
<pdfrwt beam="1">  1        2 0.53564541E+00 0.48414215E+03</pdfrwt>
<pdfrwt beam="2">  1       -2 0.25892960E-02 0.48414215E+03</pdfrwt>
<totfact> 0.52760927E+02</totfact>
</mgrwt>
</event>
<event>
 4    1  0.8362047E-005  0.4466673E+03  0.7818608E-02  0.1028721E+00
          2   -1    0    0  501    0  0.00000000000E+00  0.00000000000E+00  0.39707360713E+03  0.39707360714E+03  0.25500000000E-02 0.  1.
         -2   -1    0    0    0  501 -0.00000000000E+00 -0.00000000000E+00 -0.12561375953E+03  0.12561375956E+03  0.25500000000E-02 0. -1.
    5000001    1    1    2    0    0  0.55086992346E+02 -0.13593353612E+03  0.96212596016E+02  0.24082019558E+03  0.16500000000E+03 0.  0.
   -5000001    1    1    2    0    0 -0.55086992346E+02  0.13593353612E+03  0.17524725158E+03  0.28186717112E+03  0.16500000000E+03 0.  0.
<mgrwt>
<rscale>  0 0.44666725E+03</rscale>
<asrwt>0</asrwt>
<pdfrwt beam="1">  1        2 0.61088246E-01 0.44666725E+03</pdfrwt>
<pdfrwt beam="2">  1       -2 0.19325194E-01 0.44666725E+03</pdfrwt>
<totfact> 0.18065674E+03</totfact>
</mgrwt>
</event>
<event>
 4    1  0.8362047E-005  0.4354311E+03  0.7818608E-02  0.1032158E+00
          2   -1    0    0  501    0  0.00000000000E+00  0.00000000000E+00  0.19802447242E+03  0.19802447244E+03  0.25500000000E-02 0.  1.
         -2   -1    0    0    0  501 -0.00000000000E+00 -0.00000000000E+00 -0.23936464832E+03  0.23936464834E+03  0.25500000000E-02 0. -1.
    5000001    1    1    2    0    0  0.10023001774E+03 -0.83255851999E+02 -0.77470493103E+02  0.22406309524E+03  0.16500000000E+03 0.  0.
   -5000001    1    1    2    0    0 -0.10023001774E+03  0.83255851999E+02  0.36130317201E+02  0.21332602553E+03  0.16500000000E+03 0.  0.
<mgrwt>
<rscale>  0 0.43543109E+03</rscale>
<asrwt>0</asrwt>
<pdfrwt beam="1">  1        2 0.30465303E-01 0.43543109E+03</pdfrwt>
<pdfrwt beam="2">  1       -2 0.36825330E-01 0.43543109E+03</pdfrwt>
<totfact> 0.12119685E+03</totfact>
</mgrwt>
</event>
<event>
 4    1  0.8362047E-005  0.6288910E+03  0.7818608E-02  0.9847215E-01
         -2   -1    0    0    0  501 -0.00000000000E+00  0.00000000000E+00  0.74341417423E+02  0.74341417466E+02  0.25500000000E-02 0. -1.
          2   -1    0    0  501    0  0.00000000000E+00 -0.00000000000E+00 -0.13300254603E+04  0.13300254603E+04  0.25500000000E-02 0.  1.
    5000001    1    1    2    0    0 -0.25710818213E+03  0.63905269468E+02 -0.54244362129E+03  0.62582632021E+03  0.16500000000E+03 0.  0.
   -5000001    1    1    2    0    0  0.25710818213E+03 -0.63905269468E+02 -0.71324042161E+03  0.77854055758E+03  0.16500000000E+03 0.  0.
<mgrwt>
<rscale>  0 0.62889102E+03</rscale>
<asrwt>0</asrwt>
<pdfrwt beam="1">  1        2 0.20461928E+00 0.62889102E+03</pdfrwt>
<pdfrwt beam="2">  1       -2 0.11437142E-01 0.62889102E+03</pdfrwt>
<totfact> 0.88703927E+02</totfact>
</mgrwt>
</event>
<event>
 4    1  0.8362047E-005  0.4982209E+03  0.7818608E-02  0.1014244E+00
          2   -1    0    0  501    0  0.00000000000E+00  0.00000000000E+00  0.18074109499E+03  0.18074109501E+03  0.25500000000E-02 0.  1.
         -2   -1    0    0    0  501 -0.00000000000E+00 -0.00000000000E+00 -0.34334207598E+03  0.34334207599E+03  0.25500000000E-02 0. -1.
    5000001    1    1    2    0    0 -0.93783151096E+02  0.11325873094E+03  0.39592221604E+02  0.22453365800E+03  0.16500000000E+03 0.  0.
   -5000001    1    1    2    0    0  0.93783151096E+02 -0.11325873094E+03 -0.20219320259E+03  0.29954951300E+03  0.16500000000E+03 0.  0.
<mgrwt>
<rscale>  0 0.49822093E+03</rscale>
<asrwt>0</asrwt>
<pdfrwt beam="1">  1        2 0.27806322E-01 0.49822093E+03</pdfrwt>
<pdfrwt beam="2">  1       -2 0.52821858E-01 0.49822093E+03</pdfrwt>
<totfact> 0.65985979E+02</totfact>
</mgrwt>
</event>
<event>
 4    1  0.8362047E-005  0.6178824E+03  0.7818608E-02  0.9868985E-01
         -2   -1    0    0    0  501 -0.00000000000E+00  0.00000000000E+00  0.10847175372E+03  0.10847175375E+03  0.25500000000E-02 0. -1.
          2   -1    0    0  501    0  0.00000000000E+00 -0.00000000000E+00 -0.87990348401E+03  0.87990348401E+03  0.25500000000E-02 0.  1.
    5000001    1    1    2    0    0 -0.18979202417E+03  0.12218468042E+03 -0.59592748367E+03  0.65825882019E+03  0.16500000000E+03 0.  0.
   -5000001    1    1    2    0    0  0.18979202417E+03 -0.12218468042E+03 -0.17550424662E+03  0.33011641757E+03  0.16500000000E+03 0.  0.
<mgrwt>
<rscale>  0 0.61788243E+03</rscale>
<asrwt>0</asrwt>
<pdfrwt beam="1">  1        2 0.13536976E+00 0.61788243E+03</pdfrwt>
<pdfrwt beam="2">  1       -2 0.16687963E-01 0.61788243E+03</pdfrwt>
<totfact> 0.88970102E+02</totfact>
</mgrwt>
</event>
<event>
 4    1  0.8362047E-005  0.5800120E+03  0.7818608E-02  0.9947765E-01
         -2   -1    0    0    0  501 -0.00000000000E+00  0.00000000000E+00  0.72850555395E+03  0.72850555396E+03  0.25500000000E-02 0. -1.
          2   -1    0    0  501    0  0.00000000000E+00 -0.00000000000E+00 -0.11544659324E+03  0.11544659327E+03  0.25500000000E-02 0.  1.
    5000001    1    1    2    0    0  0.10279938694E+03 -0.19921644143E+03  0.18810889007E+03  0.33595365605E+03  0.16500000000E+03 0.  0.
   -5000001    1    1    2    0    0 -0.10279938694E+03  0.19921644143E+03  0.42495007065E+03  0.50799849117E+03  0.16500000000E+03 0.  0.
<mgrwt>
<rscale>  0 0.58001201E+03</rscale>
<asrwt>0</asrwt>
<pdfrwt beam="1">  1        2 0.17761014E-01 0.58001201E+03</pdfrwt>
<pdfrwt beam="2">  1       -2 0.11207778E+00 0.58001201E+03</pdfrwt>
<totfact> 0.20807046E+02</totfact>
</mgrwt>
</event>
<event>
 4    1  0.8362047E-005  0.6072946E+03  0.7818608E-02  0.9890387E-01
          2   -1    0    0  501    0  0.00000000000E+00  0.00000000000E+00  0.42440454119E+03  0.42440454120E+03  0.25500000000E-02 0.  1.
         -2   -1    0    0    0  501 -0.00000000000E+00 -0.00000000000E+00 -0.21724955164E+03  0.21724955165E+03  0.25500000000E-02 0. -1.
    5000001    1    1    2    0    0  0.81176439832E+02 -0.24160080277E+03  0.10782146853E+03  0.32219719328E+03  0.16500000000E+03 0.  0.
   -5000001    1    1    2    0    0 -0.81176439832E+02  0.24160080277E+03  0.99333521031E+02  0.31945689957E+03  0.16500000000E+03 0.  0.
<mgrwt>
<rscale>  0 0.60729464E+03</rscale>
<asrwt>0</asrwt>
<pdfrwt beam="1">  1        2 0.65293006E-01 0.60729464E+03</pdfrwt>
<pdfrwt beam="2">  1       -2 0.33423008E-01 0.60729464E+03</pdfrwt>
<totfact> 0.62595077E+02</totfact>
</mgrwt>
</event>
<event>
 4    1  0.8362047E-005  0.6700928E+03  0.7818608E-02  0.9769790E-01
         -2   -1    0    0    0  501 -0.00000000000E+00  0.00000000000E+00  0.50333560013E+03  0.50333560013E+03  0.25500000000E-02 0. -1.
          2   -1    0    0  501    0  0.00000000000E+00 -0.00000000000E+00 -0.22302436500E+03  0.22302436501E+03  0.25500000000E-02 0.  1.
    5000001    1    1    2    0    0  0.20036108029E+03 -0.19215734684E+03  0.43432434944E+02  0.32585331799E+03  0.16500000000E+03 0.  0.
   -5000001    1    1    2    0    0 -0.20036108029E+03  0.19215734684E+03  0.23687880019E+03  0.40050664716E+03  0.16500000000E+03 0.  0.
<mgrwt>
<rscale>  0 0.67009284E+03</rscale>
<asrwt>0</asrwt>
<pdfrwt beam="1">  1        2 0.34311441E-01 0.67009284E+03</pdfrwt>
<pdfrwt beam="2">  1       -2 0.77436246E-01 0.67009284E+03</pdfrwt>
<totfact> 0.22981285E+02</totfact>
</mgrwt>
</event>
<event>
 4    1  0.8362047E-005  0.6561233E+03  0.7818608E-02  0.9795357E-01
         -2   -1    0    0    0  501 -0.00000000000E+00  0.00000000000E+00  0.91640959919E+02  0.91640959955E+02  0.25500000000E-02 0. -1.
          2   -1    0    0  501    0  0.00000000000E+00 -0.00000000000E+00 -0.11744142314E+04  0.11744142314E+04  0.25500000000E-02 0.  1.
    5000001    1    1    2    0    0  0.67986046934E+02 -0.27471071353E+03 -0.50733760598E+03  0.60390771244E+03  0.16500000000E+03 0.  0.
   -5000001    1    1    2    0    0 -0.67986046934E+02  0.27471071353E+03 -0.57543566549E+03  0.66214747890E+03  0.16500000000E+03 0.  0.
<mgrwt>
<rscale>  0 0.65612330E+03</rscale>
<asrwt>0</asrwt>
<pdfrwt beam="1">  1        2 0.18067910E+00 0.65612330E+03</pdfrwt>
<pdfrwt beam="2">  1       -2 0.14098610E-01 0.65612330E+03</pdfrwt>
<totfact> 0.77111932E+02</totfact>
</mgrwt>
</event>
<event>
 4    1  0.8362047E-005  0.7816129E+03  0.7818608E-02  0.9587020E-01
          2   -1    0    0  501    0  0.00000000000E+00  0.00000000000E+00  0.11331444294E+04  0.11331444294E+04  0.25500000000E-02 0.  1.
         -2   -1    0    0    0  501 -0.00000000000E+00 -0.00000000000E+00 -0.13478394135E+03  0.13478394138E+03  0.25500000000E-02 0. -1.
    5000001    1    1    2    0    0 -0.11779189361E+03  0.32816667796E+03  0.39740288676E+03  0.55382520088E+03  0.16500000000E+03 0.  0.
   -5000001    1    1    2    0    0  0.11779189361E+03 -0.32816667796E+03  0.60095760132E+03  0.71410316993E+03  0.16500000000E+03 0.  0.
<mgrwt>
<rscale>  0 0.78161288E+03</rscale>
<asrwt>0</asrwt>
<pdfrwt beam="1">  1        2 0.17432992E+00 0.78161288E+03</pdfrwt>
<pdfrwt beam="2">  1       -2 0.20735990E-01 0.78161288E+03</pdfrwt>
<totfact> 0.41879805E+02</totfact>
</mgrwt>
</event>
<event>
 4    1  0.8362047E-005  0.5885614E+03  0.7818608E-02  0.9929426E-01
         -2   -1    0    0    0  501 -0.00000000000E+00  0.00000000000E+00  0.35481652363E+03  0.35481652364E+03  0.25500000000E-02 0. -1.
          2   -1    0    0  501    0  0.00000000000E+00 -0.00000000000E+00 -0.24407300279E+03  0.24407300280E+03  0.25500000000E-02 0.  1.
    5000001    1    1    2    0    0  0.58129544523E+02 -0.22771783820E+03  0.12085694010E+03  0.31155394036E+03  0.16500000000E+03 0.  0.
   -5000001    1    1    2    0    0 -0.58129544523E+02  0.22771783820E+03 -0.10113419260E+02  0.28733558609E+03  0.16500000000E+03 0.  0.
<mgrwt>
<rscale>  0 0.58856141E+03</rscale>
<asrwt>0</asrwt>
<pdfrwt beam="1">  1        2 0.37549693E-01 0.58856141E+03</pdfrwt>
<pdfrwt beam="2">  1       -2 0.54587157E-01 0.58856141E+03</pdfrwt>
<totfact> 0.44054230E+02</totfact>
</mgrwt>
</event>
<event>
 4    1  0.8362047E-005  0.4954161E+03  0.7818608E-02  0.1014982E+00
          2   -1    0    0  501    0  0.00000000000E+00  0.00000000000E+00  0.14234005221E+04  0.14234005221E+04  0.25500000000E-02 0.  1.
         -2   -1    0    0    0  501 -0.00000000000E+00 -0.00000000000E+00 -0.43107532506E+02  0.43107532581E+02  0.25500000000E-02 0. -1.
    5000001    1    1    2    0    0 -0.13962624833E+03 -0.76234150064E+02  0.96826158552E+03  0.99501891080E+03  0.16500000000E+03 0.  0.
   -5000001    1    1    2    0    0  0.13962624833E+03  0.76234150064E+02  0.41203140412E+03  0.47148914392E+03  0.16500000000E+03 0.  0.
<mgrwt>
<rscale>  0 0.49541613E+03</rscale>
<asrwt>0</asrwt>
<pdfrwt beam="1">  1        2 0.21898469E+00 0.49541613E+03</pdfrwt>
<pdfrwt beam="2">  1       -2 0.66319284E-02 0.49541613E+03</pdfrwt>
<totfact> 0.18921965E+03</totfact>
</mgrwt>
</event>
<event>
 4    1  0.8362047E-005  0.6733089E+03  0.7818608E-02  0.9763999E-01
          2   -1    0    0  501    0  0.00000000000E+00  0.00000000000E+00  0.22352753107E+04  0.22352753107E+04  0.25500000000E-02 0.  1.
         -2   -1    0    0    0  501 -0.00000000000E+00 -0.00000000000E+00 -0.50703470475E+02  0.50703470539E+02  0.25500000000E-02 0. -1.
    5000001    1    1    2    0    0 -0.25842813609E+02  0.18057099561E+03  0.18727068262E+04  0.18887905105E+04  0.16500000000E+03 0.  0.
   -5000001    1    1    2    0    0  0.25842813609E+02 -0.18057099561E+03  0.31186501397E+03  0.39718827073E+03  0.16500000000E+03 0.  0.
<mgrwt>
<rscale>  0 0.67330889E+03</rscale>
<asrwt>0</asrwt>
<pdfrwt beam="1">  1        2 0.34388852E+00 0.67330889E+03</pdfrwt>
<pdfrwt beam="2">  1       -2 0.78005337E-02 0.67330889E+03</pdfrwt>
<totfact> 0.52360939E+02</totfact>
</mgrwt>
</event>
<event>
 4    1  0.8362047E-005  0.4829694E+03  0.7818608E-02  0.1018322E+00
          2   -1    0    0  501    0  0.00000000000E+00  0.00000000000E+00  0.79895712022E+03  0.79895712022E+03  0.25500000000E-02 0.  1.
         -2   -1    0    0    0  501 -0.00000000000E+00 -0.00000000000E+00 -0.72988736249E+02  0.72988736294E+02  0.25500000000E-02 0. -1.
    5000001    1    1    2    0    0 -0.14456744427E+03 -0.39666937764E+02  0.53057079926E+03  0.57550289741E+03  0.16500000000E+03 0.  0.
   -5000001    1    1    2    0    0  0.14456744427E+03  0.39666937764E+02  0.19539758470E+03  0.29644295910E+03  0.16500000000E+03 0.  0.
<mgrwt>
<rscale>  0 0.48296944E+03</rscale>
<asrwt>0</asrwt>
<pdfrwt beam="1">  1        2 0.12291649E+00 0.48296944E+03</pdfrwt>
<pdfrwt beam="2">  1       -2 0.11229035E-01 0.48296944E+03</pdfrwt>
<totfact> 0.19621624E+03</totfact>
</mgrwt>
</event>
<event>
 4    1  0.8362047E-005  0.3554066E+03  0.7818608E-02  0.1060418E+00
         -2   -1    0    0    0  501 -0.00000000000E+00  0.00000000000E+00  0.36987680077E+02  0.36987680165E+02  0.25500000000E-02 0. -1.
          2   -1    0    0  501    0  0.00000000000E+00 -0.00000000000E+00 -0.85375645253E+03  0.85375645253E+03  0.25500000000E-02 0.  1.
    5000001    1    1    2    0    0  0.65613880381E+02 -0.23080023196E+00 -0.42579095157E+03  0.46133303481E+03  0.16500000000E+03 0.  0.
   -5000001    1    1    2    0    0 -0.65613880381E+02  0.23080023196E+00 -0.39097782088E+03  0.42941109789E+03  0.16500000000E+03 0.  0.
<mgrwt>
<rscale>  0 0.35540664E+03</rscale>
<asrwt>0</asrwt>
<pdfrwt beam="1">  1        2 0.13134713E+00 0.35540664E+03</pdfrwt>
<pdfrwt beam="2">  1       -2 0.56904130E-02 0.35540664E+03</pdfrwt>
<totfact> 0.52574788E+03</totfact>
</mgrwt>
</event>
<event>
 4    1  0.8362047E-005  0.6103395E+03  0.7818608E-02  0.9884184E-01
         -2   -1    0    0    0  501 -0.00000000000E+00  0.00000000000E+00  0.15794245113E+03  0.15794245115E+03  0.25500000000E-02 0. -1.
          2   -1    0    0  501    0  0.00000000000E+00 -0.00000000000E+00 -0.58963616321E+03  0.58963616322E+03  0.25500000000E-02 0.  1.
    5000001    1    1    2    0    0 -0.13207468334E+03  0.86845930761E+02  0.31918560405E+02  0.23071569554E+03  0.16500000000E+03 0.  0.
   -5000001    1    1    2    0    0  0.13207468334E+03 -0.86845930761E+02 -0.46361227248E+03  0.51686291884E+03  0.16500000000E+03 0.  0.
<mgrwt>
<rscale>  0 0.61033952E+03</rscale>
<asrwt>0</asrwt>
<pdfrwt beam="1">  1        2 0.90713255E-01 0.61033952E+03</pdfrwt>
<pdfrwt beam="2">  1       -2 0.24298839E-01 0.61033952E+03</pdfrwt>
<totfact> 0.76819865E+02</totfact>
</mgrwt>
</event>
<event>
 4    1  0.8362047E-005  0.6925730E+03  0.7818608E-02  0.9730018E-01
          2   -1    0    0  501    0  0.00000000000E+00  0.00000000000E+00  0.15786589509E+03  0.15786589511E+03  0.25500000000E-02 0.  1.
         -2   -1    0    0    0  501 -0.00000000000E+00 -0.00000000000E+00 -0.75959615208E+03  0.75959615208E+03  0.25500000000E-02 0. -1.
    5000001    1    1    2    0    0  0.18416512744E+03 -0.14921774418E+03 -0.47755741250E+02  0.29272570807E+03  0.16500000000E+03 0.  0.
   -5000001    1    1    2    0    0 -0.18416512744E+03  0.14921774418E+03 -0.55397451573E+03  0.62473633913E+03  0.16500000000E+03 0.  0.
<mgrwt>
<rscale>  0 0.69257296E+03</rscale>
<asrwt>0</asrwt>
<pdfrwt beam="1">  1        2 0.24287061E-01 0.69257296E+03</pdfrwt>
<pdfrwt beam="2">  1       -2 0.11686094E+00 0.69257296E+03</pdfrwt>
<totfact> 0.12988233E+02</totfact>
</mgrwt>
</event>
<event>
 4    1  0.8362047E-005  0.4838577E+03  0.7818608E-02  0.1018080E+00
          2   -1    0    0  501    0  0.00000000000E+00  0.00000000000E+00  0.40137295304E+04  0.40137295304E+04  0.25500000000E-02 0.  1.
         -2   -1    0    0    0  501 -0.00000000000E+00 -0.00000000000E+00 -0.14582338356E+02  0.14582338579E+02  0.25500000000E-02 0. -1.
    5000001    1    1    2    0    0  0.14784325198E+03 -0.49685125202E+02  0.26950477696E+04  0.27045949270E+04  0.16500000000E+03 0.  0.
   -5000001    1    1    2    0    0 -0.14784325198E+03  0.49685125202E+02  0.13040994224E+04  0.13237169420E+04  0.16500000000E+03 0.  0.
<mgrwt>
<rscale>  0 0.48385768E+03</rscale>
<asrwt>0</asrwt>
<pdfrwt beam="1">  1        2 0.61749679E+00 0.48385768E+03</pdfrwt>
<pdfrwt beam="2">  1       -2 0.22434369E-02 0.48385768E+03</pdfrwt>
<totfact> 0.26996553E+02</totfact>
</mgrwt>
</event>
<event>
 4    1  0.8362047E-005  0.8385751E+03  0.7818608E-02  0.9505801E-01
         -2   -1    0    0    0  501 -0.00000000000E+00  0.00000000000E+00  0.13003899890E+03  0.13003899893E+03  0.25500000000E-02 0. -1.
          2   -1    0    0  501    0  0.00000000000E+00 -0.00000000000E+00 -0.13519179936E+04  0.13519179936E+04  0.25500000000E-02 0.  1.
    5000001    1    1    2    0    0 -0.28923954305E+03 -0.23490758022E+03 -0.43656482136E+03  0.59720593413E+03  0.16500000000E+03 0.  0.
   -5000001    1    1    2    0    0  0.28923954305E+03  0.23490758022E+03 -0.78531417337E+03  0.88475105844E+03  0.16500000000E+03 0.  0.
<mgrwt>
<rscale>  0 0.83857513E+03</rscale>
<asrwt>0</asrwt>
<pdfrwt beam="1">  1        2 0.20798737E+00 0.83857513E+03</pdfrwt>
<pdfrwt beam="2">  1       -2 0.20006001E-01 0.83857513E+03</pdfrwt>
<totfact> 0.33084953E+02</totfact>
</mgrwt>
</event>
<event>
 4    1  0.8362047E-005  0.4993004E+03  0.7818608E-02  0.1013962E+00
         -2   -1    0    0    0  501 -0.00000000000E+00  0.00000000000E+00  0.12283091068E+03  0.12283091070E+03  0.25500000000E-02 0. -1.
          2   -1    0    0  501    0  0.00000000000E+00 -0.00000000000E+00 -0.50740676130E+03  0.50740676130E+03  0.25500000000E-02 0.  1.
    5000001    1    1    2    0    0  0.14212309171E+03 -0.11973685135E+03 -0.16230211239E+03  0.29682126348E+03  0.16500000000E+03 0.  0.
   -5000001    1    1    2    0    0 -0.14212309171E+03  0.11973685135E+03 -0.22227373822E+03  0.33341640852E+03  0.16500000000E+03 0.  0.
<mgrwt>
<rscale>  0 0.49930045E+03</rscale>
<asrwt>0</asrwt>
<pdfrwt beam="1">  1        2 0.78062578E-01 0.49930045E+03</pdfrwt>
<pdfrwt beam="2">  1       -2 0.18897063E-01 0.49930045E+03</pdfrwt>
<totfact> 0.14255896E+03</totfact>
</mgrwt>
</event>
<event>
 4    1  0.8362047E-005  0.6002766E+03  0.7818608E-02  0.9904832E-01
          2   -1    0    0  501    0  0.00000000000E+00  0.00000000000E+00  0.27321107101E+03  0.27321107103E+03  0.25500000000E-02 0.  1.
         -2   -1    0    0    0  501 -0.00000000000E+00 -0.00000000000E+00 -0.32971941616E+03  0.32971941617E+03  0.25500000000E-02 0. -1.
    5000001    1    1    2    0    0  0.62529021282E+02  0.23738842164E+03  0.22910744060E+02  0.29666992336E+03  0.16500000000E+03 0.  0.
   -5000001    1    1    2    0    0 -0.62529021282E+02 -0.23738842164E+03 -0.79419089208E+02  0.30626056384E+03  0.16500000000E+03 0.  0.
<mgrwt>
<rscale>  0 0.60027659E+03</rscale>
<asrwt>0</asrwt>
<pdfrwt beam="1">  1        2 0.42032472E-01 0.60027659E+03</pdfrwt>
<pdfrwt beam="2">  1       -2 0.50726064E-01 0.60027659E+03</pdfrwt>
<totfact> 0.45177787E+02</totfact>
</mgrwt>
</event>
<event>
 4    1  0.8362047E-005  0.1090792E+04  0.7818608E-02  0.9214214E-01
         -2   -1    0    0    0  501 -0.00000000000E+00  0.00000000000E+00  0.19597345283E+03  0.19597345284E+03  0.25500000000E-02 0. -1.
          2   -1    0    0  501    0  0.00000000000E+00 -0.00000000000E+00 -0.15178409679E+04  0.15178409679E+04  0.25500000000E-02 0.  1.
    5000001    1    1    2    0    0  0.49174382320E+03  0.51729206006E+02 -0.91302455411E+03  0.10513452025E+04  0.16500000000E+03 0.  0.
   -5000001    1    1    2    0    0 -0.49174382320E+03 -0.51729206006E+02 -0.40884296099E+03  0.66246921827E+03  0.16500000000E+03 0.  0.
<mgrwt>
<rscale>  0 0.10907915E+04</rscale>
<asrwt>0</asrwt>
<pdfrwt beam="1">  1        2 0.23351399E+00 0.10907915E+04</pdfrwt>
<pdfrwt beam="2">  1       -2 0.30149763E-01 0.10907915E+04</pdfrwt>
<totfact> 0.12508154E+02</totfact>
</mgrwt>
</event>
<event>
 4    1  0.8362047E-005  0.5785460E+03  0.7818608E-02  0.9950944E-01
         -2   -1    0    0    0  501 -0.00000000000E+00  0.00000000000E+00  0.43346310465E+02  0.43346310540E+02  0.25500000000E-02 0. -1.
          2   -1    0    0  501    0  0.00000000000E+00 -0.00000000000E+00 -0.19304727271E+04  0.19304727271E+04  0.25500000000E-02 0.  1.
    5000001    1    1    2    0    0  0.15483790647E+03 -0.17669994971E+03 -0.10644843985E+04  0.11025196979E+04  0.16500000000E+03 0.  0.
   -5000001    1    1    2    0    0 -0.15483790647E+03  0.17669994971E+03 -0.82264201811E+03  0.87129933976E+03  0.16500000000E+03 0.  0.
<mgrwt>
<rscale>  0 0.57854601E+03</rscale>
<asrwt>0</asrwt>
<pdfrwt beam="1">  1        2 0.29699574E+00 0.57854601E+03</pdfrwt>
<pdfrwt beam="2">  1       -2 0.66686647E-02 0.57854601E+03</pdfrwt>
<totfact> 0.99058787E+02</totfact>
</mgrwt>
</event>
<event>
 4    1  0.8362047E-005  0.5209612E+03  0.7818608E-02  0.1008448E+00
         -2   -1    0    0    0  501 -0.00000000000E+00  0.00000000000E+00  0.35871844309E+02  0.35871844400E+02  0.25500000000E-02 0. -1.
          2   -1    0    0  501    0  0.00000000000E+00 -0.00000000000E+00 -0.18914598906E+04  0.18914598906E+04  0.25500000000E-02 0.  1.
    5000001    1    1    2    0    0 -0.15743034192E+03 -0.11393298829E+03 -0.72994089946E+03  0.77317769955E+03  0.16500000000E+03 0.  0.
   -5000001    1    1    2    0    0  0.15743034192E+03  0.11393298829E+03 -0.11256471468E+04  0.11541540355E+04  0.16500000000E+03 0.  0.
<mgrwt>
<rscale>  0 0.52096125E+03</rscale>
<asrwt>0</asrwt>
<pdfrwt beam="1">  1        2 0.29099375E+00 0.52096125E+03</pdfrwt>
<pdfrwt beam="2">  1       -2 0.55187468E-02 0.52096125E+03</pdfrwt>
<totfact> 0.14027992E+03</totfact>
</mgrwt>
</event>
<event>
 4    1  0.8362047E-005  0.9977640E+03  0.7818608E-02  0.9311001E-01
          2   -1    0    0  501    0  0.00000000000E+00  0.00000000000E+00  0.88725116742E+03  0.88725116742E+03  0.25500000000E-02 0.  1.
         -2   -1    0    0    0  501 -0.00000000000E+00 -0.00000000000E+00 -0.28051049703E+03  0.28051049704E+03  0.25500000000E-02 0. -1.
    5000001    1    1    2    0    0 -0.26354647955E+03  0.36493333554E+03  0.14193791655E+03  0.50000445840E+03  0.16500000000E+03 0.  0.
   -5000001    1    1    2    0    0  0.26354647955E+03 -0.36493333554E+03  0.46480275384E+03  0.66775720606E+03  0.16500000000E+03 0.  0.
<mgrwt>
<rscale>  0 0.99776403E+03</rscale>
<asrwt>0</asrwt>
<pdfrwt beam="1">  1        2 0.13650018E+00 0.99776403E+03</pdfrwt>
<pdfrwt beam="2">  1       -2 0.43155462E-01 0.99776403E+03</pdfrwt>
<totfact> 0.15197528E+02</totfact>
</mgrwt>
</event>
<event>
 4    1  0.8362047E-005  0.6254832E+03  0.7818608E-02  0.9853903E-01
         -2   -1    0    0    0  501 -0.00000000000E+00  0.00000000000E+00  0.37439199611E+02  0.37439199698E+02  0.25500000000E-02 0. -1.
          2   -1    0    0  501    0  0.00000000000E+00 -0.00000000000E+00 -0.26124308502E+04  0.26124308502E+04  0.25500000000E-02 0.  1.
    5000001    1    1    2    0    0 -0.23952120637E+03  0.10953714407E+03 -0.14350778406E+04  0.14683467583E+04  0.16500000000E+03 0.  0.
   -5000001    1    1    2    0    0  0.23952120637E+03 -0.10953714407E+03 -0.11399138101E+04  0.11815232916E+04  0.16500000000E+03 0.  0.
<mgrwt>
<rscale>  0 0.62548324E+03</rscale>
<asrwt>0</asrwt>
<pdfrwt beam="1">  1        2 0.40191229E+00 0.62548324E+03</pdfrwt>
<pdfrwt beam="2">  1       -2 0.57598789E-02 0.62548324E+03</pdfrwt>
<totfact> 0.52184926E+02</totfact>
</mgrwt>
</event>
<event>
 4    1  0.8362047E-005  0.9025222E+03  0.7818608E-02  0.9422434E-01
         -2   -1    0    0    0  501 -0.00000000000E+00  0.00000000000E+00  0.17388660680E+03  0.17388660682E+03  0.25500000000E-02 0. -1.
          2   -1    0    0  501    0  0.00000000000E+00 -0.00000000000E+00 -0.11710883203E+04  0.11710883203E+04  0.25500000000E-02 0.  1.
    5000001    1    1    2    0    0 -0.15099468208E+03 -0.32233565522E+03 -0.16633439461E+03  0.42613589320E+03  0.16500000000E+03 0.  0.
   -5000001    1    1    2    0    0  0.15099468208E+03  0.32233565522E+03 -0.83086731884E+03  0.91883903387E+03  0.16500000000E+03 0.  0.
<mgrwt>
<rscale>  0 0.90252219E+03</rscale>
<asrwt>0</asrwt>
<pdfrwt beam="1">  1        2 0.18016743E+00 0.90252219E+03</pdfrwt>
<pdfrwt beam="2">  1       -2 0.26751786E-01 0.90252219E+03</pdfrwt>
<totfact> 0.25017674E+02</totfact>
</mgrwt>
</event>
<event>
 4    1  0.8362047E-005  0.4353447E+03  0.7818608E-02  0.1032185E+00
         -2   -1    0    0    0  501 -0.00000000000E+00  0.00000000000E+00  0.46540591660E+02  0.46540591730E+02  0.25500000000E-02 0. -1.
          2   -1    0    0  501    0  0.00000000000E+00 -0.00000000000E+00 -0.10180628046E+04  0.10180628046E+04  0.25500000000E-02 0.  1.
    5000001    1    1    2    0    0  0.10845877483E+03 -0.85674482745E+02 -0.56510841340E+03  0.60471145328E+03  0.16500000000E+03 0.  0.
   -5000001    1    1    2    0    0 -0.10845877483E+03  0.85674482745E+02 -0.40641379957E+03  0.45989194308E+03  0.16500000000E+03 0.  0.
<mgrwt>
<rscale>  0 0.43534467E+03</rscale>
<asrwt>0</asrwt>
<pdfrwt beam="1">  1        2 0.15662503E+00 0.43534467E+03</pdfrwt>
<pdfrwt beam="2">  1       -2 0.71600918E-02 0.43534467E+03</pdfrwt>
<totfact> 0.28877211E+03</totfact>
</mgrwt>
</event>
<event>
 4    1  0.8362047E-005  0.8553103E+03  0.7818608E-02  0.9483237E-01
         -2   -1    0    0    0  501 -0.00000000000E+00  0.00000000000E+00  0.10668951182E+03  0.10668951185E+03  0.25500000000E-02 0. -1.
          2   -1    0    0  501    0  0.00000000000E+00 -0.00000000000E+00 -0.17142166018E+04  0.17142166018E+04  0.25500000000E-02 0.  1.
    5000001    1    1    2    0    0  0.31661204510E+03 -0.23408175359E+03 -0.85704998986E+03  0.95749524259E+03  0.16500000000E+03 0.  0.
   -5000001    1    1    2    0    0 -0.31661204510E+03  0.23408175359E+03 -0.75047710009E+03  0.86341087103E+03  0.16500000000E+03 0.  0.
<mgrwt>
<rscale>  0 0.85531031E+03</rscale>
<asrwt>0</asrwt>
<pdfrwt beam="1">  1        2 0.26372561E+00 0.85531031E+03</pdfrwt>
<pdfrwt beam="2">  1       -2 0.16413772E-01 0.85531031E+03</pdfrwt>
<totfact> 0.29227978E+02</totfact>
</mgrwt>
</event>
<event>
 4    1  0.8362047E-005  0.3807635E+03  0.7818608E-02  0.1050652E+00
         -2   -1    0    0    0  501 -0.00000000000E+00  0.00000000000E+00  0.76424873522E+02  0.76424873564E+02  0.25500000000E-02 0. -1.
          2   -1    0    0  501    0  0.00000000000E+00 -0.00000000000E+00 -0.47425924575E+03  0.47425924575E+03  0.25500000000E-02 0.  1.
    5000001    1    1    2    0    0 -0.52460310552E+02 -0.27964531551E+02 -0.91795032660E+02  0.19795309351E+03  0.16500000000E+03 0.  0.
   -5000001    1    1    2    0    0  0.52460310552E+02  0.27964531551E+02 -0.30603933956E+03  0.35273102581E+03  0.16500000000E+03 0.  0.
<mgrwt>
<rscale>  0 0.38076346E+03</rscale>
<asrwt>0</asrwt>
<pdfrwt beam="1">  1        2 0.72962959E-01 0.38076346E+03</pdfrwt>
<pdfrwt beam="2">  1       -2 0.11757673E-01 0.38076346E+03</pdfrwt>
<totfact> 0.33947566E+03</totfact>
</mgrwt>
</event>
<event>
 4    1  0.8362047E-005  0.5811857E+03  0.7818608E-02  0.9945227E-01
         -2   -1    0    0    0  501 -0.00000000000E+00  0.00000000000E+00  0.14509728114E+03  0.14509728116E+03  0.25500000000E-02 0. -1.
          2   -1    0    0  501    0  0.00000000000E+00 -0.00000000000E+00 -0.58198338249E+03  0.58198338250E+03  0.25500000000E-02 0.  1.
    5000001    1    1    2    0    0  0.16867762568E+03  0.84665147023E+02 -0.34584740189E+02  0.25306408829E+03  0.16500000000E+03 0.  0.
   -5000001    1    1    2    0    0 -0.16867762568E+03 -0.84665147023E+02 -0.40230136117E+03  0.47401657537E+03  0.16500000000E+03 0.  0.
<mgrwt>
<rscale>  0 0.58118571E+03</rscale>
<asrwt>0</asrwt>
<pdfrwt beam="1">  1        2 0.89535904E-01 0.58118571E+03</pdfrwt>
<pdfrwt beam="2">  1       -2 0.22322659E-01 0.58118571E+03</pdfrwt>
<totfact> 0.90773898E+02</totfact>
</mgrwt>
</event>
<event>
 4    1  0.8362047E-005  0.4541643E+03  0.7818608E-02  0.1026487E+00
         -2   -1    0    0    0  501 -0.00000000000E+00  0.00000000000E+00  0.13831722239E+03  0.13831722242E+03  0.25500000000E-02 0. -1.
          2   -1    0    0  501    0  0.00000000000E+00 -0.00000000000E+00 -0.37281187915E+03  0.37281187916E+03  0.25500000000E-02 0.  1.
    5000001    1    1    2    0    0  0.36483460568E+02  0.10345726820E+03 -0.24209807477E+03  0.31284329471E+03  0.16500000000E+03 0.  0.
   -5000001    1    1    2    0    0 -0.36483460568E+02 -0.10345726820E+03  0.76034180144E+01  0.19828580687E+03  0.16500000000E+03 0.  0.
<mgrwt>
<rscale>  0 0.45416430E+03</rscale>
<asrwt>0</asrwt>
<pdfrwt beam="1">  1        2 0.57355673E-01 0.45416430E+03</pdfrwt>
<pdfrwt beam="2">  1       -2 0.21279573E-01 0.45416430E+03</pdfrwt>
<totfact> 0.16389311E+03</totfact>
</mgrwt>
</event>
<event>
 4    1  0.8362047E-005  0.5444298E+03  0.7818608E-02  0.1002791E+00
         -2   -1    0    0    0  501 -0.00000000000E+00  0.00000000000E+00  0.67745588697E+02  0.67745588745E+02  0.25500000000E-02 0. -1.
          2   -1    0    0  501    0  0.00000000000E+00 -0.00000000000E+00 -0.10938123782E+04  0.10938123782E+04  0.25500000000E-02 0.  1.
    5000001    1    1    2    0    0  0.97684858461E+01  0.21549780183E+03 -0.47362149168E+03  0.54596432420E+03  0.16500000000E+03 0.  0.
   -5000001    1    1    2    0    0 -0.97684858461E+01 -0.21549780183E+03 -0.55244529780E+03  0.61559364273E+03  0.16500000000E+03 0.  0.
<mgrwt>
<rscale>  0 0.54442984E+03</rscale>
<asrwt>0</asrwt>
<pdfrwt beam="1">  1        2 0.16827881E+00 0.54442984E+03</pdfrwt>
<pdfrwt beam="2">  1       -2 0.10422399E-01 0.54442984E+03</pdfrwt>
<totfact> 0.14235660E+03</totfact>
</mgrwt>
</event>
<event>
 4    1  0.8362047E-005  0.5061274E+03  0.7818608E-02  0.1012192E+00
         -2   -1    0    0    0  501 -0.00000000000E+00  0.00000000000E+00  0.64388225438E+02  0.64388225489E+02  0.25500000000E-02 0. -1.
          2   -1    0    0  501    0  0.00000000000E+00 -0.00000000000E+00 -0.99461114494E+03  0.99461114494E+03  0.25500000000E-02 0.  1.
    5000001    1    1    2    0    0 -0.46629934733E+02 -0.15579288000E+03 -0.67818775099E+03  0.71666547138E+03  0.16500000000E+03 0.  0.
   -5000001    1    1    2    0    0  0.46629934733E+02  0.15579288000E+03 -0.25203516851E+03  0.34233389905E+03  0.16500000000E+03 0.  0.
<mgrwt>
<rscale>  0 0.50612744E+03</rscale>
<asrwt>0</asrwt>
<pdfrwt beam="1">  1        2 0.15301709E+00 0.50612744E+03</pdfrwt>
<pdfrwt beam="2">  1       -2 0.99058815E-02 0.50612744E+03</pdfrwt>
<totfact> 0.17811578E+03</totfact>
</mgrwt>
</event>
<event>
 4    1  0.8362047E-005  0.3902489E+03  0.7818608E-02  0.1047209E+00
          2   -1    0    0  501    0  0.00000000000E+00  0.00000000000E+00  0.60326333786E+03  0.60326333787E+03  0.25500000000E-02 0.  1.
         -2   -1    0    0    0  501 -0.00000000000E+00 -0.00000000000E+00 -0.63112654415E+02  0.63112654467E+02  0.25500000000E-02 0. -1.
    5000001    1    1    2    0    0  0.82088356996E+02 -0.29055335157E+02  0.36765854964E+03  0.41228693889E+03  0.16500000000E+03 0.  0.
   -5000001    1    1    2    0    0 -0.82088356996E+02  0.29055335157E+02  0.17249213381E+03  0.25408905345E+03  0.16500000000E+03 0.  0.
<mgrwt>
<rscale>  0 0.39024890E+03</rscale>
<asrwt>0</asrwt>
<pdfrwt beam="1">  1        2 0.92809739E-01 0.39024890E+03</pdfrwt>
<pdfrwt beam="2">  1       -2 0.97096397E-02 0.39024890E+03</pdfrwt>
<totfact> 0.35068914E+03</totfact>
</mgrwt>
</event>
<event>
 4    1  0.8362047E-005  0.4407452E+03  0.7818608E-02  0.1030518E+00
         -2   -1    0    0    0  501 -0.00000000000E+00  0.00000000000E+00  0.29861844087E+02  0.29861844196E+02  0.25500000000E-02 0. -1.
          2   -1    0    0  501    0  0.00000000000E+00 -0.00000000000E+00 -0.16262924421E+04  0.16262924421E+04  0.25500000000E-02 0.  1.
    5000001    1    1    2    0    0 -0.11150235503E+03 -0.94373094191E+02 -0.79750878417E+03  0.82739610641E+03  0.16500000000E+03 0.  0.
   -5000001    1    1    2    0    0  0.11150235503E+03  0.94373094191E+02 -0.79892181383E+03  0.82875817986E+03  0.16500000000E+03 0.  0.
<mgrwt>
<rscale>  0 0.44074524E+03</rscale>
<asrwt>0</asrwt>
<pdfrwt beam="1">  1        2 0.25019877E+00 0.44074524E+03</pdfrwt>
<pdfrwt beam="2">  1       -2 0.45941311E-02 0.44074524E+03</pdfrwt>
<totfact> 0.25945122E+03</totfact>
</mgrwt>
</event>
<event>
 4    1  0.8362047E-005  0.5297200E+03  0.7818608E-02  0.1006300E+00
          2   -1    0    0  501    0  0.00000000000E+00  0.00000000000E+00  0.73536685135E+03  0.73536685136E+03  0.25500000000E-02 0.  1.
         -2   -1    0    0    0  501 -0.00000000000E+00 -0.00000000000E+00 -0.95395678238E+02  0.95395678272E+02  0.25500000000E-02 0. -1.
    5000001    1    1    2    0    0  0.10161212261E+03  0.17400989816E+03  0.24442401585E+03  0.35717302200E+03  0.16500000000E+03 0.  0.
   -5000001    1    1    2    0    0 -0.10161212261E+03 -0.17400989816E+03  0.39554715726E+03  0.47358950763E+03  0.16500000000E+03 0.  0.
<mgrwt>
<rscale>  0 0.52972000E+03</rscale>
<asrwt>0</asrwt>
<pdfrwt beam="1">  1        2 0.11313336E+00 0.52972000E+03</pdfrwt>
<pdfrwt beam="2">  1       -2 0.14676258E-01 0.52972000E+03</pdfrwt>
<totfact> 0.14023677E+03</totfact>
</mgrwt>
</event>
<event>
 4    1  0.8362047E-005  0.5023248E+03  0.7818608E-02  0.1013174E+00
          2   -1    0    0  501    0  0.00000000000E+00  0.00000000000E+00  0.20351442602E+03  0.20351442603E+03  0.25500000000E-02 0.  1.
         -2   -1    0    0    0  501 -0.00000000000E+00 -0.00000000000E+00 -0.30996594906E+03  0.30996594907E+03  0.25500000000E-02 0. -1.
    5000001    1    1    2    0    0  0.16659357923E+03 -0.64710804979E+02 -0.11719861405E+03  0.27000263713E+03  0.16500000000E+03 0.  0.
   -5000001    1    1    2    0    0 -0.16659357923E+03  0.64710804979E+02  0.10747091009E+02  0.24347773797E+03  0.16500000000E+03 0.  0.
<mgrwt>
<rscale>  0 0.50232476E+03</rscale>
<asrwt>0</asrwt>
<pdfrwt beam="1">  1        2 0.31309912E-01 0.50232476E+03</pdfrwt>
<pdfrwt beam="2">  1       -2 0.47687069E-01 0.50232476E+03</pdfrwt>
<totfact> 0.71035847E+02</totfact>
</mgrwt>
</event>
<event>
 4    1  0.8362047E-005  0.6101101E+03  0.7818608E-02  0.9884650E-01
         -2   -1    0    0    0  501 -0.00000000000E+00  0.00000000000E+00  0.44633452926E+03  0.44633452927E+03  0.25500000000E-02 0. -1.
          2   -1    0    0  501    0  0.00000000000E+00 -0.00000000000E+00 -0.20849514973E+03  0.20849514975E+03  0.25500000000E-02 0.  1.
    5000001    1    1    2    0    0  0.22735292900E+03  0.11821867860E+03  0.13285497052E+03  0.33247624499E+03  0.16500000000E+03 0.  0.
   -5000001    1    1    2    0    0 -0.22735292900E+03 -0.11821867860E+03  0.10498440901E+03  0.32235343403E+03  0.16500000000E+03 0.  0.
<mgrwt>
<rscale>  0 0.61011010E+03</rscale>
<asrwt>0</asrwt>
<pdfrwt beam="1">  1        2 0.32076177E-01 0.61011010E+03</pdfrwt>
<pdfrwt beam="2">  1       -2 0.68666851E-01 0.61011010E+03</pdfrwt>
<totfact> 0.32319170E+02</totfact>
</mgrwt>
</event>
<event>
 4    1  0.8362047E-005  0.7377359E+03  0.7818608E-02  0.9654790E-01
         -2   -1    0    0    0  501 -0.00000000000E+00  0.00000000000E+00  0.75191898263E+02  0.75191898306E+02  0.25500000000E-02 0. -1.
          2   -1    0    0  501    0  0.00000000000E+00 -0.00000000000E+00 -0.18095509731E+04  0.18095509731E+04  0.25500000000E-02 0.  1.
    5000001    1    1    2    0    0  0.15101677788E+03 -0.23461204759E+03 -0.41744130057E+03  0.52851785163E+03  0.16500000000E+03 0.  0.
   -5000001    1    1    2    0    0 -0.15101677788E+03  0.23461204759E+03 -0.13169177743E+04  0.13562250198E+04  0.16500000000E+03 0.  0.
<mgrwt>
<rscale>  0 0.73773592E+03</rscale>
<asrwt>0</asrwt>
<pdfrwt beam="1">  1        2 0.27839242E+00 0.73773592E+03</pdfrwt>
<pdfrwt beam="2">  1       -2 0.11567986E-01 0.73773592E+03</pdfrwt>
<totfact> 0.46998701E+02</totfact>
</mgrwt>
</event>
<event>
 4    1  0.8362047E-005  0.5428728E+03  0.7818608E-02  0.1003157E+00
          2   -1    0    0  501    0  0.00000000000E+00  0.00000000000E+00  0.30963223142E+04  0.30963223142E+04  0.25500000000E-02 0.  1.
         -2   -1    0    0    0  501 -0.00000000000E+00 -0.00000000000E+00 -0.23795237999E+02  0.23795238136E+02  0.25500000000E-02 0. -1.
    5000001    1    1    2    0    0  0.46677402729E+02  0.19551454529E+03  0.19832342600E+04  0.20002119506E+04  0.16500000000E+03 0.  0.
   -5000001    1    1    2    0    0 -0.46677402729E+02 -0.19551454529E+03  0.10892928162E+04  0.11199056018E+04  0.16500000000E+03 0.  0.
<mgrwt>
<rscale>  0 0.54287283E+03</rscale>
<asrwt>0</asrwt>
<pdfrwt beam="1">  1        2 0.47635674E+00 0.54287283E+03</pdfrwt>
<pdfrwt beam="2">  1       -2 0.36608100E-02 0.54287283E+03</pdfrwt>
<totfact> 0.54779913E+02</totfact>
</mgrwt>
</event>
<event>
 4    1  0.8362047E-005  0.6059493E+03  0.7818608E-02  0.9893139E-01
          2   -1    0    0  501    0  0.00000000000E+00  0.00000000000E+00  0.45099042044E+03  0.45099042045E+03  0.25500000000E-02 0.  1.
         -2   -1    0    0    0  501 -0.00000000000E+00 -0.00000000000E+00 -0.20353788534E+03  0.20353788535E+03  0.25500000000E-02 0. -1.
    5000001    1    1    2    0    0 -0.65104753084E+02  0.23718372516E+03  0.54782232203E+02  0.30119900617E+03  0.16500000000E+03 0.  0.
   -5000001    1    1    2    0    0  0.65104753084E+02 -0.23718372516E+03  0.19267030290E+03  0.35332929963E+03  0.16500000000E+03 0.  0.
<mgrwt>
<rscale>  0 0.60594929E+03</rscale>
<asrwt>0</asrwt>
<pdfrwt beam="1">  1        2 0.69383141E-01 0.60594929E+03</pdfrwt>
<pdfrwt beam="2">  1       -2 0.31313521E-01 0.60594929E+03</pdfrwt>
<totfact> 0.66026981E+02</totfact>
</mgrwt>
</event>
<event>
 4    1  0.8362047E-005  0.3980637E+03  0.7818608E-02  0.1044452E+00
         -2   -1    0    0    0  501 -0.00000000000E+00  0.00000000000E+00  0.17687181368E+03  0.17687181370E+03  0.25500000000E-02 0. -1.
          2   -1    0    0  501    0  0.00000000000E+00 -0.00000000000E+00 -0.22396827110E+03  0.22396827111E+03  0.25500000000E-02 0.  1.
    5000001    1    1    2    0    0 -0.38191967076E+02  0.49136622255E+02 -0.11647208859E+03  0.21133807375E+03  0.16500000000E+03 0.  0.
   -5000001    1    1    2    0    0  0.38191967076E+02 -0.49136622255E+02  0.69375631173E+02  0.18950201106E+03  0.16500000000E+03 0.  0.
<mgrwt>
<rscale>  0 0.39806368E+03</rscale>
<asrwt>0</asrwt>
<pdfrwt beam="1">  1        2 0.34456657E-01 0.39806368E+03</pdfrwt>
<pdfrwt beam="2">  1       -2 0.27211048E-01 0.39806368E+03</pdfrwt>
<totfact> 0.18500358E+03</totfact>
</mgrwt>
</event>
<event>
 4    1  0.8362047E-005  0.4301873E+03  0.7818608E-02  0.1033801E+00
          2   -1    0    0  501    0  0.00000000000E+00  0.00000000000E+00  0.47309205575E+03  0.47309205576E+03  0.25500000000E-02 0.  1.
         -2   -1    0    0    0  501 -0.00000000000E+00 -0.00000000000E+00 -0.97793405285E+02  0.97793405318E+02  0.25500000000E-02 0. -1.
    5000001    1    1    2    0    0 -0.10449893234E+02  0.13759012414E+03  0.18738183824E+03  0.28526688527E+03  0.16500000000E+03 0.  0.
   -5000001    1    1    2    0    0  0.10449893234E+02 -0.13759012414E+03  0.18791681223E+03  0.28561857581E+03  0.16500000000E+03 0.  0.
<mgrwt>
<rscale>  0 0.43018732E+03</rscale>
<asrwt>0</asrwt>
<pdfrwt beam="1">  1        2 0.72783392E-01 0.43018732E+03</pdfrwt>
<pdfrwt beam="2">  1       -2 0.15045139E-01 0.43018732E+03</pdfrwt>
<totfact> 0.22710548E+03</totfact>
</mgrwt>
</event>
<event>
 4    1  0.8362047E-005  0.5418324E+03  0.7818608E-02  0.1003402E+00
         -2   -1    0    0    0  501 -0.00000000000E+00  0.00000000000E+00  0.31080696091E+03  0.31080696092E+03  0.25500000000E-02 0. -1.
          2   -1    0    0  501    0  0.00000000000E+00 -0.00000000000E+00 -0.23614523186E+03  0.23614523188E+03  0.25500000000E-02 0.  1.
    5000001    1    1    2    0    0 -0.14281889977E+03 -0.82871732681E+02 -0.10146606905E+03  0.25452961591E+03  0.16500000000E+03 0.  0.
   -5000001    1    1    2    0    0  0.14281889977E+03  0.82871732681E+02  0.17612779810E+03  0.29242257688E+03  0.16500000000E+03 0.  0.
<mgrwt>
<rscale>  0 0.54183238E+03</rscale>
<asrwt>0</asrwt>
<pdfrwt beam="1">  1        2 0.36330036E-01 0.54183238E+03</pdfrwt>
<pdfrwt beam="2">  1       -2 0.47816455E-01 0.54183238E+03</pdfrwt>
<totfact> 0.59863852E+02</totfact>
</mgrwt>
</event>
<event>
 4    1  0.8362047E-005  0.4763697E+03  0.7818608E-02  0.1020138E+00
         -2   -1    0    0    0  501 -0.00000000000E+00  0.00000000000E+00  0.14391555698E+03  0.14391555700E+03  0.25500000000E-02 0. -1.
          2   -1    0    0  501    0  0.00000000000E+00 -0.00000000000E+00 -0.39420356128E+03  0.39420356129E+03  0.25500000000E-02 0.  1.
    5000001    1    1    2    0    0  0.14308823449E+03 -0.95040718480E+02 -0.12538115422E+03  0.26916986245E+03  0.16500000000E+03 0.  0.
   -5000001    1    1    2    0    0 -0.14308823449E+03  0.95040718480E+02 -0.12490685008E+03  0.26894925584E+03  0.16500000000E+03 0.  0.
<mgrwt>
<rscale>  0 0.47636971E+03</rscale>
<asrwt>0</asrwt>
<pdfrwt beam="1">  1        2 0.60646701E-01 0.47636971E+03</pdfrwt>
<pdfrwt beam="2">  1       -2 0.22140855E-01 0.47636971E+03</pdfrwt>
<totfact> 0.14378240E+03</totfact>
</mgrwt>
</event>
<event>
 4    1  0.8362047E-005  0.1226455E+04  0.7818608E-02  0.9090010E-01
          2   -1    0    0  501    0  0.00000000000E+00  0.00000000000E+00  0.32853330438E+04  0.32853330438E+04  0.25500000000E-02 0.  1.
         -2   -1    0    0    0  501 -0.00000000000E+00 -0.00000000000E+00 -0.11446273238E+03  0.11446273241E+03  0.25500000000E-02 0. -1.
    5000001    1    1    2    0    0 -0.45101883934E+03 -0.38128073854E+03  0.15702009807E+04  0.16856895072E+04  0.16500000000E+03 0.  0.
   -5000001    1    1    2    0    0  0.45101883934E+03  0.38128073854E+03  0.16006693308E+04  0.17141062690E+04  0.16500000000E+03 0.  0.
<mgrwt>
<rscale>  0 0.12264554E+04</rscale>
<asrwt>0</asrwt>
<pdfrwt beam="1">  1        2 0.50543578E+00 0.12264554E+04</pdfrwt>
<pdfrwt beam="2">  1       -2 0.17609654E-01 0.12264554E+04</pdfrwt>
<totfact> 0.30531988E+01</totfact>
</mgrwt>
</event>
<event>
 4    1  0.8362047E-005  0.8634444E+03  0.7818608E-02  0.9472468E-01
         -2   -1    0    0    0  501 -0.00000000000E+00  0.00000000000E+00  0.88129005076E+02  0.88129005112E+02  0.25500000000E-02 0. -1.
          2   -1    0    0  501    0  0.00000000000E+00 -0.00000000000E+00 -0.21149000607E+04  0.21149000607E+04  0.25500000000E-02 0.  1.
    5000001    1    1    2    0    0  0.34397074002E+03 -0.86039230060E+01 -0.49821423798E+03  0.62756061413E+03  0.16500000000E+03 0.  0.
   -5000001    1    1    2    0    0 -0.34397074002E+03  0.86039230060E+01 -0.15285568176E+04  0.15754684516E+04  0.16500000000E+03 0.  0.
<mgrwt>
<rscale>  0 0.86344435E+03</rscale>
<asrwt>0</asrwt>
<pdfrwt beam="1">  1        2 0.32536920E+00 0.86344435E+03</pdfrwt>
<pdfrwt beam="2">  1       -2 0.13558310E-01 0.86344435E+03</pdfrwt>
<totfact> 0.24351823E+02</totfact>
</mgrwt>
</event>
<event>
 4    1  0.8362047E-005  0.4329282E+03  0.7818608E-02  0.1032939E+00
         -2   -1    0    0    0  501 -0.00000000000E+00  0.00000000000E+00  0.95525487386E+02  0.95525487420E+02  0.25500000000E-02 0. -1.
          2   -1    0    0  501    0  0.00000000000E+00 -0.00000000000E+00 -0.49051529786E+03  0.49051529787E+03  0.25500000000E-02 0.  1.
    5000001    1    1    2    0    0  0.58363254692E+02  0.10893811509E+03 -0.10813306861E+03  0.23279077075E+03  0.16500000000E+03 0.  0.
   -5000001    1    1    2    0    0 -0.58363254692E+02 -0.10893811509E+03 -0.28685674187E+03  0.35325001454E+03  0.16500000000E+03 0.  0.
<mgrwt>
<rscale>  0 0.43292823E+03</rscale>
<asrwt>0</asrwt>
<pdfrwt beam="1">  1        2 0.75463890E-01 0.43292823E+03</pdfrwt>
<pdfrwt beam="2">  1       -2 0.14696229E-01 0.43292823E+03</pdfrwt>
<totfact> 0.22671741E+03</totfact>
</mgrwt>
</event>
<event>
 4    1  0.8362047E-005  0.4566170E+03  0.7818608E-02  0.1025767E+00
          2   -1    0    0  501    0  0.00000000000E+00  0.00000000000E+00  0.20220281579E+04  0.20220281579E+04  0.25500000000E-02 0.  1.
         -2   -1    0    0    0  501 -0.00000000000E+00 -0.00000000000E+00 -0.25778458200E+02  0.25778458327E+02  0.25500000000E-02 0. -1.
    5000001    1    1    2    0    0 -0.62680893787E+02  0.13512732006E+03  0.76459618731E+03  0.79625411567E+03  0.16500000000E+03 0.  0.
   -5000001    1    1    2    0    0  0.62680893787E+02 -0.13512732006E+03  0.12316535124E+04  0.12515525005E+04  0.16500000000E+03 0.  0.
<mgrwt>
<rscale>  0 0.45661699E+03</rscale>
<asrwt>0</asrwt>
<pdfrwt beam="1">  1        2 0.31108134E+00 0.45661699E+03</pdfrwt>
<pdfrwt beam="2">  1       -2 0.39659156E-02 0.45661699E+03</pdfrwt>
<totfact> 0.19920103E+03</totfact>
</mgrwt>
</event>
<event>
 4    1  0.8362047E-005  0.4691964E+03  0.7818608E-02  0.1022147E+00
          2   -1    0    0  501    0  0.00000000000E+00  0.00000000000E+00  0.44002434098E+03  0.44002434099E+03  0.25500000000E-02 0.  1.
         -2   -1    0    0    0  501 -0.00000000000E+00 -0.00000000000E+00 -0.12507561426E+03  0.12507561428E+03  0.25500000000E-02 0. -1.
    5000001    1    1    2    0    0 -0.15805046644E+03  0.89765170086E+01  0.94306078963E+02  0.24734422234E+03  0.16500000000E+03 0.  0.
   -5000001    1    1    2    0    0  0.15805046644E+03 -0.89765170086E+01  0.22064264776E+03  0.31775573293E+03  0.16500000000E+03 0.  0.
<mgrwt>
<rscale>  0 0.46919640E+03</rscale>
<asrwt>0</asrwt>
<pdfrwt beam="1">  1        2 0.67696052E-01 0.46919640E+03</pdfrwt>
<pdfrwt beam="2">  1       -2 0.19242402E-01 0.46919640E+03</pdfrwt>
<totfact> 0.16237826E+03</totfact>
</mgrwt>
</event>
<event>
 4    1  0.8362047E-005  0.3635901E+03  0.7818608E-02  0.1057171E+00
          2   -1    0    0  501    0  0.00000000000E+00  0.00000000000E+00  0.83213173284E+03  0.83213173285E+03  0.25500000000E-02 0.  1.
         -2   -1    0    0    0  501 -0.00000000000E+00 -0.00000000000E+00 -0.39716599310E+02  0.39716599392E+02  0.25500000000E-02 0. -1.
    5000001    1    1    2    0    0  0.37267977987E+02  0.35065970999E+02  0.53197796439E+03  0.55932466341E+03  0.16500000000E+03 0.  0.
   -5000001    1    1    2    0    0 -0.37267977987E+02 -0.35065970999E+02  0.26043716914E+03  0.31252366883E+03  0.16500000000E+03 0.  0.
<mgrwt>
<rscale>  0 0.36359011E+03</rscale>
<asrwt>0</asrwt>
<pdfrwt beam="1">  1        2 0.12802025E+00 0.36359011E+03</pdfrwt>
<pdfrwt beam="2">  1       -2 0.61102468E-02 0.36359011E+03</pdfrwt>
<totfact> 0.48736230E+03</totfact>
</mgrwt>
</event>
<event>
 4    1  0.8362047E-005  0.5382571E+03  0.7818608E-02  0.1004249E+00
          2   -1    0    0  501    0  0.00000000000E+00  0.00000000000E+00  0.13008240901E+03  0.13008240903E+03  0.25500000000E-02 0.  1.
         -2   -1    0    0    0  501 -0.00000000000E+00 -0.00000000000E+00 -0.55680229671E+03  0.55680229672E+03  0.25500000000E-02 0. -1.
    5000001    1    1    2    0    0  0.14414932404E+02  0.16602023172E+03 -0.44859517987E+02  0.23876323832E+03  0.16500000000E+03 0.  0.
   -5000001    1    1    2    0    0 -0.14414932404E+02 -0.16602023172E+03 -0.38186036972E+03  0.44812146744E+03  0.16500000000E+03 0.  0.
<mgrwt>
<rscale>  0 0.53825713E+03</rscale>
<asrwt>0</asrwt>
<pdfrwt beam="1">  1        2 0.20012679E-01 0.53825713E+03</pdfrwt>
<pdfrwt beam="2">  1       -2 0.85661890E-01 0.53825713E+03</pdfrwt>
<totfact> 0.33980352E+02</totfact>
</mgrwt>
</event>
<event>
 4    1  0.8362047E-005  0.4091709E+03  0.7818608E-02  0.1040650E+00
          2   -1    0    0  501    0  0.00000000000E+00  0.00000000000E+00  0.10004893108E+04  0.10004893108E+04  0.25500000000E-02 0.  1.
         -2   -1    0    0    0  501 -0.00000000000E+00 -0.00000000000E+00 -0.41834730383E+02  0.41834730460E+02  0.25500000000E-02 0. -1.
    5000001    1    1    2    0    0  0.92277744791E+02 -0.36900202246E+01  0.67830886862E+03  0.70417094493E+03  0.16500000000E+03 0.  0.
   -5000001    1    1    2    0    0 -0.92277744791E+02  0.36900202246E+01  0.28034571176E+03  0.33815309629E+03  0.16500000000E+03 0.  0.
<mgrwt>
<rscale>  0 0.40917087E+03</rscale>
<asrwt>0</asrwt>
<pdfrwt beam="1">  1        2 0.15392144E+00 0.40917087E+03</pdfrwt>
<pdfrwt beam="2">  1       -2 0.64361119E-02 0.40917087E+03</pdfrwt>
<totfact> 0.34978888E+03</totfact>
</mgrwt>
</event>
<event>
 4    1  0.8362047E-005  0.5497774E+03  0.7818608E-02  0.1001545E+00
         -2   -1    0    0    0  501 -0.00000000000E+00  0.00000000000E+00  0.43899264743E+02  0.43899264817E+02  0.25500000000E-02 0. -1.
          2   -1    0    0  501    0  0.00000000000E+00 -0.00000000000E+00 -0.17212996496E+04  0.17212996496E+04  0.25500000000E-02 0.  1.
    5000001    1    1    2    0    0 -0.14499520604E+03  0.52039616499E+02 -0.13423592351E+04  0.13612072023E+04  0.16500000000E+03 0.  0.
   -5000001    1    1    2    0    0  0.14499520604E+03 -0.52039616499E+02 -0.33504114981E+03  0.40399171220E+03  0.16500000000E+03 0.  0.
<mgrwt>
<rscale>  0 0.54977737E+03</rscale>
<asrwt>0</asrwt>
<pdfrwt beam="1">  1        2 0.26481528E+00 0.54977737E+03</pdfrwt>
<pdfrwt beam="2">  1       -2 0.67537344E-02 0.54977737E+03</pdfrwt>
<totfact> 0.12615332E+03</totfact>
</mgrwt>
</event>
<event>
 4    1  0.8362047E-005  0.4589985E+03  0.7818608E-02  0.1025072E+00
         -2   -1    0    0    0  501 -0.00000000000E+00  0.00000000000E+00  0.80626337510E+02  0.80626337550E+02  0.25500000000E-02 0. -1.
          2   -1    0    0  501    0  0.00000000000E+00 -0.00000000000E+00 -0.65325919127E+03  0.65325919128E+03  0.25500000000E-02 0.  1.
    5000001    1    1    2    0    0  0.61093765367E+02 -0.11279020394E+03 -0.13471031993E+03  0.24864824263E+03  0.16500000000E+03 0.  0.
   -5000001    1    1    2    0    0 -0.61093765367E+02  0.11279020394E+03 -0.43792253383E+03  0.48523728619E+03  0.16500000000E+03 0.  0.
<mgrwt>
<rscale>  0 0.45899846E+03</rscale>
<asrwt>0</asrwt>
<pdfrwt beam="1">  1        2 0.10050141E+00 0.45899846E+03</pdfrwt>
<pdfrwt beam="2">  1       -2 0.12404052E-01 0.45899846E+03</pdfrwt>
<totfact> 0.21469234E+03</totfact>
</mgrwt>
</event>
<event>
 4    1  0.8362047E-005  0.3722299E+03  0.7818608E-02  0.1053844E+00
          2   -1    0    0  501    0  0.00000000000E+00  0.00000000000E+00  0.22249983003E+03  0.22249983005E+03  0.25500000000E-02 0.  1.
         -2   -1    0    0    0  501 -0.00000000000E+00 -0.00000000000E+00 -0.15567997145E+03  0.15567997147E+03  0.25500000000E-02 0. -1.
    5000001    1    1    2    0    0  0.73642606937E+02 -0.43652598219E+02  0.24043878988E+02  0.18743503142E+03  0.16500000000E+03 0.  0.
   -5000001    1    1    2    0    0 -0.73642606937E+02  0.43652598219E+02  0.42775979597E+02  0.19074477009E+03  0.16500000000E+03 0.  0.
<mgrwt>
<rscale>  0 0.37222986E+03</rscale>
<asrwt>0</asrwt>
<pdfrwt beam="1">  1        2 0.34230743E-01 0.37222986E+03</pdfrwt>
<pdfrwt beam="2">  1       -2 0.23950765E-01 0.37222986E+03</pdfrwt>
<totfact> 0.23377750E+03</totfact>
</mgrwt>
</event>
<event>
 4    1  0.8362047E-005  0.4403030E+03  0.7818608E-02  0.1030654E+00
          2   -1    0    0  501    0  0.00000000000E+00  0.00000000000E+00  0.13488855694E+04  0.13488855694E+04  0.25500000000E-02 0. -1.
         -2   -1    0    0    0  501 -0.00000000000E+00 -0.00000000000E+00 -0.35930903399E+02  0.35930903489E+02  0.25500000000E-02 0.  1.
    5000001    1    1    2    0    0 -0.13918540755E+03 -0.93776891942E+01  0.52374036987E+03  0.56655934708E+03  0.16500000000E+03 0.  0.
   -5000001    1    1    2    0    0  0.13918540755E+03  0.93776891942E+01  0.78921429614E+03  0.81825712582E+03  0.16500000000E+03 0.  0.
<mgrwt>
<rscale>  0 0.44030297E+03</rscale>
<asrwt>0</asrwt>
<pdfrwt beam="1">  1        2 0.20752083E+00 0.44030297E+03</pdfrwt>
<pdfrwt beam="2">  1       -2 0.55278319E-02 0.44030297E+03</pdfrwt>
<totfact> 0.27681091E+03</totfact>
</mgrwt>
</event>
<event>
 4    1  0.8362047E-005  0.6483310E+03  0.7818608E-02  0.9809916E-01
          2   -1    0    0  501    0  0.00000000000E+00  0.00000000000E+00  0.23147020180E+03  0.23147020182E+03  0.25500000000E-02 0.  1.
         -2   -1    0    0    0  501 -0.00000000000E+00 -0.00000000000E+00 -0.45398179816E+03  0.45398179817E+03  0.25500000000E-02 0. -1.
    5000001    1    1    2    0    0  0.13633557230E+03  0.18397117649E+03 -0.27983920895E+03  0.39745158814E+03  0.16500000000E+03 0.  0.
   -5000001    1    1    2    0    0 -0.13633557230E+03 -0.18397117649E+03  0.57327612592E+02  0.28800041184E+03  0.16500000000E+03 0.  0.
<mgrwt>
<rscale>  0 0.64833096E+03</rscale>
<asrwt>0</asrwt>
<pdfrwt beam="1">  1        2 0.35610800E-01 0.64833096E+03</pdfrwt>
<pdfrwt beam="2">  1       -2 0.69843353E-01 0.64833096E+03</pdfrwt>
<totfact> 0.27688009E+02</totfact>
</mgrwt>
</event>
<event>
 4    1  0.8362047E-005  0.1390307E+04  0.7818608E-02  0.8960865E-01
          2   -1    0    0  501    0  0.00000000000E+00  0.00000000000E+00  0.10575604979E+04  0.10575604979E+04  0.25500000000E-02 0.  1.
         -2   -1    0    0    0  501 -0.00000000000E+00 -0.00000000000E+00 -0.45693678622E+03  0.45693678623E+03  0.25500000000E-02 0. -1.
    5000001    1    1    2    0    0  0.64466189536E+03  0.19596548914E+03  0.25133017496E+03  0.73782334546E+03  0.16500000000E+03 0.  0.
   -5000001    1    1    2    0    0 -0.64466189536E+03 -0.19596548914E+03  0.34929353676E+03  0.77667393872E+03  0.16500000000E+03 0.  0.
<mgrwt>
<rscale>  0 0.13903069E+04</rscale>
<asrwt>0</asrwt>
<pdfrwt beam="1">  1        2 0.16270161E+00 0.13903069E+04</pdfrwt>
<pdfrwt beam="2">  1       -2 0.70297968E-01 0.13903069E+04</pdfrwt>
<totfact> 0.41540971E+01</totfact>
</mgrwt>
</event>
<event>
 4    1  0.8362047E-005  0.6336012E+03  0.7818608E-02  0.9838046E-01
         -2   -1    0    0    0  501 -0.00000000000E+00  0.00000000000E+00  0.23951882833E+03  0.23951882834E+03  0.25500000000E-02 0. -1.
          2   -1    0    0  501    0  0.00000000000E+00 -0.00000000000E+00 -0.41901768649E+03  0.41901768650E+03  0.25500000000E-02 0.  1.
    5000001    1    1    2    0    0  0.87981806848E+01  0.20800089108E+03  0.89658537485E+02  0.28036660289E+03  0.16500000000E+03 0.  0.
   -5000001    1    1    2    0    0 -0.87981806848E+01 -0.20800089108E+03 -0.26915739565E+03  0.37816991195E+03  0.16500000000E+03 0.  0.
<mgrwt>
<rscale>  0 0.63360122E+03</rscale>
<asrwt>0</asrwt>
<pdfrwt beam="1">  1        2 0.64464259E-01 0.63360122E+03</pdfrwt>
<pdfrwt beam="2">  1       -2 0.36849051E-01 0.63360122E+03</pdfrwt>
<totfact> 0.52734275E+02</totfact>
</mgrwt>
</event>
<event>
 4    1  0.8362047E-005  0.4706140E+03  0.7818608E-02  0.1021747E+00
          2   -1    0    0  501    0  0.00000000000E+00  0.00000000000E+00  0.14504280685E+04  0.14504280685E+04  0.25500000000E-02 0.  1.
         -2   -1    0    0    0  501 -0.00000000000E+00 -0.00000000000E+00 -0.38174512187E+02  0.38174512272E+02  0.25500000000E-02 0. -1.
    5000001    1    1    2    0    0 -0.13059440436E+01 -0.16127319770E+03  0.85223475049E+03  0.88291552242E+03  0.16500000000E+03 0.  0.
   -5000001    1    1    2    0    0  0.13059440436E+01  0.16127319770E+03  0.56001880583E+03  0.60568705836E+03  0.16500000000E+03 0.  0.
<mgrwt>
<rscale>  0 0.47061400E+03</rscale>
<asrwt>0</asrwt>
<pdfrwt beam="1">  1        2 0.22314280E+00 0.47061400E+03</pdfrwt>
<pdfrwt beam="2">  1       -2 0.58730014E-02 0.47061400E+03</pdfrwt>
<totfact> 0.22118687E+03</totfact>
</mgrwt>
</event>
<event>
 4    1  0.8362047E-005  0.3732183E+03  0.7818608E-02  0.1053469E+00
          2   -1    0    0  501    0  0.00000000000E+00  0.00000000000E+00  0.20210719195E+04  0.20210719195E+04  0.25500000000E-02 0. -1.
         -2   -1    0    0    0  501 -0.00000000000E+00 -0.00000000000E+00 -0.17229950536E+02  0.17229950725E+02  0.25500000000E-02 0.  1.
    5000001    1    1    2    0    0 -0.33830946382E+02  0.43618644806E+02  0.13703483503E+04  0.13813496010E+04  0.16500000000E+03 0.  0.
   -5000001    1    1    2    0    0  0.33830946382E+02 -0.43618644806E+02  0.63349361865E+03  0.65695226917E+03  0.16500000000E+03 0.  0.
<mgrwt>
<rscale>  0 0.37321827E+03</rscale>
<asrwt>0</asrwt>
<pdfrwt beam="1">  1        2 0.31093416E+00 0.37321827E+03</pdfrwt>
<pdfrwt beam="2">  1       -2 0.26507615E-02 0.37321827E+03</pdfrwt>
<totfact> 0.36786559E+03</totfact>
</mgrwt>
</event>
<event>
 4    1  0.8362047E-005  0.5196848E+03  0.7818608E-02  0.1008765E+00
          2   -1    0    0  501    0  0.00000000000E+00  0.00000000000E+00  0.11225346246E+04  0.11225346246E+04  0.25500000000E-02 0.  1.
         -2   -1    0    0    0  501 -0.00000000000E+00 -0.00000000000E+00 -0.60147883238E+02  0.60147883292E+02  0.25500000000E-02 0. -1.
    5000001    1    1    2    0    0  0.18833968303E+03 -0.51365914441E+02  0.63751801276E+03  0.68685115561E+03  0.16500000000E+03 0.  0.
   -5000001    1    1    2    0    0 -0.18833968303E+03  0.51365914441E+02  0.42486872864E+03  0.49583135233E+03  0.16500000000E+03 0.  0.
<mgrwt>
<rscale>  0 0.51968483E+03</rscale>
<asrwt>0</asrwt>
<pdfrwt beam="1">  1        2 0.17269761E+00 0.51968483E+03</pdfrwt>
<pdfrwt beam="2">  1       -2 0.92535216E-02 0.51968483E+03</pdfrwt>
<totfact> 0.16586039E+03</totfact>
</mgrwt>
</event>
<event>
 4    1  0.8362047E-005  0.5817463E+03  0.7818608E-02  0.9944018E-01
          2   -1    0    0  501    0  0.00000000000E+00  0.00000000000E+00  0.13622536220E+03  0.13622536222E+03  0.25500000000E-02 0.  1.
         -2   -1    0    0    0  501 -0.00000000000E+00 -0.00000000000E+00 -0.62108240492E+03  0.62108240493E+03  0.25500000000E-02 0. -1.
    5000001    1    1    2    0    0  0.18237075009E+03 -0.57267779608E+02 -0.54486454121E+02  0.25832627190E+03  0.16500000000E+03 0.  0.
   -5000001    1    1    2    0    0 -0.18237075009E+03  0.57267779608E+02 -0.43037058860E+03  0.49898149525E+03  0.16500000000E+03 0.  0.
<mgrwt>
<rscale>  0 0.58174625E+03</rscale>
<asrwt>0</asrwt>
<pdfrwt beam="1">  1        2 0.20957748E-01 0.58174625E+03</pdfrwt>
<pdfrwt beam="2">  1       -2 0.95551138E-01 0.58174625E+03</pdfrwt>
<totfact> 0.25025751E+02</totfact>
</mgrwt>
</event>
<event>
 4    1  0.8362047E-005  0.4334864E+03  0.7818608E-02  0.1032764E+00
         -2   -1    0    0    0  501 -0.00000000000E+00  0.00000000000E+00  0.28622882269E+03  0.28622882270E+03  0.25500000000E-02 0. -1.
          2   -1    0    0  501    0  0.00000000000E+00 -0.00000000000E+00 -0.16412606150E+03  0.16412606152E+03  0.25500000000E-02 0.  1.
    5000001    1    1    2    0    0  0.66163728361E+02 -0.12053536061E+03  0.91272825948E+02  0.23337125115E+03  0.16500000000E+03 0.  0.
   -5000001    1    1    2    0    0 -0.66163728361E+02  0.12053536061E+03  0.30829935246E+02  0.21698363306E+03  0.16500000000E+03 0.  0.
<mgrwt>
<rscale>  0 0.43348638E+03</rscale>
<asrwt>0</asrwt>
<pdfrwt beam="1">  1        2 0.25250164E-01 0.43348638E+03</pdfrwt>
<pdfrwt beam="2">  1       -2 0.44035203E-01 0.43348638E+03</pdfrwt>
<totfact> 0.10591655E+03</totfact>
</mgrwt>
</event>
<event>
 4    1  0.8362047E-005  0.4071690E+03  0.7818608E-02  0.1041325E+00
         -2   -1    0    0    0  501 -0.00000000000E+00  0.00000000000E+00  0.44623304148E+02  0.44623304221E+02  0.25500000000E-02 0. -1.
          2   -1    0    0  501    0  0.00000000000E+00 -0.00000000000E+00 -0.92881176242E+03  0.92881176242E+03  0.25500000000E-02 0.  1.
    5000001    1    1    2    0    0  0.86802752027E+02  0.23240820258E+02 -0.62953181710E+03  0.65697044243E+03  0.16500000000E+03 0.  0.
   -5000001    1    1    2    0    0 -0.86802752027E+02 -0.23240820258E+02 -0.25465664117E+03  0.31646462421E+03  0.16500000000E+03 0.  0.
<mgrwt>
<rscale>  0 0.40716901E+03</rscale>
<asrwt>0</asrwt>
<pdfrwt beam="1">  1        2 0.14289410E+00 0.40716901E+03</pdfrwt>
<pdfrwt beam="2">  1       -2 0.68651244E-02 0.40716901E+03</pdfrwt>
<totfact> 0.35117271E+03</totfact>
</mgrwt>
</event>
<event>
 4    1  0.8362047E-005  0.7024047E+03  0.7818608E-02  0.9713129E-01
          2   -1    0    0  501    0  0.00000000000E+00  0.00000000000E+00  0.99377714128E+03  0.99377714128E+03  0.25500000000E-02 0.  1.
         -2   -1    0    0    0  501 -0.00000000000E+00 -0.00000000000E+00 -0.12411544646E+03  0.12411544649E+03  0.25500000000E-02 0. -1.
    5000001    1    1    2    0    0  0.14052197178E+03 -0.25479658494E+03  0.60513389126E+03  0.69143311361E+03  0.16500000000E+03 0.  0.
   -5000001    1    1    2    0    0 -0.14052197178E+03  0.25479658494E+03  0.26452780355E+03  0.42645947416E+03  0.16500000000E+03 0.  0.
<mgrwt>
<rscale>  0 0.70240471E+03</rscale>
<asrwt>0</asrwt>
<pdfrwt beam="1">  1        2 0.15288880E+00 0.70240471E+03</pdfrwt>
<pdfrwt beam="2">  1       -2 0.19094683E-01 0.70240471E+03</pdfrwt>
<totfact> 0.59239333E+02</totfact>
</mgrwt>
</event>
<event>
 4    1  0.8362047E-005  0.4559131E+03  0.7818608E-02  0.1025973E+00
          2   -1    0    0  501    0  0.00000000000E+00  0.00000000000E+00  0.94897320876E+02  0.94897320911E+02  0.25500000000E-02 0. -1.
         -2   -1    0    0    0  501 -0.00000000000E+00 -0.00000000000E+00 -0.54758339740E+03  0.54758339740E+03  0.25500000000E-02 0.  1.
    5000001    1    1    2    0    0  0.69483973732E+02 -0.13226330989E+03 -0.29563286303E+03  0.37006134012E+03  0.16500000000E+03 0.  0.
   -5000001    1    1    2    0    0 -0.69483973732E+02  0.13226330989E+03 -0.15705321349E+03  0.27241937819E+03  0.16500000000E+03 0.  0.
<mgrwt>
<rscale>  0 0.45591314E+03</rscale>
<asrwt>0</asrwt>
<pdfrwt beam="1">  1        2 0.14599588E-01 0.45591314E+03</pdfrwt>
<pdfrwt beam="2">  1       -2 0.84243598E-01 0.45591314E+03</pdfrwt>
<totfact> 0.51379704E+02</totfact>
</mgrwt>
</event>
<event>
 4    1  0.8362047E-005  0.3900694E+03  0.7818608E-02  0.1047274E+00
          2   -1    0    0  501    0  0.00000000000E+00  0.00000000000E+00  0.36246025272E+03  0.36246025273E+03  0.25500000000E-02 0.  1.
         -2   -1    0    0    0  501 -0.00000000000E+00 -0.00000000000E+00 -0.10494537144E+03  0.10494537147E+03  0.25500000000E-02 0. -1.
    5000001    1    1    2    0    0 -0.27425611793E+02  0.79277694838E+02  0.55121201636E+02  0.19313328028E+03  0.16500000000E+03 0.  0.
   -5000001    1    1    2    0    0  0.27425611793E+02 -0.79277694838E+02  0.20239367965E+03  0.27427234393E+03  0.16500000000E+03 0.  0.
<mgrwt>
<rscale>  0 0.39006936E+03</rscale>
<asrwt>0</asrwt>
<pdfrwt beam="1">  1        2 0.55763116E-01 0.39006936E+03</pdfrwt>
<pdfrwt beam="2">  1       -2 0.16145442E-01 0.39006936E+03</pdfrwt>
<totfact> 0.27078591E+03</totfact>
</mgrwt>
</event>
<event>
 4    1  0.8362047E-005  0.5569265E+03  0.7818608E-02  0.9999033E-01
          2   -1    0    0  501    0  0.00000000000E+00  0.00000000000E+00  0.60396249819E+03  0.60396249819E+03  0.25500000000E-02 0.  1.
         -2   -1    0    0    0  501 -0.00000000000E+00 -0.00000000000E+00 -0.12838838285E+03  0.12838838287E+03  0.25500000000E-02 0. -1.
    5000001    1    1    2    0    0  0.35401222570E+02 -0.16964262116E+03  0.42507414233E+03  0.48779595319E+03  0.16500000000E+03 0.  0.
   -5000001    1    1    2    0    0 -0.35401222570E+02  0.16964262116E+03  0.50499973013E+02  0.24455492787E+03  0.16500000000E+03 0.  0.
<mgrwt>
<rscale>  0 0.55692645E+03</rscale>
<asrwt>0</asrwt>
<pdfrwt beam="1">  1        2 0.92917308E-01 0.55692645E+03</pdfrwt>
<pdfrwt beam="2">  1       -2 0.19752059E-01 0.55692645E+03</pdfrwt>
<totfact> 0.10764197E+03</totfact>
</mgrwt>
</event>
<event>
 4    1  0.8362047E-005  0.5249970E+03  0.7818608E-02  0.1007453E+00
          2   -1    0    0  501    0  0.00000000000E+00  0.00000000000E+00  0.16174389028E+03  0.16174389030E+03  0.25500000000E-02 0.  1.
         -2   -1    0    0    0  501 -0.00000000000E+00 -0.00000000000E+00 -0.42601581036E+03  0.42601581036E+03  0.25500000000E-02 0. -1.
    5000001    1    1    2    0    0  0.18281782468E+03 -0.14262620578E+02 -0.31658875856E+02  0.24870276192E+03  0.16500000000E+03 0.  0.
   -5000001    1    1    2    0    0 -0.18281782468E+03  0.14262620578E+02 -0.23261304422E+03  0.33905693874E+03  0.16500000000E+03 0.  0.
<mgrwt>
<rscale>  0 0.52499697E+03</rscale>
<asrwt>0</asrwt>
<pdfrwt beam="1">  1        2 0.24883676E-01 0.52499697E+03</pdfrwt>
<pdfrwt beam="2">  1       -2 0.65540893E-01 0.52499697E+03</pdfrwt>
<totfact> 0.47668199E+02</totfact>
</mgrwt>
</event>
<event>
 4    1  0.8362047E-005  0.4863483E+03  0.7818608E-02  0.1017405E+00
         -2   -1    0    0    0  501 -0.00000000000E+00  0.00000000000E+00  0.16763983845E+03  0.16763983847E+03  0.25500000000E-02 0. -1.
          2   -1    0    0  501    0  0.00000000000E+00 -0.00000000000E+00 -0.35274236144E+03  0.35274236145E+03  0.25500000000E-02 0.  1.
    5000001    1    1    2    0    0  0.11425589694E+03  0.11516301028E+03 -0.17256206556E+03  0.28865133880E+03  0.16500000000E+03 0.  0.
   -5000001    1    1    2    0    0 -0.11425589694E+03 -0.11516301028E+03 -0.12540457431E+02  0.23173086112E+03  0.16500000000E+03 0.  0.
<mgrwt>
<rscale>  0 0.48634832E+03</rscale>
<asrwt>0</asrwt>
<pdfrwt beam="1">  1        2 0.54268056E-01 0.48634832E+03</pdfrwt>
<pdfrwt beam="2">  1       -2 0.25790744E-01 0.48634832E+03</pdfrwt>
<totfact> 0.12397795E+03</totfact>
</mgrwt>
</event>
<event>
 4    1  0.8362047E-005  0.7032823E+03  0.7818608E-02  0.9711635E-01
         -2   -1    0    0    0  501 -0.00000000000E+00  0.00000000000E+00  0.42744755801E+02  0.42744755877E+02  0.25500000000E-02 0. -1.
          2   -1    0    0  501    0  0.00000000000E+00 -0.00000000000E+00 -0.28927877875E+04  0.28927877875E+04  0.25500000000E-02 0.  1.
    5000001    1    1    2    0    0  0.24776695398E+03 -0.17683956269E+03 -0.16811669305E+04  0.17164521381E+04  0.16500000000E+03 0.  0.
   -5000001    1    1    2    0    0 -0.24776695398E+03  0.17683956269E+03 -0.11688761013E+04  0.12190804053E+04  0.16500000000E+03 0.  0.
<mgrwt>
<rscale>  0 0.70328233E+03</rscale>
<asrwt>0</asrwt>
<pdfrwt beam="1">  1        2 0.44504412E+00 0.70328233E+03</pdfrwt>
<pdfrwt beam="2">  1       -2 0.65761186E-02 0.70328233E+03</pdfrwt>
<totfact> 0.28817587E+02</totfact>
</mgrwt>
</event>
<event>
 4    1  0.8362047E-005  0.6023727E+03  0.7818608E-02  0.9900496E-01
         -2   -1    0    0    0  501 -0.00000000000E+00  0.00000000000E+00  0.38579512792E+02  0.38579512876E+02  0.25500000000E-02 0. -1.
          2   -1    0    0  501    0  0.00000000000E+00 -0.00000000000E+00 -0.23513313025E+04  0.23513313025E+04  0.25500000000E-02 0.  1.
    5000001    1    1    2    0    0 -0.71383633441E+02  0.20998014004E+03 -0.16308348140E+04  0.16540962707E+04  0.16500000000E+03 0.  0.
   -5000001    1    1    2    0    0  0.71383633441E+02 -0.20998014004E+03 -0.68191697573E+03  0.73581454466E+03  0.16500000000E+03 0.  0.
<mgrwt>
<rscale>  0 0.60237270E+03</rscale>
<asrwt>0</asrwt>
<pdfrwt beam="1">  1        2 0.36174316E+00 0.60237270E+03</pdfrwt>
<pdfrwt beam="2">  1       -2 0.59353115E-02 0.60237270E+03</pdfrwt>
<totfact> 0.69971380E+02</totfact>
</mgrwt>
</event>
<event>
 4    1  0.8362047E-005  0.4243689E+03  0.7818608E-02  0.1035654E+00
          2   -1    0    0  501    0  0.00000000000E+00  0.00000000000E+00  0.18610871375E+04  0.18610871375E+04  0.25500000000E-02 0.  1.
         -2   -1    0    0    0  501 -0.00000000000E+00 -0.00000000000E+00 -0.24191371567E+02  0.24191371702E+02  0.25500000000E-02 0. -1.
    5000001    1    1    2    0    0 -0.11280824087E+03  0.40343155778E+02  0.65773511260E+03  0.68861727234E+03  0.16500000000E+03 0.  0.
   -5000001    1    1    2    0    0  0.11280824087E+03 -0.40343155778E+02  0.11791606533E+04  0.11966612369E+04  0.16500000000E+03 0.  0.
<mgrwt>
<rscale>  0 0.42436895E+03</rscale>
<asrwt>0</asrwt>
<pdfrwt beam="1">  1        2 0.28632112E+00 0.42436895E+03</pdfrwt>
<pdfrwt beam="2">  1       -2 0.37217492E-02 0.42436895E+03</pdfrwt>
<totfact> 0.26795490E+03</totfact>
</mgrwt>
</event>
<event>
 4    1  0.8362047E-005  0.7153799E+03  0.7818608E-02  0.9691286E-01
         -2   -1    0    0    0  501 -0.00000000000E+00  0.00000000000E+00  0.34212656085E+03  0.34212656086E+03  0.25500000000E-02 0. -1.
          2   -1    0    0  501    0  0.00000000000E+00 -0.00000000000E+00 -0.37396130820E+03  0.37396130820E+03  0.25500000000E-02 0.  1.
    5000001    1    1    2    0    0  0.15137349903E+03  0.25851329125E+03  0.88943344003E+02  0.35338219594E+03  0.16500000000E+03 0.  0.
   -5000001    1    1    2    0    0 -0.15137349903E+03 -0.25851329125E+03 -0.12077809135E+03  0.36270567312E+03  0.16500000000E+03 0.  0.
<mgrwt>
<rscale>  0 0.71537989E+03</rscale>
<asrwt>0</asrwt>
<pdfrwt beam="1">  1        2 0.57532509E-01 0.71537989E+03</pdfrwt>
<pdfrwt beam="2">  1       -2 0.52634855E-01 0.71537989E+03</pdfrwt>
<totfact> 0.29483573E+02</totfact>
</mgrwt>
</event>
<event>
 4    1  0.8362047E-005  0.8275587E+03  0.7818608E-02  0.9520962E-01
          2   -1    0    0  501    0  0.00000000000E+00  0.00000000000E+00  0.15367018247E+04  0.15367018247E+04  0.25500000000E-02 0.  1.
         -2   -1    0    0    0  501 -0.00000000000E+00 -0.00000000000E+00 -0.11141613051E+03  0.11141613054E+03  0.25500000000E-02 0. -1.
    5000001    1    1    2    0    0 -0.35070107870E+03 -0.98109035610E+02  0.92501762984E+03  0.10077198246E+04  0.16500000000E+03 0.  0.
   -5000001    1    1    2    0    0  0.35070107870E+03  0.98109035610E+02  0.50026806438E+03  0.64039813062E+03  0.16500000000E+03 0.  0.
<mgrwt>
<rscale>  0 0.82755875E+03</rscale>
<asrwt>0</asrwt>
<pdfrwt beam="1">  1        2 0.23641566E+00 0.82755875E+03</pdfrwt>
<pdfrwt beam="2">  1       -2 0.17140944E-01 0.82755875E+03</pdfrwt>
<totfact> 0.34063615E+02</totfact>
</mgrwt>
</event>
<event>
 4    1  0.8362047E-005  0.6461880E+03  0.7818608E-02  0.9813959E-01
          2   -1    0    0  501    0  0.00000000000E+00  0.00000000000E+00  0.61695794223E+03  0.61695794223E+03  0.25500000000E-02 0.  1.
         -2   -1    0    0    0  501 -0.00000000000E+00 -0.00000000000E+00 -0.16920072473E+03  0.16920072475E+03  0.25500000000E-02 0. -1.
    5000001    1    1    2    0    0 -0.11648851093E+03  0.26244132478E+02  0.52901833289E+03  0.56687187635E+03  0.16500000000E+03 0.  0.
   -5000001    1    1    2    0    0  0.11648851093E+03 -0.26244132478E+02 -0.81261115393E+02  0.21928679063E+03  0.16500000000E+03 0.  0.
<mgrwt>
<rscale>  0 0.64618799E+03</rscale>
<asrwt>0</asrwt>
<pdfrwt beam="1">  1        2 0.94916607E-01 0.64618799E+03</pdfrwt>
<pdfrwt beam="2">  1       -2 0.26030881E-01 0.64618799E+03</pdfrwt>
<totfact> 0.64219359E+02</totfact>
</mgrwt>
</event>
<event>
 4    1  0.8362047E-005  0.4601332E+03  0.7818608E-02  0.1024743E+00
         -2   -1    0    0    0  501 -0.00000000000E+00  0.00000000000E+00  0.18829244525E+03  0.18829244527E+03  0.25500000000E-02 0. -1.
          2   -1    0    0  501    0  0.00000000000E+00 -0.00000000000E+00 -0.28110864442E+03  0.28110864443E+03  0.25500000000E-02 0.  1.
    5000001    1    1    2    0    0 -0.26921417927E+02  0.13853359250E+03 -0.12402818954E+03  0.25004861686E+03  0.16500000000E+03 0.  0.
   -5000001    1    1    2    0    0  0.26921417927E+02 -0.13853359250E+03  0.31211990372E+02  0.21935247283E+03  0.16500000000E+03 0.  0.
<mgrwt>
<rscale>  0 0.46013317E+03</rscale>
<asrwt>0</asrwt>
<pdfrwt beam="1">  1        2 0.43247484E-01 0.46013317E+03</pdfrwt>
<pdfrwt beam="2">  1       -2 0.28968068E-01 0.46013317E+03</pdfrwt>
<totfact> 0.12884139E+03</totfact>
</mgrwt>
</event>
<event>
 4    1  0.8362047E-005  0.5599078E+03  0.7818608E-02  0.9992263E-01
          2   -1    0    0  501    0  0.00000000000E+00  0.00000000000E+00  0.15007961414E+04  0.15007961414E+04  0.25500000000E-02 0.  1.
         -2   -1    0    0    0  501 -0.00000000000E+00 -0.00000000000E+00 -0.52221744112E+02  0.52221744174E+02  0.25500000000E-02 0. -1.
    5000001    1    1    2    0    0 -0.20810261739E+03  0.63121856778E+02  0.55200198309E+03  0.61581024472E+03  0.16500000000E+03 0.  0.
   -5000001    1    1    2    0    0  0.20810261739E+03 -0.63121856778E+02  0.89657241416E+03  0.93720764082E+03  0.16500000000E+03 0.  0.
<mgrwt>
<rscale>  0 0.55990782E+03</rscale>
<asrwt>0</asrwt>
<pdfrwt beam="1">  1        2 0.23089173E+00 0.55990782E+03</pdfrwt>
<pdfrwt beam="2">  1       -2 0.80341139E-02 0.55990782E+03</pdfrwt>
<totfact> 0.12633999E+03</totfact>
</mgrwt>
</event>
<event>
 4    1  0.8362047E-005  0.7345249E+03  0.7818608E-02  0.9659946E-01
          2   -1    0    0  501    0  0.00000000000E+00  0.00000000000E+00  0.31905304486E+03  0.31905304487E+03  0.25500000000E-02 0.  1.
         -2   -1    0    0    0  501 -0.00000000000E+00 -0.00000000000E+00 -0.42275640434E+03  0.42275640434E+03  0.25500000000E-02 0. -1.
    5000001    1    1    2    0    0 -0.14526533076E+03  0.25000975308E+03  0.10476635927E+03  0.34900986088E+03  0.16500000000E+03 0.  0.
   -5000001    1    1    2    0    0  0.14526533076E+03 -0.25000975308E+03 -0.20846971875E+03  0.39279958833E+03  0.16500000000E+03 0.  0.
<mgrwt>
<rscale>  0 0.73452493E+03</rscale>
<asrwt>0</asrwt>
<pdfrwt beam="1">  1        2 0.49085084E-01 0.73452493E+03</pdfrwt>
<pdfrwt beam="2">  1       -2 0.65039447E-01 0.73452493E+03</pdfrwt>
<totfact> 0.22555550E+02</totfact>
</mgrwt>
</event>
<event>
 4    1  0.8362047E-005  0.5341391E+03  0.7818608E-02  0.1005233E+00
          2   -1    0    0  501    0  0.00000000000E+00  0.00000000000E+00  0.99171533760E+03  0.99171533761E+03  0.25500000000E-02 0.  1.
         -2   -1    0    0    0  501 -0.00000000000E+00 -0.00000000000E+00 -0.71921983628E+02  0.71921983673E+02  0.25500000000E-02 0. -1.
    5000001    1    1    2    0    0 -0.17788757207E+03 -0.82789601790E+01  0.23825550990E+03  0.34015175654E+03  0.16500000000E+03 0.  0.
   -5000001    1    1    2    0    0  0.17788757207E+03  0.82789601790E+01  0.68153784408E+03  0.72348556474E+03  0.16500000000E+03 0.  0.
<mgrwt>
<rscale>  0 0.53413906E+03</rscale>
<asrwt>0</asrwt>
<pdfrwt beam="1">  1        2 0.15257158E+00 0.53413906E+03</pdfrwt>
<pdfrwt beam="2">  1       -2 0.11064921E-01 0.53413906E+03</pdfrwt>
<totfact> 0.14940691E+03</totfact>
</mgrwt>
</event>
<event>
 4    1  0.8362047E-005  0.3744400E+03  0.7818608E-02  0.1053008E+00
         -2   -1    0    0    0  501 -0.00000000000E+00  0.00000000000E+00  0.33801701600E+03  0.33801701601E+03  0.25500000000E-02 0. -1.
          2   -1    0    0  501    0  0.00000000000E+00 -0.00000000000E+00 -0.10369694544E+03  0.10369694548E+03  0.25500000000E-02 0.  1.
    5000001    1    1    2    0    0 -0.46710028733E+02  0.74487687984E+02  0.10559632693E+03  0.21472267395E+03  0.16500000000E+03 0.  0.
   -5000001    1    1    2    0    0  0.46710028733E+02 -0.74487687984E+02  0.12872374362E+03  0.22699128754E+03  0.16500000000E+03 0.  0.
<mgrwt>
<rscale>  0 0.37444002E+03</rscale>
<asrwt>0</asrwt>
<pdfrwt beam="1">  1        2 0.15953376E-01 0.37444002E+03</pdfrwt>
<pdfrwt beam="2">  1       -2 0.52002618E-01 0.37444002E+03</pdfrwt>
<totfact> 0.12930125E+03</totfact>
</mgrwt>
</event>
<event>
 4    1  0.8362047E-005  0.4194878E+03  0.7818608E-02  0.1037233E+00
         -2   -1    0    0    0  501 -0.00000000000E+00  0.00000000000E+00  0.56452022669E+02  0.56452022726E+02  0.25500000000E-02 0. -1.
          2   -1    0    0  501    0  0.00000000000E+00 -0.00000000000E+00 -0.77929028211E+03  0.77929028211E+03  0.25500000000E-02 0.  1.
    5000001    1    1    2    0    0  0.68523980848E+02 -0.10980855413E+03 -0.35394918060E+03  0.41141035106E+03  0.16500000000E+03 0.  0.
   -5000001    1    1    2    0    0 -0.68523980848E+02  0.10980855413E+03 -0.36888907884E+03  0.42433195378E+03  0.16500000000E+03 0.  0.
<mgrwt>
<rscale>  0 0.41948784E+03</rscale>
<asrwt>0</asrwt>
<pdfrwt beam="1">  1        2 0.11989080E+00 0.41948784E+03</pdfrwt>
<pdfrwt beam="2">  1       -2 0.86849272E-02 0.41948784E+03</pdfrwt>
<totfact> 0.30622867E+03</totfact>
</mgrwt>
</event>
<event>
 4    1  0.8362047E-005  0.5148880E+03  0.7818608E-02  0.1009964E+00
         -2   -1    0    0    0  501 -0.00000000000E+00  0.00000000000E+00  0.63954096864E+02  0.63954096915E+02  0.25500000000E-02 0. -1.
          2   -1    0    0  501    0  0.00000000000E+00 -0.00000000000E+00 -0.10363279404E+04  0.10363279404E+04  0.25500000000E-02 0.  1.
    5000001    1    1    2    0    0 -0.11717489920E+03 -0.40679289151E+01 -0.82612689753E+03  0.85056284652E+03  0.16500000000E+03 0.  0.
   -5000001    1    1    2    0    0  0.11717489920E+03  0.40679289151E+01 -0.14624694605E+03  0.24971919085E+03  0.16500000000E+03 0.  0.
<mgrwt>
<rscale>  0 0.51488802E+03</rscale>
<asrwt>0</asrwt>
<pdfrwt beam="1">  1        2 0.15943506E+00 0.51488802E+03</pdfrwt>
<pdfrwt beam="2">  1       -2 0.98390926E-02 0.51488802E+03</pdfrwt>
<totfact> 0.16956177E+03</totfact>
</mgrwt>
</event>
<event>
 4    1  0.8362047E-005  0.4398882E+03  0.7818608E-02  0.1030781E+00
          2   -1    0    0  501    0  0.00000000000E+00  0.00000000000E+00  0.27632524009E+04  0.27632524009E+04  0.25500000000E-02 0.  1.
         -2   -1    0    0    0  501 -0.00000000000E+00 -0.00000000000E+00 -0.17506689415E+02  0.17506689601E+02  0.25500000000E-02 0. -1.
    5000001    1    1    2    0    0  0.13634528017E+03 -0.36020070061E+02  0.11482214396E+04  0.11685567831E+04  0.16500000000E+03 0.  0.
   -5000001    1    1    2    0    0 -0.13634528017E+03  0.36020070061E+02  0.15975242718E+04  0.16122023074E+04  0.16500000000E+03 0.  0.
<mgrwt>
<rscale>  0 0.43988818E+03</rscale>
<asrwt>0</asrwt>
<pdfrwt beam="1">  1        2 0.42511561E+00 0.43988818E+03</pdfrwt>
<pdfrwt beam="2">  1       -2 0.26933377E-02 0.43988818E+03</pdfrwt>
<totfact> 0.13941895E+03</totfact>
</mgrwt>
</event>
<event>
 4    1  0.8362047E-005  0.5540144E+03  0.7818608E-02  0.1000569E+00
         -2   -1    0    0    0  501 -0.00000000000E+00  0.00000000000E+00  0.32499736205E+03  0.32499736206E+03  0.25500000000E-02 0. -1.
          2   -1    0    0  501    0  0.00000000000E+00 -0.00000000000E+00 -0.23610343955E+03  0.23610343956E+03  0.25500000000E-02 0.  1.
    5000001    1    1    2    0    0 -0.14508930703E+03  0.16662710627E+03  0.71098868177E+02  0.28477280174E+03  0.16500000000E+03 0.  0.
   -5000001    1    1    2    0    0  0.14508930703E+03 -0.16662710627E+03  0.17795054330E+02  0.27632799988E+03  0.16500000000E+03 0.  0.
<mgrwt>
<rscale>  0 0.55401442E+03</rscale>
<asrwt>0</asrwt>
<pdfrwt beam="1">  1        2 0.36323606E-01 0.55401442E+03</pdfrwt>
<pdfrwt beam="2">  1       -2 0.49999594E-01 0.55401442E+03</pdfrwt>
<totfact> 0.54716542E+02</totfact>
</mgrwt>
</event>
<event>
 4    1  0.8362047E-005  0.5215266E+03  0.7818608E-02  0.1008308E+00
         -2   -1    0    0    0  501 -0.00000000000E+00  0.00000000000E+00  0.32657823177E+03  0.32657823178E+03  0.25500000000E-02 0. -1.
          2   -1    0    0  501    0  0.00000000000E+00 -0.00000000000E+00 -0.20821194895E+03  0.20821194896E+03  0.25500000000E-02 0.  1.
    5000001    1    1    2    0    0  0.17157281394E+03  0.70736956658E+02  0.14077780468E+03  0.28545461603E+03  0.16500000000E+03 0.  0.
   -5000001    1    1    2    0    0 -0.17157281394E+03 -0.70736956658E+02 -0.22411521852E+02  0.24933556472E+03  0.16500000000E+03 0.  0.
<mgrwt>
<rscale>  0 0.52152657E+03</rscale>
<asrwt>0</asrwt>
<pdfrwt beam="1">  1        2 0.32032607E-01 0.52152657E+03</pdfrwt>
<pdfrwt beam="2">  1       -2 0.50242805E-01 0.52152657E+03</pdfrwt>
<totfact> 0.62333689E+02</totfact>
</mgrwt>
</event>
<event>
 4    1  0.8362047E-005  0.1039956E+04  0.7818608E-02  0.9265776E-01
         -2   -1    0    0    0  501 -0.00000000000E+00  0.00000000000E+00  0.57638283181E+03  0.57638283182E+03  0.25500000000E-02 0. -1.
          2   -1    0    0  501    0  0.00000000000E+00 -0.00000000000E+00 -0.46909270988E+03  0.46909270989E+03  0.25500000000E-02 0.  1.
    5000001    1    1    2    0    0  0.43797019420E+03 -0.22492710998E+03  0.81027264723E+02  0.52554782222E+03  0.16500000000E+03 0.  0.
   -5000001    1    1    2    0    0 -0.43797019420E+03  0.22492710998E+03  0.26262857212E+02  0.51992771948E+03  0.16500000000E+03 0.  0.
<mgrwt>
<rscale>  0 0.10399557E+04</rscale>
<asrwt>0</asrwt>
<pdfrwt beam="1">  1        2 0.72168109E-01 0.10399557E+04</pdfrwt>
<pdfrwt beam="2">  1       -2 0.88674282E-01 0.10399557E+04</pdfrwt>
<totfact> 0.72280417E+01</totfact>
</mgrwt>
</event>
<event>
 4    1  0.8362047E-005  0.5361846E+03  0.7818608E-02  0.1004743E+00
         -2   -1    0    0    0  501 -0.00000000000E+00  0.00000000000E+00  0.11321402533E+03  0.11321402536E+03  0.25500000000E-02 0. -1.
          2   -1    0    0  501    0  0.00000000000E+00 -0.00000000000E+00 -0.63484615269E+03  0.63484615270E+03  0.25500000000E-02 0.  1.
    5000001    1    1    2    0    0  0.95519202153E+01 -0.21012976999E+03 -0.28881416844E+03  0.39355353296E+03  0.16500000000E+03 0.  0.
   -5000001    1    1    2    0    0 -0.95519202153E+01  0.21012976999E+03 -0.23281795893E+03  0.35450664509E+03  0.16500000000E+03 0.  0.
<mgrwt>
<rscale>  0 0.53618463E+03</rscale>
<asrwt>0</asrwt>
<pdfrwt beam="1">  1        2 0.97668637E-01 0.53618463E+03</pdfrwt>
<pdfrwt beam="2">  1       -2 0.17417543E-01 0.53618463E+03</pdfrwt>
<totfact> 0.12591550E+03</totfact>
</mgrwt>
</event>
<event>
 4    1  0.8362047E-005  0.4392965E+03  0.7818608E-02  0.1030963E+00
          2   -1    0    0  501    0  0.00000000000E+00  0.00000000000E+00  0.15670455829E+04  0.15670455829E+04  0.25500000000E-02 0.  1.
         -2   -1    0    0    0  501 -0.00000000000E+00 -0.00000000000E+00 -0.30787460102E+02  0.30787460208E+02  0.25500000000E-02 0. -1.
    5000001    1    1    2    0    0  0.88129276221E+02 -0.25736109086E+02  0.11762678323E+04  0.11913270457E+04  0.16500000000E+03 0.  0.
   -5000001    1    1    2    0    0 -0.88129276221E+02  0.25736109086E+02  0.35999029054E+03  0.40650599740E+03  0.16500000000E+03 0.  0.
<mgrwt>
<rscale>  0 0.43929650E+03</rscale>
<asrwt>0</asrwt>
<pdfrwt beam="1">  1        2 0.24108389E+00 0.43929650E+03</pdfrwt>
<pdfrwt beam="2">  1       -2 0.47365332E-02 0.43929650E+03</pdfrwt>
<totfact> 0.26653033E+03</totfact>
</mgrwt>
</event>
<event>
 4    1  0.8362047E-005  0.4987236E+03  0.7818608E-02  0.1014113E+00
          2   -1    0    0  501    0  0.00000000000E+00  0.00000000000E+00  0.97476694540E+03  0.97476694541E+03  0.25500000000E-02 0.  1.
         -2   -1    0    0    0  501 -0.00000000000E+00 -0.00000000000E+00 -0.63790956535E+02  0.63790956586E+02  0.25500000000E-02 0. -1.
    5000001    1    1    2    0    0  0.17149787556E+03 -0.51481430318E+02  0.34345284263E+03  0.42100678629E+03  0.16500000000E+03 0.  0.
   -5000001    1    1    2    0    0 -0.17149787556E+03  0.51481430318E+02  0.56752314623E+03  0.61755111570E+03  0.16500000000E+03 0.  0.
<mgrwt>
<rscale>  0 0.49872363E+03</rscale>
<asrwt>0</asrwt>
<pdfrwt beam="1">  1        2 0.14996413E+00 0.49872363E+03</pdfrwt>
<pdfrwt beam="2">  1       -2 0.98139941E-02 0.49872363E+03</pdfrwt>
<totfact> 0.18614034E+03</totfact>
</mgrwt>
</event>
<event>
 4    1  0.8362047E-005  0.4975268E+03  0.7818608E-02  0.1014426E+00
          2   -1    0    0  501    0  0.00000000000E+00  0.00000000000E+00  0.11449299620E+04  0.11449299620E+04  0.25500000000E-02 0.  1.
         -2   -1    0    0    0  501 -0.00000000000E+00 -0.00000000000E+00 -0.54049786947E+02  0.54049787007E+02  0.25500000000E-02 0. -1.
    5000001    1    1    2    0    0  0.18412915713E+03 -0.27451873939E+02  0.54294884060E+03  0.59722323749E+03  0.16500000000E+03 0.  0.
   -5000001    1    1    2    0    0 -0.18412915713E+03  0.27451873939E+02  0.54793133449E+03  0.60175651155E+03  0.16500000000E+03 0.  0.
<mgrwt>
<rscale>  0 0.49752677E+03</rscale>
<asrwt>0</asrwt>
<pdfrwt beam="1">  1        2 0.17614306E+00 0.49752677E+03</pdfrwt>
<pdfrwt beam="2">  1       -2 0.83153523E-02 0.49752677E+03</pdfrwt>
<totfact> 0.19090637E+03</totfact>
</mgrwt>
</event>
<event>
 4    1  0.8362047E-005  0.4992508E+03  0.7818608E-02  0.1013975E+00
          2   -1    0    0  501    0  0.00000000000E+00  0.00000000000E+00  0.51300059995E+03  0.51300059996E+03  0.25500000000E-02 0. -1.
         -2   -1    0    0    0  501 -0.00000000000E+00 -0.00000000000E+00 -0.12146739083E+03  0.12146739085E+03  0.25500000000E-02 0.  1.
    5000001    1    1    2    0    0 -0.57870896053E+02 -0.15407284749E+03  0.30943657235E+03  0.38738027215E+03  0.16500000000E+03 0.  0.
   -5000001    1    1    2    0    0  0.57870896053E+02  0.15407284749E+03  0.82096636774E+02  0.24708771866E+03  0.16500000000E+03 0.  0.
<mgrwt>
<rscale>  0 0.49925082E+03</rscale>
<asrwt>0</asrwt>
<pdfrwt beam="1">  1        2 0.78923170E-01 0.49925082E+03</pdfrwt>
<pdfrwt beam="2">  1       -2 0.18687291E-01 0.49925082E+03</pdfrwt>
<totfact> 0.14350531E+03</totfact>
</mgrwt>
</event>
<event>
 4    1  0.8362047E-005  0.4815478E+03  0.7818608E-02  0.1018711E+00
          2   -1    0    0  501    0  0.00000000000E+00  0.00000000000E+00  0.12185815567E+04  0.12185815567E+04  0.25500000000E-02 0.  1.
         -2   -1    0    0    0  501 -0.00000000000E+00 -0.00000000000E+00 -0.47573392701E+02  0.47573392769E+02  0.25500000000E-02 0. -1.
    5000001    1    1    2    0    0  0.56734102944E+02  0.16546734189E+03  0.61758416632E+03  0.66274686129E+03  0.16500000000E+03 0.  0.
   -5000001    1    1    2    0    0 -0.56734102944E+02 -0.16546734189E+03  0.55342399769E+03  0.60340808819E+03  0.16500000000E+03 0.  0.
<mgrwt>
<rscale>  0 0.48154775E+03</rscale>
<asrwt>0</asrwt>
<pdfrwt beam="1">  1        2 0.18747407E+00 0.48154775E+03</pdfrwt>
<pdfrwt beam="2">  1       -2 0.73189842E-02 0.48154775E+03</pdfrwt>
<totfact> 0.21164488E+03</totfact>
</mgrwt>
</event>
<event>
 4    1  0.8362047E-005  0.4610769E+03  0.7818608E-02  0.1024469E+00
          2   -1    0    0  501    0  0.00000000000E+00  0.00000000000E+00  0.91953854793E+03  0.91953854793E+03  0.25500000000E-02 0.  1.
         -2   -1    0    0    0  501 -0.00000000000E+00 -0.00000000000E+00 -0.57798522846E+02  0.57798522902E+02  0.25500000000E-02 0. -1.
    5000001    1    1    2    0    0  0.74736720040E+01 -0.14643718470E+03  0.57184514598E+03  0.61296947380E+03  0.16500000000E+03 0.  0.
   -5000001    1    1    2    0    0 -0.74736720040E+01  0.14643718470E+03  0.28989487911E+03  0.36436759703E+03  0.16500000000E+03 0.  0.
<mgrwt>
<rscale>  0 0.46107687E+03</rscale>
<asrwt>0</asrwt>
<pdfrwt beam="1">  1        2 0.14146746E+00 0.46107687E+03</pdfrwt>
<pdfrwt beam="2">  1       -2 0.88920808E-02 0.46107687E+03</pdfrwt>
<totfact> 0.23673220E+03</totfact>
</mgrwt>
</event>
<event>
 4    1  0.8362047E-005  0.4604148E+03  0.7818608E-02  0.1024661E+00
          2   -1    0    0  501    0  0.00000000000E+00  0.00000000000E+00  0.71084303369E+02  0.71084303415E+02  0.25500000000E-02 0.  1.
         -2   -1    0    0    0  501 -0.00000000000E+00 -0.00000000000E+00 -0.74552946355E+03  0.74552946356E+03  0.25500000000E-02 0. -1.
    5000001    1    1    2    0    0  0.11421163255E+03 -0.94440693148E+02 -0.22778546354E+03  0.31792225297E+03  0.16500000000E+03 0.  0.
   -5000001    1    1    2    0    0 -0.11421163255E+03  0.94440693148E+02 -0.44665969665E+03  0.49869151401E+03  0.16500000000E+03 0.  0.
<mgrwt>
<rscale>  0 0.46041478E+03</rscale>
<asrwt>0</asrwt>
<pdfrwt beam="1">  1        2 0.10936047E-01 0.46041478E+03</pdfrwt>
<pdfrwt beam="2">  1       -2 0.11469683E+00 0.46041478E+03</pdfrwt>
<totfact> 0.35626141E+02</totfact>
</mgrwt>
</event>
<event>
 4    1  0.8362047E-005  0.7438747E+03  0.7818608E-02  0.9645009E-01
          2   -1    0    0  501    0  0.00000000000E+00  0.00000000000E+00  0.99938662796E+03  0.99938662796E+03  0.25500000000E-02 0.  1.
         -2   -1    0    0    0  501 -0.00000000000E+00 -0.00000000000E+00 -0.13842228665E+03  0.13842228667E+03  0.25500000000E-02 0. -1.
    5000001    1    1    2    0    0  0.17593485189E+03 -0.24337742857E+03  0.20921329829E+03  0.40147334784E+03  0.16500000000E+03 0.  0.
   -5000001    1    1    2    0    0 -0.17593485189E+03  0.24337742857E+03  0.65175104302E+03  0.73633556679E+03  0.16500000000E+03 0.  0.
<mgrwt>
<rscale>  0 0.74387467E+03</rscale>
<asrwt>0</asrwt>
<pdfrwt beam="1">  1        2 0.15375179E+00 0.74387467E+03</pdfrwt>
<pdfrwt beam="2">  1       -2 0.21295736E-01 0.74387467E+03</pdfrwt>
<totfact> 0.48457891E+02</totfact>
</mgrwt>
</event>
<event>
 4    1  0.8362047E-005  0.6309385E+03  0.7818608E-02  0.9843219E-01
          2   -1    0    0  501    0  0.00000000000E+00  0.00000000000E+00  0.64862428619E+03  0.64862428619E+03  0.25500000000E-02 0.  1.
         -2   -1    0    0    0  501 -0.00000000000E+00 -0.00000000000E+00 -0.15343373109E+03  0.15343373111E+03  0.25500000000E-02 0. -1.
    5000001    1    1    2    0    0  0.22328333957E+03 -0.96413257158E+02  0.39334141359E+03  0.49101266127E+03  0.16500000000E+03 0.  0.
   -5000001    1    1    2    0    0 -0.22328333957E+03  0.96413257158E+02  0.10184914151E+03  0.31104535604E+03  0.16500000000E+03 0.  0.
<mgrwt>
<rscale>  0 0.63093849E+03</rscale>
<asrwt>0</asrwt>
<pdfrwt beam="1">  1        2 0.99788351E-01 0.63093849E+03</pdfrwt>
<pdfrwt beam="2">  1       -2 0.23605190E-01 0.63093849E+03</pdfrwt>
<totfact> 0.72055829E+02</totfact>
</mgrwt>
</event>
<event>
 4    1  0.8362047E-005  0.5783588E+03  0.7818608E-02  0.9951351E-01
          2   -1    0    0  501    0  0.00000000000E+00  0.00000000000E+00  0.27386696459E+03  0.27386696460E+03  0.25500000000E-02 0.  1.
         -2   -1    0    0    0  501 -0.00000000000E+00 -0.00000000000E+00 -0.30534793883E+03  0.30534793884E+03  0.25500000000E-02 0. -1.
    5000001    1    1    2    0    0  0.51183804722E+02  0.22560682770E+03  0.38018492195E+02  0.28668559140E+03  0.16500000000E+03 0.  0.
   -5000001    1    1    2    0    0 -0.51183804722E+02 -0.22560682770E+03 -0.69499466437E+02  0.29252931204E+03  0.16500000000E+03 0.  0.
<mgrwt>
<rscale>  0 0.57835876E+03</rscale>
<asrwt>0</asrwt>
<pdfrwt beam="1">  1        2 0.42133379E-01 0.57835876E+03</pdfrwt>
<pdfrwt beam="2">  1       -2 0.46976606E-01 0.57835876E+03</pdfrwt>
<totfact> 0.52626255E+02</totfact>
</mgrwt>
</event>
<event>
 4    1  0.8362047E-005  0.6359415E+03  0.7818608E-02  0.9833522E-01
          2   -1    0    0  501    0  0.00000000000E+00  0.00000000000E+00  0.59056202973E+03  0.59056202974E+03  0.25500000000E-02 0.  1.
         -2   -1    0    0    0  501 -0.00000000000E+00 -0.00000000000E+00 -0.17120199996E+03  0.17120199998E+03  0.25500000000E-02 0. -1.
    5000001    1    1    2    0    0  0.70830878503E+02  0.26209880697E+03  0.19417244621E+03  0.37234491648E+03  0.16500000000E+03 0.  0.
   -5000001    1    1    2    0    0 -0.70830878503E+02 -0.26209880697E+03  0.22518758356E+03  0.38941911324E+03  0.16500000000E+03 0.  0.
<mgrwt>
<rscale>  0 0.63594151E+03</rscale>
<asrwt>0</asrwt>
<pdfrwt beam="1">  1        2 0.90855696E-01 0.63594151E+03</pdfrwt>
<pdfrwt beam="2">  1       -2 0.26338769E-01 0.63594151E+03</pdfrwt>
<totfact> 0.66277510E+02</totfact>
</mgrwt>
</event>
<event>
 4    1  0.8362047E-005  0.8282721E+03  0.7818608E-02  0.9519973E-01
         -2   -1    0    0    0  501 -0.00000000000E+00  0.00000000000E+00  0.29223147983E+03  0.29223147984E+03  0.25500000000E-02 0. -1.
          2   -1    0    0  501    0  0.00000000000E+00 -0.00000000000E+00 -0.58689319765E+03  0.58689319766E+03  0.25500000000E-02 0.  1.
    5000001    1    1    2    0    0 -0.21883269432E+03  0.31046653059E+03 -0.14463463243E+03  0.43865862765E+03  0.16500000000E+03 0.  0.
   -5000001    1    1    2    0    0  0.21883269432E+03 -0.31046653059E+03 -0.15002708539E+03  0.44046604985E+03  0.16500000000E+03 0.  0.
<mgrwt>
<rscale>  0 0.82827210E+03</rscale>
<asrwt>0</asrwt>
<pdfrwt beam="1">  1        2 0.90291261E-01 0.82827210E+03</pdfrwt>
<pdfrwt beam="2">  1       -2 0.44958689E-01 0.82827210E+03</pdfrwt>
<totfact> 0.24034619E+02</totfact>
</mgrwt>
</event>
<event>
 4    1  0.8362047E-005  0.4146401E+03  0.7818608E-02  0.1038825E+00
         -2   -1    0    0    0  501 -0.00000000000E+00  0.00000000000E+00  0.40063705758E+03  0.40063705759E+03  0.25500000000E-02 0. -1.
          2   -1    0    0  501    0  0.00000000000E+00 -0.00000000000E+00 -0.10728314961E+03  0.10728314964E+03  0.25500000000E-02 0.  1.
    5000001    1    1    2    0    0 -0.11333341327E+03  0.42567477333E+02  0.10604659445E+03  0.23049367212E+03  0.16500000000E+03 0.  0.
   -5000001    1    1    2    0    0  0.11333341327E+03 -0.42567477333E+02  0.18730731352E+03  0.27742653512E+03  0.16500000000E+03 0.  0.
<mgrwt>
<rscale>  0 0.41464011E+03</rscale>
<asrwt>0</asrwt>
<pdfrwt beam="1">  1        2 0.16505100E-01 0.41464011E+03</pdfrwt>
<pdfrwt beam="2">  1       -2 0.61636472E-01 0.41464011E+03</pdfrwt>
<totfact> 0.87543229E+02</totfact>
</mgrwt>
</event>
<event>
 4    1  0.8362047E-005  0.5430150E+03  0.7818608E-02  0.1003124E+00
         -2   -1    0    0    0  501 -0.00000000000E+00  0.00000000000E+00  0.11278794206E+03  0.11278794208E+03  0.25500000000E-02 0. -1.
          2   -1    0    0  501    0  0.00000000000E+00 -0.00000000000E+00 -0.65358327776E+03  0.65358327776E+03  0.25500000000E-02 0.  1.
    5000001    1    1    2    0    0 -0.13402317778E+03  0.12035173718E+03 -0.10314176320E+03  0.26516028387E+03  0.16500000000E+03 0.  0.
   -5000001    1    1    2    0    0  0.13402317778E+03 -0.12035173718E+03 -0.43765357250E+03  0.50121093598E+03  0.16500000000E+03 0.  0.
<mgrwt>
<rscale>  0 0.54301496E+03</rscale>
<asrwt>0</asrwt>
<pdfrwt beam="1">  1        2 0.10055127E+00 0.54301496E+03</pdfrwt>
<pdfrwt beam="2">  1       -2 0.17351991E-01 0.54301496E+03</pdfrwt>
<totfact> 0.12231422E+03</totfact>
</mgrwt>
</event>
<event>
 4    1  0.8362047E-005  0.3448048E+03  0.7818608E-02  0.1064768E+00
         -2   -1    0    0    0  501 -0.00000000000E+00  0.00000000000E+00  0.47225602749E+03  0.47225602750E+03  0.25500000000E-02 0. -1.
          2   -1    0    0  501    0  0.00000000000E+00 -0.00000000000E+00 -0.62937435954E+02  0.62937436005E+02  0.25500000000E-02 0.  1.
    5000001    1    1    2    0    0 -0.81936813927E+00  0.46276440552E+02  0.23392090357E+03  0.28997615323E+03  0.16500000000E+03 0.  0.
   -5000001    1    1    2    0    0  0.81936813927E+00 -0.46276440552E+02  0.17539768797E+03  0.24521731028E+03  0.16500000000E+03 0.  0.
<mgrwt>
<rscale>  0 0.34480478E+03</rscale>
<asrwt>0</asrwt>
<pdfrwt beam="1">  1        2 0.96826821E-02 0.34480478E+03</pdfrwt>
<pdfrwt beam="2">  1       -2 0.72654776E-01 0.34480478E+03</pdfrwt>
<totfact> 0.11803166E+03</totfact>
</mgrwt>
</event>
<event>
 4    1  0.8362047E-005  0.4306152E+03  0.7818608E-02  0.1033666E+00
         -2   -1    0    0    0  501 -0.00000000000E+00  0.00000000000E+00  0.22562228845E+02  0.22562228989E+02  0.25500000000E-02 0. -1.
          2   -1    0    0  501    0  0.00000000000E+00 -0.00000000000E+00 -0.20546449692E+04  0.20546449692E+04  0.25500000000E-02 0.  1.
    5000001    1    1    2    0    0 -0.11794575270E+03  0.55905832679E+02 -0.12368701918E+04  0.12546352195E+04  0.16500000000E+03 0.  0.
   -5000001    1    1    2    0    0  0.11794575270E+03 -0.55905832679E+02 -0.79521254857E+03  0.82257197868E+03  0.16500000000E+03 0.  0.
<mgrwt>
<rscale>  0 0.43061523E+03</rscale>
<asrwt>0</asrwt>
<pdfrwt beam="1">  1        2 0.31609908E+00 0.43061523E+03</pdfrwt>
<pdfrwt beam="2">  1       -2 0.34711138E-02 0.43061523E+03</pdfrwt>
<totfact> 0.23462550E+03</totfact>
</mgrwt>
</event>
<event>
 4    1  0.8362047E-005  0.4491918E+03  0.7818608E-02  0.1027963E+00
          2   -1    0    0  501    0  0.00000000000E+00  0.00000000000E+00  0.99140264167E+03  0.99140264167E+03  0.25500000000E-02 0.  1.
         -2   -1    0    0    0  501 -0.00000000000E+00 -0.00000000000E+00 -0.50880752068E+02  0.50880752132E+02  0.25500000000E-02 0. -1.
    5000001    1    1    2    0    0 -0.50260881629E+02 -0.11092052418E+03  0.25773900646E+03  0.32936896387E+03  0.16500000000E+03 0.  0.
   -5000001    1    1    2    0    0  0.50260881629E+02  0.11092052418E+03  0.68278288314E+03  0.71291442994E+03  0.16500000000E+03 0.  0.
<mgrwt>
<rscale>  0 0.44919177E+03</rscale>
<asrwt>0</asrwt>
<pdfrwt beam="1">  1        2 0.15252349E+00 0.44919177E+03</pdfrwt>
<pdfrwt beam="2">  1       -2 0.78278079E-02 0.44919177E+03</pdfrwt>
<totfact> 0.26072678E+03</totfact>
</mgrwt>
</event>
<event>
 4    1  0.8362047E-005  0.1283123E+04  0.7818608E-02  0.9043057E-01
         -2   -1    0    0    0  501 -0.00000000000E+00  0.00000000000E+00  0.11571488659E+04  0.11571488659E+04  0.25500000000E-02 0. -1.
          2   -1    0    0  501    0  0.00000000000E+00 -0.00000000000E+00 -0.35570301347E+03  0.35570301348E+03  0.25500000000E-02 0.  1.
    5000001    1    1    2    0    0 -0.41844942473E+03  0.45741264778E+03  0.40906725846E+03  0.76084641902E+03  0.16500000000E+03 0.  0.
   -5000001    1    1    2    0    0  0.41844942473E+03 -0.45741264778E+03  0.39237859398E+03  0.75200546036E+03  0.16500000000E+03 0.  0.
<mgrwt>
<rscale>  0 0.12831233E+04</rscale>
<asrwt>0</asrwt>
<pdfrwt beam="1">  1        2 0.54723540E-01 0.12831233E+04</pdfrwt>
<pdfrwt beam="2">  1       -2 0.17802290E+00 0.12831233E+04</pdfrwt>
<totfact> 0.16646044E+01</totfact>
</mgrwt>
</event>
<event>
 4    1  0.8362047E-005  0.1552366E+04  0.7818608E-02  0.8850358E-01
         -2   -1    0    0    0  501 -0.00000000000E+00  0.00000000000E+00  0.10525761580E+04  0.10525761580E+04  0.25500000000E-02 0. -1.
          2   -1    0    0  501    0  0.00000000000E+00 -0.00000000000E+00 -0.57236691700E+03  0.57236691701E+03  0.25500000000E-02 0.  1.
    5000001    1    1    2    0    0 -0.60838429704E+03  0.45228390865E+03  0.21572216502E+03  0.80526594327E+03  0.16500000000E+03 0.  0.
   -5000001    1    1    2    0    0  0.60838429704E+03 -0.45228390865E+03  0.26448707594E+03  0.81967713171E+03  0.16500000000E+03 0.  0.
<mgrwt>
<rscale>  0 0.15523656E+04</rscale>
<asrwt>0</asrwt>
<pdfrwt beam="1">  1        2 0.88056450E-01 0.15523656E+04</pdfrwt>
<pdfrwt beam="2">  1       -2 0.16193479E+00 0.15523656E+04</pdfrwt>
<totfact> 0.12304033E+01</totfact>
</mgrwt>
</event>
<event>
 4    1  0.8362047E-005  0.3808743E+03  0.7818608E-02  0.1050611E+00
          2   -1    0    0  501    0  0.00000000000E+00  0.00000000000E+00  0.11416041859E+04  0.11416041859E+04  0.25500000000E-02 0.  1.
         -2   -1    0    0    0  501 -0.00000000000E+00 -0.00000000000E+00 -0.31767853067E+02  0.31767853169E+02  0.25500000000E-02 0. -1.
    5000001    1    1    2    0    0 -0.20264484772E+02 -0.87116887555E+02  0.65433149237E+03  0.68071631635E+03  0.16500000000E+03 0.  0.
   -5000001    1    1    2    0    0  0.20264484772E+02  0.87116887555E+02  0.45550484042E+03  0.49265572268E+03  0.16500000000E+03 0.  0.
<mgrwt>
<rscale>  0 0.38087433E+03</rscale>
<asrwt>0</asrwt>
<pdfrwt beam="1">  1        2 0.17563136E+00 0.38087433E+03</pdfrwt>
<pdfrwt beam="2">  1       -2 0.48873635E-02 0.38087433E+03</pdfrwt>
<totfact> 0.43954995E+03</totfact>
</mgrwt>
</event>
<event>
 4    1  0.8362047E-005  0.5103796E+03  0.7818608E-02  0.1011105E+00
         -2   -1    0    0    0  501 -0.00000000000E+00  0.00000000000E+00  0.10812063016E+03  0.10812063019E+03  0.25500000000E-02 0. -1.
          2   -1    0    0  501    0  0.00000000000E+00 -0.00000000000E+00 -0.60230729007E+03  0.60230729007E+03  0.25500000000E-02 0.  1.
    5000001    1    1    2    0    0  0.19300720568E+03  0.25066039342E+02 -0.25279118996E+03  0.35917749580E+03  0.16500000000E+03 0.  0.
   -5000001    1    1    2    0    0 -0.19300720568E+03 -0.25066039342E+02 -0.24139546995E+03  0.35125042446E+03  0.16500000000E+03 0.  0.
<mgrwt>
<rscale>  0 0.51037964E+03</rscale>
<asrwt>0</asrwt>
<pdfrwt beam="1">  1        2 0.92662658E-01 0.51037964E+03</pdfrwt>
<pdfrwt beam="2">  1       -2 0.16633943E-01 0.51037964E+03</pdfrwt>
<totfact> 0.14509530E+03</totfact>
</mgrwt>
</event>
<event>
 4    1  0.8362047E-005  0.7378702E+03  0.7818608E-02  0.9654575E-01
          2   -1    0    0  501    0  0.00000000000E+00  0.00000000000E+00  0.51347611598E+03  0.51347611599E+03  0.25500000000E-02 0.  1.
         -2   -1    0    0    0  501 -0.00000000000E+00 -0.00000000000E+00 -0.26508165985E+03  0.26508165987E+03  0.25500000000E-02 0. -1.
    5000001    1    1    2    0    0  0.13310554024E+03  0.14110626791E+03  0.40586289295E+03  0.47914272567E+03  0.16500000000E+03 0.  0.
   -5000001    1    1    2    0    0 -0.13310554024E+03 -0.14110626791E+03 -0.15746843682E+03  0.29941505019E+03  0.16500000000E+03 0.  0.
<mgrwt>
<rscale>  0 0.73787018E+03</rscale>
<asrwt>0</asrwt>
<pdfrwt beam="1">  1        2 0.78996326E-01 0.73787018E+03</pdfrwt>
<pdfrwt beam="2">  1       -2 0.40781794E-01 0.73787018E+03</pdfrwt>
<totfact> 0.34245737E+02</totfact>
</mgrwt>
</event>
<event>
 4    1  0.8362047E-005  0.5078983E+03  0.7818608E-02  0.1011738E+00
         -2   -1    0    0    0  501 -0.00000000000E+00  0.00000000000E+00  0.10430383250E+03  0.10430383253E+03  0.25500000000E-02 0. -1.
          2   -1    0    0  501    0  0.00000000000E+00 -0.00000000000E+00 -0.61829154687E+03  0.61829154688E+03  0.25500000000E-02 0.  1.
    5000001    1    1    2    0    0 -0.84294752318E+02  0.16611092477E+03 -0.18491485365E+03  0.31002733379E+03  0.16500000000E+03 0.  0.
   -5000001    1    1    2    0    0  0.84294752318E+02 -0.16611092477E+03 -0.32907286073E+03  0.41256804562E+03  0.16500000000E+03 0.  0.
<mgrwt>
<rscale>  0 0.50789833E+03</rscale>
<asrwt>0</asrwt>
<pdfrwt beam="1">  1        2 0.95121774E-01 0.50789833E+03</pdfrwt>
<pdfrwt beam="2">  1       -2 0.16046744E-01 0.50789833E+03</pdfrwt>
<totfact> 0.14944647E+03</totfact>
</mgrwt>
</event>
<event>
 4    1  0.8362047E-005  0.5199853E+03  0.7818608E-02  0.1008690E+00
          2   -1    0    0  501    0  0.00000000000E+00  0.00000000000E+00  0.14736334196E+04  0.14736334196E+04  0.25500000000E-02 0.  1.
         -2   -1    0    0    0  501 -0.00000000000E+00 -0.00000000000E+00 -0.45870409478E+02  0.45870409549E+02  0.25500000000E-02 0. -1.
    5000001    1    1    2    0    0  0.78016987308E+02 -0.13141693874E+03  0.33271446922E+03  0.40159803302E+03  0.16500000000E+03 0.  0.
   -5000001    1    1    2    0    0 -0.78016987308E+02  0.13141693874E+03  0.10950485409E+04  0.11179057961E+04  0.16500000000E+03 0.  0.
<mgrwt>
<rscale>  0 0.51998526E+03</rscale>
<asrwt>0</asrwt>
<pdfrwt beam="1">  1        2 0.22671285E+00 0.51998526E+03</pdfrwt>
<pdfrwt beam="2">  1       -2 0.70569857E-02 0.51998526E+03</pdfrwt>
<totfact> 0.16084829E+03</totfact>
</mgrwt>
</event>
<event>
 4    1  0.8362047E-005  0.3740625E+03  0.7818608E-02  0.1053150E+00
          2   -1    0    0  501    0  0.00000000000E+00  0.00000000000E+00  0.78606535918E+03  0.78606535918E+03  0.25500000000E-02 0.  1.
         -2   -1    0    0    0  501 -0.00000000000E+00 -0.00000000000E+00 -0.44501002619E+02  0.44501002692E+02  0.25500000000E-02 0. -1.
    5000001    1    1    2    0    0 -0.59230939598E+02  0.49597112764E+02  0.27690599392E+03  0.33146660053E+03  0.16500000000E+03 0.  0.
   -5000001    1    1    2    0    0  0.59230939598E+02 -0.49597112764E+02  0.46465836264E+03  0.49909976135E+03  0.16500000000E+03 0.  0.
<mgrwt>
<rscale>  0 0.37406254E+03</rscale>
<asrwt>0</asrwt>
<pdfrwt beam="1">  1        2 0.12093312E+00 0.37406254E+03</pdfrwt>
<pdfrwt beam="2">  1       -2 0.68463089E-02 0.37406254E+03</pdfrwt>
<totfact> 0.43985100E+03</totfact>
</mgrwt>
</event>
<event>
 4    1  0.8362047E-005  0.4939467E+03  0.7818608E-02  0.1015371E+00
          2   -1    0    0  501    0  0.00000000000E+00  0.00000000000E+00  0.19399259524E+04  0.19399259524E+04  0.25500000000E-02 0.  1.
         -2   -1    0    0    0  501 -0.00000000000E+00 -0.00000000000E+00 -0.31442352697E+02  0.31442352800E+02  0.25500000000E-02 0. -1.
    5000001    1    1    2    0    0  0.16876056144E+03 -0.48348281676E+01  0.12438981712E+04  0.12661007713E+04  0.16500000000E+03 0.  0.
   -5000001    1    1    2    0    0 -0.16876056144E+03  0.48348281676E+01  0.66458542850E+03  0.70526753394E+03  0.16500000000E+03 0.  0.
<mgrwt>
<rscale>  0 0.49394670E+03</rscale>
<asrwt>0</asrwt>
<pdfrwt beam="1">  1        2 0.29845018E+00 0.49394670E+03</pdfrwt>
<pdfrwt beam="2">  1       -2 0.48372845E-02 0.49394670E+03</pdfrwt>
<totfact> 0.16225175E+03</totfact>
</mgrwt>
</event>
<event>
 4    1  0.8362047E-005  0.4999998E+03  0.7818608E-02  0.1013779E+00
         -2   -1    0    0    0  501 -0.00000000000E+00  0.00000000000E+00  0.76404974129E+02  0.76404974171E+02  0.25500000000E-02 0. -1.
          2   -1    0    0  501    0  0.00000000000E+00 -0.00000000000E+00 -0.81800896861E+03  0.81800896861E+03  0.25500000000E-02 0.  1.
    5000001    1    1    2    0    0  0.10559609012E+03  0.14568168086E+03 -0.27444957910E+03  0.36731629130E+03  0.16500000000E+03 0.  0.
   -5000001    1    1    2    0    0 -0.10559609012E+03 -0.14568168086E+03 -0.46715441539E+03  0.52709765149E+03  0.16500000000E+03 0.  0.
<mgrwt>
<rscale>  0 0.49999982E+03</rscale>
<asrwt>0</asrwt>
<pdfrwt beam="1">  1        2 0.12584753E+00 0.49999982E+03</pdfrwt>
<pdfrwt beam="2">  1       -2 0.11754612E-01 0.49999982E+03</pdfrwt>
<totfact> 0.17654645E+03</totfact>
</mgrwt>
</event>
<event>
 4    1  0.8362047E-005  0.5159466E+03  0.7818608E-02  0.1009698E+00
         -2   -1    0    0    0  501 -0.00000000000E+00  0.00000000000E+00  0.17271735223E+02  0.17271735412E+02  0.25500000000E-02 0. -1.
          2   -1    0    0  501    0  0.00000000000E+00 -0.00000000000E+00 -0.38531293438E+04  0.38531293438E+04  0.25500000000E-02 0.  1.
    5000001    1    1    2    0    0 -0.11994629114E+03  0.12351739197E+03 -0.11798136541E+04  0.12036730940E+04  0.16500000000E+03 0.  0.
   -5000001    1    1    2    0    0  0.11994629114E+03 -0.12351739197E+03 -0.26560439544E+04  0.26667279851E+04  0.16500000000E+03 0.  0.
<mgrwt>
<rscale>  0 0.51594663E+03</rscale>
<asrwt>0</asrwt>
<pdfrwt beam="1">  1        2 0.59278845E+00 0.51594663E+03</pdfrwt>
<pdfrwt beam="2">  1       -2 0.26571931E-02 0.51594663E+03</pdfrwt>
<totfact> 0.27598683E+02</totfact>
</mgrwt>
</event>
<event>
 4    1  0.8362047E-005  0.4343085E+03  0.7818608E-02  0.1032508E+00
          2   -1    0    0  501    0  0.00000000000E+00  0.00000000000E+00  0.14293030363E+04  0.14293030363E+04  0.25500000000E-02 0.  1.
         -2   -1    0    0    0  501 -0.00000000000E+00 -0.00000000000E+00 -0.32992280405E+02  0.32992280504E+02  0.25500000000E-02 0. -1.
    5000001    1    1    2    0    0 -0.12534118978E+03 -0.35365620095E+02  0.51466966757E+03  0.55594155058E+03  0.16500000000E+03 0.  0.
   -5000001    1    1    2    0    0  0.12534118978E+03  0.35365620095E+02  0.88164108835E+03  0.90635376626E+03  0.16500000000E+03 0.  0.
<mgrwt>
<rscale>  0 0.43430849E+03</rscale>
<asrwt>0</asrwt>
<pdfrwt beam="1">  1        2 0.21989280E+00 0.43430849E+03</pdfrwt>
<pdfrwt beam="2">  1       -2 0.50757349E-02 0.43430849E+03</pdfrwt>
<totfact> 0.28497439E+03</totfact>
</mgrwt>
</event>
<event>
 4    1  0.8362047E-005  0.5190911E+03  0.7818608E-02  0.1008913E+00
          2   -1    0    0  501    0  0.00000000000E+00  0.00000000000E+00  0.17120003968E+04  0.17120003968E+04  0.25500000000E-02 0.  1.
         -2   -1    0    0    0  501 -0.00000000000E+00 -0.00000000000E+00 -0.39348063364E+02  0.39348063447E+02  0.25500000000E-02 0. -1.
    5000001    1    1    2    0    0  0.19360596911E+02 -0.19929335777E+03  0.85926479466E+03  0.89758212020E+03  0.16500000000E+03 0.  0.
   -5000001    1    1    2    0    0 -0.19360596911E+02  0.19929335777E+03  0.81338753878E+03  0.85376634005E+03  0.16500000000E+03 0.  0.
<mgrwt>
<rscale>  0 0.51909113E+03</rscale>
<asrwt>0</asrwt>
<pdfrwt beam="1">  1        2 0.26338462E+00 0.51909113E+03</pdfrwt>
<pdfrwt beam="2">  1       -2 0.60535495E-02 0.51909113E+03</pdfrwt>
<totfact> 0.15174322E+03</totfact>
</mgrwt>
</event>
<event>
 4    1  0.8362047E-005  0.4415729E+03  0.7818608E-02  0.1030265E+00
         -2   -1    0    0    0  501 -0.00000000000E+00  0.00000000000E+00  0.52107920076E+02  0.52107920139E+02  0.25500000000E-02 0. -1.
          2   -1    0    0  501    0  0.00000000000E+00 -0.00000000000E+00 -0.93549428911E+03  0.93549428911E+03  0.25500000000E-02 0.  1.
    5000001    1    1    2    0    0 -0.57064381003E+02 -0.13407972417E+03 -0.47964520414E+03  0.52774827131E+03  0.16500000000E+03 0.  0.
   -5000001    1    1    2    0    0  0.57064381003E+02  0.13407972417E+03 -0.40374116489E+03  0.45985393794E+03  0.16500000000E+03 0.  0.
<mgrwt>
<rscale>  0 0.44157292E+03</rscale>
<asrwt>0</asrwt>
<pdfrwt beam="1">  1        2 0.14392219E+00 0.44157292E+03</pdfrwt>
<pdfrwt beam="2">  1       -2 0.80166038E-02 0.44157292E+03</pdfrwt>
<totfact> 0.27253241E+03</totfact>
</mgrwt>
</event>
<event>
 4    1  0.8362047E-005  0.3962403E+03  0.7818608E-02  0.1045089E+00
         -2   -1    0    0    0  501 -0.00000000000E+00  0.00000000000E+00  0.42983701048E+02  0.42983701124E+02  0.25500000000E-02 0. -1.
          2   -1    0    0  501    0  0.00000000000E+00 -0.00000000000E+00 -0.91317394254E+03  0.91317394254E+03  0.25500000000E-02 0.  1.
    5000001    1    1    2    0    0 -0.74679501600E+02  0.60288112877E+02 -0.30706763936E+03  0.36156219334E+03  0.16500000000E+03 0.  0.
   -5000001    1    1    2    0    0  0.74679501600E+02 -0.60288112877E+02 -0.56312260213E+03  0.59459545032E+03  0.16500000000E+03 0.  0.
<mgrwt>
<rscale>  0 0.39624031E+03</rscale>
<asrwt>0</asrwt>
<pdfrwt beam="1">  1        2 0.14048828E+00 0.39624031E+03</pdfrwt>
<pdfrwt beam="2">  1       -2 0.66128778E-02 0.39624031E+03</pdfrwt>
<totfact> 0.38102235E+03</totfact>
</mgrwt>
</event>
<event>
 4    1  0.8362047E-005  0.5182568E+03  0.7818608E-02  0.1009120E+00
          2   -1    0    0  501    0  0.00000000000E+00  0.00000000000E+00  0.43884870904E+02  0.43884870978E+02  0.25500000000E-02 0.  1.
         -2   -1    0    0    0  501 -0.00000000000E+00 -0.00000000000E+00 -0.15300837672E+04  0.15300837672E+04  0.25500000000E-02 0. -1.
    5000001    1    1    2    0    0 -0.74374947759E+02  0.18412337294E+03 -0.81029155293E+03  0.85042956797E+03  0.16500000000E+03 0.  0.
   -5000001    1    1    2    0    0  0.74374947759E+02 -0.18412337294E+03 -0.67590734337E+03  0.72353907022E+03  0.16500000000E+03 0.  0.
<mgrwt>
<rscale>  0 0.51825680E+03</rscale>
<asrwt>0</asrwt>
<pdfrwt beam="1">  1        2 0.67515198E-02 0.51825680E+03</pdfrwt>
<pdfrwt beam="2">  1       -2 0.23539746E+00 0.51825680E+03</pdfrwt>
<totfact> 0.91034818E+01</totfact>
</mgrwt>
</event>
<event>
 4    1  0.8362047E-005  0.1895513E+04  0.7818608E-02  0.8657093E-01
          2   -1    0    0  501    0  0.00000000000E+00  0.00000000000E+00  0.31624206664E+04  0.31624206664E+04  0.25500000000E-02 0.  1.
         -2   -1    0    0    0  501 -0.00000000000E+00 -0.00000000000E+00 -0.28403646725E+03  0.28403646726E+03  0.25500000000E-02 0. -1.
    5000001    1    1    2    0    0  0.36162588473E+03  0.76767865433E+03  0.73285701979E+03  0.11333173467E+04  0.16500000000E+03 0.  0.
   -5000001    1    1    2    0    0 -0.36162588473E+03 -0.76767865433E+03  0.21455271794E+04  0.23131397870E+04  0.16500000000E+03 0.  0.
<mgrwt>
<rscale>  0 0.18955134E+04</rscale>
<asrwt>0</asrwt>
<pdfrwt beam="1">  1        2 0.48652625E+00 0.18955134E+04</pdfrwt>
<pdfrwt beam="2">  1       -2 0.43697919E-01 0.18955134E+04</pdfrwt>
<totfact> 0.64093672E+00</totfact>
</mgrwt>
</event>
<event>
 4    1  0.8362047E-005  0.3834535E+03  0.7818608E-02  0.1049665E+00
         -2   -1    0    0    0  501 -0.00000000000E+00  0.00000000000E+00  0.85805048432E+02  0.85805048470E+02  0.25500000000E-02 0.  1.
          2   -1    0    0  501    0  0.00000000000E+00 -0.00000000000E+00 -0.42840300815E+03  0.42840300816E+03  0.25500000000E-02 0. -1.
    5000001    1    1    2    0    0  0.78239113865E+02 -0.29584259662E+02 -0.10374766450E+03  0.21209706563E+03  0.16500000000E+03 0.  0.
   -5000001    1    1    2    0    0 -0.78239113865E+02  0.29584259662E+02 -0.23885029521E+03  0.30211099100E+03  0.16500000000E+03 0.  0.
<mgrwt>
<rscale>  0 0.38345347E+03</rscale>
<asrwt>0</asrwt>
<pdfrwt beam="1">  1        2 0.65908154E-01 0.38345347E+03</pdfrwt>
<pdfrwt beam="2">  1       -2 0.13200777E-01 0.38345347E+03</pdfrwt>
<totfact> 0.31474150E+03</totfact>
</mgrwt>
</event>
<event>
 4    1  0.8362047E-005  0.5463174E+03  0.7818608E-02  0.1002350E+00
         -2   -1    0    0    0  501 -0.00000000000E+00  0.00000000000E+00  0.43678906490E+02  0.43678906564E+02  0.25500000000E-02 0. -1.
          2   -1    0    0  501    0  0.00000000000E+00 -0.00000000000E+00 -0.17082769662E+04  0.17082769663E+04  0.25500000000E-02 0.  1.
    5000001    1    1    2    0    0 -0.16908516973E+03 -0.12470069703E+03 -0.10151345949E+04  0.10496967677E+04  0.16500000000E+03 0.  0.
   -5000001    1    1    2    0    0  0.16908516973E+03  0.12470069703E+03 -0.64946346490E+03  0.70225910511E+03  0.16500000000E+03 0.  0.
<mgrwt>
<rscale>  0 0.54631738E+03</rscale>
<asrwt>0</asrwt>
<pdfrwt beam="1">  1        2 0.26281179E+00 0.54631738E+03</pdfrwt>
<pdfrwt beam="2">  1       -2 0.67198331E-02 0.54631738E+03</pdfrwt>
<totfact> 0.12925836E+03</totfact>
</mgrwt>
</event>
<event>
 4    1  0.8362047E-005  0.6427487E+03  0.7818608E-02  0.9820482E-01
         -2   -1    0    0    0  501 -0.00000000000E+00  0.00000000000E+00  0.19199400294E+03  0.19199400296E+03  0.25500000000E-02 0. -1.
          2   -1    0    0  501    0  0.00000000000E+00 -0.00000000000E+00 -0.53794111506E+03  0.53794111506E+03  0.25500000000E-02 0.  1.
    5000001    1    1    2    0    0 -0.15014859943E+03  0.23008813660E+03 -0.20011800773E+03  0.37783246226E+03  0.16500000000E+03 0.  0.
   -5000001    1    1    2    0    0  0.15014859943E+03 -0.23008813660E+03 -0.14582910438E+03  0.35210265577E+03  0.16500000000E+03 0.  0.
<mgrwt>
<rscale>  0 0.64274869E+03</rscale>
<asrwt>0</asrwt>
<pdfrwt beam="1">  1        2 0.82760171E-01 0.64274869E+03</pdfrwt>
<pdfrwt beam="2">  1       -2 0.29537539E-01 0.64274869E+03</pdfrwt>
<totfact> 0.60006172E+02</totfact>
</mgrwt>
</event>
<event>
 4    1  0.8362047E-005  0.5075624E+03  0.7818608E-02  0.1011824E+00
         -2   -1    0    0    0  501 -0.00000000000E+00  0.00000000000E+00  0.26820813626E+02  0.26820813747E+02  0.25500000000E-02 0. -1.
          2   -1    0    0  501    0  0.00000000000E+00 -0.00000000000E+00 -0.24013031665E+04  0.24013031665E+04  0.25500000000E-02 0.  1.
    5000001    1    1    2    0    0 -0.18121040443E+03  0.61580487074E+02 -0.12994882306E+04  0.13238293049E+04  0.16500000000E+03 0.  0.
   -5000001    1    1    2    0    0  0.18121040443E+03 -0.61580487074E+02 -0.10749941223E+04  0.11042946753E+04  0.16500000000E+03 0.  0.
<mgrwt>
<rscale>  0 0.50756243E+03</rscale>
<asrwt>0</asrwt>
<pdfrwt beam="1">  1        2 0.36943109E+00 0.50756243E+03</pdfrwt>
<pdfrwt beam="2">  1       -2 0.41262809E-02 0.50756243E+03</pdfrwt>
<totfact> 0.11616482E+03</totfact>
</mgrwt>
</event>
<event>
 4    1  0.8362047E-005  0.3790111E+03  0.7818608E-02  0.1051300E+00
         -2   -1    0    0    0  501 -0.00000000000E+00  0.00000000000E+00  0.47545384947E+03  0.47545384948E+03  0.25500000000E-02 0. -1.
          2   -1    0    0  501    0  0.00000000000E+00 -0.00000000000E+00 -0.75532770193E+02  0.75532770236E+02  0.25500000000E-02 0.  1.
    5000001    1    1    2    0    0  0.65655065030E+02  0.37339238028E+02  0.12056752147E+03  0.21786769723E+03  0.16500000000E+03 0.  0.
   -5000001    1    1    2    0    0 -0.65655065030E+02 -0.37339238028E+02  0.27935355781E+03  0.33311892249E+03  0.16500000000E+03 0.  0.
<mgrwt>
<rscale>  0 0.37901106E+03</rscale>
<asrwt>0</asrwt>
<pdfrwt beam="1">  1        2 0.11620426E-01 0.37901106E+03</pdfrwt>
<pdfrwt beam="2">  1       -2 0.73146746E-01 0.37901106E+03</pdfrwt>
<totfact> 0.92776316E+02</totfact>
</mgrwt>
</event>
<event>
 4    1  0.8362047E-005  0.4436456E+03  0.7818608E-02  0.1029634E+00
         -2   -1    0    0    0  501 -0.00000000000E+00  0.00000000000E+00  0.87566547987E+02  0.87566548025E+02  0.25500000000E-02 0. -1.
          2   -1    0    0  501    0  0.00000000000E+00 -0.00000000000E+00 -0.56191952751E+03  0.56191952751E+03  0.25500000000E-02 0.  1.
    5000001    1    1    2    0    0 -0.83781221095E+02 -0.86679673461E+02 -0.11083540592E+03  0.23246966685E+03  0.16500000000E+03 0.  0.
   -5000001    1    1    2    0    0  0.83781221095E+02  0.86679673461E+02 -0.36351757360E+03  0.41701640869E+03  0.16500000000E+03 0.  0.
<mgrwt>
<rscale>  0 0.44364559E+03</rscale>
<asrwt>0</asrwt>
<pdfrwt beam="1">  1        2 0.86449156E-01 0.44364559E+03</pdfrwt>
<pdfrwt beam="2">  1       -2 0.13471777E-01 0.44364559E+03</pdfrwt>
<totfact> 0.22409017E+03</totfact>
</mgrwt>
</event>
<event>
 4    1  0.8362047E-005  0.4515012E+03  0.7818608E-02  0.1027275E+00
         -2   -1    0    0    0  501 -0.00000000000E+00  0.00000000000E+00  0.19523310611E+02  0.19523310777E+02  0.25500000000E-02 0. -1.
          2   -1    0    0  501    0  0.00000000000E+00 -0.00000000000E+00 -0.26103836339E+04  0.26103836339E+04  0.25500000000E-02 0.  1.
    5000001    1    1    2    0    0  0.64780365477E+02  0.96407420424E+02 -0.70578699942E+03  0.73406483026E+03  0.16500000000E+03 0.  0.
   -5000001    1    1    2    0    0 -0.64780365477E+02 -0.96407420424E+02 -0.18850733238E+04  0.18958421144E+04  0.16500000000E+03 0.  0.
<mgrwt>
<rscale>  0 0.45150119E+03</rscale>
<asrwt>0</asrwt>
<pdfrwt beam="1">  1        2 0.40159721E+00 0.45150119E+03</pdfrwt>
<pdfrwt beam="2">  1       -2 0.30035883E-02 0.45150119E+03</pdfrwt>
<totfact> 0.14451413E+03</totfact>
</mgrwt>
</event>
<event>
 4    1  0.8362047E-005  0.3510151E+03  0.7818608E-02  0.1062199E+00
          2   -1    0    0  501    0  0.00000000000E+00  0.00000000000E+00  0.52430155941E+03  0.52430155942E+03  0.25500000000E-02 0.  1.
         -2   -1    0    0    0  501 -0.00000000000E+00 -0.00000000000E+00 -0.58750363394E+02  0.58750363449E+02  0.25500000000E-02 0. -1.
    5000001    1    1    2    0    0  0.49822274606E+02  0.25005897906E+02  0.19675147415E+03  0.26276167254E+03  0.16500000000E+03 0.  0.
   -5000001    1    1    2    0    0 -0.49822274606E+02 -0.25005897906E+02  0.26879972187E+03  0.32029025033E+03  0.16500000000E+03 0.  0.
<mgrwt>
<rscale>  0 0.35101514E+03</rscale>
<asrwt>0</asrwt>
<pdfrwt beam="1">  1        2 0.80661778E-01 0.35101514E+03</pdfrwt>
<pdfrwt beam="2">  1       -2 0.90385175E-02 0.35101514E+03</pdfrwt>
<totfact> 0.46162567E+03</totfact>
</mgrwt>
</event>
<event>
 4    1  0.8362047E-005  0.3895061E+03  0.7818608E-02  0.1047475E+00
          2   -1    0    0  501    0  0.00000000000E+00  0.00000000000E+00  0.18417645123E+04  0.18417645123E+04  0.25500000000E-02 0.  1.
         -2   -1    0    0    0  501 -0.00000000000E+00 -0.00000000000E+00 -0.20593706410E+02  0.20593706568E+02  0.25500000000E-02 0. -1.
    5000001    1    1    2    0    0 -0.77733142607E+02  0.32809037687E+02  0.11968623852E+04  0.12111248671E+04  0.16500000000E+03 0.  0.
   -5000001    1    1    2    0    0  0.77733142607E+02 -0.32809037687E+02  0.62430842066E+03  0.65123335182E+03  0.16500000000E+03 0.  0.
<mgrwt>
<rscale>  0 0.38950614E+03</rscale>
<asrwt>0</asrwt>
<pdfrwt beam="1">  1        2 0.28334847E+00 0.38950614E+03</pdfrwt>
<pdfrwt beam="2">  1       -2 0.31682616E-02 0.38950614E+03</pdfrwt>
<totfact> 0.35044732E+03</totfact>
</mgrwt>
</event>
<event>
 4    1  0.8362047E-005  0.4233036E+03  0.7818608E-02  0.1035996E+00
          2   -1    0    0  501    0  0.00000000000E+00  0.00000000000E+00  0.61891200036E+03  0.61891200037E+03  0.25500000000E-02 0.  1.
         -2   -1    0    0    0  501 -0.00000000000E+00 -0.00000000000E+00 -0.72379410645E+02  0.72379410690E+02  0.25500000000E-02 0. -1.
    5000001    1    1    2    0    0  0.98473112360E+02  0.88449305487E+02  0.28495768269E+03  0.35488887616E+03  0.16500000000E+03 0.  0.
   -5000001    1    1    2    0    0 -0.98473112360E+02 -0.88449305487E+02  0.26157490703E+03  0.33640253490E+03  0.16500000000E+03 0.  0.
<mgrwt>
<rscale>  0 0.42330361E+03</rscale>
<asrwt>0</asrwt>
<pdfrwt beam="1">  1        2 0.95217229E-01 0.42330361E+03</pdfrwt>
<pdfrwt beam="2">  1       -2 0.11135294E-01 0.42330361E+03</pdfrwt>
<totfact> 0.27307063E+03</totfact>
</mgrwt>
</event>
<event>
 4    1  0.8362047E-005  0.4722251E+03  0.7818608E-02  0.1021294E+00
          2   -1    0    0  501    0  0.00000000000E+00  0.00000000000E+00  0.40687613531E+03  0.40687613532E+03  0.25500000000E-02 0.  1.
         -2   -1    0    0    0  501 -0.00000000000E+00 -0.00000000000E+00 -0.13701748505E+03  0.13701748507E+03  0.25500000000E-02 0. -1.
    5000001    1    1    2    0    0 -0.14417440843E+03  0.78542121601E+02  0.18055182597E+03  0.29458290306E+03  0.16500000000E+03 0.  0.
   -5000001    1    1    2    0    0  0.14417440843E+03 -0.78542121601E+02  0.89306824286E+02  0.24931071733E+03  0.16500000000E+03 0.  0.
<mgrwt>
<rscale>  0 0.47222514E+03</rscale>
<asrwt>0</asrwt>
<pdfrwt beam="1">  1        2 0.62596327E-01 0.47222514E+03</pdfrwt>
<pdfrwt beam="2">  1       -2 0.21079614E-01 0.47222514E+03</pdfrwt>
<totfact> 0.15128450E+03</totfact>
</mgrwt>
</event>
<event>
 4    1  0.8362047E-005  0.9540770E+03  0.7818608E-02  0.9360398E-01
         -2   -1    0    0    0  501 -0.00000000000E+00  0.00000000000E+00  0.37331110830E+03  0.37331110831E+03  0.25500000000E-02 0. -1.
          2   -1    0    0  501    0  0.00000000000E+00 -0.00000000000E+00 -0.60958740544E+03  0.60958740544E+03  0.25500000000E-02 0.  1.
    5000001    1    1    2    0    0 -0.30377773978E+03  0.32463678827E+03 -0.64897278938E+02  0.47865082921E+03  0.16500000000E+03 0.  0.
   -5000001    1    1    2    0    0  0.30377773978E+03 -0.32463678827E+03 -0.17137901820E+03  0.50424768454E+03  0.16500000000E+03 0.  0.
<mgrwt>
<rscale>  0 0.95407704E+03</rscale>
<asrwt>0</asrwt>
<pdfrwt beam="1">  1        2 0.93782678E-01 0.95407704E+03</pdfrwt>
<pdfrwt beam="2">  1       -2 0.57432478E-01 0.95407704E+03</pdfrwt>
<totfact> 0.13833994E+02</totfact>
</mgrwt>
</event>
<event>
 4    1  0.8362047E-005  0.4579067E+03  0.7818608E-02  0.1025390E+00
         -2   -1    0    0    0  501 -0.00000000000E+00  0.00000000000E+00  0.32871857762E+02  0.32871857860E+02  0.25500000000E-02 0. -1.
          2   -1    0    0  501    0  0.00000000000E+00 -0.00000000000E+00 -0.15946657852E+04  0.15946657852E+04  0.25500000000E-02 0.  1.
    5000001    1    1    2    0    0  0.11450742922E+03  0.70331000463E+02 -0.10811506724E+04  0.11018939048E+04  0.16500000000E+03 0.  0.
   -5000001    1    1    2    0    0 -0.11450742922E+03 -0.70331000463E+02 -0.48064325499E+03  0.52564373823E+03  0.16500000000E+03 0.  0.
<mgrwt>
<rscale>  0 0.45790666E+03</rscale>
<asrwt>0</asrwt>
<pdfrwt beam="1">  1        2 0.24533314E+00 0.45790666E+03</pdfrwt>
<pdfrwt beam="2">  1       -2 0.50572101E-02 0.45790666E+03</pdfrwt>
<totfact> 0.23268625E+03</totfact>
</mgrwt>
</event>
<event>
 4    1  0.8362047E-005  0.4030307E+03  0.7818608E-02  0.1042735E+00
          2   -1    0    0  501    0  0.00000000000E+00  0.00000000000E+00  0.12674947766E+04  0.12674947766E+04  0.25500000000E-02 0.  1.
         -2   -1    0    0    0  501 -0.00000000000E+00 -0.00000000000E+00 -0.32038342412E+02  0.32038342513E+02  0.25500000000E-02 0. -1.
    5000001    1    1    2    0    0  0.11520359779E+03 -0.83494766904E+01  0.63858714033E+03  0.66959698214E+03  0.16500000000E+03 0.  0.
   -5000001    1    1    2    0    0 -0.11520359779E+03  0.83494766904E+01  0.59686929382E+03  0.62993613693E+03  0.16500000000E+03 0.  0.
<mgrwt>
<rscale>  0 0.40303068E+03</rscale>
<asrwt>0</asrwt>
<pdfrwt beam="1">  1        2 0.19499913E+00 0.40303068E+03</pdfrwt>
<pdfrwt beam="2">  1       -2 0.49289773E-02 0.40303068E+03</pdfrwt>
<totfact> 0.36717546E+03</totfact>
</mgrwt>
</event>
<event>
 4    1  0.8362047E-005  0.4312797E+03  0.7818608E-02  0.1033456E+00
          2   -1    0    0  501    0  0.00000000000E+00  0.00000000000E+00  0.15124807241E+04  0.15124807241E+04  0.25500000000E-02 0.  1.
         -2   -1    0    0    0  501 -0.00000000000E+00 -0.00000000000E+00 -0.30744555709E+02  0.30744555814E+02  0.25500000000E-02 0. -1.
    5000001    1    1    2    0    0 -0.41980841188E+02  0.11168721359E+03  0.99487631450E+03  0.10155000275E+04  0.16500000000E+03 0.  0.
   -5000001    1    1    2    0    0  0.41980841188E+02 -0.11168721359E+03  0.48685985393E+03  0.52772525245E+03  0.16500000000E+03 0.  0.
<mgrwt>
<rscale>  0 0.43127971E+03</rscale>
<asrwt>0</asrwt>
<pdfrwt beam="1">  1        2 0.23268926E+00 0.43127971E+03</pdfrwt>
<pdfrwt beam="2">  1       -2 0.47299333E-02 0.43127971E+03</pdfrwt>
<totfact> 0.28601946E+03</totfact>
</mgrwt>
</event>
<event>
 4    1  0.8362047E-005  0.4664267E+03  0.7818608E-02  0.1022934E+00
         -2   -1    0    0    0  501 -0.00000000000E+00  0.00000000000E+00  0.11147238739E+03  0.11147238742E+03  0.25500000000E-02 0. -1.
          2   -1    0    0  501    0  0.00000000000E+00 -0.00000000000E+00 -0.48790974797E+03  0.48790974797E+03  0.25500000000E-02 0.  1.
    5000001    1    1    2    0    0 -0.12418093248E+03 -0.99980618222E+02 -0.24192146324E+03  0.33341868932E+03  0.16500000000E+03 0.  0.
   -5000001    1    1    2    0    0  0.12418093248E+03  0.99980618222E+02 -0.13451589734E+03  0.26596344607E+03  0.16500000000E+03 0.  0.
<mgrwt>
<rscale>  0 0.46642669E+03</rscale>
<asrwt>0</asrwt>
<pdfrwt beam="1">  1        2 0.75063037E-01 0.46642669E+03</pdfrwt>
<pdfrwt beam="2">  1       -2 0.17149598E-01 0.46642669E+03</pdfrwt>
<totfact> 0.17597802E+03</totfact>
</mgrwt>
</event>
<event>
 4    1  0.8362047E-005  0.5440047E+03  0.7818608E-02  0.1002891E+00
         -2   -1    0    0    0  501 -0.00000000000E+00  0.00000000000E+00  0.28039602165E+03  0.28039602167E+03  0.25500000000E-02 0. -1.
          2   -1    0    0  501    0  0.00000000000E+00 -0.00000000000E+00 -0.26385997372E+03  0.26385997373E+03  0.25500000000E-02 0.  1.
    5000001    1    1    2    0    0 -0.16273019659E+03 -0.12923583629E+03 -0.51569873189E+02  0.27030995188E+03  0.16500000000E+03 0.  0.
   -5000001    1    1    2    0    0  0.16273019659E+03  0.12923583629E+03  0.68105921126E+02  0.27394604351E+03  0.16500000000E+03 0.  0.
<mgrwt>
<rscale>  0 0.54400473E+03</rscale>
<asrwt>0</asrwt>
<pdfrwt beam="1">  1        2 0.40593842E-01 0.54400473E+03</pdfrwt>
<pdfrwt beam="2">  1       -2 0.43137849E-01 0.54400473E+03</pdfrwt>
<totfact> 0.64962435E+02</totfact>
</mgrwt>
</event>
<event>
 4    1  0.8362047E-005  0.6337204E+03  0.7818608E-02  0.9837816E-01
         -2   -1    0    0    0  501 -0.00000000000E+00  0.00000000000E+00  0.21784795567E+03  0.21784795568E+03  0.25500000000E-02 0. -1.
          2   -1    0    0  501    0  0.00000000000E+00 -0.00000000000E+00 -0.46087365173E+03  0.46087365174E+03  0.25500000000E-02 0.  1.
    5000001    1    1    2    0    0  0.25044513656E+03  0.86726843326E+02 -0.17949671436E+03  0.36012273220E+03  0.16500000000E+03 0.  0.
   -5000001    1    1    2    0    0 -0.25044513656E+03 -0.86726843326E+02 -0.63528981705E+02  0.31859887523E+03  0.16500000000E+03 0.  0.
<mgrwt>
<rscale>  0 0.63372039E+03</rscale>
<asrwt>0</asrwt>
<pdfrwt beam="1">  1        2 0.70903638E-01 0.63372039E+03</pdfrwt>
<pdfrwt beam="2">  1       -2 0.33515070E-01 0.63372039E+03</pdfrwt>
<totfact> 0.56689892E+02</totfact>
</mgrwt>
</event>
<event>
 4    1  0.8362047E-005  0.4824770E+03  0.7818608E-02  0.1018457E+00
         -2   -1    0    0    0  501 -0.00000000000E+00  0.00000000000E+00  0.76659060947E+02  0.76659060989E+02  0.25500000000E-02 0.  1.
          2   -1    0    0  501    0  0.00000000000E+00 -0.00000000000E+00 -0.75915361788E+03  0.75915361788E+03  0.25500000000E-02 0. -1.
    5000001    1    1    2    0    0  0.13763949587E+03 -0.83564925548E+02 -0.21822359069E+03  0.31744962299E+03  0.16500000000E+03 0.  0.
   -5000001    1    1    2    0    0 -0.13763949587E+03  0.83564925548E+02 -0.46427096624E+03  0.51836305588E+03  0.16500000000E+03 0.  0.
<mgrwt>
<rscale>  0 0.48247696E+03</rscale>
<asrwt>0</asrwt>
<pdfrwt beam="1">  1        2 0.11679286E+00 0.48247696E+03</pdfrwt>
<pdfrwt beam="2">  1       -2 0.11793702E-01 0.48247696E+03</pdfrwt>
<totfact> 0.19345881E+03</totfact>
</mgrwt>
</event>
<event>
 4    1  0.8362047E-005  0.3929667E+03  0.7818608E-02  0.1046243E+00
         -2   -1    0    0    0  501 -0.00000000000E+00  0.00000000000E+00  0.25202203146E+03  0.25202203147E+03  0.25500000000E-02 0. -1.
          2   -1    0    0  501    0  0.00000000000E+00 -0.00000000000E+00 -0.15318384674E+03  0.15318384676E+03  0.25500000000E-02 0.  1.
    5000001    1    1    2    0    0 -0.53465196757E+02  0.61084271574E+02  0.12079112160E+03  0.22001206911E+03  0.16500000000E+03 0.  0.
   -5000001    1    1    2    0    0  0.53465196757E+02 -0.61084271574E+02 -0.21952936879E+02  0.18519380912E+03  0.16500000000E+03 0.  0.
<mgrwt>
<rscale>  0 0.39296669E+03</rscale>
<asrwt>0</asrwt>
<pdfrwt beam="1">  1        2 0.23566746E-01 0.39296669E+03</pdfrwt>
<pdfrwt beam="2">  1       -2 0.38772619E-01 0.39296669E+03</pdfrwt>
<totfact> 0.14650226E+03</totfact>
</mgrwt>
</event>
<event>
 4    1  0.8362047E-005  0.8327180E+03  0.7818608E-02  0.9513830E-01
         -2   -1    0    0    0  501 -0.00000000000E+00  0.00000000000E+00  0.84784388411E+03  0.84784388412E+03  0.25500000000E-02 0. -1.
          2   -1    0    0  501    0  0.00000000000E+00 -0.00000000000E+00 -0.20446547261E+03  0.20446547262E+03  0.25500000000E-02 0.  1.
    5000001    1    1    2    0    0 -0.10518399380E+03  0.21165547910E+03  0.70136474401E+03  0.75828702911E+03  0.16500000000E+03 0.  0.
   -5000001    1    1    2    0    0  0.10518399380E+03 -0.21165547910E+03 -0.57986332504E+02  0.29402232762E+03  0.16500000000E+03 0.  0.
<mgrwt>
<rscale>  0 0.83271796E+03</rscale>
<asrwt>0</asrwt>
<pdfrwt beam="1">  1        2 0.31456226E-01 0.83271796E+03</pdfrwt>
<pdfrwt beam="2">  1       -2 0.13043752E+00 0.83271796E+03</pdfrwt>
<totfact> 0.73073510E+01</totfact>
</mgrwt>
</event>
<event>
 4    1  0.8362047E-005  0.8485492E+03  0.7818608E-02  0.9492286E-01
          2   -1    0    0  501    0  0.00000000000E+00  0.00000000000E+00  0.28351961796E+03  0.28351961797E+03  0.25500000000E-02 0.  1.
         -2   -1    0    0    0  501 -0.00000000000E+00 -0.00000000000E+00 -0.63490828683E+03  0.63490828683E+03  0.25500000000E-02 0. -1.
    5000001    1    1    2    0    0  0.28936348444E+03  0.22182642957E+03 -0.23218179975E+02  0.40087688242E+03  0.16500000000E+03 0.  0.
   -5000001    1    1    2    0    0 -0.28936348444E+03 -0.22182642957E+03 -0.32817048890E+03  0.51755102238E+03  0.16500000000E+03 0.  0.
<mgrwt>
<rscale>  0 0.84854924E+03</rscale>
<asrwt>0</asrwt>
<pdfrwt beam="1">  1        2 0.43618403E-01 0.84854924E+03</pdfrwt>
<pdfrwt beam="2">  1       -2 0.97678198E-01 0.84854924E+03</pdfrwt>
<totfact> 0.10266413E+02</totfact>
</mgrwt>
</event>
<event>
 4    1  0.8362047E-005  0.4100638E+03  0.7818608E-02  0.1040350E+00
         -2   -1    0    0    0  501 -0.00000000000E+00  0.00000000000E+00  0.22242709798E+02  0.22242709944E+02  0.25500000000E-02 0. -1.
          2   -1    0    0  501    0  0.00000000000E+00 -0.00000000000E+00 -0.18899710430E+04  0.18899710430E+04  0.25500000000E-02 0.  1.
    5000001    1    1    2    0    0  0.32410169464E+02 -0.10155534100E+03 -0.12077328626E+04  0.12236043371E+04  0.16500000000E+03 0.  0.
   -5000001    1    1    2    0    0 -0.32410169464E+02  0.10155534100E+03 -0.65999547052E+03  0.68860941576E+03  0.16500000000E+03 0.  0.
<mgrwt>
<rscale>  0 0.41006379E+03</rscale>
<asrwt>0</asrwt>
<pdfrwt beam="1">  1        2 0.29076465E+00 0.41006379E+03</pdfrwt>
<pdfrwt beam="2">  1       -2 0.34219569E-02 0.41006379E+03</pdfrwt>
<totfact> 0.29387270E+03</totfact>
</mgrwt>
</event>
<event>
 4    1  0.8362047E-005  0.7418319E+03  0.7818608E-02  0.9648253E-01
          2   -1    0    0  501    0  0.00000000000E+00  0.00000000000E+00  0.79552504280E+03  0.79552504280E+03  0.25500000000E-02 0.  1.
         -2   -1    0    0    0  501 -0.00000000000E+00 -0.00000000000E+00 -0.17294068608E+03  0.17294068610E+03  0.25500000000E-02 0. -1.
    5000001    1    1    2    0    0  0.12086439209E+03  0.30198823131E+03  0.39933934854E+03  0.54083454810E+03  0.16500000000E+03 0.  0.
   -5000001    1    1    2    0    0 -0.12086439209E+03 -0.30198823131E+03  0.22324500818E+03  0.42763118081E+03  0.16500000000E+03 0.  0.
<mgrwt>
<rscale>  0 0.74183191E+03</rscale>
<asrwt>0</asrwt>
<pdfrwt beam="1">  1        2 0.12238847E+00 0.74183191E+03</pdfrwt>
<pdfrwt beam="2">  1       -2 0.26606260E-01 0.74183191E+03</pdfrwt>
<totfact> 0.44659107E+02</totfact>
</mgrwt>
</event>
<event>
 4    1  0.8362047E-005  0.4289554E+03  0.7818608E-02  0.1034190E+00
          2   -1    0    0  501    0  0.00000000000E+00  0.00000000000E+00  0.16244101030E+03  0.16244101032E+03  0.25500000000E-02 0.  1.
         -2   -1    0    0    0  501 -0.00000000000E+00 -0.00000000000E+00 -0.28318391758E+03  0.28318391759E+03  0.25500000000E-02 0. -1.
    5000001    1    1    2    0    0 -0.98960677746E+02  0.93657229877E+02 -0.75454239207E+02  0.22689917290E+03  0.16500000000E+03 0.  0.
   -5000001    1    1    2    0    0  0.98960677746E+02 -0.93657229877E+02 -0.45288668073E+02  0.21872575501E+03  0.16500000000E+03 0.  0.
<mgrwt>
<rscale>  0 0.42895539E+03</rscale>
<asrwt>0</asrwt>
<pdfrwt beam="1">  1        2 0.24990925E-01 0.42895539E+03</pdfrwt>
<pdfrwt beam="2">  1       -2 0.43566756E-01 0.42895539E+03</pdfrwt>
<totfact> 0.10943009E+03</totfact>
</mgrwt>
</event>
<event>
 4    1  0.8362047E-005  0.4656475E+03  0.7818608E-02  0.1023156E+00
          2   -1    0    0  501    0  0.00000000000E+00  0.00000000000E+00  0.20070556455E+04  0.20070556455E+04  0.25500000000E-02 0.  1.
         -2   -1    0    0    0  501 -0.00000000000E+00 -0.00000000000E+00 -0.27008164172E+02  0.27008164293E+02  0.25500000000E-02 0. -1.
    5000001    1    1    2    0    0 -0.94719714607E+02 -0.10102355319E+03  0.13759234741E+04  0.13926837363E+04  0.16500000000E+03 0.  0.
   -5000001    1    1    2    0    0  0.94719714607E+02  0.10102355319E+03  0.60412400727E+03  0.64138007359E+03  0.16500000000E+03 0.  0.
<mgrwt>
<rscale>  0 0.46564746E+03</rscale>
<asrwt>0</asrwt>
<pdfrwt beam="1">  1        2 0.30877790E+00 0.46564746E+03</pdfrwt>
<pdfrwt beam="2">  1       -2 0.41551007E-02 0.46564746E+03</pdfrwt>
<totfact> 0.18888866E+03</totfact>
</mgrwt>
</event>
<event>
 4    1  0.8362047E-005  0.4901067E+03  0.7818608E-02  0.1016394E+00
          2   -1    0    0  501    0  0.00000000000E+00  0.00000000000E+00  0.65152917312E+03  0.65152917313E+03  0.25500000000E-02 0.  1.
         -2   -1    0    0    0  501 -0.00000000000E+00 -0.00000000000E+00 -0.92169542659E+02  0.92169542694E+02  0.25500000000E-02 0. -1.
    5000001    1    1    2    0    0 -0.78307370274E+02 -0.12388449690E+03  0.44131719675E+03  0.49342201102E+03  0.16500000000E+03 0.  0.
   -5000001    1    1    2    0    0  0.78307370274E+02  0.12388449690E+03  0.11804243372E+03  0.25027670480E+03  0.16500000000E+03 0.  0.
<mgrwt>
<rscale>  0 0.49010671E+03</rscale>
<asrwt>0</asrwt>
<pdfrwt beam="1">  1        2 0.10023525E+00 0.49010671E+03</pdfrwt>
<pdfrwt beam="2">  1       -2 0.14179930E-01 0.49010671E+03</pdfrwt>
<totfact> 0.17265216E+03</totfact>
</mgrwt>
</event>
<event>
 4    1  0.8362047E-005  0.4548136E+03  0.7818608E-02  0.1026296E+00
         -2   -1    0    0    0  501 -0.00000000000E+00  0.00000000000E+00  0.56408444831E+02  0.56408444889E+02  0.25500000000E-02 0. -1.
          2   -1    0    0  501    0  0.00000000000E+00 -0.00000000000E+00 -0.91677485357E+03  0.91677485358E+03  0.25500000000E-02 0.  1.
    5000001    1    1    2    0    0 -0.79567573101E+02  0.11359666962E+03 -0.58527594441E+03  0.62370516524E+03  0.16500000000E+03 0.  0.
   -5000001    1    1    2    0    0  0.79567573101E+02 -0.11359666962E+03 -0.27509046433E+03  0.34947813323E+03  0.16500000000E+03 0.  0.
<mgrwt>
<rscale>  0 0.45481356E+03</rscale>
<asrwt>0</asrwt>
<pdfrwt beam="1">  1        2 0.14104227E+00 0.45481356E+03</pdfrwt>
<pdfrwt beam="2">  1       -2 0.86782229E-02 0.45481356E+03</pdfrwt>
<totfact> 0.24712644E+03</totfact>
</mgrwt>
</event>
<event>
 4    1  0.8362047E-005  0.3805890E+03  0.7818608E-02  0.1050716E+00
          2   -1    0    0  501    0  0.00000000000E+00  0.00000000000E+00  0.73321920659E+03  0.73321920660E+03  0.25500000000E-02 0.  1.
         -2   -1    0    0    0  501 -0.00000000000E+00 -0.00000000000E+00 -0.49387689719E+02  0.49387689784E+02  0.25500000000E-02 0. -1.
    5000001    1    1    2    0    0  0.49242040163E+02 -0.48617439895E+02  0.20867471174E+03  0.27487919037E+03  0.16500000000E+03 0.  0.
   -5000001    1    1    2    0    0 -0.49242040163E+02  0.48617439895E+02  0.47515680513E+03  0.50772770601E+03  0.16500000000E+03 0.  0.
<mgrwt>
<rscale>  0 0.38058903E+03</rscale>
<asrwt>0</asrwt>
<pdfrwt beam="1">  1        2 0.11280295E+00 0.38058903E+03</pdfrwt>
<pdfrwt beam="2">  1       -2 0.75981066E-02 0.38058903E+03</pdfrwt>
<totfact> 0.40815294E+03</totfact>
</mgrwt>
</event>
<event>
 4    1  0.8362047E-005  0.4994134E+03  0.7818608E-02  0.1013932E+00
          2   -1    0    0  501    0  0.00000000000E+00  0.00000000000E+00  0.25698904924E+04  0.25698904924E+04  0.25500000000E-02 0.  1.
         -2   -1    0    0    0  501 -0.00000000000E+00 -0.00000000000E+00 -0.24263068729E+02  0.24263068863E+02  0.25500000000E-02 0. -1.
    5000001    1    1    2    0    0  0.17035008679E+03 -0.77312610893E+02  0.12131260051E+04  0.12385055899E+04  0.16500000000E+03 0.  0.
   -5000001    1    1    2    0    0 -0.17035008679E+03  0.77312610893E+02  0.13325014186E+04  0.13556479714E+04  0.16500000000E+03 0.  0.
<mgrwt>
<rscale>  0 0.49941338E+03</rscale>
<asrwt>0</asrwt>
<pdfrwt beam="1">  1        2 0.39536784E+00 0.49941338E+03</pdfrwt>
<pdfrwt beam="2">  1       -2 0.37327792E-02 0.49941338E+03</pdfrwt>
<totfact> 0.10906068E+03</totfact>
</mgrwt>
</event>
<event>
 4    1  0.8362047E-005  0.4182906E+03  0.7818608E-02  0.1037624E+00
         -2   -1    0    0    0  501 -0.00000000000E+00  0.00000000000E+00  0.24991001769E+02  0.24991001899E+02  0.25500000000E-02 0. -1.
          2   -1    0    0  501    0  0.00000000000E+00 -0.00000000000E+00 -0.17503002426E+04  0.17503002426E+04  0.25500000000E-02 0.  1.
    5000001    1    1    2    0    0  0.37722690717E+02 -0.43603685390E+02 -0.37517706338E+03  0.41389263301E+03  0.16500000000E+03 0.  0.
   -5000001    1    1    2    0    0 -0.37722690717E+02  0.43603685390E+02 -0.13501321774E+04  0.13613986115E+04  0.16500000000E+03 0.  0.
<mgrwt>
<rscale>  0 0.41829060E+03</rscale>
<asrwt>0</asrwt>
<pdfrwt beam="1">  1        2 0.26927686E+00 0.41829060E+03</pdfrwt>
<pdfrwt beam="2">  1       -2 0.38447709E-02 0.41829060E+03</pdfrwt>
<totfact> 0.29232221E+03</totfact>
</mgrwt>
</event>
<event>
 4    1  0.8362047E-005  0.6752993E+03  0.7818608E-02  0.9760432E-01
          2   -1    0    0  501    0  0.00000000000E+00  0.00000000000E+00  0.14421383682E+04  0.14421383682E+04  0.25500000000E-02 0.  1.
         -2   -1    0    0    0  501 -0.00000000000E+00 -0.00000000000E+00 -0.79054337796E+02  0.79054337838E+02  0.25500000000E-02 0. -1.
    5000001    1    1    2    0    0 -0.87121553220E+02 -0.28110526697E+03  0.71108120602E+03  0.78706531985E+03  0.16500000000E+03 0.  0.
   -5000001    1    1    2    0    0  0.87121553220E+02  0.28110526697E+03  0.65200282438E+03  0.73412738619E+03  0.16500000000E+03 0.  0.
<mgrwt>
<rscale>  0 0.67529932E+03</rscale>
<asrwt>0</asrwt>
<pdfrwt beam="1">  1        2 0.22186745E+00 0.67529932E+03</pdfrwt>
<pdfrwt beam="2">  1       -2 0.12162205E-01 0.67529932E+03</pdfrwt>
<totfact> 0.69151929E+02</totfact>
</mgrwt>
</event>
<event>
 4    1  0.8362047E-005  0.5256570E+03  0.7818608E-02  0.1007291E+00
         -2   -1    0    0    0  501 -0.00000000000E+00  0.00000000000E+00  0.11542356716E+03  0.11542356719E+03  0.25500000000E-02 0. -1.
          2   -1    0    0  501    0  0.00000000000E+00 -0.00000000000E+00 -0.59848110657E+03  0.59848110658E+03  0.25500000000E-02 0.  1.
    5000001    1    1    2    0    0 -0.15249667525E+02  0.12064217598E+03 -0.18091449287E+02  0.20576537008E+03  0.16500000000E+03 0.  0.
   -5000001    1    1    2    0    0  0.15249667525E+02 -0.12064217598E+03 -0.46496609013E+03  0.50813930369E+03  0.16500000000E+03 0.  0.
<mgrwt>
<rscale>  0 0.52565701E+03</rscale>
<asrwt>0</asrwt>
<pdfrwt beam="1">  1        2 0.92074015E-01 0.52565701E+03</pdfrwt>
<pdfrwt beam="2">  1       -2 0.17757472E-01 0.52565701E+03</pdfrwt>
<totfact> 0.13077982E+03</totfact>
</mgrwt>
</event>
<event>
 4    1  0.8362047E-005  0.5237871E+03  0.7818608E-02  0.1007750E+00
         -2   -1    0    0    0  501 -0.00000000000E+00  0.00000000000E+00  0.14400268449E+04  0.14400268449E+04  0.25500000000E-02 0. -1.
          2   -1    0    0  501    0  0.00000000000E+00 -0.00000000000E+00 -0.47629836637E+02  0.47629836705E+02  0.25500000000E-02 0.  1.
    5000001    1    1    2    0    0  0.17983835686E+03  0.75424825588E+02  0.53224026157E+03  0.59036889734E+03  0.16500000000E+03 0.  0.
   -5000001    1    1    2    0    0 -0.17983835686E+03 -0.75424825588E+02  0.86015674669E+03  0.89728778427E+03  0.16500000000E+03 0.  0.
<mgrwt>
<rscale>  0 0.52378715E+03</rscale>
<asrwt>0</asrwt>
<pdfrwt beam="1">  1        2 0.73276686E-02 0.52378715E+03</pdfrwt>
<pdfrwt beam="2">  1       -2 0.22154255E+00 0.52378715E+03</pdfrwt>
<totfact> 0.99371533E+01</totfact>
</mgrwt>
</event>
<event>
 4    1  0.8362047E-005  0.7830391E+03  0.7818608E-02  0.9584897E-01
          2   -1    0    0  501    0  0.00000000000E+00  0.00000000000E+00  0.12291082937E+04  0.12291082937E+04  0.25500000000E-02 0.  1.
         -2   -1    0    0    0  501 -0.00000000000E+00 -0.00000000000E+00 -0.12471444031E+03  0.12471444033E+03  0.25500000000E-02 0. -1.
    5000001    1    1    2    0    0 -0.27949550872E+03 -0.21894957976E+03  0.55639473957E+03  0.68033577305E+03  0.16500000000E+03 0.  0.
   -5000001    1    1    2    0    0  0.27949550872E+03  0.21894957976E+03  0.54799911385E+03  0.67348696101E+03  0.16500000000E+03 0.  0.
<mgrwt>
<rscale>  0 0.78303909E+03</rscale>
<asrwt>0</asrwt>
<pdfrwt beam="1">  1        2 0.18909358E+00 0.78303909E+03</pdfrwt>
<pdfrwt beam="2">  1       -2 0.19186838E-01 0.78303909E+03</pdfrwt>
<totfact> 0.42053177E+02</totfact>
</mgrwt>
</event>
<event>
 4    1  0.8362047E-005  0.3559528E+03  0.7818608E-02  0.1060198E+00
         -2   -1    0    0    0  501 -0.00000000000E+00  0.00000000000E+00  0.68811003131E+01  0.68811007856E+01  0.25500000000E-02 0. -1.
          2   -1    0    0  501    0  0.00000000000E+00 -0.00000000000E+00 -0.46032749972E+04  0.46032749972E+04  0.25500000000E-02 0.  1.
    5000001    1    1    2    0    0  0.50858174745E+02  0.40985331069E+02 -0.24739987074E+04  0.24803550060E+04  0.16500000000E+03 0.  0.
   -5000001    1    1    2    0    0 -0.50858174745E+02 -0.40985331069E+02 -0.21223951894E+04  0.21298010920E+04  0.16500000000E+03 0.  0.
<mgrwt>
<rscale>  0 0.35595280E+03</rscale>
<asrwt>0</asrwt>
<pdfrwt beam="1">  1        2 0.70819369E+00 0.35595280E+03</pdfrwt>
<pdfrwt beam="2">  1       -2 0.10586345E-02 0.35595280E+03</pdfrwt>
<totfact> 0.25891441E+02</totfact>
</mgrwt>
</event>
<event>
 4    1  0.8362047E-005  0.5352383E+03  0.7818608E-02  0.1004970E+00
          2   -1    0    0  501    0  0.00000000000E+00  0.00000000000E+00  0.76748158660E+03  0.76748158661E+03  0.25500000000E-02 0.  1.
         -2   -1    0    0    0  501 -0.00000000000E+00 -0.00000000000E+00 -0.93318195272E+02  0.93318195307E+02  0.25500000000E-02 0. -1.
    5000001    1    1    2    0    0 -0.57421181382E+02  0.18715899205E+03  0.21178924992E+03  0.33227303044E+03  0.16500000000E+03 0.  0.
   -5000001    1    1    2    0    0  0.57421181382E+02 -0.18715899205E+03  0.46237414141E+03  0.52852675148E+03  0.16500000000E+03 0.  0.
<mgrwt>
<rscale>  0 0.53523825E+03</rscale>
<asrwt>0</asrwt>
<pdfrwt beam="1">  1        2 0.11807409E+00 0.53523825E+03</pdfrwt>
<pdfrwt beam="2">  1       -2 0.14356645E-01 0.53523825E+03</pdfrwt>
<totfact> 0.13775962E+03</totfact>
</mgrwt>
</event>
<event>
 4    1  0.8362047E-005  0.6298999E+03  0.7818608E-02  0.9845244E-01
          2   -1    0    0  501    0  0.00000000000E+00  0.00000000000E+00  0.43665294081E+03  0.43665294081E+03  0.25500000000E-02 0.  1.
         -2   -1    0    0    0  501 -0.00000000000E+00 -0.00000000000E+00 -0.22716777474E+03  0.22716777475E+03  0.25500000000E-02 0. -1.
    5000001    1    1    2    0    0  0.19042685790E+03  0.10705407596E+03  0.26883742962E+03  0.38369457509E+03  0.16500000000E+03 0.  0.
   -5000001    1    1    2    0    0 -0.19042685790E+03 -0.10705407596E+03 -0.59352263555E+02  0.28012614048E+03  0.16500000000E+03 0.  0.
<mgrwt>
<rscale>  0 0.62989992E+03</rscale>
<asrwt>0</asrwt>
<pdfrwt beam="1">  1        2 0.67177375E-01 0.62989992E+03</pdfrwt>
<pdfrwt beam="2">  1       -2 0.34948889E-01 0.62989992E+03</pdfrwt>
<totfact> 0.55687626E+02</totfact>
</mgrwt>
</event>
<event>
 4    1  0.8362047E-005  0.4727875E+03  0.7818608E-02  0.1021136E+00
         -2   -1    0    0    0  501 -0.00000000000E+00  0.00000000000E+00  0.77875570665E+02  0.77875570706E+02  0.25500000000E-02 0. -1.
          2   -1    0    0  501    0  0.00000000000E+00 -0.00000000000E+00 -0.71758081094E+03  0.71758081094E+03  0.25500000000E-02 0.  1.
    5000001    1    1    2    0    0  0.11313910881E+03  0.60531878005E+02 -0.13407396333E+03  0.24832517762E+03  0.16500000000E+03 0.  0.
   -5000001    1    1    2    0    0 -0.11313910881E+03 -0.60531878005E+02 -0.50563127694E+03  0.54713120403E+03  0.16500000000E+03 0.  0.
<mgrwt>
<rscale>  0 0.47278754E+03</rscale>
<asrwt>0</asrwt>
<pdfrwt beam="1">  1        2 0.11039704E+00 0.47278754E+03</pdfrwt>
<pdfrwt beam="2">  1       -2 0.11980857E-01 0.47278754E+03</pdfrwt>
<totfact> 0.20244769E+03</totfact>
</mgrwt>
</event>
<event>
 4    1  0.8362047E-005  0.5687365E+03  0.7818608E-02  0.9972478E-01
         -2   -1    0    0    0  501 -0.00000000000E+00  0.00000000000E+00  0.12847021368E+03  0.12847021371E+03  0.25500000000E-02 0. -1.
          2   -1    0    0  501    0  0.00000000000E+00 -0.00000000000E+00 -0.62944783731E+03  0.62944783731E+03  0.25500000000E-02 0.  1.
    5000001    1    1    2    0    0  0.13589118826E+03  0.87711310111E+02 -0.29574253510E+02  0.23293631198E+03  0.16500000000E+03 0.  0.
   -5000001    1    1    2    0    0 -0.13589118826E+03 -0.87711310111E+02 -0.47140337012E+03  0.52498173904E+03  0.16500000000E+03 0.  0.
<mgrwt>
<rscale>  0 0.56873649E+03</rscale>
<asrwt>0</asrwt>
<pdfrwt beam="1">  1        2 0.96838127E-01 0.56873649E+03</pdfrwt>
<pdfrwt beam="2">  1       -2 0.19764649E-01 0.56873649E+03</pdfrwt>
<totfact> 0.10228759E+03</totfact>
</mgrwt>
</event>
<event>
 4    1  0.8362047E-005  0.4064807E+03  0.7818608E-02  0.1041558E+00
          2   -1    0    0  501    0  0.00000000000E+00  0.00000000000E+00  0.14547354662E+04  0.14547354662E+04  0.25500000000E-02 0.  1.
         -2   -1    0    0    0  501 -0.00000000000E+00 -0.00000000000E+00 -0.28394601230E+02  0.28394601345E+02  0.25500000000E-02 0. -1.
    5000001    1    1    2    0    0 -0.76132082472E+02  0.75972480989E+02  0.89610591050E+03  0.91749589355E+03  0.16500000000E+03 0.  0.
   -5000001    1    1    2    0    0  0.76132082472E+02 -0.75972480989E+02  0.53023495444E+03  0.56563417397E+03  0.16500000000E+03 0.  0.
<mgrwt>
<rscale>  0 0.40648067E+03</rscale>
<asrwt>0</asrwt>
<pdfrwt beam="1">  1        2 0.22380544E+00 0.40648067E+03</pdfrwt>
<pdfrwt beam="2">  1       -2 0.43684005E-02 0.40648067E+03</pdfrwt>
<totfact> 0.34750239E+03</totfact>
</mgrwt>
</event>
<event>
 4    1  0.8362047E-005  0.4424256E+03  0.7818608E-02  0.1030005E+00
          2   -1    0    0  501    0  0.00000000000E+00  0.00000000000E+00  0.21727439502E+03  0.21727439503E+03  0.25500000000E-02 0.  1.
         -2   -1    0    0    0  501 -0.00000000000E+00 -0.00000000000E+00 -0.22522264382E+03  0.22522264384E+03  0.25500000000E-02 0. -1.
    5000001    1    1    2    0    0  0.13247922750E+03  0.64218467646E+02  0.19729583213E+01  0.22114169636E+03  0.16500000000E+03 0.  0.
   -5000001    1    1    2    0    0 -0.13247922750E+03 -0.64218467646E+02 -0.99212071263E+01  0.22135534251E+03  0.16500000000E+03 0.  0.
<mgrwt>
<rscale>  0 0.44242565E+03</rscale>
<asrwt>0</asrwt>
<pdfrwt beam="1">  1        2 0.33426830E-01 0.44242565E+03</pdfrwt>
<pdfrwt beam="2">  1       -2 0.34649638E-01 0.44242565E+03</pdfrwt>
<totfact> 0.12269583E+03</totfact>
</mgrwt>
</event>
<event>
 4    1  0.8362047E-005  0.4959611E+03  0.7818608E-02  0.1014839E+00
          2   -1    0    0  501    0  0.00000000000E+00  0.00000000000E+00  0.24432982591E+04  0.24432982591E+04  0.25500000000E-02 0.  1.
         -2   -1    0    0    0  501 -0.00000000000E+00 -0.00000000000E+00 -0.25168582693E+02  0.25168582823E+02  0.25500000000E-02 0. -1.
    5000001    1    1    2    0    0 -0.17582149595E+03  0.57880669764E+02  0.12212400898E+04  0.12461603939E+04  0.16500000000E+03 0.  0.
   -5000001    1    1    2    0    0  0.17582149595E+03 -0.57880669764E+02  0.11968895866E+04  0.12223064480E+04  0.16500000000E+03 0.  0.
<mgrwt>
<rscale>  0 0.49596111E+03</rscale>
<asrwt>0</asrwt>
<pdfrwt beam="1">  1        2 0.37589219E+00 0.49596111E+03</pdfrwt>
<pdfrwt beam="2">  1       -2 0.38720881E-02 0.49596111E+03</pdfrwt>
<totfact> 0.12145460E+03</totfact>
</mgrwt>
</event>
<event>
 4    1  0.8362047E-005  0.4240697E+03  0.7818608E-02  0.1035750E+00
         -2   -1    0    0    0  501 -0.00000000000E+00  0.00000000000E+00  0.14903121795E+03  0.14903121797E+03  0.25500000000E-02 0. -1.
          2   -1    0    0  501    0  0.00000000000E+00 -0.00000000000E+00 -0.30167355821E+03  0.30167355822E+03  0.25500000000E-02 0.  1.
    5000001    1    1    2    0    0  0.72745199626E+02  0.72139233999E+02 -0.16674013803E+03  0.25597501202E+03  0.16500000000E+03 0.  0.
   -5000001    1    1    2    0    0 -0.72745199626E+02 -0.72139233999E+02  0.14097797772E+02  0.19472976417E+03  0.16500000000E+03 0.  0.
<mgrwt>
<rscale>  0 0.42406970E+03</rscale>
<asrwt>0</asrwt>
<pdfrwt beam="1">  1        2 0.46411316E-01 0.42406970E+03</pdfrwt>
<pdfrwt beam="2">  1       -2 0.22927880E-01 0.42406970E+03</pdfrwt>
<totfact> 0.18129421E+03</totfact>
</mgrwt>
</event>
<event>
 4    1  0.8362047E-005  0.6525658E+03  0.7818608E-02  0.9801977E-01
         -2   -1    0    0    0  501 -0.00000000000E+00  0.00000000000E+00  0.23836357058E+03  0.23836357060E+03  0.25500000000E-02 0. -1.
          2   -1    0    0  501    0  0.00000000000E+00 -0.00000000000E+00 -0.44663082550E+03  0.44663082551E+03  0.25500000000E-02 0.  1.
    5000001    1    1    2    0    0 -0.25852841270E+03  0.11058208755E+03 -0.11782720910E+03  0.34666062577E+03  0.16500000000E+03 0.  0.
   -5000001    1    1    2    0    0  0.25852841270E+03 -0.11058208755E+03 -0.90440045823E+02  0.33833377033E+03  0.16500000000E+03 0.  0.
<mgrwt>
<rscale>  0 0.65256576E+03</rscale>
<asrwt>0</asrwt>
<pdfrwt beam="1">  1        2 0.68712435E-01 0.65256576E+03</pdfrwt>
<pdfrwt beam="2">  1       -2 0.36671319E-01 0.65256576E+03</pdfrwt>
<totfact> 0.49498117E+02</totfact>
</mgrwt>
</event>
<event>
 4    1  0.8362047E-005  0.6928937E+03  0.7818608E-02  0.9729463E-01
          2   -1    0    0  501    0  0.00000000000E+00  0.00000000000E+00  0.10059150535E+04  0.10059150535E+04  0.25500000000E-02 0.  1.
         -2   -1    0    0    0  501 -0.00000000000E+00 -0.00000000000E+00 -0.11931964032E+03  0.11931964034E+03  0.25500000000E-02 0. -1.
    5000001    1    1    2    0    0  0.26342879042E+03  0.11767358494E+03  0.60206979044E+03  0.68771711683E+03  0.16500000000E+03 0.  0.
   -5000001    1    1    2    0    0 -0.26342879042E+03 -0.11767358494E+03  0.28452562278E+03  0.43751757706E+03  0.16500000000E+03 0.  0.
<mgrwt>
<rscale>  0 0.69289371E+03</rscale>
<asrwt>0</asrwt>
<pdfrwt beam="1">  1        2 0.15475617E+00 0.69289371E+03</pdfrwt>
<pdfrwt beam="2">  1       -2 0.18356867E-01 0.69289371E+03</pdfrwt>
<totfact> 0.62329809E+02</totfact>
</mgrwt>
</event>
<event>
 4    1  0.8362047E-005  0.4775973E+03  0.7818608E-02  0.1019798E+00
          2   -1    0    0  501    0  0.00000000000E+00  0.00000000000E+00  0.86572601243E+02  0.86572601281E+02  0.25500000000E-02 0.  1.
         -2   -1    0    0    0  501 -0.00000000000E+00 -0.00000000000E+00 -0.65869334768E+03  0.65869334768E+03  0.25500000000E-02 0. -1.
    5000001    1    1    2    0    0 -0.46626669948E+02  0.16613234640E+03 -0.27813525004E+03  0.36654906928E+03  0.16500000000E+03 0.  0.
   -5000001    1    1    2    0    0  0.46626669948E+02 -0.16613234640E+03 -0.29398549639E+03  0.37871687969E+03  0.16500000000E+03 0.  0.
<mgrwt>
<rscale>  0 0.47759731E+03</rscale>
<asrwt>0</asrwt>
<pdfrwt beam="1">  1        2 0.13318862E-01 0.47759731E+03</pdfrwt>
<pdfrwt beam="2">  1       -2 0.10133743E+00 0.47759731E+03</pdfrwt>
<totfact> 0.37533502E+02</totfact>
</mgrwt>
</event>
<event>
 4    1  0.8362047E-005  0.6993599E+03  0.7818608E-02  0.9718328E-01
         -2   -1    0    0    0  501 -0.00000000000E+00  0.00000000000E+00  0.14964477235E+03  0.14964477237E+03  0.25500000000E-02 0. -1.
          2   -1    0    0  501    0  0.00000000000E+00 -0.00000000000E+00 -0.81710877878E+03  0.81710877879E+03  0.25500000000E-02 0.  1.
    5000001    1    1    2    0    0 -0.58253456479E+02  0.30002715185E+03 -0.38973471697E+03  0.52204205449E+03  0.16500000000E+03 0.  0.
   -5000001    1    1    2    0    0  0.58253456479E+02 -0.30002715185E+03 -0.27772928946E+03  0.44471149667E+03  0.16500000000E+03 0.  0.
<mgrwt>
<rscale>  0 0.69935987E+03</rscale>
<asrwt>0</asrwt>
<pdfrwt beam="1">  1        2 0.12570904E+00 0.69935987E+03</pdfrwt>
<pdfrwt beam="2">  1       -2 0.23022273E-01 0.69935987E+03</pdfrwt>
<totfact> 0.56006036E+02</totfact>
</mgrwt>
</event>
<event>
 4    1  0.8362047E-005  0.4052338E+03  0.7818608E-02  0.1041982E+00
          2   -1    0    0  501    0  0.00000000000E+00  0.00000000000E+00  0.43322803117E+03  0.43322803118E+03  0.25500000000E-02 0.  1.
         -2   -1    0    0    0  501 -0.00000000000E+00 -0.00000000000E+00 -0.94762146605E+02  0.94762146639E+02  0.25500000000E-02 0. -1.
    5000001    1    1    2    0    0 -0.10090167848E+03 -0.55888314379E+02  0.19905733455E+03  0.28311389023E+03  0.16500000000E+03 0.  0.
   -5000001    1    1    2    0    0  0.10090167848E+03  0.55888314379E+02  0.13940855002E+03  0.24487628759E+03  0.16500000000E+03 0.  0.
<mgrwt>
<rscale>  0 0.40523385E+03</rscale>
<asrwt>0</asrwt>
<pdfrwt beam="1">  1        2 0.66650466E-01 0.40523385E+03</pdfrwt>
<pdfrwt beam="2">  1       -2 0.14578792E-01 0.40523385E+03</pdfrwt>
<totfact> 0.26399169E+03</totfact>
</mgrwt>
</event>
<event>
 4    1  0.8362047E-005  0.4567815E+03  0.7818608E-02  0.1025719E+00
          2   -1    0    0  501    0  0.00000000000E+00  0.00000000000E+00  0.34012975554E+03  0.34012975555E+03  0.25500000000E-02 0.  1.
         -2   -1    0    0    0  501 -0.00000000000E+00 -0.00000000000E+00 -0.15336009461E+03  0.15336009463E+03  0.25500000000E-02 0. -1.
    5000001    1    1    2    0    0 -0.14470871260E+03  0.62751159591E+02  0.10168409826E+03  0.24988592471E+03  0.16500000000E+03 0.  0.
   -5000001    1    1    2    0    0  0.14470871260E+03 -0.62751159591E+02  0.85085562675E+02  0.24360392547E+03  0.16500000000E+03 0.  0.
<mgrwt>
<rscale>  0 0.45678149E+03</rscale>
<asrwt>0</asrwt>
<pdfrwt beam="1">  1        2 0.52327654E-01 0.45678149E+03</pdfrwt>
<pdfrwt beam="2">  1       -2 0.23593861E-01 0.45678149E+03</pdfrwt>
<totfact> 0.15121665E+03</totfact>
</mgrwt>
</event>
<event>
 4    1  0.8362047E-005  0.4207924E+03  0.7818608E-02  0.1036809E+00
         -2   -1    0    0    0  501 -0.00000000000E+00  0.00000000000E+00  0.78460740914E+03  0.78460740914E+03  0.25500000000E-02 0. -1.
          2   -1    0    0  501    0  0.00000000000E+00 -0.00000000000E+00 -0.56418741774E+02  0.56418741831E+02  0.25500000000E-02 0.  1.
    5000001    1    1    2    0    0 -0.80057416134E+02  0.10264990279E+03  0.34457574384E+03  0.40361322533E+03  0.16500000000E+03 0.  0.
   -5000001    1    1    2    0    0  0.80057416134E+02 -0.10264990279E+03  0.38361292353E+03  0.43741292564E+03  0.16500000000E+03 0.  0.
<mgrwt>
<rscale>  0 0.42079241E+03</rscale>
<asrwt>0</asrwt>
<pdfrwt beam="1">  1        2 0.86798066E-02 0.42079241E+03</pdfrwt>
<pdfrwt beam="2">  1       -2 0.12070883E+00 0.42079241E+03</pdfrwt>
<totfact> 0.42140394E+02</totfact>
</mgrwt>
</event>
<event>
 4    1  0.8362047E-005  0.6456085E+03  0.7818608E-02  0.9815054E-01
         -2   -1    0    0    0  501 -0.00000000000E+00  0.00000000000E+00  0.85971271018E+02  0.85971271056E+02  0.25500000000E-02 0. -1.
          2   -1    0    0  501    0  0.00000000000E+00 -0.00000000000E+00 -0.12120630260E+04  0.12120630260E+04  0.25500000000E-02 0.  1.
    5000001    1    1    2    0    0 -0.12261900114E+03  0.23251456154E+03 -0.74151241814E+03  0.80384333488E+03  0.16500000000E+03 0.  0.
   -5000001    1    1    2    0    0  0.12261900114E+03 -0.23251456154E+03 -0.38457933680E+03  0.49419096214E+03  0.16500000000E+03 0.  0.
<mgrwt>
<rscale>  0 0.64560855E+03</rscale>
<asrwt>0</asrwt>
<pdfrwt beam="1">  1        2 0.18647122E+00 0.64560855E+03</pdfrwt>
<pdfrwt beam="2">  1       -2 0.13226350E-01 0.64560855E+03</pdfrwt>
<totfact> 0.81551467E+02</totfact>
</mgrwt>
</event>
<event>
 4    1  0.8362047E-005  0.9482458E+03  0.7818608E-02  0.9367203E-01
         -2   -1    0    0    0  501 -0.00000000000E+00  0.00000000000E+00  0.13202024220E+03  0.13202024223E+03  0.25500000000E-02 0. -1.
          2   -1    0    0  501    0  0.00000000000E+00 -0.00000000000E+00 -0.17027124204E+04  0.17027124204E+04  0.25500000000E-02 0.  1.
    5000001    1    1    2    0    0 -0.26135276334E+03  0.35769294391E+03 -0.71510210833E+03  0.85723131906E+03  0.16500000000E+03 0.  0.
   -5000001    1    1    2    0    0  0.26135276334E+03 -0.35769294391E+03 -0.85559006984E+03  0.97750134355E+03  0.16500000000E+03 0.  0.
<mgrwt>
<rscale>  0 0.94824576E+03</rscale>
<asrwt>0</asrwt>
<pdfrwt beam="1">  1        2 0.26195574E+00 0.94824576E+03</pdfrwt>
<pdfrwt beam="2">  1       -2 0.20310808E-01 0.94824576E+03</pdfrwt>
<totfact> 0.20369028E+02</totfact>
</mgrwt>
</event>
<event>
 4    1  0.8362047E-005  0.4369054E+03  0.7818608E-02  0.1031701E+00
         -2   -1    0    0    0  501 -0.00000000000E+00  0.00000000000E+00  0.21045531711E+03  0.21045531713E+03  0.25500000000E-02 0. -1.
          2   -1    0    0  501    0  0.00000000000E+00 -0.00000000000E+00 -0.22675402572E+03  0.22675402573E+03  0.25500000000E-02 0.  1.
    5000001    1    1    2    0    0  0.15387769378E+02 -0.14202519242E+03  0.12726963406E+01  0.21825342720E+03  0.16500000000E+03 0.  0.
   -5000001    1    1    2    0    0 -0.15387769378E+02  0.14202519242E+03 -0.17571404943E+02  0.21895591566E+03  0.16500000000E+03 0.  0.
<mgrwt>
<rscale>  0 0.43690544E+03</rscale>
<asrwt>0</asrwt>
<pdfrwt beam="1">  1        2 0.34885235E-01 0.43690544E+03</pdfrwt>
<pdfrwt beam="2">  1       -2 0.32377741E-01 0.43690544E+03</pdfrwt>
<totfact> 0.13285666E+03</totfact>
</mgrwt>
</event>
<event>
 4    1  0.8362047E-005  0.6796322E+03  0.7818608E-02  0.9752712E-01
          2   -1    0    0  501    0  0.00000000000E+00  0.00000000000E+00  0.15212906197E+04  0.15212906197E+04  0.25500000000E-02 0.  1.
         -2   -1    0    0    0  501 -0.00000000000E+00 -0.00000000000E+00 -0.75905922996E+02  0.75905923039E+02  0.25500000000E-02 0. -1.
    5000001    1    1    2    0    0  0.26269667338E+03 -0.31204913184E+02  0.40506766290E+03  0.51116347711E+03  0.16500000000E+03 0.  0.
   -5000001    1    1    2    0    0 -0.26269667338E+03  0.31204913184E+02  0.10403170338E+04  0.10860330657E+04  0.16500000000E+03 0.  0.
<mgrwt>
<rscale>  0 0.67963216E+03</rscale>
<asrwt>0</asrwt>
<pdfrwt beam="1">  1        2 0.23404469E+00 0.67963216E+03</pdfrwt>
<pdfrwt beam="2">  1       -2 0.11677835E-01 0.67963216E+03</pdfrwt>
<totfact> 0.66802405E+02</totfact>
</mgrwt>
</event>
<event>
 4    1  0.8362047E-005  0.7142779E+03  0.7818608E-02  0.9693122E-01
          2   -1    0    0  501    0  0.00000000000E+00  0.00000000000E+00  0.59304820105E+03  0.59304820106E+03  0.25500000000E-02 0.  1.
         -2   -1    0    0    0  501 -0.00000000000E+00 -0.00000000000E+00 -0.21507227322E+03  0.21507227324E+03  0.25500000000E-02 0. -1.
    5000001    1    1    2    0    0  0.29371894254E+03 -0.11483809887E+03  0.15572038568E+03  0.38850025055E+03  0.16500000000E+03 0.  0.
   -5000001    1    1    2    0    0 -0.29371894254E+03  0.11483809887E+03  0.22225554215E+03  0.41962022375E+03  0.16500000000E+03 0.  0.
<mgrwt>
<rscale>  0 0.71427789E+03</rscale>
<asrwt>0</asrwt>
<pdfrwt beam="1">  1        2 0.91238185E-01 0.71427789E+03</pdfrwt>
<pdfrwt beam="2">  1       -2 0.33088042E-01 0.71427789E+03</pdfrwt>
<totfact> 0.43171093E+02</totfact>
</mgrwt>
</event>
<event>
 4    1  0.8362047E-005  0.4571442E+03  0.7818608E-02  0.1025613E+00
          2   -1    0    0  501    0  0.00000000000E+00  0.00000000000E+00  0.21309295781E+04  0.21309295782E+04  0.25500000000E-02 0.  1.
         -2   -1    0    0    0  501 -0.00000000000E+00 -0.00000000000E+00 -0.24517568242E+02  0.24517568374E+02  0.25500000000E-02 0. -1.
    5000001    1    1    2    0    0 -0.15584103946E+03  0.27074931847E+02  0.10491775393E+04  0.10737867528E+04  0.16500000000E+03 0.  0.
   -5000001    1    1    2    0    0  0.15584103946E+03 -0.27074931847E+02  0.10572344706E+04  0.10816603938E+04  0.16500000000E+03 0.  0.
<mgrwt>
<rscale>  0 0.45714423E+03</rscale>
<asrwt>0</asrwt>
<pdfrwt beam="1">  1        2 0.32783528E+00 0.45714423E+03</pdfrwt>
<pdfrwt beam="2">  1       -2 0.37719341E-02 0.45714423E+03</pdfrwt>
<totfact> 0.18787413E+03</totfact>
</mgrwt>
</event>
<event>
 4    1  0.8362047E-005  0.5216238E+03  0.7818608E-02  0.1008284E+00
          2   -1    0    0  501    0  0.00000000000E+00  0.00000000000E+00  0.15269512789E+04  0.15269512789E+04  0.25500000000E-02 0.  1.
         -2   -1    0    0    0  501 -0.00000000000E+00 -0.00000000000E+00 -0.44548139728E+02  0.44548139801E+02  0.25500000000E-02 0. -1.
    5000001    1    1    2    0    0  0.29894024079E+02 -0.19744873767E+03  0.83249117107E+03  0.87186363991E+03  0.16500000000E+03 0.  0.
   -5000001    1    1    2    0    0 -0.29894024079E+02  0.19744873767E+03  0.64991196806E+03  0.69963577876E+03  0.16500000000E+03 0.  0.
<mgrwt>
<rscale>  0 0.52162377E+03</rscale>
<asrwt>0</asrwt>
<pdfrwt beam="1">  1        2 0.23491559E+00 0.52162377E+03</pdfrwt>
<pdfrwt beam="2">  1       -2 0.68535596E-02 0.52162377E+03</pdfrwt>
<totfact> 0.15743206E+03</totfact>
</mgrwt>
</event>
<event>
 4    1  0.8362047E-005  0.3719542E+03  0.7818608E-02  0.1053948E+00
          2   -1    0    0  501    0  0.00000000000E+00  0.00000000000E+00  0.10322743925E+04  0.10322743925E+04  0.25500000000E-02 0.  1.
         -2   -1    0    0    0  501 -0.00000000000E+00 -0.00000000000E+00 -0.33506096434E+02  0.33506096531E+02  0.25500000000E-02 0. -1.
    5000001    1    1    2    0    0  0.82826260422E+00  0.57648419534E+02  0.68147415805E+03  0.70353113249E+03  0.16500000000E+03 0.  0.
   -5000001    1    1    2    0    0 -0.82826260422E+00 -0.57648419534E+02  0.31729413799E+03  0.36224935651E+03  0.16500000000E+03 0.  0.
<mgrwt>
<rscale>  0 0.37195422E+03</rscale>
<asrwt>0</asrwt>
<pdfrwt beam="1">  1        2 0.15881143E+00 0.37195422E+03</pdfrwt>
<pdfrwt beam="2">  1       -2 0.51547846E-02 0.37195422E+03</pdfrwt>
<totfact> 0.47086753E+03</totfact>
</mgrwt>
</event>
<event>
 4    1  0.8362047E-005  0.8238568E+03  0.7818608E-02  0.9526113E-01
         -2   -1    0    0    0  501 -0.00000000000E+00  0.00000000000E+00  0.13241196253E+04  0.13241196253E+04  0.25500000000E-02 0. -1.
          2   -1    0    0  501    0  0.00000000000E+00 -0.00000000000E+00 -0.12814930293E+03  0.12814930295E+03  0.25500000000E-02 0.  1.
    5000001    1    1    2    0    0  0.11132431001E+03 -0.33005853859E+03  0.34175677366E+03  0.51512564801E+03  0.16500000000E+03 0.  0.
   -5000001    1    1    2    0    0 -0.11132431001E+03  0.33005853859E+03  0.85421354870E+03  0.93714328023E+03  0.16500000000E+03 0.  0.
<mgrwt>
<rscale>  0 0.82385680E+03</rscale>
<asrwt>0</asrwt>
<pdfrwt beam="1">  1        2 0.19715278E-01 0.82385680E+03</pdfrwt>
<pdfrwt beam="2">  1       -2 0.20371071E+00 0.82385680E+03</pdfrwt>
<totfact> 0.36812170E+01</totfact>
</mgrwt>
</event>
<event>
 4    1  0.8362047E-005  0.3901774E+03  0.7818608E-02  0.1047235E+00
         -2   -1    0    0    0  501 -0.00000000000E+00  0.00000000000E+00  0.80165515815E+03  0.80165515816E+03  0.25500000000E-02 0. -1.
          2   -1    0    0  501    0  0.00000000000E+00 -0.00000000000E+00 -0.47476265697E+02  0.47476265765E+02  0.25500000000E-02 0.  1.
    5000001    1    1    2    0    0  0.35413279834E+02 -0.82973052255E+02  0.49008725276E+03  0.52492775036E+03  0.16500000000E+03 0.  0.
   -5000001    1    1    2    0    0 -0.35413279834E+02  0.82973052255E+02  0.26409163970E+03  0.32420367356E+03  0.16500000000E+03 0.  0.
<mgrwt>
<rscale>  0 0.39017736E+03</rscale>
<asrwt>0</asrwt>
<pdfrwt beam="1">  1        2 0.73040408E-02 0.39017736E+03</pdfrwt>
<pdfrwt beam="2">  1       -2 0.12333156E+00 0.39017736E+03</pdfrwt>
<totfact> 0.49905193E+02</totfact>
</mgrwt>
</event>
<event>
 4    1  0.8362047E-005  0.3677887E+03  0.7818608E-02  0.1055542E+00
         -2   -1    0    0    0  501 -0.00000000000E+00  0.00000000000E+00  0.70704644525E+02  0.70704644571E+02  0.25500000000E-02 0. -1.
          2   -1    0    0  501    0  0.00000000000E+00 -0.00000000000E+00 -0.47828731160E+03  0.47828731160E+03  0.25500000000E-02 0.  1.
    5000001    1    1    2    0    0 -0.24042034431E+02 -0.76339156111E+02 -0.18340933971E+03  0.25936397604E+03  0.16500000000E+03 0.  0.
   -5000001    1    1    2    0    0  0.24042034431E+02  0.76339156111E+02 -0.22417332736E+03  0.28962798013E+03  0.16500000000E+03 0.  0.
<mgrwt>
<rscale>  0 0.36778871E+03</rscale>
<asrwt>0</asrwt>
<pdfrwt beam="1">  1        2 0.73582661E-01 0.36778871E+03</pdfrwt>
<pdfrwt beam="2">  1       -2 0.10877638E-01 0.36778871E+03</pdfrwt>
<totfact> 0.38117781E+03</totfact>
</mgrwt>
</event>
<event>
 4    1  0.8362047E-005  0.3934905E+03  0.7818608E-02  0.1046057E+00
         -2   -1    0    0    0  501 -0.00000000000E+00  0.00000000000E+00  0.37085120835E+02  0.37085120922E+02  0.25500000000E-02 0. -1.
          2   -1    0    0  501    0  0.00000000000E+00 -0.00000000000E+00 -0.10437793668E+04  0.10437793668E+04  0.25500000000E-02 0.  1.
    5000001    1    1    2    0    0 -0.47686825037E+02 -0.95662269351E+02 -0.52433519588E+03  0.55998008955E+03  0.16500000000E+03 0.  0.
   -5000001    1    1    2    0    0  0.47686825037E+02  0.95662269351E+02 -0.48235905010E+03  0.52088439819E+03  0.16500000000E+03 0.  0.
<mgrwt>
<rscale>  0 0.39349045E+03</rscale>
<asrwt>0</asrwt>
<pdfrwt beam="1">  1        2 0.16058142E+00 0.39349045E+03</pdfrwt>
<pdfrwt beam="2">  1       -2 0.57054040E-02 0.39349045E+03</pdfrwt>
<totfact> 0.39646519E+03</totfact>
</mgrwt>
</event>
<event>
 4    1  0.8362047E-005  0.6449628E+03  0.7818608E-02  0.9816277E-01
          2   -1    0    0  501    0  0.00000000000E+00  0.00000000000E+00  0.81301864385E+03  0.81301864385E+03  0.25500000000E-02 0.  1.
         -2   -1    0    0    0  501 -0.00000000000E+00 -0.00000000000E+00 -0.12791129077E+03  0.12791129080E+03  0.25500000000E-02 0. -1.
    5000001    1    1    2    0    0 -0.15111237299E+03 -0.20359622408E+03  0.17955645153E+03  0.35178386975E+03  0.16500000000E+03 0.  0.
   -5000001    1    1    2    0    0  0.15111237299E+03  0.20359622408E+03  0.50555090155E+03  0.58914606490E+03  0.16500000000E+03 0.  0.
<mgrwt>
<rscale>  0 0.64496283E+03</rscale>
<asrwt>0</asrwt>
<pdfrwt beam="1">  1        2 0.12507979E+00 0.64496283E+03</pdfrwt>
<pdfrwt beam="2">  1       -2 0.19678660E-01 0.64496283E+03</pdfrwt>
<totfact> 0.74450576E+02</totfact>
</mgrwt>
</event>
<event>
 4    1  0.8362047E-005  0.6431178E+03  0.7818608E-02  0.9819780E-01
         -2   -1    0    0    0  501 -0.00000000000E+00  0.00000000000E+00  0.12113740724E+03  0.12113740726E+03  0.25500000000E-02 0. -1.
          2   -1    0    0  501    0  0.00000000000E+00 -0.00000000000E+00 -0.85357704481E+03  0.85357704481E+03  0.25500000000E-02 0.  1.
    5000001    1    1    2    0    0 -0.22942539268E+03  0.94088562105E+01 -0.59831367052E+03  0.66176187992E+03  0.16500000000E+03 0.  0.
   -5000001    1    1    2    0    0  0.22942539268E+03 -0.94088562105E+01 -0.13412596705E+03  0.31295257215E+03  0.16500000000E+03 0.  0.
<mgrwt>
<rscale>  0 0.64311775E+03</rscale>
<asrwt>0</asrwt>
<pdfrwt beam="1">  1        2 0.13131954E+00 0.64311775E+03</pdfrwt>
<pdfrwt beam="2">  1       -2 0.18636525E-01 0.64311775E+03</pdfrwt>
<totfact> 0.76659620E+02</totfact>
</mgrwt>
</event>
<event>
 4    1  0.8362047E-005  0.6173078E+03  0.7818608E-02  0.9870134E-01
          2   -1    0    0  501    0  0.00000000000E+00  0.00000000000E+00  0.32956812579E+02  0.32956812678E+02  0.25500000000E-02 0.  1.
         -2   -1    0    0    0  501 -0.00000000000E+00 -0.00000000000E+00 -0.28906689991E+04  0.28906689991E+04  0.25500000000E-02 0. -1.
    5000001    1    1    2    0    0  0.20612687841E+03 -0.14112429583E+03 -0.10732428628E+04  0.11142170343E+04  0.16500000000E+03 0.  0.
   -5000001    1    1    2    0    0 -0.20612687841E+03  0.14112429583E+03 -0.17844693237E+04  0.18094087775E+04  0.16500000000E+03 0.  0.
<mgrwt>
<rscale>  0 0.61730782E+03</rscale>
<asrwt>0</asrwt>
<pdfrwt beam="1">  1        2 0.50702811E-02 0.61730782E+03</pdfrwt>
<pdfrwt beam="2">  1       -2 0.44471811E+00 0.61730782E+03</pdfrwt>
<totfact> 0.66497461E+00</totfact>
</mgrwt>
</event>
<event>
 4    1  0.8362047E-005  0.4266237E+03  0.7818608E-02  0.1034932E+00
         -2   -1    0    0    0  501 -0.00000000000E+00  0.00000000000E+00  0.13267958479E+02  0.13267958724E+02  0.25500000000E-02 0. -1.
          2   -1    0    0  501    0  0.00000000000E+00 -0.00000000000E+00 -0.34294614141E+04  0.34294614141E+04  0.25500000000E-02 0.  1.
    5000001    1    1    2    0    0  0.68768197301E+01  0.13339332470E+03 -0.15396189933E+04  0.15541855469E+04  0.16500000000E+03 0.  0.
   -5000001    1    1    2    0    0 -0.68768197301E+01 -0.13339332470E+03 -0.18765744623E+04  0.18885438259E+04  0.16500000000E+03 0.  0.
<mgrwt>
<rscale>  0 0.42662373E+03</rscale>
<asrwt>0</asrwt>
<pdfrwt beam="1">  1        2 0.52760874E+00 0.42662373E+03</pdfrwt>
<pdfrwt beam="2">  1       -2 0.20412271E-02 0.42662373E+03</pdfrwt>
<totfact> 0.82320307E+02</totfact>
</mgrwt>
</event>
<event>
 4    1  0.8362047E-005  0.3643847E+03  0.7818608E-02  0.1056861E+00
         -2   -1    0    0    0  501 -0.00000000000E+00  0.00000000000E+00  0.74520400743E+02  0.74520400787E+02  0.25500000000E-02 0. -1.
          2   -1    0    0  501    0  0.00000000000E+00 -0.00000000000E+00 -0.44543580099E+03  0.44543580100E+03  0.25500000000E-02 0.  1.
    5000001    1    1    2    0    0  0.69537415583E+02 -0.13103695649E+02 -0.22971353528E+03  0.29154839615E+03  0.16500000000E+03 0.  0.
   -5000001    1    1    2    0    0 -0.69537415583E+02  0.13103695649E+02 -0.14120186497E+03  0.22840780564E+03  0.16500000000E+03 0.  0.
<mgrwt>
<rscale>  0 0.36438471E+03</rscale>
<asrwt>0</asrwt>
<pdfrwt beam="1">  1        2 0.68528583E-01 0.36438471E+03</pdfrwt>
<pdfrwt beam="2">  1       -2 0.11464677E-01 0.36438471E+03</pdfrwt>
<totfact> 0.37904523E+03</totfact>
</mgrwt>
</event>
<event>
 4    1  0.8362047E-005  0.7263605E+03  0.7818608E-02  0.9673185E-01
          2   -1    0    0  501    0  0.00000000000E+00  0.00000000000E+00  0.13714963110E+04  0.13714963110E+04  0.25500000000E-02 0.  1.
         -2   -1    0    0    0  501 -0.00000000000E+00 -0.00000000000E+00 -0.96172250411E+02  0.96172250445E+02  0.25500000000E-02 0. -1.
    5000001    1    1    2    0    0 -0.30702067425E+03 -0.10165103586E+03  0.65576388738E+03  0.74956380882E+03  0.16500000000E+03 0.  0.
   -5000001    1    1    2    0    0  0.30702067425E+03  0.10165103586E+03  0.61956017319E+03  0.71810475261E+03  0.16500000000E+03 0.  0.
<mgrwt>
<rscale>  0 0.72636048E+03</rscale>
<asrwt>0</asrwt>
<pdfrwt beam="1">  1        2 0.21099942E+00 0.72636048E+03</pdfrwt>
<pdfrwt beam="2">  1       -2 0.14795732E-01 0.72636048E+03</pdfrwt>
<totfact> 0.54488475E+02</totfact>
</mgrwt>
</event>
<event>
 4    1  0.8362047E-005  0.9547114E+03  0.7818608E-02  0.9359661E-01
          2   -1    0    0  501    0  0.00000000000E+00  0.00000000000E+00  0.87099149041E+03  0.87099149042E+03  0.25500000000E-02 0.  1.
         -2   -1    0    0    0  501 -0.00000000000E+00 -0.00000000000E+00 -0.26161961614E+03  0.26161961615E+03  0.25500000000E-02 0. -1.
    5000001    1    1    2    0    0 -0.41067974195E+02  0.44602129937E+03  0.29913653450E+03  0.56331984189E+03  0.16500000000E+03 0.  0.
   -5000001    1    1    2    0    0  0.41067974195E+02 -0.44602129937E+03  0.31023533977E+03  0.56929126468E+03  0.16500000000E+03 0.  0.
<mgrwt>
<rscale>  0 0.95471139E+03</rscale>
<asrwt>0</asrwt>
<pdfrwt beam="1">  1        2 0.13399869E+00 0.95471139E+03</pdfrwt>
<pdfrwt beam="2">  1       -2 0.40249172E-01 0.95471139E+03</pdfrwt>
<totfact> 0.17928488E+02</totfact>
</mgrwt>
</event>
<event>
 4    1  0.8362047E-005  0.5148007E+03  0.7818608E-02  0.1009986E+00
          2   -1    0    0  501    0  0.00000000000E+00  0.00000000000E+00  0.10997993353E+04  0.10997993353E+04  0.25500000000E-02 0. -1.
         -2   -1    0    0    0  501 -0.00000000000E+00 -0.00000000000E+00 -0.60242760049E+02  0.60242760103E+02  0.25500000000E-02 0.  1.
    5000001    1    1    2    0    0  0.74377180453E+02 -0.17537136909E+03  0.63779318851E+03  0.68577856002E+03  0.16500000000E+03 0.  0.
   -5000001    1    1    2    0    0 -0.74377180453E+02  0.17537136909E+03  0.40176338671E+03  0.47426353536E+03  0.16500000000E+03 0.  0.
<mgrwt>
<rscale>  0 0.51480073E+03</rscale>
<asrwt>0</asrwt>
<pdfrwt beam="1">  1        2 0.16919990E+00 0.51480073E+03</pdfrwt>
<pdfrwt beam="2">  1       -2 0.92681170E-02 0.51480073E+03</pdfrwt>
<totfact> 0.17074592E+03</totfact>
</mgrwt>
</event>
<event>
 4    1  0.8362047E-005  0.4880031E+03  0.7818608E-02  0.1016959E+00
         -2   -1    0    0    0  501 -0.00000000000E+00  0.00000000000E+00  0.41210040383E+02  0.41210040462E+02  0.25500000000E-02 0. -1.
          2   -1    0    0  501    0  0.00000000000E+00 -0.00000000000E+00 -0.14447146884E+04  0.14447146884E+04  0.25500000000E-02 0.  1.
    5000001    1    1    2    0    0  0.49638926714E+02  0.16201633940E+03 -0.88440708072E+03  0.91548577362E+03  0.16500000000E+03 0.  0.
   -5000001    1    1    2    0    0 -0.49638926714E+02 -0.16201633940E+03 -0.51909756725E+03  0.57043895520E+03  0.16500000000E+03 0.  0.
<mgrwt>
<rscale>  0 0.48800308E+03</rscale>
<asrwt>0</asrwt>
<pdfrwt beam="1">  1        2 0.22226376E+00 0.48800308E+03</pdfrwt>
<pdfrwt beam="2">  1       -2 0.63400073E-02 0.48800308E+03</pdfrwt>
<totfact> 0.19764373E+03</totfact>
</mgrwt>
</event>
<event>
 4    1  0.8362047E-005  0.6128251E+03  0.7818608E-02  0.9879150E-01
          2   -1    0    0  501    0  0.00000000000E+00  0.00000000000E+00  0.46823445105E+03  0.46823445105E+03  0.25500000000E-02 0.  1.
         -2   -1    0    0    0  501 -0.00000000000E+00 -0.00000000000E+00 -0.20051634578E+03  0.20051634580E+03  0.25500000000E-02 0. -1.
    5000001    1    1    2    0    0  0.18759876626E+03  0.15096795469E+03  0.32195892507E+02  0.29367702658E+03  0.16500000000E+03 0.  0.
   -5000001    1    1    2    0    0 -0.18759876626E+03 -0.15096795469E+03  0.23552221276E+03  0.37507377027E+03  0.16500000000E+03 0.  0.
<mgrwt>
<rscale>  0 0.61282513E+03</rscale>
<asrwt>0</asrwt>
<pdfrwt beam="1">  1        2 0.72036069E-01 0.61282513E+03</pdfrwt>
<pdfrwt beam="2">  1       -2 0.30848669E-01 0.61282513E+03</pdfrwt>
<totfact> 0.65042772E+02</totfact>
</mgrwt>
</event>
<event>
 4    1  0.8362047E-005  0.3413641E+03  0.7818608E-02  0.1066216E+00
          2   -1    0    0  501    0  0.00000000000E+00  0.00000000000E+00  0.15364394742E+04  0.15364394742E+04  0.25500000000E-02 0.  1.
         -2   -1    0    0    0  501 -0.00000000000E+00 -0.00000000000E+00 -0.18960959755E+02  0.18960959926E+02  0.25500000000E-02 0. -1.
    5000001    1    1    2    0    0  0.34721020632E+02 -0.23522998091E+02  0.81426159660E+03  0.83186887693E+03  0.16500000000E+03 0.  0.
   -5000001    1    1    2    0    0 -0.34721020632E+02  0.23522998091E+02  0.70321691784E+03  0.72353155719E+03  0.16500000000E+03 0.  0.
<mgrwt>
<rscale>  0 0.34136413E+03</rscale>
<asrwt>0</asrwt>
<pdfrwt beam="1">  1        2 0.23637532E+00 0.34136413E+03</pdfrwt>
<pdfrwt beam="2">  1       -2 0.29170706E-02 0.34136413E+03</pdfrwt>
<totfact> 0.57756399E+03</totfact>
</mgrwt>
</event>
<event>
 4    1  0.8362047E-005  0.4528553E+03  0.7818608E-02  0.1026874E+00
         -2   -1    0    0    0  501 -0.00000000000E+00  0.00000000000E+00  0.57443136096E+02  0.57443136153E+02  0.25500000000E-02 0. -1.
          2   -1    0    0  501    0  0.00000000000E+00 -0.00000000000E+00 -0.89252561362E+03  0.89252561362E+03  0.25500000000E-02 0.  1.
    5000001    1    1    2    0    0  0.14706595345E+03  0.26707901628E+02 -0.50410320099E+03  0.55107780206E+03  0.16500000000E+03 0.  0.
   -5000001    1    1    2    0    0 -0.14706595345E+03 -0.26707901628E+02 -0.33097927653E+03  0.39889094772E+03  0.16500000000E+03 0.  0.
<mgrwt>
<rscale>  0 0.45285525E+03</rscale>
<asrwt>0</asrwt>
<pdfrwt beam="1">  1        2 0.13731162E+00 0.45285525E+03</pdfrwt>
<pdfrwt beam="2">  1       -2 0.88374062E-02 0.45285525E+03</pdfrwt>
<totfact> 0.24905784E+03</totfact>
</mgrwt>
</event>
<event>
 4    1  0.8362047E-005  0.3654108E+03  0.7818608E-02  0.1056462E+00
         -2   -1    0    0    0  501 -0.00000000000E+00  0.00000000000E+00  0.89573463598E+02  0.89573463634E+02  0.25500000000E-02 0. -1.
          2   -1    0    0  501    0  0.00000000000E+00 -0.00000000000E+00 -0.37266921346E+03  0.37266921347E+03  0.25500000000E-02 0.  1.
    5000001    1    1    2    0    0 -0.29380431242E+02 -0.69385126864E+02 -0.16922688506E+03  0.24807306222E+03  0.16500000000E+03 0.  0.
   -5000001    1    1    2    0    0  0.29380431242E+02  0.69385126864E+02 -0.11386886480E+03  0.21416961489E+03  0.16500000000E+03 0.  0.
<mgrwt>
<rscale>  0 0.36541085E+03</rscale>
<asrwt>0</asrwt>
<pdfrwt beam="1">  1        2 0.57333724E-01 0.36541085E+03</pdfrwt>
<pdfrwt beam="2">  1       -2 0.13780533E-01 0.36541085E+03</pdfrwt>
<totfact> 0.34153865E+03</totfact>
</mgrwt>
</event>
<event>
 4    1  0.8362047E-005  0.5318264E+03  0.7818608E-02  0.1005790E+00
         -2   -1    0    0    0  501 -0.00000000000E+00  0.00000000000E+00  0.30329871226E+03  0.30329871227E+03  0.25500000000E-02 0. -1.
          2   -1    0    0  501    0  0.00000000000E+00 -0.00000000000E+00 -0.23313590176E+03  0.23313590177E+03  0.25500000000E-02 0.  1.
    5000001    1    1    2    0    0 -0.18766681803E+03 -0.85096807939E+02  0.67366838747E+02  0.27244007098E+03  0.16500000000E+03 0.  0.
   -5000001    1    1    2    0    0  0.18766681803E+03  0.85096807939E+02  0.27959717574E+01  0.26399454307E+03  0.16500000000E+03 0.  0.
<mgrwt>
<rscale>  0 0.53182636E+03</rscale>
<asrwt>0</asrwt>
<pdfrwt beam="1">  1        2 0.35867062E-01 0.53182636E+03</pdfrwt>
<pdfrwt beam="2">  1       -2 0.46661340E-01 0.53182636E+03</pdfrwt>
<totfact> 0.63771899E+02</totfact>
</mgrwt>
</event>
<event>
 4    1  0.8362047E-005  0.4688775E+03  0.7818608E-02  0.1022238E+00
          2   -1    0    0  501    0  0.00000000000E+00  0.00000000000E+00  0.51933983413E+03  0.51933983414E+03  0.25500000000E-02 0.  1.
         -2   -1    0    0    0  501 -0.00000000000E+00 -0.00000000000E+00 -0.10582959083E+03  0.10582959086E+03  0.25500000000E-02 0. -1.
    5000001    1    1    2    0    0  0.21572728204E+02  0.77388363941E+02  0.12243111845E+02  0.18392725536E+03  0.16500000000E+03 0.  0.
   -5000001    1    1    2    0    0 -0.21572728204E+02 -0.77388363941E+02  0.40126713146E+03  0.44124216963E+03  0.16500000000E+03 0.  0.
<mgrwt>
<rscale>  0 0.46887748E+03</rscale>
<asrwt>0</asrwt>
<pdfrwt beam="1">  1        2 0.79898436E-01 0.46887748E+03</pdfrwt>
<pdfrwt beam="2">  1       -2 0.16281476E-01 0.46887748E+03</pdfrwt>
<totfact> 0.17892997E+03</totfact>
</mgrwt>
</event>
<event>
 4    1  0.8362047E-005  0.5783328E+03  0.7818608E-02  0.9951407E-01
          2   -1    0    0  501    0  0.00000000000E+00  0.00000000000E+00  0.33821518085E+03  0.33821518086E+03  0.25500000000E-02 0.  1.
         -2   -1    0    0    0  501 -0.00000000000E+00 -0.00000000000E+00 -0.24723077231E+03  0.24723077232E+03  0.25500000000E-02 0. -1.
    5000001    1    1    2    0    0  0.10371940405E+03  0.20729099854E+03  0.97750074050E+02  0.30084439471E+03  0.16500000000E+03 0.  0.
   -5000001    1    1    2    0    0 -0.10371940405E+03 -0.20729099854E+03 -0.67656655014E+01  0.28460155847E+03  0.16500000000E+03 0.  0.
<mgrwt>
<rscale>  0 0.57833278E+03</rscale>
<asrwt>0</asrwt>
<pdfrwt beam="1">  1        2 0.52033105E-01 0.57833278E+03</pdfrwt>
<pdfrwt beam="2">  1       -2 0.38035504E-01 0.57833278E+03</pdfrwt>
<totfact> 0.63072096E+02</totfact>
</mgrwt>
</event>
<event>
 4    1  0.8362047E-005  0.5124962E+03  0.7818608E-02  0.1010568E+00
          2   -1    0    0  501    0  0.00000000000E+00  0.00000000000E+00  0.20356253828E+03  0.20356253830E+03  0.25500000000E-02 0.  1.
         -2   -1    0    0    0  501 -0.00000000000E+00 -0.00000000000E+00 -0.32256965469E+03  0.32256965470E+03  0.25500000000E-02 0. -1.
    5000001    1    1    2    0    0  0.12410564401E+03  0.75159480448E+02 -0.19487148146E+03  0.29368529528E+03  0.16500000000E+03 0.  0.
   -5000001    1    1    2    0    0 -0.12410564401E+03 -0.75159480448E+02  0.75864365055E+02  0.23244689772E+03  0.16500000000E+03 0.  0.
<mgrwt>
<rscale>  0 0.51249623E+03</rscale>
<asrwt>0</asrwt>
<pdfrwt beam="1">  1        2 0.31317314E-01 0.51249623E+03</pdfrwt>
<pdfrwt beam="2">  1       -2 0.49626101E-01 0.51249623E+03</pdfrwt>
<totfact> 0.65545283E+02</totfact>
</mgrwt>
</event>
<event>
 4    1  0.8362047E-005  0.5610965E+03  0.7818608E-02  0.9989577E-01
         -2   -1    0    0    0  501 -0.00000000000E+00  0.00000000000E+00  0.17926132830E+03  0.17926132832E+03  0.25500000000E-02 0. -1.
          2   -1    0    0  501    0  0.00000000000E+00 -0.00000000000E+00 -0.43906473887E+03  0.43906473888E+03  0.25500000000E-02 0.  1.
    5000001    1    1    2    0    0  0.20917717921E+03  0.87105813557E+02 -0.11687141354E+03  0.30368806753E+03  0.16500000000E+03 0.  0.
   -5000001    1    1    2    0    0 -0.20917717921E+03 -0.87105813557E+02 -0.14293199704E+03  0.31463799967E+03  0.16500000000E+03 0.  0.
<mgrwt>
<rscale>  0 0.56109653E+03</rscale>
<asrwt>0</asrwt>
<pdfrwt beam="1">  1        2 0.67548421E-01 0.56109653E+03</pdfrwt>
<pdfrwt beam="2">  1       -2 0.27578666E-01 0.56109653E+03</pdfrwt>
<totfact> 0.86044871E+02</totfact>
</mgrwt>
</event>
<event>
 4    1  0.8362047E-005  0.3953441E+03  0.7818608E-02  0.1045404E+00
         -2   -1    0    0    0  501 -0.00000000000E+00  0.00000000000E+00  0.55832030940E+02  0.55832030998E+02  0.25500000000E-02 0. -1.
          2   -1    0    0  501    0  0.00000000000E+00 -0.00000000000E+00 -0.69985340993E+03  0.69985340994E+03  0.25500000000E-02 0.  1.
    5000001    1    1    2    0    0 -0.34342853049E+02  0.96925128451E+02 -0.39027225940E+03  0.43601760118E+03  0.16500000000E+03 0.  0.
   -5000001    1    1    2    0    0  0.34342853049E+02 -0.96925128451E+02 -0.25374911959E+03  0.31966783975E+03  0.16500000000E+03 0.  0.
<mgrwt>
<rscale>  0 0.39534409E+03</rscale>
<asrwt>0</asrwt>
<pdfrwt beam="1">  1        2 0.10766975E+00 0.39534409E+03</pdfrwt>
<pdfrwt beam="2">  1       -2 0.85895437E-02 0.39534409E+03</pdfrwt>
<totfact> 0.35651901E+03</totfact>
</mgrwt>
</event>
<event>
 4    1  0.8362047E-005  0.4021720E+03  0.7818608E-02  0.1043030E+00
          2   -1    0    0  501    0  0.00000000000E+00  0.00000000000E+00  0.34920326348E+03  0.34920326349E+03  0.25500000000E-02 0.  1.
         -2   -1    0    0    0  501 -0.00000000000E+00 -0.00000000000E+00 -0.11579382476E+03  0.11579382479E+03  0.25500000000E-02 0. -1.
    5000001    1    1    2    0    0  0.96321730892E+02 -0.62337287881E+02  0.12461175558E+03  0.23646755154E+03  0.16500000000E+03 0.  0.
   -5000001    1    1    2    0    0 -0.96321730892E+02  0.62337287881E+02  0.10879768314E+03  0.22852953673E+03  0.16500000000E+03 0.  0.
<mgrwt>
<rscale>  0 0.40217201E+03</rscale>
<asrwt>0</asrwt>
<pdfrwt beam="1">  1        2 0.53723578E-01 0.40217201E+03</pdfrwt>
<pdfrwt beam="2">  1       -2 0.17814435E-01 0.40217201E+03</pdfrwt>
<totfact> 0.23895427E+03</totfact>
</mgrwt>
</event>
<event>
 4    1  0.8362047E-005  0.6318228E+03  0.7818608E-02  0.9841498E-01
         -2   -1    0    0    0  501 -0.00000000000E+00  0.00000000000E+00  0.14889614858E+03  0.14889614860E+03  0.25500000000E-02 0. -1.
          2   -1    0    0  501    0  0.00000000000E+00 -0.00000000000E+00 -0.67026596867E+03  0.67026596867E+03  0.25500000000E-02 0.  1.
    5000001    1    1    2    0    0  0.26222973949E+03  0.39375593171E+02 -0.19904770270E+03  0.37035099779E+03  0.16500000000E+03 0.  0.
   -5000001    1    1    2    0    0 -0.26222973949E+03 -0.39375593171E+02 -0.32232211739E+03  0.44881111948E+03  0.16500000000E+03 0.  0.
<mgrwt>
<rscale>  0 0.63182283E+03</rscale>
<asrwt>0</asrwt>
<pdfrwt beam="1">  1        2 0.10311784E+00 0.63182283E+03</pdfrwt>
<pdfrwt beam="2">  1       -2 0.22907100E-01 0.63182283E+03</pdfrwt>
<totfact> 0.72996695E+02</totfact>
</mgrwt>
</event>
<event>
 4    1  0.8362047E-005  0.3929268E+03  0.7818608E-02  0.1046257E+00
          2   -1    0    0  501    0  0.00000000000E+00  0.00000000000E+00  0.13685915739E+03  0.13685915742E+03  0.25500000000E-02 0.  1.
         -2   -1    0    0    0  501 -0.00000000000E+00 -0.00000000000E+00 -0.28202624168E+03  0.28202624169E+03  0.25500000000E-02 0. -1.
    5000001    1    1    2    0    0 -0.33938806254E+02 -0.91333745506E+02 -0.26370185375E+02  0.19342720159E+03  0.16500000000E+03 0.  0.
   -5000001    1    1    2    0    0  0.33938806254E+02  0.91333745506E+02 -0.11879689891E+03  0.22545819752E+03  0.16500000000E+03 0.  0.
<mgrwt>
<rscale>  0 0.39292683E+03</rscale>
<asrwt>0</asrwt>
<pdfrwt beam="1">  1        2 0.21055255E-01 0.39292683E+03</pdfrwt>
<pdfrwt beam="2">  1       -2 0.43388652E-01 0.39292683E+03</pdfrwt>
<totfact> 0.13407214E+03</totfact>
</mgrwt>
</event>
<event>
 4    1  0.8362047E-005  0.3861067E+03  0.7818608E-02  0.1048699E+00
          2   -1    0    0  501    0  0.00000000000E+00  0.00000000000E+00  0.20456960739E+04  0.20456960739E+04  0.25500000000E-02 0.  1.
         -2   -1    0    0    0  501 -0.00000000000E+00 -0.00000000000E+00 -0.18218543741E+02  0.18218543919E+02  0.25500000000E-02 0. -1.
    5000001    1    1    2    0    0  0.28677300969E+02 -0.90868568860E+02  0.84767502293E+03  0.86882531553E+03  0.16500000000E+03 0.  0.
   -5000001    1    1    2    0    0 -0.28677300969E+02  0.90868568860E+02  0.11798025073E+04  0.11950893023E+04  0.16500000000E+03 0.  0.
<mgrwt>
<rscale>  0 0.38610674E+03</rscale>
<asrwt>0</asrwt>
<pdfrwt beam="1">  1        2 0.31472237E+00 0.38610674E+03</pdfrwt>
<pdfrwt beam="2">  1       -2 0.28028538E-02 0.38610674E+03</pdfrwt>
<totfact> 0.32813906E+03</totfact>
</mgrwt>
</event>
<event>
 4    1  0.8362047E-005  0.9316314E+03  0.7818608E-02  0.9386882E-01
         -2   -1    0    0    0  501 -0.00000000000E+00  0.00000000000E+00  0.10674158876E+03  0.10674158879E+03  0.25500000000E-02 0. -1.
          2   -1    0    0  501    0  0.00000000000E+00 -0.00000000000E+00 -0.20327997508E+04  0.20327997508E+04  0.25500000000E-02 0.  1.
    5000001    1    1    2    0    0 -0.12694768138E+03 -0.28850089461E+03 -0.27249248436E+03  0.44813573170E+03  0.16500000000E+03 0.  0.
   -5000001    1    1    2    0    0  0.12694768138E+03  0.28850089461E+03 -0.16535656777E+04  0.16914056079E+04  0.16500000000E+03 0.  0.
<mgrwt>
<rscale>  0 0.93163142E+03</rscale>
<asrwt>0</asrwt>
<pdfrwt beam="1">  1        2 0.31273839E+00 0.93163142E+03</pdfrwt>
<pdfrwt beam="2">  1       -2 0.16421784E-01 0.93163142E+03</pdfrwt>
<totfact> 0.19426239E+02</totfact>
</mgrwt>
</event>
<event>
 4    1  0.8362047E-005  0.4254095E+03  0.7818608E-02  0.1035320E+00
          2   -1    0    0  501    0  0.00000000000E+00  0.00000000000E+00  0.18024106869E+04  0.18024106869E+04  0.25500000000E-02 0.  1.
         -2   -1    0    0    0  501 -0.00000000000E+00 -0.00000000000E+00 -0.25101556987E+02  0.25101557117E+02  0.25500000000E-02 0. -1.
    5000001    1    1    2    0    0  0.45034120678E+02  0.11343341599E+03  0.11287291750E+04  0.11472357048E+04  0.16500000000E+03 0.  0.
   -5000001    1    1    2    0    0 -0.45034120678E+02 -0.11343341599E+03  0.64857995495E+03  0.68027653924E+03  0.16500000000E+03 0.  0.
<mgrwt>
<rscale>  0 0.42540952E+03</rscale>
<asrwt>0</asrwt>
<pdfrwt beam="1">  1        2 0.27729403E+00 0.42540952E+03</pdfrwt>
<pdfrwt beam="2">  1       -2 0.38617770E-02 0.42540952E+03</pdfrwt>
<totfact> 0.27227069E+03</totfact>
</mgrwt>
</event>
<event>
 4    1  0.8362047E-005  0.8810077E+03  0.7818608E-02  0.9449639E-01
          2   -1    0    0  501    0  0.00000000000E+00  0.00000000000E+00  0.25992282375E+04  0.25992282375E+04  0.25500000000E-02 0.  1.
         -2   -1    0    0    0  501 -0.00000000000E+00 -0.00000000000E+00 -0.74654331486E+02  0.74654331530E+02  0.25500000000E-02 0. -1.
    5000001    1    1    2    0    0  0.22597629401E+03  0.58451612960E+02  0.22795273226E+04  0.22973793094E+04  0.16500000000E+03 0.  0.
   -5000001    1    1    2    0    0 -0.22597629401E+03 -0.58451612960E+02  0.24504658340E+03  0.37650325967E+03  0.16500000000E+03 0.  0.
<mgrwt>
<rscale>  0 0.88100771E+03</rscale>
<asrwt>0</asrwt>
<pdfrwt beam="1">  1        2 0.39988128E+00 0.88100771E+03</pdfrwt>
<pdfrwt beam="2">  1       -2 0.11485281E-01 0.88100771E+03</pdfrwt>
<totfact> 0.17127964E+02</totfact>
</mgrwt>
</event>
<event>
 4    1  0.8362047E-005  0.3852999E+03  0.7818608E-02  0.1048992E+00
          2   -1    0    0  501    0  0.00000000000E+00  0.00000000000E+00  0.51903050910E+03  0.51903050911E+03  0.25500000000E-02 0.  1.
         -2   -1    0    0    0  501 -0.00000000000E+00 -0.00000000000E+00 -0.71506392327E+02  0.71506392373E+02  0.25500000000E-02 0. -1.
    5000001    1    1    2    0    0 -0.38360263276E+01 -0.93297601583E+02  0.17134028466E+03  0.25554187662E+03  0.16500000000E+03 0.  0.
   -5000001    1    1    2    0    0  0.38360263276E+01  0.93297601583E+02  0.27618383212E+03  0.33499502486E+03  0.16500000000E+03 0.  0.
<mgrwt>
<rscale>  0 0.38529988E+03</rscale>
<asrwt>0</asrwt>
<pdfrwt beam="1">  1        2 0.79850842E-01 0.38529988E+03</pdfrwt>
<pdfrwt beam="2">  1       -2 0.11000984E-01 0.38529988E+03</pdfrwt>
<totfact> 0.34147562E+03</totfact>
</mgrwt>
</event>
<event>
 4    1  0.8362047E-005  0.4700523E+03  0.7818608E-02  0.1021905E+00
          2   -1    0    0  501    0  0.00000000000E+00  0.00000000000E+00  0.10210302360E+04  0.10210302360E+04  0.25500000000E-02 0.  1.
         -2   -1    0    0    0  501 -0.00000000000E+00 -0.00000000000E+00 -0.54099556155E+02  0.54099556215E+02  0.25500000000E-02 0. -1.
    5000001    1    1    2    0    0  0.14276110197E+03 -0.87103640521E+02  0.49872430169E+03  0.55128822364E+03  0.16500000000E+03 0.  0.
   -5000001    1    1    2    0    0 -0.14276110197E+03  0.87103640521E+02  0.46820637819E+03  0.52384156861E+03  0.16500000000E+03 0.  0.
<mgrwt>
<rscale>  0 0.47005226E+03</rscale>
<asrwt>0</asrwt>
<pdfrwt beam="1">  1        2 0.15708157E+00 0.47005226E+03</pdfrwt>
<pdfrwt beam="2">  1       -2 0.83230089E-02 0.47005226E+03</pdfrwt>
<totfact> 0.22668660E+03</totfact>
</mgrwt>
</event>
<event>
 4    1  0.8362047E-005  0.5133308E+03  0.7818608E-02  0.1010357E+00
          2   -1    0    0  501    0  0.00000000000E+00  0.00000000000E+00  0.38944432742E+03  0.38944432743E+03  0.25500000000E-02 0.  1.
         -2   -1    0    0    0  501 -0.00000000000E+00 -0.00000000000E+00 -0.16915671179E+03  0.16915671181E+03  0.25500000000E-02 0. -1.
    5000001    1    1    2    0    0  0.66835361439E+02 -0.17334311497E+03  0.40149288670E+02  0.25169776802E+03  0.16500000000E+03 0.  0.
   -5000001    1    1    2    0    0 -0.66835361439E+02  0.17334311497E+03  0.18013832696E+03  0.30690327122E+03  0.16500000000E+03 0.  0.
<mgrwt>
<rscale>  0 0.51333078E+03</rscale>
<asrwt>0</asrwt>
<pdfrwt beam="1">  1        2 0.59914511E-01 0.51333078E+03</pdfrwt>
<pdfrwt beam="2">  1       -2 0.26024110E-01 0.51333078E+03</pdfrwt>
<totfact> 0.10933445E+03</totfact>
</mgrwt>
</event>
<event>
 4    1  0.8362047E-005  0.8033921E+03  0.7818608E-02  0.9555120E-01
          2   -1    0    0  501    0  0.00000000000E+00  0.00000000000E+00  0.16633974781E+04  0.16633974781E+04  0.25500000000E-02 0.  1.
         -2   -1    0    0    0  501 -0.00000000000E+00 -0.00000000000E+00 -0.97006098211E+02  0.97006098244E+02  0.25500000000E-02 0. -1.
    5000001    1    1    2    0    0  0.33330433528E+03  0.26687044424E+01  0.45062319188E+03  0.58428174964E+03  0.16500000000E+03 0.  0.
   -5000001    1    1    2    0    0 -0.33330433528E+03 -0.26687044424E+01  0.11157681880E+04  0.11761218267E+04  0.16500000000E+03 0.  0.
<mgrwt>
<rscale>  0 0.80339206E+03</rscale>
<asrwt>0</asrwt>
<pdfrwt beam="1">  1        2 0.25590730E+00 0.80339206E+03</pdfrwt>
<pdfrwt beam="2">  1       -2 0.14924015E-01 0.80339206E+03</pdfrwt>
<totfact> 0.36770628E+02</totfact>
</mgrwt>
</event>
<event>
 4    1  0.8362047E-005  0.3980614E+03  0.7818608E-02  0.1044453E+00
          2   -1    0    0  501    0  0.00000000000E+00  0.00000000000E+00  0.18420798375E+04  0.18420798375E+04  0.25500000000E-02 0.  1.
         -2   -1    0    0    0  501 -0.00000000000E+00 -0.00000000000E+00 -0.21504620993E+02  0.21504621144E+02  0.25500000000E-02 0. -1.
    5000001    1    1    2    0    0 -0.61030058115E+01 -0.59185255074E+02  0.46991157605E+03  0.50157953547E+03  0.16500000000E+03 0.  0.
   -5000001    1    1    2    0    0  0.61030058115E+01  0.59185255074E+02  0.13506636404E+04  0.13620049231E+04  0.16500000000E+03 0.  0.
<mgrwt>
<rscale>  0 0.39806145E+03</rscale>
<asrwt>0</asrwt>
<pdfrwt beam="1">  1        2 0.28339691E+00 0.39806145E+03</pdfrwt>
<pdfrwt beam="2">  1       -2 0.33084031E-02 0.39806145E+03</pdfrwt>
<totfact> 0.32809604E+03</totfact>
</mgrwt>
</event>
<event>
 4    1  0.8362047E-005  0.4560025E+03  0.7818608E-02  0.1025947E+00
          2   -1    0    0  501    0  0.00000000000E+00  0.00000000000E+00  0.97084608034E+03  0.97084608035E+03  0.25500000000E-02 0. -1.
         -2   -1    0    0    0  501 -0.00000000000E+00 -0.00000000000E+00 -0.53545633925E+02  0.53545633986E+02  0.25500000000E-02 0.  1.
    5000001    1    1    2    0    0 -0.15324247695E+03 -0.31736160214E+02  0.49550370072E+03  0.54519662328E+03  0.16500000000E+03 0.  0.
   -5000001    1    1    2    0    0  0.15324247695E+03  0.31736160214E+02  0.42179674570E+03  0.47919509106E+03  0.16500000000E+03 0.  0.
<mgrwt>
<rscale>  0 0.45600249E+03</rscale>
<asrwt>0</asrwt>
<pdfrwt beam="1">  1        2 0.14936094E+00 0.45600249E+03</pdfrwt>
<pdfrwt beam="2">  1       -2 0.82377895E-02 0.45600249E+03</pdfrwt>
<totfact> 0.24777182E+03</totfact>
</mgrwt>
</event>
<event>
 4    1  0.8362047E-005  0.3770136E+03  0.7818608E-02  0.1052043E+00
          2   -1    0    0  501    0  0.00000000000E+00  0.00000000000E+00  0.72124660386E+02  0.72124660432E+02  0.25500000000E-02 0. -1.
         -2   -1    0    0    0  501 -0.00000000000E+00 -0.00000000000E+00 -0.49268591579E+03  0.49268591579E+03  0.25500000000E-02 0.  1.
    5000001    1    1    2    0    0 -0.22206267169E+02 -0.84879049762E+02 -0.17321219535E+03  0.25480391678E+03  0.16500000000E+03 0.  0.
   -5000001    1    1    2    0    0  0.22206267169E+02  0.84879049762E+02 -0.24734906005E+03  0.31000665944E+03  0.16500000000E+03 0.  0.
<mgrwt>
<rscale>  0 0.37701355E+03</rscale>
<asrwt>0</asrwt>
<pdfrwt beam="1">  1        2 0.11096102E-01 0.37701355E+03</pdfrwt>
<pdfrwt beam="2">  1       -2 0.75797831E-01 0.37701355E+03</pdfrwt>
<totfact> 0.90873582E+02</totfact>
</mgrwt>
</event>
<event>
 4    1  0.8362047E-005  0.3710543E+03  0.7818608E-02  0.1054291E+00
          2   -1    0    0  501    0  0.00000000000E+00  0.00000000000E+00  0.71831420698E+02  0.71831420743E+02  0.25500000000E-02 0.  1.
         -2   -1    0    0    0  501 -0.00000000000E+00 -0.00000000000E+00 -0.47918203340E+03  0.47918203340E+03  0.25500000000E-02 0. -1.
    5000001    1    1    2    0    0 -0.68435160994E+02  0.42494990144E+02 -0.16421437843E+03  0.24633423946E+03  0.16500000000E+03 0.  0.
   -5000001    1    1    2    0    0  0.68435160994E+02 -0.42494990144E+02 -0.24313623427E+03  0.30467921468E+03  0.16500000000E+03 0.  0.
<mgrwt>
<rscale>  0 0.37105432E+03</rscale>
<asrwt>0</asrwt>
<pdfrwt beam="1">  1        2 0.11050988E-01 0.37105432E+03</pdfrwt>
<pdfrwt beam="2">  1       -2 0.73720311E-01 0.37105432E+03</pdfrwt>
<totfact> 0.97042454E+02</totfact>
</mgrwt>
</event>
<event>
 4    1  0.8362047E-005  0.7632682E+03  0.7818608E-02  0.9614762E-01
         -2   -1    0    0    0  501 -0.00000000000E+00  0.00000000000E+00  0.26766602304E+03  0.26766602305E+03  0.25500000000E-02 0. -1.
          2   -1    0    0  501    0  0.00000000000E+00 -0.00000000000E+00 -0.54412803905E+03  0.54412803906E+03  0.25500000000E-02 0.  1.
    5000001    1    1    2    0    0 -0.19353432095E+03 -0.24302639579E+03  0.19171926483E+02  0.35229238595E+03  0.16500000000E+03 0.  0.
   -5000001    1    1    2    0    0  0.19353432095E+03  0.24302639579E+03 -0.29563394250E+03  0.45950167616E+03  0.16500000000E+03 0.  0.
<mgrwt>
<rscale>  0 0.76326821E+03</rscale>
<asrwt>0</asrwt>
<pdfrwt beam="1">  1        2 0.83712006E-01 0.76326821E+03</pdfrwt>
<pdfrwt beam="2">  1       -2 0.41179388E-01 0.76326821E+03</pdfrwt>
<totfact> 0.31365390E+02</totfact>
</mgrwt>
</event>
<event>
 4    1  0.8362047E-005  0.5045668E+03  0.7818608E-02  0.1012594E+00
          2   -1    0    0  501    0  0.00000000000E+00  0.00000000000E+00  0.70964657074E+03  0.70964657075E+03  0.25500000000E-02 0.  1.
         -2   -1    0    0    0  501 -0.00000000000E+00 -0.00000000000E+00 -0.89688168894E+02  0.89688168931E+02  0.25500000000E-02 0. -1.
    5000001    1    1    2    0    0 -0.65864873215E+02  0.17716304531E+03  0.26815585515E+03  0.36722947702E+03  0.16500000000E+03 0.  0.
   -5000001    1    1    2    0    0  0.65864873215E+02 -0.17716304531E+03  0.35180254670E+03  0.43210526265E+03  0.16500000000E+03 0.  0.
<mgrwt>
<rscale>  0 0.50456675E+03</rscale>
<asrwt>0</asrwt>
<pdfrwt beam="1">  1        2 0.10917640E+00 0.50456675E+03</pdfrwt>
<pdfrwt beam="2">  1       -2 0.13798180E-01 0.50456675E+03</pdfrwt>
<totfact> 0.16260828E+03</totfact>
</mgrwt>
</event>
<event>
 4    1  0.8362047E-005  0.5025506E+03  0.7818608E-02  0.1013115E+00
          2   -1    0    0  501    0  0.00000000000E+00  0.00000000000E+00  0.10296524785E+03  0.10296524789E+03  0.25500000000E-02 0.  1.
         -2   -1    0    0    0  501 -0.00000000000E+00 -0.00000000000E+00 -0.61320963564E+03  0.61320963565E+03  0.25500000000E-02 0. -1.
    5000001    1    1    2    0    0  0.18540275871E+03 -0.28570907955E+02 -0.29346194455E+03  0.38540289649E+03  0.16500000000E+03 0.  0.
   -5000001    1    1    2    0    0 -0.18540275871E+03  0.28570907955E+02 -0.21678244323E+03  0.33077198704E+03  0.16500000000E+03 0.  0.
<mgrwt>
<rscale>  0 0.50255062E+03</rscale>
<asrwt>0</asrwt>
<pdfrwt beam="1">  1        2 0.15840808E-01 0.50255062E+03</pdfrwt>
<pdfrwt beam="2">  1       -2 0.94339942E-01 0.50255062E+03</pdfrwt>
<totfact> 0.35948120E+02</totfact>
</mgrwt>
</event>
<event>
 4    1  0.8362047E-005  0.5408203E+03  0.7818608E-02  0.1003641E+00
          2   -1    0    0  501    0  0.00000000000E+00  0.00000000000E+00  0.19558100562E+03  0.19558100563E+03  0.25500000000E-02 0.  1.
         -2   -1    0    0    0  501 -0.00000000000E+00 -0.00000000000E+00 -0.37386892790E+03  0.37386892791E+03  0.25500000000E-02 0. -1.
    5000001    1    1    2    0    0 -0.34814953914E+02  0.20724488069E+03 -0.13299142901E+03  0.29845308136E+03  0.16500000000E+03 0.  0.
   -5000001    1    1    2    0    0  0.34814953914E+02 -0.20724488069E+03 -0.45296493273E+02  0.27099685218E+03  0.16500000000E+03 0.  0.
<mgrwt>
<rscale>  0 0.54082034E+03</rscale>
<asrwt>0</asrwt>
<pdfrwt beam="1">  1        2 0.30089386E-01 0.54082034E+03</pdfrwt>
<pdfrwt beam="2">  1       -2 0.57518296E-01 0.54082034E+03</pdfrwt>
<totfact> 0.50636368E+02</totfact>
</mgrwt>
</event>
<event>
 4    1  0.8362047E-005  0.5543184E+03  0.7818608E-02  0.1000499E+00
          2   -1    0    0  501    0  0.00000000000E+00  0.00000000000E+00  0.13156996784E+04  0.13156996784E+04  0.25500000000E-02 0.  1.
         -2   -1    0    0    0  501 -0.00000000000E+00 -0.00000000000E+00 -0.58385082297E+02  0.58385082353E+02  0.25500000000E-02 0. -1.
    5000001    1    1    2    0    0 -0.11995055382E+03  0.10616480009E+03  0.10121472419E+04  0.10379432256E+04  0.16500000000E+03 0.  0.
   -5000001    1    1    2    0    0  0.11995055382E+03 -0.10616480009E+03  0.24516735422E+03  0.33614153524E+03  0.16500000000E+03 0.  0.
<mgrwt>
<rscale>  0 0.55431844E+03</rscale>
<asrwt>0</asrwt>
<pdfrwt beam="1">  1        2 0.20241535E+00 0.55431844E+03</pdfrwt>
<pdfrwt beam="2">  1       -2 0.89823197E-02 0.55431844E+03</pdfrwt>
<totfact> 0.13416207E+03</totfact>
</mgrwt>
</event>
<event>
 4    1  0.8362047E-005  0.4823222E+03  0.7818608E-02  0.1018499E+00
          2   -1    0    0  501    0  0.00000000000E+00  0.00000000000E+00  0.92361177755E+03  0.92361177755E+03  0.25500000000E-02 0.  1.
         -2   -1    0    0    0  501 -0.00000000000E+00 -0.00000000000E+00 -0.62968750101E+02  0.62968750152E+02  0.25500000000E-02 0. -1.
    5000001    1    1    2    0    0 -0.12605527141E+03  0.65053236879E+02  0.64301038333E+03  0.67882929235E+03  0.16500000000E+03 0.  0.
   -5000001    1    1    2    0    0  0.12605527141E+03 -0.65053236879E+02  0.21763264412E+03  0.30775123536E+03  0.16500000000E+03 0.  0.
<mgrwt>
<rscale>  0 0.48232221E+03</rscale>
<asrwt>0</asrwt>
<pdfrwt beam="1">  1        2 0.14209412E+00 0.48232221E+03</pdfrwt>
<pdfrwt beam="2">  1       -2 0.96875001E-02 0.48232221E+03</pdfrwt>
<totfact> 0.20508438E+03</totfact>
</mgrwt>
</event>
<event>
 4    1  0.8362047E-005  0.6218001E+03  0.7818608E-02  0.9861182E-01
          2   -1    0    0  501    0  0.00000000000E+00  0.00000000000E+00  0.22842864914E+04  0.22842864914E+04  0.25500000000E-02 0.  1.
         -2   -1    0    0    0  501 -0.00000000000E+00 -0.00000000000E+00 -0.42314679461E+02  0.42314679537E+02  0.25500000000E-02 0. -1.
    5000001    1    1    2    0    0 -0.12101220673E+03  0.23235322348E+03  0.10150300961E+04  0.10611988836E+04  0.16500000000E+03 0.  0.
   -5000001    1    1    2    0    0  0.12101220673E+03 -0.23235322348E+03  0.12269417158E+04  0.12654022873E+04  0.16500000000E+03 0.  0.
<mgrwt>
<rscale>  0 0.62180013E+03</rscale>
<asrwt>0</asrwt>
<pdfrwt beam="1">  1        2 0.35142879E+00 0.62180013E+03</pdfrwt>
<pdfrwt beam="2">  1       -2 0.65099489E-02 0.62180013E+03</pdfrwt>
<totfact> 0.65809036E+02</totfact>
</mgrwt>
</event>
<event>
 4    1  0.8362047E-005  0.3702854E+03  0.7818608E-02  0.1054584E+00
          2   -1    0    0  501    0  0.00000000000E+00  0.00000000000E+00  0.20777157870E+04  0.20777157870E+04  0.25500000000E-02 0.  1.
         -2   -1    0    0    0  501 -0.00000000000E+00 -0.00000000000E+00 -0.16497842540E+02  0.16497842737E+02  0.25500000000E-02 0. -1.
    5000001    1    1    2    0    0 -0.34003654398E+02  0.69593512718E+02  0.84705447276E+03  0.86644433482E+03  0.16500000000E+03 0.  0.
   -5000001    1    1    2    0    0  0.34003654398E+02 -0.69593512718E+02  0.12141634717E+04  0.12277692949E+04  0.16500000000E+03 0.  0.
<mgrwt>
<rscale>  0 0.37028545E+03</rscale>
<asrwt>0</asrwt>
<pdfrwt beam="1">  1        2 0.31964873E+00 0.37028545E+03</pdfrwt>
<pdfrwt beam="2">  1       -2 0.25381285E-02 0.37028545E+03</pdfrwt>
<totfact> 0.36619521E+03</totfact>
</mgrwt>
</event>
<event>
 4    1  0.8362047E-005  0.5476031E+03  0.7818608E-02  0.1002050E+00
         -2   -1    0    0    0  501 -0.00000000000E+00  0.00000000000E+00  0.21217933566E+04  0.21217933566E+04  0.25500000000E-02 0. -1.
          2   -1    0    0  501    0  0.00000000000E+00 -0.00000000000E+00 -0.35332041814E+02  0.35332041906E+02  0.25500000000E-02 0.  1.
    5000001    1    1    2    0    0 -0.16619095234E+03 -0.13336621879E+03  0.12336340967E+04  0.12627288171E+04  0.16500000000E+03 0.  0.
   -5000001    1    1    2    0    0  0.16619095234E+03  0.13336621879E+03  0.85282721809E+03  0.89439658142E+03  0.16500000000E+03 0.  0.
<mgrwt>
<rscale>  0 0.54760311E+03</rscale>
<asrwt>0</asrwt>
<pdfrwt beam="1">  1        2 0.54356975E-02 0.54760311E+03</pdfrwt>
<pdfrwt beam="2">  1       -2 0.32642982E+00 0.54760311E+03</pdfrwt>
<totfact> 0.34577264E+01</totfact>
</mgrwt>
</event>
<event>
 4    1  0.8362047E-005  0.6008151E+03  0.7818608E-02  0.9903716E-01
         -2   -1    0    0    0  501 -0.00000000000E+00  0.00000000000E+00  0.62718620290E+02  0.62718620342E+02  0.25500000000E-02 0. -1.
          2   -1    0    0  501    0  0.00000000000E+00 -0.00000000000E+00 -0.14388822063E+04  0.14388822063E+04  0.25500000000E-02 0.  1.
    5000001    1    1    2    0    0  0.39873671600E+00 -0.24893582056E+03 -0.76908695651E+03  0.82503875571E+03  0.16500000000E+03 0.  0.
   -5000001    1    1    2    0    0 -0.39873671600E+00  0.24893582056E+03 -0.60707662952E+03  0.67656207096E+03  0.16500000000E+03 0.  0.
<mgrwt>
<rscale>  0 0.60081514E+03</rscale>
<asrwt>0</asrwt>
<pdfrwt beam="1">  1        2 0.22136647E+00 0.60081514E+03</pdfrwt>
<pdfrwt beam="2">  1       -2 0.96490196E-02 0.60081514E+03</pdfrwt>
<totfact> 0.10173250E+03</totfact>
</mgrwt>
</event>
<event>
 4    1  0.8362047E-005  0.5645563E+03  0.7818608E-02  0.9981798E-01
          2   -1    0    0  501    0  0.00000000000E+00  0.00000000000E+00  0.22351308302E+04  0.22351308302E+04  0.25500000000E-02 0.  1.
         -2   -1    0    0    0  501 -0.00000000000E+00 -0.00000000000E+00 -0.35649346399E+02  0.35649346490E+02  0.25500000000E-02 0. -1.
    5000001    1    1    2    0    0  0.12655460281E+03 -0.17903677001E+03  0.83336889080E+03  0.87738186707E+03  0.16500000000E+03 0.  0.
   -5000001    1    1    2    0    0 -0.12655460281E+03  0.17903677001E+03  0.13661125930E+04  0.13933983096E+04  0.16500000000E+03 0.  0.
<mgrwt>
<rscale>  0 0.56455630E+03</rscale>
<asrwt>0</asrwt>
<pdfrwt beam="1">  1        2 0.34386634E+00 0.56455630E+03</pdfrwt>
<pdfrwt beam="2">  1       -2 0.54845139E-02 0.56455630E+03</pdfrwt>
<totfact> 0.91999776E+02</totfact>
</mgrwt>
</event>
<event>
 4    1  0.8362047E-005  0.1264838E+04  0.7818608E-02  0.9057923E-01
         -2   -1    0    0    0  501 -0.00000000000E+00  0.00000000000E+00  0.14509692442E+03  0.14509692444E+03  0.25500000000E-02 0. -1.
          2   -1    0    0  501    0  0.00000000000E+00 -0.00000000000E+00 -0.27564604814E+04  0.27564604814E+04  0.25500000000E-02 0.  1.
    5000001    1    1    2    0    0 -0.13865203491E+03  0.49430623530E+03 -0.54773331485E+03  0.76863504034E+03  0.16500000000E+03 0.  0.
   -5000001    1    1    2    0    0  0.13865203491E+03 -0.49430623530E+03 -0.20636302422E+04  0.21329223655E+04  0.16500000000E+03 0.  0.
<mgrwt>
<rscale>  0 0.12648382E+04</rscale>
<asrwt>0</asrwt>
<pdfrwt beam="1">  1        2 0.42407080E+00 0.12648382E+04</pdfrwt>
<pdfrwt beam="2">  1       -2 0.22322606E-01 0.12648382E+04</pdfrwt>
<totfact> 0.42827512E+01</totfact>
</mgrwt>
</event>
<event>
 4    1  0.8362047E-005  0.6290368E+03  0.7818608E-02  0.9846930E-01
          2   -1    0    0  501    0  0.00000000000E+00  0.00000000000E+00  0.28538504423E+04  0.28538504423E+04  0.25500000000E-02 0.  1.
         -2   -1    0    0    0  501 -0.00000000000E+00 -0.00000000000E+00 -0.34662584458E+02  0.34662584552E+02  0.25500000000E-02 0. -1.
    5000001    1    1    2    0    0  0.26460790938E+03  0.10969105169E+02  0.15909133478E+04  0.16212242125E+04  0.16500000000E+03 0.  0.
   -5000001    1    1    2    0    0 -0.26460790938E+03 -0.10969105169E+02  0.12282745101E+04  0.12672888144E+04  0.16500000000E+03 0.  0.
<mgrwt>
<rscale>  0 0.62903683E+03</rscale>
<asrwt>0</asrwt>
<pdfrwt beam="1">  1        2 0.43905404E+00 0.62903683E+03</pdfrwt>
<pdfrwt beam="2">  1       -2 0.53327037E-02 0.62903683E+03</pdfrwt>
<totfact> 0.42569257E+02</totfact>
</mgrwt>
</event>
<event>
 4    1  0.8362047E-005  0.5497906E+03  0.7818608E-02  0.1001542E+00
          2   -1    0    0  501    0  0.00000000000E+00  0.00000000000E+00  0.29027695464E+04  0.29027695465E+04  0.25500000000E-02 0.  1.
         -2   -1    0    0    0  501 -0.00000000000E+00 -0.00000000000E+00 -0.26032868629E+02  0.26032868754E+02  0.25500000000E-02 0. -1.
    5000001    1    1    2    0    0  0.59609656054E+02 -0.16165189330E+03  0.21660185922E+04  0.21791159188E+04  0.16500000000E+03 0.  0.
   -5000001    1    1    2    0    0 -0.59609656054E+02  0.16165189330E+03  0.71071808564E+03  0.74968649645E+03  0.16500000000E+03 0.  0.
<mgrwt>
<rscale>  0 0.54979057E+03</rscale>
<asrwt>0</asrwt>
<pdfrwt beam="1">  1        2 0.44657976E+00 0.54979057E+03</pdfrwt>
<pdfrwt beam="2">  1       -2 0.40050583E-02 0.54979057E+03</pdfrwt>
<totfact> 0.62501552E+02</totfact>
</mgrwt>
</event>
<event>
 4    1  0.8362047E-005  0.6809037E+03  0.7818608E-02  0.9750459E-01
          2   -1    0    0  501    0  0.00000000000E+00  0.00000000000E+00  0.19416629520E+04  0.19416629520E+04  0.25500000000E-02 0.  1.
         -2   -1    0    0    0  501 -0.00000000000E+00 -0.00000000000E+00 -0.59694937726E+02  0.59694937781E+02  0.25500000000E-02 0. -1.
    5000001    1    1    2    0    0 -0.58049206694E+02 -0.28980688858E+03  0.10479630822E+04  0.11012762436E+04  0.16500000000E+03 0.  0.
   -5000001    1    1    2    0    0  0.58049206694E+02  0.28980688858E+03  0.83400493200E+03  0.90008164611E+03  0.16500000000E+03 0.  0.
<mgrwt>
<rscale>  0 0.68090366E+03</rscale>
<asrwt>0</asrwt>
<pdfrwt beam="1">  1        2 0.29871731E+00 0.68090366E+03</pdfrwt>
<pdfrwt beam="2">  1       -2 0.91838386E-02 0.68090366E+03</pdfrwt>
<totfact> 0.58259697E+02</totfact>
</mgrwt>
</event>
<event>
 4    1  0.8362047E-005  0.4612708E+03  0.7818608E-02  0.1024413E+00
          2   -1    0    0  501    0  0.00000000000E+00  0.00000000000E+00  0.22627325204E+04  0.22627325204E+04  0.25500000000E-02 0.  1.
         -2   -1    0    0    0  501 -0.00000000000E+00 -0.00000000000E+00 -0.23508163732E+02  0.23508163870E+02  0.25500000000E-02 0. -1.
    5000001    1    1    2    0    0 -0.12106721927E+03 -0.10038045340E+03  0.12937347984E+04  0.13136621467E+04  0.16500000000E+03 0.  0.
   -5000001    1    1    2    0    0  0.12106721927E+03  0.10038045340E+03  0.94548955828E+03  0.97257853761E+03  0.16500000000E+03 0.  0.
<mgrwt>
<rscale>  0 0.46127080E+03</rscale>
<asrwt>0</asrwt>
<pdfrwt beam="1">  1        2 0.34811258E+00 0.46127080E+03</pdfrwt>
<pdfrwt beam="2">  1       -2 0.36166418E-02 0.46127080E+03</pdfrwt>
<totfact> 0.16985600E+03</totfact>
</mgrwt>
</event>
<event>
 4    1  0.8362047E-005  0.4756705E+03  0.7818608E-02  0.1020332E+00
          2   -1    0    0  501    0  0.00000000000E+00  0.00000000000E+00  0.19139343948E+03  0.19139343950E+03  0.25500000000E-02 0. -1.
         -2   -1    0    0    0  501 -0.00000000000E+00 -0.00000000000E+00 -0.29554625312E+03  0.29554625313E+03  0.25500000000E-02 0.  1.
    5000001    1    1    2    0    0  0.10625291717E+03  0.13003610947E+03 -0.17489252846E+02  0.23607190883E+03  0.16500000000E+03 0.  0.
   -5000001    1    1    2    0    0 -0.10625291717E+03 -0.13003610947E+03 -0.86663560793E+02  0.25086778379E+03  0.16500000000E+03 0.  0.
<mgrwt>
<rscale>  0 0.47567053E+03</rscale>
<asrwt>0</asrwt>
<pdfrwt beam="1">  1        2 0.29445145E-01 0.47567053E+03</pdfrwt>
<pdfrwt beam="2">  1       -2 0.45468654E-01 0.47567053E+03</pdfrwt>
<totfact> 0.83654351E+02</totfact>
</mgrwt>
</event>
<event>
 4    1  0.8362047E-005  0.6000298E+03  0.7818608E-02  0.9905344E-01
          2   -1    0    0  501    0  0.00000000000E+00  0.00000000000E+00  0.88505481381E+03  0.88505481382E+03  0.25500000000E-02 0. -1.
         -2   -1    0    0    0  501 -0.00000000000E+00 -0.00000000000E+00 -0.10169871930E+03  0.10169871933E+03  0.25500000000E-02 0.  1.
    5000001    1    1    2    0    0  0.46384883363E+02 -0.16535673749E+03  0.91630749446E+02  0.25517758969E+03  0.16500000000E+03 0.  0.
   -5000001    1    1    2    0    0 -0.46384883363E+02  0.16535673749E+03  0.69172534507E+03  0.73157594346E+03  0.16500000000E+03 0.  0.
<mgrwt>
<rscale>  0 0.60002980E+03</rscale>
<asrwt>0</asrwt>
<pdfrwt beam="1">  1        2 0.13616228E+00 0.60002980E+03</pdfrwt>
<pdfrwt beam="2">  1       -2 0.15645957E-01 0.60002980E+03</pdfrwt>
<totfact> 0.98521303E+02</totfact>
</mgrwt>
</event>
<event>
 4    1  0.8362047E-005  0.3680369E+03  0.7818608E-02  0.1055446E+00
         -2   -1    0    0    0  501 -0.00000000000E+00  0.00000000000E+00  0.26883848070E+03  0.26883848071E+03  0.25500000000E-02 0.  1.
          2   -1    0    0  501    0  0.00000000000E+00 -0.00000000000E+00 -0.12595959449E+03  0.12595959451E+03  0.25500000000E-02 0. -1.
    5000001    1    1    2    0    0 -0.94935786521E+01  0.77756559455E+02  0.95463802797E+02  0.20609354240E+03  0.16500000000E+03 0.  0.
   -5000001    1    1    2    0    0  0.94935786521E+01 -0.77756559455E+02  0.47415083414E+02  0.18870453283E+03  0.16500000000E+03 0.  0.
<mgrwt>
<rscale>  0 0.36803688E+03</rscale>
<asrwt>0</asrwt>
<pdfrwt beam="1">  1        2 0.19378399E-01 0.36803688E+03</pdfrwt>
<pdfrwt beam="2">  1       -2 0.41359766E-01 0.36803688E+03</pdfrwt>
<totfact> 0.16184625E+03</totfact>
</mgrwt>
</event>
<event>
 4    1  0.8362047E-005  0.8296157E+03  0.7818608E-02  0.9518112E-01
          2   -1    0    0  501    0  0.00000000000E+00  0.00000000000E+00  0.14227347613E+04  0.14227347613E+04  0.25500000000E-02 0.  1.
         -2   -1    0    0    0  501 -0.00000000000E+00 -0.00000000000E+00 -0.12094001976E+03  0.12094001979E+03  0.25500000000E-02 0. -1.
    5000001    1    1    2    0    0  0.22039419858E+03  0.21982280339E+03  0.10583245944E+04  0.11154244101E+04  0.16500000000E+03 0.  0.
   -5000001    1    1    2    0    0 -0.22039419858E+03 -0.21982280339E+03  0.24347014715E+03  0.42825037094E+03  0.16500000000E+03 0.  0.
<mgrwt>
<rscale>  0 0.82961574E+03</rscale>
<asrwt>0</asrwt>
<pdfrwt beam="1">  1        2 0.21888228E+00 0.82961574E+03</pdfrwt>
<pdfrwt beam="2">  1       -2 0.18606156E-01 0.82961574E+03</pdfrwt>
<totfact> 0.34241942E+02</totfact>
</mgrwt>
</event>
<event>
 4    1  0.8362047E-005  0.4753115E+03  0.7818608E-02  0.1020432E+00
         -2   -1    0    0    0  501 -0.00000000000E+00  0.00000000000E+00  0.96206213945E+02  0.96206213979E+02  0.25500000000E-02 0. -1.
          2   -1    0    0  501    0  0.00000000000E+00 -0.00000000000E+00 -0.58707496452E+03  0.58707496452E+03  0.25500000000E-02 0.  1.
    5000001    1    1    2    0    0  0.16236652638E+03  0.20274479634E+02 -0.31704247993E+03  0.39308380467E+03  0.16500000000E+03 0.  0.
   -5000001    1    1    2    0    0 -0.16236652638E+03 -0.20274479634E+02 -0.17382627064E+03  0.29019737383E+03  0.16500000000E+03 0.  0.
<mgrwt>
<rscale>  0 0.47531152E+03</rscale>
<asrwt>0</asrwt>
<pdfrwt beam="1">  1        2 0.90319222E-01 0.47531152E+03</pdfrwt>
<pdfrwt beam="2">  1       -2 0.14800956E-01 0.47531152E+03</pdfrwt>
<totfact> 0.18208433E+03</totfact>
</mgrwt>
</event>
<event>
 4    1  0.8362047E-005  0.4234765E+03  0.7818608E-02  0.1035941E+00
          2   -1    0    0  501    0  0.00000000000E+00  0.00000000000E+00  0.28405804152E+04  0.28405804152E+04  0.25500000000E-02 0.  1.
         -2   -1    0    0    0  501 -0.00000000000E+00 -0.00000000000E+00 -0.15783071583E+02  0.15783071789E+02  0.25500000000E-02 0. -1.
    5000001    1    1    2    0    0 -0.35043839747E+02 -0.12142641751E+03  0.11396090372E+04  0.11584067521E+04  0.16500000000E+03 0.  0.
   -5000001    1    1    2    0    0  0.35043839747E+02  0.12142641751E+03  0.16851883064E+04  0.16979567349E+04  0.16500000000E+03 0.  0.
<mgrwt>
<rscale>  0 0.42347649E+03</rscale>
<asrwt>0</asrwt>
<pdfrwt beam="1">  1        2 0.43701200E+00 0.42347649E+03</pdfrwt>
<pdfrwt beam="2">  1       -2 0.24281669E-02 0.42347649E+03</pdfrwt>
<totfact> 0.14710020E+03</totfact>
</mgrwt>
</event>
<event>
 4    1  0.8362047E-005  0.5993051E+03  0.7818608E-02  0.9906849E-01
          2   -1    0    0  501    0  0.00000000000E+00  0.00000000000E+00  0.11180695511E+04  0.11180695511E+04  0.25500000000E-02 0. -1.
         -2   -1    0    0    0  501 -0.00000000000E+00 -0.00000000000E+00 -0.80309552455E+02  0.80309552495E+02  0.25500000000E-02 0.  1.
    5000001    1    1    2    0    0  0.11369215933E+03 -0.20651970025E+03  0.35169536856E+03  0.45441272644E+03  0.16500000000E+03 0.  0.
   -5000001    1    1    2    0    0 -0.11369215933E+03  0.20651970025E+03  0.68606463006E+03  0.74396637713E+03  0.16500000000E+03 0.  0.
<mgrwt>
<rscale>  0 0.59930515E+03</rscale>
<asrwt>0</asrwt>
<pdfrwt beam="1">  1        2 0.17201068E+00 0.59930515E+03</pdfrwt>
<pdfrwt beam="2">  1       -2 0.12355317E-01 0.59930515E+03</pdfrwt>
<totfact> 0.10401379E+03</totfact>
</mgrwt>
</event>
<event>
 4    1  0.8362047E-005  0.3474695E+03  0.7818608E-02  0.1063658E+00
         -2   -1    0    0    0  501 -0.00000000000E+00  0.00000000000E+00  0.65833313013E+02  0.65833313063E+02  0.25500000000E-02 0. -1.
          2   -1    0    0  501    0  0.00000000000E+00 -0.00000000000E+00 -0.45848767720E+03  0.45848767720E+03  0.25500000000E-02 0.  1.
    5000001    1    1    2    0    0 -0.42830564738E+02 -0.31358124320E+02 -0.21424352507E+03  0.27557771549E+03  0.16500000000E+03 0.  0.
   -5000001    1    1    2    0    0  0.42830564738E+02  0.31358124320E+02 -0.17841083911E+03  0.24874327478E+03  0.16500000000E+03 0.  0.
<mgrwt>
<rscale>  0 0.34746950E+03</rscale>
<asrwt>0</asrwt>
<pdfrwt beam="1">  1        2 0.70536564E-01 0.34746950E+03</pdfrwt>
<pdfrwt beam="2">  1       -2 0.10128202E-01 0.34746950E+03</pdfrwt>
<totfact> 0.44771746E+03</totfact>
</mgrwt>
</event>
<event>
 4    1  0.8362047E-005  0.4226161E+03  0.7818608E-02  0.1036218E+00
         -2   -1    0    0    0  501 -0.00000000000E+00  0.00000000000E+00  0.56916841001E+02  0.56916841058E+02  0.25500000000E-02 0. -1.
          2   -1    0    0  501    0  0.00000000000E+00 -0.00000000000E+00 -0.78449696514E+03  0.78449696514E+03  0.25500000000E-02 0.  1.
    5000001    1    1    2    0    0  0.11693828874E+03  0.78451886371E+01 -0.48473161468E+03  0.52528644436E+03  0.16500000000E+03 0.  0.
   -5000001    1    1    2    0    0 -0.11693828874E+03 -0.78451886371E+01 -0.24284850946E+03  0.31612736184E+03  0.16500000000E+03 0.  0.
<mgrwt>
<rscale>  0 0.42261609E+03</rscale>
<asrwt>0</asrwt>
<pdfrwt beam="1">  1        2 0.12069183E+00 0.42261609E+03</pdfrwt>
<pdfrwt beam="2">  1       -2 0.87564376E-02 0.42261609E+03</pdfrwt>
<totfact> 0.29970126E+03</totfact>
</mgrwt>
</event>
<event>
 4    1  0.8362047E-005  0.6498371E+03  0.7818608E-02  0.9807085E-01
         -2   -1    0    0    0  501 -0.00000000000E+00  0.00000000000E+00  0.18527917716E+03  0.18527917718E+03  0.25500000000E-02 0. -1.
          2   -1    0    0  501    0  0.00000000000E+00 -0.00000000000E+00 -0.56979997878E+03  0.56979997879E+03  0.25500000000E-02 0.  1.
    5000001    1    1    2    0    0  0.25092318449E+03 -0.12370482689E+03 -0.20276578547E+03  0.38288939978E+03  0.16500000000E+03 0.  0.
   -5000001    1    1    2    0    0 -0.25092318449E+03  0.12370482689E+03 -0.18175501615E+03  0.37218975618E+03  0.16500000000E+03 0.  0.
<mgrwt>
<rscale>  0 0.64983712E+03</rscale>
<asrwt>0</asrwt>
<pdfrwt beam="1">  1        2 0.87661535E-01 0.64983712E+03</pdfrwt>
<pdfrwt beam="2">  1       -2 0.28504489E-01 0.64983712E+03</pdfrwt>
<totfact> 0.59859599E+02</totfact>
</mgrwt>
</event>
<event>
 4    1  0.8362047E-005  0.6089423E+03  0.7818608E-02  0.9887025E-01
          2   -1    0    0  501    0  0.00000000000E+00  0.00000000000E+00  0.59929371672E+03  0.59929371673E+03  0.25500000000E-02 0.  1.
         -2   -1    0    0    0  501 -0.00000000000E+00 -0.00000000000E+00 -0.15468656485E+03  0.15468656487E+03  0.25500000000E-02 0. -1.
    5000001    1    1    2    0    0 -0.25279294007E+03  0.78240735720E+01  0.27045270189E+03  0.40538272119E+03  0.16500000000E+03 0.  0.
   -5000001    1    1    2    0    0  0.25279294007E+03 -0.78240735720E+01  0.17415444999E+03  0.34859756041E+03  0.16500000000E+03 0.  0.
<mgrwt>
<rscale>  0 0.60894232E+03</rscale>
<asrwt>0</asrwt>
<pdfrwt beam="1">  1        2 0.92199032E-01 0.60894232E+03</pdfrwt>
<pdfrwt beam="2">  1       -2 0.23797933E-01 0.60894232E+03</pdfrwt>
<totfact> 0.78201000E+02</totfact>
</mgrwt>
</event>
<event>
 4    1  0.8362047E-005  0.7166562E+03  0.7818608E-02  0.9689164E-01
          2   -1    0    0  501    0  0.00000000000E+00  0.00000000000E+00  0.11237506643E+04  0.11237506643E+04  0.25500000000E-02 0.  1.
         -2   -1    0    0    0  501 -0.00000000000E+00 -0.00000000000E+00 -0.11425935853E+03  0.11425935855E+03  0.25500000000E-02 0. -1.
    5000001    1    1    2    0    0 -0.64452654605E+02 -0.25636800783E+03  0.81034544950E+03  0.86819551234E+03  0.16500000000E+03 0.  0.
   -5000001    1    1    2    0    0  0.64452654605E+02  0.25636800783E+03  0.19914585631E+03  0.36981451055E+03  0.16500000000E+03 0.  0.
<mgrwt>
<rscale>  0 0.71665621E+03</rscale>
<asrwt>0</asrwt>
<pdfrwt beam="1">  1        2 0.17288472E+00 0.71665621E+03</pdfrwt>
<pdfrwt beam="2">  1       -2 0.17578363E-01 0.71665621E+03</pdfrwt>
<totfact> 0.56723088E+02</totfact>
</mgrwt>
</event>
<event>
 4    1  0.8362047E-005  0.4111997E+03  0.7818608E-02  0.1039969E+00
          2   -1    0    0  501    0  0.00000000000E+00  0.00000000000E+00  0.29171636883E+03  0.29171636884E+03  0.25500000000E-02 0.  1.
         -2   -1    0    0    0  501 -0.00000000000E+00 -0.00000000000E+00 -0.14490546281E+03  0.14490546283E+03  0.25500000000E-02 0. -1.
    5000001    1    1    2    0    0  0.17803277395E+02 -0.12053888897E+03  0.88411213783E+02  0.22335649344E+03  0.16500000000E+03 0.  0.
   -5000001    1    1    2    0    0 -0.17803277395E+02  0.12053888897E+03  0.58399692236E+02  0.21326533824E+03  0.16500000000E+03 0.  0.
<mgrwt>
<rscale>  0 0.41119969E+03</rscale>
<asrwt>0</asrwt>
<pdfrwt beam="1">  1        2 0.44879441E-01 0.41119969E+03</pdfrwt>
<pdfrwt beam="2">  1       -2 0.22293148E-01 0.41119969E+03</pdfrwt>
<totfact> 0.19751025E+03</totfact>
</mgrwt>
</event>
<event>
 4    1  0.8362047E-005  0.1485567E+04  0.7818608E-02  0.8894108E-01
         -2   -1    0    0    0  501 -0.00000000000E+00  0.00000000000E+00  0.17678331056E+03  0.17678331057E+03  0.25500000000E-02 0. -1.
          2   -1    0    0  501    0  0.00000000000E+00 -0.00000000000E+00 -0.31209260781E+04  0.31209260781E+04  0.25500000000E-02 0.  1.
    5000001    1    1    2    0    0 -0.56235058912E+03 -0.23914285266E+03 -0.23348840998E+04  0.24191602362E+04  0.16500000000E+03 0.  0.
   -5000001    1    1    2    0    0  0.56235058912E+03  0.23914285266E+03 -0.60925866780E+03  0.87854915249E+03  0.16500000000E+03 0.  0.
<mgrwt>
<rscale>  0 0.14855674E+04</rscale>
<asrwt>0</asrwt>
<pdfrwt beam="1">  1        2 0.48014244E+00 0.14855674E+04</pdfrwt>
<pdfrwt beam="2">  1       -2 0.27197435E-01 0.14855674E+04</pdfrwt>
<totfact> 0.17515485E+01</totfact>
</mgrwt>
</event>
<event>
 4    1  0.8362047E-005  0.1078261E+04  0.7818608E-02  0.9226643E-01
         -2   -1    0    0    0  501 -0.00000000000E+00  0.00000000000E+00  0.21276438337E+03  0.21276438339E+03  0.25500000000E-02 0. -1.
          2   -1    0    0  501    0  0.00000000000E+00 -0.00000000000E+00 -0.13661211297E+04  0.13661211297E+04  0.25500000000E-02 0.  1.
    5000001    1    1    2    0    0 -0.28170520805E+03  0.37563712571E+03 -0.88023435081E+03  0.10111867220E+04  0.16500000000E+03 0.  0.
   -5000001    1    1    2    0    0  0.28170520805E+03 -0.37563712571E+03 -0.27312239554E+03  0.56769879108E+03  0.16500000000E+03 0.  0.
<mgrwt>
<rscale>  0 0.10782614E+04</rscale>
<asrwt>0</asrwt>
<pdfrwt beam="1">  1        2 0.21017248E+00 0.10782614E+04</pdfrwt>
<pdfrwt beam="2">  1       -2 0.32732983E-01 0.10782614E+04</pdfrwt>
<totfact> 0.13080660E+02</totfact>
</mgrwt>
</event>
<event>
 4    1  0.8362047E-005  0.4322217E+03  0.7818608E-02  0.1033160E+00
         -2   -1    0    0    0  501 -0.00000000000E+00  0.00000000000E+00  0.24373223941E+02  0.24373224075E+02  0.25500000000E-02 0. -1.
          2   -1    0    0  501    0  0.00000000000E+00 -0.00000000000E+00 -0.19161972522E+04  0.19161972522E+04  0.25500000000E-02 0.  1.
    5000001    1    1    2    0    0 -0.10277943589E+02 -0.11746182966E+03 -0.61065048888E+03  0.64344536452E+03  0.16500000000E+03 0.  0.
   -5000001    1    1    2    0    0  0.10277943589E+02  0.11746182966E+03 -0.12811735394E+04  0.12971251118E+04  0.16500000000E+03 0.  0.
<mgrwt>
<rscale>  0 0.43222172E+03</rscale>
<asrwt>0</asrwt>
<pdfrwt beam="1">  1        2 0.29479946E+00 0.43222172E+03</pdfrwt>
<pdfrwt beam="2">  1       -2 0.37497283E-02 0.43222172E+03</pdfrwt>
<totfact> 0.24748524E+03</totfact>
</mgrwt>
</event>
<event>
 4    1  0.8362047E-005  0.4608619E+03  0.7818608E-02  0.1024532E+00
         -2   -1    0    0    0  501 -0.00000000000E+00  0.00000000000E+00  0.10293303460E+04  0.10293303460E+04  0.25500000000E-02 0. -1.
          2   -1    0    0  501    0  0.00000000000E+00 -0.00000000000E+00 -0.51585414995E+02  0.51585415058E+02  0.25500000000E-02 0.  1.
    5000001    1    1    2    0    0 -0.52565739702E+02  0.10191235283E+03  0.75343927777E+03  0.77977242189E+03  0.16500000000E+03 0.  0.
   -5000001    1    1    2    0    0  0.52565739702E+02 -0.10191235283E+03  0.22430565320E+03  0.30114333914E+03  0.16500000000E+03 0.  0.
<mgrwt>
<rscale>  0 0.46086195E+03</rscale>
<asrwt>0</asrwt>
<pdfrwt beam="1">  1        2 0.79362174E-02 0.46086195E+03</pdfrwt>
<pdfrwt beam="2">  1       -2 0.15835852E+00 0.46086195E+03</pdfrwt>
<totfact> 0.23627445E+02</totfact>
</mgrwt>
</event>
<event>
 4    1  0.8362047E-005  0.7221995E+03  0.7818608E-02  0.9680004E-01
          2   -1    0    0  501    0  0.00000000000E+00  0.00000000000E+00  0.28984397785E+04  0.28984397785E+04  0.25500000000E-02 0.  1.
         -2   -1    0    0    0  501 -0.00000000000E+00 -0.00000000000E+00 -0.44987321314E+02  0.44987321386E+02  0.25500000000E-02 0. -1.
    5000001    1    1    2    0    0 -0.29996197419E+02  0.26718425546E+03  0.21429366853E+04  0.21660308944E+04  0.16500000000E+03 0.  0.
   -5000001    1    1    2    0    0  0.29996197419E+02 -0.26718425546E+03  0.71051577185E+03  0.77739620547E+03  0.16500000000E+03 0.  0.
<mgrwt>
<rscale>  0 0.72219953E+03</rscale>
<asrwt>0</asrwt>
<pdfrwt beam="1">  1        2 0.44591389E+00 0.72219953E+03</pdfrwt>
<pdfrwt beam="2">  1       -2 0.69211252E-02 0.72219953E+03</pdfrwt>
<totfact> 0.26316901E+02</totfact>
</mgrwt>
</event>
<event>
 4    1  0.8362047E-005  0.4217394E+03  0.7818608E-02  0.1036502E+00
          2   -1    0    0  501    0  0.00000000000E+00  0.00000000000E+00  0.35272254150E+04  0.35272254150E+04  0.25500000000E-02 0.  1.
         -2   -1    0    0    0  501 -0.00000000000E+00 -0.00000000000E+00 -0.12606520757E+02  0.12606521015E+02  0.25500000000E-02 0. -1.
    5000001    1    1    2    0    0  0.12638825805E+03 -0.33720006196E+02  0.18530128226E+04  0.18649376803E+04  0.16500000000E+03 0.  0.
   -5000001    1    1    2    0    0 -0.12638825805E+03  0.33720006196E+02  0.16616060716E+04  0.16748942557E+04  0.16500000000E+03 0.  0.
<mgrwt>
<rscale>  0 0.42173945E+03</rscale>
<asrwt>0</asrwt>
<pdfrwt beam="1">  1        2 0.54265037E+00 0.42173945E+03</pdfrwt>
<pdfrwt beam="2">  1       -2 0.19394636E-02 0.42173945E+03</pdfrwt>
<totfact> 0.76491410E+02</totfact>
</mgrwt>
</event>
<event>
 4    1  0.8362047E-005  0.5012998E+03  0.7818608E-02  0.1013440E+00
          2   -1    0    0  501    0  0.00000000000E+00  0.00000000000E+00  0.12522417681E+03  0.12522417684E+03  0.25500000000E-02 0.  1.
         -2   -1    0    0    0  501 -0.00000000000E+00 -0.00000000000E+00 -0.50170320580E+03  0.50170320581E+03  0.25500000000E-02 0. -1.
    5000001    1    1    2    0    0 -0.14181322695E+03  0.11672061520E+03 -0.24225745377E+03  0.34590225102E+03  0.16500000000E+03 0.  0.
   -5000001    1    1    2    0    0  0.14181322695E+03 -0.11672061520E+03 -0.13422157522E+03  0.28102513163E+03  0.16500000000E+03 0.  0.
<mgrwt>
<rscale>  0 0.50129979E+03</rscale>
<asrwt>0</asrwt>
<pdfrwt beam="1">  1        2 0.19265258E-01 0.50129979E+03</pdfrwt>
<pdfrwt beam="2">  1       -2 0.77185107E-01 0.50129979E+03</pdfrwt>
<totfact> 0.44901303E+02</totfact>
</mgrwt>
</event>
<event>
 4    1  0.8362047E-005  0.5906985E+03  0.7818608E-02  0.9924894E-01
         -2   -1    0    0    0  501 -0.00000000000E+00  0.00000000000E+00  0.19820310196E+03  0.19820310198E+03  0.25500000000E-02 0. -1.
          2   -1    0    0  501    0  0.00000000000E+00 -0.00000000000E+00 -0.44011000910E+03  0.44011000911E+03  0.25500000000E-02 0.  1.
    5000001    1    1    2    0    0 -0.13063234278E+03  0.59888551308E+01  0.10287967995E+03  0.23432862376E+03  0.16500000000E+03 0.  0.
   -5000001    1    1    2    0    0  0.13063234278E+03 -0.59888551308E+01 -0.34478658709E+03  0.40398448733E+03  0.16500000000E+03 0.  0.
<mgrwt>
<rscale>  0 0.59069846E+03</rscale>
<asrwt>0</asrwt>
<pdfrwt beam="1">  1        2 0.67709232E-01 0.59069846E+03</pdfrwt>
<pdfrwt beam="2">  1       -2 0.30492785E-01 0.59069846E+03</pdfrwt>
<totfact> 0.71328765E+02</totfact>
</mgrwt>
</event>
<event>
 4    1  0.8362047E-005  0.5596620E+03  0.7818608E-02  0.9992820E-01
          2   -1    0    0  501    0  0.00000000000E+00  0.00000000000E+00  0.13003476464E+04  0.13003476464E+04  0.25500000000E-02 0.  1.
         -2   -1    0    0    0  501 -0.00000000000E+00 -0.00000000000E+00 -0.60218810147E+02  0.60218810201E+02  0.25500000000E-02 0. -1.
    5000001    1    1    2    0    0 -0.39459730115E+02  0.20616676441E+03  0.41639835808E+03  0.49464572945E+03  0.16500000000E+03 0.  0.
   -5000001    1    1    2    0    0  0.39459730115E+02 -0.20616676441E+03  0.82373047817E+03  0.86592072716E+03  0.16500000000E+03 0.  0.
<mgrwt>
<rscale>  0 0.55966200E+03</rscale>
<asrwt>0</asrwt>
<pdfrwt beam="1">  1        2 0.20005348E+00 0.55966200E+03</pdfrwt>
<pdfrwt beam="2">  1       -2 0.92644324E-02 0.55966200E+03</pdfrwt>
<totfact> 0.13022850E+03</totfact>
</mgrwt>
</event>
<event>
 4    1  0.8362047E-005  0.6754538E+03  0.7818608E-02  0.9760155E-01
          2   -1    0    0  501    0  0.00000000000E+00  0.00000000000E+00  0.24216141589E+04  0.24216141589E+04  0.25500000000E-02 0.  1.
         -2   -1    0    0    0  501 -0.00000000000E+00 -0.00000000000E+00 -0.47100596100E+02  0.47100596169E+02  0.25500000000E-02 0. -1.
    5000001    1    1    2    0    0 -0.11529030490E+02  0.29118449280E+03  0.10273934092E+04  0.10805940703E+04  0.16500000000E+03 0.  0.
   -5000001    1    1    2    0    0  0.11529030490E+02 -0.29118449280E+03  0.13471201536E+04  0.13881206848E+04  0.16500000000E+03 0.  0.
<mgrwt>
<rscale>  0 0.67545383E+03</rscale>
<asrwt>0</asrwt>
<pdfrwt beam="1">  1        2 0.37255603E+00 0.67545383E+03</pdfrwt>
<pdfrwt beam="2">  1       -2 0.72462454E-02 0.67545383E+03</pdfrwt>
<totfact> 0.46390134E+02</totfact>
</mgrwt>
</event>
<event>
 4    1  0.8362047E-005  0.6075709E+03  0.7818608E-02  0.9889822E-01
          2   -1    0    0  501    0  0.00000000000E+00  0.00000000000E+00  0.13712555497E+03  0.13712555499E+03  0.25500000000E-02 0.  1.
         -2   -1    0    0    0  501 -0.00000000000E+00 -0.00000000000E+00 -0.67300070257E+03  0.67300070258E+03  0.25500000000E-02 0. -1.
    5000001    1    1    2    0    0 -0.34369271683E+02  0.13614566543E+03 -0.55186952070E+03  0.59287592035E+03  0.16500000000E+03 0.  0.
   -5000001    1    1    2    0    0  0.34369271683E+02 -0.13614566543E+03  0.15994373100E+02  0.21725033722E+03  0.16500000000E+03 0.  0.
<mgrwt>
<rscale>  0 0.60757088E+03</rscale>
<asrwt>0</asrwt>
<pdfrwt beam="1">  1        2 0.21096240E-01 0.60757088E+03</pdfrwt>
<pdfrwt beam="2">  1       -2 0.10353857E+00 0.60757088E+03</pdfrwt>
<totfact> 0.20539261E+02</totfact>
</mgrwt>
</event>
<event>
 4    1  0.8362047E-005  0.5248288E+03  0.7818608E-02  0.1007494E+00
          2   -1    0    0  501    0  0.00000000000E+00  0.00000000000E+00  0.24113091693E+04  0.24113091693E+04  0.25500000000E-02 0.  1.
         -2   -1    0    0    0  501 -0.00000000000E+00 -0.00000000000E+00 -0.28557648783E+02  0.28557648896E+02  0.25500000000E-02 0. -1.
    5000001    1    1    2    0    0 -0.19675652715E+03  0.52383151083E+02  0.12536074235E+04  0.12807082798E+04  0.16500000000E+03 0.  0.
   -5000001    1    1    2    0    0  0.19675652715E+03 -0.52383151083E+02  0.11291440970E+04  0.11591585384E+04  0.16500000000E+03 0.  0.
<mgrwt>
<rscale>  0 0.52482881E+03</rscale>
<asrwt>0</asrwt>
<pdfrwt beam="1">  1        2 0.37097073E+00 0.52482881E+03</pdfrwt>
<pdfrwt beam="2">  1       -2 0.43934834E-02 0.52482881E+03</pdfrwt>
<totfact> 0.10401416E+03</totfact>
</mgrwt>
</event>
<event>
 4    1  0.8362047E-005  0.4972448E+03  0.7818608E-02  0.1014501E+00
          2   -1    0    0  501    0  0.00000000000E+00  0.00000000000E+00  0.12015946870E+04  0.12015946870E+04  0.25500000000E-02 0.  1.
         -2   -1    0    0    0  501 -0.00000000000E+00 -0.00000000000E+00 -0.51442544234E+02  0.51442544298E+02  0.25500000000E-02 0. -1.
    5000001    1    1    2    0    0  0.16757426247E+03 -0.79884653461E+02  0.54685739742E+03  0.60061693650E+03  0.16500000000E+03 0.  0.
   -5000001    1    1    2    0    0 -0.16757426247E+03  0.79884653461E+02  0.60329474532E+03  0.65242029477E+03  0.16500000000E+03 0.  0.
<mgrwt>
<rscale>  0 0.49724476E+03</rscale>
<asrwt>0</asrwt>
<pdfrwt beam="1">  1        2 0.18486071E+00 0.49724476E+03</pdfrwt>
<pdfrwt beam="2">  1       -2 0.79142379E-02 0.49724476E+03</pdfrwt>
<totfact> 0.19126743E+03</totfact>
</mgrwt>
</event>
<event>
 4    1  0.8362047E-005  0.6464755E+03  0.7818608E-02  0.9813415E-01
         -2   -1    0    0    0  501 -0.00000000000E+00  0.00000000000E+00  0.55033554724E+02  0.55033554783E+02  0.25500000000E-02 0. -1.
          2   -1    0    0  501    0  0.00000000000E+00 -0.00000000000E+00 -0.18985260059E+04  0.18985260059E+04  0.25500000000E-02 0.  1.
    5000001    1    1    2    0    0  0.26336600198E+03 -0.58245128221E+01 -0.65380301879E+03  0.72393298262E+03  0.16500000000E+03 0.  0.
   -5000001    1    1    2    0    0 -0.26336600198E+03  0.58245128221E+01 -0.11896894323E+04  0.12296265780E+04  0.16500000000E+03 0.  0.
<mgrwt>
<rscale>  0 0.64647547E+03</rscale>
<asrwt>0</asrwt>
<pdfrwt beam="1">  1        2 0.29208087E+00 0.64647547E+03</pdfrwt>
<pdfrwt beam="2">  1       -2 0.84667022E-02 0.64647547E+03</pdfrwt>
<totfact> 0.70241809E+02</totfact>
</mgrwt>
</event>
<event>
 4    1  0.8362047E-005  0.5491700E+03  0.7818608E-02  0.1001686E+00
          2   -1    0    0  501    0  0.00000000000E+00  0.00000000000E+00  0.79141808598E+03  0.79141808598E+03  0.25500000000E-02 0.  1.
         -2   -1    0    0    0  501 -0.00000000000E+00 -0.00000000000E+00 -0.95268114977E+02  0.95268115011E+02  0.25500000000E-02 0. -1.
    5000001    1    1    2    0    0  0.16584098849E+03 -0.13968989315E+03  0.40295714006E+03  0.48643186207E+03  0.16500000000E+03 0.  0.
   -5000001    1    1    2    0    0 -0.16584098849E+03  0.13968989315E+03  0.29319283094E+03  0.40025433892E+03  0.16500000000E+03 0.  0.
<mgrwt>
<rscale>  0 0.54916995E+03</rscale>
<asrwt>0</asrwt>
<pdfrwt beam="1">  1        2 0.12175663E+00 0.54916995E+03</pdfrwt>
<pdfrwt beam="2">  1       -2 0.14656633E-01 0.54916995E+03</pdfrwt>
<totfact> 0.12785207E+03</totfact>
</mgrwt>
</event>
<event>
 4    1  0.8362047E-005  0.4691724E+03  0.7818608E-02  0.1022154E+00
          2   -1    0    0  501    0  0.00000000000E+00  0.00000000000E+00  0.10220559094E+04  0.10220559094E+04  0.25500000000E-02 0.  1.
         -2   -1    0    0    0  501 -0.00000000000E+00 -0.00000000000E+00 -0.53843120741E+02  0.53843120801E+02  0.25500000000E-02 0. -1.
    5000001    1    1    2    0    0 -0.16520169741E+03  0.15378315560E+02  0.52231297176E+03  0.57233201369E+03  0.16500000000E+03 0.  0.
   -5000001    1    1    2    0    0  0.16520169741E+03 -0.15378315560E+02  0.44589981691E+03  0.50356701653E+03  0.16500000000E+03 0.  0.
<mgrwt>
<rscale>  0 0.46917238E+03</rscale>
<asrwt>0</asrwt>
<pdfrwt beam="1">  1        2 0.15723936E+00 0.46917238E+03</pdfrwt>
<pdfrwt beam="2">  1       -2 0.82835575E-02 0.46917238E+03</pdfrwt>
<totfact> 0.22807133E+03</totfact>
</mgrwt>
</event>
<event>
 4    1  0.8362047E-005  0.4813438E+03  0.7818608E-02  0.1018767E+00
         -2   -1    0    0    0  501 -0.00000000000E+00  0.00000000000E+00  0.68680425234E+02  0.68680425281E+02  0.25500000000E-02 0. -1.
          2   -1    0    0  501    0  0.00000000000E+00 -0.00000000000E+00 -0.84336926053E+03  0.84336926054E+03  0.25500000000E-02 0.  1.
    5000001    1    1    2    0    0 -0.17166082850E+03  0.27376490982E+02 -0.42890263987E+03  0.49132411582E+03  0.16500000000E+03 0.  0.
   -5000001    1    1    2    0    0  0.17166082850E+03 -0.27376490982E+02 -0.34578619543E+03  0.42072557000E+03  0.16500000000E+03 0.  0.
<mgrwt>
<rscale>  0 0.48134378E+03</rscale>
<asrwt>0</asrwt>
<pdfrwt beam="1">  1        2 0.12974911E+00 0.48134378E+03</pdfrwt>
<pdfrwt beam="2">  1       -2 0.10566220E-01 0.48134378E+03</pdfrwt>
<totfact> 0.20170186E+03</totfact>
</mgrwt>
</event>
<event>
 4    1  0.8362047E-005  0.4353148E+03  0.7818608E-02  0.1032194E+00
          2   -1    0    0  501    0  0.00000000000E+00  0.00000000000E+00  0.14027131689E+04  0.14027131689E+04  0.25500000000E-02 0.  1.
         -2   -1    0    0    0  501 -0.00000000000E+00 -0.00000000000E+00 -0.33773655809E+02  0.33773655906E+02  0.25500000000E-02 0. -1.
    5000001    1    1    2    0    0 -0.35515223443E+01 -0.11490148257E+03  0.40967099789E+03  0.45636639942E+03  0.16500000000E+03 0.  0.
   -5000001    1    1    2    0    0  0.35515223443E+01  0.11490148257E+03  0.95926851519E+03  0.98012042538E+03  0.16500000000E+03 0.  0.
<mgrwt>
<rscale>  0 0.43531484E+03</rscale>
<asrwt>0</asrwt>
<pdfrwt beam="1">  1        2 0.21580199E+00 0.43531484E+03</pdfrwt>
<pdfrwt beam="2">  1       -2 0.51959479E-02 0.43531484E+03</pdfrwt>
<totfact> 0.28432428E+03</totfact>
</mgrwt>
</event>
<event>
 4    1  0.8362047E-005  0.6212922E+03  0.7818608E-02  0.9862190E-01
          2   -1    0    0  501    0  0.00000000000E+00  0.00000000000E+00  0.18577653387E+04  0.18577653387E+04  0.25500000000E-02 0.  1.
         -2   -1    0    0    0  501 -0.00000000000E+00 -0.00000000000E+00 -0.51944662668E+02  0.51944662730E+02  0.25500000000E-02 0. -1.
    5000001    1    1    2    0    0  0.10573758741E+03  0.58451248417E+02  0.18415373502E+03  0.27519917143E+03  0.16500000000E+03 0.  0.
   -5000001    1    1    2    0    0 -0.10573758741E+03 -0.58451248417E+02  0.16216669410E+04  0.16345108300E+04  0.16500000000E+03 0.  0.
<mgrwt>
<rscale>  0 0.62129218E+03</rscale>
<asrwt>0</asrwt>
<pdfrwt beam="1">  1        2 0.28581003E+00 0.62129218E+03</pdfrwt>
<pdfrwt beam="2">  1       -2 0.79914871E-02 0.62129218E+03</pdfrwt>
<totfact> 0.81188762E+02</totfact>
</mgrwt>
</event>
<event>
 4    1  0.8362047E-005  0.5913574E+03  0.7818608E-02  0.9923501E-01
         -2   -1    0    0    0  501 -0.00000000000E+00  0.00000000000E+00  0.83565055626E+02  0.83565055665E+02  0.25500000000E-02 0. -1.
          2   -1    0    0  501    0  0.00000000000E+00 -0.00000000000E+00 -0.10462016574E+04  0.10462016574E+04  0.25500000000E-02 0.  1.
    5000001    1    1    2    0    0 -0.13774408958E+03  0.18740299764E+03 -0.33201363619E+03  0.43766582269E+03  0.16500000000E+03 0.  0.
   -5000001    1    1    2    0    0  0.13774408958E+03 -0.18740299764E+03 -0.63062296562E+03  0.69210089041E+03  0.16500000000E+03 0.  0.
<mgrwt>
<rscale>  0 0.59135742E+03</rscale>
<asrwt>0</asrwt>
<pdfrwt beam="1">  1        2 0.16095409E+00 0.59135742E+03</pdfrwt>
<pdfrwt beam="2">  1       -2 0.12856163E-01 0.59135742E+03</pdfrwt>
<totfact> 0.10778671E+03</totfact>
</mgrwt>
</event>
<event>
 4    1  0.8362047E-005  0.9066180E+03  0.7818608E-02  0.9417346E-01
          2   -1    0    0  501    0  0.00000000000E+00  0.00000000000E+00  0.83045373084E+03  0.83045373084E+03  0.25500000000E-02 0.  1.
         -2   -1    0    0    0  501 -0.00000000000E+00 -0.00000000000E+00 -0.24744189624E+03  0.24744189626E+03  0.25500000000E-02 0. -1.
    5000001    1    1    2    0    0  0.37940218744E+03 -0.83644115923E+02  0.48802563875E+03  0.64524133628E+03  0.16500000000E+03 0.  0.
   -5000001    1    1    2    0    0 -0.37940218744E+03  0.83644115923E+02  0.94986195847E+02  0.43265429082E+03  0.16500000000E+03 0.  0.
<mgrwt>
<rscale>  0 0.90661799E+03</rscale>
<asrwt>0</asrwt>
<pdfrwt beam="1">  1        2 0.12776211E+00 0.90661799E+03</pdfrwt>
<pdfrwt beam="2">  1       -2 0.38067985E-01 0.90661799E+03</pdfrwt>
<totfact> 0.21377793E+02</totfact>
</mgrwt>
</event>
<event>
 4    1  0.8362047E-005  0.3938684E+03  0.7818608E-02  0.1045924E+00
          2   -1    0    0  501    0  0.00000000000E+00  0.00000000000E+00  0.21402779910E+03  0.21402779911E+03  0.25500000000E-02 0.  1.
         -2   -1    0    0    0  501 -0.00000000000E+00 -0.00000000000E+00 -0.18120577996E+03  0.18120577998E+03  0.25500000000E-02 0. -1.
    5000001    1    1    2    0    0 -0.30105442538E+02  0.10235239575E+03  0.29713038303E+02  0.19872145136E+03  0.16500000000E+03 0.  0.
   -5000001    1    1    2    0    0  0.30105442538E+02 -0.10235239575E+03  0.31089808316E+01  0.19651212774E+03  0.16500000000E+03 0.  0.
<mgrwt>
<rscale>  0 0.39386838E+03</rscale>
<asrwt>0</asrwt>
<pdfrwt beam="1">  1        2 0.32927354E-01 0.39386838E+03</pdfrwt>
<pdfrwt beam="2">  1       -2 0.27877812E-01 0.39386838E+03</pdfrwt>
<totfact> 0.18614485E+03</totfact>
</mgrwt>
</event>
<event>
 4    1  0.8362047E-005  0.8036038E+03  0.7818608E-02  0.9554815E-01
         -2   -1    0    0    0  501 -0.00000000000E+00  0.00000000000E+00  0.64452651335E+02  0.64452651386E+02  0.25500000000E-02 0. -1.
          2   -1    0    0  501    0  0.00000000000E+00 -0.00000000000E+00 -0.25048581178E+04  0.25048581178E+04  0.25500000000E-02 0.  1.
    5000001    1    1    2    0    0  0.57014114278E+02  0.27659524173E+03 -0.19663598516E+04  0.19933769345E+04  0.16500000000E+03 0.  0.
   -5000001    1    1    2    0    0 -0.57014114278E+02 -0.27659524173E+03 -0.47404561486E+03  0.57593383469E+03  0.16500000000E+03 0.  0.
<mgrwt>
<rscale>  0 0.80360375E+03</rscale>
<asrwt>0</asrwt>
<pdfrwt beam="1">  1        2 0.38536271E+00 0.80360375E+03</pdfrwt>
<pdfrwt beam="2">  1       -2 0.99157944E-02 0.80360375E+03</pdfrwt>
<totfact> 0.24859732E+02</totfact>
</mgrwt>
</event>
<event>
 4    1  0.8362047E-005  0.4139962E+03  0.7818608E-02  0.1039038E+00
          2   -1    0    0  501    0  0.00000000000E+00  0.00000000000E+00  0.28662502934E+03  0.28662502935E+03  0.25500000000E-02 0.  1.
         -2   -1    0    0    0  501 -0.00000000000E+00 -0.00000000000E+00 -0.14949222610E+03  0.14949222612E+03  0.25500000000E-02 0. -1.
    5000001    1    1    2    0    0  0.80676033918E+02 -0.72644453593E+02  0.13382293710E+03  0.23857790673E+03  0.16500000000E+03 0.  0.
   -5000001    1    1    2    0    0 -0.80676033918E+02  0.72644453593E+02  0.33098661372E+01  0.19753934874E+03  0.16500000000E+03 0.  0.
<mgrwt>
<rscale>  0 0.41399620E+03</rscale>
<asrwt>0</asrwt>
<pdfrwt beam="1">  1        2 0.44096158E-01 0.41399620E+03</pdfrwt>
<pdfrwt beam="2">  1       -2 0.22998804E-01 0.41399620E+03</pdfrwt>
<totfact> 0.19062866E+03</totfact>
</mgrwt>
</event>
<event>
 4    1  0.8362047E-005  0.4598883E+03  0.7818608E-02  0.1024814E+00
          2   -1    0    0  501    0  0.00000000000E+00  0.00000000000E+00  0.78768642336E+03  0.78768642337E+03  0.25500000000E-02 0.  1.
         -2   -1    0    0    0  501 -0.00000000000E+00 -0.00000000000E+00 -0.67126088062E+02  0.67126088110E+02  0.25500000000E-02 0. -1.
    5000001    1    1    2    0    0 -0.39597982351E+02  0.14927739837E+03  0.28147385765E+03  0.36097683362E+03  0.16500000000E+03 0.  0.
   -5000001    1    1    2    0    0  0.39597982351E+02 -0.14927739837E+03  0.43908647766E+03  0.49383567786E+03  0.16500000000E+03 0.  0.
<mgrwt>
<rscale>  0 0.45988828E+03</rscale>
<asrwt>0</asrwt>
<pdfrwt beam="1">  1        2 0.12118252E+00 0.45988828E+03</pdfrwt>
<pdfrwt beam="2">  1       -2 0.10327091E-01 0.45988828E+03</pdfrwt>
<totfact> 0.22893499E+03</totfact>
</mgrwt>
</event>
<event>
 4    1  0.8362047E-005  0.5794488E+03  0.7818608E-02  0.9948985E-01
          2   -1    0    0  501    0  0.00000000000E+00  0.00000000000E+00  0.34708521881E+03  0.34708521882E+03  0.25500000000E-02 0.  1.
         -2   -1    0    0    0  501 -0.00000000000E+00 -0.00000000000E+00 -0.24184327667E+03  0.24184327668E+03  0.25500000000E-02 0. -1.
    5000001    1    1    2    0    0  0.31646147411E+02  0.23009244018E+03 -0.88259954090E+00  0.28490312153E+03  0.16500000000E+03 0.  0.
   -5000001    1    1    2    0    0 -0.31646147411E+02 -0.23009244018E+03  0.10612454168E+03  0.30402537397E+03  0.16500000000E+03 0.  0.
<mgrwt>
<rscale>  0 0.57944880E+03</rscale>
<asrwt>0</asrwt>
<pdfrwt beam="1">  1        2 0.53397726E-01 0.57944880E+03</pdfrwt>
<pdfrwt beam="2">  1       -2 0.37206658E-01 0.57944880E+03</pdfrwt>
<totfact> 0.63935817E+02</totfact>
</mgrwt>
</event>
<event>
 4    1  0.8362047E-005  0.3530885E+03  0.7818608E-02  0.1061354E+00
          2   -1    0    0  501    0  0.00000000000E+00  0.00000000000E+00  0.10246349046E+04  0.10246349046E+04  0.25500000000E-02 0.  1.
         -2   -1    0    0    0  501 -0.00000000000E+00 -0.00000000000E+00 -0.30418517489E+02  0.30418517596E+02  0.25500000000E-02 0. -1.
    5000001    1    1    2    0    0 -0.45299975428E+02  0.39175852628E+02  0.44072625241E+03  0.47439589455E+03  0.16500000000E+03 0.  0.
   -5000001    1    1    2    0    0  0.45299975428E+02 -0.39175852628E+02  0.55349013468E+03  0.58065752763E+03  0.16500000000E+03 0.  0.
<mgrwt>
<rscale>  0 0.35308851E+03</rscale>
<asrwt>0</asrwt>
<pdfrwt beam="1">  1        2 0.15763612E+00 0.35308851E+03</pdfrwt>
<pdfrwt beam="2">  1       -2 0.46797725E-02 0.35308851E+03</pdfrwt>
<totfact> 0.55151103E+03</totfact>
</mgrwt>
</event>
<event>
 4    1  0.8362047E-005  0.4780034E+03  0.7818608E-02  0.1019685E+00
         -2   -1    0    0    0  501 -0.00000000000E+00  0.00000000000E+00  0.18607484479E+03  0.18607484481E+03  0.25500000000E-02 0. -1.
          2   -1    0    0  501    0  0.00000000000E+00 -0.00000000000E+00 -0.30698297856E+03  0.30698297857E+03  0.25500000000E-02 0.  1.
    5000001    1    1    2    0    0  0.11540935477E+03  0.11541519447E+03 -0.15881367811E+01  0.23209374930E+03  0.16500000000E+03 0.  0.
   -5000001    1    1    2    0    0 -0.11540935477E+03 -0.11541519447E+03 -0.11931999699E+03  0.26096407409E+03  0.16500000000E+03 0.  0.
<mgrwt>
<rscale>  0 0.47800339E+03</rscale>
<asrwt>0</asrwt>
<pdfrwt beam="1">  1        2 0.47228151E-01 0.47800339E+03</pdfrwt>
<pdfrwt beam="2">  1       -2 0.28626899E-01 0.47800339E+03</pdfrwt>
<totfact> 0.11956523E+03</totfact>
</mgrwt>
</event>
<event>
 4    1  0.8362047E-005  0.8956999E+03  0.7818608E-02  0.9430973E-01
         -2   -1    0    0    0  501 -0.00000000000E+00  0.00000000000E+00  0.76989982911E+02  0.76989982954E+02  0.25500000000E-02 0. -1.
          2   -1    0    0  501    0  0.00000000000E+00 -0.00000000000E+00 -0.26051386867E+04  0.26051386867E+04  0.25500000000E-02 0.  1.
    5000001    1    1    2    0    0  0.40210592409E+02 -0.19704946890E+03 -0.17243732701E+03  0.31209776782E+03  0.16500000000E+03 0.  0.
   -5000001    1    1    2    0    0 -0.40210592409E+02  0.19704946890E+03 -0.23557113768E+04  0.23700309018E+04  0.16500000000E+03 0.  0.
<mgrwt>
<rscale>  0 0.89569991E+03</rscale>
<asrwt>0</asrwt>
<pdfrwt beam="1">  1        2 0.40079050E+00 0.89569991E+03</pdfrwt>
<pdfrwt beam="2">  1       -2 0.11844615E-01 0.89569991E+03</pdfrwt>
<totfact> 0.16128112E+02</totfact>
</mgrwt>
</event>
<event>
 4    1  0.8362047E-005  0.4166272E+03  0.7818608E-02  0.1038170E+00
          2   -1    0    0  501    0  0.00000000000E+00  0.00000000000E+00  0.10700723317E+03  0.10700723320E+03  0.25500000000E-02 0.  1.
         -2   -1    0    0    0  501 -0.00000000000E+00 -0.00000000000E+00 -0.40552912279E+03  0.40552912279E+03  0.25500000000E-02 0. -1.
    5000001    1    1    2    0    0 -0.87839114510E+02  0.89957562214E+02 -0.17265023527E+03  0.26989104612E+03  0.16500000000E+03 0.  0.
   -5000001    1    1    2    0    0  0.87839114510E+02 -0.89957562214E+02 -0.12587165434E+03  0.24264530987E+03  0.16500000000E+03 0.  0.
<mgrwt>
<rscale>  0 0.41662717E+03</rscale>
<asrwt>0</asrwt>
<pdfrwt beam="1">  1        2 0.16462651E-01 0.41662717E+03</pdfrwt>
<pdfrwt beam="2">  1       -2 0.62389095E-01 0.41662717E+03</pdfrwt>
<totfact> 0.85599494E+02</totfact>
</mgrwt>
</event>
<event>
 4    1  0.8362047E-005  0.4735711E+03  0.7818608E-02  0.1020917E+00
         -2   -1    0    0    0  501 -0.00000000000E+00  0.00000000000E+00  0.59946963750E+02  0.59946963804E+02  0.25500000000E-02 0. -1.
          2   -1    0    0  501    0  0.00000000000E+00 -0.00000000000E+00 -0.93528337962E+03  0.93528337962E+03  0.25500000000E-02 0.  1.
    5000001    1    1    2    0    0 -0.12918230016E+03  0.93218222656E+02 -0.31396785910E+03  0.38881682095E+03  0.16500000000E+03 0.  0.
   -5000001    1    1    2    0    0  0.12918230016E+03 -0.93218222656E+02 -0.56136855677E+03  0.60641352247E+03  0.16500000000E+03 0.  0.
<mgrwt>
<rscale>  0 0.47357111E+03</rscale>
<asrwt>0</asrwt>
<pdfrwt beam="1">  1        2 0.14388974E+00 0.47357111E+03</pdfrwt>
<pdfrwt beam="2">  1       -2 0.92226105E-02 0.47357111E+03</pdfrwt>
<totfact> 0.21809781E+03</totfact>
</mgrwt>
</event>
<event>
 4    1  0.8362047E-005  0.4225343E+03  0.7818608E-02  0.1036245E+00
          2   -1    0    0  501    0  0.00000000000E+00  0.00000000000E+00  0.48637974074E+03  0.48637974075E+03  0.25500000000E-02 0.  1.
         -2   -1    0    0    0  501 -0.00000000000E+00 -0.00000000000E+00 -0.91767420992E+02  0.91767421027E+02  0.25500000000E-02 0. -1.
    5000001    1    1    2    0    0 -0.12176797771E+03 -0.46658353285E+02  0.16979131926E+03  0.27029342282E+03  0.16500000000E+03 0.  0.
   -5000001    1    1    2    0    0  0.12176797771E+03  0.46658353285E+02  0.22482100049E+03  0.30785373895E+03  0.16500000000E+03 0.  0.
<mgrwt>
<rscale>  0 0.42253433E+03</rscale>
<asrwt>0</asrwt>
<pdfrwt beam="1">  1        2 0.74827653E-01 0.42253433E+03</pdfrwt>
<pdfrwt beam="2">  1       -2 0.14118065E-01 0.42253433E+03</pdfrwt>
<totfact> 0.24465931E+03</totfact>
</mgrwt>
</event>
<event>
 4    1  0.8362047E-005  0.6747926E+03  0.7818608E-02  0.9761339E-01
         -2   -1    0    0    0  501 -0.00000000000E+00  0.00000000000E+00  0.10414413818E+03  0.10414413821E+03  0.25500000000E-02 0. -1.
          2   -1    0    0  501    0  0.00000000000E+00 -0.00000000000E+00 -0.10930644514E+04  0.10930644514E+04  0.25500000000E-02 0.  1.
    5000001    1    1    2    0    0  0.77721759229E+01 -0.28943929550E+03 -0.58793379302E+03  0.67581554989E+03  0.16500000000E+03 0.  0.
   -5000001    1    1    2    0    0 -0.77721759229E+01  0.28943929550E+03 -0.40098652021E+03  0.52139303974E+03  0.16500000000E+03 0.  0.
<mgrwt>
<rscale>  0 0.67479258E+03</rscale>
<asrwt>0</asrwt>
<pdfrwt beam="1">  1        2 0.16816375E+00 0.67479258E+03</pdfrwt>
<pdfrwt beam="2">  1       -2 0.16022176E-01 0.67479258E+03</pdfrwt>
<totfact> 0.69503875E+02</totfact>
</mgrwt>
</event>
<event>
 4    1  0.8362047E-005  0.6491198E+03  0.7818608E-02  0.9808432E-01
          2   -1    0    0  501    0  0.00000000000E+00  0.00000000000E+00  0.80916422642E+03  0.80916422642E+03  0.25500000000E-02 0.  1.
         -2   -1    0    0    0  501 -0.00000000000E+00 -0.00000000000E+00 -0.13018261236E+03  0.13018261239E+03  0.25500000000E-02 0. -1.
    5000001    1    1    2    0    0 -0.41629990747E+02  0.23198907239E+03  0.55685658710E+03  0.62679043103E+03  0.16500000000E+03 0.  0.
   -5000001    1    1    2    0    0  0.41629990747E+02 -0.23198907239E+03  0.12212502696E+03  0.31255640778E+03  0.16500000000E+03 0.  0.
<mgrwt>
<rscale>  0 0.64911975E+03</rscale>
<asrwt>0</asrwt>
<pdfrwt beam="1">  1        2 0.12448680E+00 0.64911975E+03</pdfrwt>
<pdfrwt beam="2">  1       -2 0.20028094E-01 0.64911975E+03</pdfrwt>
<totfact> 0.72648082E+02</totfact>
</mgrwt>
</event>
<event>
 4    1  0.8362047E-005  0.4432914E+03  0.7818608E-02  0.1029742E+00
         -2   -1    0    0    0  501 -0.00000000000E+00  0.00000000000E+00  0.11655589141E+03  0.11655589144E+03  0.25500000000E-02 0. -1.
          2   -1    0    0  501    0  0.00000000000E+00 -0.00000000000E+00 -0.42148725436E+03  0.42148725437E+03  0.25500000000E-02 0.  1.
    5000001    1    1    2    0    0  0.12820174737E+03 -0.68019667313E+02 -0.18763205957E+03  0.28895181769E+03  0.16500000000E+03 0.  0.
   -5000001    1    1    2    0    0 -0.12820174737E+03  0.68019667313E+02 -0.11729930337E+03  0.24909132811E+03  0.16500000000E+03 0.  0.
<mgrwt>
<rscale>  0 0.44329143E+03</rscale>
<asrwt>0</asrwt>
<pdfrwt beam="1">  1        2 0.64844192E-01 0.44329143E+03</pdfrwt>
<pdfrwt beam="2">  1       -2 0.17931676E-01 0.44329143E+03</pdfrwt>
<totfact> 0.19222589E+03</totfact>
</mgrwt>
</event>
<event>
 4    1  0.8362047E-005  0.4384932E+03  0.7818608E-02  0.1031210E+00
         -2   -1    0    0    0  501 -0.00000000000E+00  0.00000000000E+00  0.16123654882E+03  0.16123654884E+03  0.25500000000E-02 0. -1.
          2   -1    0    0  501    0  0.00000000000E+00 -0.00000000000E+00 -0.29812759086E+03  0.29812759088E+03  0.25500000000E-02 0.  1.
    5000001    1    1    2    0    0 -0.12243278434E+03 -0.39261384935E+02 -0.13724338738E+03  0.25018391317E+03  0.16500000000E+03 0.  0.
   -5000001    1    1    2    0    0  0.12243278434E+03  0.39261384935E+02  0.35234533484E+00  0.20918022654E+03  0.16500000000E+03 0.  0.
<mgrwt>
<rscale>  0 0.43849316E+03</rscale>
<asrwt>0</asrwt>
<pdfrwt beam="1">  1        2 0.45865783E-01 0.43849316E+03</pdfrwt>
<pdfrwt beam="2">  1       -2 0.24805623E-01 0.43849316E+03</pdfrwt>
<totfact> 0.15979197E+03</totfact>
</mgrwt>
</event>
<event>
 4    1  0.8362047E-005  0.1180065E+04  0.7818608E-02  0.9130487E-01
          2   -1    0    0  501    0  0.00000000000E+00  0.00000000000E+00  0.12131604745E+04  0.12131604745E+04  0.25500000000E-02 0.  1.
         -2   -1    0    0    0  501 -0.00000000000E+00 -0.00000000000E+00 -0.28696814864E+03  0.28696814865E+03  0.25500000000E-02 0. -1.
    5000001    1    1    2    0    0  0.29575264043E+03  0.47785363672E+03  0.55387707495E+03  0.80611322815E+03  0.16500000000E+03 0.  0.
   -5000001    1    1    2    0    0 -0.29575264043E+03 -0.47785363672E+03  0.37231525094E+03  0.69401539502E+03  0.16500000000E+03 0.  0.
<mgrwt>
<rscale>  0 0.11800651E+04</rscale>
<asrwt>0</asrwt>
<pdfrwt beam="1">  1        2 0.18664008E+00 0.11800651E+04</pdfrwt>
<pdfrwt beam="2">  1       -2 0.44148945E-01 0.11800651E+04</pdfrwt>
<totfact> 0.89369873E+01</totfact>
</mgrwt>
</event>
<event>
 4    1  0.8362047E-005  0.4287956E+03  0.7818608E-02  0.1034241E+00
         -2   -1    0    0    0  501 -0.00000000000E+00  0.00000000000E+00  0.31312409414E+02  0.31312409518E+02  0.25500000000E-02 0. -1.
          2   -1    0    0  501    0  0.00000000000E+00 -0.00000000000E+00 -0.14679936313E+04  0.14679936313E+04  0.25500000000E-02 0.  1.
    5000001    1    1    2    0    0 -0.11611271119E+03 -0.54454330895E+02 -0.88580981346E+03  0.91012716775E+03  0.16500000000E+03 0.  0.
   -5000001    1    1    2    0    0  0.11611271119E+03  0.54454330895E+02 -0.55087140844E+03  0.58917887308E+03  0.16500000000E+03 0.  0.
<mgrwt>
<rscale>  0 0.42879560E+03</rscale>
<asrwt>0</asrwt>
<pdfrwt beam="1">  1        2 0.22584512E+00 0.42879560E+03</pdfrwt>
<pdfrwt beam="2">  1       -2 0.48172949E-02 0.42879560E+03</pdfrwt>
<totfact> 0.29410669E+03</totfact>
</mgrwt>
</event>
<event>
 4    1  0.8362047E-005  0.5298258E+03  0.7818608E-02  0.1006274E+00
         -2   -1    0    0    0  501 -0.00000000000E+00  0.00000000000E+00  0.78233919554E+02  0.78233919596E+02  0.25500000000E-02 0. -1.
          2   -1    0    0  501    0  0.00000000000E+00 -0.00000000000E+00 -0.89703868473E+03  0.89703868474E+03  0.25500000000E-02 0.  1.
    5000001    1    1    2    0    0 -0.73451920952E+02  0.19074020135E+03 -0.34625545822E+03  0.43462035324E+03  0.16500000000E+03 0.  0.
   -5000001    1    1    2    0    0  0.73451920952E+02 -0.19074020135E+03 -0.47254930696E+03  0.54065225109E+03  0.16500000000E+03 0.  0.
<mgrwt>
<rscale>  0 0.52982583E+03</rscale>
<asrwt>0</asrwt>
<pdfrwt beam="1">  1        2 0.13800594E+00 0.52982583E+03</pdfrwt>
<pdfrwt beam="2">  1       -2 0.12035988E-01 0.52982583E+03</pdfrwt>
<totfact> 0.14996454E+03</totfact>
</mgrwt>
</event>
<event>
 4    1  0.8362047E-005  0.4833975E+03  0.7818608E-02  0.1018206E+00
          2   -1    0    0  501    0  0.00000000000E+00  0.00000000000E+00  0.40485926667E+03  0.40485926668E+03  0.25500000000E-02 0.  1.
         -2   -1    0    0    0  501 -0.00000000000E+00 -0.00000000000E+00 -0.14429281596E+03  0.14429281598E+03  0.25500000000E-02 0. -1.
    5000001    1    1    2    0    0  0.10042065483E+03  0.14500833203E+03  0.14054270255E+03  0.27944404719E+03  0.16500000000E+03 0.  0.
   -5000001    1    1    2    0    0 -0.10042065483E+03 -0.14500833203E+03  0.12002374816E+03  0.26970803547E+03  0.16500000000E+03 0.  0.
<mgrwt>
<rscale>  0 0.48339749E+03</rscale>
<asrwt>0</asrwt>
<pdfrwt beam="1">  1        2 0.62286039E-01 0.48339749E+03</pdfrwt>
<pdfrwt beam="2">  1       -2 0.22198895E-01 0.48339749E+03</pdfrwt>
<totfact> 0.13895372E+03</totfact>
</mgrwt>
</event>
<event>
 4    1  0.8362047E-005  0.3904725E+03  0.7818608E-02  0.1047130E+00
          2   -1    0    0  501    0  0.00000000000E+00  0.00000000000E+00  0.23606974205E+03  0.23606974206E+03  0.25500000000E-02 0.  1.
         -2   -1    0    0    0  501 -0.00000000000E+00 -0.00000000000E+00 -0.16146578805E+03  0.16146578807E+03  0.25500000000E-02 0. -1.
    5000001    1    1    2    0    0 -0.94381561816E+02 -0.43953671688E+02  0.29933486301E+02  0.19738494894E+03  0.16500000000E+03 0.  0.
   -5000001    1    1    2    0    0  0.94381561816E+02  0.43953671688E+02  0.44670467698E+02  0.20015058119E+03  0.16500000000E+03 0.  0.
<mgrwt>
<rscale>  0 0.39047247E+03</rscale>
<asrwt>0</asrwt>
<pdfrwt beam="1">  1        2 0.36318422E-01 0.39047247E+03</pdfrwt>
<pdfrwt beam="2">  1       -2 0.24840890E-01 0.39047247E+03</pdfrwt>
<totfact> 0.20549813E+03</totfact>
</mgrwt>
</event>
<event>
 4    1  0.8362047E-005  0.3939731E+03  0.7818608E-02  0.1045887E+00
         -2   -1    0    0    0  501 -0.00000000000E+00  0.00000000000E+00  0.11299512512E+03  0.11299512515E+03  0.25500000000E-02 0. -1.
          2   -1    0    0  501    0  0.00000000000E+00 -0.00000000000E+00 -0.34341044041E+03  0.34341044042E+03  0.25500000000E-02 0.  1.
    5000001    1    1    2    0    0  0.54357021487E+02  0.52909342896E+02 -0.20362107629E+03  0.27283809679E+03  0.16500000000E+03 0.  0.
   -5000001    1    1    2    0    0 -0.54357021487E+02 -0.52909342896E+02 -0.26794239011E+02  0.18356746878E+03  0.16500000000E+03 0.  0.
<mgrwt>
<rscale>  0 0.39397312E+03</rscale>
<asrwt>0</asrwt>
<pdfrwt beam="1">  1        2 0.52832375E-01 0.39397312E+03</pdfrwt>
<pdfrwt beam="2">  1       -2 0.17383866E-01 0.39397312E+03</pdfrwt>
<totfact> 0.25361602E+03</totfact>
</mgrwt>
</event>
<event>
 4    1  0.8362047E-005  0.4970065E+03  0.7818608E-02  0.1014563E+00
          2   -1    0    0  501    0  0.00000000000E+00  0.00000000000E+00  0.43376148162E+02  0.43376148237E+02  0.25500000000E-02 0.  1.
         -2   -1    0    0    0  501 -0.00000000000E+00 -0.00000000000E+00 -0.14236824420E+04  0.14236824420E+04  0.25500000000E-02 0. -1.
    5000001    1    1    2    0    0  0.16891800816E+03 -0.54787380401E+02 -0.85166514191E+03  0.88549052196E+03  0.16500000000E+03 0.  0.
   -5000001    1    1    2    0    0 -0.16891800816E+03  0.54787380401E+02 -0.52864115189E+03  0.58156806825E+03  0.16500000000E+03 0.  0.
<mgrwt>
<rscale>  0 0.49700648E+03</rscale>
<asrwt>0</asrwt>
<pdfrwt beam="1">  1        2 0.66732547E-02 0.49700648E+03</pdfrwt>
<pdfrwt beam="2">  1       -2 0.21902803E+00 0.49700648E+03</pdfrwt>
<totfact> 0.11662077E+02</totfact>
</mgrwt>
</event>
<event>
 4    1  0.8362047E-005  0.4015558E+03  0.7818608E-02  0.1043242E+00
          2   -1    0    0  501    0  0.00000000000E+00  0.00000000000E+00  0.31958191183E+03  0.31958191184E+03  0.25500000000E-02 0.  1.
         -2   -1    0    0    0  501 -0.00000000000E+00 -0.00000000000E+00 -0.12613905692E+03  0.12613905694E+03  0.25500000000E-02 0. -1.
    5000001    1    1    2    0    0 -0.10734627052E+03  0.39408816032E+02  0.93127337517E+02  0.22130064973E+03  0.16500000000E+03 0.  0.
   -5000001    1    1    2    0    0  0.10734627052E+03 -0.39408816032E+02  0.10031551740E+03  0.22442031906E+03  0.16500000000E+03 0.  0.
<mgrwt>
<rscale>  0 0.40155578E+03</rscale>
<asrwt>0</asrwt>
<pdfrwt beam="1">  1        2 0.49166447E-01 0.40155578E+03</pdfrwt>
<pdfrwt beam="2">  1       -2 0.19406009E-01 0.40155578E+03</pdfrwt>
<totfact> 0.22741047E+03</totfact>
</mgrwt>
</event>
<event>
 4    1  0.8362047E-005  0.4159375E+03  0.7818608E-02  0.1038397E+00
         -2   -1    0    0    0  501 -0.00000000000E+00  0.00000000000E+00  0.10455828297E+03  0.10455828300E+03  0.25500000000E-02 0. -1.
          2   -1    0    0  501    0  0.00000000000E+00 -0.00000000000E+00 -0.41365439291E+03  0.41365439292E+03  0.25500000000E-02 0.  1.
    5000001    1    1    2    0    0  0.96468677140E+02  0.77913495316E+02 -0.12280167434E+03  0.24017070937E+03  0.16500000000E+03 0.  0.
   -5000001    1    1    2    0    0 -0.96468677140E+02 -0.77913495316E+02 -0.18629443561E+03  0.27804196655E+03  0.16500000000E+03 0.  0.
<mgrwt>
<rscale>  0 0.41593746E+03</rscale>
<asrwt>0</asrwt>
<pdfrwt beam="1">  1        2 0.63639136E-01 0.41593746E+03</pdfrwt>
<pdfrwt beam="2">  1       -2 0.16085890E-01 0.41593746E+03</pdfrwt>
<totfact> 0.23580020E+03</totfact>
</mgrwt>
</event>
<event>
 4    1  0.8362047E-005  0.4574616E+03  0.7818608E-02  0.1025520E+00
          2   -1    0    0  501    0  0.00000000000E+00  0.00000000000E+00  0.10195881677E+04  0.10195881677E+04  0.25500000000E-02 0.  1.
         -2   -1    0    0    0  501 -0.00000000000E+00 -0.00000000000E+00 -0.51312651876E+02  0.51312651939E+02  0.25500000000E-02 0. -1.
    5000001    1    1    2    0    0  0.37416461295E+02 -0.39414594215E+01  0.12392405854E+03  0.20975628468E+03  0.16500000000E+03 0.  0.
   -5000001    1    1    2    0    0 -0.37416461295E+02  0.39414594215E+01  0.84435145730E+03  0.86114453498E+03  0.16500000000E+03 0.  0.
<mgrwt>
<rscale>  0 0.45746157E+03</rscale>
<asrwt>0</asrwt>
<pdfrwt beam="1">  1        2 0.15685972E+00 0.45746157E+03</pdfrwt>
<pdfrwt beam="2">  1       -2 0.78942541E-02 0.45746157E+03</pdfrwt>
<totfact> 0.24704459E+03</totfact>
</mgrwt>
</event>
<event>
 4    1  0.8362047E-005  0.6988895E+03  0.7818608E-02  0.9719133E-01
          2   -1    0    0  501    0  0.00000000000E+00  0.00000000000E+00  0.20928204097E+04  0.20928204097E+04  0.25500000000E-02 0.  1.
         -2   -1    0    0    0  501 -0.00000000000E+00 -0.00000000000E+00 -0.58347883598E+02  0.58347883654E+02  0.25500000000E-02 0. -1.
    5000001    1    1    2    0    0  0.45540455445E+02  0.15467450411E+03  0.20937042849E+03  0.31154311360E+03  0.16500000000E+03 0.  0.
   -5000001    1    1    2    0    0 -0.45540455445E+02 -0.15467450411E+03  0.18251020976E+04  0.18396251797E+04  0.16500000000E+03 0.  0.
<mgrwt>
<rscale>  0 0.69888952E+03</rscale>
<asrwt>0</asrwt>
<pdfrwt beam="1">  1        2 0.32197239E+00 0.69888952E+03</pdfrwt>
<pdfrwt beam="2">  1       -2 0.89765970E-02 0.69888952E+03</pdfrwt>
<totfact> 0.49941549E+02</totfact>
</mgrwt>
</event>
<event>
 4    1  0.8362047E-005  0.7137324E+03  0.7818608E-02  0.9694032E-01
          2   -1    0    0  501    0  0.00000000000E+00  0.00000000000E+00  0.14392659337E+04  0.14392659337E+04  0.25500000000E-02 0.  1.
         -2   -1    0    0    0  501 -0.00000000000E+00 -0.00000000000E+00 -0.88485021555E+02  0.88485021592E+02  0.25500000000E-02 0. -1.
    5000001    1    1    2    0    0 -0.30373982453E+03 -0.61155395627E+02  0.53782022742E+03  0.64224096758E+03  0.16500000000E+03 0.  0.
   -5000001    1    1    2    0    0  0.30373982453E+03  0.61155395627E+02  0.81296068468E+03  0.88550998767E+03  0.16500000000E+03 0.  0.
<mgrwt>
<rscale>  0 0.71373238E+03</rscale>
<asrwt>0</asrwt>
<pdfrwt beam="1">  1        2 0.22142555E+00 0.71373238E+03</pdfrwt>
<pdfrwt beam="2">  1       -2 0.13613079E-01 0.71373238E+03</pdfrwt>
<totfact> 0.57434107E+02</totfact>
</mgrwt>
</event>
<event>
 4    1  0.8362047E-005  0.6418592E+03  0.7818608E-02  0.9822176E-01
          2   -1    0    0  501    0  0.00000000000E+00  0.00000000000E+00  0.50705559774E+03  0.50705559775E+03  0.25500000000E-02 0.  1.
         -2   -1    0    0    0  501 -0.00000000000E+00 -0.00000000000E+00 -0.20312526787E+03  0.20312526789E+03  0.25500000000E-02 0. -1.
    5000001    1    1    2    0    0  0.16334022616E+03  0.17370862872E+03  0.30414070643E+03  0.42021576182E+03  0.16500000000E+03 0.  0.
   -5000001    1    1    2    0    0 -0.16334022616E+03 -0.17370862872E+03 -0.21037656363E+00  0.28996510381E+03  0.16500000000E+03 0.  0.
<mgrwt>
<rscale>  0 0.64185919E+03</rscale>
<asrwt>0</asrwt>
<pdfrwt beam="1">  1        2 0.78008553E-01 0.64185919E+03</pdfrwt>
<pdfrwt beam="2">  1       -2 0.31250042E-01 0.64185919E+03</pdfrwt>
<totfact> 0.57906148E+02</totfact>
</mgrwt>
</event>
<event>
 4    1  0.8362047E-005  0.5818082E+03  0.7818608E-02  0.9943884E-01
          2   -1    0    0  501    0  0.00000000000E+00  0.00000000000E+00  0.44005892897E+04  0.44005892897E+04  0.25500000000E-02 0.  1.
         -2   -1    0    0    0  501 -0.00000000000E+00 -0.00000000000E+00 -0.19230420885E+02  0.19230421054E+02  0.25500000000E-02 0. -1.
    5000001    1    1    2    0    0  0.22136194725E+03  0.33883245140E+02  0.15437995388E+04  0.15686590458E+04  0.16500000000E+03 0.  0.
   -5000001    1    1    2    0    0 -0.22136194725E+03 -0.33883245140E+02  0.28375593301E+04  0.28511606650E+04  0.16500000000E+03 0.  0.
<mgrwt>
<rscale>  0 0.58180816E+03</rscale>
<asrwt>0</asrwt>
<pdfrwt beam="1">  1        2 0.67701346E+00 0.58180816E+03</pdfrwt>
<pdfrwt beam="2">  1       -2 0.29585275E-02 0.58180816E+03</pdfrwt>
<totfact> 0.82412848E+01</totfact>
</mgrwt>
</event>
<event>
 4    1  0.8362047E-005  0.4097999E+03  0.7818608E-02  0.1040438E+00
         -2   -1    0    0    0  501 -0.00000000000E+00  0.00000000000E+00  0.21772023981E+03  0.21772023983E+03  0.25500000000E-02 0. -1.
          2   -1    0    0  501    0  0.00000000000E+00 -0.00000000000E+00 -0.19283460956E+03  0.19283460958E+03  0.25500000000E-02 0.  1.
    5000001    1    1    2    0    0  0.81797083011E+02 -0.15126902790E+02 -0.76260740200E+02  0.19990069153E+03  0.16500000000E+03 0.  0.
   -5000001    1    1    2    0    0 -0.81797083011E+02  0.15126902790E+02  0.10114637045E+03  0.21065415788E+03  0.16500000000E+03 0.  0.
<mgrwt>
<rscale>  0 0.40979994E+03</rscale>
<asrwt>0</asrwt>
<pdfrwt beam="1">  1        2 0.29666863E-01 0.40979994E+03</pdfrwt>
<pdfrwt beam="2">  1       -2 0.33495421E-01 0.40979994E+03</pdfrwt>
<totfact> 0.14917198E+03</totfact>
</mgrwt>
</event>
<event>
 4    1  0.8362047E-005  0.5540604E+03  0.7818608E-02  0.1000558E+00
         -2   -1    0    0    0  501 -0.00000000000E+00  0.00000000000E+00  0.25049107435E+03  0.25049107436E+03  0.25500000000E-02 0. -1.
          2   -1    0    0  501    0  0.00000000000E+00 -0.00000000000E+00 -0.30638105101E+03  0.30638105102E+03  0.25500000000E-02 0.  1.
    5000001    1    1    2    0    0  0.76426426360E+02 -0.20828796524E+03 -0.10657598032E+02  0.27670102910E+03  0.16500000000E+03 0.  0.
   -5000001    1    1    2    0    0 -0.76426426360E+02  0.20828796524E+03 -0.45232378625E+02  0.28017109627E+03  0.16500000000E+03 0.  0.
<mgrwt>
<rscale>  0 0.55406035E+03</rscale>
<asrwt>0</asrwt>
<pdfrwt beam="1">  1        2 0.47135546E-01 0.55406035E+03</pdfrwt>
<pdfrwt beam="2">  1       -2 0.38537089E-01 0.55406035E+03</pdfrwt>
<totfact> 0.68615828E+02</totfact>
</mgrwt>
</event>
<event>
 4    1  0.8362047E-005  0.3501550E+03  0.7818608E-02  0.1062551E+00
         -2   -1    0    0    0  501 -0.00000000000E+00  0.00000000000E+00  0.20085434419E+03  0.20085434421E+03  0.25500000000E-02 0.  1.
          2   -1    0    0  501    0  0.00000000000E+00 -0.00000000000E+00 -0.15260871752E+03  0.15260871754E+03  0.25500000000E-02 0. -1.
    5000001    1    1    2    0    0 -0.44745857149E+02  0.25413017162E+02 -0.40534462705E+01  0.17288563734E+03  0.16500000000E+03 0.  0.
   -5000001    1    1    2    0    0  0.44745857149E+02 -0.25413017162E+02  0.52299072944E+02  0.18057742440E+03  0.16500000000E+03 0.  0.
<mgrwt>
<rscale>  0 0.35015496E+03</rscale>
<asrwt>0</asrwt>
<pdfrwt beam="1">  1        2 0.23478264E-01 0.35015496E+03</pdfrwt>
<pdfrwt beam="2">  1       -2 0.30900668E-01 0.35015496E+03</pdfrwt>
<totfact> 0.22474414E+03</totfact>
</mgrwt>
</event>
<event>
 4    1  0.8362047E-005  0.6624880E+03  0.7818608E-02  0.9783624E-01
         -2   -1    0    0    0  501 -0.00000000000E+00  0.00000000000E+00  0.15782594263E+03  0.15782594265E+03  0.25500000000E-02 0.  1.
          2   -1    0    0  501    0  0.00000000000E+00 -0.00000000000E+00 -0.69521259103E+03  0.69521259103E+03  0.25500000000E-02 0. -1.
    5000001    1    1    2    0    0 -0.78099395231E+01  0.27212055606E+03 -0.38661501965E+03  0.50080611578E+03  0.16500000000E+03 0.  0.
   -5000001    1    1    2    0    0  0.78099395231E+01 -0.27212055606E+03 -0.15077162875E+03  0.35223241790E+03  0.16500000000E+03 0.  0.
<mgrwt>
<rscale>  0 0.66248798E+03</rscale>
<asrwt>0</asrwt>
<pdfrwt beam="1">  1        2 0.10695578E+00 0.66248798E+03</pdfrwt>
<pdfrwt beam="2">  1       -2 0.24280915E-01 0.66248798E+03</pdfrwt>
<totfact> 0.62813373E+02</totfact>
</mgrwt>
</event>
<event>
 4    1  0.8362047E-005  0.4511031E+03  0.7818608E-02  0.1027394E+00
         -2   -1    0    0    0  501 -0.00000000000E+00  0.00000000000E+00  0.16202209682E+03  0.16202209684E+03  0.25500000000E-02 0. -1.
          2   -1    0    0  501    0  0.00000000000E+00 -0.00000000000E+00 -0.31399109208E+03  0.31399109209E+03  0.25500000000E-02 0.  1.
    5000001    1    1    2    0    0  0.10882781549E+03 -0.10527643026E+03 -0.47633118917E+02  0.22895531051E+03  0.16500000000E+03 0.  0.
   -5000001    1    1    2    0    0 -0.10882781549E+03  0.10527643026E+03 -0.10433587635E+03  0.24705787842E+03  0.16500000000E+03 0.  0.
<mgrwt>
<rscale>  0 0.45110307E+03</rscale>
<asrwt>0</asrwt>
<pdfrwt beam="1">  1        2 0.48306322E-01 0.45110307E+03</pdfrwt>
<pdfrwt beam="2">  1       -2 0.24926477E-01 0.45110307E+03</pdfrwt>
<totfact> 0.14970378E+03</totfact>
</mgrwt>
</event>
<event>
 4    1  0.8362047E-005  0.4459450E+03  0.7818608E-02  0.1028938E+00
          2   -1    0    0  501    0  0.00000000000E+00  0.00000000000E+00  0.66483854821E+03  0.66483854821E+03  0.25500000000E-02 0.  1.
         -2   -1    0    0    0  501 -0.00000000000E+00 -0.00000000000E+00 -0.74780162098E+02  0.74780162141E+02  0.25500000000E-02 0. -1.
    5000001    1    1    2    0    0  0.79951922887E+01 -0.11138177188E+03  0.46106505199E+03  0.50227064852E+03  0.16500000000E+03 0.  0.
   -5000001    1    1    2    0    0 -0.79951922887E+01  0.11138177188E+03  0.12899333412E+03  0.23734806183E+03  0.16500000000E+03 0.  0.
<mgrwt>
<rscale>  0 0.44594499E+03</rscale>
<asrwt>0</asrwt>
<pdfrwt beam="1">  1        2 0.10228285E+00 0.44594499E+03</pdfrwt>
<pdfrwt beam="2">  1       -2 0.11504641E-01 0.44594499E+03</pdfrwt>
<totfact> 0.23764597E+03</totfact>
</mgrwt>
</event>
<event>
 4    1  0.8362047E-005  0.6026323E+03  0.7818608E-02  0.9899960E-01
         -2   -1    0    0    0  501 -0.00000000000E+00  0.00000000000E+00  0.34122574912E+02  0.34122575007E+02  0.25500000000E-02 0. -1.
          2   -1    0    0  501    0  0.00000000000E+00 -0.00000000000E+00 -0.26607440104E+04  0.26607440104E+04  0.25500000000E-02 0.  1.
    5000001    1    1    2    0    0 -0.16367345356E+03 -0.15940051734E+03 -0.83650188361E+03  0.88269922715E+03  0.16500000000E+03 0.  0.
   -5000001    1    1    2    0    0  0.16367345356E+03  0.15940051734E+03 -0.17901195519E+04  0.18121673582E+04  0.16500000000E+03 0.  0.
<mgrwt>
<rscale>  0 0.60263235E+03</rscale>
<asrwt>0</asrwt>
<pdfrwt beam="1">  1        2 0.40934507E+00 0.60263235E+03</pdfrwt>
<pdfrwt beam="2">  1       -2 0.52496290E-02 0.60263235E+03</pdfrwt>
<totfact> 0.56703569E+02</totfact>
</mgrwt>
</event>
<event>
 4    1  0.8362047E-005  0.9979521E+03  0.7818608E-02  0.9310794E-01
          2   -1    0    0  501    0  0.00000000000E+00  0.00000000000E+00  0.43086543226E+04  0.43086543226E+04  0.25500000000E-02 0.  1.
         -2   -1    0    0    0  501 -0.00000000000E+00 -0.00000000000E+00 -0.57785353416E+02  0.57785353472E+02  0.25500000000E-02 0. -1.
    5000001    1    1    2    0    0 -0.90046521678E+02  0.45086272641E+03  0.16799478860E+04  0.17495243565E+04  0.16500000000E+03 0.  0.
   -5000001    1    1    2    0    0  0.90046521678E+02 -0.45086272641E+03  0.25709210831E+04  0.26169153196E+04  0.16500000000E+03 0.  0.
<mgrwt>
<rscale>  0 0.99795213E+03</rscale>
<asrwt>0</asrwt>
<pdfrwt beam="1">  1        2 0.66287010E+00 0.99795213E+03</pdfrwt>
<pdfrwt beam="2">  1       -2 0.88900517E-02 0.99795213E+03</pdfrwt>
<totfact> 0.16613116E+01</totfact>
</mgrwt>
</event>
<event>
 4    1  0.8362047E-005  0.4335168E+03  0.7818608E-02  0.1032755E+00
         -2   -1    0    0    0  501 -0.00000000000E+00  0.00000000000E+00  0.41540202701E+03  0.41540202702E+03  0.25500000000E-02 0. -1.
          2   -1    0    0  501    0  0.00000000000E+00 -0.00000000000E+00 -0.11310537168E+03  0.11310537171E+03  0.25500000000E-02 0.  1.
    5000001    1    1    2    0    0 -0.63838804296E+02  0.11127164208E+03  0.22120700372E+03  0.30432599258E+03  0.16500000000E+03 0.  0.
   -5000001    1    1    2    0    0  0.63838804296E+02 -0.11127164208E+03  0.81089651616E+02  0.22418140615E+03  0.16500000000E+03 0.  0.
<mgrwt>
<rscale>  0 0.43351678E+03</rscale>
<asrwt>0</asrwt>
<pdfrwt beam="1">  1        2 0.17400826E-01 0.43351678E+03</pdfrwt>
<pdfrwt beam="2">  1       -2 0.63908005E-01 0.43351678E+03</pdfrwt>
<totfact> 0.76198010E+02</totfact>
</mgrwt>
</event>
<event>
 4    1  0.8362047E-005  0.4124018E+03  0.7818608E-02  0.1039568E+00
         -2   -1    0    0    0  501 -0.00000000000E+00  0.00000000000E+00  0.13615893940E+03  0.13615893942E+03  0.25500000000E-02 0. -1.
          2   -1    0    0  501    0  0.00000000000E+00 -0.00000000000E+00 -0.31227340717E+03  0.31227340718E+03  0.25500000000E-02 0.  1.
    5000001    1    1    2    0    0  0.98690060235E+02  0.74433935925E+02 -0.92078601079E+02  0.22579549947E+03  0.16500000000E+03 0.  0.
   -5000001    1    1    2    0    0 -0.98690060235E+02 -0.74433935925E+02 -0.84035866690E+02  0.22263684712E+03  0.16500000000E+03 0.  0.
<mgrwt>
<rscale>  0 0.41240182E+03</rscale>
<asrwt>0</asrwt>
<pdfrwt beam="1">  1        2 0.48042062E-01 0.41240182E+03</pdfrwt>
<pdfrwt beam="2">  1       -2 0.20947529E-01 0.41240182E+03</pdfrwt>
<totfact> 0.20441998E+03</totfact>
</mgrwt>
</event>
<event>
 4    1  0.8362047E-005  0.1503703E+04  0.7818608E-02  0.8881994E-01
         -2   -1    0    0    0  501 -0.00000000000E+00  0.00000000000E+00  0.10425267872E+04  0.10425267872E+04  0.25500000000E-02 0. -1.
          2   -1    0    0  501    0  0.00000000000E+00 -0.00000000000E+00 -0.54222160042E+03  0.54222160043E+03  0.25500000000E-02 0.  1.
    5000001    1    1    2    0    0  0.59565153408E+03 -0.42782022043E+03  0.26594882242E+03  0.79736106452E+03  0.16500000000E+03 0.  0.
   -5000001    1    1    2    0    0 -0.59565153408E+03  0.42782022043E+03  0.23435636434E+03  0.78738732309E+03  0.16500000000E+03 0.  0.
<mgrwt>
<rscale>  0 0.15037028E+04</rscale>
<asrwt>0</asrwt>
<pdfrwt beam="1">  1        2 0.83418708E-01 0.15037028E+04</pdfrwt>
<pdfrwt beam="2">  1       -2 0.16038874E+00 0.15037028E+04</pdfrwt>
<totfact> 0.13520132E+01</totfact>
</mgrwt>
</event>
<event>
 4    1  0.8362047E-005  0.1202835E+04  0.7818608E-02  0.9110379E-01
          2   -1    0    0  501    0  0.00000000000E+00  0.00000000000E+00  0.20832501826E+04  0.20832501826E+04  0.25500000000E-02 0.  1.
         -2   -1    0    0    0  501 -0.00000000000E+00 -0.00000000000E+00 -0.17362425787E+03  0.17362425788E+03  0.25500000000E-02 0. -1.
    5000001    1    1    2    0    0 -0.40018652711E+02 -0.56853572833E+03  0.11390668148E+04  0.12843413003E+04  0.16500000000E+03 0.  0.
   -5000001    1    1    2    0    0  0.40018652711E+02  0.56853572833E+03  0.77055910993E+03  0.97253314023E+03  0.16500000000E+03 0.  0.
<mgrwt>
<rscale>  0 0.12028346E+04</rscale>
<asrwt>0</asrwt>
<pdfrwt beam="1">  1        2 0.32050001E+00 0.12028346E+04</pdfrwt>
<pdfrwt beam="2">  1       -2 0.26711425E-01 0.12028346E+04</pdfrwt>
<totfact> 0.75451333E+01</totfact>
</mgrwt>
</event>
<event>
 4    1  0.8362047E-005  0.5692102E+03  0.7818608E-02  0.9971428E-01
         -2   -1    0    0    0  501 -0.00000000000E+00  0.00000000000E+00  0.54321210074E+03  0.54321210075E+03  0.25500000000E-02 0. -1.
          2   -1    0    0  501    0  0.00000000000E+00 -0.00000000000E+00 -0.14911316716E+03  0.14911316718E+03  0.25500000000E-02 0.  1.
    5000001    1    1    2    0    0 -0.73109867549E+02 -0.19065031388E+03  0.33074458440E+03  0.42226718441E+03  0.16500000000E+03 0.  0.
   -5000001    1    1    2    0    0  0.73109867549E+02  0.19065031388E+03  0.63354349185E+02  0.27005808352E+03  0.16500000000E+03 0.  0.
<mgrwt>
<rscale>  0 0.56921025E+03</rscale>
<asrwt>0</asrwt>
<pdfrwt beam="1">  1        2 0.22940487E-01 0.56921025E+03</pdfrwt>
<pdfrwt beam="2">  1       -2 0.83571094E-01 0.56921025E+03</pdfrwt>
<totfact> 0.30648675E+02</totfact>
</mgrwt>
</event>
<event>
 4    1  0.8362047E-005  0.7914123E+03  0.7818608E-02  0.9572531E-01
          2   -1    0    0  501    0  0.00000000000E+00  0.00000000000E+00  0.12542952946E+04  0.12542952946E+04  0.25500000000E-02 0.  1.
         -2   -1    0    0    0  501 -0.00000000000E+00 -0.00000000000E+00 -0.12483772068E+03  0.12483772070E+03  0.25500000000E-02 0. -1.
    5000001    1    1    2    0    0  0.31952024174E+03  0.48050552914E+02  0.28943673988E+03  0.46411277392E+03  0.16500000000E+03 0.  0.
   -5000001    1    1    2    0    0 -0.31952024174E+03 -0.48050552914E+02  0.84002083402E+03  0.91502024136E+03  0.16500000000E+03 0.  0.
<mgrwt>
<rscale>  0 0.79141232E+03</rscale>
<asrwt>0</asrwt>
<pdfrwt beam="1">  1        2 0.19296850E+00 0.79141232E+03</pdfrwt>
<pdfrwt beam="2">  1       -2 0.19205803E-01 0.79141232E+03</pdfrwt>
<totfact> 0.40561419E+02</totfact>
</mgrwt>
</event>
<event>
 4    1  0.8362047E-005  0.5492878E+03  0.7818608E-02  0.1001659E+00
         -2   -1    0    0    0  501 -0.00000000000E+00  0.00000000000E+00  0.55483145678E+02  0.55483145736E+02  0.25500000000E-02 0. -1.
          2   -1    0    0  501    0  0.00000000000E+00 -0.00000000000E+00 -0.13594986836E+04  0.13594986836E+04  0.25500000000E-02 0.  1.
    5000001    1    1    2    0    0  0.10913236578E+03  0.42295272987E+02 -0.11305222630E+04  0.11484791467E+04  0.16500000000E+03 0.  0.
   -5000001    1    1    2    0    0 -0.10913236578E+03 -0.42295272987E+02 -0.17349327488E+03  0.26650268255E+03  0.16500000000E+03 0.  0.
<mgrwt>
<rscale>  0 0.54928777E+03</rscale>
<asrwt>0</asrwt>
<pdfrwt beam="1">  1        2 0.20915362E+00 0.54928777E+03</pdfrwt>
<pdfrwt beam="2">  1       -2 0.85358696E-02 0.54928777E+03</pdfrwt>
<totfact> 0.13752791E+03</totfact>
</mgrwt>
</event>
<event>
 4    1  0.8362047E-005  0.7278476E+03  0.7818608E-02  0.9670760E-01
          2   -1    0    0  501    0  0.00000000000E+00  0.00000000000E+00  0.37585885822E+03  0.37585885823E+03  0.25500000000E-02 0.  1.
         -2   -1    0    0    0  501 -0.00000000000E+00 -0.00000000000E+00 -0.35236773775E+03  0.35236773776E+03  0.25500000000E-02 0. -1.
    5000001    1    1    2    0    0 -0.19694246442E+03  0.20403340596E+03  0.16930635265E+03  0.36919589121E+03  0.16500000000E+03 0.  0.
   -5000001    1    1    2    0    0  0.19694246442E+03 -0.20403340596E+03 -0.14581523218E+03  0.35903070478E+03  0.16500000000E+03 0.  0.
<mgrwt>
<rscale>  0 0.72784761E+03</rscale>
<asrwt>0</asrwt>
<pdfrwt beam="1">  1        2 0.57824439E-01 0.72784761E+03</pdfrwt>
<pdfrwt beam="2">  1       -2 0.54210421E-01 0.72784761E+03</pdfrwt>
<totfact> 0.27577596E+02</totfact>
</mgrwt>
</event>
<event>
 4    1  0.8362047E-005  0.4557448E+03  0.7818608E-02  0.1026023E+00
          2   -1    0    0  501    0  0.00000000000E+00  0.00000000000E+00  0.12226276933E+04  0.12226276933E+04  0.25500000000E-02 0.  1.
         -2   -1    0    0    0  501 -0.00000000000E+00 -0.00000000000E+00 -0.42470683498E+02  0.42470683574E+02  0.25500000000E-02 0. -1.
    5000001    1    1    2    0    0  0.31613730919E+02 -0.15356164559E+03  0.62051560891E+03  0.66094268124E+03  0.16500000000E+03 0.  0.
   -5000001    1    1    2    0    0 -0.31613730919E+02  0.15356164559E+03  0.55964140087E+03  0.60415569562E+03  0.16500000000E+03 0.  0.
<mgrwt>
<rscale>  0 0.45574481E+03</rscale>
<asrwt>0</asrwt>
<pdfrwt beam="1">  1        2 0.18809658E+00 0.45574481E+03</pdfrwt>
<pdfrwt beam="2">  1       -2 0.65339510E-02 0.45574481E+03</pdfrwt>
<totfact> 0.25165479E+03</totfact>
</mgrwt>
</event>
<event>
 4    1  0.8362047E-005  0.6042229E+03  0.7818608E-02  0.9896683E-01
         -2   -1    0    0    0  501 -0.00000000000E+00  0.00000000000E+00  0.37639466984E+02  0.37639467071E+02  0.25500000000E-02 0. -1.
          2   -1    0    0  501    0  0.00000000000E+00 -0.00000000000E+00 -0.24248834448E+04  0.24248834448E+04  0.25500000000E-02 0.  1.
    5000001    1    1    2    0    0 -0.12949708905E+02  0.19440741100E+03 -0.53539844811E+03  0.59315970417E+03  0.16500000000E+03 0.  0.
   -5000001    1    1    2    0    0  0.12949708905E+02 -0.19440741100E+03 -0.18518455297E+04  0.18693632077E+04  0.16500000000E+03 0.  0.
<mgrwt>
<rscale>  0 0.60422287E+03</rscale>
<asrwt>0</asrwt>
<pdfrwt beam="1">  1        2 0.37305887E+00 0.60422287E+03</pdfrwt>
<pdfrwt beam="2">  1       -2 0.57906891E-02 0.60422287E+03</pdfrwt>
<totfact> 0.66175175E+02</totfact>
</mgrwt>
</event>
<event>
 4    1  0.8362047E-005  0.3789723E+03  0.7818608E-02  0.1051314E+00
         -2   -1    0    0    0  501 -0.00000000000E+00  0.00000000000E+00  0.15037223038E+02  0.15037223254E+02  0.25500000000E-02 0. -1.
          2   -1    0    0  501    0  0.00000000000E+00 -0.00000000000E+00 -0.23877412998E+04  0.23877412998E+04  0.25500000000E-02 0.  1.
    5000001    1    1    2    0    0 -0.90689043222E+02  0.10068909973E+02 -0.10670418952E+04  0.10835724672E+04  0.16500000000E+03 0.  0.
   -5000001    1    1    2    0    0  0.90689043222E+02 -0.10068909973E+02 -0.13056621816E+04  0.13192060559E+04  0.16500000000E+03 0.  0.
<mgrwt>
<rscale>  0 0.37897229E+03</rscale>
<asrwt>0</asrwt>
<pdfrwt beam="1">  1        2 0.36734451E+00 0.37897229E+03</pdfrwt>
<pdfrwt beam="2">  1       -2 0.23134208E-02 0.37897229E+03</pdfrwt>
<totfact> 0.28592053E+03</totfact>
</mgrwt>
</event>
<event>
 4    1  0.8362047E-005  0.5232731E+03  0.7818608E-02  0.1007877E+00
         -2   -1    0    0    0  501 -0.00000000000E+00  0.00000000000E+00  0.22307525085E+02  0.22307525231E+02  0.25500000000E-02 0. -1.
          2   -1    0    0  501    0  0.00000000000E+00 -0.00000000000E+00 -0.30686364191E+04  0.30686364191E+04  0.25500000000E-02 0.  1.
    5000001    1    1    2    0    0 -0.15612680158E+03 -0.92759726693E+02 -0.20596481117E+04  0.20742119682E+04  0.16500000000E+03 0.  0.
   -5000001    1    1    2    0    0  0.15612680158E+03  0.92759726693E+02 -0.98668078238E+03  0.10167319762E+04  0.16500000000E+03 0.  0.
<mgrwt>
<rscale>  0 0.52327310E+03</rscale>
<asrwt>0</asrwt>
<pdfrwt beam="1">  1        2 0.47209758E+00 0.52327310E+03</pdfrwt>
<pdfrwt beam="2">  1       -2 0.34319294E-02 0.52327310E+03</pdfrwt>
<totfact> 0.63012866E+02</totfact>
</mgrwt>
</event>
<event>
 4    1  0.8362047E-005  0.4847963E+03  0.7818608E-02  0.1017825E+00
          2   -1    0    0  501    0  0.00000000000E+00  0.00000000000E+00  0.17476859469E+04  0.17476859469E+04  0.25500000000E-02 0. -1.
         -2   -1    0    0    0  501 -0.00000000000E+00 -0.00000000000E+00 -0.33619802197E+02  0.33619802294E+02  0.25500000000E-02 0.  1.
    5000001    1    1    2    0    0  0.37994167812E+01  0.14967839924E+03  0.12078082707E+04  0.12281872323E+04  0.16500000000E+03 0.  0.
   -5000001    1    1    2    0    0 -0.37994167812E+01 -0.14967839924E+03  0.50625787401E+03  0.55311851692E+03  0.16500000000E+03 0.  0.
<mgrwt>
<rscale>  0 0.48479627E+03</rscale>
<asrwt>0</asrwt>
<pdfrwt beam="1">  1        2 0.26887489E+00 0.48479627E+03</pdfrwt>
<pdfrwt beam="2">  1       -2 0.51722748E-02 0.48479627E+03</pdfrwt>
<totfact> 0.18566430E+03</totfact>
</mgrwt>
</event>
<event>
 4    1  0.8362047E-005  0.4212677E+03  0.7818608E-02  0.1036654E+00
         -2   -1    0    0    0  501 -0.00000000000E+00  0.00000000000E+00  0.15457105016E+03  0.15457105018E+03  0.25500000000E-02 0. -1.
          2   -1    0    0  501    0  0.00000000000E+00 -0.00000000000E+00 -0.28703063393E+03  0.28703063394E+03  0.25500000000E-02 0.  1.
    5000001    1    1    2    0    0  0.61826850199E+02  0.49499544677E+02 -0.17551579995E+03  0.25358146691E+03  0.16500000000E+03 0.  0.
   -5000001    1    1    2    0    0 -0.61826850199E+02 -0.49499544677E+02  0.43056216181E+02  0.18802021721E+03  0.16500000000E+03 0.  0.
<mgrwt>
<rscale>  0 0.42126774E+03</rscale>
<asrwt>0</asrwt>
<pdfrwt beam="1">  1        2 0.44158559E-01 0.42126774E+03</pdfrwt>
<pdfrwt beam="2">  1       -2 0.23780162E-01 0.42126774E+03</pdfrwt>
<totfact> 0.17946394E+03</totfact>
</mgrwt>
</event>
<event>
 4    1  0.8362047E-005  0.1121967E+04  0.7818608E-02  0.9184042E-01
         -2   -1    0    0    0  501 -0.00000000000E+00  0.00000000000E+00  0.68798844903E+02  0.68798844950E+02  0.25500000000E-02 0. -1.
          2   -1    0    0  501    0  0.00000000000E+00 -0.00000000000E+00 -0.45742421428E+04  0.45742421428E+04  0.25500000000E-02 0.  1.
    5000001    1    1    2    0    0  0.47071570611E+03  0.11965211572E+03 -0.31926512653E+04  0.32335950591E+04  0.16500000000E+03 0.  0.
   -5000001    1    1    2    0    0 -0.47071570611E+03 -0.11965211572E+03 -0.13127920326E+04  0.14094459286E+04  0.16500000000E+03 0.  0.
<mgrwt>
<rscale>  0 0.11219672E+04</rscale>
<asrwt>0</asrwt>
<pdfrwt beam="1">  1        2 0.70372932E+00 0.11219672E+04</pdfrwt>
<pdfrwt beam="2">  1       -2 0.10584441E-01 0.11219672E+04</pdfrwt>
<totfact> 0.69125115E+00</totfact>
</mgrwt>
</event>
<event>
 4    1  0.8362047E-005  0.8158236E+03  0.7818608E-02  0.9537391E-01
         -2   -1    0    0    0  501 -0.00000000000E+00  0.00000000000E+00  0.39188666225E+02  0.39188666308E+02  0.25500000000E-02 0. -1.
          2   -1    0    0  501    0  0.00000000000E+00 -0.00000000000E+00 -0.42459225558E+04  0.42459225558E+04  0.25500000000E-02 0.  1.
    5000001    1    1    2    0    0  0.90177555484E+02 -0.35736032025E+03 -0.24064069930E+04  0.24400528695E+04  0.16500000000E+03 0.  0.
   -5000001    1    1    2    0    0 -0.90177555484E+02  0.35736032025E+03 -0.18003268966E+04  0.18450583526E+04  0.16500000000E+03 0.  0.
<mgrwt>
<rscale>  0 0.81582361E+03</rscale>
<asrwt>0</asrwt>
<pdfrwt beam="1">  1        2 0.65321849E+00 0.81582361E+03</pdfrwt>
<pdfrwt beam="2">  1       -2 0.60290289E-02 0.81582361E+03</pdfrwt>
<totfact> 0.36042820E+01</totfact>
</mgrwt>
</event>
<event>
 4    1  0.8362047E-005  0.5736728E+03  0.7818608E-02  0.9961584E-01
         -2   -1    0    0    0  501 -0.00000000000E+00  0.00000000000E+00  0.25651557757E+02  0.25651557884E+02  0.25500000000E-02 0. -1.
          2   -1    0    0  501    0  0.00000000000E+00 -0.00000000000E+00 -0.32074118953E+04  0.32074118953E+04  0.25500000000E-02 0.  1.
    5000001    1    1    2    0    0  0.14085363480E+03 -0.26341764652E+02 -0.54384029379E+03  0.58610656041E+03  0.16500000000E+03 0.  0.
   -5000001    1    1    2    0    0 -0.14085363480E+03  0.26341764652E+02 -0.26379200437E+04  0.26469568928E+04  0.16500000000E+03 0.  0.
<mgrwt>
<rscale>  0 0.57367277E+03</rscale>
<asrwt>0</asrwt>
<pdfrwt beam="1">  1        2 0.49344767E+00 0.57367277E+03</pdfrwt>
<pdfrwt beam="2">  1       -2 0.39463961E-02 0.57367277E+03</pdfrwt>
<totfact> 0.41456848E+02</totfact>
</mgrwt>
</event>
<event>
 4    1  0.8362047E-005  0.5041592E+03  0.7818608E-02  0.1012699E+00
          2   -1    0    0  501    0  0.00000000000E+00  0.00000000000E+00  0.59133147482E+03  0.59133147482E+03  0.25500000000E-02 0.  1.
         -2   -1    0    0    0  501 -0.00000000000E+00 -0.00000000000E+00 -0.10745939788E+03  0.10745939791E+03  0.25500000000E-02 0. -1.
    5000001    1    1    2    0    0 -0.21128441455E+02 -0.18155645144E+03  0.16716668137E+03  0.29762200096E+03  0.16500000000E+03 0.  0.
   -5000001    1    1    2    0    0  0.21128441455E+02  0.18155645144E+03  0.31670539557E+03  0.40116887177E+03  0.16500000000E+03 0.  0.
<mgrwt>
<rscale>  0 0.50415920E+03</rscale>
<asrwt>0</asrwt>
<pdfrwt beam="1">  1        2 0.90974077E-01 0.50415920E+03</pdfrwt>
<pdfrwt beam="2">  1       -2 0.16532214E-01 0.50415920E+03</pdfrwt>
<totfact> 0.14985850E+03</totfact>
</mgrwt>
</event>
<event>
 4    1  0.8362047E-005  0.4459094E+03  0.7818608E-02  0.1028949E+00
          2   -1    0    0  501    0  0.00000000000E+00  0.00000000000E+00  0.44859568797E+03  0.44859568798E+03  0.25500000000E-02 0.  1.
         -2   -1    0    0    0  501 -0.00000000000E+00 -0.00000000000E+00 -0.11080981542E+03  0.11080981545E+03  0.25500000000E-02 0. -1.
    5000001    1    1    2    0    0  0.13221689796E+03 -0.24345202841E+02  0.85584317292E+02  0.22939850125E+03  0.16500000000E+03 0.  0.
   -5000001    1    1    2    0    0 -0.13221689796E+03  0.24345202841E+02  0.25220155526E+03  0.33000700218E+03  0.16500000000E+03 0.  0.
<mgrwt>
<rscale>  0 0.44590943E+03</rscale>
<asrwt>0</asrwt>
<pdfrwt beam="1">  1        2 0.69014722E-01 0.44590943E+03</pdfrwt>
<pdfrwt beam="2">  1       -2 0.17047664E-01 0.44590943E+03</pdfrwt>
<totfact> 0.19540945E+03</totfact>
</mgrwt>
</event>
<event>
 4    1  0.8362047E-005  0.6521230E+03  0.7818608E-02  0.9802804E-01
         -2   -1    0    0    0  501 -0.00000000000E+00  0.00000000000E+00  0.95512758467E+02  0.95512758501E+02  0.25500000000E-02 0. -1.
          2   -1    0    0  501    0  0.00000000000E+00 -0.00000000000E+00 -0.11131088377E+04  0.11131088377E+04  0.25500000000E-02 0.  1.
    5000001    1    1    2    0    0  0.24876607741E+03  0.41930024098E+02 -0.73915572272E+03  0.79825990167E+03  0.16500000000E+03 0.  0.
   -5000001    1    1    2    0    0 -0.24876607741E+03 -0.41930024098E+02 -0.27844035647E+03  0.41036169449E+03  0.16500000000E+03 0.  0.
<mgrwt>
<rscale>  0 0.65212298E+03</rscale>
<asrwt>0</asrwt>
<pdfrwt beam="1">  1        2 0.17124750E+00 0.65212298E+03</pdfrwt>
<pdfrwt beam="2">  1       -2 0.14694271E-01 0.65212298E+03</pdfrwt>
<totfact> 0.78298320E+02</totfact>
</mgrwt>
</event>
<event>
 4    1  0.8362047E-005  0.3977520E+03  0.7818608E-02  0.1044561E+00
          2   -1    0    0  501    0  0.00000000000E+00  0.00000000000E+00  0.40519583092E+03  0.40519583093E+03  0.25500000000E-02 0.  1.
         -2   -1    0    0    0  501 -0.00000000000E+00 -0.00000000000E+00 -0.97611210834E+02  0.97611210867E+02  0.25500000000E-02 0. -1.
    5000001    1    1    2    0    0  0.62640910989E+02  0.76450788396E+02  0.89856607176E+02  0.21229181951E+03  0.16500000000E+03 0.  0.
   -5000001    1    1    2    0    0 -0.62640910989E+02 -0.76450788396E+02  0.21772801291E+03  0.29051522229E+03  0.16500000000E+03 0.  0.
<mgrwt>
<rscale>  0 0.39775196E+03</rscale>
<asrwt>0</asrwt>
<pdfrwt beam="1">  1        2 0.62337820E-01 0.39775196E+03</pdfrwt>
<pdfrwt beam="2">  1       -2 0.15017109E-01 0.39775196E+03</pdfrwt>
<totfact> 0.27054454E+03</totfact>
</mgrwt>
</event>
<event>
 4    1  0.8362047E-005  0.5709482E+03  0.7818608E-02  0.9967583E-01
          2   -1    0    0  501    0  0.00000000000E+00  0.00000000000E+00  0.96882014972E+03  0.96882014972E+03  0.25500000000E-02 0.  1.
         -2   -1    0    0    0  501 -0.00000000000E+00 -0.00000000000E+00 -0.84118261878E+02  0.84118261917E+02  0.25500000000E-02 0. -1.
    5000001    1    1    2    0    0 -0.22427193478E+03 -0.62276210161E+02  0.42444802254E+03  0.51142677962E+03  0.16500000000E+03 0.  0.
   -5000001    1    1    2    0    0  0.22427193478E+03  0.62276210161E+02  0.46025386531E+03  0.54151163202E+03  0.16500000000E+03 0.  0.
<mgrwt>
<rscale>  0 0.57094822E+03</rscale>
<asrwt>0</asrwt>
<pdfrwt beam="1">  1        2 0.14904925E+00 0.57094822E+03</pdfrwt>
<pdfrwt beam="2">  1       -2 0.12941272E-01 0.57094822E+03</pdfrwt>
<totfact> 0.11934698E+03</totfact>
</mgrwt>
</event>
<event>
 4    1  0.8362047E-005  0.5918106E+03  0.7818608E-02  0.9922544E-01
          2   -1    0    0  501    0  0.00000000000E+00  0.00000000000E+00  0.11937509101E+04  0.11937509101E+04  0.25500000000E-02 0.  1.
         -2   -1    0    0    0  501 -0.00000000000E+00 -0.00000000000E+00 -0.73348578947E+02  0.73348578992E+02  0.25500000000E-02 0. -1.
    5000001    1    1    2    0    0  0.13918808267E+03  0.19411462523E+03  0.68284317390E+03  0.74199299877E+03  0.16500000000E+03 0.  0.
   -5000001    1    1    2    0    0 -0.13918808267E+03 -0.19411462523E+03  0.43755915728E+03  0.52510649034E+03  0.16500000000E+03 0.  0.
<mgrwt>
<rscale>  0 0.59181055E+03</rscale>
<asrwt>0</asrwt>
<pdfrwt beam="1">  1        2 0.18365398E+00 0.59181055E+03</pdfrwt>
<pdfrwt beam="2">  1       -2 0.11284397E-01 0.59181055E+03</pdfrwt>
<totfact> 0.10886787E+03</totfact>
</mgrwt>
</event>
<event>
 4    1  0.8362047E-005  0.3900384E+03  0.7818608E-02  0.1047285E+00
         -2   -1    0    0    0  501 -0.00000000000E+00  0.00000000000E+00  0.11377132178E+02  0.11377132464E+02  0.25500000000E-02 0. -1.
          2   -1    0    0  501    0  0.00000000000E+00 -0.00000000000E+00 -0.33428881719E+04  0.33428881719E+04  0.25500000000E-02 0.  1.
    5000001    1    1    2    0    0 -0.61403057083E+02  0.83775616512E+02 -0.16284757309E+04  0.16401057574E+04  0.16500000000E+03 0.  0.
   -5000001    1    1    2    0    0  0.61403057083E+02 -0.83775616512E+02 -0.17030353088E+04  0.17141595469E+04  0.16500000000E+03 0.  0.
<mgrwt>
<rscale>  0 0.39003836E+03</rscale>
<asrwt>0</asrwt>
<pdfrwt beam="1">  1        2 0.51428971E+00 0.39003836E+03</pdfrwt>
<pdfrwt beam="2">  1       -2 0.17503307E-02 0.39003836E+03</pdfrwt>
<totfact> 0.11843670E+03</totfact>
</mgrwt>
</event>
<event>
 4    1  0.8362047E-005  0.5296897E+03  0.7818608E-02  0.1006307E+00
         -2   -1    0    0    0  501 -0.00000000000E+00  0.00000000000E+00  0.26718431957E+02  0.26718432078E+02  0.25500000000E-02 0. -1.
          2   -1    0    0  501    0  0.00000000000E+00 -0.00000000000E+00 -0.26252590942E+04  0.26252590942E+04  0.25500000000E-02 0.  1.
    5000001    1    1    2    0    0  0.13693383761E+03 -0.14910168107E+03 -0.10789988543E+04  0.11101557165E+04  0.16500000000E+03 0.  0.
   -5000001    1    1    2    0    0 -0.13693383761E+03  0.14910168107E+03 -0.15195418079E+04  0.15418218098E+04  0.16500000000E+03 0.  0.
<mgrwt>
<rscale>  0 0.52968975E+03</rscale>
<asrwt>0</asrwt>
<pdfrwt beam="1">  1        2 0.40388581E+00 0.52968975E+03</pdfrwt>
<pdfrwt beam="2">  1       -2 0.41105301E-02 0.52968975E+03</pdfrwt>
<totfact> 0.87305744E+02</totfact>
</mgrwt>
</event>
<event>
 4    1  0.8362047E-005  0.3675632E+03  0.7818608E-02  0.1055629E+00
          2   -1    0    0  501    0  0.00000000000E+00  0.00000000000E+00  0.34412769315E+03  0.34412769316E+03  0.25500000000E-02 0.  1.
         -2   -1    0    0    0  501 -0.00000000000E+00 -0.00000000000E+00 -0.98148671536E+02  0.98148671570E+02  0.25500000000E-02 0. -1.
    5000001    1    1    2    0    0  0.46156805471E+02 -0.49799725723E+02  0.69988229760E+02  0.19166067849E+03  0.16500000000E+03 0.  0.
   -5000001    1    1    2    0    0 -0.46156805471E+02  0.49799725723E+02  0.17599079185E+03  0.25061568624E+03  0.16500000000E+03 0.  0.
<mgrwt>
<rscale>  0 0.36756320E+03</rscale>
<asrwt>0</asrwt>
<pdfrwt beam="1">  1        2 0.52942721E-01 0.36756320E+03</pdfrwt>
<pdfrwt beam="2">  1       -2 0.15099796E-01 0.36756320E+03</pdfrwt>
<totfact> 0.32024011E+03</totfact>
</mgrwt>
</event>
<event>
 4    1  0.8362047E-005  0.5930043E+03  0.7818608E-02  0.9920027E-01
         -2   -1    0    0    0  501 -0.00000000000E+00  0.00000000000E+00  0.71533627715E+02  0.71533627760E+02  0.25500000000E-02 0. -1.
          2   -1    0    0  501    0  0.00000000000E+00 -0.00000000000E+00 -0.12289816445E+04  0.12289816445E+04  0.25500000000E-02 0.  1.
    5000001    1    1    2    0    0 -0.15269624136E+03 -0.19331910129E+03 -0.57803602946E+03  0.64964534047E+03  0.16500000000E+03 0.  0.
   -5000001    1    1    2    0    0  0.15269624136E+03  0.19331910129E+03 -0.57941198731E+03  0.65086993177E+03  0.16500000000E+03 0.  0.
<mgrwt>
<rscale>  0 0.59300427E+03</rscale>
<asrwt>0</asrwt>
<pdfrwt beam="1">  1        2 0.18907408E+00 0.59300427E+03</pdfrwt>
<pdfrwt beam="2">  1       -2 0.11005174E-01 0.59300427E+03</pdfrwt>
<totfact> 0.10816145E+03</totfact>
</mgrwt>
</event>
<event>
 4    1  0.8362047E-005  0.4286128E+03  0.7818608E-02  0.1034299E+00
         -2   -1    0    0    0  501 -0.00000000000E+00  0.00000000000E+00  0.19289787249E+03  0.19289787251E+03  0.25500000000E-02 0. -1.
          2   -1    0    0  501    0  0.00000000000E+00 -0.00000000000E+00 -0.23809090357E+03  0.23809090359E+03  0.25500000000E-02 0.  1.
    5000001    1    1    2    0    0  0.88530278292E+02  0.87013120945E+02 -0.80302230169E+02  0.22154534877E+03  0.16500000000E+03 0.  0.
   -5000001    1    1    2    0    0 -0.88530278292E+02 -0.87013120945E+02  0.35109199088E+02  0.20944342733E+03  0.16500000000E+03 0.  0.
<mgrwt>
<rscale>  0 0.42861278E+03</rscale>
<asrwt>0</asrwt>
<pdfrwt beam="1">  1        2 0.36629370E-01 0.42861278E+03</pdfrwt>
<pdfrwt beam="2">  1       -2 0.29676596E-01 0.42861278E+03</pdfrwt>
<totfact> 0.14784293E+03</totfact>
</mgrwt>
</event>
<event>
 4    1  0.8362047E-005  0.6065246E+03  0.7818608E-02  0.9891961E-01
          2   -1    0    0  501    0  0.00000000000E+00  0.00000000000E+00  0.89000164856E+03  0.89000164856E+03  0.25500000000E-02 0.  1.
         -2   -1    0    0    0  501 -0.00000000000E+00 -0.00000000000E+00 -0.10333466636E+03  0.10333466639E+03  0.25500000000E-02 0. -1.
    5000001    1    1    2    0    0  0.19194005911E+03 -0.16703899993E+03  0.39349428256E+03  0.49679549535E+03  0.16500000000E+03 0.  0.
   -5000001    1    1    2    0    0 -0.19194005911E+03  0.16703899993E+03  0.39317269964E+03  0.49654081960E+03  0.16500000000E+03 0.  0.
<mgrwt>
<rscale>  0 0.60652460E+03</rscale>
<asrwt>0</asrwt>
<pdfrwt beam="1">  1        2 0.13692333E+00 0.60652460E+03</pdfrwt>
<pdfrwt beam="2">  1       -2 0.15897642E-01 0.60652460E+03</pdfrwt>
<totfact> 0.95146369E+02</totfact>
</mgrwt>
</event>
<event>
 4    1  0.8362047E-005  0.5487997E+03  0.7818608E-02  0.1001772E+00
         -2   -1    0    0    0  501 -0.00000000000E+00  0.00000000000E+00  0.42980328907E+02  0.42980328983E+02  0.25500000000E-02 0. -1.
          2   -1    0    0  501    0  0.00000000000E+00 -0.00000000000E+00 -0.17518543298E+04  0.17518543298E+04  0.25500000000E-02 0.  1.
    5000001    1    1    2    0    0 -0.10955663455E+03 -0.18079914415E+03 -0.66431900161E+03  0.71640471983E+03  0.16500000000E+03 0.  0.
   -5000001    1    1    2    0    0  0.10955663455E+03  0.18079914415E+03 -0.10445549993E+04  0.10784299390E+04  0.16500000000E+03 0.  0.
<mgrwt>
<rscale>  0 0.54879969E+03</rscale>
<asrwt>0</asrwt>
<pdfrwt beam="1">  1        2 0.26951599E+00 0.54879969E+03</pdfrwt>
<pdfrwt beam="2">  1       -2 0.66123597E-02 0.54879969E+03</pdfrwt>
<totfact> 0.12556256E+03</totfact>
</mgrwt>
</event>
<event>
 4    1  0.8362047E-005  0.4376715E+03  0.7818608E-02  0.1031464E+00
         -2   -1    0    0    0  501 -0.00000000000E+00  0.00000000000E+00  0.14069503675E+03  0.14069503677E+03  0.25500000000E-02 0. -1.
          2   -1    0    0  501    0  0.00000000000E+00 -0.00000000000E+00 -0.34037504737E+03  0.34037504738E+03  0.25500000000E-02 0.  1.
    5000001    1    1    2    0    0 -0.90497292159E+02  0.37797346250E+02  0.15679773355E+02  0.19258570706E+03  0.16500000000E+03 0.  0.
   -5000001    1    1    2    0    0  0.90497292159E+02 -0.37797346250E+02 -0.21535978398E+03  0.28848437709E+03  0.16500000000E+03 0.  0.
<mgrwt>
<rscale>  0 0.43767147E+03</rscale>
<asrwt>0</asrwt>
<pdfrwt beam="1">  1        2 0.52365392E-01 0.43767147E+03</pdfrwt>
<pdfrwt beam="2">  1       -2 0.21645390E-01 0.43767147E+03</pdfrwt>
<totfact> 0.17579233E+03</totfact>
</mgrwt>
</event>
<event>
 4    1  0.8362047E-005  0.5226143E+03  0.7818608E-02  0.1008039E+00
         -2   -1    0    0    0  501 -0.00000000000E+00  0.00000000000E+00  0.21059832294E+03  0.21059832296E+03  0.25500000000E-02 0. -1.
          2   -1    0    0  501    0  0.00000000000E+00 -0.00000000000E+00 -0.32422591930E+03  0.32422591931E+03  0.25500000000E-02 0.  1.
    5000001    1    1    2    0    0 -0.40287996798E+02  0.16673061587E+03 -0.16719580658E+03  0.29086364278E+03  0.16500000000E+03 0.  0.
   -5000001    1    1    2    0    0  0.40287996798E+02 -0.16673061587E+03  0.53568210221E+02  0.24396059948E+03  0.16500000000E+03 0.  0.
<mgrwt>
<rscale>  0 0.52261433E+03</rscale>
<asrwt>0</asrwt>
<pdfrwt beam="1">  1        2 0.49880911E-01 0.52261433E+03</pdfrwt>
<pdfrwt beam="2">  1       -2 0.32399742E-01 0.52261433E+03</pdfrwt>
<totfact> 0.89590541E+02</totfact>
</mgrwt>
</event>
<event>
 4    1  0.8362047E-005  0.3999325E+03  0.7818608E-02  0.1043803E+00
         -2   -1    0    0    0  501 -0.00000000000E+00  0.00000000000E+00  0.27535834284E+03  0.27535834286E+03  0.25500000000E-02 0. -1.
          2   -1    0    0  501    0  0.00000000000E+00 -0.00000000000E+00 -0.14521622761E+03  0.14521622763E+03  0.25500000000E-02 0.  1.
    5000001    1    1    2    0    0 -0.61831129415E+02  0.66035702985E+02 -0.60797524083E+01  0.18827045977E+03  0.16500000000E+03 0.  0.
   -5000001    1    1    2    0    0  0.61831129415E+02 -0.66035702985E+02  0.13622186764E+03  0.23230411072E+03  0.16500000000E+03 0.  0.
<mgrwt>
<rscale>  0 0.39993249E+03</rscale>
<asrwt>0</asrwt>
<pdfrwt beam="1">  1        2 0.22340958E-01 0.39993249E+03</pdfrwt>
<pdfrwt beam="2">  1       -2 0.42362822E-01 0.39993249E+03</pdfrwt>
<totfact> 0.13126326E+03</totfact>
</mgrwt>
</event>
<event>
 4    1  0.8362047E-005  0.8618352E+03  0.7818608E-02  0.9474588E-01
         -2   -1    0    0    0  501 -0.00000000000E+00  0.00000000000E+00  0.22146592572E+03  0.22146592574E+03  0.25500000000E-02 0. -1.
          2   -1    0    0  501    0  0.00000000000E+00 -0.00000000000E+00 -0.83845848542E+03  0.83845848543E+03  0.25500000000E-02 0.  1.
    5000001    1    1    2    0    0  0.25800489385E+03 -0.28599081264E+03 -0.43214144583E+03  0.60193728857E+03  0.16500000000E+03 0.  0.
   -5000001    1    1    2    0    0 -0.25800489385E+03  0.28599081264E+03 -0.18485111387E+03  0.45798712260E+03  0.16500000000E+03 0.  0.
<mgrwt>
<rscale>  0 0.86183522E+03</rscale>
<asrwt>0</asrwt>
<pdfrwt beam="1">  1        2 0.12899361E+00 0.86183522E+03</pdfrwt>
<pdfrwt beam="2">  1       -2 0.34071681E-01 0.86183522E+03</pdfrwt>
<totfact> 0.26155977E+02</totfact>
</mgrwt>
</event>
<event>
 4    1  0.8362047E-005  0.7464668E+03  0.7818608E-02  0.9640910E-01
         -2   -1    0    0    0  501 -0.00000000000E+00  0.00000000000E+00  0.84952997909E+03  0.84952997909E+03  0.25500000000E-02 0. -1.
          2   -1    0    0  501    0  0.00000000000E+00 -0.00000000000E+00 -0.16397674789E+03  0.16397674791E+03  0.25500000000E-02 0.  1.
    5000001    1    1    2    0    0 -0.14648272856E+03 -0.25008761682E+03  0.11527068676E+03  0.35286447410E+03  0.16500000000E+03 0.  0.
   -5000001    1    1    2    0    0  0.14648272856E+03  0.25008761682E+03  0.57028254443E+03  0.66064225291E+03  0.16500000000E+03 0.  0.
<mgrwt>
<rscale>  0 0.74646678E+03</rscale>
<asrwt>0</asrwt>
<pdfrwt beam="1">  1        2 0.25227192E-01 0.74646678E+03</pdfrwt>
<pdfrwt beam="2">  1       -2 0.13069692E+00 0.74646678E+03</pdfrwt>
<totfact> 0.93834730E+01</totfact>
</mgrwt>
</event>
