<event>
 4    1  0.1773996E-005  0.8927535E+03  0.7818608E-02  0.9434686E-01
          2   -1    0    0  501    0  0.00000000000E+00  0.00000000000E+00  0.13168690449E+04  0.13168690449E+04  0.25500000000E-02 0.  1.
         -2   -1    0    0    0  501 -0.00000000000E+00 -0.00000000000E+00 -0.15130751621E+03  0.15130751623E+03  0.25500000000E-02 0. -1.
   -5000001    1    1    2    0    0  0.20052551143E+03 -0.30494479403E+03  0.68077125548E+03  0.81188134012E+03  0.25000000000E+03 0.  0.
    5000001    1    1    2    0    0 -0.20052551143E+03  0.30494479403E+03  0.48479027325E+03  0.65629522105E+03  0.25000000000E+03 0.  0.
<mgrwt>
<rscale>  0 0.89275346E+03</rscale>
<asrwt>0</asrwt>
<pdfrwt beam="1">  1        2 0.20259524E+00 0.89275346E+03</pdfrwt>
<pdfrwt beam="2">  1       -2 0.23278079E-01 0.89275346E+03</pdfrwt>
<totfact> 0.26420731E+02</totfact>
</mgrwt>
</event>
<event>
 4    1  0.1773996E-005  0.7508395E+03  0.7818608E-02  0.9634034E-01
          2   -1    0    0  501    0  0.00000000000E+00  0.00000000000E+00  0.38272453659E+03  0.38272453660E+03  0.25500000000E-02 0. -1.
         -2   -1    0    0    0  501 -0.00000000000E+00 -0.00000000000E+00 -0.36825440977E+03  0.36825440978E+03  0.25500000000E-02 0.  1.
   -5000001    1    1    2    0    0  0.32884182090E+02  0.19254494355E+03 -0.19351362472E+03  0.37162137677E+03  0.25000000000E+03 0.  0.
    5000001    1    1    2    0    0 -0.32884182090E+02 -0.19254494355E+03  0.20798375153E+03  0.37935756961E+03  0.25000000000E+03 0.  0.
<mgrwt>
<rscale>  0 0.75083953E+03</rscale>
<asrwt>0</asrwt>
<pdfrwt beam="1">  1        2 0.58880698E-01 0.75083953E+03</pdfrwt>
<pdfrwt beam="2">  1       -2 0.56654525E-01 0.75083953E+03</pdfrwt>
<totfact> 0.24640107E+02</totfact>
</mgrwt>
</event>
<event>
 4    1  0.1773996E-005  0.9398101E+03  0.7818608E-02  0.9377141E-01
         -2   -1    0    0    0  501 -0.00000000000E+00  0.00000000000E+00  0.13714345438E+03  0.13714345440E+03  0.25500000000E-02 0. -1.
          2   -1    0    0  501    0  0.00000000000E+00 -0.00000000000E+00 -0.16100714595E+04  0.16100714595E+04  0.25500000000E-02 0.  1.
   -5000001    1    1    2    0    0 -0.28477858531E+03 -0.15554692215E+03 -0.11645333126E+04  0.12344762143E+04  0.25000000000E+03 0.  0.
    5000001    1    1    2    0    0  0.28477858531E+03  0.15554692215E+03 -0.30839469250E+03  0.51273869954E+03  0.25000000000E+03 0.  0.
<mgrwt>
<rscale>  0 0.93981011E+03</rscale>
<asrwt>0</asrwt>
<pdfrwt beam="1">  1        2 0.24770329E+00 0.93981011E+03</pdfrwt>
<pdfrwt beam="2">  1       -2 0.21098994E-01 0.93981011E+03</pdfrwt>
<totfact> 0.21441360E+02</totfact>
</mgrwt>
</event>
<event>
 4    1  0.1773996E-005  0.1013896E+04  0.7818608E-02  0.9293434E-01
         -2   -1    0    0    0  501 -0.00000000000E+00  0.00000000000E+00  0.36580555140E+03  0.36580555141E+03  0.25500000000E-02 0. -1.
          2   -1    0    0  501    0  0.00000000000E+00 -0.00000000000E+00 -0.70254898928E+03  0.70254898929E+03  0.25500000000E-02 0.  1.
   -5000001    1    1    2    0    0  0.12709184106E+03 -0.37673560471E+03  0.32703128065E+02  0.47079883868E+03  0.25000000000E+03 0.  0.
    5000001    1    1    2    0    0 -0.12709184106E+03  0.37673560471E+03 -0.36944656595E+03  0.59755570201E+03  0.25000000000E+03 0.  0.
<mgrwt>
<rscale>  0 0.10138961E+04</rscale>
<asrwt>0</asrwt>
<pdfrwt beam="1">  1        2 0.10808446E+00 0.10138961E+04</pdfrwt>
<pdfrwt beam="2">  1       -2 0.56277777E-01 0.10138961E+04</pdfrwt>
<totfact> 0.12062959E+02</totfact>
</mgrwt>
</event>
<event>
 4    1  0.1773996E-005  0.7409139E+03  0.7818608E-02  0.9649714E-01
          2   -1    0    0  501    0  0.00000000000E+00  0.00000000000E+00  0.69233022072E+03  0.69233022072E+03  0.25500000000E-02 0.  1.
         -2   -1    0    0    0  501 -0.00000000000E+00 -0.00000000000E+00 -0.19822670983E+03  0.19822670985E+03  0.25500000000E-02 0. -1.
   -5000001    1    1    2    0    0 -0.15279828071E+03  0.17477663654E+03  0.42058636503E+03  0.54155985608E+03  0.25000000000E+03 0.  0.
    5000001    1    1    2    0    0  0.15279828071E+03 -0.17477663654E+03  0.73517145862E+02  0.34899707449E+03  0.25000000000E+03 0.  0.
<mgrwt>
<rscale>  0 0.74091387E+03</rscale>
<asrwt>0</asrwt>
<pdfrwt beam="1">  1        2 0.10651234E+00 0.74091387E+03</pdfrwt>
<pdfrwt beam="2">  1       -2 0.30496416E-01 0.74091387E+03</pdfrwt>
<totfact> 0.41550186E+02</totfact>
</mgrwt>
</event>
<event>
 4    1  0.1773996E-005  0.1120549E+04  0.7818608E-02  0.9185391E-01
          2   -1    0    0  501    0  0.00000000000E+00  0.00000000000E+00  0.13501327487E+04  0.13501327487E+04  0.25500000000E-02 0.  1.
         -2   -1    0    0    0  501 -0.00000000000E+00 -0.00000000000E+00 -0.23250140942E+03  0.23250140944E+03  0.25500000000E-02 0. -1.
   -5000001    1    1    2    0    0  0.44355504865E+03  0.21553316164E+03  0.43082516990E+03  0.70093220212E+03  0.25000000000E+03 0.  0.
    5000001    1    1    2    0    0 -0.44355504865E+03 -0.21553316164E+03  0.68680616941E+03  0.88170195604E+03  0.25000000000E+03 0.  0.
<mgrwt>
<rscale>  0 0.11205494E+04</rscale>
<asrwt>0</asrwt>
<pdfrwt beam="1">  1        2 0.20771273E+00 0.11205494E+04</pdfrwt>
<pdfrwt beam="2">  1       -2 0.35769447E-01 0.11205494E+04</pdfrwt>
<totfact> 0.11254225E+02</totfact>
</mgrwt>
</event>
<event>
 4    1  0.1773996E-005  0.1018538E+04  0.7818608E-02  0.9288443E-01
          2   -1    0    0  501    0  0.00000000000E+00  0.00000000000E+00  0.23027429984E+04  0.23027429984E+04  0.25500000000E-02 0.  1.
         -2   -1    0    0    0  501 -0.00000000000E+00 -0.00000000000E+00 -0.11262872935E+03  0.11262872938E+03  0.25500000000E-02 0. -1.
   -5000001    1    1    2    0    0 -0.73695452902E+01  0.35482932651E+03  0.17264797692E+04  0.17802220521E+04  0.25000000000E+03 0.  0.
    5000001    1    1    2    0    0  0.73695452902E+01 -0.35482932651E+03  0.46363449987E+03  0.63514967576E+03  0.25000000000E+03 0.  0.
<mgrwt>
<rscale>  0 0.10185382E+04</rscale>
<asrwt>0</asrwt>
<pdfrwt beam="1">  1        2 0.35426817E+00 0.10185382E+04</pdfrwt>
<pdfrwt beam="2">  1       -2 0.17327496E-01 0.10185382E+04</pdfrwt>
<totfact> 0.12461992E+02</totfact>
</mgrwt>
</event>
<event>
 4    1  0.1773996E-005  0.5970770E+03  0.7818608E-02  0.9911489E-01
          2   -1    0    0  501    0  0.00000000000E+00  0.00000000000E+00  0.35315634800E+03  0.35315634801E+03  0.25500000000E-02 0.  1.
         -2   -1    0    0    0  501 -0.00000000000E+00 -0.00000000000E+00 -0.25236767152E+03  0.25236767153E+03  0.25500000000E-02 0. -1.
   -5000001    1    1    2    0    0 -0.14253551821E+03 -0.20842771496E+02  0.12812361420E+03  0.31569994550E+03  0.25000000000E+03 0.  0.
    5000001    1    1    2    0    0  0.14253551821E+03  0.20842771496E+02 -0.27334937719E+02  0.28982407404E+03  0.25000000000E+03 0.  0.
<mgrwt>
<rscale>  0 0.59707703E+03</rscale>
<asrwt>0</asrwt>
<pdfrwt beam="1">  1        2 0.54331745E-01 0.59707703E+03</pdfrwt>
<pdfrwt beam="2">  1       -2 0.38825796E-01 0.59707703E+03</pdfrwt>
<totfact> 0.57769091E+02</totfact>
</mgrwt>
</event>
<event>
 4    1  0.1773996E-005  0.7604023E+03  0.7818608E-02  0.9619171E-01
          2   -1    0    0  501    0  0.00000000000E+00  0.00000000000E+00  0.57845876282E+03  0.57845876283E+03  0.25500000000E-02 0.  1.
         -2   -1    0    0    0  501 -0.00000000000E+00 -0.00000000000E+00 -0.24989318566E+03  0.24989318568E+03  0.25500000000E-02 0. -1.
   -5000001    1    1    2    0    0  0.82327913037E+02 -0.27434133903E+03  0.16053319595E+03  0.41268869935E+03  0.25000000000E+03 0.  0.
    5000001    1    1    2    0    0 -0.82327913037E+02  0.27434133903E+03  0.16803238120E+03  0.41566324916E+03  0.25000000000E+03 0.  0.
<mgrwt>
<rscale>  0 0.76040227E+03</rscale>
<asrwt>0</asrwt>
<pdfrwt beam="1">  1        2 0.88993655E-01 0.76040227E+03</pdfrwt>
<pdfrwt beam="2">  1       -2 0.38445106E-01 0.76040227E+03</pdfrwt>
<totfact> 0.33346793E+02</totfact>
</mgrwt>
</event>
<event>
 4    1  0.1773996E-005  0.1183598E+04  0.7818608E-02  0.9127336E-01
          2   -1    0    0  501    0  0.00000000000E+00  0.00000000000E+00  0.10119681450E+04  0.10119681450E+04  0.25500000000E-02 0.  1.
         -2   -1    0    0    0  501 -0.00000000000E+00 -0.00000000000E+00 -0.34608389464E+03  0.34608389465E+03  0.25500000000E-02 0. -1.
   -5000001    1    1    2    0    0  0.36835201941E+03 -0.37223864607E+03  0.19972063899E+03  0.61370445124E+03  0.25000000000E+03 0.  0.
    5000001    1    1    2    0    0 -0.36835201941E+03  0.37223864607E+03  0.46616361141E+03  0.74434758845E+03  0.25000000000E+03 0.  0.
<mgrwt>
<rscale>  0 0.11835977E+04</rscale>
<asrwt>0</asrwt>
<pdfrwt beam="1">  1        2 0.15568741E+00 0.11835977E+04</pdfrwt>
<pdfrwt beam="2">  1       -2 0.53243675E-01 0.11835977E+04</pdfrwt>
<totfact> 0.81285519E+01</totfact>
</mgrwt>
</event>
<event>
 4    1  0.1773996E-005  0.5718016E+03  0.7818608E-02  0.9965700E-01
         -2   -1    0    0    0  501 -0.00000000000E+00  0.00000000000E+00  0.99751036934E+02  0.99751036966E+02  0.25500000000E-02 0. -1.
          2   -1    0    0  501    0  0.00000000000E+00 -0.00000000000E+00 -0.81943279043E+03  0.81943279044E+03  0.25500000000E-02 0.  1.
   -5000001    1    1    2    0    0 -0.59289963210E+02 -0.12538826340E+03 -0.36196999344E+03  0.46125892131E+03  0.25000000000E+03 0.  0.
    5000001    1    1    2    0    0  0.59289963210E+02  0.12538826340E+03 -0.35771176006E+03  0.45792490610E+03  0.25000000000E+03 0.  0.
<mgrwt>
<rscale>  0 0.57180161E+03</rscale>
<asrwt>0</asrwt>
<pdfrwt beam="1">  1        2 0.12606658E+00 0.57180161E+03</pdfrwt>
<pdfrwt beam="2">  1       -2 0.15346314E-01 0.57180161E+03</pdfrwt>
<totfact> 0.11300403E+03</totfact>
</mgrwt>
</event>
<event>
 4    1  0.1773996E-005  0.6567427E+03  0.7818608E-02  0.9794209E-01
          2   -1    0    0  501    0  0.00000000000E+00  0.00000000000E+00  0.10905119706E+04  0.10905119706E+04  0.25500000000E-02 0.  1.
         -2   -1    0    0    0  501 -0.00000000000E+00 -0.00000000000E+00 -0.98878082962E+02  0.98878082995E+02  0.25500000000E-02 0. -1.
   -5000001    1    1    2    0    0  0.20045911302E+03 -0.28558984341E+02  0.37666920162E+03  0.49535760722E+03  0.25000000000E+03 0.  0.
    5000001    1    1    2    0    0 -0.20045911302E+03  0.28558984341E+02  0.61496468601E+03  0.69403244637E+03  0.25000000000E+03 0.  0.
<mgrwt>
<rscale>  0 0.65674267E+03</rscale>
<asrwt>0</asrwt>
<pdfrwt beam="1">  1        2 0.16777107E+00 0.65674267E+03</pdfrwt>
<pdfrwt beam="2">  1       -2 0.15212013E-01 0.65674267E+03</pdfrwt>
<totfact> 0.76218885E+02</totfact>
</mgrwt>
</event>
<event>
 4    1  0.1773996E-005  0.9231812E+03  0.7818608E-02  0.9397059E-01
          2   -1    0    0  501    0  0.00000000000E+00  0.00000000000E+00  0.13780186073E+04  0.13780186073E+04  0.25500000000E-02 0.  1.
         -2   -1    0    0    0  501 -0.00000000000E+00 -0.00000000000E+00 -0.15461756431E+03  0.15461756433E+03  0.25500000000E-02 0. -1.
   -5000001    1    1    2    0    0  0.11772618149E+03  0.33622003513E+03  0.86707798559E+03  0.97016885073E+03  0.25000000000E+03 0.  0.
    5000001    1    1    2    0    0 -0.11772618149E+03 -0.33622003513E+03  0.35632305735E+03  0.56246732086E+03  0.25000000000E+03 0.  0.
<mgrwt>
<rscale>  0 0.92318120E+03</rscale>
<asrwt>0</asrwt>
<pdfrwt beam="1">  1        2 0.21200286E+00 0.92318120E+03</pdfrwt>
<pdfrwt beam="2">  1       -2 0.23787317E-01 0.92318120E+03</pdfrwt>
<totfact> 0.23400253E+02</totfact>
</mgrwt>
</event>
<event>
 4    1  0.1773996E-005  0.6474471E+03  0.7818608E-02  0.9811581E-01
          2   -1    0    0  501    0  0.00000000000E+00  0.00000000000E+00  0.28594764220E+03  0.28594764221E+03  0.25500000000E-02 0.  1.
         -2   -1    0    0    0  501 -0.00000000000E+00 -0.00000000000E+00 -0.36648994933E+03  0.36648994934E+03  0.25500000000E-02 0. -1.
   -5000001    1    1    2    0    0 -0.18703557569E+03 -0.76619693402E+02 -0.78564757377E+02  0.33094607581E+03  0.25000000000E+03 0.  0.
    5000001    1    1    2    0    0  0.18703557569E+03  0.76619693402E+02 -0.19775497506E+01  0.32149151574E+03  0.25000000000E+03 0.  0.
<mgrwt>
<rscale>  0 0.64744710E+03</rscale>
<asrwt>0</asrwt>
<pdfrwt beam="1">  1        2 0.43991945E-01 0.64744710E+03</pdfrwt>
<pdfrwt beam="2">  1       -2 0.56383069E-01 0.64744710E+03</pdfrwt>
<totfact> 0.34526216E+02</totfact>
</mgrwt>
</event>
<event>
 4    1  0.1773996E-005  0.1013674E+04  0.7818608E-02  0.9293674E-01
          2   -1    0    0  501    0  0.00000000000E+00  0.00000000000E+00  0.11634403464E+04  0.11634403464E+04  0.25500000000E-02 0.  1.
         -2   -1    0    0    0  501 -0.00000000000E+00 -0.00000000000E+00 -0.22079644869E+03  0.22079644870E+03  0.25500000000E-02 0. -1.
   -5000001    1    1    2    0    0 -0.16294860700E+03 -0.20214546936E+03  0.95790862534E+03  0.10234764159E+04  0.25000000000E+03 0.  0.
    5000001    1    1    2    0    0  0.16294860700E+03  0.20214546936E+03 -0.15264727657E+02  0.36076037922E+03  0.25000000000E+03 0.  0.
<mgrwt>
<rscale>  0 0.10136735E+04</rscale>
<asrwt>0</asrwt>
<pdfrwt beam="1">  1        2 0.17899082E+00 0.10136735E+04</pdfrwt>
<pdfrwt beam="2">  1       -2 0.33968685E-01 0.10136735E+04</pdfrwt>
<totfact> 0.16103518E+02</totfact>
</mgrwt>
</event>
<event>
 4    1  0.1773996E-005  0.7048298E+03  0.7818608E-02  0.9709008E-01
          2   -1    0    0  501    0  0.00000000000E+00  0.00000000000E+00  0.13855987294E+03  0.13855987296E+03  0.25500000000E-02 0.  1.
         -2   -1    0    0    0  501 -0.00000000000E+00 -0.00000000000E+00 -0.89633653158E+03  0.89633653158E+03  0.25500000000E-02 0. -1.
   -5000001    1    1    2    0    0 -0.11688322036E+03  0.20026635456E+03 -0.50962389738E+03  0.61317600797E+03  0.25000000000E+03 0.  0.
    5000001    1    1    2    0    0  0.11688322036E+03 -0.20026635456E+03 -0.24815276125E+03  0.42172039657E+03  0.25000000000E+03 0.  0.
<mgrwt>
<rscale>  0 0.70482984E+03</rscale>
<asrwt>0</asrwt>
<pdfrwt beam="1">  1        2 0.21316904E-01 0.70482984E+03</pdfrwt>
<pdfrwt beam="2">  1       -2 0.13789792E+00 0.70482984E+03</pdfrwt>
<totfact> 0.99661161E+01</totfact>
</mgrwt>
</event>
<event>
 4    1  0.1773996E-005  0.9331691E+03  0.7818608E-02  0.9385043E-01
         -2   -1    0    0    0  501 -0.00000000000E+00  0.00000000000E+00  0.19154390269E+03  0.19154390271E+03  0.25500000000E-02 0. -1.
          2   -1    0    0  501    0  0.00000000000E+00 -0.00000000000E+00 -0.11365601309E+04  0.11365601309E+04  0.25500000000E-02 0.  1.
   -5000001    1    1    2    0    0  0.35044591526E+03  0.10077440257E+03 -0.26029407414E+03  0.51305050898E+03  0.25000000000E+03 0.  0.
    5000001    1    1    2    0    0 -0.35044591526E+03 -0.10077440257E+03 -0.68472215406E+03  0.81505352462E+03  0.25000000000E+03 0.  0.
<mgrwt>
<rscale>  0 0.93316914E+03</rscale>
<asrwt>0</asrwt>
<pdfrwt beam="1">  1        2 0.17485540E+00 0.93316914E+03</pdfrwt>
<pdfrwt beam="2">  1       -2 0.29468293E-01 0.93316914E+03</pdfrwt>
<totfact> 0.21930647E+02</totfact>
</mgrwt>
</event>
<event>
 4    1  0.1773996E-005  0.6671564E+03  0.7818608E-02  0.9775109E-01
         -2   -1    0    0    0  501 -0.00000000000E+00  0.00000000000E+00  0.53792280898E+02  0.53792280959E+02  0.25500000000E-02 0. -1.
          2   -1    0    0  501    0  0.00000000000E+00 -0.00000000000E+00 -0.20685943075E+04  0.20685943075E+04  0.25500000000E-02 0.  1.
   -5000001    1    1    2    0    0  0.10436799894E+03  0.88535980429E+02 -0.45599781943E+03  0.53774093238E+03  0.25000000000E+03 0.  0.
    5000001    1    1    2    0    0 -0.10436799894E+03 -0.88535980429E+02 -0.15588042072E+04  0.15846456561E+04  0.25000000000E+03 0.  0.
<mgrwt>
<rscale>  0 0.66715637E+03</rscale>
<asrwt>0</asrwt>
<pdfrwt beam="1">  1        2 0.31824522E+00 0.66715637E+03</pdfrwt>
<pdfrwt beam="2">  1       -2 0.82757371E-02 0.66715637E+03</pdfrwt>
<totfact> 0.58808917E+02</totfact>
</mgrwt>
</event>
<event>
 4    1  0.1773996E-005  0.5714378E+03  0.7818608E-02  0.9966502E-01
          2   -1    0    0  501    0  0.00000000000E+00  0.00000000000E+00  0.88115173144E+03  0.88115173144E+03  0.25500000000E-02 0.  1.
         -2   -1    0    0    0  501 -0.00000000000E+00 -0.00000000000E+00 -0.92646105002E+02  0.92646105038E+02  0.25500000000E-02 0. -1.
   -5000001    1    1    2    0    0 -0.82913191450E+02 -0.88819921002E+02  0.28157846316E+03  0.39566400721E+03  0.25000000000E+03 0.  0.
    5000001    1    1    2    0    0  0.82913191450E+02  0.88819921002E+02  0.50692716328E+03  0.57813382927E+03  0.25000000000E+03 0.  0.
<mgrwt>
<rscale>  0 0.57143775E+03</rscale>
<asrwt>0</asrwt>
<pdfrwt beam="1">  1        2 0.13556181E+00 0.57143775E+03</pdfrwt>
<pdfrwt beam="2">  1       -2 0.14253247E-01 0.57143775E+03</pdfrwt>
<totfact> 0.11602866E+03</totfact>
</mgrwt>
</event>
<event>
 4    1  0.1773996E-005  0.5126454E+03  0.7818608E-02  0.1010530E+00
         -2   -1    0    0    0  501 -0.00000000000E+00  0.00000000000E+00  0.11505300056E+03  0.11505300059E+03  0.25500000000E-02 0. -1.
          2   -1    0    0  501    0  0.00000000000E+00 -0.00000000000E+00 -0.57105277757E+03  0.57105277758E+03  0.25500000000E-02 0.  1.
   -5000001    1    1    2    0    0 -0.11551376018E+02 -0.45831956189E+02 -0.26962563127E+03  0.37071819962E+03  0.25000000000E+03 0.  0.
    5000001    1    1    2    0    0  0.11551376018E+02  0.45831956189E+02 -0.18637414574E+03  0.31538757854E+03  0.25000000000E+03 0.  0.
<mgrwt>
<rscale>  0 0.51264544E+03</rscale>
<asrwt>0</asrwt>
<pdfrwt beam="1">  1        2 0.87854272E-01 0.51264544E+03</pdfrwt>
<pdfrwt beam="2">  1       -2 0.17700462E-01 0.51264544E+03</pdfrwt>
<totfact> 0.13902425E+03</totfact>
</mgrwt>
</event>
<event>
 4    1  0.1773996E-005  0.1021413E+04  0.7818608E-02  0.9285366E-01
          2   -1    0    0  501    0  0.00000000000E+00  0.00000000000E+00  0.41802889281E+03  0.41802889282E+03  0.25500000000E-02 0.  1.
         -2   -1    0    0    0  501 -0.00000000000E+00 -0.00000000000E+00 -0.62393095519E+03  0.62393095519E+03  0.25500000000E-02 0. -1.
   -5000001    1    1    2    0    0 -0.37136633787E+03  0.24054278929E+03 -0.15443785472E+03  0.53115425382E+03  0.25000000000E+03 0.  0.
    5000001    1    1    2    0    0  0.37136633787E+03 -0.24054278929E+03 -0.51464207657E+02  0.51080559419E+03  0.25000000000E+03 0.  0.
<mgrwt>
<rscale>  0 0.10214131E+04</rscale>
<asrwt>0</asrwt>
<pdfrwt beam="1">  1        2 0.64312137E-01 0.10214131E+04</pdfrwt>
<pdfrwt beam="2">  1       -2 0.95989378E-01 0.10214131E+04</pdfrwt>
<totfact> 0.68649804E+01</totfact>
</mgrwt>
</event>
<event>
 4    1  0.1773996E-005  0.9171131E+03  0.7818608E-02  0.9404439E-01
         -2   -1    0    0    0  501 -0.00000000000E+00  0.00000000000E+00  0.16502416796E+03  0.16502416798E+03  0.25500000000E-02 0. -1.
          2   -1    0    0  501    0  0.00000000000E+00 -0.00000000000E+00 -0.12742018058E+04  0.12742018058E+04  0.25500000000E-02 0.  1.
   -5000001    1    1    2    0    0  0.50430147660E+02 -0.37066146333E+03 -0.41562841187E+03  0.61251946658E+03  0.25000000000E+03 0.  0.
    5000001    1    1    2    0    0 -0.50430147660E+02  0.37066146333E+03 -0.69354922593E+03  0.82670650715E+03  0.25000000000E+03 0.  0.
<mgrwt>
<rscale>  0 0.91711306E+03</rscale>
<asrwt>0</asrwt>
<pdfrwt beam="1">  1        2 0.19603104E+00 0.91711306E+03</pdfrwt>
<pdfrwt beam="2">  1       -2 0.25388334E-01 0.91711306E+03</pdfrwt>
<totfact> 0.23891053E+02</totfact>
</mgrwt>
</event>
<event>
 4    1  0.1773996E-005  0.1052764E+04  0.7818608E-02  0.9252495E-01
          2   -1    0    0  501    0  0.00000000000E+00  0.00000000000E+00  0.62275323116E+03  0.62275323116E+03  0.25500000000E-02 0.  1.
         -2   -1    0    0    0  501 -0.00000000000E+00 -0.00000000000E+00 -0.44492420977E+03  0.44492420978E+03  0.25500000000E-02 0. -1.
   -5000001    1    1    2    0    0 -0.38532870827E+03  0.84798473732E+02 -0.15723550225E+03  0.49284074277E+03  0.25000000000E+03 0.  0.
    5000001    1    1    2    0    0  0.38532870827E+03 -0.84798473732E+02  0.33506452363E+03  0.57483669817E+03  0.25000000000E+03 0.  0.
<mgrwt>
<rscale>  0 0.10527640E+04</rscale>
<asrwt>0</asrwt>
<pdfrwt beam="1">  1        2 0.95808190E-01 0.10527640E+04</pdfrwt>
<pdfrwt beam="2">  1       -2 0.68449878E-01 0.10527640E+04</pdfrwt>
<totfact> 0.92171401E+01</totfact>
</mgrwt>
</event>
<event>
 4    1  0.1773996E-005  0.5459065E+03  0.7818608E-02  0.1002446E+00
          2   -1    0    0  501    0  0.00000000000E+00  0.00000000000E+00  0.75108380417E+03  0.75108380417E+03  0.25500000000E-02 0.  1.
         -2   -1    0    0    0  501 -0.00000000000E+00 -0.00000000000E+00 -0.99194619565E+02  0.99194619597E+02  0.25500000000E-02 0. -1.
   -5000001    1    1    2    0    0 -0.72532270789E+02 -0.70772764419E+02  0.26109054065E+03  0.37541708127E+03  0.25000000000E+03 0.  0.
    5000001    1    1    2    0    0  0.72532270789E+02  0.70772764419E+02  0.39079864395E+03  0.47486134250E+03  0.25000000000E+03 0.  0.
<mgrwt>
<rscale>  0 0.54590648E+03</rscale>
<asrwt>0</asrwt>
<pdfrwt beam="1">  1        2 0.11555136E+00 0.54590648E+03</pdfrwt>
<pdfrwt beam="2">  1       -2 0.15260710E-01 0.54590648E+03</pdfrwt>
<totfact> 0.12781960E+03</totfact>
</mgrwt>
</event>
<event>
 4    1  0.1773996E-005  0.1077008E+04  0.7818608E-02  0.9227896E-01
          2   -1    0    0  501    0  0.00000000000E+00  0.00000000000E+00  0.47639858694E+04  0.47639858694E+04  0.25500000000E-02 0.  1.
         -2   -1    0    0    0  501 -0.00000000000E+00 -0.00000000000E+00 -0.60870597295E+02  0.60870597348E+02  0.25500000000E-02 0. -1.
   -5000001    1    1    2    0    0 -0.87341981220E+01  0.46173783355E+03  0.28855564648E+04  0.29329531576E+04  0.25000000000E+03 0.  0.
    5000001    1    1    2    0    0  0.87341981220E+01 -0.46173783355E+03  0.18175588073E+04  0.18919033092E+04  0.25000000000E+03 0.  0.
<mgrwt>
<rscale>  0 0.10770082E+04</rscale>
<asrwt>0</asrwt>
<pdfrwt beam="1">  1        2 0.73292098E+00 0.10770082E+04</pdfrwt>
<pdfrwt beam="2">  1       -2 0.93647063E-02 0.10770082E+04</pdfrwt>
<totfact> 0.53976361E+00</totfact>
</mgrwt>
</event>
<event>
 4    1  0.1773996E-005  0.7105166E+03  0.7818608E-02  0.9699415E-01
         -2   -1    0    0    0  501 -0.00000000000E+00  0.00000000000E+00  0.17879169235E+03  0.17879169237E+03  0.25500000000E-02 0. -1.
          2   -1    0    0  501    0  0.00000000000E+00 -0.00000000000E+00 -0.70589668560E+03  0.70589668560E+03  0.25500000000E-02 0.  1.
   -5000001    1    1    2    0    0 -0.11194560091E+03 -0.16844349558E+03 -0.45157776471E+03  0.55437127121E+03  0.25000000000E+03 0.  0.
    5000001    1    1    2    0    0  0.11194560091E+03  0.16844349558E+03 -0.75527228536E+02  0.33031710676E+03  0.25000000000E+03 0.  0.
<mgrwt>
<rscale>  0 0.71051661E+03</rscale>
<asrwt>0</asrwt>
<pdfrwt beam="1">  1        2 0.10859949E+00 0.71051661E+03</pdfrwt>
<pdfrwt beam="2">  1       -2 0.27506415E-01 0.71051661E+03</pdfrwt>
<totfact> 0.49096443E+02</totfact>
</mgrwt>
</event>
<event>
 4    1  0.1773996E-005  0.9220590E+03  0.7818608E-02  0.9398419E-01
          2   -1    0    0  501    0  0.00000000000E+00  0.00000000000E+00  0.21660192405E+04  0.21660192405E+04  0.25500000000E-02 0.  1.
         -2   -1    0    0    0  501 -0.00000000000E+00 -0.00000000000E+00 -0.98128480920E+02  0.98128480953E+02  0.25500000000E-02 0. -1.
   -5000001    1    1    2    0    0 -0.98059875762E+02 -0.21802945127E+03  0.17823623640E+04  0.18156178501E+04  0.25000000000E+03 0.  0.
    5000001    1    1    2    0    0  0.98059875762E+02  0.21802945127E+03  0.28552839560E+03  0.44852987141E+03  0.25000000000E+03 0.  0.
<mgrwt>
<rscale>  0 0.92205895E+03</rscale>
<asrwt>0</asrwt>
<pdfrwt beam="1">  1        2 0.33323371E+00 0.92205895E+03</pdfrwt>
<pdfrwt beam="2">  1       -2 0.15096690E-01 0.92205895E+03</pdfrwt>
<totfact> 0.18947802E+02</totfact>
</mgrwt>
</event>
<event>
 4    1  0.1773996E-005  0.6451134E+03  0.7818608E-02  0.9815992E-01
          2   -1    0    0  501    0  0.00000000000E+00  0.00000000000E+00  0.49187161128E+03  0.49187161129E+03  0.25500000000E-02 0.  1.
         -2   -1    0    0    0  501 -0.00000000000E+00 -0.00000000000E+00 -0.21152433329E+03  0.21152433331E+03  0.25500000000E-02 0. -1.
   -5000001    1    1    2    0    0 -0.43700828930E+02  0.17247654801E+03  0.31768518789E+02  0.30849175167E+03  0.25000000000E+03 0.  0.
    5000001    1    1    2    0    0  0.43700828930E+02 -0.17247654801E+03  0.24857875920E+03  0.39490419292E+03  0.25000000000E+03 0.  0.
<mgrwt>
<rscale>  0 0.64511337E+03</rscale>
<asrwt>0</asrwt>
<pdfrwt beam="1">  1        2 0.75672556E-01 0.64511337E+03</pdfrwt>
<pdfrwt beam="2">  1       -2 0.32542205E-01 0.64511337E+03</pdfrwt>
<totfact> 0.55597194E+02</totfact>
</mgrwt>
</event>
<event>
 4    1  0.1773996E-005  0.6746321E+03  0.7818608E-02  0.9761626E-01
         -2   -1    0    0    0  501 -0.00000000000E+00  0.00000000000E+00  0.68751510895E+02  0.68751510942E+02  0.25500000000E-02 0. -1.
          2   -1    0    0  501    0  0.00000000000E+00 -0.00000000000E+00 -0.16549763335E+04  0.16549763335E+04  0.25500000000E-02 0.  1.
   -5000001    1    1    2    0    0 -0.51758323616E+02 -0.12448118820E+03 -0.32820576855E+03  0.43404321996E+03  0.25000000000E+03 0.  0.
    5000001    1    1    2    0    0  0.51758323616E+02  0.12448118820E+03 -0.12580190541E+04  0.12896846245E+04  0.25000000000E+03 0.  0.
<mgrwt>
<rscale>  0 0.67463212E+03</rscale>
<asrwt>0</asrwt>
<pdfrwt beam="1">  1        2 0.25461171E+00 0.67463212E+03</pdfrwt>
<pdfrwt beam="2">  1       -2 0.10577157E-01 0.67463212E+03</pdfrwt>
<totfact> 0.66359383E+02</totfact>
</mgrwt>
</event>
<event>
 4    1  0.1773996E-005  0.8160908E+03  0.7818608E-02  0.9537014E-01
          2   -1    0    0  501    0  0.00000000000E+00  0.00000000000E+00  0.10438379050E+04  0.10438379050E+04  0.25500000000E-02 0.  1.
         -2   -1    0    0    0  501 -0.00000000000E+00 -0.00000000000E+00 -0.15950851729E+03  0.15950851731E+03  0.25500000000E-02 0. -1.
   -5000001    1    1    2    0    0  0.30248835811E+03 -0.10437428388E+03  0.50129000394E+03  0.64512391521E+03  0.25000000000E+03 0.  0.
    5000001    1    1    2    0    0 -0.30248835811E+03  0.10437428388E+03  0.38303938381E+03  0.55822250714E+03  0.25000000000E+03 0.  0.
<mgrwt>
<rscale>  0 0.81609077E+03</rscale>
<asrwt>0</asrwt>
<pdfrwt beam="1">  1        2 0.16059045E+00 0.81609077E+03</pdfrwt>
<pdfrwt beam="2">  1       -2 0.24539772E-01 0.81609077E+03</pdfrwt>
<totfact> 0.35165409E+02</totfact>
</mgrwt>
</event>
<event>
 4    1  0.1773996E-005  0.6313562E+03  0.7818608E-02  0.9842406E-01
          2   -1    0    0  501    0  0.00000000000E+00  0.00000000000E+00  0.24787673725E+04  0.24787673725E+04  0.25500000000E-02 0. -1.
         -2   -1    0    0    0  501 -0.00000000000E+00 -0.00000000000E+00 -0.40202510559E+02  0.40202510640E+02  0.25500000000E-02 0.  1.
   -5000001    1    1    2    0    0 -0.10438590988E+03  0.68204764133E+02  0.63284829193E+03  0.69176966443E+03  0.25000000000E+03 0.  0.
    5000001    1    1    2    0    0  0.10438590988E+03 -0.68204764133E+02  0.18057165701E+04  0.18272002188E+04  0.25000000000E+03 0.  0.
<mgrwt>
<rscale>  0 0.63135623E+03</rscale>
<asrwt>0</asrwt>
<pdfrwt beam="1">  1        2 0.38134883E+00 0.63135623E+03</pdfrwt>
<pdfrwt beam="2">  1       -2 0.61850016E-02 0.63135623E+03</pdfrwt>
<totfact> 0.55544731E+02</totfact>
</mgrwt>
</event>
<event>
 4    1  0.1773996E-005  0.8507505E+03  0.7818608E-02  0.9489330E-01
         -2   -1    0    0    0  501 -0.00000000000E+00  0.00000000000E+00  0.61734454213E+02  0.61734454266E+02  0.25500000000E-02 0. -1.
          2   -1    0    0  501    0  0.00000000000E+00 -0.00000000000E+00 -0.29310069044E+04  0.29310069044E+04  0.25500000000E-02 0.  1.
   -5000001    1    1    2    0    0 -0.83886831005E+02  0.28017563468E+03 -0.20727858088E+04  0.21081926847E+04  0.25000000000E+03 0.  0.
    5000001    1    1    2    0    0  0.83886831005E+02 -0.28017563468E+03 -0.79648664132E+03  0.88454867390E+03  0.25000000000E+03 0.  0.
<mgrwt>
<rscale>  0 0.85075052E+03</rscale>
<asrwt>0</asrwt>
<pdfrwt beam="1">  1        2 0.45092403E+00 0.85075052E+03</pdfrwt>
<pdfrwt beam="2">  1       -2 0.94976106E-02 0.85075052E+03</pdfrwt>
<totfact> 0.14935354E+02</totfact>
</mgrwt>
</event>
<event>
 4    1  0.1773996E-005  0.6024878E+03  0.7818608E-02  0.9900258E-01
         -2   -1    0    0    0  501 -0.00000000000E+00  0.00000000000E+00  0.60193135178E+02  0.60193135232E+02  0.25500000000E-02 0. -1.
          2   -1    0    0  501    0  0.00000000000E+00 -0.00000000000E+00 -0.15076119664E+04  0.15076119664E+04  0.25500000000E-02 0.  1.
   -5000001    1    1    2    0    0  0.44811159218E+01  0.98873339785E+02 -0.37023007324E+03  0.45756565086E+03  0.25000000000E+03 0.  0.
    5000001    1    1    2    0    0 -0.44811159218E+01 -0.98873339785E+02 -0.10771887579E+04  0.11102394507E+04  0.25000000000E+03 0.  0.
<mgrwt>
<rscale>  0 0.60248781E+03</rscale>
<asrwt>0</asrwt>
<pdfrwt beam="1">  1        2 0.23194027E+00 0.60248781E+03</pdfrwt>
<pdfrwt beam="2">  1       -2 0.92604835E-02 0.60248781E+03</pdfrwt>
<totfact> 0.99569351E+02</totfact>
</mgrwt>
</event>
<event>
 4    1  0.1773996E-005  0.8792775E+03  0.7818608E-02  0.9451863E-01
         -2   -1    0    0    0  501 -0.00000000000E+00  0.00000000000E+00  0.35032837204E+03  0.35032837205E+03  0.25500000000E-02 0. -1.
          2   -1    0    0  501    0  0.00000000000E+00 -0.00000000000E+00 -0.55171730312E+03  0.55171730313E+03  0.25500000000E-02 0.  1.
   -5000001    1    1    2    0    0  0.24705181655E+03 -0.15660136752E+03  0.11747065326E+03  0.40231572520E+03  0.25000000000E+03 0.  0.
    5000001    1    1    2    0    0 -0.24705181655E+03  0.15660136752E+03 -0.31885958434E+03  0.49972994997E+03  0.25000000000E+03 0.  0.
<mgrwt>
<rscale>  0 0.87927749E+03</rscale>
<asrwt>0</asrwt>
<pdfrwt beam="1">  1        2 0.84879585E-01 0.87927749E+03</pdfrwt>
<pdfrwt beam="2">  1       -2 0.53896673E-01 0.87927749E+03</pdfrwt>
<totfact> 0.17865119E+02</totfact>
</mgrwt>
</event>
<event>
 4    1  0.1773996E-005  0.5642598E+03  0.7818608E-02  0.9982462E-01
         -2   -1    0    0    0  501 -0.00000000000E+00  0.00000000000E+00  0.57336054082E+03  0.57336054083E+03  0.25500000000E-02 0. -1.
          2   -1    0    0  501    0  0.00000000000E+00 -0.00000000000E+00 -0.13882586263E+03  0.13882586265E+03  0.25500000000E-02 0.  1.
   -5000001    1    1    2    0    0  0.13339343626E+02 -0.10292690434E+03  0.31764986206E+03  0.41734077274E+03  0.25000000000E+03 0.  0.
    5000001    1    1    2    0    0 -0.13339343626E+02  0.10292690434E+03  0.11688481613E+03  0.29484563074E+03  0.25000000000E+03 0.  0.
<mgrwt>
<rscale>  0 0.56425977E+03</rscale>
<asrwt>0</asrwt>
<pdfrwt beam="1">  1        2 0.21357825E-01 0.56425977E+03</pdfrwt>
<pdfrwt beam="2">  1       -2 0.88209314E-01 0.56425977E+03</pdfrwt>
<totfact> 0.29451909E+02</totfact>
</mgrwt>
</event>
<event>
 4    1  0.1773996E-005  0.8855085E+03  0.7818608E-02  0.9443880E-01
         -2   -1    0    0    0  501 -0.00000000000E+00  0.00000000000E+00  0.12818159811E+03  0.12818159813E+03  0.25500000000E-02 0. -1.
          2   -1    0    0  501    0  0.00000000000E+00 -0.00000000000E+00 -0.15293251906E+04  0.15293251906E+04  0.25500000000E-02 0.  1.
   -5000001    1    1    2    0    0  0.26863094583E+03 -0.24634359753E+03 -0.65163205823E+03  0.78738306586E+03  0.25000000000E+03 0.  0.
    5000001    1    1    2    0    0 -0.26863094583E+03  0.24634359753E+03 -0.74951153422E+03  0.87012372283E+03  0.25000000000E+03 0.  0.
<mgrwt>
<rscale>  0 0.88550855E+03</rscale>
<asrwt>0</asrwt>
<pdfrwt beam="1">  1        2 0.23528079E+00 0.88550855E+03</pdfrwt>
<pdfrwt beam="2">  1       -2 0.19720247E-01 0.88550855E+03</pdfrwt>
<totfact> 0.26869946E+02</totfact>
</mgrwt>
</event>
<event>
 4    1  0.1773996E-005  0.7677511E+03  0.7818608E-02  0.9607906E-01
         -2   -1    0    0    0  501 -0.00000000000E+00  0.00000000000E+00  0.92039955038E+02  0.92039955074E+02  0.25500000000E-02 0. -1.
          2   -1    0    0  501    0  0.00000000000E+00 -0.00000000000E+00 -0.16010486814E+04  0.16010486814E+04  0.25500000000E-02 0.  1.
   -5000001    1    1    2    0    0  0.18494010260E+03  0.13845165426E+03 -0.36317997187E+03  0.49776640514E+03  0.25000000000E+03 0.  0.
    5000001    1    1    2    0    0 -0.18494010260E+03 -0.13845165426E+03 -0.11458287545E+04  0.11953222314E+04  0.25000000000E+03 0.  0.
<mgrwt>
<rscale>  0 0.76775113E+03</rscale>
<asrwt>0</asrwt>
<pdfrwt beam="1">  1        2 0.24631516E+00 0.76775113E+03</pdfrwt>
<pdfrwt beam="2">  1       -2 0.14159994E-01 0.76775113E+03</pdfrwt>
<totfact> 0.43579074E+02</totfact>
</mgrwt>
</event>
<event>
 4    1  0.1773996E-005  0.6901925E+03  0.7818608E-02  0.9734153E-01
          2   -1    0    0  501    0  0.00000000000E+00  0.00000000000E+00  0.16713027303E+04  0.16713027303E+04  0.25500000000E-02 0.  1.
         -2   -1    0    0    0  501 -0.00000000000E+00 -0.00000000000E+00 -0.71256643501E+02  0.71256643547E+02  0.25500000000E-02 0. -1.
   -5000001    1    1    2    0    0 -0.23233547471E+03 -0.46440094898E+02  0.85387575874E+03  0.92072811763E+03  0.25000000000E+03 0.  0.
    5000001    1    1    2    0    0  0.23233547471E+03  0.46440094898E+02  0.74617032801E+03  0.82183125617E+03  0.25000000000E+03 0.  0.
<mgrwt>
<rscale>  0 0.69019250E+03</rscale>
<asrwt>0</asrwt>
<pdfrwt beam="1">  1        2 0.25712349E+00 0.69019250E+03</pdfrwt>
<pdfrwt beam="2">  1       -2 0.10962561E-01 0.69019250E+03</pdfrwt>
<totfact> 0.61257450E+02</totfact>
</mgrwt>
</event>
<event>
 4    1  0.1773996E-005  0.6380778E+03  0.7818608E-02  0.9829411E-01
         -2   -1    0    0    0  501 -0.00000000000E+00  0.00000000000E+00  0.12437274681E+03  0.12437274684E+03  0.25500000000E-02 0. -1.
          2   -1    0    0  501    0  0.00000000000E+00 -0.00000000000E+00 -0.81839328005E+03  0.81839328005E+03  0.25500000000E-02 0.  1.
   -5000001    1    1    2    0    0  0.79095937964E+02  0.17445525100E+03 -0.27174397925E+03  0.41597547074E+03  0.25000000000E+03 0.  0.
    5000001    1    1    2    0    0 -0.79095937964E+02 -0.17445525100E+03 -0.42227655398E+03  0.52679055615E+03  0.25000000000E+03 0.  0.
<mgrwt>
<rscale>  0 0.63807780E+03</rscale>
<asrwt>0</asrwt>
<pdfrwt beam="1">  1        2 0.12590666E+00 0.63807780E+03</pdfrwt>
<pdfrwt beam="2">  1       -2 0.19134269E-01 0.63807780E+03</pdfrwt>
<totfact> 0.77505025E+02</totfact>
</mgrwt>
</event>
<event>
 4    1  0.1773996E-005  0.7397982E+03  0.7818608E-02  0.9651493E-01
          2   -1    0    0  501    0  0.00000000000E+00  0.00000000000E+00  0.23500829403E+04  0.23500829403E+04  0.25500000000E-02 0.  1.
         -2   -1    0    0    0  501 -0.00000000000E+00 -0.00000000000E+00 -0.58221493521E+02  0.58221493577E+02  0.25500000000E-02 0. -1.
   -5000001    1    1    2    0    0  0.18884045953E+03  0.19258456086E+03  0.12751566245E+04  0.13271299670E+04  0.25000000000E+03 0.  0.
    5000001    1    1    2    0    0 -0.18884045953E+03 -0.19258456086E+03  0.10167048223E+04  0.10811744669E+04  0.25000000000E+03 0.  0.
<mgrwt>
<rscale>  0 0.73979819E+03</rscale>
<asrwt>0</asrwt>
<pdfrwt beam="1">  1        2 0.36155123E+00 0.73979819E+03</pdfrwt>
<pdfrwt beam="2">  1       -2 0.89571526E-02 0.73979819E+03</pdfrwt>
<totfact> 0.36029262E+02</totfact>
</mgrwt>
</event>
<event>
 4    1  0.1773996E-005  0.8662830E+03  0.7818608E-02  0.9468739E-01
         -2   -1    0    0    0  501 -0.00000000000E+00  0.00000000000E+00  0.20280041814E+03  0.20280041816E+03  0.25500000000E-02 0. -1.
          2   -1    0    0  501    0  0.00000000000E+00 -0.00000000000E+00 -0.92510445190E+03  0.92510445190E+03  0.25500000000E-02 0.  1.
   -5000001    1    1    2    0    0 -0.34643062875E+03  0.36519800413E+02 -0.28127537801E+03  0.51279987776E+03  0.25000000000E+03 0.  0.
    5000001    1    1    2    0    0  0.34643062875E+03 -0.36519800413E+02 -0.44102865575E+03  0.61510499230E+03  0.25000000000E+03 0.  0.
<mgrwt>
<rscale>  0 0.86628302E+03</rscale>
<asrwt>0</asrwt>
<pdfrwt beam="1">  1        2 0.14232376E+00 0.86628302E+03</pdfrwt>
<pdfrwt beam="2">  1       -2 0.31200065E-01 0.86628302E+03</pdfrwt>
<totfact> 0.26936762E+02</totfact>
</mgrwt>
</event>
<event>
 4    1  0.1773996E-005  0.6785923E+03  0.7818608E-02  0.9754559E-01
          2   -1    0    0  501    0  0.00000000000E+00  0.00000000000E+00  0.22363349211E+04  0.22363349211E+04  0.25500000000E-02 0.  1.
         -2   -1    0    0    0  501 -0.00000000000E+00 -0.00000000000E+00 -0.51477929986E+02  0.51477930049E+02  0.25500000000E-02 0. -1.
   -5000001    1    1    2    0    0 -0.16024256439E+03 -0.16308273297E+03  0.11553425911E+04  0.12039892690E+04  0.25000000000E+03 0.  0.
    5000001    1    1    2    0    0  0.16024256439E+03  0.16308273297E+03  0.10295144001E+04  0.10838235821E+04  0.25000000000E+03 0.  0.
<mgrwt>
<rscale>  0 0.67859234E+03</rscale>
<asrwt>0</asrwt>
<pdfrwt beam="1">  1        2 0.34405157E+00 0.67859234E+03</pdfrwt>
<pdfrwt beam="2">  1       -2 0.79196806E-02 0.67859234E+03</pdfrwt>
<totfact> 0.51018810E+02</totfact>
</mgrwt>
</event>
<event>
 4    1  0.1773996E-005  0.7874366E+03  0.7818608E-02  0.9578382E-01
         -2   -1    0    0    0  501 -0.00000000000E+00  0.00000000000E+00  0.14753868958E+03  0.14753868960E+03  0.25500000000E-02 0. -1.
          2   -1    0    0  501    0  0.00000000000E+00 -0.00000000000E+00 -0.10506674218E+04  0.10506674218E+04  0.25500000000E-02 0.  1.
   -5000001    1    1    2    0    0  0.29524747191E+03  0.41818530854E+02 -0.54279048543E+03  0.66786328711E+03  0.25000000000E+03 0.  0.
    5000001    1    1    2    0    0 -0.29524747191E+03 -0.41818530854E+02 -0.36033824684E+03  0.53034282434E+03  0.25000000000E+03 0.  0.
<mgrwt>
<rscale>  0 0.78743659E+03</rscale>
<asrwt>0</asrwt>
<pdfrwt beam="1">  1        2 0.16164114E+00 0.78743659E+03</pdfrwt>
<pdfrwt beam="2">  1       -2 0.22698261E-01 0.78743659E+03</pdfrwt>
<totfact> 0.40094413E+02</totfact>
</mgrwt>
</event>
<event>
 4    1  0.1773996E-005  0.6960008E+03  0.7818608E-02  0.9724096E-01
          2   -1    0    0  501    0  0.00000000000E+00  0.00000000000E+00  0.23764211753E+04  0.23764211753E+04  0.25500000000E-02 0.  1.
         -2   -1    0    0    0  501 -0.00000000000E+00 -0.00000000000E+00 -0.50960783221E+02  0.50960783284E+02  0.25500000000E-02 0. -1.
   -5000001    1    1    2    0    0 -0.92112796909E+02  0.21584087022E+03  0.95545219314E+03  0.10151162209E+04  0.25000000000E+03 0.  0.
    5000001    1    1    2    0    0  0.92112796909E+02 -0.21584087022E+03  0.13700081990E+04  0.14122657377E+04  0.25000000000E+03 0.  0.
<mgrwt>
<rscale>  0 0.69600082E+03</rscale>
<asrwt>0</asrwt>
<pdfrwt beam="1">  1        2 0.36560312E+00 0.69600082E+03</pdfrwt>
<pdfrwt beam="2">  1       -2 0.78401234E-02 0.69600082E+03</pdfrwt>
<totfact> 0.43295513E+02</totfact>
</mgrwt>
</event>
<event>
 4    1  0.1773996E-005  0.7246910E+03  0.7818608E-02  0.9675915E-01
         -2   -1    0    0    0  501 -0.00000000000E+00  0.00000000000E+00  0.59939910529E+03  0.59939910529E+03  0.25500000000E-02 0. -1.
          2   -1    0    0  501    0  0.00000000000E+00 -0.00000000000E+00 -0.21904316316E+03  0.21904316317E+03  0.25500000000E-02 0.  1.
   -5000001    1    1    2    0    0 -0.22646555199E+03 -0.12366442034E+03  0.24332715787E+03  0.43392123808E+03  0.25000000000E+03 0.  0.
    5000001    1    1    2    0    0  0.22646555199E+03  0.12366442034E+03  0.13702878426E+03  0.38452103039E+03  0.25000000000E+03 0.  0.
<mgrwt>
<rscale>  0 0.72469104E+03</rscale>
<asrwt>0</asrwt>
<pdfrwt beam="1">  1        2 0.33698948E-01 0.72469104E+03</pdfrwt>
<pdfrwt beam="2">  1       -2 0.92215247E-01 0.72469104E+03</pdfrwt>
<totfact> 0.15740862E+02</totfact>
</mgrwt>
</event>
<event>
 4    1  0.1773996E-005  0.1002039E+04  0.7818608E-02  0.9306312E-01
          2   -1    0    0  501    0  0.00000000000E+00  0.00000000000E+00  0.21128044596E+04  0.21128044596E+04  0.25500000000E-02 0.  1.
         -2   -1    0    0    0  501 -0.00000000000E+00 -0.00000000000E+00 -0.11880906386E+03  0.11880906389E+03  0.25500000000E-02 0. -1.
   -5000001    1    1    2    0    0 -0.32697373574E+03 -0.20568935257E+03  0.14384999868E+04  0.15102986942E+04  0.25000000000E+03 0.  0.
    5000001    1    1    2    0    0  0.32697373574E+03  0.20568935257E+03  0.55549540895E+03  0.72131482932E+03  0.25000000000E+03 0.  0.
<mgrwt>
<rscale>  0 0.10020386E+04</rscale>
<asrwt>0</asrwt>
<pdfrwt beam="1">  1        2 0.32504680E+00 0.10020386E+04</pdfrwt>
<pdfrwt beam="2">  1       -2 0.18278320E-01 0.10020386E+04</pdfrwt>
<totfact> 0.14510876E+02</totfact>
</mgrwt>
</event>
<event>
 4    1  0.1773996E-005  0.6178042E+03  0.7818608E-02  0.9869141E-01
         -2   -1    0    0    0  501 -0.00000000000E+00  0.00000000000E+00  0.62667291116E+02  0.62667291168E+02  0.25500000000E-02 0. -1.
          2   -1    0    0  501    0  0.00000000000E+00 -0.00000000000E+00 -0.15226525293E+04  0.15226525293E+04  0.25500000000E-02 0.  1.
   -5000001    1    1    2    0    0  0.35332798215E+02  0.15427549566E+03 -0.95765212544E+03  0.10023207713E+04  0.25000000000E+03 0.  0.
    5000001    1    1    2    0    0 -0.35332798215E+02 -0.15427549566E+03 -0.50233311275E+03  0.58299904919E+03  0.25000000000E+03 0.  0.
<mgrwt>
<rscale>  0 0.61780421E+03</rscale>
<asrwt>0</asrwt>
<pdfrwt beam="1">  1        2 0.23425421E+00 0.61780421E+03</pdfrwt>
<pdfrwt beam="2">  1       -2 0.96411228E-02 0.61780421E+03</pdfrwt>
<totfact> 0.91465434E+02</totfact>
</mgrwt>
</event>
<event>
 4    1  0.1773996E-005  0.3486414E+04  0.7818608E-02  0.8117017E-01
          2   -1    0    0  501    0  0.00000000000E+00  0.00000000000E+00  0.34145585906E+04  0.34145585906E+04  0.25500000000E-02 0.  1.
         -2   -1    0    0    0  501 -0.00000000000E+00 -0.00000000000E+00 -0.88994518291E+03  0.88994518291E+03  0.25500000000E-02 0. -1.
   -5000001    1    1    2    0    0 -0.14439394691E+04  0.76398314679E+03  0.19471079601E+04  0.25538913147E+04  0.25000000000E+03 0.  0.
    5000001    1    1    2    0    0  0.14439394691E+04 -0.76398314679E+03  0.57750544762E+03  0.17506124588E+04  0.25000000000E+03 0.  0.
<mgrwt>
<rscale>  0 0.34864136E+04</rscale>
<asrwt>0</asrwt>
<pdfrwt beam="1">  1        2 0.52531671E+00 0.34864136E+04</pdfrwt>
<pdfrwt beam="2">  1       -2 0.13691464E+00 0.34864136E+04</pdfrwt>
<totfact> 0.29125173E-01</totfact>
</mgrwt>
</event>
<event>
 4    1  0.1773996E-005  0.6618577E+03  0.7818608E-02  0.9784780E-01
         -2   -1    0    0    0  501 -0.00000000000E+00  0.00000000000E+00  0.43654761197E+03  0.43654761198E+03  0.25500000000E-02 0. -1.
          2   -1    0    0  501    0  0.00000000000E+00 -0.00000000000E+00 -0.25086356522E+03  0.25086356524E+03  0.25500000000E-02 0.  1.
   -5000001    1    1    2    0    0 -0.11711054886E+03 -0.13420230877E+03  0.22126359482E+03  0.37839492429E+03  0.25000000000E+03 0.  0.
    5000001    1    1    2    0    0  0.11711054886E+03  0.13420230877E+03 -0.35579548070E+02  0.30901625293E+03  0.25000000000E+03 0.  0.
<mgrwt>
<rscale>  0 0.66185766E+03</rscale>
<asrwt>0</asrwt>
<pdfrwt beam="1">  1        2 0.38594395E-01 0.66185766E+03</pdfrwt>
<pdfrwt beam="2">  1       -2 0.67161171E-01 0.66185766E+03</pdfrwt>
<totfact> 0.27547677E+02</totfact>
</mgrwt>
</event>
<event>
 4    1  0.1773996E-005  0.6149856E+03  0.7818608E-02  0.9874794E-01
          2   -1    0    0  501    0  0.00000000000E+00  0.00000000000E+00  0.13175596822E+04  0.13175596822E+04  0.25500000000E-02 0.  1.
         -2   -1    0    0    0  501 -0.00000000000E+00 -0.00000000000E+00 -0.71762842198E+02  0.71762842243E+02  0.25500000000E-02 0. -1.
   -5000001    1    1    2    0    0 -0.78329363492E+02 -0.14201103087E+03  0.79419237391E+03  0.84825948203E+03  0.25000000000E+03 0.  0.
    5000001    1    1    2    0    0  0.78329363492E+02  0.14201103087E+03  0.45160446608E+03  0.54106304240E+03  0.25000000000E+03 0.  0.
<mgrwt>
<rscale>  0 0.61498562E+03</rscale>
<asrwt>0</asrwt>
<pdfrwt beam="1">  1        2 0.20270149E+00 0.61498562E+03</pdfrwt>
<pdfrwt beam="2">  1       -2 0.11040437E-01 0.61498562E+03</pdfrwt>
<totfact> 0.95591533E+02</totfact>
</mgrwt>
</event>
<event>
 4    1  0.1773996E-005  0.9402038E+03  0.7818608E-02  0.9376675E-01
         -2   -1    0    0    0  501 -0.00000000000E+00  0.00000000000E+00  0.13771084120E+03  0.13771084123E+03  0.25500000000E-02 0.  1.
          2   -1    0    0  501    0  0.00000000000E+00 -0.00000000000E+00 -0.16047813748E+04  0.16047813748E+04  0.25500000000E-02 0. -1.
   -5000001    1    1    2    0    0  0.80956761272E+02  0.38436495179E+03 -0.61334993789E+03  0.77005750413E+03  0.25000000000E+03 0.  0.
    5000001    1    1    2    0    0 -0.80956761272E+02 -0.38436495179E+03 -0.85372059568E+03  0.97243471187E+03  0.25000000000E+03 0.  0.
<mgrwt>
<rscale>  0 0.94020379E+03</rscale>
<asrwt>0</asrwt>
<pdfrwt beam="1">  1        2 0.24688943E+00 0.94020379E+03</pdfrwt>
<pdfrwt beam="2">  1       -2 0.21186284E-01 0.94020379E+03</pdfrwt>
<totfact> 0.21429122E+02</totfact>
</mgrwt>
</event>
<event>
 4    1  0.1773996E-005  0.7005921E+03  0.7818608E-02  0.9716220E-01
         -2   -1    0    0    0  501 -0.00000000000E+00  0.00000000000E+00  0.13936232209E+03  0.13936232211E+03  0.25500000000E-02 0. -1.
          2   -1    0    0  501    0  0.00000000000E+00 -0.00000000000E+00 -0.88049143679E+03  0.88049143680E+03  0.25500000000E-02 0.  1.
   -5000001    1    1    2    0    0 -0.11117343065E+03 -0.10685091717E+03 -0.92717184361E+02  0.30801481533E+03  0.25000000000E+03 0.  0.
    5000001    1    1    2    0    0  0.11117343065E+03  0.10685091717E+03 -0.64841193035E+03  0.71183894358E+03  0.25000000000E+03 0.  0.
<mgrwt>
<rscale>  0 0.70059212E+03</rscale>
<asrwt>0</asrwt>
<pdfrwt beam="1">  1        2 0.13546022E+00 0.70059212E+03</pdfrwt>
<pdfrwt beam="2">  1       -2 0.21440358E-01 0.70059212E+03</pdfrwt>
<totfact> 0.57419263E+02</totfact>
</mgrwt>
</event>
<event>
 4    1  0.1773996E-005  0.8905989E+03  0.7818608E-02  0.9437410E-01
         -2   -1    0    0    0  501 -0.00000000000E+00  0.00000000000E+00  0.15110978582E+03  0.15110978584E+03  0.25500000000E-02 0. -1.
          2   -1    0    0  501    0  0.00000000000E+00 -0.00000000000E+00 -0.13122353161E+04  0.13122353161E+04  0.25500000000E-02 0.  1.
   -5000001    1    1    2    0    0 -0.21570652026E+03 -0.27067871551E+03 -0.78837024590E+03  0.89656227588E+03  0.25000000000E+03 0.  0.
    5000001    1    1    2    0    0  0.21570652026E+03  0.27067871551E+03 -0.37275528442E+03  0.56678282611E+03  0.25000000000E+03 0.  0.
<mgrwt>
<rscale>  0 0.89059889E+03</rscale>
<asrwt>0</asrwt>
<pdfrwt beam="1">  1        2 0.20188235E+00 0.89059889E+03</pdfrwt>
<pdfrwt beam="2">  1       -2 0.23247660E-01 0.89059889E+03</pdfrwt>
<totfact> 0.26649639E+02</totfact>
</mgrwt>
</event>
<event>
 4    1  0.1773996E-005  0.6859738E+03  0.7818608E-02  0.9741524E-01
          2   -1    0    0  501    0  0.00000000000E+00  0.00000000000E+00  0.52578623457E+03  0.52578623457E+03  0.25500000000E-02 0.  1.
         -2   -1    0    0    0  501 -0.00000000000E+00 -0.00000000000E+00 -0.22374114293E+03  0.22374114295E+03  0.25500000000E-02 0. -1.
   -5000001    1    1    2    0    0 -0.17069734017E+03 -0.15749161189E+03  0.11319069729E+03  0.35951818273E+03  0.25000000000E+03 0.  0.
    5000001    1    1    2    0    0  0.17069734017E+03  0.15749161189E+03  0.18885439435E+03  0.39000919479E+03  0.25000000000E+03 0.  0.
<mgrwt>
<rscale>  0 0.68597380E+03</rscale>
<asrwt>0</asrwt>
<pdfrwt beam="1">  1        2 0.80890189E-01 0.68597380E+03</pdfrwt>
<pdfrwt beam="2">  1       -2 0.34421715E-01 0.68597380E+03</pdfrwt>
<totfact> 0.46241221E+02</totfact>
</mgrwt>
</event>
<event>
 4    1  0.1773996E-005  0.6576691E+03  0.7818608E-02  0.9792494E-01
          2   -1    0    0  501    0  0.00000000000E+00  0.00000000000E+00  0.22666635382E+04  0.22666635382E+04  0.25500000000E-02 0.  1.
         -2   -1    0    0    0  501 -0.00000000000E+00 -0.00000000000E+00 -0.47705434125E+02  0.47705434193E+02  0.25500000000E-02 0. -1.
   -5000001    1    1    2    0    0 -0.20992146874E+03  0.17688419622E+02  0.98494926054E+03  0.10377884896E+04  0.25000000000E+03 0.  0.
    5000001    1    1    2    0    0  0.20992146874E+03 -0.17688419622E+02  0.12340088436E+04  0.12765804829E+04  0.25000000000E+03 0.  0.
<mgrwt>
<rscale>  0 0.65766912E+03</rscale>
<asrwt>0</asrwt>
<pdfrwt beam="1">  1        2 0.34871737E+00 0.65766912E+03</pdfrwt>
<pdfrwt beam="2">  1       -2 0.73392997E-02 0.65766912E+03</pdfrwt>
<totfact> 0.55512404E+02</totfact>
</mgrwt>
</event>
<event>
 4    1  0.1773996E-005  0.9064527E+03  0.7818608E-02  0.9417551E-01
          2   -1    0    0  501    0  0.00000000000E+00  0.00000000000E+00  0.17554262364E+04  0.17554262364E+04  0.25500000000E-02 0.  1.
         -2   -1    0    0    0  501 -0.00000000000E+00 -0.00000000000E+00 -0.11701667059E+03  0.11701667061E+03  0.25500000000E-02 0. -1.
   -5000001    1    1    2    0    0  0.20728517712E+03 -0.30590045304E+03  0.65431339786E+03  0.79193955227E+03  0.25000000000E+03 0.  0.
    5000001    1    1    2    0    0 -0.20728517712E+03  0.30590045304E+03  0.98409616792E+03  0.10805033547E+04  0.25000000000E+03 0.  0.
<mgrwt>
<rscale>  0 0.90645272E+03</rscale>
<asrwt>0</asrwt>
<pdfrwt beam="1">  1        2 0.27006557E+00 0.90645272E+03</pdfrwt>
<pdfrwt beam="2">  1       -2 0.18002565E-01 0.90645272E+03</pdfrwt>
<totfact> 0.23584258E+02</totfact>
</mgrwt>
</event>
<event>
 4    1  0.1773996E-005  0.6281916E+03  0.7818608E-02  0.9848584E-01
          2   -1    0    0  501    0  0.00000000000E+00  0.00000000000E+00  0.25563329176E+04  0.25563329176E+04  0.25500000000E-02 0.  1.
         -2   -1    0    0    0  501 -0.00000000000E+00 -0.00000000000E+00 -0.38592855127E+02  0.38592855211E+02  0.25500000000E-02 0. -1.
   -5000001    1    1    2    0    0 -0.39934632942E+02  0.17956755271E+03  0.14577023197E+04  0.14903809358E+04  0.25000000000E+03 0.  0.
    5000001    1    1    2    0    0  0.39934632942E+02 -0.17956755271E+03  0.10600377428E+04  0.11045448370E+04  0.25000000000E+03 0.  0.
<mgrwt>
<rscale>  0 0.62819165E+03</rscale>
<asrwt>0</asrwt>
<pdfrwt beam="1">  1        2 0.39328191E+00 0.62819165E+03</pdfrwt>
<pdfrwt beam="2">  1       -2 0.59373635E-02 0.62819165E+03</pdfrwt>
<totfact> 0.53551118E+02</totfact>
</mgrwt>
</event>
<event>
 4    1  0.1773996E-005  0.5599880E+03  0.7818608E-02  0.9992082E-01
          2   -1    0    0  501    0  0.00000000000E+00  0.00000000000E+00  0.12504110379E+04  0.12504110379E+04  0.25500000000E-02 0.  1.
         -2   -1    0    0    0  501 -0.00000000000E+00 -0.00000000000E+00 -0.62696703609E+02  0.62696703661E+02  0.25500000000E-02 0. -1.
   -5000001    1    1    2    0    0 -0.11988162799E+03  0.22896212639E+02  0.51967539384E+03  0.58945598330E+03  0.25000000000E+03 0.  0.
    5000001    1    1    2    0    0  0.11988162799E+03 -0.22896212639E+02  0.66803894047E+03  0.72365175828E+03  0.25000000000E+03 0.  0.
<mgrwt>
<rscale>  0 0.55998804E+03</rscale>
<asrwt>0</asrwt>
<pdfrwt beam="1">  1        2 0.19237093E+00 0.55998804E+03</pdfrwt>
<pdfrwt beam="2">  1       -2 0.96456468E-02 0.55998804E+03</pdfrwt>
<totfact> 0.13035613E+03</totfact>
</mgrwt>
</event>
<event>
 4    1  0.1773996E-005  0.9269981E+03  0.7818608E-02  0.9392448E-01
         -2   -1    0    0    0  501 -0.00000000000E+00  0.00000000000E+00  0.41560304336E+03  0.41560304336E+03  0.25500000000E-02 0. -1.
          2   -1    0    0  501    0  0.00000000000E+00 -0.00000000000E+00 -0.51691476612E+03  0.51691476612E+03  0.25500000000E-02 0.  1.
   -5000001    1    1    2    0    0 -0.33676687218E+03 -0.10690325096E+03 -0.21744759277E+03  0.48437969287E+03  0.25000000000E+03 0.  0.
    5000001    1    1    2    0    0  0.33676687218E+03  0.10690325096E+03  0.11613587001E+03  0.44813811662E+03  0.25000000000E+03 0.  0.
<mgrwt>
<rscale>  0 0.92699806E+03</rscale>
<asrwt>0</asrwt>
<pdfrwt beam="1">  1        2 0.79525349E-01 0.92699806E+03</pdfrwt>
<pdfrwt beam="2">  1       -2 0.63938930E-01 0.92699806E+03</pdfrwt>
<totfact> 0.13433528E+02</totfact>
</mgrwt>
</event>
<event>
 4    1  0.1773996E-005  0.1107916E+04  0.7818608E-02  0.9197510E-01
         -2   -1    0    0    0  501 -0.00000000000E+00  0.00000000000E+00  0.23477470635E+03  0.23477470636E+03  0.25500000000E-02 0. -1.
          2   -1    0    0  501    0  0.00000000000E+00 -0.00000000000E+00 -0.13070808216E+04  0.13070808216E+04  0.25500000000E-02 0.  1.
   -5000001    1    1    2    0    0  0.23442882231E+03  0.40574124932E+03 -0.31705122542E+03  0.61855017069E+03  0.25000000000E+03 0.  0.
    5000001    1    1    2    0    0 -0.23442882231E+03 -0.40574124932E+03 -0.75525488979E+03  0.92330535722E+03  0.25000000000E+03 0.  0.
<mgrwt>
<rscale>  0 0.11079161E+04</rscale>
<asrwt>0</asrwt>
<pdfrwt beam="1">  1        2 0.20108935E+00 0.11079161E+04</pdfrwt>
<pdfrwt beam="2">  1       -2 0.36119186E-01 0.11079161E+04</pdfrwt>
<totfact> 0.11708064E+02</totfact>
</mgrwt>
</event>
<event>
 4    1  0.1773996E-005  0.7710072E+03  0.7818608E-02  0.9602958E-01
          2   -1    0    0  501    0  0.00000000000E+00  0.00000000000E+00  0.92806397148E+03  0.92806397148E+03  0.25500000000E-02 0.  1.
         -2   -1    0    0    0  501 -0.00000000000E+00 -0.00000000000E+00 -0.16013229273E+03  0.16013229275E+03  0.25500000000E-02 0. -1.
   -5000001    1    1    2    0    0  0.14114109652E+03 -0.21294340116E+03  0.58775159929E+03  0.68790816516E+03  0.25000000000E+03 0.  0.
    5000001    1    1    2    0    0 -0.14114109652E+03  0.21294340116E+03  0.18018007946E+03  0.40028809908E+03  0.25000000000E+03 0.  0.
<mgrwt>
<rscale>  0 0.77100716E+03</rscale>
<asrwt>0</asrwt>
<pdfrwt beam="1">  1        2 0.14277907E+00 0.77100716E+03</pdfrwt>
<pdfrwt beam="2">  1       -2 0.24635737E-01 0.77100716E+03</pdfrwt>
<totfact> 0.41540100E+02</totfact>
</mgrwt>
</event>
<event>
 4    1  0.1773996E-005  0.9136727E+03  0.7818608E-02  0.9408649E-01
         -2   -1    0    0    0  501 -0.00000000000E+00  0.00000000000E+00  0.81643812405E+02  0.81643812444E+02  0.25500000000E-02 0. -1.
          2   -1    0    0  501    0  0.00000000000E+00 -0.00000000000E+00 -0.25562190549E+04  0.25562190549E+04  0.25500000000E-02 0.  1.
   -5000001    1    1    2    0    0  0.36412549016E+03  0.43708191267E+02 -0.92497765040E+03  0.10259539133E+04  0.25000000000E+03 0.  0.
    5000001    1    1    2    0    0 -0.36412549016E+03 -0.43708191267E+02 -0.15495975921E+04  0.16119089540E+04  0.25000000000E+03 0.  0.
<mgrwt>
<rscale>  0 0.91367274E+03</rscale>
<asrwt>0</asrwt>
<pdfrwt beam="1">  1        2 0.39326441E+00 0.91367274E+03</pdfrwt>
<pdfrwt beam="2">  1       -2 0.12560588E-01 0.91367274E+03</pdfrwt>
<totfact> 0.15584718E+02</totfact>
</mgrwt>
</event>
<event>
 4    1  0.1773996E-005  0.1219429E+04  0.7818608E-02  0.9096018E-01
          2   -1    0    0  501    0  0.00000000000E+00  0.00000000000E+00  0.99017151056E+03  0.99017151056E+03  0.25500000000E-02 0.  1.
         -2   -1    0    0    0  501 -0.00000000000E+00 -0.00000000000E+00 -0.37544192543E+03  0.37544192543E+03  0.25500000000E-02 0. -1.
   -5000001    1    1    2    0    0 -0.50637392437E+03 -0.11963142938E+03  0.87555383763E+02  0.58385972237E+03  0.25000000000E+03 0.  0.
    5000001    1    1    2    0    0  0.50637392437E+03  0.11963142938E+03  0.52717420137E+03  0.78175371363E+03  0.25000000000E+03 0.  0.
<mgrwt>
<rscale>  0 0.12194292E+04</rscale>
<asrwt>0</asrwt>
<pdfrwt beam="1">  1        2 0.15233408E+00 0.12194292E+04</pdfrwt>
<pdfrwt beam="2">  1       -2 0.57760297E-01 0.12194292E+04</pdfrwt>
<totfact> 0.70691273E+01</totfact>
</mgrwt>
</event>
<event>
 4    1  0.1773996E-005  0.9225727E+03  0.7818608E-02  0.9397796E-01
          2   -1    0    0  501    0  0.00000000000E+00  0.00000000000E+00  0.66198732147E+03  0.66198732148E+03  0.25500000000E-02 0.  1.
         -2   -1    0    0    0  501 -0.00000000000E+00 -0.00000000000E+00 -0.32143381714E+03  0.32143381715E+03  0.25500000000E-02 0. -1.
   -5000001    1    1    2    0    0 -0.14478467183E+03 -0.24166870395E+03  0.45414672401E+03  0.59001322917E+03  0.25000000000E+03 0.  0.
    5000001    1    1    2    0    0  0.14478467183E+03  0.24166870395E+03 -0.11359321968E+03  0.39340790946E+03  0.25000000000E+03 0.  0.
<mgrwt>
<rscale>  0 0.92257273E+03</rscale>
<asrwt>0</asrwt>
<pdfrwt beam="1">  1        2 0.10184420E+00 0.92257273E+03</pdfrwt>
<pdfrwt beam="2">  1       -2 0.49451357E-01 0.92257273E+03</pdfrwt>
<totfact> 0.17049934E+02</totfact>
</mgrwt>
</event>
<event>
 4    1  0.1773996E-005  0.9182888E+03  0.7818608E-02  0.9403004E-01
         -2   -1    0    0    0  501 -0.00000000000E+00  0.00000000000E+00  0.27557252676E+03  0.27557252677E+03  0.25500000000E-02 0. -1.
          2   -1    0    0  501    0  0.00000000000E+00 -0.00000000000E+00 -0.76500212811E+03  0.76500212812E+03  0.25500000000E-02 0.  1.
   -5000001    1    1    2    0    0  0.26219854058E+03  0.16340749737E+03  0.15823670550E+02  0.39774423117E+03  0.25000000000E+03 0.  0.
    5000001    1    1    2    0    0 -0.26219854058E+03 -0.16340749737E+03 -0.50525327191E+03  0.64283042371E+03  0.25000000000E+03 0.  0.
<mgrwt>
<rscale>  0 0.91828878E+03</rscale>
<asrwt>0</asrwt>
<pdfrwt beam="1">  1        2 0.11769263E+00 0.91828878E+03</pdfrwt>
<pdfrwt beam="2">  1       -2 0.42395774E-01 0.91828878E+03</pdfrwt>
<totfact> 0.19305580E+02</totfact>
</mgrwt>
</event>
<event>
 4    1  0.1773996E-005  0.7466599E+03  0.7818608E-02  0.9640605E-01
          2   -1    0    0  501    0  0.00000000000E+00  0.00000000000E+00  0.13660672984E+04  0.13660672984E+04  0.25500000000E-02 0.  1.
         -2   -1    0    0    0  501 -0.00000000000E+00 -0.00000000000E+00 -0.10202662855E+03  0.10202662858E+03  0.25500000000E-02 0. -1.
   -5000001    1    1    2    0    0 -0.14421037620E+03  0.26618169309E+02  0.10946874281E+04  0.11324070490E+04  0.25000000000E+03 0.  0.
    5000001    1    1    2    0    0  0.14421037620E+03 -0.26618169309E+02  0.16935324183E+03  0.33568687800E+03  0.25000000000E+03 0.  0.
<mgrwt>
<rscale>  0 0.74665987E+03</rscale>
<asrwt>0</asrwt>
<pdfrwt beam="1">  1        2 0.21016417E+00 0.74665987E+03</pdfrwt>
<pdfrwt beam="2">  1       -2 0.15696407E-01 0.74665987E+03</pdfrwt>
<totfact> 0.49598609E+02</totfact>
</mgrwt>
</event>
<event>
 4    1  0.1773996E-005  0.6616003E+03  0.7818608E-02  0.9785252E-01
          2   -1    0    0  501    0  0.00000000000E+00  0.00000000000E+00  0.81358941336E+03  0.81358941336E+03  0.25500000000E-02 0.  1.
         -2   -1    0    0    0  501 -0.00000000000E+00 -0.00000000000E+00 -0.13450116966E+03  0.13450116968E+03  0.25500000000E-02 0. -1.
   -5000001    1    1    2    0    0 -0.42503161817E+02 -0.16853026536E+03  0.15424679076E+03  0.34132248910E+03  0.25000000000E+03 0.  0.
    5000001    1    1    2    0    0  0.42503161817E+02  0.16853026536E+03  0.52484145294E+03  0.60676809394E+03  0.25000000000E+03 0.  0.
<mgrwt>
<rscale>  0 0.66160027E+03</rscale>
<asrwt>0</asrwt>
<pdfrwt beam="1">  1        2 0.12516760E+00 0.66160027E+03</pdfrwt>
<pdfrwt beam="2">  1       -2 0.20692487E-01 0.66160027E+03</pdfrwt>
<totfact> 0.68096595E+02</totfact>
</mgrwt>
</event>
<event>
 4    1  0.1773996E-005  0.6878535E+03  0.7818608E-02  0.9738233E-01
          2   -1    0    0  501    0  0.00000000000E+00  0.00000000000E+00  0.20092890150E+04  0.20092890150E+04  0.25500000000E-02 0.  1.
         -2   -1    0    0    0  501 -0.00000000000E+00 -0.00000000000E+00 -0.58869392058E+02  0.58869392113E+02  0.25500000000E-02 0. -1.
   -5000001    1    1    2    0    0  0.18871377777E+03 -0.12080673828E+03  0.75064320502E+03  0.82229701397E+03  0.25000000000E+03 0.  0.
    5000001    1    1    2    0    0 -0.18871377777E+03  0.12080673828E+03  0.11997764179E+04  0.12458613931E+04  0.25000000000E+03 0.  0.
<mgrwt>
<rscale>  0 0.68785354E+03</rscale>
<asrwt>0</asrwt>
<pdfrwt beam="1">  1        2 0.30912143E+00 0.68785354E+03</pdfrwt>
<pdfrwt beam="2">  1       -2 0.90568282E-02 0.68785354E+03</pdfrwt>
<totfact> 0.54719214E+02</totfact>
</mgrwt>
</event>
<event>
 4    1  0.1773996E-005  0.6564234E+03  0.7818608E-02  0.9794800E-01
          2   -1    0    0  501    0  0.00000000000E+00  0.00000000000E+00  0.36878498541E+04  0.36878498541E+04  0.25500000000E-02 0. -1.
         -2   -1    0    0    0  501 -0.00000000000E+00 -0.00000000000E+00 -0.29210220309E+02  0.29210220421E+02  0.25500000000E-02 0.  1.
   -5000001    1    1    2    0    0  0.12913828066E+03 -0.13757885474E+03  0.12739733197E+04  0.13119118325E+04  0.25000000000E+03 0.  0.
    5000001    1    1    2    0    0 -0.12913828066E+03  0.13757885474E+03  0.23846663141E+04  0.24051482421E+04  0.25000000000E+03 0.  0.
<mgrwt>
<rscale>  0 0.65642336E+03</rscale>
<asrwt>0</asrwt>
<pdfrwt beam="1">  1        2 0.56736118E+00 0.65642336E+03</pdfrwt>
<pdfrwt beam="2">  1       -2 0.44938827E-02 0.65642336E+03</pdfrwt>
<totfact> 0.15971840E+02</totfact>
</mgrwt>
</event>
<event>
 4    1  0.1773996E-005  0.9403746E+03  0.7818608E-02  0.9376472E-01
         -2   -1    0    0    0  501 -0.00000000000E+00  0.00000000000E+00  0.44292221862E+03  0.44292221863E+03  0.25500000000E-02 0. -1.
          2   -1    0    0  501    0  0.00000000000E+00 -0.00000000000E+00 -0.49913072518E+03  0.49913072519E+03  0.25500000000E-02 0.  1.
   -5000001    1    1    2    0    0  0.16655719287E+02 -0.12206693297E+03 -0.40745984522E+03  0.49366109283E+03  0.25000000000E+03 0.  0.
    5000001    1    1    2    0    0 -0.16655719287E+02  0.12206693297E+03  0.35125133867E+03  0.44839185098E+03  0.25000000000E+03 0.  0.
<mgrwt>
<rscale>  0 0.94037458E+03</rscale>
<asrwt>0</asrwt>
<pdfrwt beam="1">  1        2 0.76789342E-01 0.94037458E+03</pdfrwt>
<pdfrwt beam="2">  1       -2 0.68141880E-01 0.94037458E+03</pdfrwt>
<totfact> 0.12189879E+02</totfact>
</mgrwt>
</event>
<event>
 4    1  0.1773996E-005  0.8368586E+03  0.7818608E-02  0.9508147E-01
         -2   -1    0    0    0  501 -0.00000000000E+00  0.00000000000E+00  0.24459895035E+03  0.24459895036E+03  0.25500000000E-02 0. -1.
          2   -1    0    0  501    0  0.00000000000E+00 -0.00000000000E+00 -0.71579657228E+03  0.71579657228E+03  0.25500000000E-02 0.  1.
   -5000001    1    1    2    0    0  0.80209898050E+02 -0.32323694459E+03 -0.18873796399E+03  0.45720648415E+03  0.25000000000E+03 0.  0.
    5000001    1    1    2    0    0 -0.80209898050E+02  0.32323694459E+03 -0.28245965794E+03  0.50318903849E+03  0.25000000000E+03 0.  0.
<mgrwt>
<rscale>  0 0.83685863E+03</rscale>
<asrwt>0</asrwt>
<pdfrwt beam="1">  1        2 0.11012255E+00 0.83685863E+03</pdfrwt>
<pdfrwt beam="2">  1       -2 0.37630608E-01 0.83685863E+03</pdfrwt>
<totfact> 0.26648357E+02</totfact>
</mgrwt>
</event>
<event>
 4    1  0.1773996E-005  0.1079310E+04  0.7818608E-02  0.9225595E-01
          2   -1    0    0  501    0  0.00000000000E+00  0.00000000000E+00  0.19351184149E+04  0.19351184149E+04  0.25500000000E-02 0.  1.
         -2   -1    0    0    0  501 -0.00000000000E+00 -0.00000000000E+00 -0.15049606230E+03  0.15049606233E+03  0.25500000000E-02 0. -1.
   -5000001    1    1    2    0    0 -0.16847718834E+03 -0.36344415762E+02  0.17543731355E+04  0.17804579687E+04  0.25000000000E+03 0.  0.
    5000001    1    1    2    0    0  0.16847718834E+03  0.36344415762E+02  0.30249217011E+02  0.30515650850E+03  0.25000000000E+03 0.  0.
<mgrwt>
<rscale>  0 0.10793103E+04</rscale>
<asrwt>0</asrwt>
<pdfrwt beam="1">  1        2 0.29771050E+00 0.10793103E+04</pdfrwt>
<pdfrwt beam="2">  1       -2 0.23153242E-01 0.10793103E+04</pdfrwt>
<totfact> 0.11913356E+02</totfact>
</mgrwt>
</event>
<event>
 4    1  0.1773996E-005  0.6039646E+03  0.7818608E-02  0.9897215E-01
          2   -1    0    0  501    0  0.00000000000E+00  0.00000000000E+00  0.95053886653E+03  0.95053886653E+03  0.25500000000E-02 0.  1.
         -2   -1    0    0    0  501 -0.00000000000E+00 -0.00000000000E+00 -0.95938546408E+02  0.95938546442E+02  0.25500000000E-02 0. -1.
   -5000001    1    1    2    0    0 -0.16446736067E+03 -0.37737146713E+02  0.40161717774E+03  0.50226483295E+03  0.25000000000E+03 0.  0.
    5000001    1    1    2    0    0  0.16446736067E+03  0.37737146713E+02  0.45298314238E+03  0.54421258002E+03  0.25000000000E+03 0.  0.
<mgrwt>
<rscale>  0 0.60396463E+03</rscale>
<asrwt>0</asrwt>
<pdfrwt beam="1">  1        2 0.14623674E+00 0.60396463E+03</pdfrwt>
<pdfrwt beam="2">  1       -2 0.14759777E-01 0.60396463E+03</pdfrwt>
<totfact> 0.98382756E+02</totfact>
</mgrwt>
</event>
<event>
 4    1  0.1773996E-005  0.8404821E+03  0.7818608E-02  0.9503201E-01
          2   -1    0    0  501    0  0.00000000000E+00  0.00000000000E+00  0.73271615139E+03  0.73271615139E+03  0.25500000000E-02 0.  1.
         -2   -1    0    0    0  501 -0.00000000000E+00 -0.00000000000E+00 -0.24102448613E+03  0.24102448614E+03  0.25500000000E-02 0. -1.
   -5000001    1    1    2    0    0 -0.25954644656E+03 -0.21310887790E+03  0.20370928105E+03  0.46559340948E+03  0.25000000000E+03 0.  0.
    5000001    1    1    2    0    0  0.25954644656E+03  0.21310887790E+03  0.28798238422E+03  0.50814722806E+03  0.25000000000E+03 0.  0.
<mgrwt>
<rscale>  0 0.84048209E+03</rscale>
<asrwt>0</asrwt>
<pdfrwt beam="1">  1        2 0.11272556E+00 0.84048209E+03</pdfrwt>
<pdfrwt beam="2">  1       -2 0.37080690E-01 0.84048209E+03</pdfrwt>
<totfact> 0.26603750E+02</totfact>
</mgrwt>
</event>
<event>
 4    1  0.1773996E-005  0.5655056E+03  0.7818608E-02  0.9979674E-01
         -2   -1    0    0    0  501 -0.00000000000E+00  0.00000000000E+00  0.60428910284E+02  0.60428910338E+02  0.25500000000E-02 0. -1.
          2   -1    0    0  501    0  0.00000000000E+00 -0.00000000000E+00 -0.13230281764E+04  0.13230281764E+04  0.25500000000E-02 0.  1.
   -5000001    1    1    2    0    0  0.19310414361E+02 -0.10818146857E+03 -0.81062360574E+03  0.85538690219E+03  0.25000000000E+03 0.  0.
    5000001    1    1    2    0    0 -0.19310414361E+02  0.10818146857E+03 -0.45197566037E+03  0.52807018455E+03  0.25000000000E+03 0.  0.
<mgrwt>
<rscale>  0 0.56550562E+03</rscale>
<asrwt>0</asrwt>
<pdfrwt beam="1">  1        2 0.20354277E+00 0.56550562E+03</pdfrwt>
<pdfrwt beam="2">  1       -2 0.92967564E-02 0.56550562E+03</pdfrwt>
<totfact> 0.12568211E+03</totfact>
</mgrwt>
</event>
<event>
 4    1  0.1773996E-005  0.1511181E+04  0.7818608E-02  0.8877052E-01
         -2   -1    0    0    0  501 -0.00000000000E+00  0.00000000000E+00  0.18176507619E+03  0.18176507621E+03  0.25500000000E-02 0. -1.
          2   -1    0    0  501    0  0.00000000000E+00 -0.00000000000E+00 -0.31409595883E+04  0.31409595883E+04  0.25500000000E-02 0.  1.
   -5000001    1    1    2    0    0  0.62731120255E+03 -0.26343742462E+03 -0.10105951719E+04  0.12436724742E+04  0.25000000000E+03 0.  0.
    5000001    1    1    2    0    0 -0.62731120255E+03  0.26343742462E+03 -0.19485993402E+04  0.20790521903E+04  0.25000000000E+03 0.  0.
<mgrwt>
<rscale>  0 0.15111807E+04</rscale>
<asrwt>0</asrwt>
<pdfrwt beam="1">  1        2 0.48322451E+00 0.15111807E+04</pdfrwt>
<pdfrwt beam="2">  1       -2 0.27963860E-01 0.15111807E+04</pdfrwt>
<totfact> 0.16119021E+01</totfact>
</mgrwt>
</event>
<event>
 4    1  0.1773996E-005  0.5672727E+03  0.7818608E-02  0.9975732E-01
          2   -1    0    0  501    0  0.00000000000E+00  0.00000000000E+00  0.98085772953E+03  0.98085772954E+03  0.25500000000E-02 0.  1.
         -2   -1    0    0    0  501 -0.00000000000E+00 -0.00000000000E+00 -0.82019629238E+02  0.82019629277E+02  0.25500000000E-02 0. -1.
   -5000001    1    1    2    0    0  0.89307786538E+02  0.98349101723E+02  0.48193455208E+03  0.55893589886E+03  0.25000000000E+03 0.  0.
    5000001    1    1    2    0    0 -0.89307786538E+02 -0.98349101723E+02  0.41690354822E+03  0.50394145996E+03  0.25000000000E+03 0.  0.
<mgrwt>
<rscale>  0 0.56727273E+03</rscale>
<asrwt>0</asrwt>
<pdfrwt beam="1">  1        2 0.15090118E+00 0.56727273E+03</pdfrwt>
<pdfrwt beam="2">  1       -2 0.12618405E-01 0.56727273E+03</pdfrwt>
<totfact> 0.12226617E+03</totfact>
</mgrwt>
</event>
<event>
 4    1  0.1773996E-005  0.8755670E+03  0.7818608E-02  0.9456650E-01
          2   -1    0    0  501    0  0.00000000000E+00  0.00000000000E+00  0.51236303874E+04  0.51236303874E+04  0.25500000000E-02 0.  1.
         -2   -1    0    0    0  501 -0.00000000000E+00 -0.00000000000E+00 -0.37405975382E+02  0.37405975469E+02  0.25500000000E-02 0. -1.
   -5000001    1    1    2    0    0 -0.31556800567E+03 -0.13313073120E+03  0.19015190919E+04  0.19482252987E+04  0.25000000000E+03 0.  0.
    5000001    1    1    2    0    0  0.31556800567E+03  0.13313073120E+03  0.31847053202E+04  0.32128110642E+04  0.25000000000E+03 0.  0.
<mgrwt>
<rscale>  0 0.87556700E+03</rscale>
<asrwt>0</asrwt>
<pdfrwt beam="1">  1        2 0.78825058E+00 0.87556700E+03</pdfrwt>
<pdfrwt beam="2">  1       -2 0.57547673E-02 0.87556700E+03</pdfrwt>
<totfact> 0.45062042E+00</totfact>
</mgrwt>
</event>
<event>
 4    1  0.1773996E-005  0.1332350E+04  0.7818608E-02  0.9004298E-01
          2   -1    0    0  501    0  0.00000000000E+00  0.00000000000E+00  0.31335831751E+04  0.31335831751E+04  0.25500000000E-02 0.  1.
         -2   -1    0    0    0  501 -0.00000000000E+00 -0.00000000000E+00 -0.14162348739E+03  0.14162348741E+03  0.25500000000E-02 0. -1.
   -5000001    1    1    2    0    0  0.53549643937E+03  0.27332589265E+03  0.18421044710E+04  0.19537943500E+04  0.25000000000E+03 0.  0.
    5000001    1    1    2    0    0 -0.53549643937E+03 -0.27332589265E+03  0.11498552167E+04  0.13214123125E+04  0.25000000000E+03 0.  0.
<mgrwt>
<rscale>  0 0.13323498E+04</rscale>
<asrwt>0</asrwt>
<pdfrwt beam="1">  1        2 0.48208970E+00 0.13323498E+04</pdfrwt>
<pdfrwt beam="2">  1       -2 0.21788230E-01 0.13323498E+04</pdfrwt>
<totfact> 0.26055590E+01</totfact>
</mgrwt>
</event>
<event>
 4    1  0.1773996E-005  0.8900452E+03  0.7818608E-02  0.9438112E-01
          2   -1    0    0  501    0  0.00000000000E+00  0.00000000000E+00  0.25205613238E+04  0.25205613238E+04  0.25500000000E-02 0. -1.
         -2   -1    0    0    0  501 -0.00000000000E+00 -0.00000000000E+00 -0.78571830871E+02  0.78571830913E+02  0.25500000000E-02 0.  1.
   -5000001    1    1    2    0    0 -0.32101302141E+03  0.17657149123E+03  0.13270221426E+04  0.13991835542E+04  0.25000000000E+03 0.  0.
    5000001    1    1    2    0    0  0.32101302141E+03 -0.17657149123E+03  0.11149673503E+04  0.11999496005E+04  0.25000000000E+03 0.  0.
<mgrwt>
<rscale>  0 0.89004521E+03</rscale>
<asrwt>0</asrwt>
<pdfrwt beam="1">  1        2 0.38777869E+00 0.89004521E+03</pdfrwt>
<pdfrwt beam="2">  1       -2 0.12087973E-01 0.89004521E+03</pdfrwt>
<totfact> 0.17447285E+02</totfact>
</mgrwt>
</event>
<event>
 4    1  0.1773996E-005  0.6659742E+03  0.7818608E-02  0.9777258E-01
          2   -1    0    0  501    0  0.00000000000E+00  0.00000000000E+00  0.59497585494E+03  0.59497585495E+03  0.25500000000E-02 0.  1.
         -2   -1    0    0    0  501 -0.00000000000E+00 -0.00000000000E+00 -0.18636121590E+03  0.18636121592E+03  0.25500000000E-02 0. -1.
   -5000001    1    1    2    0    0  0.94379309039E+02 -0.19429036093E+03  0.25302403728E+03  0.41614584194E+03  0.25000000000E+03 0.  0.
    5000001    1    1    2    0    0 -0.94379309039E+02  0.19429036093E+03  0.15559060177E+03  0.36519122892E+03  0.25000000000E+03 0.  0.
<mgrwt>
<rscale>  0 0.66597425E+03</rscale>
<asrwt>0</asrwt>
<pdfrwt beam="1">  1        2 0.91534745E-01 0.66597425E+03</pdfrwt>
<pdfrwt beam="2">  1       -2 0.28670957E-01 0.66597425E+03</pdfrwt>
<totfact> 0.56222114E+02</totfact>
</mgrwt>
</event>
<event>
 4    1  0.1773996E-005  0.1439424E+04  0.7818608E-02  0.8925766E-01
          2   -1    0    0  501    0  0.00000000000E+00  0.00000000000E+00  0.23176764939E+04  0.23176764939E+04  0.25500000000E-02 0.  1.
         -2   -1    0    0    0  501 -0.00000000000E+00 -0.00000000000E+00 -0.22349337709E+03  0.22349337711E+03  0.25500000000E-02 0. -1.
   -5000001    1    1    2    0    0  0.46893596328E+03 -0.36241868214E+03  0.47711612002E+03  0.80086704939E+03  0.25000000000E+03 0.  0.
    5000001    1    1    2    0    0 -0.46893596328E+03  0.36241868214E+03  0.16170669968E+04  0.17403028217E+04  0.25000000000E+03 0.  0.
<mgrwt>
<rscale>  0 0.14394240E+04</rscale>
<asrwt>0</asrwt>
<pdfrwt beam="1">  1        2 0.35656564E+00 0.14394240E+04</pdfrwt>
<pdfrwt beam="2">  1       -2 0.34383594E-01 0.14394240E+04</pdfrwt>
<totfact> 0.34144516E+01</totfact>
</mgrwt>
</event>
<event>
 4    1  0.1773996E-005  0.1109742E+04  0.7818608E-02  0.9195749E-01
          2   -1    0    0  501    0  0.00000000000E+00  0.00000000000E+00  0.67504824780E+03  0.67504824780E+03  0.25500000000E-02 0.  1.
         -2   -1    0    0    0  501 -0.00000000000E+00 -0.00000000000E+00 -0.45608830474E+03  0.45608830475E+03  0.25500000000E-02 0. -1.
   -5000001    1    1    2    0    0 -0.33123572953E+03 -0.32554729221E+03 -0.66130516148E+02  0.53157444742E+03  0.25000000000E+03 0.  0.
    5000001    1    1    2    0    0  0.33123572953E+03  0.32554729221E+03  0.28509045920E+03  0.59956210513E+03  0.25000000000E+03 0.  0.
<mgrwt>
<rscale>  0 0.11097416E+04</rscale>
<asrwt>0</asrwt>
<pdfrwt beam="1">  1        2 0.10385358E+00 0.11097416E+04</pdfrwt>
<pdfrwt beam="2">  1       -2 0.70167432E-01 0.11097416E+04</pdfrwt>
<totfact> 0.78753643E+01</totfact>
</mgrwt>
</event>
<event>
 4    1  0.1773996E-005  0.8202060E+03  0.7818608E-02  0.9531222E-01
          2   -1    0    0  501    0  0.00000000000E+00  0.00000000000E+00  0.53466485235E+03  0.53466485236E+03  0.25500000000E-02 0.  1.
         -2   -1    0    0    0  501 -0.00000000000E+00 -0.00000000000E+00 -0.31456052748E+03  0.31456052749E+03  0.25500000000E-02 0. -1.
   -5000001    1    1    2    0    0  0.30800683387E+02  0.26514103962E+03  0.30218713399E+03  0.47441070492E+03  0.25000000000E+03 0.  0.
    5000001    1    1    2    0    0 -0.30800683387E+02 -0.26514103962E+03 -0.82082809123E+02  0.37481467493E+03  0.25000000000E+03 0.  0.
<mgrwt>
<rscale>  0 0.82020597E+03</rscale>
<asrwt>0</asrwt>
<pdfrwt beam="1">  1        2 0.82256131E-01 0.82020597E+03</pdfrwt>
<pdfrwt beam="2">  1       -2 0.48393927E-01 0.82020597E+03</pdfrwt>
<totfact> 0.23168022E+02</totfact>
</mgrwt>
</event>
<event>
 4    1  0.1773996E-005  0.6616443E+03  0.7818608E-02  0.9785171E-01
          2   -1    0    0  501    0  0.00000000000E+00  0.00000000000E+00  0.23791572458E+03  0.23791572459E+03  0.25500000000E-02 0. -1.
         -2   -1    0    0    0  501 -0.00000000000E+00 -0.00000000000E+00 -0.46000869149E+03  0.46000869150E+03  0.25500000000E-02 0.  1.
   -5000001    1    1    2    0    0  0.51160925716E+02 -0.15091989020E+03 -0.26589171796E+03  0.39823693859E+03  0.25000000000E+03 0.  0.
    5000001    1    1    2    0    0 -0.51160925716E+02  0.15091989020E+03  0.43798751048E+02  0.29968747750E+03  0.25000000000E+03 0.  0.
<mgrwt>
<rscale>  0 0.66164432E+03</rscale>
<asrwt>0</asrwt>
<pdfrwt beam="1">  1        2 0.36602419E-01 0.66164432E+03</pdfrwt>
<pdfrwt beam="2">  1       -2 0.70770568E-01 0.66164432E+03</pdfrwt>
<totfact> 0.26082802E+02</totfact>
</mgrwt>
</event>
<event>
 4    1  0.1773996E-005  0.5815509E+03  0.7818608E-02  0.9944439E-01
         -2   -1    0    0    0  501 -0.00000000000E+00  0.00000000000E+00  0.94644566162E+02  0.94644566197E+02  0.25500000000E-02 0. -1.
          2   -1    0    0  501    0  0.00000000000E+00 -0.00000000000E+00 -0.89334607248E+03  0.89334607249E+03  0.25500000000E-02 0.  1.
   -5000001    1    1    2    0    0 -0.62178540254E+02 -0.10409618411E+03 -0.25371950319E+03  0.37626556142E+03  0.25000000000E+03 0.  0.
    5000001    1    1    2    0    0  0.62178540254E+02  0.10409618411E+03 -0.54498200314E+03  0.61172507726E+03  0.25000000000E+03 0.  0.
<mgrwt>
<rscale>  0 0.58155086E+03</rscale>
<asrwt>0</asrwt>
<pdfrwt beam="1">  1        2 0.13743785E+00 0.58155086E+03</pdfrwt>
<pdfrwt beam="2">  1       -2 0.14560703E-01 0.58155086E+03</pdfrwt>
<totfact> 0.10983751E+03</totfact>
</mgrwt>
</event>
<event>
 4    1  0.1773996E-005  0.1103615E+04  0.7818608E-02  0.9201676E-01
          2   -1    0    0  501    0  0.00000000000E+00  0.00000000000E+00  0.46459226535E+03  0.46459226535E+03  0.25500000000E-02 0.  1.
         -2   -1    0    0    0  501 -0.00000000000E+00 -0.00000000000E+00 -0.65539475916E+03  0.65539475917E+03  0.25500000000E-02 0. -1.
   -5000001    1    1    2    0    0 -0.35982196949E+03 -0.22257257653E+03 -0.35008431634E+03  0.60338166205E+03  0.25000000000E+03 0.  0.
    5000001    1    1    2    0    0  0.35982196949E+03  0.22257257653E+03  0.15928182252E+03  0.51660536247E+03  0.25000000000E+03 0.  0.
<mgrwt>
<rscale>  0 0.11036147E+04</rscale>
<asrwt>0</asrwt>
<pdfrwt beam="1">  1        2 0.71475734E-01 0.11036147E+04</pdfrwt>
<pdfrwt beam="2">  1       -2 0.10082996E+00 0.11036147E+04</pdfrwt>
<totfact> 0.53915131E+01</totfact>
</mgrwt>
</event>
<event>
 4    1  0.1773996E-005  0.6348314E+03  0.7818608E-02  0.9835666E-01
          2   -1    0    0  501    0  0.00000000000E+00  0.00000000000E+00  0.24244744839E+04  0.24244744839E+04  0.25500000000E-02 0.  1.
         -2   -1    0    0    0  501 -0.00000000000E+00 -0.00000000000E+00 -0.41556519701E+02  0.41556519780E+02  0.25500000000E-02 0. -1.
   -5000001    1    1    2    0    0  0.53280448941E+02 -0.10173824041E+03  0.18064358795E+04  0.18272657340E+04  0.25000000000E+03 0.  0.
    5000001    1    1    2    0    0 -0.53280448941E+02  0.10173824041E+03  0.57648208463E+03  0.63876526965E+03  0.25000000000E+03 0.  0.
<mgrwt>
<rscale>  0 0.63483138E+03</rscale>
<asrwt>0</asrwt>
<pdfrwt beam="1">  1        2 0.37299608E+00 0.63483138E+03</pdfrwt>
<pdfrwt beam="2">  1       -2 0.63933107E-02 0.63483138E+03</pdfrwt>
<totfact> 0.56538292E+02</totfact>
</mgrwt>
</event>
<event>
 4    1  0.1773996E-005  0.8038828E+03  0.7818608E-02  0.9554414E-01
          2   -1    0    0  501    0  0.00000000000E+00  0.00000000000E+00  0.56425480342E+03  0.56425480342E+03  0.25500000000E-02 0.  1.
         -2   -1    0    0    0  501 -0.00000000000E+00 -0.00000000000E+00 -0.28631905637E+03  0.28631905638E+03  0.25500000000E-02 0. -1.
   -5000001    1    1    2    0    0 -0.20034082974E+03  0.22640283546E+03  0.46349675375E+02  0.39502276437E+03  0.25000000000E+03 0.  0.
    5000001    1    1    2    0    0  0.20034082974E+03 -0.22640283546E+03  0.23158607167E+03  0.45555109544E+03  0.25000000000E+03 0.  0.
<mgrwt>
<rscale>  0 0.80388283E+03</rscale>
<asrwt>0</asrwt>
<pdfrwt beam="1">  1        2 0.86808430E-01 0.80388283E+03</pdfrwt>
<pdfrwt beam="2">  1       -2 0.44049086E-01 0.80388283E+03</pdfrwt>
<totfact> 0.26264571E+02</totfact>
</mgrwt>
</event>
<event>
 4    1  0.1773996E-005  0.5930738E+03  0.7818608E-02  0.9919881E-01
          2   -1    0    0  501    0  0.00000000000E+00  0.00000000000E+00  0.25340519288E+04  0.25340519288E+04  0.25500000000E-02 0.  1.
         -2   -1    0    0    0  501 -0.00000000000E+00 -0.00000000000E+00 -0.34700997826E+02  0.34700997920E+02  0.25500000000E-02 0. -1.
   -5000001    1    1    2    0    0  0.25748321085E+02  0.15330903418E+03  0.14038762770E+04  0.14344111116E+04  0.25000000000E+03 0.  0.
    5000001    1    1    2    0    0 -0.25748321085E+02 -0.15330903418E+03  0.10954746539E+04  0.11343418151E+04  0.25000000000E+03 0.  0.
<mgrwt>
<rscale>  0 0.59307379E+03</rscale>
<asrwt>0</asrwt>
<pdfrwt beam="1">  1        2 0.38985423E+00 0.59307379E+03</pdfrwt>
<pdfrwt beam="2">  1       -2 0.53386139E-02 0.59307379E+03</pdfrwt>
<totfact> 0.65291699E+02</totfact>
</mgrwt>
</event>
<event>
 4    1  0.1773996E-005  0.7624277E+03  0.7818608E-02  0.9616052E-01
         -2   -1    0    0    0  501 -0.00000000000E+00  0.00000000000E+00  0.48344691635E+02  0.48344691703E+02  0.25500000000E-02 0. -1.
          2   -1    0    0  501    0  0.00000000000E+00 -0.00000000000E+00 -0.30059973520E+04  0.30059973520E+04  0.25500000000E-02 0.  1.
   -5000001    1    1    2    0    0 -0.92006554051E+02 -0.27063386840E+03 -0.13449899690E+04  0.13975714341E+04  0.25000000000E+03 0.  0.
    5000001    1    1    2    0    0  0.92006554051E+02  0.27063386840E+03 -0.16126626914E+04  0.16567706096E+04  0.25000000000E+03 0.  0.
<mgrwt>
<rscale>  0 0.76242774E+03</rscale>
<asrwt>0</asrwt>
<pdfrwt beam="1">  1        2 0.46246098E+00 0.76242774E+03</pdfrwt>
<pdfrwt beam="2">  1       -2 0.74376472E-02 0.76242774E+03</pdfrwt>
<totfact> 0.20112334E+02</totfact>
</mgrwt>
</event>
<event>
 4    1  0.1773996E-005  0.1182153E+04  0.7818608E-02  0.9128623E-01
         -2   -1    0    0    0  501 -0.00000000000E+00  0.00000000000E+00  0.26276668364E+03  0.26276668366E+03  0.25500000000E-02 0. -1.
          2   -1    0    0  501    0  0.00000000000E+00 -0.00000000000E+00 -0.13295888043E+04  0.13295888043E+04  0.25500000000E-02 0.  1.
   -5000001    1    1    2    0    0 -0.43220472130E+03 -0.12559052436E+03 -0.92449877526E+03  0.10581927454E+04  0.25000000000E+03 0.  0.
    5000001    1    1    2    0    0  0.43220472130E+03  0.12559052436E+03 -0.14232334542E+03  0.53416274259E+03  0.25000000000E+03 0.  0.
<mgrwt>
<rscale>  0 0.11821534E+04</rscale>
<asrwt>0</asrwt>
<pdfrwt beam="1">  1        2 0.20455212E+00 0.11821534E+04</pdfrwt>
<pdfrwt beam="2">  1       -2 0.40425645E-01 0.11821534E+04</pdfrwt>
<totfact> 0.90863179E+01</totfact>
</mgrwt>
</event>
<event>
 4    1  0.1773996E-005  0.7770246E+03  0.7818608E-02  0.9593882E-01
          2   -1    0    0  501    0  0.00000000000E+00  0.00000000000E+00  0.39890374783E+04  0.39890374783E+04  0.25500000000E-02 0.  1.
         -2   -1    0    0    0  501 -0.00000000000E+00 -0.00000000000E+00 -0.37839157511E+02  0.37839157596E+02  0.25500000000E-02 0. -1.
   -5000001    1    1    2    0    0  0.22351106831E+03 -0.19614008758E+03  0.19947713671E+04  0.20322502155E+04  0.25000000000E+03 0.  0.
    5000001    1    1    2    0    0 -0.22351106831E+03  0.19614008758E+03  0.19564269537E+04  0.19946264204E+04  0.25000000000E+03 0.  0.
<mgrwt>
<rscale>  0 0.77702463E+03</rscale>
<asrwt>0</asrwt>
<pdfrwt beam="1">  1        2 0.61369805E+00 0.77702463E+03</pdfrwt>
<pdfrwt beam="2">  1       -2 0.58214091E-02 0.77702463E+03</pdfrwt>
<totfact> 0.62330305E+01</totfact>
</mgrwt>
</event>
<event>
 4    1  0.1773996E-005  0.1047397E+04  0.7818608E-02  0.9258036E-01
          2   -1    0    0  501    0  0.00000000000E+00  0.00000000000E+00  0.48368432094E+03  0.48368432094E+03  0.25500000000E-02 0.  1.
         -2   -1    0    0    0  501 -0.00000000000E+00 -0.00000000000E+00 -0.56702246005E+03  0.56702246005E+03  0.25500000000E-02 0. -1.
   -5000001    1    1    2    0    0  0.32991978725E+03 -0.30782493614E+03  0.48930350584E+02  0.51816738274E+03  0.25000000000E+03 0.  0.
    5000001    1    1    2    0    0 -0.32991978725E+03  0.30782493614E+03 -0.13226848969E+03  0.53253939826E+03  0.25000000000E+03 0.  0.
<mgrwt>
<rscale>  0 0.10473965E+04</rscale>
<asrwt>0</asrwt>
<pdfrwt beam="1">  1        2 0.74412973E-01 0.10473965E+04</pdfrwt>
<pdfrwt beam="2">  1       -2 0.87234224E-01 0.10473965E+04</pdfrwt>
<totfact> 0.72413090E+01</totfact>
</mgrwt>
</event>
<event>
 4    1  0.1773996E-005  0.8864563E+03  0.7818608E-02  0.9442672E-01
          2   -1    0    0  501    0  0.00000000000E+00  0.00000000000E+00  0.67990928022E+03  0.67990928022E+03  0.25500000000E-02 0.  1.
         -2   -1    0    0    0  501 -0.00000000000E+00 -0.00000000000E+00 -0.28893737201E+03  0.28893737202E+03  0.25500000000E-02 0. -1.
   -5000001    1    1    2    0    0  0.36580695048E+03  0.10704598433E+02  0.20059915299E+03  0.48648672503E+03  0.25000000000E+03 0.  0.
    5000001    1    1    2    0    0 -0.36580695048E+03 -0.10704598433E+02  0.19037275523E+03  0.48235992721E+03  0.25000000000E+03 0.  0.
<mgrwt>
<rscale>  0 0.88645632E+03</rscale>
<asrwt>0</asrwt>
<pdfrwt beam="1">  1        2 0.10460143E+00 0.88645632E+03</pdfrwt>
<pdfrwt beam="2">  1       -2 0.44451904E-01 0.88645632E+03</pdfrwt>
<totfact> 0.20470114E+02</totfact>
</mgrwt>
</event>
<event>
 4    1  0.1773996E-005  0.8579710E+03  0.7818608E-02  0.9479701E-01
          2   -1    0    0  501    0  0.00000000000E+00  0.00000000000E+00  0.63733514296E+03  0.63733514296E+03  0.25500000000E-02 0.  1.
         -2   -1    0    0    0  501 -0.00000000000E+00 -0.00000000000E+00 -0.28874689556E+03  0.28874689557E+03  0.25500000000E-02 0. -1.
   -5000001    1    1    2    0    0  0.22577753950E+03 -0.26500827354E+03  0.19371292625E+03  0.47035048653E+03  0.25000000000E+03 0.  0.
    5000001    1    1    2    0    0 -0.22577753950E+03  0.26500827354E+03  0.15487532115E+03  0.45573155200E+03  0.25000000000E+03 0.  0.
<mgrwt>
<rscale>  0 0.85797096E+03</rscale>
<asrwt>0</asrwt>
<pdfrwt beam="1">  1        2 0.98051559E-01 0.85797096E+03</pdfrwt>
<pdfrwt beam="2">  1       -2 0.44422600E-01 0.85797096E+03</pdfrwt>
<totfact> 0.22239929E+02</totfact>
</mgrwt>
</event>
<event>
 4    1  0.1773996E-005  0.6186943E+03  0.7818608E-02  0.9867363E-01
          2   -1    0    0  501    0  0.00000000000E+00  0.00000000000E+00  0.87855983468E+02  0.87855983505E+02  0.25500000000E-02 0.  1.
         -2   -1    0    0    0  501 -0.00000000000E+00 -0.00000000000E+00 -0.10892332998E+04  0.10892332998E+04  0.25500000000E-02 0. -1.
   -5000001    1    1    2    0    0 -0.23491038444E+02 -0.14688919067E+03 -0.70083888089E+03  0.75881710589E+03  0.25000000000E+03 0.  0.
    5000001    1    1    2    0    0  0.23491038444E+02  0.14688919067E+03 -0.30053843544E+03  0.41827217742E+03  0.25000000000E+03 0.  0.
<mgrwt>
<rscale>  0 0.61869431E+03</rscale>
<asrwt>0</asrwt>
<pdfrwt beam="1">  1        2 0.13516306E-01 0.61869431E+03</pdfrwt>
<pdfrwt beam="2">  1       -2 0.16757434E+00 0.61869431E+03</pdfrwt>
<totfact> 0.10293708E+02</totfact>
</mgrwt>
</event>
<event>
 4    1  0.1773996E-005  0.7655711E+03  0.7818608E-02  0.9611234E-01
          2   -1    0    0  501    0  0.00000000000E+00  0.00000000000E+00  0.51454095596E+03  0.51454095596E+03  0.25500000000E-02 0.  1.
         -2   -1    0    0    0  501 -0.00000000000E+00 -0.00000000000E+00 -0.28476794971E+03  0.28476794972E+03  0.25500000000E-02 0. -1.
   -5000001    1    1    2    0    0  0.58334173937E+02  0.27039985319E+03  0.24432435307E+02  0.37365211139E+03  0.25000000000E+03 0.  0.
    5000001    1    1    2    0    0 -0.58334173937E+02 -0.27039985319E+03  0.20534057094E+03  0.42565679429E+03  0.25000000000E+03 0.  0.
<mgrwt>
<rscale>  0 0.76557109E+03</rscale>
<asrwt>0</asrwt>
<pdfrwt beam="1">  1        2 0.79160147E-01 0.76557109E+03</pdfrwt>
<pdfrwt beam="2">  1       -2 0.43810454E-01 0.76557109E+03</pdfrwt>
<totfact> 0.29639620E+02</totfact>
</mgrwt>
</event>
<event>
 4    1  0.1773996E-005  0.5618330E+03  0.7818608E-02  0.9987916E-01
         -2   -1    0    0    0  501 -0.00000000000E+00  0.00000000000E+00  0.72155430088E+02  0.72155430133E+02  0.25500000000E-02 0.  1.
          2   -1    0    0  501    0  0.00000000000E+00 -0.00000000000E+00 -0.10936680895E+04  0.10936680895E+04  0.25500000000E-02 0. -1.
   -5000001    1    1    2    0    0  0.10450716449E+03 -0.40775825903E+02 -0.63916860846E+03  0.69542859119E+03  0.25000000000E+03 0.  0.
    5000001    1    1    2    0    0 -0.10450716449E+03  0.40775825903E+02 -0.38234405095E+03  0.47039492844E+03  0.25000000000E+03 0.  0.
<mgrwt>
<rscale>  0 0.56183304E+03</rscale>
<asrwt>0</asrwt>
<pdfrwt beam="1">  1        2 0.16825662E+00 0.56183304E+03</pdfrwt>
<pdfrwt beam="2">  1       -2 0.11100836E-01 0.56183304E+03</pdfrwt>
<totfact> 0.12843405E+03</totfact>
</mgrwt>
</event>
<event>
 4    1  0.1773996E-005  0.6993449E+03  0.7818608E-02  0.9718353E-01
         -2   -1    0    0    0  501 -0.00000000000E+00  0.00000000000E+00  0.17119476894E+03  0.17119476896E+03  0.25500000000E-02 0. -1.
          2   -1    0    0  501    0  0.00000000000E+00 -0.00000000000E+00 -0.71422063373E+03  0.71422063373E+03  0.25500000000E-02 0.  1.
   -5000001    1    1    2    0    0 -0.19598380517E+03  0.14167551222E+03 -0.22605376633E+03  0.41482756408E+03  0.25000000000E+03 0.  0.
    5000001    1    1    2    0    0  0.19598380517E+03 -0.14167551222E+03 -0.31697209845E+03  0.47058783861E+03  0.25000000000E+03 0.  0.
<mgrwt>
<rscale>  0 0.69934494E+03</rscale>
<asrwt>0</asrwt>
<pdfrwt beam="1">  1        2 0.10988010E+00 0.69934494E+03</pdfrwt>
<pdfrwt beam="2">  1       -2 0.26337657E-01 0.69934494E+03</pdfrwt>
<totfact> 0.52373947E+02</totfact>
</mgrwt>
</event>
<event>
 4    1  0.1773996E-005  0.8969702E+03  0.7818608E-02  0.9429377E-01
          2   -1    0    0  501    0  0.00000000000E+00  0.00000000000E+00  0.27559962185E+03  0.27559962186E+03  0.25500000000E-02 0.  1.
         -2   -1    0    0    0  501 -0.00000000000E+00 -0.00000000000E+00 -0.72982286343E+03  0.72982286343E+03  0.25500000000E-02 0. -1.
   -5000001    1    1    2    0    0  0.32150138852E+03  0.13289671910E+03 -0.78346088794E+02  0.43550291663E+03  0.25000000000E+03 0.  0.
    5000001    1    1    2    0    0 -0.32150138852E+03 -0.13289671910E+03 -0.37587715278E+03  0.56991956867E+03  0.25000000000E+03 0.  0.
<mgrwt>
<rscale>  0 0.89697025E+03</rscale>
<asrwt>0</asrwt>
<pdfrwt beam="1">  1        2 0.42399942E-01 0.89697025E+03</pdfrwt>
<pdfrwt beam="2">  1       -2 0.11228044E+00 0.89697025E+03</pdfrwt>
<totfact> 0.75680000E+01</totfact>
</mgrwt>
</event>
<event>
 4    1  0.1773996E-005  0.7867357E+03  0.7818608E-02  0.9579418E-01
         -2   -1    0    0    0  501 -0.00000000000E+00  0.00000000000E+00  0.19869259165E+03  0.19869259167E+03  0.25500000000E-02 0.  1.
          2   -1    0    0  501    0  0.00000000000E+00 -0.00000000000E+00 -0.77878221569E+03  0.77878221569E+03  0.25500000000E-02 0. -1.
   -5000001    1    1    2    0    0  0.28799821080E+02 -0.25770557147E+03 -0.48647931253E+03  0.60531290485E+03  0.25000000000E+03 0.  0.
    5000001    1    1    2    0    0 -0.28799821080E+02  0.25770557147E+03 -0.93610311511E+02  0.37216190251E+03  0.25000000000E+03 0.  0.
<mgrwt>
<rscale>  0 0.78673568E+03</rscale>
<asrwt>0</asrwt>
<pdfrwt beam="1">  1        2 0.11981265E+00 0.78673568E+03</pdfrwt>
<pdfrwt beam="2">  1       -2 0.30568091E-01 0.78673568E+03</pdfrwt>
<totfact> 0.35508472E+02</totfact>
</mgrwt>
</event>
<event>
 4    1  0.1773996E-005  0.1461223E+04  0.7818608E-02  0.8910657E-01
         -2   -1    0    0    0  501 -0.00000000000E+00  0.00000000000E+00  0.24471809306E+03  0.24471809307E+03  0.25500000000E-02 0. -1.
          2   -1    0    0  501    0  0.00000000000E+00 -0.00000000000E+00 -0.21812566047E+04  0.21812566047E+04  0.25500000000E-02 0.  1.
   -5000001    1    1    2    0    0 -0.28879546852E+03  0.57839126751E+03 -0.13517574729E+04  0.15191074836E+04  0.25000000000E+03 0.  0.
    5000001    1    1    2    0    0  0.28879546852E+03 -0.57839126751E+03 -0.58478103868E+03  0.90686721419E+03  0.25000000000E+03 0.  0.
<mgrwt>
<rscale>  0 0.14612227E+04</rscale>
<asrwt>0</asrwt>
<pdfrwt beam="1">  1        2 0.33557793E+00 0.14612227E+04</pdfrwt>
<pdfrwt beam="2">  1       -2 0.37648939E-01 0.14612227E+04</pdfrwt>
<totfact> 0.34161329E+01</totfact>
</mgrwt>
</event>
<event>
 4    1  0.1773996E-005  0.6928873E+03  0.7818608E-02  0.9729474E-01
          2   -1    0    0  501    0  0.00000000000E+00  0.00000000000E+00  0.37748234022E+03  0.37748234023E+03  0.25500000000E-02 0.  1.
         -2   -1    0    0    0  501 -0.00000000000E+00 -0.00000000000E+00 -0.31795712560E+03  0.31795712561E+03  0.25500000000E-02 0. -1.
   -5000001    1    1    2    0    0  0.16877194191E+03  0.10888604788E+03 -0.10180439845E+03  0.33645843034E+03  0.25000000000E+03 0.  0.
    5000001    1    1    2    0    0 -0.16877194191E+03 -0.10888604788E+03  0.16132961307E+03  0.35898103551E+03  0.25000000000E+03 0.  0.
<mgrwt>
<rscale>  0 0.69288729E+03</rscale>
<asrwt>0</asrwt>
<pdfrwt beam="1">  1        2 0.58074206E-01 0.69288729E+03</pdfrwt>
<pdfrwt beam="2">  1       -2 0.48916481E-01 0.69288729E+03</pdfrwt>
<totfact> 0.33898408E+02</totfact>
</mgrwt>
</event>
<event>
 4    1  0.1773996E-005  0.7925482E+03  0.7818608E-02  0.9570866E-01
         -2   -1    0    0    0  501 -0.00000000000E+00  0.00000000000E+00  0.39552950380E+02  0.39552950462E+02  0.25500000000E-02 0. -1.
          2   -1    0    0  501    0  0.00000000000E+00 -0.00000000000E+00 -0.39702006287E+04  0.39702006287E+04  0.25500000000E-02 0.  1.
   -5000001    1    1    2    0    0  0.17060744713E+03  0.66062386012E+02 -0.71512940144E+03  0.77934664987E+03  0.25000000000E+03 0.  0.
    5000001    1    1    2    0    0 -0.17060744713E+03 -0.66062386012E+02 -0.32155182769E+04  0.32304069293E+04  0.25000000000E+03 0.  0.
<mgrwt>
<rscale>  0 0.79254817E+03</rscale>
<asrwt>0</asrwt>
<pdfrwt beam="1">  1        2 0.61079978E+00 0.79254817E+03</pdfrwt>
<pdfrwt beam="2">  1       -2 0.60850725E-02 0.79254817E+03</pdfrwt>
<totfact> 0.60005051E+01</totfact>
</mgrwt>
</event>
<event>
 4    1  0.1773996E-005  0.9331891E+03  0.7818608E-02  0.9385019E-01
          2   -1    0    0  501    0  0.00000000000E+00  0.00000000000E+00  0.77653733355E+03  0.77653733355E+03  0.25500000000E-02 0.  1.
         -2   -1    0    0    0  501 -0.00000000000E+00 -0.00000000000E+00 -0.28036060928E+03  0.28036060930E+03  0.25500000000E-02 0. -1.
   -5000001    1    1    2    0    0 -0.18276024518E+03 -0.13134293760E+03 -0.11813196799E+03  0.35652129857E+03  0.25000000000E+03 0.  0.
    5000001    1    1    2    0    0  0.18276024518E+03  0.13134293760E+03  0.61430869225E+03  0.70037664428E+03  0.25000000000E+03 0.  0.
<mgrwt>
<rscale>  0 0.93318911E+03</rscale>
<asrwt>0</asrwt>
<pdfrwt beam="1">  1        2 0.11946728E+00 0.93318911E+03</pdfrwt>
<pdfrwt beam="2">  1       -2 0.43132402E-01 0.93318911E+03</pdfrwt>
<totfact> 0.18282658E+02</totfact>
</mgrwt>
</event>
<event>
 4    1  0.1773996E-005  0.1010192E+04  0.7818608E-02  0.9297437E-01
          2   -1    0    0  501    0  0.00000000000E+00  0.00000000000E+00  0.10980324842E+04  0.10980324842E+04  0.25500000000E-02 0.  1.
         -2   -1    0    0    0  501 -0.00000000000E+00 -0.00000000000E+00 -0.23234454615E+03  0.23234454616E+03  0.25500000000E-02 0. -1.
   -5000001    1    1    2    0    0  0.37988002730E+03  0.15002574079E+03  0.22128795649E+03  0.52752717250E+03  0.25000000000E+03 0.  0.
    5000001    1    1    2    0    0 -0.37988002730E+03 -0.15002574079E+03  0.64439998161E+03  0.80284985791E+03  0.25000000000E+03 0.  0.
<mgrwt>
<rscale>  0 0.10101918E+04</rscale>
<asrwt>0</asrwt>
<pdfrwt beam="1">  1        2 0.16892807E+00 0.10101918E+04</pdfrwt>
<pdfrwt beam="2">  1       -2 0.35745315E-01 0.10101918E+04</pdfrwt>
<totfact> 0.16019728E+02</totfact>
</mgrwt>
</event>
<event>
 4    1  0.1773996E-005  0.1429285E+04  0.7818608E-02  0.8932889E-01
         -2   -1    0    0    0  501 -0.00000000000E+00  0.00000000000E+00  0.47421268839E+03  0.47421268839E+03  0.25500000000E-02 0. -1.
          2   -1    0    0  501    0  0.00000000000E+00 -0.00000000000E+00 -0.10769723023E+04  0.10769723023E+04  0.25500000000E-02 0.  1.
   -5000001    1    1    2    0    0 -0.29269328508E+03  0.60072688105E+03 -0.25700514126E+03  0.75834938345E+03  0.25000000000E+03 0.  0.
    5000001    1    1    2    0    0  0.29269328508E+03 -0.60072688105E+03 -0.34575447264E+03  0.79283560723E+03  0.25000000000E+03 0.  0.
<mgrwt>
<rscale>  0 0.14292850E+04</rscale>
<asrwt>0</asrwt>
<pdfrwt beam="1">  1        2 0.16568805E+00 0.14292850E+04</pdfrwt>
<pdfrwt beam="2">  1       -2 0.72955799E-01 0.14292850E+04</pdfrwt>
<totfact> 0.37127318E+01</totfact>
</mgrwt>
</event>
<event>
 4    1  0.1773996E-005  0.6283277E+03  0.7818608E-02  0.9848318E-01
         -2   -1    0    0    0  501 -0.00000000000E+00  0.00000000000E+00  0.29700132293E+02  0.29700132402E+02  0.25500000000E-02 0. -1.
          2   -1    0    0  501    0  0.00000000000E+00 -0.00000000000E+00 -0.33231815847E+04  0.33231815847E+04  0.25500000000E-02 0.  1.
   -5000001    1    1    2    0    0 -0.10909685765E+03  0.11840708974E+03 -0.21876894407E+04  0.22078060269E+04  0.25000000000E+03 0.  0.
    5000001    1    1    2    0    0  0.10909685765E+03 -0.11840708974E+03 -0.11057920117E+04  0.11450756902E+04  0.25000000000E+03 0.  0.
<mgrwt>
<rscale>  0 0.62832773E+03</rscale>
<asrwt>0</asrwt>
<pdfrwt beam="1">  1        2 0.51125841E+00 0.62832773E+03</pdfrwt>
<pdfrwt beam="2">  1       -2 0.45692538E-02 0.62832773E+03</pdfrwt>
<totfact> 0.27685969E+02</totfact>
</mgrwt>
</event>
<event>
 4    1  0.1773996E-005  0.6407594E+03  0.7818608E-02  0.9824275E-01
          2   -1    0    0  501    0  0.00000000000E+00  0.00000000000E+00  0.49510495400E+04  0.49510495400E+04  0.25500000000E-02 0.  1.
         -2   -1    0    0    0  501 -0.00000000000E+00 -0.00000000000E+00 -0.20731593119E+02  0.20731593276E+02  0.25500000000E-02 0. -1.
   -5000001    1    1    2    0    0 -0.15777393363E+03  0.11022309872E+03  0.20330474219E+04  0.20573826978E+04  0.25000000000E+03 0.  0.
    5000001    1    1    2    0    0  0.15777393363E+03 -0.11022309872E+03  0.28972705250E+04  0.29143984355E+04  0.25000000000E+03 0.  0.
<mgrwt>
<rscale>  0 0.64075938E+03</rscale>
<asrwt>0</asrwt>
<pdfrwt beam="1">  1        2 0.76170015E+00 0.64075938E+03</pdfrwt>
<pdfrwt beam="2">  1       -2 0.31894750E-02 0.64075938E+03</pdfrwt>
<totfact> 0.19529539E+01</totfact>
</mgrwt>
</event>
<event>
 4    1  0.1773996E-005  0.6900331E+03  0.7818608E-02  0.9734430E-01
         -2   -1    0    0    0  501 -0.00000000000E+00  0.00000000000E+00  0.35538675918E+02  0.35538676010E+02  0.25500000000E-02 0. -1.
          2   -1    0    0  501    0  0.00000000000E+00 -0.00000000000E+00 -0.33494897685E+04  0.33494897685E+04  0.25500000000E-02 0.  1.
   -5000001    1    1    2    0    0  0.16047668230E+03 -0.14517637560E+03 -0.21403077831E+04  0.21656976594E+04  0.25000000000E+03 0.  0.
    5000001    1    1    2    0    0 -0.16047668230E+03  0.14517637560E+03 -0.11736433095E+04  0.12193307851E+04  0.25000000000E+03 0.  0.
<mgrwt>
<rscale>  0 0.69003313E+03</rscale>
<asrwt>0</asrwt>
<pdfrwt beam="1">  1        2 0.51530587E+00 0.69003313E+03</pdfrwt>
<pdfrwt beam="2">  1       -2 0.54674913E-02 0.69003313E+03</pdfrwt>
<totfact> 0.19972868E+02</totfact>
</mgrwt>
</event>
<event>
 4    1  0.1773996E-005  0.5999335E+03  0.7818608E-02  0.9905544E-01
         -2   -1    0    0    0  501 -0.00000000000E+00  0.00000000000E+00  0.12629505952E+03  0.12629505955E+03  0.25500000000E-02 0. -1.
          2   -1    0    0  501    0  0.00000000000E+00 -0.00000000000E+00 -0.71245902138E+03  0.71245902139E+03  0.25500000000E-02 0.  1.
   -5000001    1    1    2    0    0  0.15487666883E+03  0.14678808626E+01 -0.21047557155E+03  0.36164748505E+03  0.25000000000E+03 0.  0.
    5000001    1    1    2    0    0 -0.15487666883E+03 -0.14678808626E+01 -0.37568839031E+03  0.47710659589E+03  0.25000000000E+03 0.  0.
<mgrwt>
<rscale>  0 0.59993351E+03</rscale>
<asrwt>0</asrwt>
<pdfrwt beam="1">  1        2 0.10960908E+00 0.59993351E+03</pdfrwt>
<pdfrwt beam="2">  1       -2 0.19430010E-01 0.59993351E+03</pdfrwt>
<totfact> 0.90374460E+02</totfact>
</mgrwt>
</event>
<event>
 4    1  0.1773996E-005  0.7159166E+03  0.7818608E-02  0.9690393E-01
          2   -1    0    0  501    0  0.00000000000E+00  0.00000000000E+00  0.12613720424E+04  0.12613720424E+04  0.25500000000E-02 0.  1.
         -2   -1    0    0    0  501 -0.00000000000E+00 -0.00000000000E+00 -0.10158314431E+03  0.10158314435E+03  0.25500000000E-02 0. -1.
   -5000001    1    1    2    0    0  0.22051074245E+03 -0.57815037187E+02  0.80245539293E+03  0.87086291901E+03  0.25000000000E+03 0.  0.
    5000001    1    1    2    0    0 -0.22051074245E+03  0.57815037187E+02  0.35733350516E+03  0.49209226774E+03  0.25000000000E+03 0.  0.
<mgrwt>
<rscale>  0 0.71591658E+03</rscale>
<asrwt>0</asrwt>
<pdfrwt beam="1">  1        2 0.19405725E+00 0.71591658E+03</pdfrwt>
<pdfrwt beam="2">  1       -2 0.15628175E-01 0.71591658E+03</pdfrwt>
<totfact> 0.57476350E+02</totfact>
</mgrwt>
</event>
<event>
 4    1  0.1773996E-005  0.1764554E+04  0.7818608E-02  0.8725380E-01
          2   -1    0    0  501    0  0.00000000000E+00  0.00000000000E+00  0.35736693651E+03  0.35736693652E+03  0.25500000000E-02 0.  1.
         -2   -1    0    0    0  501 -0.00000000000E+00 -0.00000000000E+00 -0.21781881722E+04  0.21781881722E+04  0.25500000000E-02 0. -1.
   -5000001    1    1    2    0    0 -0.21709369121E+03  0.77127569584E+03 -0.51974151711E+03  0.98723204687E+03  0.25000000000E+03 0.  0.
    5000001    1    1    2    0    0  0.21709369121E+03 -0.77127569584E+03 -0.13010797186E+04  0.15483230619E+04  0.25000000000E+03 0.  0.
<mgrwt>
<rscale>  0 0.17645537E+04</rscale>
<asrwt>0</asrwt>
<pdfrwt beam="1">  1        2 0.54979530E-01 0.17645537E+04</pdfrwt>
<pdfrwt beam="2">  1       -2 0.33510586E+00 0.17645537E+04</pdfrwt>
<totfact> 0.16545707E+00</totfact>
</mgrwt>
</event>
<event>
 4    1  0.1773996E-005  0.8607389E+03  0.7818608E-02  0.9476036E-01
         -2   -1    0    0    0  501 -0.00000000000E+00  0.00000000000E+00  0.29873575546E+03  0.29873575547E+03  0.25500000000E-02 0. -1.
          2   -1    0    0  501    0  0.00000000000E+00 -0.00000000000E+00 -0.62000570658E+03  0.62000570659E+03  0.25500000000E-02 0.  1.
   -5000001    1    1    2    0    0 -0.33795840140E+03 -0.29298128747E+02 -0.25395421338E+03  0.49200305275E+03  0.25000000000E+03 0.  0.
    5000001    1    1    2    0    0  0.33795840140E+03  0.29298128747E+02 -0.67315737738E+02  0.42673840930E+03  0.25000000000E+03 0.  0.
<mgrwt>
<rscale>  0 0.86073892E+03</rscale>
<asrwt>0</asrwt>
<pdfrwt beam="1">  1        2 0.95385493E-01 0.86073892E+03</pdfrwt>
<pdfrwt beam="2">  1       -2 0.45959347E-01 0.86073892E+03</pdfrwt>
<totfact> 0.21490696E+02</totfact>
</mgrwt>
</event>
<event>
 4    1  0.1773996E-005  0.8450644E+03  0.7818608E-02  0.9496985E-01
         -2   -1    0    0    0  501 -0.00000000000E+00  0.00000000000E+00  0.13551134851E+04  0.13551134851E+04  0.25500000000E-02 0. -1.
          2   -1    0    0  501    0  0.00000000000E+00 -0.00000000000E+00 -0.13174796990E+03  0.13174796993E+03  0.25500000000E-02 0.  1.
   -5000001    1    1    2    0    0 -0.15420581328E+03  0.28097895002E+03  0.81463116972E+03  0.91041339285E+03  0.25000000000E+03 0.  0.
    5000001    1    1    2    0    0  0.15420581328E+03 -0.28097895002E+03  0.40873434545E+03  0.57644806215E+03  0.25000000000E+03 0.  0.
<mgrwt>
<rscale>  0 0.84506438E+03</rscale>
<asrwt>0</asrwt>
<pdfrwt beam="1">  1        2 0.20268919E-01 0.84506438E+03</pdfrwt>
<pdfrwt beam="2">  1       -2 0.20847899E+00 0.84506438E+03</pdfrwt>
<totfact> 0.33156755E+01</totfact>
</mgrwt>
</event>
<event>
 4    1  0.1773996E-005  0.1454193E+04  0.7818608E-02  0.8915499E-01
         -2   -1    0    0    0  501 -0.00000000000E+00  0.00000000000E+00  0.19994935676E+03  0.19994935677E+03  0.25500000000E-02 0. -1.
          2   -1    0    0  501    0  0.00000000000E+00 -0.00000000000E+00 -0.26440164146E+04  0.26440164146E+04  0.25500000000E-02 0.  1.
   -5000001    1    1    2    0    0 -0.55644971483E+03 -0.37216741223E+03 -0.95947020224E+03  0.11963393903E+04  0.25000000000E+03 0.  0.
    5000001    1    1    2    0    0  0.55644971483E+03  0.37216741223E+03 -0.14845968556E+04  0.16476263811E+04  0.25000000000E+03 0.  0.
<mgrwt>
<rscale>  0 0.14541931E+04</rscale>
<asrwt>0</asrwt>
<pdfrwt beam="1">  1        2 0.40677173E+00 0.14541931E+04</pdfrwt>
<pdfrwt beam="2">  1       -2 0.30761441E-01 0.14541931E+04</pdfrwt>
<totfact> 0.27312423E+01</totfact>
</mgrwt>
</event>
<event>
 4    1  0.1773996E-005  0.7215875E+03  0.7818608E-02  0.9681011E-01
          2   -1    0    0  501    0  0.00000000000E+00  0.00000000000E+00  0.15776299372E+04  0.15776299372E+04  0.25500000000E-02 0.  1.
         -2   -1    0    0    0  501 -0.00000000000E+00 -0.00000000000E+00 -0.82511199565E+02  0.82511199604E+02  0.25500000000E-02 0. -1.
   -5000001    1    1    2    0    0 -0.42683031998E+02  0.24563219773E+03  0.57670207961E+03  0.67619694351E+03  0.25000000000E+03 0.  0.
    5000001    1    1    2    0    0  0.42683031998E+02 -0.24563219773E+03  0.91841665802E+03  0.98394419329E+03  0.25000000000E+03 0.  0.
<mgrwt>
<rscale>  0 0.72158752E+03</rscale>
<asrwt>0</asrwt>
<pdfrwt beam="1">  1        2 0.24271227E+00 0.72158752E+03</pdfrwt>
<pdfrwt beam="2">  1       -2 0.12694032E-01 0.72158752E+03</pdfrwt>
<totfact> 0.54039980E+02</totfact>
</mgrwt>
</event>
<event>
 4    1  0.1773996E-005  0.5206634E+03  0.7818608E-02  0.1008522E+00
         -2   -1    0    0    0  501 -0.00000000000E+00  0.00000000000E+00  0.60408005052E+02  0.60408005106E+02  0.25500000000E-02 0. -1.
          2   -1    0    0  501    0  0.00000000000E+00 -0.00000000000E+00 -0.11219142091E+04  0.11219142091E+04  0.25500000000E-02 0.  1.
   -5000001    1    1    2    0    0  0.46608682510E+02 -0.23352326719E+02 -0.41597325713E+03  0.48811008092E+03  0.25000000000E+03 0.  0.
    5000001    1    1    2    0    0 -0.46608682510E+02  0.23352326719E+02 -0.64553294690E+03  0.69421213328E+03  0.25000000000E+03 0.  0.
<mgrwt>
<rscale>  0 0.52066342E+03</rscale>
<asrwt>0</asrwt>
<pdfrwt beam="1">  1        2 0.17260217E+00 0.52066342E+03</pdfrwt>
<pdfrwt beam="2">  1       -2 0.92935401E-02 0.52066342E+03</pdfrwt>
<totfact> 0.16485185E+03</totfact>
</mgrwt>
</event>
<event>
 4    1  0.1773996E-005  0.5639118E+03  0.7818608E-02  0.9983242E-01
          2   -1    0    0  501    0  0.00000000000E+00  0.00000000000E+00  0.11241336443E+04  0.11241336443E+04  0.25500000000E-02 0.  1.
         -2   -1    0    0    0  501 -0.00000000000E+00 -0.00000000000E+00 -0.70720352841E+02  0.70720352887E+02  0.25500000000E-02 0. -1.
   -5000001    1    1    2    0    0  0.11822949534E+03  0.32530688243E+02  0.43283657036E+03  0.51466878270E+03  0.25000000000E+03 0.  0.
    5000001    1    1    2    0    0 -0.11822949534E+03 -0.32530688243E+02  0.62057672115E+03  0.68018521454E+03  0.25000000000E+03 0.  0.
<mgrwt>
<rscale>  0 0.56391179E+03</rscale>
<asrwt>0</asrwt>
<pdfrwt beam="1">  1        2 0.17294365E+00 0.56391179E+03</pdfrwt>
<pdfrwt beam="2">  1       -2 0.10880053E-01 0.56391179E+03</pdfrwt>
<totfact> 0.12720588E+03</totfact>
</mgrwt>
</event>
<event>
 4    1  0.1773996E-005  0.6202994E+03  0.7818608E-02  0.9864164E-01
         -2   -1    0    0    0  501 -0.00000000000E+00  0.00000000000E+00  0.48290779395E+02  0.48290779462E+02  0.25500000000E-02 0.  1.
          2   -1    0    0  501    0  0.00000000000E+00 -0.00000000000E+00 -0.19919506635E+04  0.19919506635E+04  0.25500000000E-02 0. -1.
   -5000001    1    1    2    0    0  0.15926778465E+03 -0.88550485848E+02 -0.89936208344E+03  0.95108336800E+03  0.25000000000E+03 0.  0.
    5000001    1    1    2    0    0 -0.15926778465E+03  0.88550485848E+02 -0.10442978007E+04  0.10891580750E+04  0.25000000000E+03 0.  0.
<mgrwt>
<rscale>  0 0.62029944E+03</rscale>
<asrwt>0</asrwt>
<pdfrwt beam="1">  1        2 0.30645388E+00 0.62029944E+03</pdfrwt>
<pdfrwt beam="2">  1       -2 0.74293522E-02 0.62029944E+03</pdfrwt>
<totfact> 0.77135598E+02</totfact>
</mgrwt>
</event>
<event>
 4    1  0.1773996E-005  0.1063285E+04  0.7818608E-02  0.9241735E-01
         -2   -1    0    0    0  501 -0.00000000000E+00  0.00000000000E+00  0.13807088014E+03  0.13807088017E+03  0.25500000000E-02 0. -1.
          2   -1    0    0  501    0  0.00000000000E+00 -0.00000000000E+00 -0.20470903288E+04  0.20470903288E+04  0.25500000000E-02 0.  1.
   -5000001    1    1    2    0    0 -0.32930710917E+03  0.29020837401E+03 -0.61383628234E+03  0.79495852345E+03  0.25000000000E+03 0.  0.
    5000001    1    1    2    0    0  0.32930710917E+03 -0.29020837401E+03 -0.12951831663E+04  0.13902026855E+04  0.25000000000E+03 0.  0.
<mgrwt>
<rscale>  0 0.10632847E+04</rscale>
<asrwt>0</asrwt>
<pdfrwt beam="1">  1        2 0.31493695E+00 0.10632847E+04</pdfrwt>
<pdfrwt beam="2">  1       -2 0.21241675E-01 0.10632847E+04</pdfrwt>
<totfact> 0.12064091E+02</totfact>
</mgrwt>
</event>
<event>
 4    1  0.1773996E-005  0.1163889E+04  0.7818608E-02  0.9145065E-01
          2   -1    0    0  501    0  0.00000000000E+00  0.00000000000E+00  0.61563823615E+03  0.61563823615E+03  0.25500000000E-02 0.  1.
         -2   -1    0    0    0  501 -0.00000000000E+00 -0.00000000000E+00 -0.55009502433E+03  0.55009502433E+03  0.25500000000E-02 0. -1.
   -5000001    1    1    2    0    0  0.18769313988E+03 -0.47742742066E+03 -0.81399672062E+02  0.57644736392E+03  0.25000000000E+03 0.  0.
    5000001    1    1    2    0    0 -0.18769313988E+03  0.47742742066E+03  0.14694288388E+03  0.58928589656E+03  0.25000000000E+03 0.  0.
<mgrwt>
<rscale>  0 0.11638892E+04</rscale>
<asrwt>0</asrwt>
<pdfrwt beam="1">  1        2 0.94713574E-01 0.11638892E+04</pdfrwt>
<pdfrwt beam="2">  1       -2 0.84630004E-01 0.11638892E+04</pdfrwt>
<totfact> 0.57883859E+01</totfact>
</mgrwt>
</event>
<event>
 4    1  0.1773996E-005  0.7217125E+03  0.7818608E-02  0.9680805E-01
         -2   -1    0    0    0  501 -0.00000000000E+00  0.00000000000E+00  0.66904542694E+02  0.66904542742E+02  0.25500000000E-02 0. -1.
          2   -1    0    0  501    0  0.00000000000E+00 -0.00000000000E+00 -0.19463138201E+04  0.19463138201E+04  0.25500000000E-02 0.  1.
   -5000001    1    1    2    0    0 -0.19471254507E+03 -0.16693940299E+03 -0.10624267624E+04  0.11211745471E+04  0.25000000000E+03 0.  0.
    5000001    1    1    2    0    0  0.19471254507E+03  0.16693940299E+03 -0.81698251500E+03  0.89204381579E+03  0.25000000000E+03 0.  0.
<mgrwt>
<rscale>  0 0.72171251E+03</rscale>
<asrwt>0</asrwt>
<pdfrwt beam="1">  1        2 0.29943285E+00 0.72171251E+03</pdfrwt>
<pdfrwt beam="2">  1       -2 0.10293008E-01 0.72171251E+03</pdfrwt>
<totfact> 0.47999300E+02</totfact>
</mgrwt>
</event>
<event>
 4    1  0.1773996E-005  0.5322538E+03  0.7818608E-02  0.1005687E+00
          2   -1    0    0  501    0  0.00000000000E+00  0.00000000000E+00  0.88289038528E+03  0.88289038528E+03  0.25500000000E-02 0.  1.
         -2   -1    0    0    0  501 -0.00000000000E+00 -0.00000000000E+00 -0.80217795550E+02  0.80217795591E+02  0.25500000000E-02 0. -1.
   -5000001    1    1    2    0    0 -0.46010880118E+02  0.45612778879E+02  0.51756692815E+03  0.57842290048E+03  0.25000000000E+03 0.  0.
    5000001    1    1    2    0    0  0.46010880118E+02 -0.45612778879E+02  0.28510566158E+03  0.38468528039E+03  0.25000000000E+03 0.  0.
<mgrwt>
<rscale>  0 0.53225378E+03</rscale>
<asrwt>0</asrwt>
<pdfrwt beam="1">  1        2 0.13582929E+00 0.53225378E+03</pdfrwt>
<pdfrwt beam="2">  1       -2 0.12341199E-01 0.53225378E+03</pdfrwt>
<totfact> 0.14707624E+03</totfact>
</mgrwt>
</event>
<event>
 4    1  0.1773996E-005  0.7499440E+03  0.7818608E-02  0.9635438E-01
          2   -1    0    0  501    0  0.00000000000E+00  0.00000000000E+00  0.18047226001E+04  0.18047226001E+04  0.25500000000E-02 0.  1.
         -2   -1    0    0    0  501 -0.00000000000E+00 -0.00000000000E+00 -0.77908921813E+02  0.77908921854E+02  0.25500000000E-02 0. -1.
   -5000001    1    1    2    0    0 -0.21163144423E+03 -0.16067895516E+03  0.10807874099E+04  0.11407046156E+04  0.25000000000E+03 0.  0.
    5000001    1    1    2    0    0  0.21163144423E+03  0.16067895516E+03  0.64602626840E+03  0.74192690629E+03  0.25000000000E+03 0.  0.
<mgrwt>
<rscale>  0 0.74994398E+03</rscale>
<asrwt>0</asrwt>
<pdfrwt beam="1">  1        2 0.27764961E+00 0.74994398E+03</pdfrwt>
<pdfrwt beam="2">  1       -2 0.11985989E-01 0.74994398E+03</pdfrwt>
<totfact> 0.44557512E+02</totfact>
</mgrwt>
</event>
<event>
 4    1  0.1773996E-005  0.8685871E+03  0.7818608E-02  0.9465724E-01
          2   -1    0    0  501    0  0.00000000000E+00  0.00000000000E+00  0.26268801296E+04  0.26268801296E+04  0.25500000000E-02 0.  1.
         -2   -1    0    0    0  501 -0.00000000000E+00 -0.00000000000E+00 -0.71800335110E+02  0.71800335155E+02  0.25500000000E-02 0. -1.
   -5000001    1    1    2    0    0 -0.24295958824E+03 -0.24393750142E+03  0.10071077568E+04  0.10932981752E+04  0.25000000000E+03 0.  0.
    5000001    1    1    2    0    0  0.24295958824E+03  0.24393750142E+03  0.15479720377E+04  0.16053822895E+04  0.25000000000E+03 0.  0.
<mgrwt>
<rscale>  0 0.86858707E+03</rscale>
<asrwt>0</asrwt>
<pdfrwt beam="1">  1        2 0.40413539E+00 0.86858707E+03</pdfrwt>
<pdfrwt beam="2">  1       -2 0.11046206E-01 0.86858707E+03</pdfrwt>
<totfact> 0.17625265E+02</totfact>
</mgrwt>
</event>
<event>
 4    1  0.1773996E-005  0.9076071E+03  0.7818608E-02  0.9416122E-01
         -2   -1    0    0    0  501 -0.00000000000E+00  0.00000000000E+00  0.79838363313E+02  0.79838363353E+02  0.25500000000E-02 0. -1.
          2   -1    0    0  501    0  0.00000000000E+00 -0.00000000000E+00 -0.25794326440E+04  0.25794326440E+04  0.25500000000E-02 0.  1.
   -5000001    1    1    2    0    0 -0.27805782623E+03  0.24292788632E+01 -0.20031817545E+04  0.20377829123E+04  0.25000000000E+03 0.  0.
    5000001    1    1    2    0    0  0.27805782623E+03 -0.24292788632E+01 -0.49641252616E+03  0.62148809502E+03  0.25000000000E+03 0.  0.
<mgrwt>
<rscale>  0 0.90760714E+03</rscale>
<asrwt>0</asrwt>
<pdfrwt beam="1">  1        2 0.39683573E+00 0.90760714E+03</pdfrwt>
<pdfrwt beam="2">  1       -2 0.12282827E-01 0.90760714E+03</pdfrwt>
<totfact> 0.15694691E+02</totfact>
</mgrwt>
</event>
<event>
 4    1  0.1773996E-005  0.6541445E+03  0.7818608E-02  0.9799033E-01
          2   -1    0    0  501    0  0.00000000000E+00  0.00000000000E+00  0.27293246881E+04  0.27293246881E+04  0.25500000000E-02 0.  1.
         -2   -1    0    0    0  501 -0.00000000000E+00 -0.00000000000E+00 -0.39195137977E+02  0.39195138060E+02  0.25500000000E-02 0. -1.
   -5000001    1    1    2    0    0 -0.68044790961E+02 -0.19288141823E+03  0.11274861750E+04  0.11728420226E+04  0.25000000000E+03 0.  0.
    5000001    1    1    2    0    0  0.68044790961E+02  0.19288141823E+03  0.15626433751E+04  0.15956778035E+04  0.25000000000E+03 0.  0.
<mgrwt>
<rscale>  0 0.65414450E+03</rscale>
<asrwt>0</asrwt>
<pdfrwt beam="1">  1        2 0.41989612E+00 0.65414450E+03</pdfrwt>
<pdfrwt beam="2">  1       -2 0.60300211E-02 0.65414450E+03</pdfrwt>
<totfact> 0.41466865E+02</totfact>
</mgrwt>
</event>
<event>
 4    1  0.1773996E-005  0.6600151E+03  0.7818608E-02  0.9788166E-01
          2   -1    0    0  501    0  0.00000000000E+00  0.00000000000E+00  0.62169173281E+03  0.62169173282E+03  0.25500000000E-02 0.  1.
         -2   -1    0    0    0  501 -0.00000000000E+00 -0.00000000000E+00 -0.17517522470E+03  0.17517522472E+03  0.25500000000E-02 0. -1.
   -5000001    1    1    2    0    0 -0.68790775757E+02 -0.18660415856E+03  0.12332010517E+03  0.34243412675E+03  0.25000000000E+03 0.  0.
    5000001    1    1    2    0    0  0.68790775757E+02  0.18660415856E+03  0.32319640295E+03  0.45443283079E+03  0.25000000000E+03 0.  0.
<mgrwt>
<rscale>  0 0.66001512E+03</rscale>
<asrwt>0</asrwt>
<pdfrwt beam="1">  1        2 0.95644884E-01 0.66001512E+03</pdfrwt>
<pdfrwt beam="2">  1       -2 0.26950034E-01 0.66001512E+03</pdfrwt>
<totfact> 0.59723067E+02</totfact>
</mgrwt>
</event>
<event>
 4    1  0.1773996E-005  0.1246542E+04  0.7818608E-02  0.9073066E-01
          2   -1    0    0  501    0  0.00000000000E+00  0.00000000000E+00  0.18666820988E+04  0.18666820988E+04  0.25500000000E-02 0.  1.
         -2   -1    0    0    0  501 -0.00000000000E+00 -0.00000000000E+00 -0.20810547919E+03  0.20810547921E+03  0.25500000000E-02 0. -1.
   -5000001    1    1    2    0    0  0.33470124561E+02 -0.48650543645E+03  0.33509143767E+03  0.64233485079E+03  0.25000000000E+03 0.  0.
    5000001    1    1    2    0    0 -0.33470124561E+02  0.48650543645E+03  0.13234851820E+04  0.14324527273E+04  0.25000000000E+03 0.  0.
<mgrwt>
<rscale>  0 0.12465421E+04</rscale>
<asrwt>0</asrwt>
<pdfrwt beam="1">  1        2 0.28718186E+00 0.12465421E+04</pdfrwt>
<pdfrwt beam="2">  1       -2 0.32016228E-01 0.12465421E+04</pdfrwt>
<totfact> 0.70770711E+01</totfact>
</mgrwt>
</event>
<event>
 4    1  0.1773996E-005  0.5865090E+03  0.7818608E-02  0.9933798E-01
         -2   -1    0    0    0  501 -0.00000000000E+00  0.00000000000E+00  0.13452774050E+03  0.13452774053E+03  0.25500000000E-02 0. -1.
          2   -1    0    0  501    0  0.00000000000E+00 -0.00000000000E+00 -0.63925990940E+03  0.63925990941E+03  0.25500000000E-02 0.  1.
   -5000001    1    1    2    0    0 -0.13290506833E+03 -0.21683622477E+02 -0.15573834299E+03  0.32386473743E+03  0.25000000000E+03 0.  0.
    5000001    1    1    2    0    0  0.13290506833E+03  0.21683622477E+02 -0.34899382591E+03  0.44992291251E+03  0.25000000000E+03 0.  0.
<mgrwt>
<rscale>  0 0.58650896E+03</rscale>
<asrwt>0</asrwt>
<pdfrwt beam="1">  1        2 0.98347677E-01 0.58650896E+03</pdfrwt>
<pdfrwt beam="2">  1       -2 0.20696576E-01 0.58650896E+03</pdfrwt>
<totfact> 0.92609677E+02</totfact>
</mgrwt>
</event>
<event>
 4    1  0.1773996E-005  0.6290659E+03  0.7818608E-02  0.9846873E-01
         -2   -1    0    0    0  501 -0.00000000000E+00  0.00000000000E+00  0.11852244688E+03  0.11852244691E+03  0.25500000000E-02 0. -1.
          2   -1    0    0  501    0  0.00000000000E+00 -0.00000000000E+00 -0.83470233833E+03  0.83470233834E+03  0.25500000000E-02 0.  1.
   -5000001    1    1    2    0    0  0.14114429436E+03  0.11825387222E+03 -0.28194283723E+03  0.41940130375E+03  0.25000000000E+03 0.  0.
    5000001    1    1    2    0    0 -0.14114429436E+03 -0.11825387222E+03 -0.43423705423E+03  0.53382348149E+03  0.25000000000E+03 0.  0.
<mgrwt>
<rscale>  0 0.62906586E+03</rscale>
<asrwt>0</asrwt>
<pdfrwt beam="1">  1        2 0.12841574E+00 0.62906586E+03</pdfrwt>
<pdfrwt beam="2">  1       -2 0.18234223E-01 0.62906586E+03</pdfrwt>
<totfact> 0.82069034E+02</totfact>
</mgrwt>
</event>
<event>
 4    1  0.1773996E-005  0.7179179E+03  0.7818608E-02  0.9687072E-01
          2   -1    0    0  501    0  0.00000000000E+00  0.00000000000E+00  0.10856835478E+03  0.10856835481E+03  0.25500000000E-02 0.  1.
         -2   -1    0    0    0  501 -0.00000000000E+00 -0.00000000000E+00 -0.11868239792E+04  0.11868239792E+04  0.25500000000E-02 0. -1.
   -5000001    1    1    2    0    0  0.21206499810E+03 -0.13878712616E+03 -0.45608549297E+03  0.57857359662E+03  0.25000000000E+03 0.  0.
    5000001    1    1    2    0    0 -0.21206499810E+03  0.13878712616E+03 -0.62217013144E+03  0.71681873738E+03  0.25000000000E+03 0.  0.
<mgrwt>
<rscale>  0 0.71791790E+03</rscale>
<asrwt>0</asrwt>
<pdfrwt beam="1">  1        2 0.16702825E-01 0.71791790E+03</pdfrwt>
<pdfrwt beam="2">  1       -2 0.18258830E+00 0.71791790E+03</pdfrwt>
<totfact> 0.62275628E+01</totfact>
</mgrwt>
</event>
<event>
 4    1  0.1773996E-005  0.8144356E+03  0.7818608E-02  0.9539354E-01
         -2   -1    0    0    0  501 -0.00000000000E+00  0.00000000000E+00  0.20564025110E+03  0.20564025112E+03  0.25500000000E-02 0. -1.
          2   -1    0    0  501    0  0.00000000000E+00 -0.00000000000E+00 -0.80639053733E+03  0.80639053734E+03  0.25500000000E-02 0.  1.
   -5000001    1    1    2    0    0 -0.25343120236E+03 -0.13426675768E+03 -0.48075324652E+03  0.61308940669E+03  0.25000000000E+03 0.  0.
    5000001    1    1    2    0    0  0.25343120236E+03  0.13426675768E+03 -0.11999703971E+03  0.39894138177E+03  0.25000000000E+03 0.  0.
<mgrwt>
<rscale>  0 0.81443564E+03</rscale>
<asrwt>0</asrwt>
<pdfrwt beam="1">  1        2 0.12406008E+00 0.81443564E+03</pdfrwt>
<pdfrwt beam="2">  1       -2 0.31636962E-01 0.81443564E+03</pdfrwt>
<totfact> 0.31765265E+02</totfact>
</mgrwt>
</event>
<event>
 4    1  0.1773996E-005  0.1011082E+04  0.7818608E-02  0.9296473E-01
         -2   -1    0    0    0  501 -0.00000000000E+00  0.00000000000E+00  0.55754321803E+03  0.55754321803E+03  0.25500000000E-02 0. -1.
          2   -1    0    0  501    0  0.00000000000E+00 -0.00000000000E+00 -0.45838915452E+03  0.45838915453E+03  0.25500000000E-02 0.  1.
   -5000001    1    1    2    0    0  0.17582758943E+03  0.38884673948E+03 -0.55589451178E+02  0.49770203444E+03  0.25000000000E+03 0.  0.
    5000001    1    1    2    0    0 -0.17582758943E+03 -0.38884673948E+03  0.15474351468E+03  0.51823033812E+03  0.25000000000E+03 0.  0.
<mgrwt>
<rscale>  0 0.10110821E+04</rscale>
<asrwt>0</asrwt>
<pdfrwt beam="1">  1        2 0.70521409E-01 0.10110821E+04</pdfrwt>
<pdfrwt beam="2">  1       -2 0.85775879E-01 0.10110821E+04</pdfrwt>
<totfact> 0.80233552E+01</totfact>
</mgrwt>
</event>
<event>
 4    1  0.1773996E-005  0.9850261E+03  0.7818608E-02  0.9325122E-01
         -2   -1    0    0    0  501 -0.00000000000E+00  0.00000000000E+00  0.91051997320E+02  0.91051997356E+02  0.25500000000E-02 0. -1.
          2   -1    0    0  501    0  0.00000000000E+00 -0.00000000000E+00 -0.26640722281E+04  0.26640722281E+04  0.25500000000E-02 0.  1.
   -5000001    1    1    2    0    0 -0.40961419643E+03  0.43693276853E+02 -0.10015968130E+04  0.11114805748E+04  0.25000000000E+03 0.  0.
    5000001    1    1    2    0    0  0.40961419643E+03 -0.43693276853E+02 -0.15714234178E+04  0.16436436506E+04  0.25000000000E+03 0.  0.
<mgrwt>
<rscale>  0 0.98502609E+03</rscale>
<asrwt>0</asrwt>
<pdfrwt beam="1">  1        2 0.40985721E+00 0.98502609E+03</pdfrwt>
<pdfrwt beam="2">  1       -2 0.14008002E-01 0.98502609E+03</pdfrwt>
<totfact> 0.11170088E+02</totfact>
</mgrwt>
</event>
<event>
 4    1  0.1773996E-005  0.6963591E+03  0.7818608E-02  0.9723479E-01
          2   -1    0    0  501    0  0.00000000000E+00  0.00000000000E+00  0.19571582480E+04  0.19571582480E+04  0.25500000000E-02 0.  1.
         -2   -1    0    0    0  501 -0.00000000000E+00 -0.00000000000E+00 -0.61941331935E+02  0.61941331987E+02  0.25500000000E-02 0. -1.
   -5000001    1    1    2    0    0 -0.72554402600E+02 -0.14448271902E+03  0.42417201186E+03  0.51822899675E+03  0.25000000000E+03 0.  0.
    5000001    1    1    2    0    0  0.72554402600E+02  0.14448271902E+03  0.14710449043E+04  0.15008705833E+04  0.25000000000E+03 0.  0.
<mgrwt>
<rscale>  0 0.69635907E+03</rscale>
<asrwt>0</asrwt>
<pdfrwt beam="1">  1        2 0.30110129E+00 0.69635907E+03</pdfrwt>
<pdfrwt beam="2">  1       -2 0.95294349E-02 0.69635907E+03</pdfrwt>
<totfact> 0.53768321E+02</totfact>
</mgrwt>
</event>
<event>
 4    1  0.1773996E-005  0.1118011E+04  0.7818608E-02  0.9187813E-01
          2   -1    0    0  501    0  0.00000000000E+00  0.00000000000E+00  0.40973542353E+04  0.40973542353E+04  0.25500000000E-02 0.  1.
         -2   -1    0    0    0  501 -0.00000000000E+00 -0.00000000000E+00 -0.76265561095E+02  0.76265561138E+02  0.25500000000E-02 0. -1.
   -5000001    1    1    2    0    0  0.45521261990E+03 -0.10441148691E+03  0.26769453684E+04  0.27288563160E+04  0.25000000000E+03 0.  0.
    5000001    1    1    2    0    0 -0.45521261990E+03  0.10441148691E+03  0.13441433059E+04  0.14447634805E+04  0.25000000000E+03 0.  0.
<mgrwt>
<rscale>  0 0.11180108E+04</rscale>
<asrwt>0</asrwt>
<pdfrwt beam="1">  1        2 0.63036228E+00 0.11180108E+04</pdfrwt>
<pdfrwt beam="2">  1       -2 0.11733162E-01 0.11180108E+04</pdfrwt>
<totfact> 0.15703751E+01</totfact>
</mgrwt>
</event>
<event>
 4    1  0.1773996E-005  0.5730023E+03  0.7818608E-02  0.9963057E-01
          2   -1    0    0  501    0  0.00000000000E+00  0.00000000000E+00  0.36860709942E+03  0.36860709943E+03  0.25500000000E-02 0.  1.
         -2   -1    0    0    0  501 -0.00000000000E+00 -0.00000000000E+00 -0.22268400711E+03  0.22268400713E+03  0.25500000000E-02 0. -1.
   -5000001    1    1    2    0    0  0.13540999664E+03  0.23535625723E+02  0.45794211067E+02  0.28894100200E+03  0.25000000000E+03 0.  0.
    5000001    1    1    2    0    0 -0.13540999664E+03 -0.23535625723E+02  0.10012888124E+03  0.30235010456E+03  0.25000000000E+03 0.  0.
<mgrwt>
<rscale>  0 0.57300229E+03</rscale>
<asrwt>0</asrwt>
<pdfrwt beam="1">  1        2 0.56708784E-01 0.57300229E+03</pdfrwt>
<pdfrwt beam="2">  1       -2 0.34259079E-01 0.57300229E+03</pdfrwt>
<totfact> 0.69975463E+02</totfact>
</mgrwt>
</event>
<event>
 4    1  0.1773996E-005  0.6972172E+03  0.7818608E-02  0.9722003E-01
          2   -1    0    0  501    0  0.00000000000E+00  0.00000000000E+00  0.21739835953E+03  0.21739835955E+03  0.25500000000E-02 0.  1.
         -2   -1    0    0    0  501 -0.00000000000E+00 -0.00000000000E+00 -0.55901048672E+03  0.55901048673E+03  0.25500000000E-02 0. -1.
   -5000001    1    1    2    0    0  0.23514050166E+03  0.54539299424E+02 -0.14005884312E+03  0.37467595364E+03  0.25000000000E+03 0.  0.
    5000001    1    1    2    0    0 -0.23514050166E+03 -0.54539299424E+02 -0.20155328407E+03  0.40173289263E+03  0.25000000000E+03 0.  0.
<mgrwt>
<rscale>  0 0.69721722E+03</rscale>
<asrwt>0</asrwt>
<pdfrwt beam="1">  1        2 0.33445902E-01 0.69721722E+03</pdfrwt>
<pdfrwt beam="2">  1       -2 0.86001613E-01 0.69721722E+03</pdfrwt>
<totfact> 0.18652932E+02</totfact>
</mgrwt>
</event>
<event>
 4    1  0.1773996E-005  0.1059464E+04  0.7818608E-02  0.9245628E-01
         -2   -1    0    0    0  501 -0.00000000000E+00  0.00000000000E+00  0.51607825493E+03  0.51607825494E+03  0.25500000000E-02 0. -1.
          2   -1    0    0  501    0  0.00000000000E+00 -0.00000000000E+00 -0.54374656238E+03  0.54374656239E+03  0.25500000000E-02 0.  1.
   -5000001    1    1    2    0    0 -0.17303205908E+02 -0.36291651089E+03  0.27970751123E+03  0.52224906572E+03  0.25000000000E+03 0.  0.
    5000001    1    1    2    0    0  0.17303205908E+02  0.36291651089E+03 -0.30737581867E+03  0.53757575161E+03  0.25000000000E+03 0.  0.
<mgrwt>
<rscale>  0 0.10594636E+04</rscale>
<asrwt>0</asrwt>
<pdfrwt beam="1">  1        2 0.83653317E-01 0.10594636E+04</pdfrwt>
<pdfrwt beam="2">  1       -2 0.79396655E-01 0.10594636E+04</pdfrwt>
<totfact> 0.78136678E+01</totfact>
</mgrwt>
</event>
<event>
 4    1  0.1773996E-005  0.6908767E+03  0.7818608E-02  0.9732963E-01
         -2   -1    0    0    0  501 -0.00000000000E+00  0.00000000000E+00  0.37346254885E+03  0.37346254885E+03  0.25500000000E-02 0. -1.
          2   -1    0    0  501    0  0.00000000000E+00 -0.00000000000E+00 -0.31951706419E+03  0.31951706420E+03  0.25500000000E-02 0.  1.
   -5000001    1    1    2    0    0 -0.14100330373E+03  0.89744365725E+02  0.19746562786E+03  0.35976194494E+03  0.25000000000E+03 0.  0.
    5000001    1    1    2    0    0  0.14100330373E+03 -0.89744365725E+02 -0.14352014320E+03  0.33321766812E+03  0.25000000000E+03 0.  0.
<mgrwt>
<rscale>  0 0.69087671E+03</rscale>
<asrwt>0</asrwt>
<pdfrwt beam="1">  1        2 0.49156471E-01 0.69087671E+03</pdfrwt>
<pdfrwt beam="2">  1       -2 0.57455777E-01 0.69087671E+03</pdfrwt>
<totfact> 0.29319508E+02</totfact>
</mgrwt>
</event>
<event>
 4    1  0.1773996E-005  0.7013772E+03  0.7818608E-02  0.9714880E-01
         -2   -1    0    0    0  501 -0.00000000000E+00  0.00000000000E+00  0.14110066582E+03  0.14110066584E+03  0.25500000000E-02 0. -1.
          2   -1    0    0  501    0  0.00000000000E+00 -0.00000000000E+00 -0.87159406509E+03  0.87159406510E+03  0.25500000000E-02 0.  1.
   -5000001    1    1    2    0    0 -0.16301660204E+03 -0.14573843530E+03 -0.20273383148E+03  0.38912094584E+03  0.25000000000E+03 0.  0.
    5000001    1    1    2    0    0  0.16301660204E+03  0.14573843530E+03 -0.52775956780E+03  0.62357378510E+03  0.25000000000E+03 0.  0.
<mgrwt>
<rscale>  0 0.70137722E+03</rscale>
<asrwt>0</asrwt>
<pdfrwt beam="1">  1        2 0.13409139E+00 0.70137722E+03</pdfrwt>
<pdfrwt beam="2">  1       -2 0.21707795E-01 0.70137722E+03</pdfrwt>
<totfact> 0.56964163E+02</totfact>
</mgrwt>
</event>
<event>
 4    1  0.1773996E-005  0.1434988E+04  0.7818608E-02  0.8928875E-01
         -2   -1    0    0    0  501 -0.00000000000E+00  0.00000000000E+00  0.11412380899E+04  0.11412380899E+04  0.25500000000E-02 0. -1.
          2   -1    0    0  501    0  0.00000000000E+00 -0.00000000000E+00 -0.45108666736E+03  0.45108666736E+03  0.25500000000E-02 0.  1.
   -5000001    1    1    2    0    0  0.66356484270E+03  0.10823506722E+03  0.32704079611E+03  0.78834561746E+03  0.25000000000E+03 0.  0.
    5000001    1    1    2    0    0 -0.66356484270E+03 -0.10823506722E+03  0.36311062647E+03  0.80397913984E+03  0.25000000000E+03 0.  0.
<mgrwt>
<rscale>  0 0.14349875E+04</rscale>
<asrwt>0</asrwt>
<pdfrwt beam="1">  1        2 0.69397948E-01 0.14349875E+04</pdfrwt>
<pdfrwt beam="2">  1       -2 0.17557509E+00 0.14349875E+04</pdfrwt>
<totfact> 0.13092220E+01</totfact>
</mgrwt>
</event>
<event>
 4    1  0.1773996E-005  0.6318416E+03  0.7818608E-02  0.9841462E-01
          2   -1    0    0  501    0  0.00000000000E+00  0.00000000000E+00  0.16047711286E+04  0.16047711286E+04  0.25500000000E-02 0.  1.
         -2   -1    0    0    0  501 -0.00000000000E+00 -0.00000000000E+00 -0.62193252714E+02  0.62193252766E+02  0.25500000000E-02 0. -1.
   -5000001    1    1    2    0    0 -0.16078108434E+03  0.53174281474E+01  0.48926483089E+03  0.57250232040E+03  0.25000000000E+03 0.  0.
    5000001    1    1    2    0    0  0.16078108434E+03 -0.53174281474E+01  0.10533130450E+04  0.10944620610E+04  0.25000000000E+03 0.  0.
<mgrwt>
<rscale>  0 0.63184155E+03</rscale>
<asrwt>0</asrwt>
<pdfrwt beam="1">  1        2 0.24688783E+00 0.63184155E+03</pdfrwt>
<pdfrwt beam="2">  1       -2 0.95681940E-02 0.63184155E+03</pdfrwt>
<totfact> 0.83398387E+02</totfact>
</mgrwt>
</event>
<event>
 4    1  0.1773996E-005  0.9230801E+03  0.7818608E-02  0.9397181E-01
          2   -1    0    0  501    0  0.00000000000E+00  0.00000000000E+00  0.16992963272E+04  0.16992963272E+04  0.25500000000E-02 0.  1.
         -2   -1    0    0    0  501 -0.00000000000E+00 -0.00000000000E+00 -0.12535730760E+03  0.12535730763E+03  0.25500000000E-02 0. -1.
   -5000001    1    1    2    0    0  0.19046993325E+03  0.33275187305E+03  0.66974915573E+03  0.81121300291E+03  0.25000000000E+03 0.  0.
    5000001    1    1    2    0    0 -0.19046993325E+03 -0.33275187305E+03  0.90418986384E+03  0.10134406319E+04  0.25000000000E+03 0.  0.
<mgrwt>
<rscale>  0 0.92308009E+03</rscale>
<asrwt>0</asrwt>
<pdfrwt beam="1">  1        2 0.26143020E+00 0.92308009E+03</pdfrwt>
<pdfrwt beam="2">  1       -2 0.19285740E-01 0.92308009E+03</pdfrwt>
<totfact> 0.22439360E+02</totfact>
</mgrwt>
</event>
<event>
 4    1  0.1773996E-005  0.8926530E+03  0.7818608E-02  0.9434812E-01
          2   -1    0    0  501    0  0.00000000000E+00  0.00000000000E+00  0.61369160233E+03  0.61369160233E+03  0.25500000000E-02 0.  1.
         -2   -1    0    0    0  501 -0.00000000000E+00 -0.00000000000E+00 -0.32460496657E+03  0.32460496658E+03  0.25500000000E-02 0. -1.
   -5000001    1    1    2    0    0 -0.20358352300E+03 -0.30658381781E+03  0.18196502070E+03  0.48067780991E+03  0.25000000000E+03 0.  0.
    5000001    1    1    2    0    0  0.20358352300E+03  0.30658381781E+03  0.10712161506E+03  0.45761875901E+03  0.25000000000E+03 0.  0.
<mgrwt>
<rscale>  0 0.89265299E+03</rscale>
<asrwt>0</asrwt>
<pdfrwt beam="1">  1        2 0.94414090E-01 0.89265299E+03</pdfrwt>
<pdfrwt beam="2">  1       -2 0.49939227E-01 0.89265299E+03</pdfrwt>
<totfact> 0.18372637E+02</totfact>
</mgrwt>
</event>
<event>
 4    1  0.1773996E-005  0.6565150E+03  0.7818608E-02  0.9794631E-01
         -2   -1    0    0    0  501 -0.00000000000E+00  0.00000000000E+00  0.15074313903E+03  0.15074313905E+03  0.25500000000E-02 0. -1.
          2   -1    0    0  501    0  0.00000000000E+00 -0.00000000000E+00 -0.71481181176E+03  0.71481181176E+03  0.25500000000E-02 0.  1.
   -5000001    1    1    2    0    0 -0.92865639520E+02  0.32036068054E+02 -0.53080038679E+03  0.59489443373E+03  0.25000000000E+03 0.  0.
    5000001    1    1    2    0    0  0.92865639520E+02 -0.32036068054E+02 -0.33268285934E+02  0.27066051709E+03  0.25000000000E+03 0.  0.
<mgrwt>
<rscale>  0 0.65651497E+03</rscale>
<asrwt>0</asrwt>
<pdfrwt beam="1">  1        2 0.10997105E+00 0.65651497E+03</pdfrwt>
<pdfrwt beam="2">  1       -2 0.23191252E-01 0.65651497E+03</pdfrwt>
<totfact> 0.65846765E+02</totfact>
</mgrwt>
</event>
<event>
 4    1  0.1773996E-005  0.5706715E+03  0.7818608E-02  0.9968194E-01
         -2   -1    0    0    0  501 -0.00000000000E+00  0.00000000000E+00  0.68786371470E+02  0.68786371517E+02  0.25500000000E-02 0. -1.
          2   -1    0    0  501    0  0.00000000000E+00 -0.00000000000E+00 -0.11836136947E+04  0.11836136947E+04  0.25500000000E-02 0.  1.
   -5000001    1    1    2    0    0 -0.36204972967E+02 -0.10413991957E+03 -0.37696714590E+03  0.46557507665E+03  0.25000000000E+03 0.  0.
    5000001    1    1    2    0    0  0.36204972967E+02  0.10413991957E+03 -0.73786017736E+03  0.78682498959E+03  0.25000000000E+03 0.  0.
<mgrwt>
<rscale>  0 0.57067150E+03</rscale>
<asrwt>0</asrwt>
<pdfrwt beam="1">  1        2 0.18209440E+00 0.57067150E+03</pdfrwt>
<pdfrwt beam="2">  1       -2 0.10582520E-01 0.57067150E+03</pdfrwt>
<totfact> 0.12265429E+03</totfact>
</mgrwt>
</event>
<event>
 4    1  0.1773996E-005  0.8533987E+03  0.7818608E-02  0.9485787E-01
          2   -1    0    0  501    0  0.00000000000E+00  0.00000000000E+00  0.23428784364E+03  0.23428784365E+03  0.25500000000E-02 0.  1.
         -2   -1    0    0    0  501 -0.00000000000E+00 -0.00000000000E+00 -0.77713097716E+03  0.77713097717E+03  0.25500000000E-02 0. -1.
   -5000001    1    1    2    0    0  0.72827703395E+02  0.30459024318E+03 -0.44517367983E+03  0.59896468664E+03  0.25000000000E+03 0.  0.
    5000001    1    1    2    0    0 -0.72827703395E+02 -0.30459024318E+03 -0.97669453688E+02  0.41245413418E+03  0.25000000000E+03 0.  0.
<mgrwt>
<rscale>  0 0.85339871E+03</rscale>
<asrwt>0</asrwt>
<pdfrwt beam="1">  1        2 0.36044284E-01 0.85339871E+03</pdfrwt>
<pdfrwt beam="2">  1       -2 0.11955861E+00 0.85339871E+03</pdfrwt>
<totfact> 0.77940729E+01</totfact>
</mgrwt>
</event>
<event>
 4    1  0.1773996E-005  0.7626643E+03  0.7818608E-02  0.9615689E-01
          2   -1    0    0  501    0  0.00000000000E+00  0.00000000000E+00  0.30425411386E+04  0.30425411386E+04  0.25500000000E-02 0.  1.
         -2   -1    0    0    0  501 -0.00000000000E+00 -0.00000000000E+00 -0.47793672409E+02  0.47793672477E+02  0.25500000000E-02 0. -1.
   -5000001    1    1    2    0    0  0.23604352777E+03 -0.15368610138E+03  0.17397596799E+04  0.17800560971E+04  0.25000000000E+03 0.  0.
    5000001    1    1    2    0    0 -0.23604352777E+03  0.15368610138E+03  0.12549877863E+04  0.13102787141E+04  0.25000000000E+03 0.  0.
<mgrwt>
<rscale>  0 0.76266432E+03</rscale>
<asrwt>0</asrwt>
<pdfrwt beam="1">  1        2 0.46808333E+00 0.76266432E+03</pdfrwt>
<pdfrwt beam="2">  1       -2 0.73528715E-02 0.76266432E+03</pdfrwt>
<totfact> 0.19449702E+02</totfact>
</mgrwt>
</event>
<event>
 4    1  0.1773996E-005  0.9704661E+03  0.7818608E-02  0.9341544E-01
          2   -1    0    0  501    0  0.00000000000E+00  0.00000000000E+00  0.15567091108E+03  0.15567091110E+03  0.25500000000E-02 0.  1.
         -2   -1    0    0    0  501 -0.00000000000E+00 -0.00000000000E+00 -0.15124925738E+04  0.15124925738E+04  0.25500000000E-02 0. -1.
   -5000001    1    1    2    0    0  0.33412195762E+03  0.14708512267E+03 -0.10208171695E+04  0.11125822260E+04  0.25000000000E+03 0.  0.
    5000001    1    1    2    0    0 -0.33412195762E+03 -0.14708512267E+03 -0.33600449322E+03  0.55558125899E+03  0.25000000000E+03 0.  0.
<mgrwt>
<rscale>  0 0.97046607E+03</rscale>
<asrwt>0</asrwt>
<pdfrwt beam="1">  1        2 0.23949372E-01 0.97046607E+03</pdfrwt>
<pdfrwt beam="2">  1       -2 0.23269115E+00 0.97046607E+03</pdfrwt>
<totfact> 0.19056882E+01</totfact>
</mgrwt>
</event>
<event>
 4    1  0.1773996E-005  0.6164444E+03  0.7818608E-02  0.9871864E-01
         -2   -1    0    0    0  501 -0.00000000000E+00  0.00000000000E+00  0.16400878488E+03  0.16400878490E+03  0.25500000000E-02 0.  1.
          2   -1    0    0  501    0  0.00000000000E+00 -0.00000000000E+00 -0.57924292789E+03  0.57924292789E+03  0.25500000000E-02 0. -1.
   -5000001    1    1    2    0    0 -0.50968649333E+02 -0.53857310715E+02 -0.94898676057E+01  0.26093767593E+03  0.25000000000E+03 0.  0.
    5000001    1    1    2    0    0  0.50968649333E+02  0.53857310715E+02 -0.40574427540E+03  0.48231403686E+03  0.25000000000E+03 0.  0.
<mgrwt>
<rscale>  0 0.61644441E+03</rscale>
<asrwt>0</asrwt>
<pdfrwt beam="1">  1        2 0.89114296E-01 0.61644441E+03</pdfrwt>
<pdfrwt beam="2">  1       -2 0.25232121E-01 0.61644441E+03</pdfrwt>
<totfact> 0.73323553E+02</totfact>
</mgrwt>
</event>
<event>
 4    1  0.1773996E-005  0.6709127E+03  0.7818608E-02  0.9768310E-01
         -2   -1    0    0    0  501 -0.00000000000E+00  0.00000000000E+00  0.36376819110E+02  0.36376819199E+02  0.25500000000E-02 0. -1.
          2   -1    0    0  501    0  0.00000000000E+00 -0.00000000000E+00 -0.30934798004E+04  0.30934798004E+04  0.25500000000E-02 0.  1.
   -5000001    1    1    2    0    0 -0.16847320550E+03  0.14657591583E+03 -0.14689488733E+04  0.15067111576E+04  0.25000000000E+03 0.  0.
    5000001    1    1    2    0    0  0.16847320550E+03 -0.14657591583E+03 -0.15881541080E+04  0.16231454620E+04  0.25000000000E+03 0.  0.
<mgrwt>
<rscale>  0 0.67091268E+03</rscale>
<asrwt>0</asrwt>
<pdfrwt beam="1">  1        2 0.47591976E+00 0.67091268E+03</pdfrwt>
<pdfrwt beam="2">  1       -2 0.55964362E-02 0.67091268E+03</pdfrwt>
<totfact> 0.28118383E+02</totfact>
</mgrwt>
</event>
<event>
 4    1  0.1773996E-005  0.6799692E+03  0.7818608E-02  0.9752114E-01
          2   -1    0    0  501    0  0.00000000000E+00  0.00000000000E+00  0.33767797255E+04  0.33767797255E+04  0.25500000000E-02 0.  1.
         -2   -1    0    0    0  501 -0.00000000000E+00 -0.00000000000E+00 -0.34230698425E+02  0.34230698520E+02  0.25500000000E-02 0. -1.
   -5000001    1    1    2    0    0 -0.17809008701E+03 -0.97648574356E+02  0.11254704802E+04  0.11706558524E+04  0.25000000000E+03 0.  0.
    5000001    1    1    2    0    0  0.17809008701E+03  0.97648574356E+02  0.22170785469E+04  0.22403545715E+04  0.25000000000E+03 0.  0.
<mgrwt>
<rscale>  0 0.67996920E+03</rscale>
<asrwt>0</asrwt>
<pdfrwt beam="1">  1        2 0.51950473E+00 0.67996920E+03</pdfrwt>
<pdfrwt beam="2">  1       -2 0.52662597E-02 0.67996920E+03</pdfrwt>
<totfact> 0.20345263E+02</totfact>
</mgrwt>
</event>
<event>
 4    1  0.1773996E-005  0.6127730E+03  0.7818608E-02  0.9879255E-01
         -2   -1    0    0    0  501 -0.00000000000E+00  0.00000000000E+00  0.16954905487E+03  0.16954905489E+03  0.25500000000E-02 0. -1.
          2   -1    0    0  501    0  0.00000000000E+00 -0.00000000000E+00 -0.55366099404E+03  0.55366099405E+03  0.25500000000E-02 0.  1.
   -5000001    1    1    2    0    0 -0.16511307246E+03  0.60220339645E+02 -0.16609417803E+03  0.34781617555E+03  0.25000000000E+03 0.  0.
    5000001    1    1    2    0    0  0.16511307246E+03 -0.60220339645E+02 -0.21801776114E+03  0.37539387338E+03  0.25000000000E+03 0.  0.
<mgrwt>
<rscale>  0 0.61277304E+03</rscale>
<asrwt>0</asrwt>
<pdfrwt beam="1">  1        2 0.85178614E-01 0.61277304E+03</pdfrwt>
<pdfrwt beam="2">  1       -2 0.26084470E-01 0.61277304E+03</pdfrwt>
<totfact> 0.72852995E+02</totfact>
</mgrwt>
</event>
<event>
 4    1  0.1773996E-005  0.7603850E+03  0.7818608E-02  0.9619197E-01
         -2   -1    0    0    0  501 -0.00000000000E+00  0.00000000000E+00  0.49342033075E+03  0.49342033076E+03  0.25500000000E-02 0. -1.
          2   -1    0    0  501    0  0.00000000000E+00 -0.00000000000E+00 -0.29294763410E+03  0.29294763411E+03  0.25500000000E-02 0.  1.
   -5000001    1    1    2    0    0 -0.39142811233E+02 -0.28056291731E+03  0.14409553698E+03  0.40436522355E+03  0.25000000000E+03 0.  0.
    5000001    1    1    2    0    0  0.39142811233E+02  0.28056291731E+03  0.56377159664E+02  0.38200274132E+03  0.25000000000E+03 0.  0.
<mgrwt>
<rscale>  0 0.76038495E+03</rscale>
<asrwt>0</asrwt>
<pdfrwt beam="1">  1        2 0.45068867E-01 0.76038495E+03</pdfrwt>
<pdfrwt beam="2">  1       -2 0.75910819E-01 0.76038495E+03</pdfrwt>
<totfact> 0.17679603E+02</totfact>
</mgrwt>
</event>
<event>
 4    1  0.1773996E-005  0.1004931E+04  0.7818608E-02  0.9303153E-01
         -2   -1    0    0    0  501 -0.00000000000E+00  0.00000000000E+00  0.11993777906E+03  0.11993777908E+03  0.25500000000E-02 0. -1.
          2   -1    0    0  501    0  0.00000000000E+00 -0.00000000000E+00 -0.21050225352E+04  0.21050225352E+04  0.25500000000E-02 0.  1.
   -5000001    1    1    2    0    0  0.43458316915E+03  0.19451610208E+02 -0.93268818341E+03  0.10590789128E+04  0.25000000000E+03 0.  0.
    5000001    1    1    2    0    0 -0.43458316915E+03 -0.19451610208E+02 -0.10523965727E+04  0.11658814015E+04  0.25000000000E+03 0.  0.
<mgrwt>
<rscale>  0 0.10049313E+04</rscale>
<asrwt>0</asrwt>
<pdfrwt beam="1">  1        2 0.32384959E+00 0.10049313E+04</pdfrwt>
<pdfrwt beam="2">  1       -2 0.18451968E-01 0.10049313E+04</pdfrwt>
<totfact> 0.14413296E+02</totfact>
</mgrwt>
</event>
<event>
 4    1  0.1773996E-005  0.1685935E+04  0.7818608E-02  0.8769427E-01
         -2   -1    0    0    0  501 -0.00000000000E+00  0.00000000000E+00  0.43381286680E+03  0.43381286681E+03  0.25500000000E-02 0. -1.
          2   -1    0    0  501    0  0.00000000000E+00 -0.00000000000E+00 -0.16380198184E+04  0.16380198184E+04  0.25500000000E-02 0.  1.
   -5000001    1    1    2    0    0  0.50443419842E+03  0.48837552671E+02  0.16657355398E+03  0.58913981021E+03  0.25000000000E+03 0.  0.
    5000001    1    1    2    0    0 -0.50443419842E+03 -0.48837552671E+02 -0.13707805055E+04  0.14826928750E+04  0.25000000000E+03 0.  0.
<mgrwt>
<rscale>  0 0.16859348E+04</rscale>
<asrwt>0</asrwt>
<pdfrwt beam="1">  1        2 0.25200305E+00 0.16859348E+04</pdfrwt>
<pdfrwt beam="2">  1       -2 0.66740442E-01 0.16859348E+04</pdfrwt>
<totfact> 0.20857582E+01</totfact>
</mgrwt>
</event>
<event>
 4    1  0.1773996E-005  0.7535495E+03  0.7818608E-02  0.9629798E-01
         -2   -1    0    0    0  501 -0.00000000000E+00  0.00000000000E+00  0.77007831222E+03  0.77007831222E+03  0.25500000000E-02 0. -1.
          2   -1    0    0  501    0  0.00000000000E+00 -0.00000000000E+00 -0.18434386730E+03  0.18434386732E+03  0.25500000000E-02 0.  1.
   -5000001    1    1    2    0    0 -0.28049446598E+03 -0.25451560086E+02  0.27818994578E+03  0.46820355967E+03  0.25000000000E+03 0.  0.
    5000001    1    1    2    0    0  0.28049446598E+03  0.25451560086E+02  0.30754449914E+03  0.48621861987E+03  0.25000000000E+03 0.  0.
<mgrwt>
<rscale>  0 0.75354951E+03</rscale>
<asrwt>0</asrwt>
<pdfrwt beam="1">  1        2 0.28360594E-01 0.75354951E+03</pdfrwt>
<pdfrwt beam="2">  1       -2 0.11847359E+00 0.75354951E+03</pdfrwt>
<totfact> 0.10492415E+02</totfact>
</mgrwt>
</event>
<event>
 4    1  0.1773996E-005  0.8295469E+03  0.7818608E-02  0.9518207E-01
         -2   -1    0    0    0  501 -0.00000000000E+00  0.00000000000E+00  0.11047720777E+03  0.11047720780E+03  0.25500000000E-02 0. -1.
          2   -1    0    0  501    0  0.00000000000E+00 -0.00000000000E+00 -0.15572171805E+04  0.15572171805E+04  0.25500000000E-02 0.  1.
   -5000001    1    1    2    0    0  0.12941898737E+03  0.30383111552E+03 -0.76715656317E+03  0.87183244575E+03  0.25000000000E+03 0.  0.
    5000001    1    1    2    0    0 -0.12941898737E+03 -0.30383111552E+03 -0.67958340956E+03  0.79586194255E+03  0.25000000000E+03 0.  0.
<mgrwt>
<rscale>  0 0.82954688E+03</rscale>
<asrwt>0</asrwt>
<pdfrwt beam="1">  1        2 0.23957186E+00 0.82954688E+03</pdfrwt>
<pdfrwt beam="2">  1       -2 0.16996495E-01 0.82954688E+03</pdfrwt>
<totfact> 0.33663156E+02</totfact>
</mgrwt>
</event>
<event>
 4    1  0.1773996E-005  0.1718216E+04  0.7818608E-02  0.8751043E-01
          2   -1    0    0  501    0  0.00000000000E+00  0.00000000000E+00  0.13569923587E+04  0.13569923587E+04  0.25500000000E-02 0.  1.
         -2   -1    0    0    0  501 -0.00000000000E+00 -0.00000000000E+00 -0.54389884503E+03  0.54389884503E+03  0.25500000000E-02 0. -1.
   -5000001    1    1    2    0    0 -0.70414591768E+03  0.37767368329E+03  0.61966050572E+03  0.10416035843E+04  0.25000000000E+03 0.  0.
    5000001    1    1    2    0    0  0.70414591768E+03 -0.37767368329E+03  0.19343300800E+03  0.85928761950E+03  0.25000000000E+03 0.  0.
<mgrwt>
<rscale>  0 0.17182160E+04</rscale>
<asrwt>0</asrwt>
<pdfrwt beam="1">  1        2 0.20876805E+00 0.17182160E+04</pdfrwt>
<pdfrwt beam="2">  1       -2 0.83676748E-01 0.17182160E+04</pdfrwt>
<totfact> 0.18177143E+01</totfact>
</mgrwt>
</event>
<event>
 4    1  0.1773996E-005  0.9140507E+03  0.7818608E-02  0.9408186E-01
         -2   -1    0    0    0  501 -0.00000000000E+00  0.00000000000E+00  0.29137791714E+03  0.29137791715E+03  0.25500000000E-02 0. -1.
          2   -1    0    0  501    0  0.00000000000E+00 -0.00000000000E+00 -0.71684275977E+03  0.71684275978E+03  0.25500000000E-02 0.  1.
   -5000001    1    1    2    0    0  0.29472730359E+03  0.19856185675E+03 -0.36903987506E+03  0.57007141993E+03  0.25000000000E+03 0.  0.
    5000001    1    1    2    0    0 -0.29472730359E+03 -0.19856185675E+03 -0.56424967579E+02  0.43814925699E+03  0.25000000000E+03 0.  0.
<mgrwt>
<rscale>  0 0.91405066E+03</rscale>
<asrwt>0</asrwt>
<pdfrwt beam="1">  1        2 0.11028350E+00 0.91405066E+03</pdfrwt>
<pdfrwt beam="2">  1       -2 0.44827372E-01 0.91405066E+03</pdfrwt>
<totfact> 0.18801298E+02</totfact>
</mgrwt>
</event>
<event>
 4    1  0.1773996E-005  0.5785035E+03  0.7818608E-02  0.9951036E-01
         -2   -1    0    0    0  501 -0.00000000000E+00  0.00000000000E+00  0.13130679624E+04  0.13130679624E+04  0.25500000000E-02 0. -1.
          2   -1    0    0  501    0  0.00000000000E+00 -0.00000000000E+00 -0.63718386499E+02  0.63718386550E+02  0.25500000000E-02 0.  1.
   -5000001    1    1    2    0    0  0.40417378269E+02  0.13925496051E+03  0.65294101583E+03  0.71404305097E+03  0.25000000000E+03 0.  0.
    5000001    1    1    2    0    0 -0.40417378269E+02 -0.13925496051E+03  0.59640856009E+03  0.66274329800E+03  0.25000000000E+03 0.  0.
<mgrwt>
<rscale>  0 0.57850349E+03</rscale>
<asrwt>0</asrwt>
<pdfrwt beam="1">  1        2 0.98028290E-02 0.57850349E+03</pdfrwt>
<pdfrwt beam="2">  1       -2 0.20201045E+00 0.57850349E+03</pdfrwt>
<totfact> 0.90342942E+01</totfact>
</mgrwt>
</event>
<event>
 4    1  0.1773996E-005  0.1594059E+04  0.7818608E-02  0.8824206E-01
         -2   -1    0    0    0  501 -0.00000000000E+00  0.00000000000E+00  0.43584834234E+03  0.43584834235E+03  0.25500000000E-02 0. -1.
          2   -1    0    0  501    0  0.00000000000E+00 -0.00000000000E+00 -0.14575170845E+04  0.14575170845E+04  0.25500000000E-02 0.  1.
   -5000001    1    1    2    0    0  0.35246020172E+03 -0.56517431513E+03 -0.84054941895E+02  0.71639055936E+03  0.25000000000E+03 0.  0.
    5000001    1    1    2    0    0 -0.35246020172E+03  0.56517431513E+03 -0.93761380025E+03  0.11769748675E+04  0.25000000000E+03 0.  0.
<mgrwt>
<rscale>  0 0.15940595E+04</rscale>
<asrwt>0</asrwt>
<pdfrwt beam="1">  1        2 0.22423339E+00 0.15940595E+04</pdfrwt>
<pdfrwt beam="2">  1       -2 0.67053592E-01 0.15940595E+04</pdfrwt>
<totfact> 0.26274441E+01</totfact>
</mgrwt>
</event>
<event>
 4    1  0.1773996E-005  0.5510588E+03  0.7818608E-02  0.1001249E+00
          2   -1    0    0  501    0  0.00000000000E+00  0.00000000000E+00  0.32771514994E+03  0.32771514995E+03  0.25500000000E-02 0.  1.
         -2   -1    0    0    0  501 -0.00000000000E+00 -0.00000000000E+00 -0.23165374652E+03  0.23165374653E+03  0.25500000000E-02 0. -1.
   -5000001    1    1    2    0    0  0.86382580445E+02  0.76918782257E+02  0.41773901791E+02  0.27860995700E+03  0.25000000000E+03 0.  0.
    5000001    1    1    2    0    0 -0.86382580445E+02 -0.76918782257E+02  0.54287501632E+02  0.28075893949E+03  0.25000000000E+03 0.  0.
<mgrwt>
<rscale>  0 0.55105877E+03</rscale>
<asrwt>0</asrwt>
<pdfrwt beam="1">  1        2 0.50417715E-01 0.55105877E+03</pdfrwt>
<pdfrwt beam="2">  1       -2 0.35639038E-01 0.55105877E+03</pdfrwt>
<totfact> 0.73982133E+02</totfact>
</mgrwt>
</event>
<event>
 4    1  0.1773996E-005  0.1717023E+04  0.7818608E-02  0.8751715E-01
         -2   -1    0    0    0  501 -0.00000000000E+00  0.00000000000E+00  0.71787873609E+03  0.71787873610E+03  0.25500000000E-02 0. -1.
          2   -1    0    0  501    0  0.00000000000E+00 -0.00000000000E+00 -0.10266941308E+04  0.10266941308E+04  0.25500000000E-02 0.  1.
   -5000001    1    1    2    0    0 -0.77649058966E+03  0.26684656023E+03 -0.17465639498E+03  0.87587075465E+03  0.25000000000E+03 0.  0.
    5000001    1    1    2    0    0  0.77649058966E+03 -0.26684656023E+03 -0.13415899969E+03  0.86870211220E+03  0.25000000000E+03 0.  0.
<mgrwt>
<rscale>  0 0.17170229E+04</rscale>
<asrwt>0</asrwt>
<pdfrwt beam="1">  1        2 0.15795294E+00 0.17170229E+04</pdfrwt>
<pdfrwt beam="2">  1       -2 0.11044288E+00 0.17170229E+04</pdfrwt>
<totfact> 0.14975517E+01</totfact>
</mgrwt>
</event>
<event>
 4    1  0.1773996E-005  0.9456971E+03  0.7818608E-02  0.9370194E-01
         -2   -1    0    0    0  501 -0.00000000000E+00  0.00000000000E+00  0.85838699782E+02  0.85838699820E+02  0.25500000000E-02 0. -1.
          2   -1    0    0  501    0  0.00000000000E+00 -0.00000000000E+00 -0.26047195450E+04  0.26047195450E+04  0.25500000000E-02 0.  1.
   -5000001    1    1    2    0    0 -0.39196460571E+03 -0.72907628143E+02 -0.11280136116E+04  0.12222383083E+04  0.25000000000E+03 0.  0.
    5000001    1    1    2    0    0  0.39196460571E+03  0.72907628143E+02 -0.13908672337E+04  0.14683199365E+04  0.25000000000E+03 0.  0.
<mgrwt>
<rscale>  0 0.94569707E+03</rscale>
<asrwt>0</asrwt>
<pdfrwt beam="1">  1        2 0.40072602E+00 0.94569707E+03</pdfrwt>
<pdfrwt beam="2">  1       -2 0.13205956E-01 0.94569707E+03</pdfrwt>
<totfact> 0.13401228E+02</totfact>
</mgrwt>
</event>
<event>
 4    1  0.1773996E-005  0.9054066E+03  0.7818608E-02  0.9418848E-01
         -2   -1    0    0    0  501 -0.00000000000E+00  0.00000000000E+00  0.49986985049E+03  0.49986985050E+03  0.25500000000E-02 0. -1.
          2   -1    0    0  501    0  0.00000000000E+00 -0.00000000000E+00 -0.40998726443E+03  0.40998726444E+03  0.25500000000E-02 0.  1.
   -5000001    1    1    2    0    0  0.28955221495E+03  0.12241757064E+03 -0.16492425006E+03  0.43419644752E+03  0.25000000000E+03 0.  0.
    5000001    1    1    2    0    0 -0.28955221495E+03 -0.12241757064E+03  0.25480683613E+03  0.47566066741E+03  0.25000000000E+03 0.  0.
<mgrwt>
<rscale>  0 0.90540659E+03</rscale>
<asrwt>0</asrwt>
<pdfrwt beam="1">  1        2 0.63074964E-01 0.90540659E+03</pdfrwt>
<pdfrwt beam="2">  1       -2 0.76903054E-01 0.90540659E+03</pdfrwt>
<totfact> 0.11722322E+02</totfact>
</mgrwt>
</event>
<event>
 4    1  0.1773996E-005  0.6280633E+03  0.7818608E-02  0.9848835E-01
         -2   -1    0    0    0  501 -0.00000000000E+00  0.00000000000E+00  0.67440600517E+02  0.67440600565E+02  0.25500000000E-02 0. -1.
          2   -1    0    0  501    0  0.00000000000E+00 -0.00000000000E+00 -0.14622628380E+04  0.14622628380E+04  0.25500000000E-02 0.  1.
   -5000001    1    1    2    0    0  0.41025444615E+02 -0.17157071167E+03 -0.86956924686E+03  0.92182984943E+03  0.25000000000E+03 0.  0.
    5000001    1    1    2    0    0 -0.41025444615E+02  0.17157071167E+03 -0.52525299057E+03  0.60787358909E+03  0.25000000000E+03 0.  0.
<mgrwt>
<rscale>  0 0.62806332E+03</rscale>
<asrwt>0</asrwt>
<pdfrwt beam="1">  1        2 0.22496349E+00 0.62806332E+03</pdfrwt>
<pdfrwt beam="2">  1       -2 0.10375478E-01 0.62806332E+03</pdfrwt>
<totfact> 0.87650584E+02</totfact>
</mgrwt>
</event>
<event>
 4    1  0.1773996E-005  0.1405056E+04  0.7818608E-02  0.8950167E-01
          2   -1    0    0  501    0  0.00000000000E+00  0.00000000000E+00  0.23223514934E+04  0.23223514934E+04  0.25500000000E-02 0. -1.
         -2   -1    0    0    0  501 -0.00000000000E+00 -0.00000000000E+00 -0.21251969689E+03  0.21251969690E+03  0.25500000000E-02 0.  1.
   -5000001    1    1    2    0    0  0.31052322185E+03  0.57002651833E+03  0.87731868267E+03  0.11196173337E+04  0.25000000000E+03 0.  0.
    5000001    1    1    2    0    0 -0.31052322185E+03 -0.57002651833E+03  0.12325131139E+04  0.14152538566E+04  0.25000000000E+03 0.  0.
<mgrwt>
<rscale>  0 0.14050558E+04</rscale>
<asrwt>0</asrwt>
<pdfrwt beam="1">  1        2 0.35728484E+00 0.14050558E+04</pdfrwt>
<pdfrwt beam="2">  1       -2 0.32695338E-01 0.14050558E+04</pdfrwt>
<totfact> 0.37449417E+01</totfact>
</mgrwt>
</event>
<event>
 4    1  0.1773996E-005  0.7284447E+03  0.7818608E-02  0.9669788E-01
          2   -1    0    0  501    0  0.00000000000E+00  0.00000000000E+00  0.28892059741E+04  0.28892059741E+04  0.25500000000E-02 0.  1.
         -2   -1    0    0    0  501 -0.00000000000E+00 -0.00000000000E+00 -0.45915003844E+02  0.45915003915E+02  0.25500000000E-02 0. -1.
   -5000001    1    1    2    0    0  0.14811041963E+03  0.18016680203E+03  0.19274970865E+04  0.19575857048E+04  0.25000000000E+03 0.  0.
    5000001    1    1    2    0    0 -0.14811041963E+03 -0.18016680203E+03  0.91579388368E+03  0.97753527320E+03  0.25000000000E+03 0.  0.
<mgrwt>
<rscale>  0 0.72844465E+03</rscale>
<asrwt>0</asrwt>
<pdfrwt beam="1">  1        2 0.44449329E+00 0.72844465E+03</pdfrwt>
<pdfrwt beam="2">  1       -2 0.70638457E-02 0.72844465E+03</pdfrwt>
<totfact> 0.25788570E+02</totfact>
</mgrwt>
</event>
<event>
 4    1  0.1773996E-005  0.7706286E+03  0.7818608E-02  0.9603532E-01
          2   -1    0    0  501    0  0.00000000000E+00  0.00000000000E+00  0.75282361981E+03  0.75282361981E+03  0.25500000000E-02 0.  1.
         -2   -1    0    0    0  501 -0.00000000000E+00 -0.00000000000E+00 -0.19721368995E+03  0.19721368997E+03  0.25500000000E-02 0. -1.
   -5000001    1    1    2    0    0  0.25000503039E+03 -0.12912573235E+03  0.37939878871E+03  0.53443372914E+03  0.25000000000E+03 0.  0.
    5000001    1    1    2    0    0 -0.25000503039E+03  0.12912573235E+03  0.17621114115E+03  0.41560358064E+03  0.25000000000E+03 0.  0.
<mgrwt>
<rscale>  0 0.77062864E+03</rscale>
<asrwt>0</asrwt>
<pdfrwt beam="1">  1        2 0.11581902E+00 0.77062864E+03</pdfrwt>
<pdfrwt beam="2">  1       -2 0.30340568E-01 0.77062864E+03</pdfrwt>
<totfact> 0.37656172E+02</totfact>
</mgrwt>
</event>
<event>
 4    1  0.1773996E-005  0.6745458E+03  0.7818608E-02  0.9761781E-01
          2   -1    0    0  501    0  0.00000000000E+00  0.00000000000E+00  0.68358528051E+03  0.68358528051E+03  0.25500000000E-02 0.  1.
         -2   -1    0    0    0  501 -0.00000000000E+00 -0.00000000000E+00 -0.16640645736E+03  0.16640645738E+03  0.25500000000E-02 0. -1.
   -5000001    1    1    2    0    0  0.11621559795E+03 -0.18869301034E+03  0.20027154927E+03  0.38951227299E+03  0.25000000000E+03 0.  0.
    5000001    1    1    2    0    0 -0.11621559795E+03  0.18869301034E+03  0.31690727388E+03  0.46047946490E+03  0.25000000000E+03 0.  0.
<mgrwt>
<rscale>  0 0.67454579E+03</rscale>
<asrwt>0</asrwt>
<pdfrwt beam="1">  1        2 0.10516696E+00 0.67454579E+03</pdfrwt>
<pdfrwt beam="2">  1       -2 0.25600994E-01 0.67454579E+03</pdfrwt>
<totfact> 0.58303995E+02</totfact>
</mgrwt>
</event>
<event>
 4    1  0.1773996E-005  0.7223788E+03  0.7818608E-02  0.9679709E-01
         -2   -1    0    0    0  501 -0.00000000000E+00  0.00000000000E+00  0.12380665662E+03  0.12380665665E+03  0.25500000000E-02 0. -1.
          2   -1    0    0  501    0  0.00000000000E+00 -0.00000000000E+00 -0.10537219330E+04  0.10537219330E+04  0.25500000000E-02 0.  1.
   -5000001    1    1    2    0    0 -0.24382960034E+03  0.61084985900E+02 -0.57758054739E+03  0.67770460987E+03  0.25000000000E+03 0.  0.
    5000001    1    1    2    0    0  0.24382960034E+03 -0.61084985900E+02 -0.35233472893E+03  0.49982397974E+03  0.25000000000E+03 0.  0.
<mgrwt>
<rscale>  0 0.72237882E+03</rscale>
<asrwt>0</asrwt>
<pdfrwt beam="1">  1        2 0.16211106E+00 0.72237882E+03</pdfrwt>
<pdfrwt beam="2">  1       -2 0.19047179E-01 0.72237882E+03</pdfrwt>
<totfact> 0.54497565E+02</totfact>
</mgrwt>
</event>
<event>
 4    1  0.1773996E-005  0.6055136E+03  0.7818608E-02  0.9894033E-01
          2   -1    0    0  501    0  0.00000000000E+00  0.00000000000E+00  0.14361894530E+03  0.14361894532E+03  0.25500000000E-02 0.  1.
         -2   -1    0    0    0  501 -0.00000000000E+00 -0.00000000000E+00 -0.63822827802E+03  0.63822827803E+03  0.25500000000E-02 0. -1.
   -5000001    1    1    2    0    0  0.14819753269E+03 -0.84140901888E+02 -0.26141805337E+03  0.39985197098E+03  0.25000000000E+03 0.  0.
    5000001    1    1    2    0    0 -0.14819753269E+03  0.84140901888E+02 -0.23319127936E+03  0.38199525237E+03  0.25000000000E+03 0.  0.
<mgrwt>
<rscale>  0 0.60551357E+03</rscale>
<asrwt>0</asrwt>
<pdfrwt beam="1">  1        2 0.22095223E-01 0.60551357E+03</pdfrwt>
<pdfrwt beam="2">  1       -2 0.98188964E-01 0.60551357E+03</pdfrwt>
<totfact> 0.22069088E+02</totfact>
</mgrwt>
</event>
<event>
 4    1  0.1773996E-005  0.8031820E+03  0.7818608E-02  0.9555423E-01
         -2   -1    0    0    0  501 -0.00000000000E+00  0.00000000000E+00  0.17486258458E+03  0.17486258460E+03  0.25500000000E-02 0. -1.
          2   -1    0    0  501    0  0.00000000000E+00 -0.00000000000E+00 -0.92229749580E+03  0.92229749580E+03  0.25500000000E-02 0.  1.
   -5000001    1    1    2    0    0  0.11384174017E+03 -0.23413963120E+03 -0.13322859692E+03  0.38474818744E+03  0.25000000000E+03 0.  0.
    5000001    1    1    2    0    0 -0.11384174017E+03  0.23413963120E+03 -0.61420631430E+03  0.71241189296E+03  0.25000000000E+03 0.  0.
<mgrwt>
<rscale>  0 0.80318198E+03</rscale>
<asrwt>0</asrwt>
<pdfrwt beam="1">  1        2 0.14189192E+00 0.80318198E+03</pdfrwt>
<pdfrwt beam="2">  1       -2 0.26901937E-01 0.80318198E+03</pdfrwt>
<totfact> 0.35679682E+02</totfact>
</mgrwt>
</event>
<event>
 4    1  0.1773996E-005  0.6686026E+03  0.7818608E-02  0.9772485E-01
         -2   -1    0    0    0  501 -0.00000000000E+00  0.00000000000E+00  0.12438026619E+03  0.12438026621E+03  0.25500000000E-02 0. -1.
          2   -1    0    0  501    0  0.00000000000E+00 -0.00000000000E+00 -0.89851368485E+03  0.89851368486E+03  0.25500000000E-02 0.  1.
   -5000001    1    1    2    0    0 -0.19593730264E+03 -0.47050469777E+02 -0.24475987707E+03  0.40374815256E+03  0.25000000000E+03 0.  0.
    5000001    1    1    2    0    0  0.19593730264E+03  0.47050469777E+02 -0.52937354159E+03  0.61914579851E+03  0.25000000000E+03 0.  0.
<mgrwt>
<rscale>  0 0.66860264E+03</rscale>
<asrwt>0</asrwt>
<pdfrwt beam="1">  1        2 0.13823287E+00 0.66860264E+03</pdfrwt>
<pdfrwt beam="2">  1       -2 0.19135426E-01 0.66860264E+03</pdfrwt>
<totfact> 0.68203131E+02</totfact>
</mgrwt>
</event>
<event>
 4    1  0.1773996E-005  0.1304843E+04  0.7818608E-02  0.9025734E-01
         -2   -1    0    0    0  501 -0.00000000000E+00  0.00000000000E+00  0.71748301067E+03  0.71748301068E+03  0.25500000000E-02 0. -1.
          2   -1    0    0  501    0  0.00000000000E+00 -0.00000000000E+00 -0.59325962212E+03  0.59325962212E+03  0.25500000000E-02 0.  1.
   -5000001    1    1    2    0    0 -0.36749063285E+03  0.14962332534E+03 -0.39349964100E+03  0.61219153227E+03  0.25000000000E+03 0.  0.
    5000001    1    1    2    0    0  0.36749063285E+03 -0.14962332534E+03  0.51772302955E+03  0.69855110053E+03  0.25000000000E+03 0.  0.
<mgrwt>
<rscale>  0 0.13048428E+04</rscale>
<asrwt>0</asrwt>
<pdfrwt beam="1">  1        2 0.91270711E-01 0.13048428E+04</pdfrwt>
<pdfrwt beam="2">  1       -2 0.11038200E+00 0.13048428E+04</pdfrwt>
<totfact> 0.32098325E+01</totfact>
</mgrwt>
</event>
<event>
 4    1  0.1773996E-005  0.5694365E+03  0.7818608E-02  0.9970926E-01
         -2   -1    0    0    0  501 -0.00000000000E+00  0.00000000000E+00  0.10740557375E+03  0.10740557378E+03  0.25500000000E-02 0. -1.
          2   -1    0    0  501    0  0.00000000000E+00 -0.00000000000E+00 -0.75475110412E+03  0.75475110412E+03  0.25500000000E-02 0.  1.
   -5000001    1    1    2    0    0  0.11108994245E+03 -0.52047773833E+02 -0.23391449018E+03  0.36368383905E+03  0.25000000000E+03 0.  0.
    5000001    1    1    2    0    0 -0.11108994245E+03  0.52047773833E+02 -0.41343104019E+03  0.49847283885E+03  0.25000000000E+03 0.  0.
<mgrwt>
<rscale>  0 0.56943648E+03</rscale>
<asrwt>0</asrwt>
<pdfrwt beam="1">  1        2 0.11611555E+00 0.56943648E+03</pdfrwt>
<pdfrwt beam="2">  1       -2 0.16523935E-01 0.56943648E+03</pdfrwt>
<totfact> 0.11099350E+03</totfact>
</mgrwt>
</event>
<event>
 4    1  0.1773996E-005  0.6051339E+03  0.7818608E-02  0.9894812E-01
          2   -1    0    0  501    0  0.00000000000E+00  0.00000000000E+00  0.50410358156E+03  0.50410358157E+03  0.25500000000E-02 0.  1.
         -2   -1    0    0    0  501 -0.00000000000E+00 -0.00000000000E+00 -0.18160307451E+03  0.18160307453E+03  0.25500000000E-02 0. -1.
   -5000001    1    1    2    0    0  0.51452499269E+01  0.15014044275E+03  0.25245382555E+03  0.38574805273E+03  0.25000000000E+03 0.  0.
    5000001    1    1    2    0    0 -0.51452499269E+01 -0.15014044275E+03  0.70046681499E+02  0.29995860337E+03  0.25000000000E+03 0.  0.
<mgrwt>
<rscale>  0 0.60513390E+03</rscale>
<asrwt>0</asrwt>
<pdfrwt beam="1">  1        2 0.77554395E-01 0.60513390E+03</pdfrwt>
<pdfrwt beam="2">  1       -2 0.27938935E-01 0.60513390E+03</pdfrwt>
<totfact> 0.71737341E+02</totfact>
</mgrwt>
</event>
<event>
 4    1  0.1773996E-005  0.7479820E+03  0.7818608E-02  0.9638522E-01
          2   -1    0    0  501    0  0.00000000000E+00  0.00000000000E+00  0.57646873587E+03  0.57646873587E+03  0.25500000000E-02 0.  1.
         -2   -1    0    0    0  501 -0.00000000000E+00 -0.00000000000E+00 -0.24263112554E+03  0.24263112556E+03  0.25500000000E-02 0. -1.
   -5000001    1    1    2    0    0  0.23176302675E+03  0.14969904337E+03  0.12827390903E+03  0.39379956817E+03  0.25000000000E+03 0.  0.
    5000001    1    1    2    0    0 -0.23176302675E+03 -0.14969904337E+03  0.20556370130E+03  0.42530029326E+03  0.25000000000E+03 0.  0.
<mgrwt>
<rscale>  0 0.74798197E+03</rscale>
<asrwt>0</asrwt>
<pdfrwt beam="1">  1        2 0.88687497E-01 0.74798197E+03</pdfrwt>
<pdfrwt beam="2">  1       -2 0.37327866E-01 0.74798197E+03</pdfrwt>
<totfact> 0.35461186E+02</totfact>
</mgrwt>
</event>
<event>
 4    1  0.1773996E-005  0.6740932E+03  0.7818608E-02  0.9762592E-01
          2   -1    0    0  501    0  0.00000000000E+00  0.00000000000E+00  0.14973376576E+04  0.14973376576E+04  0.25500000000E-02 0.  1.
         -2   -1    0    0    0  501 -0.00000000000E+00 -0.00000000000E+00 -0.75868265566E+02  0.75868265609E+02  0.25500000000E-02 0. -1.
   -5000001    1    1    2    0    0  0.21330727111E+03  0.57068761897E+02  0.82371561667E+03  0.88868681358E+03  0.25000000000E+03 0.  0.
    5000001    1    1    2    0    0 -0.21330727111E+03 -0.57068761897E+02  0.59775377540E+03  0.68451910966E+03  0.25000000000E+03 0.  0.
<mgrwt>
<rscale>  0 0.67409320E+03</rscale>
<asrwt>0</asrwt>
<pdfrwt beam="1">  1        2 0.23035963E+00 0.67409320E+03</pdfrwt>
<pdfrwt beam="2">  1       -2 0.11672041E-01 0.67409320E+03</pdfrwt>
<totfact> 0.68952543E+02</totfact>
</mgrwt>
</event>
<event>
 4    1  0.1773996E-005  0.7769045E+03  0.7818608E-02  0.9594062E-01
         -2   -1    0    0    0  501 -0.00000000000E+00  0.00000000000E+00  0.90393140081E+02  0.90393140117E+02  0.25500000000E-02 0. -1.
          2   -1    0    0  501    0  0.00000000000E+00 -0.00000000000E+00 -0.16693209238E+04  0.16693209238E+04  0.25500000000E-02 0.  1.
   -5000001    1    1    2    0    0  0.16975581491E+03 -0.23045963202E+03 -0.60732257492E+03  0.71642821601E+03  0.25000000000E+03 0.  0.
    5000001    1    1    2    0    0 -0.16975581491E+03  0.23045963202E+03 -0.97160520884E+03  0.10432858479E+04  0.25000000000E+03 0.  0.
<mgrwt>
<rscale>  0 0.77690452E+03</rscale>
<asrwt>0</asrwt>
<pdfrwt beam="1">  1        2 0.25681858E+00 0.77690452E+03</pdfrwt>
<pdfrwt beam="2">  1       -2 0.13906638E-01 0.77690452E+03</pdfrwt>
<totfact> 0.41177429E+02</totfact>
</mgrwt>
</event>
<event>
 4    1  0.1773996E-005  0.1780415E+04  0.7818608E-02  0.8716785E-01
          2   -1    0    0  501    0  0.00000000000E+00  0.00000000000E+00  0.90264137056E+03  0.90264137057E+03  0.25500000000E-02 0.  1.
         -2   -1    0    0    0  501 -0.00000000000E+00 -0.00000000000E+00 -0.87794462877E+03  0.87794462878E+03  0.25500000000E-02 0. -1.
   -5000001    1    1    2    0    0 -0.58681295827E+03 -0.58489684657E+03 -0.19627508622E+03  0.88739939068E+03  0.25000000000E+03 0.  0.
    5000001    1    1    2    0    0  0.58681295827E+03  0.58489684657E+03  0.22097182800E+03  0.89318660866E+03  0.25000000000E+03 0.  0.
<mgrwt>
<rscale>  0 0.17804147E+04</rscale>
<asrwt>0</asrwt>
<pdfrwt beam="1">  1        2 0.13886790E+00 0.17804147E+04</pdfrwt>
<pdfrwt beam="2">  1       -2 0.13506840E+00 0.17804147E+04</pdfrwt>
<totfact> 0.10877327E+01</totfact>
</mgrwt>
</event>
<event>
 4    1  0.1773996E-005  0.6770214E+03  0.7818608E-02  0.9757356E-01
          2   -1    0    0  501    0  0.00000000000E+00  0.00000000000E+00  0.54769423718E+03  0.54769423719E+03  0.25500000000E-02 0.  1.
         -2   -1    0    0    0  501 -0.00000000000E+00 -0.00000000000E+00 -0.20922163406E+03  0.20922163407E+03  0.25500000000E-02 0. -1.
   -5000001    1    1    2    0    0  0.15101059195E+03  0.40548137182E+02  0.35511223206E+03  0.46157669749E+03  0.25000000000E+03 0.  0.
    5000001    1    1    2    0    0 -0.15101059195E+03 -0.40548137182E+02 -0.16639628938E+02  0.29533917377E+03  0.25000000000E+03 0.  0.
<mgrwt>
<rscale>  0 0.67702137E+03</rscale>
<asrwt>0</asrwt>
<pdfrwt beam="1">  1        2 0.84260650E-01 0.67702137E+03</pdfrwt>
<pdfrwt beam="2">  1       -2 0.32187945E-01 0.67702137E+03</pdfrwt>
<totfact> 0.50032476E+02</totfact>
</mgrwt>
</event>
<event>
 4    1  0.1773996E-005  0.6097562E+03  0.7818608E-02  0.9885369E-01
          2   -1    0    0  501    0  0.00000000000E+00  0.00000000000E+00  0.40870710965E+03  0.40870710965E+03  0.25500000000E-02 0.  1.
         -2   -1    0    0    0  501 -0.00000000000E+00 -0.00000000000E+00 -0.22742604948E+03  0.22742604949E+03  0.25500000000E-02 0. -1.
   -5000001    1    1    2    0    0  0.11180505378E+03 -0.13383300258E+03  0.97155735796E+02  0.31992324021E+03  0.25000000000E+03 0.  0.
    5000001    1    1    2    0    0 -0.11180505378E+03  0.13383300258E+03  0.84125324374E+02  0.31620991893E+03  0.25000000000E+03 0.  0.
<mgrwt>
<rscale>  0 0.60975616E+03</rscale>
<asrwt>0</asrwt>
<pdfrwt beam="1">  1        2 0.62878016E-01 0.60975616E+03</pdfrwt>
<pdfrwt beam="2">  1       -2 0.34988624E-01 0.60975616E+03</pdfrwt>
<totfact> 0.59889492E+02</totfact>
</mgrwt>
</event>
<event>
 4    1  0.1773996E-005  0.6852876E+03  0.7818608E-02  0.9742728E-01
         -2   -1    0    0    0  501 -0.00000000000E+00  0.00000000000E+00  0.16623679813E+03  0.16623679815E+03  0.25500000000E-02 0. -1.
          2   -1    0    0  501    0  0.00000000000E+00 -0.00000000000E+00 -0.70625017306E+03  0.70625017307E+03  0.25500000000E-02 0.  1.
   -5000001    1    1    2    0    0 -0.22295666634E+03 -0.66224239645E+02 -0.23378413218E+03  0.41382405131E+03  0.25000000000E+03 0.  0.
    5000001    1    1    2    0    0  0.22295666634E+03  0.66224239645E+02 -0.30622924276E+03  0.45866291991E+03  0.25000000000E+03 0.  0.
<mgrwt>
<rscale>  0 0.68528758E+03</rscale>
<asrwt>0</asrwt>
<pdfrwt beam="1">  1        2 0.10865387E+00 0.68528758E+03</pdfrwt>
<pdfrwt beam="2">  1       -2 0.25574892E-01 0.68528758E+03</pdfrwt>
<totfact> 0.56050914E+02</totfact>
</mgrwt>
</event>
<event>
 4    1  0.1773996E-005  0.5481583E+03  0.7818608E-02  0.1001921E+00
          2   -1    0    0  501    0  0.00000000000E+00  0.00000000000E+00  0.63989771540E+03  0.63989771541E+03  0.25500000000E-02 0.  1.
         -2   -1    0    0    0  501 -0.00000000000E+00 -0.00000000000E+00 -0.11739281330E+03  0.11739281333E+03  0.25500000000E-02 0. -1.
   -5000001    1    1    2    0    0 -0.23615515977E+02  0.88347671551E+02  0.17112083249E+03  0.31645749000E+03  0.25000000000E+03 0.  0.
    5000001    1    1    2    0    0  0.23615515977E+02 -0.88347671551E+02  0.35138406961E+03  0.44083303874E+03  0.25000000000E+03 0.  0.
<mgrwt>
<rscale>  0 0.54815835E+03</rscale>
<asrwt>0</asrwt>
<pdfrwt beam="1">  1        2 0.98445803E-01 0.54815835E+03</pdfrwt>
<pdfrwt beam="2">  1       -2 0.18060433E-01 0.54815835E+03</pdfrwt>
<totfact> 0.11719178E+03</totfact>
</mgrwt>
</event>
<event>
 4    1  0.1773996E-005  0.9089646E+03  0.7818608E-02  0.9414444E-01
         -2   -1    0    0    0  501 -0.00000000000E+00  0.00000000000E+00  0.16053372469E+03  0.16053372471E+03  0.25500000000E-02 0. -1.
          2   -1    0    0  501    0  0.00000000000E+00 -0.00000000000E+00 -0.12866713250E+04  0.12866713250E+04  0.25500000000E-02 0.  1.
   -5000001    1    1    2    0    0  0.34896164982E+03 -0.36118068106E+02 -0.79365757834E+03  0.90303438448E+03  0.25000000000E+03 0.  0.
    5000001    1    1    2    0    0 -0.34896164982E+03  0.36118068106E+02 -0.33248002197E+03  0.54417066523E+03  0.25000000000E+03 0.  0.
<mgrwt>
<rscale>  0 0.90896455E+03</rscale>
<asrwt>0</asrwt>
<pdfrwt beam="1">  1        2 0.19794943E+00 0.90896455E+03</pdfrwt>
<pdfrwt beam="2">  1       -2 0.24697497E-01 0.90896455E+03</pdfrwt>
<totfact> 0.24708294E+02</totfact>
</mgrwt>
</event>
<event>
 4    1  0.1773996E-005  0.6120759E+03  0.7818608E-02  0.9880664E-01
          2   -1    0    0  501    0  0.00000000000E+00  0.00000000000E+00  0.97156494288E+03  0.97156494288E+03  0.25500000000E-02 0.  1.
         -2   -1    0    0    0  501 -0.00000000000E+00 -0.00000000000E+00 -0.96400373115E+02  0.96400373149E+02  0.25500000000E-02 0. -1.
   -5000001    1    1    2    0    0  0.14344460266E+03 -0.10198249875E+03  0.41401494078E+03  0.51466994790E+03  0.25000000000E+03 0.  0.
    5000001    1    1    2    0    0 -0.14344460266E+03  0.10198249875E+03  0.46114962899E+03  0.55329536813E+03  0.25000000000E+03 0.  0.
<mgrwt>
<rscale>  0 0.61207589E+03</rscale>
<asrwt>0</asrwt>
<pdfrwt beam="1">  1        2 0.14947154E+00 0.61207589E+03</pdfrwt>
<pdfrwt beam="2">  1       -2 0.14830826E-01 0.61207589E+03</pdfrwt>
<totfact> 0.94566042E+02</totfact>
</mgrwt>
</event>
<event>
 4    1  0.1773996E-005  0.6859208E+03  0.7818608E-02  0.9741617E-01
         -2   -1    0    0    0  501 -0.00000000000E+00  0.00000000000E+00  0.42653287441E+02  0.42653287517E+02  0.25500000000E-02 0. -1.
          2   -1    0    0  501    0  0.00000000000E+00 -0.00000000000E+00 -0.27576268569E+04  0.27576268569E+04  0.25500000000E-02 0.  1.
   -5000001    1    1    2    0    0 -0.68733206673E+01 -0.21491168048E+03 -0.17423613369E+04  0.17732899654E+04  0.25000000000E+03 0.  0.
    5000001    1    1    2    0    0  0.68733206673E+01  0.21491168048E+03 -0.97261223254E+03  0.10269901790E+04  0.25000000000E+03 0.  0.
<mgrwt>
<rscale>  0 0.68592084E+03</rscale>
<asrwt>0</asrwt>
<pdfrwt beam="1">  1        2 0.42425015E+00 0.68592084E+03</pdfrwt>
<pdfrwt beam="2">  1       -2 0.65620464E-02 0.68592084E+03</pdfrwt>
<totfact> 0.34831339E+02</totfact>
</mgrwt>
</event>
<event>
 4    1  0.1773996E-005  0.7087439E+03  0.7818608E-02  0.9702395E-01
         -2   -1    0    0    0  501 -0.00000000000E+00  0.00000000000E+00  0.11696433898E+03  0.11696433900E+03  0.25500000000E-02 0. -1.
          2   -1    0    0  501    0  0.00000000000E+00 -0.00000000000E+00 -0.10736561231E+04  0.10736561231E+04  0.25500000000E-02 0.  1.
   -5000001    1    1    2    0    0  0.10838625719E+03 -0.15079492592E+03 -0.19428446604E+03  0.36706013700E+03  0.25000000000E+03 0.  0.
    5000001    1    1    2    0    0 -0.10838625719E+03  0.15079492592E+03 -0.76240731810E+03  0.82356032513E+03  0.25000000000E+03 0.  0.
<mgrwt>
<rscale>  0 0.70874390E+03</rscale>
<asrwt>0</asrwt>
<pdfrwt beam="1">  1        2 0.16517786E+00 0.70874390E+03</pdfrwt>
<pdfrwt beam="2">  1       -2 0.17994514E-01 0.70874390E+03</pdfrwt>
<totfact> 0.58480537E+02</totfact>
</mgrwt>
</event>
<event>
 4    1  0.1773996E-005  0.9233784E+03  0.7818608E-02  0.9396820E-01
         -2   -1    0    0    0  501 -0.00000000000E+00  0.00000000000E+00  0.18338469688E+03  0.18338469690E+03  0.25500000000E-02 0. -1.
          2   -1    0    0  501    0  0.00000000000E+00 -0.00000000000E+00 -0.11623484542E+04  0.11623484542E+04  0.25500000000E-02 0.  1.
   -5000001    1    1    2    0    0  0.14499879017E+03  0.11823527148E+03  0.61475762903E+01  0.31231718055E+03  0.25000000000E+03 0.  0.
    5000001    1    1    2    0    0 -0.14499879017E+03 -0.11823527148E+03 -0.98511133358E+03  0.10334159705E+04  0.25000000000E+03 0.  0.
<mgrwt>
<rscale>  0 0.92337840E+03</rscale>
<asrwt>0</asrwt>
<pdfrwt beam="1">  1        2 0.17882284E+00 0.92337840E+03</pdfrwt>
<pdfrwt beam="2">  1       -2 0.28213031E-01 0.92337840E+03</pdfrwt>
<totfact> 0.22942372E+02</totfact>
</mgrwt>
</event>
<event>
 4    1  0.1773996E-005  0.9474617E+03  0.7818608E-02  0.9368122E-01
         -2   -1    0    0    0  501 -0.00000000000E+00  0.00000000000E+00  0.13701498275E+03  0.13701498277E+03  0.25500000000E-02 0. -1.
          2   -1    0    0  501    0  0.00000000000E+00 -0.00000000000E+00 -0.16379298993E+04  0.16379298993E+04  0.25500000000E-02 0.  1.
   -5000001    1    1    2    0    0 -0.10371490889E+03 -0.36413807290E+03 -0.10057283478E+04  0.11033326008E+04  0.25000000000E+03 0.  0.
    5000001    1    1    2    0    0  0.10371490889E+03  0.36413807290E+03 -0.49518656879E+03  0.67161228129E+03  0.25000000000E+03 0.  0.
<mgrwt>
<rscale>  0 0.94746174E+03</rscale>
<asrwt>0</asrwt>
<pdfrwt beam="1">  1        2 0.25198920E+00 0.94746174E+03</pdfrwt>
<pdfrwt beam="2">  1       -2 0.21079229E-01 0.94746174E+03</pdfrwt>
<totfact> 0.20716982E+02</totfact>
</mgrwt>
</event>
<event>
 4    1  0.1773996E-005  0.6686847E+03  0.7818608E-02  0.9772337E-01
          2   -1    0    0  501    0  0.00000000000E+00  0.00000000000E+00  0.63810644568E+03  0.63810644568E+03  0.25500000000E-02 0.  1.
         -2   -1    0    0    0  501 -0.00000000000E+00 -0.00000000000E+00 -0.17518204407E+03  0.17518204408E+03  0.25500000000E-02 0. -1.
   -5000001    1    1    2    0    0 -0.65523979457E+02  0.18806820025E+03  0.35076491976E+03  0.47455143954E+03  0.25000000000E+03 0.  0.
    5000001    1    1    2    0    0  0.65523979457E+02 -0.18806820025E+03  0.11215948185E+03  0.33873705023E+03  0.25000000000E+03 0.  0.
<mgrwt>
<rscale>  0 0.66868465E+03</rscale>
<asrwt>0</asrwt>
<pdfrwt beam="1">  1        2 0.98170223E-01 0.66868465E+03</pdfrwt>
<pdfrwt beam="2">  1       -2 0.26951083E-01 0.66868465E+03</pdfrwt>
<totfact> 0.57839782E+02</totfact>
</mgrwt>
</event>
<event>
 4    1  0.1773996E-005  0.6913141E+03  0.7818608E-02  0.9732203E-01
          2   -1    0    0  501    0  0.00000000000E+00  0.00000000000E+00  0.24471165429E+04  0.24471165429E+04  0.25500000000E-02 0.  1.
         -2   -1    0    0    0  501 -0.00000000000E+00 -0.00000000000E+00 -0.48824313640E+02  0.48824313707E+02  0.25500000000E-02 0. -1.
   -5000001    1    1    2    0    0  0.19046821652E+03 -0.14341962113E+03  0.11577509268E+04  0.12081947433E+04  0.25000000000E+03 0.  0.
    5000001    1    1    2    0    0 -0.19046821652E+03  0.14341962113E+03  0.12405413024E+04  0.12877461133E+04  0.25000000000E+03 0.  0.
<mgrwt>
<rscale>  0 0.69131407E+03</rscale>
<asrwt>0</asrwt>
<pdfrwt beam="1">  1        2 0.37647942E+00 0.69131407E+03</pdfrwt>
<pdfrwt beam="2">  1       -2 0.75114339E-02 0.69131407E+03</pdfrwt>
<totfact> 0.42333328E+02</totfact>
</mgrwt>
</event>
<event>
 4    1  0.1773996E-005  0.5346490E+03  0.7818608E-02  0.1005111E+00
         -2   -1    0    0    0  501 -0.00000000000E+00  0.00000000000E+00  0.61190647612E+02  0.61190647665E+02  0.25500000000E-02 0. -1.
          2   -1    0    0  501    0  0.00000000000E+00 -0.00000000000E+00 -0.11678645581E+04  0.11678645581E+04  0.25500000000E-02 0.  1.
   -5000001    1    1    2    0    0 -0.77338571359E+02 -0.53540237763E+02 -0.57794353944E+03  0.63668402403E+03  0.25000000000E+03 0.  0.
    5000001    1    1    2    0    0  0.77338571359E+02  0.53540237763E+02 -0.52873037104E+03  0.59237118173E+03  0.25000000000E+03 0.  0.
<mgrwt>
<rscale>  0 0.53464900E+03</rscale>
<asrwt>0</asrwt>
<pdfrwt beam="1">  1        2 0.17967145E+00 0.53464900E+03</pdfrwt>
<pdfrwt beam="2">  1       -2 0.94139467E-02 0.53464900E+03</pdfrwt>
<totfact> 0.15158142E+03</totfact>
</mgrwt>
</event>
<event>
 4    1  0.1773996E-005  0.8332863E+03  0.7818608E-02  0.9513048E-01
          2   -1    0    0  501    0  0.00000000000E+00  0.00000000000E+00  0.15738512096E+03  0.15738512098E+03  0.25500000000E-02 0.  1.
         -2   -1    0    0    0  501 -0.00000000000E+00 -0.00000000000E+00 -0.11029729661E+04  0.11029729662E+04  0.25500000000E-02 0. -1.
   -5000001    1    1    2    0    0  0.12045407964E+03 -0.24555759185E+03 -0.76090249035E+03  0.84633345440E+03  0.25000000000E+03 0.  0.
    5000001    1    1    2    0    0 -0.12045407964E+03  0.24555759185E+03 -0.18468535484E+03  0.41402463273E+03  0.25000000000E+03 0.  0.
<mgrwt>
<rscale>  0 0.83328635E+03</rscale>
<asrwt>0</asrwt>
<pdfrwt beam="1">  1        2 0.24213096E-01 0.83328635E+03</pdfrwt>
<pdfrwt beam="2">  1       -2 0.16968814E+00 0.83328635E+03</pdfrwt>
<totfact> 0.49107154E+01</totfact>
</mgrwt>
</event>
<event>
 4    1  0.1773996E-005  0.5793108E+03  0.7818608E-02  0.9949284E-01
         -2   -1    0    0    0  501 -0.00000000000E+00  0.00000000000E+00  0.11449308221E+03  0.11449308223E+03  0.25500000000E-02 0. -1.
          2   -1    0    0  501    0  0.00000000000E+00 -0.00000000000E+00 -0.73279762801E+03  0.73279762802E+03  0.25500000000E-02 0.  1.
   -5000001    1    1    2    0    0  0.76107863885E+02 -0.12493111911E+03 -0.30877197443E+03  0.42336783494E+03  0.25000000000E+03 0.  0.
    5000001    1    1    2    0    0 -0.76107863885E+02  0.12493111911E+03 -0.30953257138E+03  0.42392287531E+03  0.25000000000E+03 0.  0.
<mgrwt>
<rscale>  0 0.57931083E+03</rscale>
<asrwt>0</asrwt>
<pdfrwt beam="1">  1        2 0.11273809E+00 0.57931083E+03</pdfrwt>
<pdfrwt beam="2">  1       -2 0.17614321E-01 0.57931083E+03</pdfrwt>
<totfact> 0.10332991E+03</totfact>
</mgrwt>
</event>
<event>
 4    1  0.1773996E-005  0.8073262E+03  0.7818608E-02  0.9549473E-01
          2   -1    0    0  501    0  0.00000000000E+00  0.00000000000E+00  0.12889260724E+04  0.12889260724E+04  0.25500000000E-02 0.  1.
         -2   -1    0    0    0  501 -0.00000000000E+00 -0.00000000000E+00 -0.12641835509E+03  0.12641835511E+03  0.25500000000E-02 0. -1.
   -5000001    1    1    2    0    0  0.18085113808E+03 -0.73764807557E+02  0.14368991835E+03  0.34827456642E+03  0.25000000000E+03 0.  0.
    5000001    1    1    2    0    0 -0.18085113808E+03  0.73764807557E+02  0.10188177990E+04  0.10670698611E+04  0.25000000000E+03 0.  0.
<mgrwt>
<rscale>  0 0.80732624E+03</rscale>
<asrwt>0</asrwt>
<pdfrwt beam="1">  1        2 0.19829631E+00 0.80732624E+03</pdfrwt>
<pdfrwt beam="2">  1       -2 0.19448979E-01 0.80732624E+03</pdfrwt>
<totfact> 0.37851505E+02</totfact>
</mgrwt>
</event>
<event>
 4    1  0.1773996E-005  0.7457738E+03  0.7818608E-02  0.9642004E-01
          2   -1    0    0  501    0  0.00000000000E+00  0.00000000000E+00  0.62478114590E+03  0.62478114591E+03  0.25500000000E-02 0.  1.
         -2   -1    0    0    0  501 -0.00000000000E+00 -0.00000000000E+00 -0.22254934163E+03  0.22254934164E+03  0.25500000000E-02 0. -1.
   -5000001    1    1    2    0    0 -0.94057047945E+02 -0.14377522462E+03  0.44750271691E+03  0.54062623422E+03  0.25000000000E+03 0.  0.
    5000001    1    1    2    0    0  0.94057047945E+02  0.14377522462E+03 -0.45270912632E+02  0.30670425333E+03  0.25000000000E+03 0.  0.
<mgrwt>
<rscale>  0 0.74577378E+03</rscale>
<asrwt>0</asrwt>
<pdfrwt beam="1">  1        2 0.96120176E-01 0.74577378E+03</pdfrwt>
<pdfrwt beam="2">  1       -2 0.34238360E-01 0.74577378E+03</pdfrwt>
<totfact> 0.37956738E+02</totfact>
</mgrwt>
</event>
<event>
 4    1  0.1773996E-005  0.6297345E+03  0.7818608E-02  0.9845567E-01
         -2   -1    0    0    0  501 -0.00000000000E+00  0.00000000000E+00  0.93409795297E+02  0.93409795332E+02  0.25500000000E-02 0. -1.
          2   -1    0    0  501    0  0.00000000000E+00 -0.00000000000E+00 -0.10613597519E+04  0.10613597519E+04  0.25500000000E-02 0.  1.
   -5000001    1    1    2    0    0 -0.47517390929E+01 -0.17913006480E+03 -0.60741223126E+03  0.68085224375E+03  0.25000000000E+03 0.  0.
    5000001    1    1    2    0    0  0.47517390929E+01  0.17913006480E+03 -0.36053772532E+03  0.47391730346E+03  0.25000000000E+03 0.  0.
<mgrwt>
<rscale>  0 0.62973454E+03</rscale>
<asrwt>0</asrwt>
<pdfrwt beam="1">  1        2 0.16328611E+00 0.62973454E+03</pdfrwt>
<pdfrwt beam="2">  1       -2 0.14370738E-01 0.62973454E+03</pdfrwt>
<totfact> 0.87496788E+02</totfact>
</mgrwt>
</event>
<event>
 4    1  0.1773996E-005  0.5682622E+03  0.7818608E-02  0.9973531E-01
         -2   -1    0    0    0  501 -0.00000000000E+00  0.00000000000E+00  0.52948819837E+02  0.52948819898E+02  0.25500000000E-02 0. -1.
          2   -1    0    0  501    0  0.00000000000E+00 -0.00000000000E+00 -0.15246890913E+04  0.15246890913E+04  0.25500000000E-02 0.  1.
   -5000001    1    1    2    0    0 -0.87865802692E+02  0.83039504660E+02 -0.90278093317E+03  0.94452600383E+03  0.25000000000E+03 0.  0.
    5000001    1    1    2    0    0  0.87865802692E+02 -0.83039504660E+02 -0.56895933825E+03  0.63311190733E+03  0.25000000000E+03 0.  0.
<mgrwt>
<rscale>  0 0.56826222E+03</rscale>
<asrwt>0</asrwt>
<pdfrwt beam="1">  1        2 0.23456752E+00 0.56826222E+03</pdfrwt>
<pdfrwt beam="2">  1       -2 0.81459734E-02 0.56826222E+03</pdfrwt>
<totfact> 0.11985734E+03</totfact>
</mgrwt>
</event>
<event>
 4    1  0.1773996E-005  0.7269913E+03  0.7818608E-02  0.9672155E-01
          2   -1    0    0  501    0  0.00000000000E+00  0.00000000000E+00  0.12756862840E+04  0.12756862840E+04  0.25500000000E-02 0. -1.
         -2   -1    0    0    0  501 -0.00000000000E+00 -0.00000000000E+00 -0.10357490511E+03  0.10357490515E+03  0.25500000000E-02 0.  1.
   -5000001    1    1    2    0    0 -0.84780216078E+02 -0.21855803251E+03  0.35623537537E+03  0.49432675557E+03  0.25000000000E+03 0.  0.
    5000001    1    1    2    0    0  0.84780216078E+02  0.21855803251E+03  0.81587600356E+03  0.88493443361E+03  0.25000000000E+03 0.  0.
<mgrwt>
<rscale>  0 0.72699130E+03</rscale>
<asrwt>0</asrwt>
<pdfrwt beam="1">  1        2 0.19625944E+00 0.72699130E+03</pdfrwt>
<pdfrwt beam="2">  1       -2 0.15934600E-01 0.72699130E+03</pdfrwt>
<totfact> 0.54528719E+02</totfact>
</mgrwt>
</event>
<event>
 4    1  0.1773996E-005  0.5844023E+03  0.7818608E-02  0.9938305E-01
          2   -1    0    0  501    0  0.00000000000E+00  0.00000000000E+00  0.17015014442E+04  0.17015014442E+04  0.25500000000E-02 0.  1.
         -2   -1    0    0    0  501 -0.00000000000E+00 -0.00000000000E+00 -0.50180097839E+02  0.50180097904E+02  0.25500000000E-02 0. -1.
   -5000001    1    1    2    0    0  0.11496901104E+03  0.33249074758E+02  0.11029497741E+04  0.11372429726E+04  0.25000000000E+03 0.  0.
    5000001    1    1    2    0    0 -0.11496901104E+03 -0.33249074758E+02  0.54837157229E+03  0.61443856956E+03  0.25000000000E+03 0.  0.
<mgrwt>
<rscale>  0 0.58440229E+03</rscale>
<asrwt>0</asrwt>
<pdfrwt beam="1">  1        2 0.26176949E+00 0.58440229E+03</pdfrwt>
<pdfrwt beam="2">  1       -2 0.77200141E-02 0.58440229E+03</pdfrwt>
<totfact> 0.10446592E+03</totfact>
</mgrwt>
</event>
<event>
 4    1  0.1773996E-005  0.5359485E+03  0.7818608E-02  0.1004800E+00
         -2   -1    0    0    0  501 -0.00000000000E+00  0.00000000000E+00  0.11086590354E+03  0.11086590357E+03  0.25500000000E-02 0. -1.
          2   -1    0    0  501    0  0.00000000000E+00 -0.00000000000E+00 -0.64772125045E+03  0.64772125045E+03  0.25500000000E-02 0.  1.
   -5000001    1    1    2    0    0  0.31600024209E+02 -0.87597838226E+02 -0.23266904506E+03  0.35398704400E+03  0.25000000000E+03 0.  0.
    5000001    1    1    2    0    0 -0.31600024209E+02  0.87597838226E+02 -0.30418630186E+03  0.40460011002E+03  0.25000000000E+03 0.  0.
<mgrwt>
<rscale>  0 0.53594851E+03</rscale>
<asrwt>0</asrwt>
<pdfrwt beam="1">  1        2 0.99649421E-01 0.53594851E+03</pdfrwt>
<pdfrwt beam="2">  1       -2 0.17056293E-01 0.53594851E+03</pdfrwt>
<totfact> 0.12735517E+03</totfact>
</mgrwt>
</event>
<event>
 4    1  0.1773996E-005  0.8819252E+03  0.7818608E-02  0.9448462E-01
         -2   -1    0    0    0  501 -0.00000000000E+00  0.00000000000E+00  0.29360666859E+03  0.29360666860E+03  0.25500000000E-02 0. -1.
          2   -1    0    0  501    0  0.00000000000E+00 -0.00000000000E+00 -0.66227385123E+03  0.66227385124E+03  0.25500000000E-02 0.  1.
   -5000001    1    1    2    0    0  0.36019844339E+03  0.27836122884E+02 -0.22532359474E+03  0.49374942096E+03  0.25000000000E+03 0.  0.
    5000001    1    1    2    0    0 -0.36019844339E+03 -0.27836122884E+02 -0.14334358791E+03  0.46213109888E+03  0.25000000000E+03 0.  0.
<mgrwt>
<rscale>  0 0.88192521E+03</rscale>
<asrwt>0</asrwt>
<pdfrwt beam="1">  1        2 0.10188828E+00 0.88192521E+03</pdfrwt>
<pdfrwt beam="2">  1       -2 0.45170257E-01 0.88192521E+03</pdfrwt>
<totfact> 0.20492151E+02</totfact>
</mgrwt>
</event>
<event>
 4    1  0.1773996E-005  0.1760677E+04  0.7818608E-02  0.8727495E-01
          2   -1    0    0  501    0  0.00000000000E+00  0.00000000000E+00  0.23466783603E+04  0.23466783603E+04  0.25500000000E-02 0.  1.
         -2   -1    0    0    0  501 -0.00000000000E+00 -0.00000000000E+00 -0.33025237624E+03  0.33025237625E+03  0.25500000000E-02 0. -1.
   -5000001    1    1    2    0    0 -0.34888846504E+03  0.71964776938E+03  0.59776167321E+03  0.10292886335E+04  0.25000000000E+03 0.  0.
    5000001    1    1    2    0    0  0.34888846504E+03 -0.71964776938E+03  0.14186643108E+04  0.16476421031E+04  0.25000000000E+03 0.  0.
<mgrwt>
<rscale>  0 0.17606773E+04</rscale>
<asrwt>0</asrwt>
<pdfrwt beam="1">  1        2 0.36102745E+00 0.17606773E+04</pdfrwt>
<pdfrwt beam="2">  1       -2 0.50808057E-01 0.17606773E+04</pdfrwt>
<totfact> 0.14801833E+01</totfact>
</mgrwt>
</event>
<event>
 4    1  0.1773996E-005  0.9692253E+03  0.7818608E-02  0.9342957E-01
         -2   -1    0    0    0  501 -0.00000000000E+00  0.00000000000E+00  0.41265849439E+03  0.41265849440E+03  0.25500000000E-02 0. -1.
          2   -1    0    0  501    0  0.00000000000E+00 -0.00000000000E+00 -0.56911327456E+03  0.56911327456E+03  0.25500000000E-02 0.  1.
   -5000001    1    1    2    0    0 -0.21778365773E+03  0.34185855662E+03 -0.16912434695E+03  0.50537118937E+03  0.25000000000E+03 0.  0.
    5000001    1    1    2    0    0  0.21778365773E+03 -0.34185855662E+03  0.12669566784E+02  0.47640057959E+03  0.25000000000E+03 0.  0.
<mgrwt>
<rscale>  0 0.96922531E+03</rscale>
<asrwt>0</asrwt>
<pdfrwt beam="1">  1        2 0.87555888E-01 0.96922531E+03</pdfrwt>
<pdfrwt beam="2">  1       -2 0.63485922E-01 0.96922531E+03</pdfrwt>
<totfact> 0.12146319E+02</totfact>
</mgrwt>
</event>
<event>
 4    1  0.1773996E-005  0.1807428E+04  0.7818608E-02  0.8702360E-01
          2   -1    0    0  501    0  0.00000000000E+00  0.00000000000E+00  0.12358858174E+04  0.12358858174E+04  0.25500000000E-02 0.  1.
         -2   -1    0    0    0  501 -0.00000000000E+00 -0.00000000000E+00 -0.66082041199E+03  0.66082041200E+03  0.25500000000E-02 0. -1.
   -5000001    1    1    2    0    0  0.78333221818E+03 -0.24840945850E+03  0.58226518398E+03  0.10377135287E+04  0.25000000000E+03 0.  0.
    5000001    1    1    2    0    0 -0.78333221818E+03  0.24840945850E+03 -0.71997785687E+01  0.85899270074E+03  0.25000000000E+03 0.  0.
<mgrwt>
<rscale>  0 0.18074275E+04</rscale>
<asrwt>0</asrwt>
<pdfrwt beam="1">  1        2 0.19013628E+00 0.18074275E+04</pdfrwt>
<pdfrwt beam="2">  1       -2 0.10166468E+00 0.18074275E+04</pdfrwt>
<totfact> 0.13513070E+01</totfact>
</mgrwt>
</event>
<event>
 4    1  0.1773996E-005  0.7128770E+03  0.7818608E-02  0.9695461E-01
         -2   -1    0    0    0  501 -0.00000000000E+00  0.00000000000E+00  0.39339235945E+02  0.39339236027E+02  0.25500000000E-02 0. -1.
          2   -1    0    0  501    0  0.00000000000E+00 -0.00000000000E+00 -0.32295596976E+04  0.32295596976E+04  0.25500000000E-02 0.  1.
   -5000001    1    1    2    0    0  0.59105160448E+02 -0.21679902047E+03 -0.10515169016E+04  0.11039397763E+04  0.25000000000E+03 0.  0.
    5000001    1    1    2    0    0 -0.59105160448E+02  0.21679902047E+03 -0.21387035601E+04  0.21649591574E+04  0.25000000000E+03 0.  0.
<mgrwt>
<rscale>  0 0.71287702E+03</rscale>
<asrwt>0</asrwt>
<pdfrwt beam="1">  1        2 0.49685513E+00 0.71287702E+03</pdfrwt>
<pdfrwt beam="2">  1       -2 0.60521927E-02 0.71287702E+03</pdfrwt>
<totfact> 0.20310928E+02</totfact>
</mgrwt>
</event>
<event>
 4    1  0.1773996E-005  0.6102304E+03  0.7818608E-02  0.9884406E-01
          2   -1    0    0  501    0  0.00000000000E+00  0.00000000000E+00  0.11006621952E+04  0.11006621952E+04  0.25500000000E-02 0.  1.
         -2   -1    0    0    0  501 -0.00000000000E+00 -0.00000000000E+00 -0.84581164304E+02  0.84581164343E+02  0.25500000000E-02 0. -1.
   -5000001    1    1    2    0    0 -0.42857838889E+02  0.10368024590E+03  0.24739077245E+03  0.36917283491E+03  0.25000000000E+03 0.  0.
    5000001    1    1    2    0    0  0.42857838889E+02 -0.10368024590E+03  0.76869025843E+03  0.81607052462E+03  0.25000000000E+03 0.  0.
<mgrwt>
<rscale>  0 0.61023042E+03</rscale>
<asrwt>0</asrwt>
<pdfrwt beam="1">  1        2 0.16933264E+00 0.61023042E+03</pdfrwt>
<pdfrwt beam="2">  1       -2 0.13012487E-01 0.61023042E+03</pdfrwt>
<totfact> 0.97769489E+02</totfact>
</mgrwt>
</event>
<event>
 4    1  0.1773996E-005  0.6421214E+03  0.7818608E-02  0.9821676E-01
          2   -1    0    0  501    0  0.00000000000E+00  0.00000000000E+00  0.47224576511E+02  0.47224576580E+02  0.25500000000E-02 0.  1.
         -2   -1    0    0    0  501 -0.00000000000E+00 -0.00000000000E+00 -0.21827612324E+04  0.21827612324E+04  0.25500000000E-02 0. -1.
   -5000001    1    1    2    0    0 -0.16603007286E+03  0.22617410642E+02 -0.14560817349E+04  0.14868596272E+04  0.25000000000E+03 0.  0.
    5000001    1    1    2    0    0  0.16603007286E+03 -0.22617410642E+02 -0.67945492100E+03  0.74312618177E+03  0.25000000000E+03 0.  0.
<mgrwt>
<rscale>  0 0.64212141E+03</rscale>
<asrwt>0</asrwt>
<pdfrwt beam="1">  1        2 0.72653212E-02 0.64212141E+03</pdfrwt>
<pdfrwt beam="2">  1       -2 0.33580934E+00 0.64212141E+03</pdfrwt>
<totfact> 0.20410729E+01</totfact>
</mgrwt>
</event>
<event>
 4    1  0.1773996E-005  0.7563155E+03  0.7818608E-02  0.9625494E-01
         -2   -1    0    0    0  501 -0.00000000000E+00  0.00000000000E+00  0.11962052097E+03  0.11962052100E+03  0.25500000000E-02 0. -1.
          2   -1    0    0  501    0  0.00000000000E+00 -0.00000000000E+00 -0.11954746471E+04  0.11954746471E+04  0.25500000000E-02 0.  1.
   -5000001    1    1    2    0    0 -0.12933846992E+03  0.22440896151E+03 -0.33652809676E+03  0.49278695368E+03  0.25000000000E+03 0.  0.
    5000001    1    1    2    0    0  0.12933846992E+03 -0.22440896151E+03 -0.73932602941E+03  0.82230821446E+03  0.25000000000E+03 0.  0.
<mgrwt>
<rscale>  0 0.75631554E+03</rscale>
<asrwt>0</asrwt>
<pdfrwt beam="1">  1        2 0.18391917E+00 0.75631554E+03</pdfrwt>
<pdfrwt beam="2">  1       -2 0.18403158E-01 0.75631554E+03</pdfrwt>
<totfact> 0.47387354E+02</totfact>
</mgrwt>
</event>
<event>
 4    1  0.1773996E-005  0.8191959E+03  0.7818608E-02  0.9532640E-01
          2   -1    0    0  501    0  0.00000000000E+00  0.00000000000E+00  0.28682706159E+03  0.28682706160E+03  0.25500000000E-02 0.  1.
         -2   -1    0    0    0  501 -0.00000000000E+00 -0.00000000000E+00 -0.58491858276E+03  0.58491858276E+03  0.25500000000E-02 0. -1.
   -5000001    1    1    2    0    0 -0.43582166571E+02  0.31311588551E+03 -0.71359202875E+02  0.40930807326E+03  0.25000000000E+03 0.  0.
    5000001    1    1    2    0    0  0.43582166571E+02 -0.31311588551E+03 -0.22673231829E+03  0.46243757110E+03  0.25000000000E+03 0.  0.
<mgrwt>
<rscale>  0 0.81919589E+03</rscale>
<asrwt>0</asrwt>
<pdfrwt beam="1">  1        2 0.44127240E-01 0.81919589E+03</pdfrwt>
<pdfrwt beam="2">  1       -2 0.89987474E-01 0.81919589E+03</pdfrwt>
<totfact> 0.12285389E+02</totfact>
</mgrwt>
</event>
<event>
 4    1  0.1773996E-005  0.1079424E+04  0.7818608E-02  0.9225482E-01
         -2   -1    0    0    0  501 -0.00000000000E+00  0.00000000000E+00  0.66583047385E+03  0.66583047386E+03  0.25500000000E-02 0. -1.
          2   -1    0    0  501    0  0.00000000000E+00 -0.00000000000E+00 -0.43748192240E+03  0.43748192241E+03  0.25500000000E-02 0.  1.
   -5000001    1    1    2    0    0  0.66088661934E+02 -0.46203734742E+03  0.22109609982E+03  0.57378541895E+03  0.25000000000E+03 0.  0.
    5000001    1    1    2    0    0 -0.66088661934E+02  0.46203734742E+03  0.72524516316E+01  0.52952697731E+03  0.25000000000E+03 0.  0.
<mgrwt>
<rscale>  0 0.10794235E+04</rscale>
<asrwt>0</asrwt>
<pdfrwt beam="1">  1        2 0.67304912E-01 0.10794235E+04</pdfrwt>
<pdfrwt beam="2">  1       -2 0.10243546E+00 0.10794235E+04</pdfrwt>
<totfact> 0.55700741E+01</totfact>
</mgrwt>
</event>
<event>
 4    1  0.1773996E-005  0.8635589E+03  0.7818608E-02  0.9472317E-01
         -2   -1    0    0    0  501 -0.00000000000E+00  0.00000000000E+00  0.25600757472E+03  0.25600757473E+03  0.25500000000E-02 0. -1.
          2   -1    0    0  501    0  0.00000000000E+00 -0.00000000000E+00 -0.72823431503E+03  0.72823431503E+03  0.25500000000E-02 0.  1.
   -5000001    1    1    2    0    0  0.23227593141E+03  0.19404589266E+03 -0.44103910288E+03  0.59044170503E+03  0.25000000000E+03 0.  0.
    5000001    1    1    2    0    0 -0.23227593141E+03 -0.19404589266E+03 -0.31187637431E+02  0.39380018474E+03  0.25000000000E+03 0.  0.
<mgrwt>
<rscale>  0 0.86355892E+03</rscale>
<asrwt>0</asrwt>
<pdfrwt beam="1">  1        2 0.11203605E+00 0.86355892E+03</pdfrwt>
<pdfrwt beam="2">  1       -2 0.39385781E-01 0.86355892E+03</pdfrwt>
<totfact> 0.23835126E+02</totfact>
</mgrwt>
</event>
<event>
 4    1  0.1773996E-005  0.5898369E+03  0.7818608E-02  0.9926718E-01
         -2   -1    0    0    0  501 -0.00000000000E+00  0.00000000000E+00  0.33871253005E+02  0.33871253101E+02  0.25500000000E-02 0. -1.
          2   -1    0    0  501    0  0.00000000000E+00 -0.00000000000E+00 -0.25678678878E+04  0.25678678878E+04  0.25500000000E-02 0.  1.
   -5000001    1    1    2    0    0  0.40872385963E+02 -0.12231061792E+03 -0.87627549982E+03  0.92032015667E+03  0.25000000000E+03 0.  0.
    5000001    1    1    2    0    0 -0.40872385963E+02  0.12231061792E+03 -0.16577211350E+04  0.16814189842E+04  0.25000000000E+03 0.  0.
<mgrwt>
<rscale>  0 0.58983694E+03</rscale>
<asrwt>0</asrwt>
<pdfrwt beam="1">  1        2 0.39505645E+00 0.58983694E+03</pdfrwt>
<pdfrwt beam="2">  1       -2 0.52109640E-02 0.58983694E+03</pdfrwt>
<totfact> 0.64890942E+02</totfact>
</mgrwt>
</event>
<event>
 4    1  0.1773996E-005  0.1091369E+04  0.7818608E-02  0.9213645E-01
         -2   -1    0    0    0  501 -0.00000000000E+00  0.00000000000E+00  0.18407414727E+03  0.18407414729E+03  0.25500000000E-02 0. -1.
          2   -1    0    0  501    0  0.00000000000E+00 -0.00000000000E+00 -0.16176733212E+04  0.16176733212E+04  0.25500000000E-02 0.  1.
   -5000001    1    1    2    0    0  0.66579732092E+02 -0.47857075887E+03 -0.64658262681E+03  0.84500409778E+03  0.25000000000E+03 0.  0.
    5000001    1    1    2    0    0 -0.66579732092E+02  0.47857075887E+03 -0.78701654712E+03  0.95674337072E+03  0.25000000000E+03 0.  0.
<mgrwt>
<rscale>  0 0.10913695E+04</rscale>
<asrwt>0</asrwt>
<pdfrwt beam="1">  1        2 0.24887281E+00 0.10913695E+04</pdfrwt>
<pdfrwt beam="2">  1       -2 0.28319101E-01 0.10913695E+04</pdfrwt>
<totfact> 0.12356096E+02</totfact>
</mgrwt>
</event>
<event>
 4    1  0.1773996E-005  0.5396032E+03  0.7818608E-02  0.1003929E+00
          2   -1    0    0  501    0  0.00000000000E+00  0.00000000000E+00  0.24135647294E+03  0.24135647295E+03  0.25500000000E-02 0.  1.
         -2   -1    0    0    0  501 -0.00000000000E+00 -0.00000000000E+00 -0.30159915803E+03  0.30159915804E+03  0.25500000000E-02 0. -1.
   -5000001    1    1    2    0    0  0.36335627766E+02  0.87088545596E+02 -0.67611597623E+02  0.27563748067E+03  0.25000000000E+03 0.  0.
    5000001    1    1    2    0    0 -0.36335627766E+02 -0.87088545596E+02  0.73689125279E+01  0.26731815032E+03  0.25000000000E+03 0.  0.
<mgrwt>
<rscale>  0 0.53960322E+03</rscale>
<asrwt>0</asrwt>
<pdfrwt beam="1">  1        2 0.37131765E-01 0.53960322E+03</pdfrwt>
<pdfrwt beam="2">  1       -2 0.46399870E-01 0.53960322E+03</pdfrwt>
<totfact> 0.62056652E+02</totfact>
</mgrwt>
</event>
<event>
 4    1  0.1773996E-005  0.5338373E+03  0.7818608E-02  0.1005306E+00
         -2   -1    0    0    0  501 -0.00000000000E+00  0.00000000000E+00  0.45762125710E+02  0.45762125781E+02  0.25500000000E-02 0. -1.
          2   -1    0    0  501    0  0.00000000000E+00 -0.00000000000E+00 -0.15568672390E+04  0.15568672390E+04  0.25500000000E-02 0.  1.
   -5000001    1    1    2    0    0 -0.60301532758E+02 -0.69634824020E+02 -0.70712005159E+03  0.75564809993E+03  0.25000000000E+03 0.  0.
    5000001    1    1    2    0    0  0.60301532758E+02  0.69634824020E+02 -0.80398506166E+03  0.84698126481E+03  0.25000000000E+03 0.  0.
<mgrwt>
<rscale>  0 0.53383726E+03</rscale>
<asrwt>0</asrwt>
<pdfrwt beam="1">  1        2 0.23951800E+00 0.53383726E+03</pdfrwt>
<pdfrwt beam="2">  1       -2 0.70403282E-02 0.53383726E+03</pdfrwt>
<totfact> 0.14524983E+03</totfact>
</mgrwt>
</event>
<event>
 4    1  0.1773996E-005  0.6390834E+03  0.7818608E-02  0.9827482E-01
         -2   -1    0    0    0  501 -0.00000000000E+00  0.00000000000E+00  0.53330278725E+02  0.53330278786E+02  0.25500000000E-02 0. -1.
          2   -1    0    0  501    0  0.00000000000E+00 -0.00000000000E+00 -0.19146142866E+04  0.19146142866E+04  0.25500000000E-02 0.  1.
   -5000001    1    1    2    0    0 -0.62513864097E+02 -0.18808918499E+03 -0.98584602699E+03  0.10361843049E+04  0.25000000000E+03 0.  0.
    5000001    1    1    2    0    0  0.62513864097E+02  0.18808918499E+03 -0.87543798088E+03  0.93176026051E+03  0.25000000000E+03 0.  0.
<mgrwt>
<rscale>  0 0.63908345E+03</rscale>
<asrwt>0</asrwt>
<pdfrwt beam="1">  1        2 0.29455599E+00 0.63908345E+03</pdfrwt>
<pdfrwt beam="2">  1       -2 0.82046597E-02 0.63908345E+03</pdfrwt>
<totfact> 0.72434523E+02</totfact>
</mgrwt>
</event>
<event>
 4    1  0.1773996E-005  0.6242059E+03  0.7818608E-02  0.9856421E-01
          2   -1    0    0  501    0  0.00000000000E+00  0.00000000000E+00  0.46686905856E+03  0.46686905856E+03  0.25500000000E-02 0.  1.
         -2   -1    0    0    0  501 -0.00000000000E+00 -0.00000000000E+00 -0.20864149994E+03  0.20864149996E+03  0.25500000000E-02 0. -1.
   -5000001    1    1    2    0    0  0.16460077041E+03 -0.46385715260E+02  0.21055338817E+03  0.36888721511E+03  0.25000000000E+03 0.  0.
    5000001    1    1    2    0    0 -0.16460077041E+03  0.46385715260E+02  0.47674170446E+02  0.30662334342E+03  0.25000000000E+03 0.  0.
<mgrwt>
<rscale>  0 0.62420593E+03</rscale>
<asrwt>0</asrwt>
<pdfrwt beam="1">  1        2 0.71826009E-01 0.62420593E+03</pdfrwt>
<pdfrwt beam="2">  1       -2 0.32098692E-01 0.62420593E+03</pdfrwt>
<totfact> 0.60589127E+02</totfact>
</mgrwt>
</event>
<event>
 4    1  0.1773996E-005  0.7242580E+03  0.7818608E-02  0.9676624E-01
         -2   -1    0    0    0  501 -0.00000000000E+00  0.00000000000E+00  0.36769339128E+02  0.36769339217E+02  0.25500000000E-02 0. -1.
          2   -1    0    0  501    0  0.00000000000E+00 -0.00000000000E+00 -0.35664885183E+04  0.35664885183E+04  0.25500000000E-02 0.  1.
   -5000001    1    1    2    0    0 -0.14651794929E+03 -0.98242629800E+02 -0.80120008788E+03  0.85763669732E+03  0.25000000000E+03 0.  0.
    5000001    1    1    2    0    0  0.14651794929E+03  0.98242629800E+02 -0.27285190912E+04  0.27456211602E+04  0.25000000000E+03 0.  0.
<mgrwt>
<rscale>  0 0.72425804E+03</rscale>
<asrwt>0</asrwt>
<pdfrwt beam="1">  1        2 0.54869027E+00 0.72425804E+03</pdfrwt>
<pdfrwt beam="2">  1       -2 0.56568242E-02 0.72425804E+03</pdfrwt>
<totfact> 0.13457630E+02</totfact>
</mgrwt>
</event>
<event>
 4    1  0.1773996E-005  0.6358301E+03  0.7818608E-02  0.9833737E-01
          2   -1    0    0  501    0  0.00000000000E+00  0.00000000000E+00  0.22770495205E+03  0.22770495206E+03  0.25500000000E-02 0.  1.
         -2   -1    0    0    0  501 -0.00000000000E+00 -0.00000000000E+00 -0.44386378489E+03  0.44386378490E+03  0.25500000000E-02 0. -1.
   -5000001    1    1    2    0    0  0.61252007132E+02 -0.12632157358E+03  0.36975390265E+02  0.28909536111E+03  0.25000000000E+03 0.  0.
    5000001    1    1    2    0    0 -0.61252007132E+02  0.12632157358E+03 -0.25313422311E+03  0.38247337586E+03  0.25000000000E+03 0.  0.
<mgrwt>
<rscale>  0 0.63583011E+03</rscale>
<asrwt>0</asrwt>
<pdfrwt beam="1">  1        2 0.35031531E-01 0.63583011E+03</pdfrwt>
<pdfrwt beam="2">  1       -2 0.68286736E-01 0.63583011E+03</pdfrwt>
<totfact> 0.29622615E+02</totfact>
</mgrwt>
</event>
<event>
 4    1  0.1773996E-005  0.7122063E+03  0.7818608E-02  0.9696583E-01
          2   -1    0    0  501    0  0.00000000000E+00  0.00000000000E+00  0.57834854187E+03  0.57834854188E+03  0.25500000000E-02 0.  1.
         -2   -1    0    0    0  501 -0.00000000000E+00 -0.00000000000E+00 -0.21926128863E+03  0.21926128865E+03  0.25500000000E-02 0. -1.
   -5000001    1    1    2    0    0 -0.23261608902E+03  0.61338550589E+02  0.89693402669E+02  0.35835397185E+03  0.25000000000E+03 0.  0.
    5000001    1    1    2    0    0  0.23261608902E+03 -0.61338550589E+02  0.26939385057E+03  0.43925585868E+03  0.25000000000E+03 0.  0.
<mgrwt>
<rscale>  0 0.71220628E+03</rscale>
<asrwt>0</asrwt>
<pdfrwt beam="1">  1        2 0.88976698E-01 0.71220628E+03</pdfrwt>
<pdfrwt beam="2">  1       -2 0.33732506E-01 0.71220628E+03</pdfrwt>
<totfact> 0.42900937E+02</totfact>
</mgrwt>
</event>
<event>
 4    1  0.1773996E-005  0.7981313E+03  0.7818608E-02  0.9562726E-01
          2   -1    0    0  501    0  0.00000000000E+00  0.00000000000E+00  0.28987201557E+03  0.28987201558E+03  0.25500000000E-02 0.  1.
         -2   -1    0    0    0  501 -0.00000000000E+00 -0.00000000000E+00 -0.54939212359E+03  0.54939212359E+03  0.25500000000E-02 0. -1.
   -5000001    1    1    2    0    0 -0.15545049399E+03 -0.11799889819E+03  0.12493067196E+03  0.34087573814E+03  0.25000000000E+03 0.  0.
    5000001    1    1    2    0    0  0.15545049399E+03  0.11799889819E+03 -0.38445077998E+03  0.49838840103E+03  0.25000000000E+03 0.  0.
<mgrwt>
<rscale>  0 0.79813132E+03</rscale>
<asrwt>0</asrwt>
<pdfrwt beam="1">  1        2 0.44595695E-01 0.79813132E+03</pdfrwt>
<pdfrwt beam="2">  1       -2 0.84521865E-01 0.79813132E+03</pdfrwt>
<totfact> 0.14028536E+02</totfact>
</mgrwt>
</event>
<event>
 4    1  0.1773996E-005  0.5811057E+03  0.7818608E-02  0.9945400E-01
          2   -1    0    0  501    0  0.00000000000E+00  0.00000000000E+00  0.86761347675E+03  0.86761347675E+03  0.25500000000E-02 0.  1.
         -2   -1    0    0    0  501 -0.00000000000E+00 -0.00000000000E+00 -0.97302501713E+02  0.97302501746E+02  0.25500000000E-02 0. -1.
   -5000001    1    1    2    0    0  0.84590349094E+01 -0.12498264510E+03  0.51620476459E+03  0.58707714640E+03  0.25000000000E+03 0.  0.
    5000001    1    1    2    0    0 -0.84590349094E+01  0.12498264510E+03  0.25410621045E+03  0.37783883209E+03  0.25000000000E+03 0.  0.
<mgrwt>
<rscale>  0 0.58110571E+03</rscale>
<asrwt>0</asrwt>
<pdfrwt beam="1">  1        2 0.13347900E+00 0.58110571E+03</pdfrwt>
<pdfrwt beam="2">  1       -2 0.14969616E-01 0.58110571E+03</pdfrwt>
<totfact> 0.10912009E+03</totfact>
</mgrwt>
</event>
<event>
 4    1  0.1773996E-005  0.8103931E+03  0.7818608E-02  0.9545094E-01
         -2   -1    0    0    0  501 -0.00000000000E+00  0.00000000000E+00  0.11264931417E+03  0.11264931420E+03  0.25500000000E-02 0. -1.
          2   -1    0    0  501    0  0.00000000000E+00 -0.00000000000E+00 -0.14574811751E+04  0.14574811751E+04  0.25500000000E-02 0.  1.
   -5000001    1    1    2    0    0  0.19137848770E+03  0.19203705782E+03 -0.34716931461E+03  0.50648839092E+03  0.25000000000E+03 0.  0.
    5000001    1    1    2    0    0 -0.19137848770E+03 -0.19203705782E+03 -0.99766254635E+03  0.10636420984E+04  0.25000000000E+03 0.  0.
<mgrwt>
<rscale>  0 0.81039313E+03</rscale>
<asrwt>0</asrwt>
<pdfrwt beam="1">  1        2 0.22422786E+00 0.81039313E+03</pdfrwt>
<pdfrwt beam="2">  1       -2 0.17330665E-01 0.81039313E+03</pdfrwt>
<totfact> 0.37048349E+02</totfact>
</mgrwt>
</event>
<event>
 4    1  0.1773996E-005  0.1774827E+04  0.7818608E-02  0.8719802E-01
          2   -1    0    0  501    0  0.00000000000E+00  0.00000000000E+00  0.56071526213E+03  0.56071526214E+03  0.25500000000E-02 0.  1.
         -2   -1    0    0    0  501 -0.00000000000E+00 -0.00000000000E+00 -0.14044605760E+04  0.14044605760E+04  0.25500000000E-02 0. -1.
   -5000001    1    1    2    0    0  0.19117644424E+03  0.82962656234E+03 -0.40727483093E+03  0.97632036427E+03  0.25000000000E+03 0.  0.
    5000001    1    1    2    0    0 -0.19117644424E+03 -0.82962656234E+03 -0.43647048297E+03  0.98885547391E+03  0.25000000000E+03 0.  0.
<mgrwt>
<rscale>  0 0.17748267E+04</rscale>
<asrwt>0</asrwt>
<pdfrwt beam="1">  1        2 0.86263887E-01 0.17748267E+04</pdfrwt>
<pdfrwt beam="2">  1       -2 0.21607086E+00 0.17748267E+04</pdfrwt>
<totfact> 0.53242054E+00</totfact>
</mgrwt>
</event>
<event>
 4    1  0.1773996E-005  0.5149906E+03  0.7818608E-02  0.1009939E+00
         -2   -1    0    0    0  501 -0.00000000000E+00  0.00000000000E+00  0.28917743105E+02  0.28917743217E+02  0.25500000000E-02 0. -1.
          2   -1    0    0  501    0  0.00000000000E+00 -0.00000000000E+00 -0.22928422725E+04  0.22928422725E+04  0.25500000000E-02 0.  1.
   -5000001    1    1    2    0    0  0.26881245456E+02 -0.52729978314E+02 -0.10537748721E+04  0.10846402782E+04  0.25000000000E+03 0.  0.
    5000001    1    1    2    0    0 -0.26881245456E+02  0.52729978314E+02 -0.12101496573E+04  0.12371197376E+04  0.25000000000E+03 0.  0.
<mgrwt>
<rscale>  0 0.51499058E+03</rscale>
<asrwt>0</asrwt>
<pdfrwt beam="1">  1        2 0.35274482E+00 0.51499058E+03</pdfrwt>
<pdfrwt beam="2">  1       -2 0.44488854E-02 0.51499058E+03</pdfrwt>
<totfact> 0.11868736E+03</totfact>
</mgrwt>
</event>
<event>
 4    1  0.1773996E-005  0.9593291E+03  0.7818608E-02  0.9354312E-01
          2   -1    0    0  501    0  0.00000000000E+00  0.00000000000E+00  0.78587647462E+03  0.78587647463E+03  0.25500000000E-02 0.  1.
         -2   -1    0    0    0  501 -0.00000000000E+00 -0.00000000000E+00 -0.29276622016E+03  0.29276622018E+03  0.25500000000E-02 0. -1.
   -5000001    1    1    2    0    0  0.35267664806E+03 -0.12531193264E+03  0.43299140374E+03  0.62455220299E+03  0.25000000000E+03 0.  0.
    5000001    1    1    2    0    0 -0.35267664806E+03  0.12531193264E+03  0.60118850717E+02  0.45409049181E+03  0.25000000000E+03 0.  0.
<mgrwt>
<rscale>  0 0.95932911E+03</rscale>
<asrwt>0</asrwt>
<pdfrwt beam="1">  1        2 0.12090407E+00 0.95932911E+03</pdfrwt>
<pdfrwt beam="2">  1       -2 0.45040958E-01 0.95932911E+03</pdfrwt>
<totfact> 0.16489308E+02</totfact>
</mgrwt>
</event>
<event>
 4    1  0.1773996E-005  0.5795820E+03  0.7818608E-02  0.9948696E-01
         -2   -1    0    0    0  501 -0.00000000000E+00  0.00000000000E+00  0.28430566406E+02  0.28430566521E+02  0.25500000000E-02 0. -1.
          2   -1    0    0  501    0  0.00000000000E+00 -0.00000000000E+00 -0.29538213680E+04  0.29538213680E+04  0.25500000000E-02 0.  1.
   -5000001    1    1    2    0    0  0.10356384767E+03  0.10128199767E+03 -0.13481799407E+04  0.13787939172E+04  0.25000000000E+03 0.  0.
    5000001    1    1    2    0    0 -0.10356384767E+03 -0.10128199767E+03 -0.15772108608E+04  0.16034580173E+04  0.25000000000E+03 0.  0.
<mgrwt>
<rscale>  0 0.57958197E+03</rscale>
<asrwt>0</asrwt>
<pdfrwt beam="1">  1        2 0.45443381E+00 0.57958197E+03</pdfrwt>
<pdfrwt beam="2">  1       -2 0.43739356E-02 0.57958197E+03</pdfrwt>
<totfact> 0.50705032E+02</totfact>
</mgrwt>
</event>
<event>
 4    1  0.1773996E-005  0.5258138E+03  0.7818608E-02  0.1007252E+00
          2   -1    0    0  501    0  0.00000000000E+00  0.00000000000E+00  0.25892871520E+03  0.25892871521E+03  0.25500000000E-02 0.  1.
         -2   -1    0    0    0  501 -0.00000000000E+00 -0.00000000000E+00 -0.26694618819E+03  0.26694618820E+03  0.25500000000E-02 0. -1.
   -5000001    1    1    2    0    0 -0.80321551544E+02 -0.12808604910E+02 -0.61117266200E+01  0.26296951383E+03  0.25000000000E+03 0.  0.
    5000001    1    1    2    0    0  0.80321551544E+02  0.12808604910E+02 -0.19057463720E+01  0.26290538958E+03  0.25000000000E+03 0.  0.
<mgrwt>
<rscale>  0 0.52581378E+03</rscale>
<asrwt>0</asrwt>
<pdfrwt beam="1">  1        2 0.39835187E-01 0.52581378E+03</pdfrwt>
<pdfrwt beam="2">  1       -2 0.41068644E-01 0.52581378E+03</pdfrwt>
<totfact> 0.73035074E+02</totfact>
</mgrwt>
</event>
<event>
 4    1  0.1773996E-005  0.7324975E+03  0.7818608E-02  0.9663216E-01
         -2   -1    0    0    0  501 -0.00000000000E+00  0.00000000000E+00  0.49791590261E+02  0.49791590326E+02  0.25500000000E-02 0. -1.
          2   -1    0    0  501    0  0.00000000000E+00 -0.00000000000E+00 -0.26939923050E+04  0.26939923050E+04  0.25500000000E-02 0.  1.
   -5000001    1    1    2    0    0 -0.24922391158E+03  0.80286733474E+02 -0.15299713791E+04  0.15722184767E+04  0.25000000000E+03 0.  0.
    5000001    1    1    2    0    0  0.24922391158E+03 -0.80286733474E+02 -0.11142293356E+04  0.11715654186E+04  0.25000000000E+03 0.  0.
<mgrwt>
<rscale>  0 0.73249754E+03</rscale>
<asrwt>0</asrwt>
<pdfrwt beam="1">  1        2 0.41446024E+00 0.73249754E+03</pdfrwt>
<pdfrwt beam="2">  1       -2 0.76602467E-02 0.73249754E+03</pdfrwt>
<totfact> 0.29538996E+02</totfact>
</mgrwt>
</event>
<event>
 4    1  0.1773996E-005  0.1362656E+04  0.7818608E-02  0.8981303E-01
          2   -1    0    0  501    0  0.00000000000E+00  0.00000000000E+00  0.18266078741E+04  0.18266078741E+04  0.25500000000E-02 0.  1.
         -2   -1    0    0    0  501 -0.00000000000E+00 -0.00000000000E+00 -0.25413641647E+03  0.25413641648E+03  0.25500000000E-02 0. -1.
   -5000001    1    1    2    0    0  0.12246385224E+03 -0.59530216634E+03  0.10607755390E+04  0.12478488725E+04  0.25000000000E+03 0.  0.
    5000001    1    1    2    0    0 -0.12246385224E+03  0.59530216634E+03  0.51169591855E+03  0.83289541805E+03  0.25000000000E+03 0.  0.
<mgrwt>
<rscale>  0 0.13626556E+04</rscale>
<asrwt>0</asrwt>
<pdfrwt beam="1">  1        2 0.28101661E+00 0.13626556E+04</pdfrwt>
<pdfrwt beam="2">  1       -2 0.39097908E-01 0.13626556E+04</pdfrwt>
<totfact> 0.50340999E+01</totfact>
</mgrwt>
</event>
<event>
 4    1  0.1773996E-005  0.7585946E+03  0.7818608E-02  0.9621962E-01
          2   -1    0    0  501    0  0.00000000000E+00  0.00000000000E+00  0.17580341273E+04  0.17580341273E+04  0.25500000000E-02 0.  1.
         -2   -1    0    0    0  501 -0.00000000000E+00 -0.00000000000E+00 -0.81833708482E+02  0.81833708521E+02  0.25500000000E-02 0. -1.
   -5000001    1    1    2    0    0 -0.13942651198E+03 -0.23667114439E+03  0.10246084583E+04  0.10898511254E+04  0.25000000000E+03 0.  0.
    5000001    1    1    2    0    0  0.13942651198E+03  0.23667114439E+03  0.65159196057E+03  0.75001671042E+03  0.25000000000E+03 0.  0.
<mgrwt>
<rscale>  0 0.75859463E+03</rscale>
<asrwt>0</asrwt>
<pdfrwt beam="1">  1        2 0.27046681E+00 0.75859463E+03</pdfrwt>
<pdfrwt beam="2">  1       -2 0.12589801E-01 0.75859463E+03</pdfrwt>
<totfact> 0.43528272E+02</totfact>
</mgrwt>
</event>
<event>
 4    1  0.1773996E-005  0.1118308E+04  0.7818608E-02  0.9187530E-01
          2   -1    0    0  501    0  0.00000000000E+00  0.00000000000E+00  0.18027567195E+04  0.18027567195E+04  0.25500000000E-02 0.  1.
         -2   -1    0    0    0  501 -0.00000000000E+00 -0.00000000000E+00 -0.17343046011E+03  0.17343046013E+03  0.25500000000E-02 0. -1.
   -5000001    1    1    2    0    0 -0.11714602697E+03  0.47349704700E+03  0.10100903573E+04  0.11492193764E+04  0.25000000000E+03 0.  0.
    5000001    1    1    2    0    0  0.11714602697E+03 -0.47349704700E+03  0.61923590206E+03  0.82696780321E+03  0.25000000000E+03 0.  0.
<mgrwt>
<rscale>  0 0.11183075E+04</rscale>
<asrwt>0</asrwt>
<pdfrwt beam="1">  1        2 0.27734719E+00 0.11183075E+04</pdfrwt>
<pdfrwt beam="2">  1       -2 0.26681609E-01 0.11183075E+04</pdfrwt>
<totfact> 0.10869276E+02</totfact>
</mgrwt>
</event>
<event>
 4    1  0.1773996E-005  0.1140352E+04  0.7818608E-02  0.9166731E-01
          2   -1    0    0  501    0  0.00000000000E+00  0.00000000000E+00  0.25806847555E+04  0.25806847555E+04  0.25500000000E-02 0.  1.
         -2   -1    0    0    0  501 -0.00000000000E+00 -0.00000000000E+00 -0.12597449330E+03  0.12597449332E+03  0.25500000000E-02 0. -1.
   -5000001    1    1    2    0    0 -0.36305934179E+03  0.25053720392E+03  0.60832548485E+03  0.79192226369E+03  0.25000000000E+03 0.  0.
    5000001    1    1    2    0    0  0.36305934179E+03 -0.25053720392E+03  0.18463847774E+04  0.19147369852E+04  0.25000000000E+03 0.  0.
<mgrwt>
<rscale>  0 0.11403516E+04</rscale>
<asrwt>0</asrwt>
<pdfrwt beam="1">  1        2 0.39702842E+00 0.11403516E+04</pdfrwt>
<pdfrwt beam="2">  1       -2 0.19380691E-01 0.11403516E+04</pdfrwt>
<totfact> 0.70518212E+01</totfact>
</mgrwt>
</event>
<event>
 4    1  0.1773996E-005  0.8028292E+03  0.7818608E-02  0.9555931E-01
         -2   -1    0    0    0  501 -0.00000000000E+00  0.00000000000E+00  0.10824367041E+03  0.10824367044E+03  0.25500000000E-02 0. -1.
          2   -1    0    0  501    0  0.00000000000E+00 -0.00000000000E+00 -0.14886199101E+04  0.14886199101E+04  0.25500000000E-02 0.  1.
   -5000001    1    1    2    0    0 -0.26660851846E+03  0.65463024889E+02 -0.99359526038E+03  0.10607059212E+04  0.25000000000E+03 0.  0.
    5000001    1    1    2    0    0  0.26660851846E+03 -0.65463024889E+02 -0.38678097928E+03  0.53615765934E+03  0.25000000000E+03 0.  0.
<mgrwt>
<rscale>  0 0.80282920E+03</rscale>
<asrwt>0</asrwt>
<pdfrwt beam="1">  1        2 0.22901843E+00 0.80282920E+03</pdfrwt>
<pdfrwt beam="2">  1       -2 0.16652873E-01 0.80282920E+03</pdfrwt>
<totfact> 0.38129152E+02</totfact>
</mgrwt>
</event>
<event>
 4    1  0.1773996E-005  0.7593740E+03  0.7818608E-02  0.9620758E-01
         -2   -1    0    0    0  501 -0.00000000000E+00  0.00000000000E+00  0.15992103469E+03  0.15992103471E+03  0.25500000000E-02 0. -1.
          2   -1    0    0  501    0  0.00000000000E+00 -0.00000000000E+00 -0.90145866115E+03  0.90145866115E+03  0.25500000000E-02 0.  1.
   -5000001    1    1    2    0    0  0.26950270378E+03 -0.35718787899E+01 -0.23804041941E+03  0.43795856760E+03  0.25000000000E+03 0.  0.
    5000001    1    1    2    0    0 -0.26950270378E+03  0.35718787899E+01 -0.50349720704E+03  0.62342112826E+03  0.25000000000E+03 0.  0.
<mgrwt>
<rscale>  0 0.75937396E+03</rscale>
<asrwt>0</asrwt>
<pdfrwt beam="1">  1        2 0.13868594E+00 0.75937396E+03</pdfrwt>
<pdfrwt beam="2">  1       -2 0.24603237E-01 0.75937396E+03</pdfrwt>
<totfact> 0.43397034E+02</totfact>
</mgrwt>
</event>
<event>
 4    1  0.1773996E-005  0.6886861E+03  0.7818608E-02  0.9736778E-01
         -2   -1    0    0    0  501 -0.00000000000E+00  0.00000000000E+00  0.10373990221E+03  0.10373990225E+03  0.25500000000E-02 0. -1.
          2   -1    0    0  501    0  0.00000000000E+00 -0.00000000000E+00 -0.11429752827E+04  0.11429752827E+04  0.25500000000E-02 0.  1.
   -5000001    1    1    2    0    0 -0.10533138852E+02  0.23573417739E+03 -0.55539511538E+03  0.65318089653E+03  0.25000000000E+03 0.  0.
    5000001    1    1    2    0    0  0.10533138852E+02 -0.23573417739E+03 -0.48384026514E+03  0.59353428846E+03  0.25000000000E+03 0.  0.
<mgrwt>
<rscale>  0 0.68868612E+03</rscale>
<asrwt>0</asrwt>
<pdfrwt beam="1">  1        2 0.17584234E+00 0.68868612E+03</pdfrwt>
<pdfrwt beam="2">  1       -2 0.15959986E-01 0.68868612E+03</pdfrwt>
<totfact> 0.65223439E+02</totfact>
</mgrwt>
</event>
<event>
 4    1  0.1773996E-005  0.1411465E+04  0.7818608E-02  0.8945561E-01
          2   -1    0    0  501    0  0.00000000000E+00  0.00000000000E+00  0.16687368281E+04  0.16687368281E+04  0.25500000000E-02 0. -1.
         -2   -1    0    0    0  501 -0.00000000000E+00 -0.00000000000E+00 -0.29846417310E+03  0.29846417311E+03  0.25500000000E-02 0.  1.
   -5000001    1    1    2    0    0  0.42749366701E+01  0.65952870654E+03  0.65210263664E+03  0.96059056759E+03  0.25000000000E+03 0.  0.
    5000001    1    1    2    0    0 -0.42749366701E+01 -0.65952870654E+03  0.71817001838E+03  0.10066104336E+04  0.25000000000E+03 0.  0.
<mgrwt>
<rscale>  0 0.14114647E+04</rscale>
<asrwt>0</asrwt>
<pdfrwt beam="1">  1        2 0.25672874E+00 0.14114647E+04</pdfrwt>
<pdfrwt beam="2">  1       -2 0.45917565E-01 0.14114647E+04</pdfrwt>
<totfact> 0.44639738E+01</totfact>
</mgrwt>
</event>
<event>
 4    1  0.1773996E-005  0.5404014E+03  0.7818608E-02  0.1003740E+00
          2   -1    0    0  501    0  0.00000000000E+00  0.00000000000E+00  0.60933723112E+03  0.60933723112E+03  0.25500000000E-02 0.  1.
         -2   -1    0    0    0  501 -0.00000000000E+00 -0.00000000000E+00 -0.11981612522E+03  0.11981612525E+03  0.25500000000E-02 0. -1.
   -5000001    1    1    2    0    0  0.12294239373E+02  0.99507327806E+02  0.27355970217E+03  0.38391114501E+03  0.25000000000E+03 0.  0.
    5000001    1    1    2    0    0 -0.12294239373E+02 -0.99507327806E+02  0.21596140372E+03  0.34524221136E+03  0.25000000000E+03 0.  0.
<mgrwt>
<rscale>  0 0.54040143E+03</rscale>
<asrwt>0</asrwt>
<pdfrwt beam="1">  1        2 0.93744189E-01 0.54040143E+03</pdfrwt>
<pdfrwt beam="2">  1       -2 0.18433250E-01 0.54040143E+03</pdfrwt>
<totfact> 0.12004091E+03</totfact>
</mgrwt>
</event>
<event>
 4    1  0.1773996E-005  0.6947859E+03  0.7818608E-02  0.9726191E-01
          2   -1    0    0  501    0  0.00000000000E+00  0.00000000000E+00  0.86054672719E+03  0.86054672719E+03  0.25500000000E-02 0.  1.
         -2   -1    0    0    0  501 -0.00000000000E+00 -0.00000000000E+00 -0.14023858298E+03  0.14023858300E+03  0.25500000000E-02 0. -1.
   -5000001    1    1    2    0    0 -0.17666493895E+03  0.14106916514E+03  0.48127677575E+03  0.58756986383E+03  0.25000000000E+03 0.  0.
    5000001    1    1    2    0    0  0.17666493895E+03 -0.14106916514E+03  0.23903136846E+03  0.41321544637E+03  0.25000000000E+03 0.  0.
<mgrwt>
<rscale>  0 0.69478588E+03</rscale>
<asrwt>0</asrwt>
<pdfrwt beam="1">  1        2 0.13239181E+00 0.69478588E+03</pdfrwt>
<pdfrwt beam="2">  1       -2 0.21575166E-01 0.69478588E+03</pdfrwt>
<totfact> 0.58609742E+02</totfact>
</mgrwt>
</event>
<event>
 4    1  0.1773996E-005  0.9744723E+03  0.7818608E-02  0.9336995E-01
         -2   -1    0    0    0  501 -0.00000000000E+00  0.00000000000E+00  0.11731987913E+03  0.11731987916E+03  0.25500000000E-02 0. -1.
          2   -1    0    0  501    0  0.00000000000E+00 -0.00000000000E+00 -0.20235196272E+04  0.20235196272E+04  0.25500000000E-02 0.  1.
   -5000001    1    1    2    0    0  0.36193615727E+03 -0.14376348817E+03 -0.61823424684E+03  0.77225598504E+03  0.25000000000E+03 0.  0.
    5000001    1    1    2    0    0 -0.36193615727E+03  0.14376348817E+03 -0.12879655012E+04  0.13685835213E+04  0.25000000000E+03 0.  0.
<mgrwt>
<rscale>  0 0.97447233E+03</rscale>
<asrwt>0</asrwt>
<pdfrwt beam="1">  1        2 0.31131069E+00 0.97447233E+03</pdfrwt>
<pdfrwt beam="2">  1       -2 0.18049214E-01 0.97447233E+03</pdfrwt>
<totfact> 0.16648354E+02</totfact>
</mgrwt>
</event>
<event>
 4    1  0.1773996E-005  0.9942028E+03  0.7818608E-02  0.9314926E-01
          2   -1    0    0  501    0  0.00000000000E+00  0.00000000000E+00  0.66751692363E+03  0.66751692364E+03  0.25500000000E-02 0.  1.
         -2   -1    0    0    0  501 -0.00000000000E+00 -0.00000000000E+00 -0.37019259464E+03  0.37019259465E+03  0.25500000000E-02 0. -1.
   -5000001    1    1    2    0    0 -0.37416715103E+03 -0.21094287288E+03  0.13762248531E+03  0.51569167241E+03  0.25000000000E+03 0.  0.
    5000001    1    1    2    0    0  0.37416715103E+03  0.21094287288E+03  0.15970184368E+03  0.52201784587E+03  0.25000000000E+03 0.  0.
<mgrwt>
<rscale>  0 0.99420284E+03</rscale>
<asrwt>0</asrwt>
<pdfrwt beam="1">  1        2 0.10269491E+00 0.99420284E+03</pdfrwt>
<pdfrwt beam="2">  1       -2 0.56952708E-01 0.99420284E+03</pdfrwt>
<totfact> 0.12562433E+02</totfact>
</mgrwt>
</event>
<event>
 4    1  0.1773996E-005  0.7567560E+03  0.7818608E-02  0.9624810E-01
          2   -1    0    0  501    0  0.00000000000E+00  0.00000000000E+00  0.18595505682E+04  0.18595505682E+04  0.25500000000E-02 0.  1.
         -2   -1    0    0    0  501 -0.00000000000E+00 -0.00000000000E+00 -0.76991673767E+02  0.76991673809E+02  0.25500000000E-02 0. -1.
   -5000001    1    1    2    0    0 -0.13877825558E+03 -0.24695124277E+03  0.83848759236E+03  0.91967698844E+03  0.25000000000E+03 0.  0.
    5000001    1    1    2    0    0  0.13877825558E+03  0.24695124277E+03  0.94407130212E+03  0.10168652536E+04  0.25000000000E+03 0.  0.
<mgrwt>
<rscale>  0 0.75675600E+03</rscale>
<asrwt>0</asrwt>
<pdfrwt beam="1">  1        2 0.28608466E+00 0.75675600E+03</pdfrwt>
<pdfrwt beam="2">  1       -2 0.11844875E-01 0.75675600E+03</pdfrwt>
<totfact> 0.42397275E+02</totfact>
</mgrwt>
</event>
<event>
 4    1  0.1773996E-005  0.7436278E+03  0.7818608E-02  0.9645401E-01
          2   -1    0    0  501    0  0.00000000000E+00  0.00000000000E+00  0.10428603306E+04  0.10428603306E+04  0.25500000000E-02 0.  1.
         -2   -1    0    0    0  501 -0.00000000000E+00 -0.00000000000E+00 -0.13256383472E+03  0.13256383475E+03  0.25500000000E-02 0. -1.
   -5000001    1    1    2    0    0  0.16522001960E+03  0.17957681753E+03  0.25396234542E+03  0.43190550027E+03  0.25000000000E+03 0.  0.
    5000001    1    1    2    0    0 -0.16522001960E+03 -0.17957681753E+03  0.65633415047E+03  0.74351866509E+03  0.25000000000E+03 0.  0.
<mgrwt>
<rscale>  0 0.74362777E+03</rscale>
<asrwt>0</asrwt>
<pdfrwt beam="1">  1        2 0.16044004E+00 0.74362777E+03</pdfrwt>
<pdfrwt beam="2">  1       -2 0.20394438E-01 0.74362777E+03</pdfrwt>
<totfact> 0.49084358E+02</totfact>
</mgrwt>
</event>
<event>
 4    1  0.1773996E-005  0.7177741E+03  0.7818608E-02  0.9687310E-01
         -2   -1    0    0    0  501 -0.00000000000E+00  0.00000000000E+00  0.10054208020E+04  0.10054208020E+04  0.25500000000E-02 0. -1.
          2   -1    0    0  501    0  0.00000000000E+00 -0.00000000000E+00 -0.12810548077E+03  0.12810548079E+03  0.25500000000E-02 0.  1.
   -5000001    1    1    2    0    0 -0.22022611180E+03 -0.13339095176E+03  0.43441166300E+03  0.56347686668E+03  0.25000000000E+03 0.  0.
    5000001    1    1    2    0    0  0.22022611180E+03  0.13339095176E+03  0.44290365819E+03  0.57004941608E+03  0.25000000000E+03 0.  0.
<mgrwt>
<rscale>  0 0.71777410E+03</rscale>
<asrwt>0</asrwt>
<pdfrwt beam="1">  1        2 0.19708536E-01 0.71777410E+03</pdfrwt>
<pdfrwt beam="2">  1       -2 0.15468012E+00 0.71777410E+03</pdfrwt>
<totfact> 0.80830887E+01</totfact>
</mgrwt>
</event>
<event>
 4    1  0.1773996E-005  0.7400056E+03  0.7818608E-02  0.9651162E-01
          2   -1    0    0  501    0  0.00000000000E+00  0.00000000000E+00  0.15541732377E+04  0.15541732377E+04  0.25500000000E-02 0.  1.
         -2   -1    0    0    0  501 -0.00000000000E+00 -0.00000000000E+00 -0.88086744553E+02  0.88086744590E+02  0.25500000000E-02 0. -1.
   -5000001    1    1    2    0    0 -0.20848185463E+03  0.11957947337E+03  0.44678425497E+03  0.56557944151E+03  0.25000000000E+03 0.  0.
    5000001    1    1    2    0    0  0.20848185463E+03 -0.11957947337E+03  0.10193022382E+04  0.10766805408E+04  0.25000000000E+03 0.  0.
<mgrwt>
<rscale>  0 0.74000557E+03</rscale>
<asrwt>0</asrwt>
<pdfrwt beam="1">  1        2 0.23910359E+00 0.74000557E+03</pdfrwt>
<pdfrwt beam="2">  1       -2 0.13551806E-01 0.74000557E+03</pdfrwt>
<totfact> 0.49872184E+02</totfact>
</mgrwt>
</event>
<event>
 4    1  0.1773996E-005  0.8981015E+03  0.7818608E-02  0.9427958E-01
         -2   -1    0    0    0  501 -0.00000000000E+00  0.00000000000E+00  0.72891435152E+02  0.72891435197E+02  0.25500000000E-02 0. -1.
          2   -1    0    0  501    0  0.00000000000E+00 -0.00000000000E+00 -0.27663962342E+04  0.27663962342E+04  0.25500000000E-02 0.  1.
   -5000001    1    1    2    0    0 -0.90194647524E+02 -0.35341303525E+03 -0.10996192537E+04  0.11851997094E+04  0.25000000000E+03 0.  0.
    5000001    1    1    2    0    0  0.90194647524E+02  0.35341303525E+03 -0.15938855453E+04  0.16540879600E+04  0.25000000000E+03 0.  0.
<mgrwt>
<rscale>  0 0.89810153E+03</rscale>
<asrwt>0</asrwt>
<pdfrwt beam="1">  1        2 0.42559934E+00 0.89810153E+03</pdfrwt>
<pdfrwt beam="2">  1       -2 0.11214069E-01 0.89810153E+03</pdfrwt>
<totfact> 0.14209396E+02</totfact>
</mgrwt>
</event>
<event>
 4    1  0.1773996E-005  0.7981571E+03  0.7818608E-02  0.9562689E-01
         -2   -1    0    0    0  501 -0.00000000000E+00  0.00000000000E+00  0.14581670843E+03  0.14581670845E+03  0.25500000000E-02 0. -1.
          2   -1    0    0  501    0  0.00000000000E+00 -0.00000000000E+00 -0.10922182568E+04  0.10922182568E+04  0.25500000000E-02 0.  1.
   -5000001    1    1    2    0    0 -0.30485971647E+03  0.19862745705E+02 -0.56403977512E+03  0.68845830906E+03  0.25000000000E+03 0.  0.
    5000001    1    1    2    0    0  0.30485971647E+03 -0.19862745705E+02 -0.38236177325E+03  0.54957665619E+03  0.25000000000E+03 0.  0.
<mgrwt>
<rscale>  0 0.79815705E+03</rscale>
<asrwt>0</asrwt>
<pdfrwt beam="1">  1        2 0.16803357E+00 0.79815705E+03</pdfrwt>
<pdfrwt beam="2">  1       -2 0.22433341E-01 0.79815705E+03</pdfrwt>
<totfact> 0.38565277E+02</totfact>
</mgrwt>
</event>
<event>
 4    1  0.1773996E-005  0.5149808E+03  0.7818608E-02  0.1009941E+00
         -2   -1    0    0    0  501 -0.00000000000E+00  0.00000000000E+00  0.13861288760E+03  0.13861288762E+03  0.25500000000E-02 0. -1.
          2   -1    0    0  501    0  0.00000000000E+00 -0.00000000000E+00 -0.47831988457E+03  0.47831988457E+03  0.25500000000E-02 0.  1.
   -5000001    1    1    2    0    0  0.32132679859E+02  0.52461817484E+02 -0.17472690530E+03  0.31114987200E+03  0.25000000000E+03 0.  0.
    5000001    1    1    2    0    0 -0.32132679859E+02 -0.52461817484E+02 -0.16498009166E+03  0.30578290020E+03  0.25000000000E+03 0.  0.
<mgrwt>
<rscale>  0 0.51498078E+03</rscale>
<asrwt>0</asrwt>
<pdfrwt beam="1">  1        2 0.73587674E-01 0.51498078E+03</pdfrwt>
<pdfrwt beam="2">  1       -2 0.21325060E-01 0.51498078E+03</pdfrwt>
<totfact> 0.12362230E+03</totfact>
</mgrwt>
</event>
<event>
 4    1  0.1773996E-005  0.1127447E+04  0.7818608E-02  0.9178845E-01
          2   -1    0    0  501    0  0.00000000000E+00  0.00000000000E+00  0.72681039755E+03  0.72681039756E+03  0.25500000000E-02 0.  1.
         -2   -1    0    0    0  501 -0.00000000000E+00 -0.00000000000E+00 -0.43723135909E+03  0.43723135910E+03  0.25500000000E-02 0. -1.
   -5000001    1    1    2    0    0 -0.47530684872E+03 -0.16035321105E+03  0.20720452502E+03  0.59754787919E+03  0.25000000000E+03 0.  0.
    5000001    1    1    2    0    0  0.47530684872E+03  0.16035321105E+03  0.82374513439E+02  0.56649387746E+03  0.25000000000E+03 0.  0.
<mgrwt>
<rscale>  0 0.11274472E+04</rscale>
<asrwt>0</asrwt>
<pdfrwt beam="1">  1        2 0.11181698E+00 0.11274472E+04</pdfrwt>
<pdfrwt beam="2">  1       -2 0.67266363E-01 0.11274472E+04</pdfrwt>
<totfact> 0.78522145E+01</totfact>
</mgrwt>
</event>
<event>
 4    1  0.1773996E-005  0.1587029E+04  0.7818608E-02  0.8828557E-01
         -2   -1    0    0    0  501 -0.00000000000E+00  0.00000000000E+00  0.69637478963E+03  0.69637478963E+03  0.25500000000E-02 0. -1.
          2   -1    0    0  501    0  0.00000000000E+00 -0.00000000000E+00 -0.90420417255E+03  0.90420417255E+03  0.25500000000E-02 0.  1.
   -5000001    1    1    2    0    0  0.34770161656E+03 -0.16323630896E+03 -0.75722830817E+03  0.88511988873E+03  0.25000000000E+03 0.  0.
    5000001    1    1    2    0    0 -0.34770161656E+03  0.16323630896E+03  0.54939892525E+03  0.71545907346E+03  0.25000000000E+03 0.  0.
<mgrwt>
<rscale>  0 0.15870287E+04</rscale>
<asrwt>0</asrwt>
<pdfrwt beam="1">  1        2 0.13910833E+00 0.15870287E+04</pdfrwt>
<pdfrwt beam="2">  1       -2 0.10713458E+00 0.15870287E+04</pdfrwt>
<totfact> 0.19584615E+01</totfact>
</mgrwt>
</event>
<event>
 4    1  0.1773996E-005  0.9672901E+03  0.7818608E-02  0.9345166E-01
         -2   -1    0    0    0  501 -0.00000000000E+00  0.00000000000E+00  0.18536033357E+03  0.18536033359E+03  0.25500000000E-02 0. -1.
          2   -1    0    0  501    0  0.00000000000E+00 -0.00000000000E+00 -0.12619341593E+04  0.12619341593E+04  0.25500000000E-02 0.  1.
   -5000001    1    1    2    0    0 -0.17575150759E+03 -0.57279567654E+01  0.22534548552E+02  0.30647872322E+03  0.25000000000E+03 0.  0.
    5000001    1    1    2    0    0  0.17575150759E+03  0.57279567654E+01 -0.10991083743E+04  0.11408157697E+04  0.25000000000E+03 0.  0.
<mgrwt>
<rscale>  0 0.96729010E+03</rscale>
<asrwt>0</asrwt>
<pdfrwt beam="1">  1        2 0.19414371E+00 0.96729010E+03</pdfrwt>
<pdfrwt beam="2">  1       -2 0.28516975E-01 0.96729010E+03</pdfrwt>
<totfact> 0.19581214E+02</totfact>
</mgrwt>
</event>
<event>
 4    1  0.1773996E-005  0.9568281E+03  0.7818608E-02  0.9357205E-01
          2   -1    0    0  501    0  0.00000000000E+00  0.00000000000E+00  0.63117437748E+03  0.63117437748E+03  0.25500000000E-02 0.  1.
         -2   -1    0    0    0  501 -0.00000000000E+00 -0.00000000000E+00 -0.36262558948E+03  0.36262558949E+03  0.25500000000E-02 0. -1.
   -5000001    1    1    2    0    0 -0.29245760454E+03 -0.28427236648E+03  0.14065606649E+03  0.49862446574E+03  0.25000000000E+03 0.  0.
    5000001    1    1    2    0    0  0.29245760454E+03  0.28427236648E+03  0.12789272151E+03  0.49517550123E+03  0.25000000000E+03 0.  0.
<mgrwt>
<rscale>  0 0.95682805E+03</rscale>
<asrwt>0</asrwt>
<pdfrwt beam="1">  1        2 0.97103750E-01 0.95682805E+03</pdfrwt>
<pdfrwt beam="2">  1       -2 0.55788553E-01 0.95682805E+03</pdfrwt>
<totfact> 0.14085551E+02</totfact>
</mgrwt>
</event>
<event>
 4    1  0.1773996E-005  0.7361270E+03  0.7818608E-02  0.9657370E-01
          2   -1    0    0  501    0  0.00000000000E+00  0.00000000000E+00  0.57096286443E+03  0.57096286444E+03  0.25500000000E-02 0.  1.
         -2   -1    0    0    0  501 -0.00000000000E+00 -0.00000000000E+00 -0.23726717761E+03  0.23726717762E+03  0.25500000000E-02 0. -1.
   -5000001    1    1    2    0    0 -0.52733928311E+02  0.26386943702E+03  0.19289494604E+03  0.41486914467E+03  0.25000000000E+03 0.  0.
    5000001    1    1    2    0    0  0.52733928311E+02 -0.26386943702E+03  0.14080074078E+03  0.39336089739E+03  0.25000000000E+03 0.  0.
<mgrwt>
<rscale>  0 0.73612702E+03</rscale>
<asrwt>0</asrwt>
<pdfrwt beam="1">  1        2 0.87840439E-01 0.73612702E+03</pdfrwt>
<pdfrwt beam="2">  1       -2 0.36502643E-01 0.73612702E+03</pdfrwt>
<totfact> 0.37458495E+02</totfact>
</mgrwt>
</event>
<event>
 4    1  0.1773996E-005  0.5719799E+03  0.7818608E-02  0.9965307E-01
         -2   -1    0    0    0  501 -0.00000000000E+00  0.00000000000E+00  0.10565329456E+03  0.10565329459E+03  0.25500000000E-02 0. -1.
          2   -1    0    0  501    0  0.00000000000E+00 -0.00000000000E+00 -0.77413812536E+03  0.77413812537E+03  0.25500000000E-02 0.  1.
   -5000001    1    1    2    0    0  0.11863382614E+02  0.13585474826E+03 -0.37473381171E+03  0.47066196161E+03  0.25000000000E+03 0.  0.
    5000001    1    1    2    0    0 -0.11863382614E+02 -0.13585474826E+03 -0.29375101909E+03  0.40912945835E+03  0.25000000000E+03 0.  0.
<mgrwt>
<rscale>  0 0.57197987E+03</rscale>
<asrwt>0</asrwt>
<pdfrwt beam="1">  1        2 0.11909817E+00 0.57197987E+03</pdfrwt>
<pdfrwt beam="2">  1       -2 0.16254354E-01 0.57197987E+03</pdfrwt>
<totfact> 0.11046176E+03</totfact>
</mgrwt>
</event>
<event>
 4    1  0.1773996E-005  0.7579475E+03  0.7818608E-02  0.9622964E-01
          2   -1    0    0  501    0  0.00000000000E+00  0.00000000000E+00  0.19393675773E+04  0.19393675773E+04  0.25500000000E-02 0.  1.
         -2   -1    0    0    0  501 -0.00000000000E+00 -0.00000000000E+00 -0.74055640718E+02  0.74055640762E+02  0.25500000000E-02 0. -1.
   -5000001    1    1    2    0    0  0.14900195890E+03 -0.21736367860E+03  0.12196540034E+04  0.12725975171E+04  0.25000000000E+03 0.  0.
    5000001    1    1    2    0    0 -0.14900195890E+03  0.21736367860E+03  0.64565793326E+03  0.74082570103E+03  0.25000000000E+03 0.  0.
<mgrwt>
<rscale>  0 0.75794751E+03</rscale>
<asrwt>0</asrwt>
<pdfrwt beam="1">  1        2 0.29836426E+00 0.75794751E+03</pdfrwt>
<pdfrwt beam="2">  1       -2 0.11393175E-01 0.75794751E+03</pdfrwt>
<totfact> 0.40892768E+02</totfact>
</mgrwt>
</event>
<event>
 4    1  0.1773996E-005  0.6260516E+03  0.7818608E-02  0.9852784E-01
          2   -1    0    0  501    0  0.00000000000E+00  0.00000000000E+00  0.21586619370E+03  0.21586619372E+03  0.25500000000E-02 0.  1.
         -2   -1    0    0    0  501 -0.00000000000E+00 -0.00000000000E+00 -0.45391608201E+03  0.45391608202E+03  0.25500000000E-02 0. -1.
   -5000001    1    1    2    0    0 -0.13490055795E+03 -0.55844612529E+02  0.83204604208E+01  0.28963081905E+03  0.25000000000E+03 0.  0.
    5000001    1    1    2    0    0  0.13490055795E+03  0.55844612529E+02 -0.24637034873E+03  0.38015145668E+03  0.25000000000E+03 0.  0.
<mgrwt>
<rscale>  0 0.62605155E+03</rscale>
<asrwt>0</asrwt>
<pdfrwt beam="1">  1        2 0.33210184E-01 0.62605155E+03</pdfrwt>
<pdfrwt beam="2">  1       -2 0.69833243E-01 0.62605155E+03</pdfrwt>
<totfact> 0.29958939E+02</totfact>
</mgrwt>
</event>
<event>
 4    1  0.1773996E-005  0.7709334E+03  0.7818608E-02  0.9603070E-01
         -2   -1    0    0    0  501 -0.00000000000E+00  0.00000000000E+00  0.98350676709E+02  0.98350676742E+02  0.25500000000E-02 0. -1.
          2   -1    0    0  501    0  0.00000000000E+00 -0.00000000000E+00 -0.15107630131E+04  0.15107630131E+04  0.25500000000E-02 0.  1.
   -5000001    1    1    2    0    0  0.26602567020E+03 -0.81758948870E+02 -0.51230300672E+03  0.63435680309E+03  0.25000000000E+03 0.  0.
    5000001    1    1    2    0    0 -0.26602567020E+03  0.81758948870E+02 -0.90010932965E+03  0.97475688674E+03  0.25000000000E+03 0.  0.
<mgrwt>
<rscale>  0 0.77093337E+03</rscale>
<asrwt>0</asrwt>
<pdfrwt beam="1">  1        2 0.23242506E+00 0.77093337E+03</pdfrwt>
<pdfrwt beam="2">  1       -2 0.15130874E-01 0.77093337E+03</pdfrwt>
<totfact> 0.43711370E+02</totfact>
</mgrwt>
</event>
<event>
 4    1  0.1773996E-005  0.1334916E+04  0.7818608E-02  0.9002326E-01
         -2   -1    0    0    0  501 -0.00000000000E+00  0.00000000000E+00  0.44763396055E+03  0.44763396055E+03  0.25500000000E-02 0. -1.
          2   -1    0    0  501    0  0.00000000000E+00 -0.00000000000E+00 -0.99523302528E+03  0.99523302529E+03  0.25500000000E-02 0.  1.
   -5000001    1    1    2    0    0 -0.80084221842E+02  0.53259360976E+03 -0.60329687775E+03  0.84648482470E+03  0.25000000000E+03 0.  0.
    5000001    1    1    2    0    0  0.80084221842E+02 -0.53259360976E+03  0.55697813012E+02  0.59638216114E+03  0.25000000000E+03 0.  0.
<mgrwt>
<rscale>  0 0.13349159E+04</rscale>
<asrwt>0</asrwt>
<pdfrwt beam="1">  1        2 0.15311277E+00 0.13349159E+04</pdfrwt>
<pdfrwt beam="2">  1       -2 0.68866763E-01 0.13349159E+04</pdfrwt>
<totfact> 0.47792769E+01</totfact>
</mgrwt>
</event>
<event>
 4    1  0.1773996E-005  0.7196055E+03  0.7818608E-02  0.9684279E-01
          2   -1    0    0  501    0  0.00000000000E+00  0.00000000000E+00  0.15077645668E+04  0.15077645668E+04  0.25500000000E-02 0.  1.
         -2   -1    0    0    0  501 -0.00000000000E+00 -0.00000000000E+00 -0.85860905685E+02  0.85860905723E+02  0.25500000000E-02 0. -1.
   -5000001    1    1    2    0    0 -0.17510046372E+03  0.45706689687E+02  0.11205522737E+04  0.11622765041E+04  0.25000000000E+03 0.  0.
    5000001    1    1    2    0    0  0.17510046372E+03 -0.45706689687E+02  0.30135138745E+03  0.43134896846E+03  0.25000000000E+03 0.  0.
<mgrwt>
<rscale>  0 0.71960553E+03</rscale>
<asrwt>0</asrwt>
<pdfrwt beam="1">  1        2 0.23196378E+00 0.71960553E+03</pdfrwt>
<pdfrwt beam="2">  1       -2 0.13209370E-01 0.71960553E+03</pdfrwt>
<totfact> 0.55290847E+02</totfact>
</mgrwt>
</event>
<event>
 4    1  0.1773996E-005  0.7940515E+03  0.7818608E-02  0.9568667E-01
         -2   -1    0    0    0  501 -0.00000000000E+00  0.00000000000E+00  0.14622226621E+03  0.14622226623E+03  0.25500000000E-02 0. -1.
          2   -1    0    0  501    0  0.00000000000E+00 -0.00000000000E+00 -0.10780126483E+04  0.10780126483E+04  0.25500000000E-02 0.  1.
   -5000001    1    1    2    0    0  0.12381499492E+03  0.27554333149E+03 -0.36991942843E+03  0.53906832964E+03  0.25000000000E+03 0.  0.
    5000001    1    1    2    0    0 -0.12381499492E+03 -0.27554333149E+03 -0.56187095367E+03  0.68516658490E+03  0.25000000000E+03 0.  0.
<mgrwt>
<rscale>  0 0.79405152E+03</rscale>
<asrwt>0</asrwt>
<pdfrwt beam="1">  1        2 0.16584810E+00 0.79405152E+03</pdfrwt>
<pdfrwt beam="2">  1       -2 0.22495734E-01 0.79405152E+03</pdfrwt>
<totfact> 0.39164257E+02</totfact>
</mgrwt>
</event>
<event>
 4    1  0.1773996E-005  0.9820403E+03  0.7818608E-02  0.9328465E-01
          2   -1    0    0  501    0  0.00000000000E+00  0.00000000000E+00  0.60393772961E+03  0.60393772962E+03  0.25500000000E-02 0.  1.
         -2   -1    0    0    0  501 -0.00000000000E+00 -0.00000000000E+00 -0.39921466597E+03  0.39921466598E+03  0.25500000000E-02 0. -1.
   -5000001    1    1    2    0    0 -0.10312244436E+03 -0.37083008674E+03 -0.75893871844E+02  0.46519788429E+03  0.25000000000E+03 0.  0.
    5000001    1    1    2    0    0  0.10312244436E+03  0.37083008674E+03  0.28061693549E+03  0.53795451131E+03  0.25000000000E+03 0.  0.
<mgrwt>
<rscale>  0 0.98204032E+03</rscale>
<asrwt>0</asrwt>
<pdfrwt beam="1">  1        2 0.92913497E-01 0.98204032E+03</pdfrwt>
<pdfrwt beam="2">  1       -2 0.61417641E-01 0.98204032E+03</pdfrwt>
<totfact> 0.12126987E+02</totfact>
</mgrwt>
</event>
<event>
 4    1  0.1773996E-005  0.6311956E+03  0.7818608E-02  0.9842718E-01
          2   -1    0    0  501    0  0.00000000000E+00  0.00000000000E+00  0.77615777468E+03  0.77615777468E+03  0.25500000000E-02 0.  1.
         -2   -1    0    0    0  501 -0.00000000000E+00 -0.00000000000E+00 -0.12832697606E+03  0.12832697609E+03  0.25500000000E-02 0. -1.
   -5000001    1    1    2    0    0  0.14433907871E+03 -0.58672749335E+02  0.16163049340E+03  0.33600696057E+03  0.25000000000E+03 0.  0.
    5000001    1    1    2    0    0 -0.14433907871E+03  0.58672749335E+02  0.48620030522E+03  0.56847779020E+03  0.25000000000E+03 0.  0.
<mgrwt>
<rscale>  0 0.63119563E+03</rscale>
<asrwt>0</asrwt>
<pdfrwt beam="1">  1        2 0.11940889E+00 0.63119563E+03</pdfrwt>
<pdfrwt beam="2">  1       -2 0.19742612E-01 0.63119563E+03</pdfrwt>
<totfact> 0.78714975E+02</totfact>
</mgrwt>
</event>
<event>
 4    1  0.1773996E-005  0.8444157E+03  0.7818608E-02  0.9497863E-01
          2   -1    0    0  501    0  0.00000000000E+00  0.00000000000E+00  0.15922465904E+04  0.15922465904E+04  0.25500000000E-02 0.  1.
         -2   -1    0    0    0  501 -0.00000000000E+00 -0.00000000000E+00 -0.11195469827E+03  0.11195469830E+03  0.25500000000E-02 0. -1.
   -5000001    1    1    2    0    0 -0.31381698701E+03 -0.12094743908E+03  0.84404124205E+03  0.94234547945E+03  0.25000000000E+03 0.  0.
    5000001    1    1    2    0    0  0.31381698701E+03  0.12094743908E+03  0.63625065009E+03  0.76185580925E+03  0.25000000000E+03 0.  0.
<mgrwt>
<rscale>  0 0.84441574E+03</rscale>
<asrwt>0</asrwt>
<pdfrwt beam="1">  1        2 0.24496101E+00 0.84441574E+03</pdfrwt>
<pdfrwt beam="2">  1       -2 0.17223800E-01 0.84441574E+03</pdfrwt>
<totfact> 0.31435704E+02</totfact>
</mgrwt>
</event>
<event>
 4    1  0.1773996E-005  0.9391092E+03  0.7818608E-02  0.9377972E-01
          2   -1    0    0  501    0  0.00000000000E+00  0.00000000000E+00  0.18232156777E+04  0.18232156777E+04  0.25500000000E-02 0.  1.
         -2   -1    0    0    0  501 -0.00000000000E+00 -0.00000000000E+00 -0.12093003392E+03  0.12093003395E+03  0.25500000000E-02 0. -1.
   -5000001    1    1    2    0    0 -0.29365518181E+03  0.23005759416E+03  0.56712748143E+03  0.72339024228E+03  0.25000000000E+03 0.  0.
    5000001    1    1    2    0    0  0.29365518181E+03 -0.23005759416E+03  0.11351581623E+04  0.12207554694E+04  0.25000000000E+03 0.  0.
<mgrwt>
<rscale>  0 0.93910922E+03</rscale>
<asrwt>0</asrwt>
<pdfrwt beam="1">  1        2 0.28049471E+00 0.93910922E+03</pdfrwt>
<pdfrwt beam="2">  1       -2 0.18604622E-01 0.93910922E+03</pdfrwt>
<totfact> 0.20400808E+02</totfact>
</mgrwt>
</event>
<event>
 4    1  0.1773996E-005  0.7241130E+03  0.7818608E-02  0.9676862E-01
          2   -1    0    0  501    0  0.00000000000E+00  0.00000000000E+00  0.27410935036E+04  0.27410935036E+04  0.25500000000E-02 0.  1.
         -2   -1    0    0    0  501 -0.00000000000E+00 -0.00000000000E+00 -0.47822118191E+02  0.47822118259E+02  0.25500000000E-02 0. -1.
   -5000001    1    1    2    0    0 -0.13748296294E+03  0.20600758780E+03  0.16744473953E+04  0.17110274022E+04  0.25000000000E+03 0.  0.
    5000001    1    1    2    0    0  0.13748296294E+03 -0.20600758780E+03  0.10188239901E+04  0.10778882197E+04  0.25000000000E+03 0.  0.
<mgrwt>
<rscale>  0 0.72411297E+03</rscale>
<asrwt>0</asrwt>
<pdfrwt beam="1">  1        2 0.42170668E+00 0.72411297E+03</pdfrwt>
<pdfrwt beam="2">  1       -2 0.73572492E-02 0.72411297E+03</pdfrwt>
<totfact> 0.29594883E+02</totfact>
</mgrwt>
</event>
<event>
 4    1  0.1773996E-005  0.8039792E+03  0.7818608E-02  0.9554275E-01
          2   -1    0    0  501    0  0.00000000000E+00  0.00000000000E+00  0.29045987233E+04  0.29045987233E+04  0.25500000000E-02 0.  1.
         -2   -1    0    0    0  501 -0.00000000000E+00 -0.00000000000E+00 -0.55634405440E+02  0.55634405499E+02  0.25500000000E-02 0. -1.
   -5000001    1    1    2    0    0 -0.29713065396E+03 -0.65425651472E+02  0.11269819890E+04  0.11937987875E+04  0.25000000000E+03 0.  0.
    5000001    1    1    2    0    0  0.29713065396E+03  0.65425651472E+02  0.17219823288E+04  0.17664343413E+04  0.25000000000E+03 0.  0.
<mgrwt>
<rscale>  0 0.80397916E+03</rscale>
<asrwt>0</asrwt>
<pdfrwt beam="1">  1        2 0.44686145E+00 0.80397916E+03</pdfrwt>
<pdfrwt beam="2">  1       -2 0.85591372E-02 0.80397916E+03</pdfrwt>
<totfact> 0.18425566E+02</totfact>
</mgrwt>
</event>
<event>
 4    1  0.1773996E-005  0.7907092E+03  0.7818608E-02  0.9573563E-01
          2   -1    0    0  501    0  0.00000000000E+00  0.00000000000E+00  0.82488489967E+03  0.82488489967E+03  0.25500000000E-02 0.  1.
         -2   -1    0    0    0  501 -0.00000000000E+00 -0.00000000000E+00 -0.18948734062E+03  0.18948734063E+03  0.25500000000E-02 0. -1.
   -5000001    1    1    2    0    0  0.15639174578E+03  0.25457840372E+03  0.40410615487E+03  0.56131125607E+03  0.25000000000E+03 0.  0.
    5000001    1    1    2    0    0 -0.15639174578E+03 -0.25457840372E+03  0.23129140418E+03  0.45306098424E+03  0.25000000000E+03 0.  0.
<mgrwt>
<rscale>  0 0.79070917E+03</rscale>
<asrwt>0</asrwt>
<pdfrwt beam="1">  1        2 0.12690537E+00 0.79070917E+03</pdfrwt>
<pdfrwt beam="2">  1       -2 0.29151899E-01 0.79070917E+03</pdfrwt>
<totfact> 0.35918846E+02</totfact>
</mgrwt>
</event>
<event>
 4    1  0.1773996E-005  0.1182723E+04  0.7818608E-02  0.9128115E-01
         -2   -1    0    0    0  501 -0.00000000000E+00  0.00000000000E+00  0.52917708795E+03  0.52917708796E+03  0.25500000000E-02 0. -1.
          2   -1    0    0  501    0  0.00000000000E+00 -0.00000000000E+00 -0.66085353350E+03  0.66085353351E+03  0.25500000000E-02 0.  1.
   -5000001    1    1    2    0    0 -0.16557764305E+03  0.32725330581E+03  0.32734185218E+03  0.55151008171E+03  0.25000000000E+03 0.  0.
    5000001    1    1    2    0    0  0.16557764305E+03 -0.32725330581E+03 -0.45901829773E+03  0.63852053976E+03  0.25000000000E+03 0.  0.
<mgrwt>
<rscale>  0 0.11827232E+04</rscale>
<asrwt>0</asrwt>
<pdfrwt beam="1">  1        2 0.10166977E+00 0.11827232E+04</pdfrwt>
<pdfrwt beam="2">  1       -2 0.81411859E-01 0.11827232E+04</pdfrwt>
<totfact> 0.57848662E+01</totfact>
</mgrwt>
</event>
<event>
 4    1  0.1773996E-005  0.8917779E+03  0.7818608E-02  0.9435918E-01
          2   -1    0    0  501    0  0.00000000000E+00  0.00000000000E+00  0.12105787745E+04  0.12105787745E+04  0.25500000000E-02 0.  1.
         -2   -1    0    0    0  501 -0.00000000000E+00 -0.00000000000E+00 -0.16423296154E+03  0.16423296156E+03  0.25500000000E-02 0. -1.
   -5000001    1    1    2    0    0  0.68888780332E+02  0.17930148743E+03  0.10092759484E+04  0.10573706198E+04  0.25000000000E+03 0.  0.
    5000001    1    1    2    0    0 -0.68888780332E+02 -0.17930148743E+03  0.37069864508E+02  0.31744111628E+03  0.25000000000E+03 0.  0.
<mgrwt>
<rscale>  0 0.89177786E+03</rscale>
<asrwt>0</asrwt>
<pdfrwt beam="1">  1        2 0.18624288E+00 0.89177786E+03</pdfrwt>
<pdfrwt beam="2">  1       -2 0.25266611E-01 0.89177786E+03</pdfrwt>
<totfact> 0.26305581E+02</totfact>
</mgrwt>
</event>
<event>
 4    1  0.1773996E-005  0.1174076E+04  0.7818608E-02  0.9135856E-01
         -2   -1    0    0    0  501 -0.00000000000E+00  0.00000000000E+00  0.51858913764E+03  0.51858913764E+03  0.25500000000E-02 0. -1.
          2   -1    0    0  501    0  0.00000000000E+00 -0.00000000000E+00 -0.66452102615E+03  0.66452102615E+03  0.25500000000E-02 0.  1.
   -5000001    1    1    2    0    0  0.51871466253E+03 -0.90290619665E+02 -0.14347643872E+03  0.60025226829E+03  0.25000000000E+03 0.  0.
    5000001    1    1    2    0    0 -0.51871466253E+03  0.90290619665E+02 -0.24554497939E+01  0.58285789551E+03  0.25000000000E+03 0.  0.
<mgrwt>
<rscale>  0 0.11740756E+04</rscale>
<asrwt>0</asrwt>
<pdfrwt beam="1">  1        2 0.10223400E+00 0.11740756E+04</pdfrwt>
<pdfrwt beam="2">  1       -2 0.79782944E-01 0.11740756E+04</pdfrwt>
<totfact> 0.60163602E+01</totfact>
</mgrwt>
</event>
<event>
 4    1  0.1773996E-005  0.6227903E+03  0.7818608E-02  0.9859220E-01
         -2   -1    0    0    0  501 -0.00000000000E+00  0.00000000000E+00  0.48107584213E+02  0.48107584280E+02  0.25500000000E-02 0. -1.
          2   -1    0    0  501    0  0.00000000000E+00 -0.00000000000E+00 -0.20156265870E+04  0.20156265870E+04  0.25500000000E-02 0.  1.
   -5000001    1    1    2    0    0 -0.98386470841E+02 -0.14890472148E+03 -0.81432612307E+03  0.87033301008E+03  0.25000000000E+03 0.  0.
    5000001    1    1    2    0    0  0.98386470841E+02  0.14890472148E+03 -0.11531928797E+04  0.11934011612E+04  0.25000000000E+03 0.  0.
<mgrwt>
<rscale>  0 0.62279026E+03</rscale>
<asrwt>0</asrwt>
<pdfrwt beam="1">  1        2 0.31009633E+00 0.62279026E+03</pdfrwt>
<pdfrwt beam="2">  1       -2 0.74011684E-02 0.62279026E+03</pdfrwt>
<totfact> 0.75328291E+02</totfact>
</mgrwt>
</event>
<event>
 4    1  0.1773996E-005  0.5683152E+03  0.7818608E-02  0.9973414E-01
          2   -1    0    0  501    0  0.00000000000E+00  0.00000000000E+00  0.15941161269E+04  0.15941161269E+04  0.25500000000E-02 0.  1.
         -2   -1    0    0    0  501 -0.00000000000E+00 -0.00000000000E+00 -0.50652239059E+02  0.50652239123E+02  0.25500000000E-02 0. -1.
   -5000001    1    1    2    0    0  0.49519557472E+02 -0.12544159225E+03  0.74973448482E+03  0.80174159015E+03  0.25000000000E+03 0.  0.
    5000001    1    1    2    0    0 -0.49519557472E+02  0.12544159225E+03  0.79372940305E+03  0.84302677591E+03  0.25000000000E+03 0.  0.
<mgrwt>
<rscale>  0 0.56831523E+03</rscale>
<asrwt>0</asrwt>
<pdfrwt beam="1">  1        2 0.24524859E+00 0.56831523E+03</pdfrwt>
<pdfrwt beam="2">  1       -2 0.77926537E-02 0.56831523E+03</pdfrwt>
<totfact> 0.11783907E+03</totfact>
</mgrwt>
</event>
<event>
 4    1  0.1773996E-005  0.7517797E+03  0.7818608E-02  0.9632562E-01
         -2   -1    0    0    0  501 -0.00000000000E+00  0.00000000000E+00  0.17163729333E+03  0.17163729335E+03  0.25500000000E-02 0. -1.
          2   -1    0    0  501    0  0.00000000000E+00 -0.00000000000E+00 -0.82320797386E+03  0.82320797387E+03  0.25500000000E-02 0.  1.
   -5000001    1    1    2    0    0 -0.30158521057E+02  0.26060839078E+03 -0.45789828982E+03  0.58394958135E+03  0.25000000000E+03 0.  0.
    5000001    1    1    2    0    0  0.30158521057E+02 -0.26060839078E+03 -0.19367239071E+03  0.41089568586E+03  0.25000000000E+03 0.  0.
<mgrwt>
<rscale>  0 0.75177972E+03</rscale>
<asrwt>0</asrwt>
<pdfrwt beam="1">  1        2 0.12664738E+00 0.75177972E+03</pdfrwt>
<pdfrwt beam="2">  1       -2 0.26405738E-01 0.75177972E+03</pdfrwt>
<totfact> 0.43246969E+02</totfact>
</mgrwt>
</event>
<event>
 4    1  0.1773996E-005  0.6469108E+03  0.7818608E-02  0.9812593E-01
          2   -1    0    0  501    0  0.00000000000E+00  0.00000000000E+00  0.68333042383E+03  0.68333042384E+03  0.25500000000E-02 0.  1.
         -2   -1    0    0    0  501 -0.00000000000E+00 -0.00000000000E+00 -0.15310804368E+03  0.15310804370E+03  0.25500000000E-02 0. -1.
   -5000001    1    1    2    0    0 -0.47329847424E+02  0.19458514442E+03  0.20700082004E+03  0.38138278984E+03  0.25000000000E+03 0.  0.
    5000001    1    1    2    0    0  0.47329847424E+02 -0.19458514442E+03  0.32322156011E+03  0.45505567770E+03  0.25000000000E+03 0.  0.
<mgrwt>
<rscale>  0 0.64691076E+03</rscale>
<asrwt>0</asrwt>
<pdfrwt beam="1">  1        2 0.10512776E+00 0.64691076E+03</pdfrwt>
<pdfrwt beam="2">  1       -2 0.23555083E-01 0.64691076E+03</pdfrwt>
<totfact> 0.67789330E+02</totfact>
</mgrwt>
</event>
<event>
 4    1  0.1773996E-005  0.6458786E+03  0.7818608E-02  0.9814544E-01
          2   -1    0    0  501    0  0.00000000000E+00  0.00000000000E+00  0.70859049385E+03  0.70859049386E+03  0.25500000000E-02 0.  1.
         -2   -1    0    0    0  501 -0.00000000000E+00 -0.00000000000E+00 -0.14717920042E+03  0.14717920044E+03  0.25500000000E-02 0. -1.
   -5000001    1    1    2    0    0  0.92559505927E+02  0.10563590184E+03  0.83897087442E+02  0.29877236682E+03  0.25000000000E+03 0.  0.
    5000001    1    1    2    0    0 -0.92559505927E+02 -0.10563590184E+03  0.47751420599E+03  0.55699732748E+03  0.25000000000E+03 0.  0.
<mgrwt>
<rscale>  0 0.64587857E+03</rscale>
<asrwt>0</asrwt>
<pdfrwt beam="1">  1        2 0.10901392E+00 0.64587857E+03</pdfrwt>
<pdfrwt beam="2">  1       -2 0.22642954E-01 0.64587857E+03</pdfrwt>
<totfact> 0.69489880E+02</totfact>
</mgrwt>
</event>
<event>
 4    1  0.1773996E-005  0.6962796E+03  0.7818608E-02  0.9723616E-01
          2   -1    0    0  501    0  0.00000000000E+00  0.00000000000E+00  0.63023064131E+03  0.63023064132E+03  0.25500000000E-02 0.  1.
         -2   -1    0    0    0  501 -0.00000000000E+00 -0.00000000000E+00 -0.19231266873E+03  0.19231266874E+03  0.25500000000E-02 0. -1.
   -5000001    1    1    2    0    0  0.14679373408E+03  0.18053967870E+03  0.13920003895E+03  0.36880838764E+03  0.25000000000E+03 0.  0.
    5000001    1    1    2    0    0 -0.14679373408E+03 -0.18053967870E+03  0.29871793364E+03  0.45373492243E+03  0.25000000000E+03 0.  0.
<mgrwt>
<rscale>  0 0.69627965E+03</rscale>
<asrwt>0</asrwt>
<pdfrwt beam="1">  1        2 0.96958560E-01 0.69627965E+03</pdfrwt>
<pdfrwt beam="2">  1       -2 0.29586565E-01 0.69627965E+03</pdfrwt>
<totfact> 0.49445120E+02</totfact>
</mgrwt>
</event>
<event>
 4    1  0.1773996E-005  0.8031267E+03  0.7818608E-02  0.9555502E-01
         -2   -1    0    0    0  501 -0.00000000000E+00  0.00000000000E+00  0.13575009997E+03  0.13575009999E+03  0.25500000000E-02 0. -1.
          2   -1    0    0  501    0  0.00000000000E+00 -0.00000000000E+00 -0.11878675881E+04  0.11878675881E+04  0.25500000000E-02 0.  1.
   -5000001    1    1    2    0    0 -0.27581527140E+03 -0.40964488735E+01 -0.27795663620E+03  0.46459739177E+03  0.25000000000E+03 0.  0.
    5000001    1    1    2    0    0  0.27581527140E+03  0.40964488735E+01 -0.77416085189E+03  0.85902029628E+03  0.25000000000E+03 0.  0.
<mgrwt>
<rscale>  0 0.80312675E+03</rscale>
<asrwt>0</asrwt>
<pdfrwt beam="1">  1        2 0.18274885E+00 0.80312675E+03</pdfrwt>
<pdfrwt beam="2">  1       -2 0.20884632E-01 0.80312675E+03</pdfrwt>
<totfact> 0.38304833E+02</totfact>
</mgrwt>
</event>
<event>
 4    1  0.1773996E-005  0.8077523E+03  0.7818608E-02  0.9548863E-01
          2   -1    0    0  501    0  0.00000000000E+00  0.00000000000E+00  0.12233477663E+04  0.12233477663E+04  0.25500000000E-02 0.  1.
         -2   -1    0    0    0  501 -0.00000000000E+00 -0.00000000000E+00 -0.13333569609E+03  0.13333569611E+03  0.25500000000E-02 0. -1.
   -5000001    1    1    2    0    0 -0.12054067932E+03 -0.21693906022E+03  0.21321669321E+03  0.41176931586E+03  0.25000000000E+03 0.  0.
    5000001    1    1    2    0    0  0.12054067932E+03  0.21693906022E+03  0.87679537704E+03  0.94491414659E+03  0.25000000000E+03 0.  0.
<mgrwt>
<rscale>  0 0.80775225E+03</rscale>
<asrwt>0</asrwt>
<pdfrwt beam="1">  1        2 0.18820734E+00 0.80775225E+03</pdfrwt>
<pdfrwt beam="2">  1       -2 0.20513185E-01 0.80775225E+03</pdfrwt>
<totfact> 0.37657934E+02</totfact>
</mgrwt>
</event>
<event>
 4    1  0.1773996E-005  0.5626844E+03  0.7818608E-02  0.9985999E-01
         -2   -1    0    0    0  501 -0.00000000000E+00  0.00000000000E+00  0.16776284378E+03  0.16776284380E+03  0.25500000000E-02 0. -1.
          2   -1    0    0  501    0  0.00000000000E+00 -0.00000000000E+00 -0.47181742289E+03  0.47181742289E+03  0.25500000000E-02 0.  1.
   -5000001    1    1    2    0    0 -0.10642851815E+03  0.51455216503E+02 -0.21085709293E+03  0.34775764897E+03  0.25000000000E+03 0.  0.
    5000001    1    1    2    0    0  0.10642851815E+03 -0.51455216503E+02 -0.93197486180E+02  0.29182261772E+03  0.25000000000E+03 0.  0.
<mgrwt>
<rscale>  0 0.56268440E+03</rscale>
<asrwt>0</asrwt>
<pdfrwt beam="1">  1        2 0.72587295E-01 0.56268440E+03</pdfrwt>
<pdfrwt beam="2">  1       -2 0.25809668E-01 0.56268440E+03</pdfrwt>
<totfact> 0.89425891E+02</totfact>
</mgrwt>
</event>
<event>
 4    1  0.1773996E-005  0.5743494E+03  0.7818608E-02  0.9960100E-01
          2   -1    0    0  501    0  0.00000000000E+00  0.00000000000E+00  0.62161480397E+03  0.62161480398E+03  0.25500000000E-02 0. -1.
         -2   -1    0    0    0  501 -0.00000000000E+00 -0.00000000000E+00 -0.13266949503E+03  0.13266949505E+03  0.25500000000E-02 0.  1.
   -5000001    1    1    2    0    0 -0.27680518733E+02  0.97126307827E+02  0.11466596951E+03  0.29299831971E+03  0.25000000000E+03 0.  0.
    5000001    1    1    2    0    0  0.27680518733E+02 -0.97126307827E+02  0.37427933944E+03  0.46128597932E+03  0.25000000000E+03 0.  0.
<mgrwt>
<rscale>  0 0.57434945E+03</rscale>
<asrwt>0</asrwt>
<pdfrwt beam="1">  1        2 0.95633045E-01 0.57434945E+03</pdfrwt>
<pdfrwt beam="2">  1       -2 0.20410692E-01 0.57434945E+03</pdfrwt>
<totfact> 0.98182721E+02</totfact>
</mgrwt>
</event>
<event>
 4    1  0.1773996E-005  0.5866556E+03  0.7818608E-02  0.9933485E-01
         -2   -1    0    0    0  501 -0.00000000000E+00  0.00000000000E+00  0.26901590189E+02  0.26901590310E+02  0.25500000000E-02 0. -1.
          2   -1    0    0  501    0  0.00000000000E+00 -0.00000000000E+00 -0.31983681474E+04  0.31983681474E+04  0.25500000000E-02 0.  1.
   -5000001    1    1    2    0    0  0.41927670723E+02 -0.14533665390E+03 -0.14444389310E+04  0.14736975598E+04  0.25000000000E+03 0.  0.
    5000001    1    1    2    0    0 -0.41927670723E+02  0.14533665390E+03 -0.17270276262E+04  0.17515721779E+04  0.25000000000E+03 0.  0.
<mgrwt>
<rscale>  0 0.58665557E+03</rscale>
<asrwt>0</asrwt>
<pdfrwt beam="1">  1        2 0.49205634E+00 0.58665557E+03</pdfrwt>
<pdfrwt beam="2">  1       -2 0.41387087E-02 0.58665557E+03</pdfrwt>
<totfact> 0.38981711E+02</totfact>
</mgrwt>
</event>
<event>
 4    1  0.1773996E-005  0.6364094E+03  0.7818608E-02  0.9832620E-01
          2   -1    0    0  501    0  0.00000000000E+00  0.00000000000E+00  0.26932074279E+04  0.26932074279E+04  0.25500000000E-02 0.  1.
         -2   -1    0    0    0  501 -0.00000000000E+00 -0.00000000000E+00 -0.37596154680E+02  0.37596154767E+02  0.25500000000E-02 0. -1.
   -5000001    1    1    2    0    0  0.82637005955E+02  0.79604273435E+02  0.64140685390E+03  0.69790290681E+03  0.25000000000E+03 0.  0.
    5000001    1    1    2    0    0 -0.82637005955E+02 -0.79604273435E+02  0.20142044194E+04  0.20329006759E+04  0.25000000000E+03 0.  0.
<mgrwt>
<rscale>  0 0.63640944E+03</rscale>
<asrwt>0</asrwt>
<pdfrwt beam="1">  1        2 0.41433963E+00 0.63640944E+03</pdfrwt>
<pdfrwt beam="2">  1       -2 0.57840234E-02 0.63640944E+03</pdfrwt>
<totfact> 0.46534863E+02</totfact>
</mgrwt>
</event>
<event>
 4    1  0.1773996E-005  0.6691746E+03  0.7818608E-02  0.9771450E-01
          2   -1    0    0  501    0  0.00000000000E+00  0.00000000000E+00  0.20839815929E+04  0.20839815929E+04  0.25500000000E-02 0.  1.
         -2   -1    0    0    0  501 -0.00000000000E+00 -0.00000000000E+00 -0.53718649362E+02  0.53718649423E+02  0.25500000000E-02 0. -1.
   -5000001    1    1    2    0    0  0.21925077289E+03 -0.35125743599E+02  0.10534601736E+04  0.11052524854E+04  0.25000000000E+03 0.  0.
    5000001    1    1    2    0    0 -0.21925077289E+03  0.35125743599E+02  0.97680276999E+03  0.10324477569E+04  0.25000000000E+03 0.  0.
<mgrwt>
<rscale>  0 0.66917465E+03</rscale>
<asrwt>0</asrwt>
<pdfrwt beam="1">  1        2 0.32061257E+00 0.66917465E+03</pdfrwt>
<pdfrwt beam="2">  1       -2 0.82644072E-02 0.66917465E+03</pdfrwt>
<totfact> 0.57801684E+02</totfact>
</mgrwt>
</event>
<event>
 4    1  0.1773996E-005  0.9010798E+03  0.7818608E-02  0.9424233E-01
          2   -1    0    0  501    0  0.00000000000E+00  0.00000000000E+00  0.11549121785E+04  0.11549121785E+04  0.25500000000E-02 0.  1.
         -2   -1    0    0    0  501 -0.00000000000E+00 -0.00000000000E+00 -0.17575899448E+03  0.17575899450E+03  0.25500000000E-02 0. -1.
   -5000001    1    1    2    0    0  0.30725079378E+03  0.59533813304E+02  0.79415597900E+03  0.88945547623E+03  0.25000000000E+03 0.  0.
    5000001    1    1    2    0    0 -0.30725079378E+03 -0.59533813304E+02  0.18499720499E+03  0.44121569675E+03  0.25000000000E+03 0.  0.
<mgrwt>
<rscale>  0 0.90107980E+03</rscale>
<asrwt>0</asrwt>
<pdfrwt beam="1">  1        2 0.17767879E+00 0.90107980E+03</pdfrwt>
<pdfrwt beam="2">  1       -2 0.27039846E-01 0.90107980E+03</pdfrwt>
<totfact> 0.25090742E+02</totfact>
</mgrwt>
</event>
<event>
 4    1  0.1773996E-005  0.5734222E+03  0.7818608E-02  0.9962134E-01
         -2   -1    0    0    0  501 -0.00000000000E+00  0.00000000000E+00  0.59274336999E+02  0.59274337053E+02  0.25500000000E-02 0. -1.
          2   -1    0    0  501    0  0.00000000000E+00 -0.00000000000E+00 -0.13868268487E+04  0.13868268487E+04  0.25500000000E-02 0.  1.
   -5000001    1    1    2    0    0 -0.58706414813E+02  0.24938163196E+02 -0.97911082632E+03  0.10125346243E+04  0.25000000000E+03 0.  0.
    5000001    1    1    2    0    0  0.58706414813E+02 -0.24938163196E+02 -0.34844168535E+03  0.43356656146E+03  0.25000000000E+03 0.  0.
<mgrwt>
<rscale>  0 0.57342216E+03</rscale>
<asrwt>0</asrwt>
<pdfrwt beam="1">  1        2 0.21335795E+00 0.57342216E+03</pdfrwt>
<pdfrwt beam="2">  1       -2 0.91191298E-02 0.57342216E+03</pdfrwt>
<totfact> 0.11929420E+03</totfact>
</mgrwt>
</event>
<event>
 4    1  0.1773996E-005  0.6096898E+03  0.7818608E-02  0.9885504E-01
         -2   -1    0    0    0  501 -0.00000000000E+00  0.00000000000E+00  0.17919905359E+03  0.17919905361E+03  0.25500000000E-02 0. -1.
          2   -1    0    0  501    0  0.00000000000E+00 -0.00000000000E+00 -0.51858767682E+03  0.51858767682E+03  0.25500000000E-02 0.  1.
   -5000001    1    1    2    0    0  0.13648868421E+03 -0.10751980169E+03 -0.18745251042E+03  0.35753057538E+03  0.25000000000E+03 0.  0.
    5000001    1    1    2    0    0 -0.13648868421E+03  0.10751980169E+03 -0.15193611281E+03  0.34025615505E+03  0.25000000000E+03 0.  0.
<mgrwt>
<rscale>  0 0.60968983E+03</rscale>
<asrwt>0</asrwt>
<pdfrwt beam="1">  1        2 0.79782719E-01 0.60968983E+03</pdfrwt>
<pdfrwt beam="2">  1       -2 0.27569085E-01 0.60968983E+03</pdfrwt>
<totfact> 0.71126346E+02</totfact>
</mgrwt>
</event>
<event>
 4    1  0.1773996E-005  0.6951910E+03  0.7818608E-02  0.9725492E-01
          2   -1    0    0  501    0  0.00000000000E+00  0.00000000000E+00  0.15713251012E+04  0.15713251012E+04  0.25500000000E-02 0. -1.
         -2   -1    0    0    0  501 -0.00000000000E+00 -0.00000000000E+00 -0.76892187337E+02  0.76892187380E+02  0.25500000000E-02 0.  1.
   -5000001    1    1    2    0    0 -0.14754780631E+03 -0.17615202723E+03  0.57102399187E+03  0.66435554573E+03  0.25000000000E+03 0.  0.
    5000001    1    1    2    0    0  0.14754780631E+03  0.17615202723E+03  0.92340892200E+03  0.98386174286E+03  0.25000000000E+03 0.  0.
<mgrwt>
<rscale>  0 0.69519098E+03</rscale>
<asrwt>0</asrwt>
<pdfrwt beam="1">  1        2 0.24174229E+00 0.69519098E+03</pdfrwt>
<pdfrwt beam="2">  1       -2 0.11829569E-01 0.69519098E+03</pdfrwt>
<totfact> 0.61312469E+02</totfact>
</mgrwt>
</event>
<event>
 4    1  0.1773996E-005  0.1062551E+04  0.7818608E-02  0.9242481E-01
         -2   -1    0    0    0  501 -0.00000000000E+00  0.00000000000E+00  0.57440672876E+03  0.57440672877E+03  0.25500000000E-02 0. -1.
          2   -1    0    0  501    0  0.00000000000E+00 -0.00000000000E+00 -0.49138320306E+03  0.49138320306E+03  0.25500000000E-02 0.  1.
   -5000001    1    1    2    0    0 -0.30369133825E+03 -0.35327407972E+03  0.93851397351E+02  0.53697214929E+03  0.25000000000E+03 0.  0.
    5000001    1    1    2    0    0  0.30369133825E+03  0.35327407972E+03 -0.10827871647E+02  0.52881778254E+03  0.25000000000E+03 0.  0.
<mgrwt>
<rscale>  0 0.10625513E+04</rscale>
<asrwt>0</asrwt>
<pdfrwt beam="1">  1        2 0.75597416E-01 0.10625513E+04</pdfrwt>
<pdfrwt beam="2">  1       -2 0.88370266E-01 0.10625513E+04</pdfrwt>
<totfact> 0.68956418E+01</totfact>
</mgrwt>
</event>
<event>
 4    1  0.1773996E-005  0.8051335E+03  0.7818608E-02  0.9552616E-01
          2   -1    0    0  501    0  0.00000000000E+00  0.00000000000E+00  0.20078805595E+04  0.20078805595E+04  0.25500000000E-02 0.  1.
         -2   -1    0    0    0  501 -0.00000000000E+00 -0.00000000000E+00 -0.80711972340E+02  0.80711972381E+02  0.25500000000E-02 0. -1.
   -5000001    1    1    2    0    0 -0.20158672572E+03 -0.22707094296E+03  0.11861566887E+04  0.12496663999E+04  0.25000000000E+03 0.  0.
    5000001    1    1    2    0    0  0.20158672572E+03  0.22707094296E+03  0.74101189855E+03  0.83892613198E+03  0.25000000000E+03 0.  0.
<mgrwt>
<rscale>  0 0.80513353E+03</rscale>
<asrwt>0</asrwt>
<pdfrwt beam="1">  1        2 0.30890464E+00 0.80513353E+03</pdfrwt>
<pdfrwt beam="2">  1       -2 0.12417229E-01 0.80513353E+03</pdfrwt>
<totfact> 0.32428976E+02</totfact>
</mgrwt>
</event>
<event>
 4    1  0.1773996E-005  0.5451967E+03  0.7818608E-02  0.1002612E+00
          2   -1    0    0  501    0  0.00000000000E+00  0.00000000000E+00  0.32142272311E+04  0.32142272311E+04  0.25500000000E-02 0.  1.
         -2   -1    0    0    0  501 -0.00000000000E+00 -0.00000000000E+00 -0.23119043468E+02  0.23119043608E+02  0.25500000000E-02 0. -1.
   -5000001    1    1    2    0    0 -0.10469038730E+03 -0.24819762818E+02  0.16863408323E+04  0.17081631949E+04  0.25000000000E+03 0.  0.
    5000001    1    1    2    0    0  0.10469038730E+03  0.24819762818E+02  0.15047673553E+04  0.15291830798E+04  0.25000000000E+03 0.  0.
<mgrwt>
<rscale>  0 0.54519670E+03</rscale>
<asrwt>0</asrwt>
<pdfrwt beam="1">  1        2 0.49449593E+00 0.54519670E+03</pdfrwt>
<pdfrwt beam="2">  1       -2 0.35567800E-02 0.54519670E+03</pdfrwt>
<totfact> 0.48297731E+02</totfact>
</mgrwt>
</event>
<event>
 4    1  0.1773996E-005  0.7404652E+03  0.7818608E-02  0.9650429E-01
         -2   -1    0    0    0  501 -0.00000000000E+00  0.00000000000E+00  0.73422412226E+02  0.73422412270E+02  0.25500000000E-02 0. -1.
          2   -1    0    0  501    0  0.00000000000E+00 -0.00000000000E+00 -0.18668982461E+04  0.18668982461E+04  0.25500000000E-02 0.  1.
   -5000001    1    1    2    0    0  0.22836859068E+03 -0.14424964404E+03 -0.10019465393E+04  0.10674066894E+04  0.25000000000E+03 0.  0.
    5000001    1    1    2    0    0 -0.22836859068E+03  0.14424964404E+03 -0.79152929456E+03  0.87291396893E+03  0.25000000000E+03 0.  0.
<mgrwt>
<rscale>  0 0.74046519E+03</rscale>
<asrwt>0</asrwt>
<pdfrwt beam="1">  1        2 0.28721508E+00 0.74046519E+03</pdfrwt>
<pdfrwt beam="2">  1       -2 0.11295757E-01 0.74046519E+03</pdfrwt>
<totfact> 0.45477311E+02</totfact>
</mgrwt>
</event>
<event>
 4    1  0.1773996E-005  0.6615719E+03  0.7818608E-02  0.9785304E-01
          2   -1    0    0  501    0  0.00000000000E+00  0.00000000000E+00  0.16733022972E+03  0.16733022974E+03  0.25500000000E-02 0.  1.
         -2   -1    0    0    0  501 -0.00000000000E+00 -0.00000000000E+00 -0.65391259310E+03  0.65391259311E+03  0.25500000000E-02 0. -1.
   -5000001    1    1    2    0    0 -0.11717736515E+03  0.13599636770E+03 -0.39376521516E+03  0.49977654166E+03  0.25000000000E+03 0.  0.
    5000001    1    1    2    0    0  0.11717736515E+03 -0.13599636770E+03 -0.92817148224E+02  0.32146628118E+03  0.25000000000E+03 0.  0.
<mgrwt>
<rscale>  0 0.66157190E+03</rscale>
<asrwt>0</asrwt>
<pdfrwt beam="1">  1        2 0.25743113E-01 0.66157190E+03</pdfrwt>
<pdfrwt beam="2">  1       -2 0.10060194E+00 0.66157190E+03</pdfrwt>
<totfact> 0.17448400E+02</totfact>
</mgrwt>
</event>
<event>
 4    1  0.1773996E-005  0.7150658E+03  0.7818608E-02  0.9691809E-01
         -2   -1    0    0    0  501 -0.00000000000E+00  0.00000000000E+00  0.13828271558E+04  0.13828271558E+04  0.25500000000E-02 0. -1.
          2   -1    0    0  501    0  0.00000000000E+00 -0.00000000000E+00 -0.92440884758E+02  0.92440884793E+02  0.25500000000E-02 0.  1.
   -5000001    1    1    2    0    0 -0.31543173092E+02 -0.17371877833E+03  0.10264890326E+04  0.10711456110E+04  0.25000000000E+03 0.  0.
    5000001    1    1    2    0    0  0.31543173092E+02  0.17371877833E+03  0.26389723840E+03  0.40412242965E+03  0.25000000000E+03 0.  0.
<mgrwt>
<rscale>  0 0.71506578E+03</rscale>
<asrwt>0</asrwt>
<pdfrwt beam="1">  1        2 0.14221676E-01 0.71506578E+03</pdfrwt>
<pdfrwt beam="2">  1       -2 0.21274262E+00 0.71506578E+03</pdfrwt>
<totfact> 0.48085688E+01</totfact>
</mgrwt>
</event>
<event>
 4    1  0.1773996E-005  0.7325253E+03  0.7818608E-02  0.9663171E-01
         -2   -1    0    0    0  501 -0.00000000000E+00  0.00000000000E+00  0.44614831163E+02  0.44614831236E+02  0.25500000000E-02 0. -1.
          2   -1    0    0  501    0  0.00000000000E+00 -0.00000000000E+00 -0.30068101145E+04  0.30068101145E+04  0.25500000000E-02 0.  1.
   -5000001    1    1    2    0    0  0.18395353783E+03 -0.32495409420E+02 -0.68249775823E+03  0.75046521952E+03  0.25000000000E+03 0.  0.
    5000001    1    1    2    0    0 -0.18395353783E+03  0.32495409420E+02 -0.22796975251E+04  0.23009597262E+04  0.25000000000E+03 0.  0.
<mgrwt>
<rscale>  0 0.73252529E+03</rscale>
<asrwt>0</asrwt>
<pdfrwt beam="1">  1        2 0.46258601E+00 0.73252529E+03</pdfrwt>
<pdfrwt beam="2">  1       -2 0.68638225E-02 0.73252529E+03</pdfrwt>
<totfact> 0.22898128E+02</totfact>
</mgrwt>
</event>
<event>
 4    1  0.1773996E-005  0.7727761E+03  0.7818608E-02  0.9600281E-01
          2   -1    0    0  501    0  0.00000000000E+00  0.00000000000E+00  0.34399747239E+03  0.34399747240E+03  0.25500000000E-02 0.  1.
         -2   -1    0    0    0  501 -0.00000000000E+00 -0.00000000000E+00 -0.43400238664E+03  0.43400238665E+03  0.25500000000E-02 0. -1.
   -5000001    1    1    2    0    0  0.87393413360E+02  0.18931342645E+03 -0.25454043713E+03  0.41324086955E+03  0.25000000000E+03 0.  0.
    5000001    1    1    2    0    0 -0.87393413360E+02 -0.18931342645E+03  0.16453552288E+03  0.36475898950E+03  0.25000000000E+03 0.  0.
<mgrwt>
<rscale>  0 0.77277610E+03</rscale>
<asrwt>0</asrwt>
<pdfrwt beam="1">  1        2 0.52922688E-01 0.77277610E+03</pdfrwt>
<pdfrwt beam="2">  1       -2 0.66769598E-01 0.77277610E+03</pdfrwt>
<totfact> 0.19575478E+02</totfact>
</mgrwt>
</event>
<event>
 4    1  0.1773996E-005  0.5120031E+03  0.7818608E-02  0.1010693E+00
         -2   -1    0    0    0  501 -0.00000000000E+00  0.00000000000E+00  0.14855873447E+03  0.14855873449E+03  0.25500000000E-02 0. -1.
          2   -1    0    0  501    0  0.00000000000E+00 -0.00000000000E+00 -0.44115073098E+03  0.44115073099E+03  0.25500000000E-02 0.  1.
   -5000001    1    1    2    0    0 -0.13416294139E+02 -0.53127733812E+02 -0.15303569566E+03  0.29819872098E+03  0.25000000000E+03 0.  0.
    5000001    1    1    2    0    0  0.13416294139E+02  0.53127733812E+02 -0.13955630086E+03  0.29151074450E+03  0.25000000000E+03 0.  0.
<mgrwt>
<rscale>  0 0.51200310E+03</rscale>
<asrwt>0</asrwt>
<pdfrwt beam="1">  1        2 0.67869343E-01 0.51200310E+03</pdfrwt>
<pdfrwt beam="2">  1       -2 0.22855190E-01 0.51200310E+03</pdfrwt>
<totfact> 0.11992033E+03</totfact>
</mgrwt>
</event>
<event>
 4    1  0.1773996E-005  0.6649641E+03  0.7818608E-02  0.9779098E-01
         -2   -1    0    0    0  501 -0.00000000000E+00  0.00000000000E+00  0.13009725421E+03  0.13009725423E+03  0.25500000000E-02 0. -1.
          2   -1    0    0  501    0  0.00000000000E+00 -0.00000000000E+00 -0.84970508509E+03  0.84970508509E+03  0.25500000000E-02 0.  1.
   -5000001    1    1    2    0    0 -0.68673436984E+02  0.18307876126E+03 -0.21386060044E+03  0.38271429317E+03  0.25000000000E+03 0.  0.
    5000001    1    1    2    0    0  0.68673436984E+02 -0.18307876126E+03 -0.50574723044E+03  0.59708804616E+03  0.25000000000E+03 0.  0.
<mgrwt>
<rscale>  0 0.66496405E+03</rscale>
<asrwt>0</asrwt>
<pdfrwt beam="1">  1        2 0.13072386E+00 0.66496405E+03</pdfrwt>
<pdfrwt beam="2">  1       -2 0.20014963E-01 0.66496405E+03</pdfrwt>
<totfact> 0.68092111E+02</totfact>
</mgrwt>
</event>
<event>
 4    1  0.1773996E-005  0.8235271E+03  0.7818608E-02  0.9526573E-01
         -2   -1    0    0    0  501 -0.00000000000E+00  0.00000000000E+00  0.16500595497E+03  0.16500595498E+03  0.25500000000E-02 0. -1.
          2   -1    0    0  501    0  0.00000000000E+00 -0.00000000000E+00 -0.10275338750E+04  0.10275338750E+04  0.25500000000E-02 0.  1.
   -5000001    1    1    2    0    0 -0.16710529638E+03 -0.27021686597E+03 -0.54443623197E+03  0.67812398971E+03  0.25000000000E+03 0.  0.
    5000001    1    1    2    0    0  0.16710529638E+03  0.27021686597E+03 -0.31809168810E+03  0.51441584032E+03  0.25000000000E+03 0.  0.
<mgrwt>
<rscale>  0 0.82352707E+03</rscale>
<asrwt>0</asrwt>
<pdfrwt beam="1">  1        2 0.15808213E+00 0.82352707E+03</pdfrwt>
<pdfrwt beam="2">  1       -2 0.25385532E-01 0.82352707E+03</pdfrwt>
<totfact> 0.33857580E+02</totfact>
</mgrwt>
</event>
<event>
 4    1  0.1773996E-005  0.6078987E+03  0.7818608E-02  0.9889153E-01
         -2   -1    0    0    0  501 -0.00000000000E+00  0.00000000000E+00  0.80656162733E+02  0.80656162773E+02  0.25500000000E-02 0. -1.
          2   -1    0    0  501    0  0.00000000000E+00 -0.00000000000E+00 -0.11454202896E+04  0.11454202896E+04  0.25500000000E-02 0.  1.
   -5000001    1    1    2    0    0 -0.14308087279E+03 -0.92759425300E+02 -0.58974028542E+03  0.66284994635E+03  0.25000000000E+03 0.  0.
    5000001    1    1    2    0    0  0.14308087279E+03  0.92759425300E+02 -0.47502384146E+03  0.56322650603E+03  0.25000000000E+03 0.  0.
<mgrwt>
<rscale>  0 0.60789869E+03</rscale>
<asrwt>0</asrwt>
<pdfrwt beam="1">  1        2 0.17621849E+00 0.60789869E+03</pdfrwt>
<pdfrwt beam="2">  1       -2 0.12408641E-01 0.60789869E+03</pdfrwt>
<totfact> 0.99417045E+02</totfact>
</mgrwt>
</event>
<event>
 4    1  0.1773996E-005  0.7019464E+03  0.7818608E-02  0.9713909E-01
         -2   -1    0    0    0  501 -0.00000000000E+00  0.00000000000E+00  0.60133133853E+02  0.60133133907E+02  0.25500000000E-02 0. -1.
          2   -1    0    0  501    0  0.00000000000E+00 -0.00000000000E+00 -0.20484910449E+04  0.20484910449E+04  0.25500000000E-02 0.  1.
   -5000001    1    1    2    0    0 -0.22778336346E+03 -0.79212452501E+02 -0.11450461164E+04  0.11965744783E+04  0.25000000000E+03 0.  0.
    5000001    1    1    2    0    0  0.22778336346E+03  0.79212452501E+02 -0.84331179460E+03  0.91204970051E+03  0.25000000000E+03 0.  0.
<mgrwt>
<rscale>  0 0.70194640E+03</rscale>
<asrwt>0</asrwt>
<pdfrwt beam="1">  1        2 0.31515241E+00 0.70194640E+03</pdfrwt>
<pdfrwt beam="2">  1       -2 0.92512530E-02 0.70194640E+03</pdfrwt>
<totfact> 0.50284191E+02</totfact>
</mgrwt>
</event>
<event>
 4    1  0.1773996E-005  0.8693861E+03  0.7818608E-02  0.9464681E-01
          2   -1    0    0  501    0  0.00000000000E+00  0.00000000000E+00  0.70931621977E+03  0.70931621978E+03  0.25500000000E-02 0.  1.
         -2   -1    0    0    0  501 -0.00000000000E+00 -0.00000000000E+00 -0.26639462673E+03  0.26639462674E+03  0.25500000000E-02 0. -1.
   -5000001    1    1    2    0    0 -0.14048912291E+03  0.25612354438E+03  0.44904561272E+03  0.59116700343E+03  0.25000000000E+03 0.  0.
    5000001    1    1    2    0    0  0.14048912291E+03 -0.25612354438E+03 -0.61240196728E+01  0.38454384309E+03  0.25000000000E+03 0.  0.
<mgrwt>
<rscale>  0 0.86938606E+03</rscale>
<asrwt>0</asrwt>
<pdfrwt beam="1">  1        2 0.10912557E+00 0.86938606E+03</pdfrwt>
<pdfrwt beam="2">  1       -2 0.40983790E-01 0.86938606E+03</pdfrwt>
<totfact> 0.22800970E+02</totfact>
</mgrwt>
</event>
<event>
 4    1  0.1773996E-005  0.5640699E+03  0.7818608E-02  0.9982888E-01
         -2   -1    0    0    0  501 -0.00000000000E+00  0.00000000000E+00  0.89391310013E+02  0.89391310050E+02  0.25500000000E-02 0. -1.
          2   -1    0    0  501    0  0.00000000000E+00 -0.00000000000E+00 -0.88983718382E+03  0.88983718383E+03  0.25500000000E-02 0.  1.
   -5000001    1    1    2    0    0 -0.15098112366E+02  0.87921155799E+02 -0.23474937367E+03  0.35435201576E+03  0.25000000000E+03 0.  0.
    5000001    1    1    2    0    0  0.15098112366E+02 -0.87921155799E+02 -0.56569650014E+03  0.62487647812E+03  0.25000000000E+03 0.  0.
<mgrwt>
<rscale>  0 0.56406989E+03</rscale>
<asrwt>0</asrwt>
<pdfrwt beam="1">  1        2 0.13689802E+00 0.56406989E+03</pdfrwt>
<pdfrwt beam="2">  1       -2 0.13752510E-01 0.56406989E+03</pdfrwt>
<totfact> 0.12154457E+03</totfact>
</mgrwt>
</event>
<event>
 4    1  0.1773996E-005  0.1035354E+04  0.7818608E-02  0.9270597E-01
          2   -1    0    0  501    0  0.00000000000E+00  0.00000000000E+00  0.67338816828E+03  0.67338816828E+03  0.25500000000E-02 0.  1.
         -2   -1    0    0    0  501 -0.00000000000E+00 -0.00000000000E+00 -0.39797150002E+03  0.39797150003E+03  0.25500000000E-02 0. -1.
   -5000001    1    1    2    0    0  0.18306777148E+03 -0.34405263716E+03 -0.10186706834E+03  0.47409168491E+03  0.25000000000E+03 0.  0.
    5000001    1    1    2    0    0 -0.18306777148E+03  0.34405263716E+03  0.37728373660E+03  0.59726798340E+03  0.25000000000E+03 0.  0.
<mgrwt>
<rscale>  0 0.10353537E+04</rscale>
<asrwt>0</asrwt>
<pdfrwt beam="1">  1        2 0.10359818E+00 0.10353537E+04</pdfrwt>
<pdfrwt beam="2">  1       -2 0.61226385E-01 0.10353537E+04</pdfrwt>
<totfact> 0.10643614E+02</totfact>
</mgrwt>
</event>
<event>
 4    1  0.1773996E-005  0.6571491E+03  0.7818608E-02  0.9793456E-01
          2   -1    0    0  501    0  0.00000000000E+00  0.00000000000E+00  0.61363691350E+03  0.61363691350E+03  0.25500000000E-02 0.  1.
         -2   -1    0    0    0  501 -0.00000000000E+00 -0.00000000000E+00 -0.17593668288E+03  0.17593668290E+03  0.25500000000E-02 0. -1.
   -5000001    1    1    2    0    0  0.17079436865E+02  0.21140714242E+03  0.19262087764E+03  0.38024661673E+03  0.25000000000E+03 0.  0.
    5000001    1    1    2    0    0 -0.17079436865E+02 -0.21140714242E+03  0.24507935297E+03  0.40932697967E+03  0.25000000000E+03 0.  0.
<mgrwt>
<rscale>  0 0.65714912E+03</rscale>
<asrwt>0</asrwt>
<pdfrwt beam="1">  1        2 0.94405681E-01 0.65714912E+03</pdfrwt>
<pdfrwt beam="2">  1       -2 0.27067182E-01 0.65714912E+03</pdfrwt>
<totfact> 0.60201112E+02</totfact>
</mgrwt>
</event>
<event>
 4    1  0.1773996E-005  0.7717762E+03  0.7818608E-02  0.9601793E-01
         -2   -1    0    0    0  501 -0.00000000000E+00  0.00000000000E+00  0.15846057208E+03  0.15846057210E+03  0.25500000000E-02 0. -1.
          2   -1    0    0  501    0  0.00000000000E+00 -0.00000000000E+00 -0.93972675288E+03  0.93972675289E+03  0.25500000000E-02 0.  1.
   -5000001    1    1    2    0    0 -0.20162027543E+03 -0.39304917530E+02 -0.91430698263E+02  0.33623679839E+03  0.25000000000E+03 0.  0.
    5000001    1    1    2    0    0  0.20162027543E+03  0.39304917530E+02 -0.68983548254E+03  0.76195052660E+03  0.25000000000E+03 0.  0.
<mgrwt>
<rscale>  0 0.77177623E+03</rscale>
<asrwt>0</asrwt>
<pdfrwt beam="1">  1        2 0.14457334E+00 0.77177623E+03</pdfrwt>
<pdfrwt beam="2">  1       -2 0.24378550E-01 0.77177623E+03</pdfrwt>
<totfact> 0.41586583E+02</totfact>
</mgrwt>
</event>
<event>
 4    1  0.1773996E-005  0.1700711E+04  0.7818608E-02  0.8760959E-01
          2   -1    0    0  501    0  0.00000000000E+00  0.00000000000E+00  0.17388537896E+04  0.17388537896E+04  0.25500000000E-02 0.  1.
         -2   -1    0    0    0  501 -0.00000000000E+00 -0.00000000000E+00 -0.41585128251E+03  0.41585128252E+03  0.25500000000E-02 0. -1.
   -5000001    1    1    2    0    0 -0.23106951781E+03 -0.77627239387E+03  0.57545510229E+03  0.10245196564E+04  0.25000000000E+03 0.  0.
    5000001    1    1    2    0    0  0.23106951781E+03  0.77627239387E+03  0.74754740484E+03  0.11301854158E+04  0.25000000000E+03 0.  0.
<mgrwt>
<rscale>  0 0.17007111E+04</rscale>
<asrwt>0</asrwt>
<pdfrwt beam="1">  1        2 0.26751597E+00 0.17007111E+04</pdfrwt>
<pdfrwt beam="2">  1       -2 0.63977120E-01 0.17007111E+04</pdfrwt>
<totfact> 0.20052376E+01</totfact>
</mgrwt>
</event>
<event>
 4    1  0.1773996E-005  0.9143814E+03  0.7818608E-02  0.9407780E-01
         -2   -1    0    0    0  501 -0.00000000000E+00  0.00000000000E+00  0.14159085212E+03  0.14159085214E+03  0.25500000000E-02 0. -1.
          2   -1    0    0  501    0  0.00000000000E+00 -0.00000000000E+00 -0.14762489693E+04  0.14762489693E+04  0.25500000000E-02 0.  1.
   -5000001    1    1    2    0    0 -0.21593594978E+03  0.31491559231E+03 -0.61974814474E+03  0.76966741363E+03  0.25000000000E+03 0.  0.
    5000001    1    1    2    0    0  0.21593594978E+03 -0.31491559231E+03 -0.71490997240E+03  0.84817240778E+03  0.25000000000E+03 0.  0.
<mgrwt>
<rscale>  0 0.91438143E+03</rscale>
<asrwt>0</asrwt>
<pdfrwt beam="1">  1        2 0.22711521E+00 0.91438143E+03</pdfrwt>
<pdfrwt beam="2">  1       -2 0.21783209E-01 0.91438143E+03</pdfrwt>
<totfact> 0.24102153E+02</totfact>
</mgrwt>
</event>
<event>
 4    1  0.1773996E-005  0.5976892E+03  0.7818608E-02  0.9910212E-01
          2   -1    0    0  501    0  0.00000000000E+00  0.00000000000E+00  0.18456108020E+04  0.18456108020E+04  0.25500000000E-02 0.  1.
         -2   -1    0    0    0  501 -0.00000000000E+00 -0.00000000000E+00 -0.48389446440E+02  0.48389446507E+02  0.25500000000E-02 0. -1.
   -5000001    1    1    2    0    0 -0.11515140117E+03  0.65111832449E+02  0.59287303539E+03  0.65688494579E+03  0.25000000000E+03 0.  0.
    5000001    1    1    2    0    0  0.11515140117E+03 -0.65111832449E+02  0.12043483202E+04  0.12371153027E+04  0.25000000000E+03 0.  0.
<mgrwt>
<rscale>  0 0.59768917E+03</rscale>
<asrwt>0</asrwt>
<pdfrwt beam="1">  1        2 0.28394015E+00 0.59768917E+03</pdfrwt>
<pdfrwt beam="2">  1       -2 0.74445296E-02 0.59768917E+03</pdfrwt>
<totfact> 0.92402783E+02</totfact>
</mgrwt>
</event>
<event>
 4    1  0.1773996E-005  0.7382337E+03  0.7818608E-02  0.9653993E-01
         -2   -1    0    0    0  501 -0.00000000000E+00  0.00000000000E+00  0.29508833905E+03  0.29508833906E+03  0.25500000000E-02 0. -1.
          2   -1    0    0  501    0  0.00000000000E+00 -0.00000000000E+00 -0.46171683702E+03  0.46171683702E+03  0.25500000000E-02 0.  1.
   -5000001    1    1    2    0    0 -0.16613234249E+02  0.25893462111E+03 -0.16548115591E+03  0.39649356934E+03  0.25000000000E+03 0.  0.
    5000001    1    1    2    0    0  0.16613234249E+02 -0.25893462111E+03 -0.11473420559E+01  0.36031160675E+03  0.25000000000E+03 0.  0.
<mgrwt>
<rscale>  0 0.73823372E+03</rscale>
<asrwt>0</asrwt>
<pdfrwt beam="1">  1        2 0.71033360E-01 0.73823372E+03</pdfrwt>
<pdfrwt beam="2">  1       -2 0.45398206E-01 0.73823372E+03</pdfrwt>
<totfact> 0.31324018E+02</totfact>
</mgrwt>
</event>
<event>
 4    1  0.1773996E-005  0.5974798E+03  0.7818608E-02  0.9910649E-01
         -2   -1    0    0    0  501 -0.00000000000E+00  0.00000000000E+00  0.52308379308E+02  0.52308379371E+02  0.25500000000E-02 0. -1.
          2   -1    0    0  501    0  0.00000000000E+00 -0.00000000000E+00 -0.17061419402E+04  0.17061419402E+04  0.25500000000E-02 0.  1.
   -5000001    1    1    2    0    0  0.11272620794E+03  0.99094666643E+02 -0.10180734561E+04  0.10590092128E+04  0.25000000000E+03 0.  0.
    5000001    1    1    2    0    0 -0.11272620794E+03 -0.99094666643E+02 -0.63576010483E+03  0.69944110675E+03  0.25000000000E+03 0.  0.
<mgrwt>
<rscale>  0 0.59747977E+03</rscale>
<asrwt>0</asrwt>
<pdfrwt beam="1">  1        2 0.26248333E+00 0.59747977E+03</pdfrwt>
<pdfrwt beam="2">  1       -2 0.80474443E-02 0.59747977E+03</pdfrwt>
<totfact> 0.97145853E+02</totfact>
</mgrwt>
</event>
<event>
 4    1  0.1773996E-005  0.6848882E+03  0.7818608E-02  0.9743430E-01
         -2   -1    0    0    0  501 -0.00000000000E+00  0.00000000000E+00  0.11777359640E+03  0.11777359643E+03  0.25500000000E-02 0. -1.
          2   -1    0    0  501    0  0.00000000000E+00 -0.00000000000E+00 -0.99570679245E+03  0.99570679245E+03  0.25500000000E-02 0.  1.
   -5000001    1    1    2    0    0 -0.11648648734E+03  0.68782067659E+02 -0.12849761200E+03  0.31194825028E+03  0.25000000000E+03 0.  0.
    5000001    1    1    2    0    0  0.11648648734E+03 -0.68782067659E+02 -0.74943558405E+03  0.80153213860E+03  0.25000000000E+03 0.  0.
<mgrwt>
<rscale>  0 0.68488822E+03</rscale>
<asrwt>0</asrwt>
<pdfrwt beam="1">  1        2 0.15318565E+00 0.68488822E+03</pdfrwt>
<pdfrwt beam="2">  1       -2 0.18119015E-01 0.68488822E+03</pdfrwt>
<totfact> 0.64728356E+02</totfact>
</mgrwt>
</event>
<event>
 4    1  0.1773996E-005  0.7304724E+03  0.7818608E-02  0.9666494E-01
          2   -1    0    0  501    0  0.00000000000E+00  0.00000000000E+00  0.79350891845E+03  0.79350891845E+03  0.25500000000E-02 0.  1.
         -2   -1    0    0    0  501 -0.00000000000E+00 -0.00000000000E+00 -0.16811088589E+03  0.16811088591E+03  0.25500000000E-02 0. -1.
   -5000001    1    1    2    0    0  0.38134115425E+02  0.26349490066E+03  0.30782396935E+03  0.47763937184E+03  0.25000000000E+03 0.  0.
    5000001    1    1    2    0    0 -0.38134115425E+02 -0.26349490066E+03  0.31757406321E+03  0.48398043252E+03  0.25000000000E+03 0.  0.
<mgrwt>
<rscale>  0 0.73047241E+03</rscale>
<asrwt>0</asrwt>
<pdfrwt beam="1">  1        2 0.12207830E+00 0.73047241E+03</pdfrwt>
<pdfrwt beam="2">  1       -2 0.25863213E-01 0.73047241E+03</pdfrwt>
<totfact> 0.47193653E+02</totfact>
</mgrwt>
</event>
<event>
 4    1  0.1773996E-005  0.1078915E+04  0.7818608E-02  0.9225990E-01
          2   -1    0    0  501    0  0.00000000000E+00  0.00000000000E+00  0.46804408293E+03  0.46804408294E+03  0.25500000000E-02 0.  1.
         -2   -1    0    0    0  501 -0.00000000000E+00 -0.00000000000E+00 -0.62176676097E+03  0.62176676098E+03  0.25500000000E-02 0. -1.
   -5000001    1    1    2    0    0 -0.23270974475E+03  0.41460327857E+03 -0.12700693243E+03  0.55197868146E+03  0.25000000000E+03 0.  0.
    5000001    1    1    2    0    0  0.23270974475E+03 -0.41460327857E+03 -0.26715745611E+02  0.53783216245E+03  0.25000000000E+03 0.  0.
<mgrwt>
<rscale>  0 0.10789147E+04</rscale>
<asrwt>0</asrwt>
<pdfrwt beam="1">  1        2 0.72006782E-01 0.10789147E+04</pdfrwt>
<pdfrwt beam="2">  1       -2 0.95656425E-01 0.10789147E+04</pdfrwt>
<totfact> 0.60627551E+01</totfact>
</mgrwt>
</event>
<event>
 4    1  0.1773996E-005  0.5979985E+03  0.7818608E-02  0.9909567E-01
          2   -1    0    0  501    0  0.00000000000E+00  0.00000000000E+00  0.24318219885E+04  0.24318219885E+04  0.25500000000E-02 0.  1.
         -2   -1    0    0    0  501 -0.00000000000E+00 -0.00000000000E+00 -0.36762784940E+02  0.36762785029E+02  0.25500000000E-02 0. -1.
   -5000001    1    1    2    0    0  0.29369998970E+02 -0.16078623088E+03  0.12537897258E+04  0.12888768310E+04  0.25000000000E+03 0.  0.
    5000001    1    1    2    0    0 -0.29369998970E+02  0.16078623088E+03  0.11412694777E+04  0.11797079425E+04  0.25000000000E+03 0.  0.
<mgrwt>
<rscale>  0 0.59799849E+03</rscale>
<asrwt>0</asrwt>
<pdfrwt beam="1">  1        2 0.37412651E+00 0.59799849E+03</pdfrwt>
<pdfrwt beam="2">  1       -2 0.56558123E-02 0.59799849E+03</pdfrwt>
<totfact> 0.68082779E+02</totfact>
</mgrwt>
</event>
<event>
 4    1  0.1773996E-005  0.7167072E+03  0.7818608E-02  0.9689080E-01
         -2   -1    0    0    0  501 -0.00000000000E+00  0.00000000000E+00  0.12509166804E+03  0.12509166806E+03  0.25500000000E-02 0. -1.
          2   -1    0    0  501    0  0.00000000000E+00 -0.00000000000E+00 -0.10265854458E+04  0.10265854458E+04  0.25500000000E-02 0.  1.
   -5000001    1    1    2    0    0 -0.19821953749E+03  0.14294328880E+03 -0.32428558268E+03  0.47684893624E+03  0.25000000000E+03 0.  0.
    5000001    1    1    2    0    0  0.19821953749E+03 -0.14294328880E+03 -0.57720819508E+03  0.67482817763E+03  0.25000000000E+03 0.  0.
<mgrwt>
<rscale>  0 0.71670715E+03</rscale>
<asrwt>0</asrwt>
<pdfrwt beam="1">  1        2 0.15793622E+00 0.71670715E+03</pdfrwt>
<pdfrwt beam="2">  1       -2 0.19244873E-01 0.71670715E+03</pdfrwt>
<totfact> 0.55674729E+02</totfact>
</mgrwt>
</event>
<event>
 4    1  0.1773996E-005  0.1196157E+04  0.7818608E-02  0.9116227E-01
         -2   -1    0    0    0  501 -0.00000000000E+00  0.00000000000E+00  0.49115527595E+03  0.49115527596E+03  0.25500000000E-02 0. -1.
          2   -1    0    0  501    0  0.00000000000E+00 -0.00000000000E+00 -0.72827916507E+03  0.72827916508E+03  0.25500000000E-02 0.  1.
   -5000001    1    1    2    0    0 -0.64394374769E+02  0.46307722826E+03 -0.40073508759E+03  0.66458691324E+03  0.25000000000E+03 0.  0.
    5000001    1    1    2    0    0  0.64394374769E+02 -0.46307722826E+03  0.16361119847E+03  0.55484752779E+03  0.25000000000E+03 0.  0.
<mgrwt>
<rscale>  0 0.11961574E+04</rscale>
<asrwt>0</asrwt>
<pdfrwt beam="1">  1        2 0.11204295E+00 0.11961574E+04</pdfrwt>
<pdfrwt beam="2">  1       -2 0.75562350E-01 0.11961574E+04</pdfrwt>
<totfact> 0.60410424E+01</totfact>
</mgrwt>
</event>
<event>
 4    1  0.1773996E-005  0.9412677E+03  0.7818608E-02  0.9375416E-01
          2   -1    0    0  501    0  0.00000000000E+00  0.00000000000E+00  0.29263313196E+04  0.29263313196E+04  0.25500000000E-02 0.  1.
         -2   -1    0    0    0  501 -0.00000000000E+00 -0.00000000000E+00 -0.75690752011E+02  0.75690752054E+02  0.25500000000E-02 0. -1.
   -5000001    1    1    2    0    0  0.37257947924E+03  0.69767746864E+02  0.18199900577E+04  0.18757789894E+04  0.25000000000E+03 0.  0.
    5000001    1    1    2    0    0 -0.37257947924E+03 -0.69767746864E+02  0.10306505099E+04  0.11262430823E+04  0.25000000000E+03 0.  0.
<mgrwt>
<rscale>  0 0.94126769E+03</rscale>
<asrwt>0</asrwt>
<pdfrwt beam="1">  1        2 0.45020487E+00 0.94126769E+03</pdfrwt>
<pdfrwt beam="2">  1       -2 0.11644730E-01 0.94126769E+03</pdfrwt>
<totfact> 0.10663226E+02</totfact>
</mgrwt>
</event>
<event>
 4    1  0.1773996E-005  0.8446993E+03  0.7818608E-02  0.9497479E-01
          2   -1    0    0  501    0  0.00000000000E+00  0.00000000000E+00  0.14719538421E+04  0.14719538421E+04  0.25500000000E-02 0.  1.
         -2   -1    0    0    0  501 -0.00000000000E+00 -0.00000000000E+00 -0.12118534509E+03  0.12118534511E+03  0.25500000000E-02 0. -1.
   -5000001    1    1    2    0    0  0.15014686943E+03  0.30464417317E+03  0.71868443021E+03  0.83328234403E+03  0.25000000000E+03 0.  0.
    5000001    1    1    2    0    0 -0.15014686943E+03 -0.30464417317E+03  0.63208406684E+03  0.75985684322E+03  0.25000000000E+03 0.  0.
<mgrwt>
<rscale>  0 0.84469932E+03</rscale>
<asrwt>0</asrwt>
<pdfrwt beam="1">  1        2 0.22645445E+00 0.84469932E+03</pdfrwt>
<pdfrwt beam="2">  1       -2 0.18643898E-01 0.84469932E+03</pdfrwt>
<totfact> 0.31984770E+02</totfact>
</mgrwt>
</event>
<event>
 4    1  0.1773996E-005  0.7751594E+03  0.7818608E-02  0.9596686E-01
          2   -1    0    0  501    0  0.00000000000E+00  0.00000000000E+00  0.29452095673E+04  0.29452095673E+04  0.25500000000E-02 0.  1.
         -2   -1    0    0    0  501 -0.00000000000E+00 -0.00000000000E+00 -0.51004183073E+02  0.51004183137E+02  0.25500000000E-02 0. -1.
   -5000001    1    1    2    0    0  0.22447943618E+03  0.73224470079E+02  0.21381699100E+04  0.21656461863E+04  0.25000000000E+03 0.  0.
    5000001    1    1    2    0    0 -0.22447943618E+03 -0.73224470079E+02  0.75603547428E+03  0.83056756418E+03  0.25000000000E+03 0.  0.
<mgrwt>
<rscale>  0 0.77515936E+03</rscale>
<asrwt>0</asrwt>
<pdfrwt beam="1">  1        2 0.45310921E+00 0.77515936E+03</pdfrwt>
<pdfrwt beam="2">  1       -2 0.78467966E-02 0.77515936E+03</pdfrwt>
<totfact> 0.20080566E+02</totfact>
</mgrwt>
</event>
<event>
 4    1  0.1773996E-005  0.5452223E+03  0.7818608E-02  0.1002606E+00
         -2   -1    0    0    0  501 -0.00000000000E+00  0.00000000000E+00  0.48739714882E+02  0.48739714949E+02  0.25500000000E-02 0.  1.
          2   -1    0    0  501    0  0.00000000000E+00 -0.00000000000E+00 -0.15247699002E+04  0.15247699002E+04  0.25500000000E-02 0. -1.
   -5000001    1    1    2    0    0  0.95451465068E+02 -0.33434397458E+02 -0.85302155814E+03  0.89463658531E+03  0.25000000000E+03 0.  0.
    5000001    1    1    2    0    0 -0.95451465068E+02  0.33434397458E+02 -0.62300862722E+03  0.67887302989E+03  0.25000000000E+03 0.  0.
<mgrwt>
<rscale>  0 0.54522234E+03</rscale>
<asrwt>0</asrwt>
<pdfrwt beam="1">  1        2 0.23457995E+00 0.54522234E+03</pdfrwt>
<pdfrwt beam="2">  1       -2 0.74984189E-02 0.54522234E+03</pdfrwt>
<totfact> 0.13684222E+03</totfact>
</mgrwt>
</event>
<event>
 4    1  0.1773996E-005  0.7969654E+03  0.7818608E-02  0.9564420E-01
         -2   -1    0    0    0  501 -0.00000000000E+00  0.00000000000E+00  0.47383851355E+03  0.47383851356E+03  0.25500000000E-02 0. -1.
          2   -1    0    0  501    0  0.00000000000E+00 -0.00000000000E+00 -0.33511089793E+03  0.33511089794E+03  0.25500000000E-02 0.  1.
   -5000001    1    1    2    0    0 -0.16620993261E+03  0.26019861944E+03  0.10080353102E+03  0.40986633812E+03  0.25000000000E+03 0.  0.
    5000001    1    1    2    0    0  0.16620993261E+03 -0.26019861944E+03  0.37924084600E+02  0.39908307337E+03  0.25000000000E+03 0.  0.
<mgrwt>
<rscale>  0 0.79696537E+03</rscale>
<asrwt>0</asrwt>
<pdfrwt beam="1">  1        2 0.51555523E-01 0.79696537E+03</pdfrwt>
<pdfrwt beam="2">  1       -2 0.72898233E-01 0.79696537E+03</pdfrwt>
<totfact> 0.16626735E+02</totfact>
</mgrwt>
</event>
<event>
 4    1  0.1773996E-005  0.9246123E+03  0.7818608E-02  0.9395327E-01
          2   -1    0    0  501    0  0.00000000000E+00  0.00000000000E+00  0.75927941910E+03  0.75927941911E+03  0.25500000000E-02 0.  1.
         -2   -1    0    0    0  501 -0.00000000000E+00 -0.00000000000E+00 -0.28148656567E+03  0.28148656569E+03  0.25500000000E-02 0. -1.
   -5000001    1    1    2    0    0  0.28713939487E+03 -0.42228585555E+02 -0.52452600112E+02  0.38663103960E+03  0.25000000000E+03 0.  0.
    5000001    1    1    2    0    0 -0.28713939487E+03  0.42228585555E+02  0.53024545354E+03  0.65413494519E+03  0.25000000000E+03 0.  0.
<mgrwt>
<rscale>  0 0.92461226E+03</rscale>
<asrwt>0</asrwt>
<pdfrwt beam="1">  1        2 0.11681222E+00 0.92461226E+03</pdfrwt>
<pdfrwt beam="2">  1       -2 0.43305626E-01 0.92461226E+03</pdfrwt>
<totfact> 0.18687910E+02</totfact>
</mgrwt>
</event>
<event>
 4    1  0.1773996E-005  0.7048532E+03  0.7818608E-02  0.9708968E-01
         -2   -1    0    0    0  501 -0.00000000000E+00  0.00000000000E+00  0.33845062030E+03  0.33845062031E+03  0.25500000000E-02 0. -1.
          2   -1    0    0  501    0  0.00000000000E+00 -0.00000000000E+00 -0.36697973643E+03  0.36697973644E+03  0.25500000000E-02 0.  1.
   -5000001    1    1    2    0    0 -0.44586967032E+02  0.20999613000E+03  0.11081035378E+03  0.34765688077E+03  0.25000000000E+03 0.  0.
    5000001    1    1    2    0    0  0.44586967032E+02 -0.20999613000E+03 -0.13933946991E+03  0.35777347598E+03  0.25000000000E+03 0.  0.
<mgrwt>
<rscale>  0 0.70485323E+03</rscale>
<asrwt>0</asrwt>
<pdfrwt beam="1">  1        2 0.56458421E-01 0.70485323E+03</pdfrwt>
<pdfrwt beam="2">  1       -2 0.52069326E-01 0.70485323E+03</pdfrwt>
<totfact> 0.30795901E+02</totfact>
</mgrwt>
</event>
<event>
 4    1  0.1773996E-005  0.9231620E+03  0.7818608E-02  0.9397082E-01
         -2   -1    0    0    0  501 -0.00000000000E+00  0.00000000000E+00  0.59781264121E+02  0.59781264175E+02  0.25500000000E-02 0. -1.
          2   -1    0    0  501    0  0.00000000000E+00 -0.00000000000E+00 -0.35639429821E+04  0.35639429821E+04  0.25500000000E-02 0.  1.
   -5000001    1    1    2    0    0 -0.14336829654E+03  0.35593338095E+03 -0.15261102529E+04  0.15933472767E+04  0.25000000000E+03 0.  0.
    5000001    1    1    2    0    0  0.14336829654E+03 -0.35593338095E+03 -0.19780514651E+04  0.20303769696E+04  0.25000000000E+03 0.  0.
<mgrwt>
<rscale>  0 0.92316199E+03</rscale>
<asrwt>0</asrwt>
<pdfrwt beam="1">  1        2 0.54829876E+00 0.92316199E+03</pdfrwt>
<pdfrwt beam="2">  1       -2 0.91971203E-02 0.92316199E+03</pdfrwt>
<totfact> 0.60710022E+01</totfact>
</mgrwt>
</event>
<event>
 4    1  0.1773996E-005  0.8878986E+03  0.7818608E-02  0.9440836E-01
          2   -1    0    0  501    0  0.00000000000E+00  0.00000000000E+00  0.13772231637E+04  0.13772231637E+04  0.25500000000E-02 0.  1.
         -2   -1    0    0    0  501 -0.00000000000E+00 -0.00000000000E+00 -0.14310751497E+03  0.14310751499E+03  0.25500000000E-02 0. -1.
   -5000001    1    1    2    0    0 -0.35313254264E+03 -0.63883669049E+02  0.48657280812E+03  0.65424522424E+03  0.25000000000E+03 0.  0.
    5000001    1    1    2    0    0  0.35313254264E+03  0.63883669049E+02  0.74754284057E+03  0.86608545440E+03  0.25000000000E+03 0.  0.
<mgrwt>
<rscale>  0 0.88789861E+03</rscale>
<asrwt>0</asrwt>
<pdfrwt beam="1">  1        2 0.21188048E+00 0.88789861E+03</pdfrwt>
<pdfrwt beam="2">  1       -2 0.22016541E-01 0.88789861E+03</pdfrwt>
<totfact> 0.26950962E+02</totfact>
</mgrwt>
</event>
<event>
 4    1  0.1773996E-005  0.6926478E+03  0.7818608E-02  0.9729889E-01
         -2   -1    0    0    0  501 -0.00000000000E+00  0.00000000000E+00  0.13042009967E+03  0.13042009969E+03  0.25500000000E-02 0. -1.
          2   -1    0    0  501    0  0.00000000000E+00 -0.00000000000E+00 -0.91964531783E+03  0.91964531783E+03  0.25500000000E-02 0.  1.
   -5000001    1    1    2    0    0 -0.18715285041E+03  0.10728181834E+03 -0.23630204352E+03  0.40604708315E+03  0.25000000000E+03 0.  0.
    5000001    1    1    2    0    0  0.18715285041E+03 -0.10728181834E+03 -0.55292317464E+03  0.64401833438E+03  0.25000000000E+03 0.  0.
<mgrwt>
<rscale>  0 0.69264777E+03</rscale>
<asrwt>0</asrwt>
<pdfrwt beam="1">  1        2 0.14148389E+00 0.69264777E+03</pdfrwt>
<pdfrwt beam="2">  1       -2 0.20064631E-01 0.69264777E+03</pdfrwt>
<totfact> 0.60740127E+02</totfact>
</mgrwt>
</event>
<event>
 4    1  0.1773996E-005  0.5648942E+03  0.7818608E-02  0.9981041E-01
         -2   -1    0    0    0  501 -0.00000000000E+00  0.00000000000E+00  0.99086509585E+02  0.99086509618E+02  0.25500000000E-02 0. -1.
          2   -1    0    0  501    0  0.00000000000E+00 -0.00000000000E+00 -0.80511833539E+03  0.80511833540E+03  0.25500000000E-02 0.  1.
   -5000001    1    1    2    0    0 -0.12970009411E+03  0.52365133087E+01 -0.38608538601E+03  0.47792411613E+03  0.25000000000E+03 0.  0.
    5000001    1    1    2    0    0  0.12970009411E+03 -0.52365133087E+01 -0.31994643980E+03  0.42628072889E+03  0.25000000000E+03 0.  0.
<mgrwt>
<rscale>  0 0.56489420E+03</rscale>
<asrwt>0</asrwt>
<pdfrwt beam="1">  1        2 0.12386435E+00 0.56489420E+03</pdfrwt>
<pdfrwt beam="2">  1       -2 0.15244079E-01 0.56489420E+03</pdfrwt>
<totfact> 0.11698923E+03</totfact>
</mgrwt>
</event>
<event>
 4    1  0.1773996E-005  0.6742439E+03  0.7818608E-02  0.9762322E-01
          2   -1    0    0  501    0  0.00000000000E+00  0.00000000000E+00  0.65000088788E+03  0.65000088789E+03  0.25500000000E-02 0.  1.
         -2   -1    0    0    0  501 -0.00000000000E+00 -0.00000000000E+00 -0.17484775029E+03  0.17484775031E+03  0.25500000000E-02 0. -1.
   -5000001    1    1    2    0    0 -0.20284413594E+03 -0.92898341507E+02  0.19220711985E+03  0.38628929866E+03  0.25000000000E+03 0.  0.
    5000001    1    1    2    0    0  0.20284413594E+03  0.92898341507E+02  0.28294601774E+03  0.43855933954E+03  0.25000000000E+03 0.  0.
<mgrwt>
<rscale>  0 0.67424385E+03</rscale>
<asrwt>0</asrwt>
<pdfrwt beam="1">  1        2 0.10000014E+00 0.67424385E+03</pdfrwt>
<pdfrwt beam="2">  1       -2 0.26899653E-01 0.67424385E+03</pdfrwt>
<totfact> 0.56733138E+02</totfact>
</mgrwt>
</event>
<event>
 4    1  0.1773996E-005  0.6580112E+03  0.7818608E-02  0.9791862E-01
          2   -1    0    0  501    0  0.00000000000E+00  0.00000000000E+00  0.19182070248E+04  0.19182070248E+04  0.25500000000E-02 0.  1.
         -2   -1    0    0    0  501 -0.00000000000E+00 -0.00000000000E+00 -0.56430131241E+02  0.56430131298E+02  0.25500000000E-02 0. -1.
   -5000001    1    1    2    0    0 -0.16405661283E+03  0.13700918213E+03  0.90791897434E+03  0.96566192437E+03  0.25000000000E+03 0.  0.
    5000001    1    1    2    0    0  0.16405661283E+03 -0.13700918213E+03  0.95385791926E+03  0.10089752318E+04  0.25000000000E+03 0.  0.
<mgrwt>
<rscale>  0 0.65801117E+03</rscale>
<asrwt>0</asrwt>
<pdfrwt beam="1">  1        2 0.29510875E+00 0.65801117E+03</pdfrwt>
<pdfrwt beam="2">  1       -2 0.86815592E-02 0.65801117E+03</pdfrwt>
<totfact> 0.65784539E+02</totfact>
</mgrwt>
</event>
<event>
 4    1  0.1773996E-005  0.1513082E+04  0.7818608E-02  0.8875800E-01
          2   -1    0    0  501    0  0.00000000000E+00  0.00000000000E+00  0.93710411656E+03  0.93710411657E+03  0.25500000000E-02 0.  1.
         -2   -1    0    0    0  501 -0.00000000000E+00 -0.00000000000E+00 -0.61076937569E+03  0.61076937570E+03  0.25500000000E-02 0. -1.
   -5000001    1    1    2    0    0 -0.51190865505E+02 -0.71159582066E+03  0.19326111505E+03  0.78028134367E+03  0.25000000000E+03 0.  0.
    5000001    1    1    2    0    0  0.51190865505E+02  0.71159582066E+03  0.13307362582E+03  0.76759214859E+03  0.25000000000E+03 0.  0.
<mgrwt>
<rscale>  0 0.15130823E+04</rscale>
<asrwt>0</asrwt>
<pdfrwt beam="1">  1        2 0.14416986E+00 0.15130823E+04</pdfrwt>
<pdfrwt beam="2">  1       -2 0.93964520E-01 0.15130823E+04</pdfrwt>
<totfact> 0.25561389E+01</totfact>
</mgrwt>
</event>
<event>
 4    1  0.1773996E-005  0.2207062E+04  0.7818608E-02  0.8515494E-01
          2   -1    0    0  501    0  0.00000000000E+00  0.00000000000E+00  0.22712142522E+04  0.22712142522E+04  0.25500000000E-02 0.  1.
         -2   -1    0    0    0  501 -0.00000000000E+00 -0.00000000000E+00 -0.53618045645E+03  0.53618045646E+03  0.25500000000E-02 0. -1.
   -5000001    1    1    2    0    0 -0.31154844059E+03 -0.10268296602E+04  0.78870271718E+03  0.13549883977E+04  0.25000000000E+03 0.  0.
    5000001    1    1    2    0    0  0.31154844059E+03  0.10268296602E+04  0.94633107858E+03  0.14524063110E+04  0.25000000000E+03 0.  0.
<mgrwt>
<rscale>  0 0.22070620E+04</rscale>
<asrwt>0</asrwt>
<pdfrwt beam="1">  1        2 0.34941758E+00 0.22070620E+04</pdfrwt>
<pdfrwt beam="2">  1       -2 0.82489301E-01 0.22070620E+04</pdfrwt>
<totfact> 0.55459891E+00</totfact>
</mgrwt>
</event>
<event>
 4    1  0.1773996E-005  0.7013006E+03  0.7818608E-02  0.9715011E-01
          2   -1    0    0  501    0  0.00000000000E+00  0.00000000000E+00  0.50710889942E+03  0.50710889943E+03  0.25500000000E-02 0. -1.
         -2   -1    0    0    0  501 -0.00000000000E+00 -0.00000000000E+00 -0.24246395437E+03  0.24246395438E+03  0.25500000000E-02 0.  1.
   -5000001    1    1    2    0    0  0.18740498519E+03  0.14640261915E+03  0.19908193876E+03  0.39835659115E+03  0.25000000000E+03 0.  0.
    5000001    1    1    2    0    0 -0.18740498519E+03 -0.14640261915E+03  0.65563006285E+02  0.35121626267E+03  0.25000000000E+03 0.  0.
<mgrwt>
<rscale>  0 0.70130059E+03</rscale>
<asrwt>0</asrwt>
<pdfrwt beam="1">  1        2 0.78016753E-01 0.70130059E+03</pdfrwt>
<pdfrwt beam="2">  1       -2 0.37302147E-01 0.70130059E+03</pdfrwt>
<totfact> 0.41353468E+02</totfact>
</mgrwt>
</event>
<event>
 4    1  0.1773996E-005  0.1761840E+04  0.7818608E-02  0.8726860E-01
         -2   -1    0    0    0  501 -0.00000000000E+00  0.00000000000E+00  0.61205051727E+03  0.61205051728E+03  0.25500000000E-02 0. -1.
          2   -1    0    0  501    0  0.00000000000E+00 -0.00000000000E+00 -0.12679025753E+04  0.12679025753E+04  0.25500000000E-02 0.  1.
   -5000001    1    1    2    0    0  0.76220062995E+03 -0.33770871893E+03 -0.47315101886E+03  0.99064063403E+03  0.25000000000E+03 0.  0.
    5000001    1    1    2    0    0 -0.76220062995E+03  0.33770871893E+03 -0.18270103912E+03  0.88931245850E+03  0.25000000000E+03 0.  0.
<mgrwt>
<rscale>  0 0.17618404E+04</rscale>
<asrwt>0</asrwt>
<pdfrwt beam="1">  1        2 0.19506193E+00 0.17618404E+04</pdfrwt>
<pdfrwt beam="2">  1       -2 0.94161618E-01 0.17618404E+04</pdfrwt>
<totfact> 0.15556730E+01</totfact>
</mgrwt>
</event>
<event>
 4    1  0.1773996E-005  0.9835544E+03  0.7818608E-02  0.9326768E-01
          2   -1    0    0  501    0  0.00000000000E+00  0.00000000000E+00  0.11193627005E+04  0.11193627005E+04  0.25500000000E-02 0.  1.
         -2   -1    0    0    0  501 -0.00000000000E+00 -0.00000000000E+00 -0.21605581107E+03  0.21605581109E+03  0.25500000000E-02 0. -1.
   -5000001    1    1    2    0    0 -0.23890032802E+03 -0.84015256563E+02  0.91251399386E+03  0.97944561822E+03  0.25000000000E+03 0.  0.
    5000001    1    1    2    0    0  0.23890032802E+03  0.84015256563E+02 -0.92071044036E+01  0.35597289340E+03  0.25000000000E+03 0.  0.
<mgrwt>
<rscale>  0 0.98355440E+03</rscale>
<asrwt>0</asrwt>
<pdfrwt beam="1">  1        2 0.17220965E+00 0.98355440E+03</pdfrwt>
<pdfrwt beam="2">  1       -2 0.33239355E-01 0.98355440E+03</pdfrwt>
<totfact> 0.17878343E+02</totfact>
</mgrwt>
</event>
<event>
 4    1  0.1773996E-005  0.8191967E+03  0.7818608E-02  0.9532639E-01
         -2   -1    0    0    0  501 -0.00000000000E+00  0.00000000000E+00  0.20316176466E+03  0.20316176468E+03  0.25500000000E-02 0. -1.
          2   -1    0    0  501    0  0.00000000000E+00 -0.00000000000E+00 -0.82579921483E+03  0.82579921484E+03  0.25500000000E-02 0.  1.
   -5000001    1    1    2    0    0 -0.88244349800E+02 -0.30887383800E+03 -0.36861372796E+03  0.54915042886E+03  0.25000000000E+03 0.  0.
    5000001    1    1    2    0    0  0.88244349800E+02  0.30887383800E+03 -0.25402372221E+03  0.47981055065E+03  0.25000000000E+03 0.  0.
<mgrwt>
<rscale>  0 0.81919674E+03</rscale>
<asrwt>0</asrwt>
<pdfrwt beam="1">  1        2 0.12704603E+00 0.81919674E+03</pdfrwt>
<pdfrwt beam="2">  1       -2 0.31255656E-01 0.81919674E+03</pdfrwt>
<totfact> 0.31469940E+02</totfact>
</mgrwt>
</event>
<event>
 4    1  0.1773996E-005  0.1307407E+04  0.7818608E-02  0.9023712E-01
          2   -1    0    0  501    0  0.00000000000E+00  0.00000000000E+00  0.13924909661E+04  0.13924909662E+04  0.25500000000E-02 0.  1.
         -2   -1    0    0    0  501 -0.00000000000E+00 -0.00000000000E+00 -0.30688066787E+03  0.30688066788E+03  0.25500000000E-02 0. -1.
   -5000001    1    1    2    0    0  0.54982639640E+03  0.24891501807E+03  0.57358620173E+03  0.86934968983E+03  0.25000000000E+03 0.  0.
    5000001    1    1    2    0    0 -0.54982639640E+03 -0.24891501807E+03  0.51202409655E+03  0.83002194420E+03  0.25000000000E+03 0.  0.
<mgrwt>
<rscale>  0 0.13074074E+04</rscale>
<asrwt>0</asrwt>
<pdfrwt beam="1">  1        2 0.21422938E+00 0.13074074E+04</pdfrwt>
<pdfrwt beam="2">  1       -2 0.47212410E-01 0.13074074E+04</pdfrwt>
<totfact> 0.60860565E+01</totfact>
</mgrwt>
</event>
<event>
 4    1  0.1773996E-005  0.2362651E+04  0.7818608E-02  0.8453620E-01
         -2   -1    0    0    0  501 -0.00000000000E+00  0.00000000000E+00  0.62288933494E+03  0.62288933495E+03  0.25500000000E-02 0. -1.
          2   -1    0    0  501    0  0.00000000000E+00 -0.00000000000E+00 -0.22404146790E+04  0.22404146790E+04  0.25500000000E-02 0.  1.
   -5000001    1    1    2    0    0 -0.10993925811E+04  0.11940503568E+03 -0.12109041113E+04  0.16588280130E+04  0.25000000000E+03 0.  0.
    5000001    1    1    2    0    0  0.10993925811E+04 -0.11940503568E+03 -0.40662123274E+03  0.12044760009E+04  0.25000000000E+03 0.  0.
<mgrwt>
<rscale>  0 0.23626514E+04</rscale>
<asrwt>0</asrwt>
<pdfrwt beam="1">  1        2 0.34467918E+00 0.23626514E+04</pdfrwt>
<pdfrwt beam="2">  1       -2 0.95829129E-01 0.23626514E+04</pdfrwt>
<totfact> 0.40355771E+00</totfact>
</mgrwt>
</event>
<event>
 4    1  0.1773996E-005  0.5754919E+03  0.7818608E-02  0.9957599E-01
          2   -1    0    0  501    0  0.00000000000E+00  0.00000000000E+00  0.49144838840E+03  0.49144838840E+03  0.25500000000E-02 0.  1.
         -2   -1    0    0    0  501 -0.00000000000E+00 -0.00000000000E+00 -0.16847694921E+03  0.16847694923E+03  0.25500000000E-02 0. -1.
   -5000001    1    1    2    0    0  0.11114624505E+03  0.15545133248E+02  0.60844963855E+02  0.28070847615E+03  0.25000000000E+03 0.  0.
    5000001    1    1    2    0    0 -0.11114624505E+03 -0.15545133248E+02  0.26212647534E+03  0.37921686148E+03  0.25000000000E+03 0.  0.
<mgrwt>
<rscale>  0 0.57549188E+03</rscale>
<asrwt>0</asrwt>
<pdfrwt beam="1">  1        2 0.75607443E-01 0.57549188E+03</pdfrwt>
<pdfrwt beam="2">  1       -2 0.25919531E-01 0.57549188E+03</pdfrwt>
<totfact> 0.84688803E+02</totfact>
</mgrwt>
</event>
<event>
 4    1  0.1773996E-005  0.6676396E+03  0.7818608E-02  0.9774231E-01
          2   -1    0    0  501    0  0.00000000000E+00  0.00000000000E+00  0.33981974777E+03  0.33981974778E+03  0.25500000000E-02 0.  1.
         -2   -1    0    0    0  501 -0.00000000000E+00 -0.00000000000E+00 -0.32792582213E+03  0.32792582214E+03  0.25500000000E-02 0. -1.
   -5000001    1    1    2    0    0 -0.15429954822E+03 -0.13925015667E+03  0.81700075769E+02  0.33522210412E+03  0.25000000000E+03 0.  0.
    5000001    1    1    2    0    0  0.15429954822E+03  0.13925015667E+03 -0.69806150127E+02  0.33252346580E+03  0.25000000000E+03 0.  0.
<mgrwt>
<rscale>  0 0.66763963E+03</rscale>
<asrwt>0</asrwt>
<pdfrwt beam="1">  1        2 0.52279961E-01 0.66763963E+03</pdfrwt>
<pdfrwt beam="2">  1       -2 0.50450127E-01 0.66763963E+03</pdfrwt>
<totfact> 0.35823597E+02</totfact>
</mgrwt>
</event>
<event>
 4    1  0.1773996E-005  0.9673564E+03  0.7818608E-02  0.9345091E-01
          2   -1    0    0  501    0  0.00000000000E+00  0.00000000000E+00  0.14769490326E+04  0.14769490326E+04  0.25500000000E-02 0.  1.
         -2   -1    0    0    0  501 -0.00000000000E+00 -0.00000000000E+00 -0.15839721180E+03  0.15839721182E+03  0.25500000000E-02 0. -1.
   -5000001    1    1    2    0    0 -0.30446423452E+03  0.27573125893E+03  0.74741748419E+03  0.88874017178E+03  0.25000000000E+03 0.  0.
    5000001    1    1    2    0    0  0.30446423452E+03 -0.27573125893E+03  0.57113433662E+03  0.74660607265E+03  0.25000000000E+03 0.  0.
<mgrwt>
<rscale>  0 0.96735642E+03</rscale>
<asrwt>0</asrwt>
<pdfrwt beam="1">  1        2 0.22722293E+00 0.96735642E+03</pdfrwt>
<pdfrwt beam="2">  1       -2 0.24368801E-01 0.96735642E+03</pdfrwt>
<totfact> 0.19638850E+02</totfact>
</mgrwt>
</event>
<event>
 4    1  0.1773996E-005  0.7041962E+03  0.7818608E-02  0.9710083E-01
          2   -1    0    0  501    0  0.00000000000E+00  0.00000000000E+00  0.36054584710E+04  0.36054584710E+04  0.25500000000E-02 0.  1.
         -2   -1    0    0    0  501 -0.00000000000E+00 -0.00000000000E+00 -0.34384830853E+02  0.34384830948E+02  0.25500000000E-02 0. -1.
   -5000001    1    1    2    0    0  0.86248580346E+02 -0.21509187358E+03  0.22411460016E+04  0.22669227451E+04  0.25000000000E+03 0.  0.
    5000001    1    1    2    0    0 -0.86248580346E+02  0.21509187358E+03  0.13299276385E+04  0.13729205568E+04  0.25000000000E+03 0.  0.
<mgrwt>
<rscale>  0 0.70419622E+03</rscale>
<asrwt>0</asrwt>
<pdfrwt beam="1">  1        2 0.55468596E+00 0.70419622E+03</pdfrwt>
<pdfrwt beam="2">  1       -2 0.52899736E-02 0.70419622E+03</pdfrwt>
<totfact> 0.14078877E+02</totfact>
</mgrwt>
</event>
<event>
 4    1  0.1773996E-005  0.9802734E+03  0.7818608E-02  0.9330449E-01
         -2   -1    0    0    0  501 -0.00000000000E+00  0.00000000000E+00  0.34625049600E+03  0.34625049601E+03  0.25500000000E-02 0. -1.
          2   -1    0    0  501    0  0.00000000000E+00 -0.00000000000E+00 -0.69381551926E+03  0.69381551926E+03  0.25500000000E-02 0.  1.
   -5000001    1    1    2    0    0  0.17169006980E+02  0.37621427916E+03  0.27253138653E+02  0.45285173314E+03  0.25000000000E+03 0.  0.
    5000001    1    1    2    0    0 -0.17169006980E+02 -0.37621427916E+03 -0.37481816191E+03  0.58721428213E+03  0.25000000000E+03 0.  0.
<mgrwt>
<rscale>  0 0.98027337E+03</rscale>
<asrwt>0</asrwt>
<pdfrwt beam="1">  1        2 0.10674085E+00 0.98027337E+03</pdfrwt>
<pdfrwt beam="2">  1       -2 0.53269307E-01 0.98027337E+03</pdfrwt>
<totfact> 0.13761688E+02</totfact>
</mgrwt>
</event>
<event>
 4    1  0.1773996E-005  0.1099599E+04  0.7818608E-02  0.9205583E-01
          2   -1    0    0  501    0  0.00000000000E+00  0.00000000000E+00  0.12425194736E+04  0.12425194736E+04  0.25500000000E-02 0.  1.
         -2   -1    0    0    0  501 -0.00000000000E+00 -0.00000000000E+00 -0.24327939107E+03  0.24327939108E+03  0.25500000000E-02 0. -1.
   -5000001    1    1    2    0    0  0.44178137274E+02 -0.29535654483E+03 -0.24736851354E+02  0.39025518344E+03  0.25000000000E+03 0.  0.
    5000001    1    1    2    0    0 -0.44178137274E+02  0.29535654483E+03  0.10239769339E+04  0.10955436813E+04  0.25000000000E+03 0.  0.
<mgrwt>
<rscale>  0 0.10995988E+04</rscale>
<asrwt>0</asrwt>
<pdfrwt beam="1">  1        2 0.19115684E+00 0.10995988E+04</pdfrwt>
<pdfrwt beam="2">  1       -2 0.37427599E-01 0.10995988E+04</pdfrwt>
<totfact> 0.11933390E+02</totfact>
</mgrwt>
</event>
<event>
 4    1  0.1773996E-005  0.6559718E+03  0.7818608E-02  0.9795638E-01
          2   -1    0    0  501    0  0.00000000000E+00  0.00000000000E+00  0.53717769430E+03  0.53717769430E+03  0.25500000000E-02 0.  1.
         -2   -1    0    0    0  501 -0.00000000000E+00 -0.00000000000E+00 -0.20025916103E+03  0.20025916105E+03  0.25500000000E-02 0. -1.
   -5000001    1    1    2    0    0 -0.86764784425E+02  0.10698043150E+03  0.35008400665E+03  0.45169874059E+03  0.25000000000E+03 0.  0.
    5000001    1    1    2    0    0  0.86764784425E+02 -0.10698043150E+03 -0.13165473384E+02  0.28573811476E+03  0.25000000000E+03 0.  0.
<mgrwt>
<rscale>  0 0.65597181E+03</rscale>
<asrwt>0</asrwt>
<pdfrwt beam="1">  1        2 0.82642723E-01 0.65597181E+03</pdfrwt>
<pdfrwt beam="2">  1       -2 0.30809101E-01 0.65597181E+03</pdfrwt>
<totfact> 0.55573562E+02</totfact>
</mgrwt>
</event>
<event>
 4    1  0.1773996E-005  0.7991202E+03  0.7818608E-02  0.9561291E-01
         -2   -1    0    0    0  501 -0.00000000000E+00  0.00000000000E+00  0.23012058152E+03  0.23012058153E+03  0.25500000000E-02 0. -1.
          2   -1    0    0  501    0  0.00000000000E+00 -0.00000000000E+00 -0.69375922814E+03  0.69375922814E+03  0.25500000000E-02 0.  1.
   -5000001    1    1    2    0    0  0.11981519062E+02 -0.22785611384E+03  0.13666104250E+02  0.33874581594E+03  0.25000000000E+03 0.  0.
    5000001    1    1    2    0    0 -0.11981519062E+02  0.22785611384E+03 -0.47730475087E+03  0.58513399373E+03  0.25000000000E+03 0.  0.
<mgrwt>
<rscale>  0 0.79912021E+03</rscale>
<asrwt>0</asrwt>
<pdfrwt beam="1">  1        2 0.10673219E+00 0.79912021E+03</pdfrwt>
<pdfrwt beam="2">  1       -2 0.35403167E-01 0.79912021E+03</pdfrwt>
<totfact> 0.31219295E+02</totfact>
</mgrwt>
</event>
<event>
 4    1  0.1773996E-005  0.6906500E+03  0.7818608E-02  0.9733357E-01
          2   -1    0    0  501    0  0.00000000000E+00  0.00000000000E+00  0.68411053425E+03  0.68411053426E+03  0.25500000000E-02 0.  1.
         -2   -1    0    0    0  501 -0.00000000000E+00 -0.00000000000E+00 -0.17431299539E+03  0.17431299541E+03  0.25500000000E-02 0. -1.
   -5000001    1    1    2    0    0 -0.91932990767E+02  0.57398221706E+02  0.51857132922E+03  0.58580069489E+03  0.25000000000E+03 0.  0.
    5000001    1    1    2    0    0  0.91932990767E+02 -0.57398221706E+02 -0.87737903596E+01  0.27262283478E+03  0.25000000000E+03 0.  0.
<mgrwt>
<rscale>  0 0.69065000E+03</rscale>
<asrwt>0</asrwt>
<pdfrwt beam="1">  1        2 0.10524778E+00 0.69065000E+03</pdfrwt>
<pdfrwt beam="2">  1       -2 0.26817383E-01 0.69065000E+03</pdfrwt>
<totfact> 0.53520779E+02</totfact>
</mgrwt>
</event>
<event>
 4    1  0.1773996E-005  0.8016626E+03  0.7818608E-02  0.9557614E-01
         -2   -1    0    0    0  501 -0.00000000000E+00  0.00000000000E+00  0.15367539657E+04  0.15367539657E+04  0.25500000000E-02 0. -1.
          2   -1    0    0  501    0  0.00000000000E+00 -0.00000000000E+00 -0.10454877090E+03  0.10454877093E+03  0.25500000000E-02 0.  1.
   -5000001    1    1    2    0    0 -0.18088384004E+03  0.23764440617E+03  0.52217503530E+03  0.65142965458E+03  0.25000000000E+03 0.  0.
    5000001    1    1    2    0    0  0.18088384004E+03 -0.23764440617E+03  0.91003015953E+03  0.98987308208E+03  0.25000000000E+03 0.  0.
<mgrwt>
<rscale>  0 0.80166262E+03</rscale>
<asrwt>0</asrwt>
<pdfrwt beam="1">  1        2 0.16084428E-01 0.80166262E+03</pdfrwt>
<pdfrwt beam="2">  1       -2 0.23642367E+00 0.80166262E+03</pdfrwt>
<totfact> 0.29312182E+01</totfact>
</mgrwt>
</event>
<event>
 4    1  0.1773996E-005  0.5544426E+03  0.7818608E-02  0.1000471E+00
          2   -1    0    0  501    0  0.00000000000E+00  0.00000000000E+00  0.61723880872E+03  0.61723880873E+03  0.25500000000E-02 0.  1.
         -2   -1    0    0    0  501 -0.00000000000E+00 -0.00000000000E+00 -0.12450876231E+03  0.12450876234E+03  0.25500000000E-02 0. -1.
   -5000001    1    1    2    0    0 -0.11619831426E+03 -0.24669254274E+02  0.26713451739E+03  0.38467060029E+03  0.25000000000E+03 0.  0.
    5000001    1    1    2    0    0  0.11619831426E+03  0.24669254274E+02  0.22559552902E+03  0.35707697078E+03  0.25000000000E+03 0.  0.
<mgrwt>
<rscale>  0 0.55444257E+03</rscale>
<asrwt>0</asrwt>
<pdfrwt beam="1">  1        2 0.94959817E-01 0.55444257E+03</pdfrwt>
<pdfrwt beam="2">  1       -2 0.19155194E-01 0.55444257E+03</pdfrwt>
<totfact> 0.11060147E+03</totfact>
</mgrwt>
</event>
<event>
 4    1  0.1773996E-005  0.1509512E+04  0.7818608E-02  0.8878152E-01
          2   -1    0    0  501    0  0.00000000000E+00  0.00000000000E+00  0.84617411036E+03  0.84617411036E+03  0.25500000000E-02 0.  1.
         -2   -1    0    0    0  501 -0.00000000000E+00 -0.00000000000E+00 -0.67321406875E+03  0.67321406875E+03  0.25500000000E-02 0. -1.
   -5000001    1    1    2    0    0  0.58858460877E+03 -0.32535001811E+03 -0.14930002624E+03  0.73285399214E+03  0.25000000000E+03 0.  0.
    5000001    1    1    2    0    0 -0.58858460877E+03  0.32535001811E+03  0.32226006785E+03  0.78653418698E+03  0.25000000000E+03 0.  0.
<mgrwt>
<rscale>  0 0.15095116E+04</rscale>
<asrwt>0</asrwt>
<pdfrwt beam="1">  1        2 0.13018063E+00 0.15095116E+04</pdfrwt>
<pdfrwt beam="2">  1       -2 0.10357140E+00 0.15095116E+04</pdfrwt>
<totfact> 0.23426702E+01</totfact>
</mgrwt>
</event>
<event>
 4    1  0.1773996E-005  0.6524784E+03  0.7818608E-02  0.9802140E-01
          2   -1    0    0  501    0  0.00000000000E+00  0.00000000000E+00  0.12048791100E+04  0.12048791100E+04  0.25500000000E-02 0.  1.
         -2   -1    0    0    0  501 -0.00000000000E+00 -0.00000000000E+00 -0.88334184397E+02  0.88334184434E+02  0.25500000000E-02 0. -1.
   -5000001    1    1    2    0    0  0.68948958339E+02 -0.17018763550E+03  0.35796058545E+03  0.47365976277E+03  0.25000000000E+03 0.  0.
    5000001    1    1    2    0    0 -0.68948958339E+02  0.17018763550E+03  0.75858434011E+03  0.81955353163E+03  0.25000000000E+03 0.  0.
<mgrwt>
<rscale>  0 0.65247839E+03</rscale>
<asrwt>0</asrwt>
<pdfrwt beam="1">  1        2 0.18536601E+00 0.65247839E+03</pdfrwt>
<pdfrwt beam="2">  1       -2 0.13589875E-01 0.65247839E+03</pdfrwt>
<totfact> 0.78685259E+02</totfact>
</mgrwt>
</event>
<event>
 4    1  0.1773996E-005  0.7569699E+03  0.7818608E-02  0.9624479E-01
         -2   -1    0    0    0  501 -0.00000000000E+00  0.00000000000E+00  0.27304572362E+03  0.27304572363E+03  0.25500000000E-02 0. -1.
          2   -1    0    0  501    0  0.00000000000E+00 -0.00000000000E+00 -0.52464050690E+03  0.52464050690E+03  0.25500000000E-02 0.  1.
   -5000001    1    1    2    0    0  0.16061743735E+03 -0.19919276154E+03  0.44430769446E+01  0.35776452921E+03  0.25000000000E+03 0.  0.
    5000001    1    1    2    0    0 -0.16061743735E+03  0.19919276154E+03 -0.25603786022E+03  0.43992170133E+03  0.25000000000E+03 0.  0.
<mgrwt>
<rscale>  0 0.75696987E+03</rscale>
<asrwt>0</asrwt>
<pdfrwt beam="1">  1        2 0.80713924E-01 0.75696987E+03</pdfrwt>
<pdfrwt beam="2">  1       -2 0.42007034E-01 0.75696987E+03</pdfrwt>
<totfact> 0.31491546E+02</totfact>
</mgrwt>
</event>
<event>
 4    1  0.1773996E-005  0.1104116E+04  0.7818608E-02  0.9201189E-01
         -2   -1    0    0    0  501 -0.00000000000E+00  0.00000000000E+00  0.73606980387E+03  0.73606980387E+03  0.25500000000E-02 0. -1.
          2   -1    0    0  501    0  0.00000000000E+00 -0.00000000000E+00 -0.41404804816E+03  0.41404804817E+03  0.25500000000E-02 0.  1.
   -5000001    1    1    2    0    0  0.24102829785E+03  0.36072795517E+03 -0.81159588760E+02  0.50725356269E+03  0.25000000000E+03 0.  0.
    5000001    1    1    2    0    0 -0.24102829785E+03 -0.36072795517E+03  0.40318134446E+03  0.64286428936E+03  0.25000000000E+03 0.  0.
<mgrwt>
<rscale>  0 0.11041164E+04</rscale>
<asrwt>0</asrwt>
<pdfrwt beam="1">  1        2 0.63699701E-01 0.11041164E+04</pdfrwt>
<pdfrwt beam="2">  1       -2 0.11324151E+00 0.11041164E+04</pdfrwt>
<totfact> 0.46466399E+01</totfact>
</mgrwt>
</event>
<event>
 4    1  0.1773996E-005  0.1005931E+04  0.7818608E-02  0.9302064E-01
         -2   -1    0    0    0  501 -0.00000000000E+00  0.00000000000E+00  0.27842238423E+03  0.27842238424E+03  0.25500000000E-02 0. -1.
          2   -1    0    0  501    0  0.00000000000E+00 -0.00000000000E+00 -0.90859837520E+03  0.90859837520E+03  0.25500000000E-02 0.  1.
   -5000001    1    1    2    0    0 -0.80642199796E+02 -0.27049882577E+03  0.77704142293E+02  0.38498144483E+03  0.25000000000E+03 0.  0.
    5000001    1    1    2    0    0  0.80642199796E+02  0.27049882577E+03 -0.70788013326E+03  0.80203931462E+03  0.25000000000E+03 0.  0.
<mgrwt>
<rscale>  0 0.10059307E+04</rscale>
<asrwt>0</asrwt>
<pdfrwt beam="1">  1        2 0.13978436E+00 0.10059307E+04</pdfrwt>
<pdfrwt beam="2">  1       -2 0.42834213E-01 0.10059307E+04</pdfrwt>
<totfact> 0.14911890E+02</totfact>
</mgrwt>
</event>
<event>
 4    1  0.1773996E-005  0.5964563E+03  0.7818608E-02  0.9912785E-01
          2   -1    0    0  501    0  0.00000000000E+00  0.00000000000E+00  0.16949413946E+04  0.16949413946E+04  0.25500000000E-02 0.  1.
         -2   -1    0    0    0  501 -0.00000000000E+00 -0.00000000000E+00 -0.52473816628E+02  0.52473816690E+02  0.25500000000E-02 0. -1.
   -5000001    1    1    2    0    0 -0.13112639767E+03  0.42392778381E+02  0.56838576813E+03  0.63604532954E+03  0.25000000000E+03 0.  0.
    5000001    1    1    2    0    0  0.13112639767E+03 -0.42392778381E+02  0.10740818099E+04  0.11113698818E+04  0.25000000000E+03 0.  0.
<mgrwt>
<rscale>  0 0.59645635E+03</rscale>
<asrwt>0</asrwt>
<pdfrwt beam="1">  1        2 0.26076019E+00 0.59645635E+03</pdfrwt>
<pdfrwt beam="2">  1       -2 0.80728955E-02 0.59645635E+03</pdfrwt>
<totfact> 0.98026410E+02</totfact>
</mgrwt>
</event>
<event>
 4    1  0.1773996E-005  0.6451919E+03  0.7818608E-02  0.9815843E-01
         -2   -1    0    0    0  501 -0.00000000000E+00  0.00000000000E+00  0.16240340736E+03  0.16240340738E+03  0.25500000000E-02 0. -1.
          2   -1    0    0  501    0  0.00000000000E+00 -0.00000000000E+00 -0.64080031575E+03  0.64080031576E+03  0.25500000000E-02 0.  1.
   -5000001    1    1    2    0    0  0.41972011634E+02 -0.68927794591E+02 -0.47228362865E+03  0.54042993674E+03  0.25000000000E+03 0.  0.
    5000001    1    1    2    0    0 -0.41972011634E+02  0.68927794591E+02 -0.61132797408E+01  0.26277378640E+03  0.25000000000E+03 0.  0.
<mgrwt>
<rscale>  0 0.64519192E+03</rscale>
<asrwt>0</asrwt>
<pdfrwt beam="1">  1        2 0.98584662E-01 0.64519192E+03</pdfrwt>
<pdfrwt beam="2">  1       -2 0.24985140E-01 0.64519192E+03</pdfrwt>
<totfact> 0.66035400E+02</totfact>
</mgrwt>
</event>
<event>
 4    1  0.1773996E-005  0.7353615E+03  0.7818608E-02  0.9658600E-01
          2   -1    0    0  501    0  0.00000000000E+00  0.00000000000E+00  0.23535639411E+04  0.23535639411E+04  0.25500000000E-02 0.  1.
         -2   -1    0    0    0  501 -0.00000000000E+00 -0.00000000000E+00 -0.57440178860E+02  0.57440178917E+02  0.25500000000E-02 0. -1.
   -5000001    1    1    2    0    0  0.26458986780E+03  0.51689638064E+02  0.11581764355E+04  0.12151346726E+04  0.25000000000E+03 0.  0.
    5000001    1    1    2    0    0 -0.26458986780E+03 -0.51689638064E+02  0.11379473268E+04  0.11958694475E+04  0.25000000000E+03 0.  0.
<mgrwt>
<rscale>  0 0.73536150E+03</rscale>
<asrwt>0</asrwt>
<pdfrwt beam="1">  1        2 0.36208671E+00 0.73536150E+03</pdfrwt>
<pdfrwt beam="2">  1       -2 0.88369517E-02 0.73536150E+03</pdfrwt>
<totfact> 0.36672504E+02</totfact>
</mgrwt>
</event>
<event>
 4    1  0.1773996E-005  0.7858690E+03  0.7818608E-02  0.9580699E-01
         -2   -1    0    0    0  501 -0.00000000000E+00  0.00000000000E+00  0.89497780076E+02  0.89497780112E+02  0.25500000000E-02 0. -1.
          2   -1    0    0  501    0  0.00000000000E+00 -0.00000000000E+00 -0.17251546589E+04  0.17251546589E+04  0.25500000000E-02 0.  1.
   -5000001    1    1    2    0    0  0.27192263153E+03  0.13390817163E+03 -0.82918686334E+03  0.91756425949E+03  0.25000000000E+03 0.  0.
    5000001    1    1    2    0    0 -0.27192263153E+03 -0.13390817163E+03 -0.80647001552E+03  0.89708817956E+03  0.25000000000E+03 0.  0.
<mgrwt>
<rscale>  0 0.78586898E+03</rscale>
<asrwt>0</asrwt>
<pdfrwt beam="1">  1        2 0.26540838E+00 0.78586898E+03</pdfrwt>
<pdfrwt beam="2">  1       -2 0.13768891E-01 0.78586898E+03</pdfrwt>
<totfact> 0.39000035E+02</totfact>
</mgrwt>
</event>
<event>
 4    1  0.1773996E-005  0.9424690E+03  0.7818608E-02  0.9373997E-01
         -2   -1    0    0    0  501 -0.00000000000E+00  0.00000000000E+00  0.13774652158E+03  0.13774652160E+03  0.25500000000E-02 0. -1.
          2   -1    0    0  501    0  0.00000000000E+00 -0.00000000000E+00 -0.16121055884E+04  0.16121055884E+04  0.25500000000E-02 0.  1.
   -5000001    1    1    2    0    0  0.99940902353E+02  0.38247811148E+03 -0.84358213049E+03  0.96457685054E+03  0.25000000000E+03 0.  0.
    5000001    1    1    2    0    0 -0.99940902353E+02 -0.38247811148E+03 -0.63077693636E+03  0.78527525949E+03  0.25000000000E+03 0.  0.
<mgrwt>
<rscale>  0 0.94246896E+03</rscale>
<asrwt>0</asrwt>
<pdfrwt beam="1">  1        2 0.24801623E+00 0.94246896E+03</pdfrwt>
<pdfrwt beam="2">  1       -2 0.21191774E-01 0.94246896E+03</pdfrwt>
<totfact> 0.21216838E+02</totfact>
</mgrwt>
</event>
<event>
 4    1  0.1773996E-005  0.2121823E+04  0.7818608E-02  0.8551691E-01
          2   -1    0    0  501    0  0.00000000000E+00  0.00000000000E+00  0.26852787082E+04  0.26852787082E+04  0.25500000000E-02 0.  1.
         -2   -1    0    0    0  501 -0.00000000000E+00 -0.00000000000E+00 -0.41914939161E+03  0.41914939162E+03  0.25500000000E-02 0. -1.
   -5000001    1    1    2    0    0  0.88252274167E+03  0.41394852903E+03  0.64160159132E+03  0.11934623481E+04  0.25000000000E+03 0.  0.
    5000001    1    1    2    0    0 -0.88252274167E+03 -0.41394852903E+03  0.16245277252E+04  0.19109657517E+04  0.25000000000E+03 0.  0.
<mgrwt>
<rscale>  0 0.21218227E+04</rscale>
<asrwt>0</asrwt>
<pdfrwt beam="1">  1        2 0.41311981E+00 0.21218227E+04</pdfrwt>
<pdfrwt beam="2">  1       -2 0.64484521E-01 0.21218227E+04</pdfrwt>
<totfact> 0.55393844E+00</totfact>
</mgrwt>
</event>
<event>
 4    1  0.1773996E-005  0.5780402E+03  0.7818608E-02  0.9952043E-01
          2   -1    0    0  501    0  0.00000000000E+00  0.00000000000E+00  0.11595988119E+04  0.11595988119E+04  0.25500000000E-02 0.  1.
         -2   -1    0    0    0  501 -0.00000000000E+00 -0.00000000000E+00 -0.72035783605E+02  0.72035783650E+02  0.25500000000E-02 0. -1.
   -5000001    1    1    2    0    0 -0.74011357904E+02  0.12471801414E+03  0.54503296012E+03  0.61692235473E+03  0.25000000000E+03 0.  0.
    5000001    1    1    2    0    0  0.74011357904E+02 -0.12471801414E+03  0.54253006822E+03  0.61471224087E+03  0.25000000000E+03 0.  0.
<mgrwt>
<rscale>  0 0.57804017E+03</rscale>
<asrwt>0</asrwt>
<pdfrwt beam="1">  1        2 0.17839982E+00 0.57804017E+03</pdfrwt>
<pdfrwt beam="2">  1       -2 0.11082428E-01 0.57804017E+03</pdfrwt>
<totfact> 0.11751568E+03</totfact>
</mgrwt>
</event>
<event>
 4    1  0.1773996E-005  0.7057096E+03  0.7818608E-02  0.9707517E-01
         -2   -1    0    0    0  501 -0.00000000000E+00  0.00000000000E+00  0.49884440775E+02  0.49884440841E+02  0.25500000000E-02 0. -1.
          2   -1    0    0  501    0  0.00000000000E+00 -0.00000000000E+00 -0.24958990169E+04  0.24958990169E+04  0.25500000000E-02 0.  1.
   -5000001    1    1    2    0    0  0.20360477262E+03  0.11288023380E+03 -0.15418025941E+04  0.15791934934E+04  0.25000000000E+03 0.  0.
    5000001    1    1    2    0    0 -0.20360477262E+03 -0.11288023380E+03 -0.90421198208E+03  0.96658996433E+03  0.25000000000E+03 0.  0.
<mgrwt>
<rscale>  0 0.70570965E+03</rscale>
<asrwt>0</asrwt>
<pdfrwt beam="1">  1        2 0.38398437E+00 0.70570965E+03</pdfrwt>
<pdfrwt beam="2">  1       -2 0.76745313E-02 0.70570965E+03</pdfrwt>
<totfact> 0.38347834E+02</totfact>
</mgrwt>
</event>
<event>
 4    1  0.1773996E-005  0.8449110E+03  0.7818608E-02  0.9497193E-01
         -2   -1    0    0    0  501 -0.00000000000E+00  0.00000000000E+00  0.30118095571E+03  0.30118095572E+03  0.25500000000E-02 0. -1.
          2   -1    0    0  501    0  0.00000000000E+00 -0.00000000000E+00 -0.59256290880E+03  0.59256290881E+03  0.25500000000E-02 0.  1.
   -5000001    1    1    2    0    0 -0.19286941048E+03 -0.27033095142E+03 -0.65890556671E+02  0.42085507987E+03  0.25000000000E+03 0.  0.
    5000001    1    1    2    0    0  0.19286941048E+03  0.27033095142E+03 -0.22549139642E+03  0.47288878466E+03  0.25000000000E+03 0.  0.
<mgrwt>
<rscale>  0 0.84491103E+03</rscale>
<asrwt>0</asrwt>
<pdfrwt beam="1">  1        2 0.91163524E-01 0.84491103E+03</pdfrwt>
<pdfrwt beam="2">  1       -2 0.46335532E-01 0.84491103E+03</pdfrwt>
<totfact> 0.22351095E+02</totfact>
</mgrwt>
</event>
<event>
 4    1  0.1773996E-005  0.1055903E+04  0.7818608E-02  0.9249270E-01
         -2   -1    0    0    0  501 -0.00000000000E+00  0.00000000000E+00  0.92646720074E+02  0.92646720109E+02  0.25500000000E-02 0. -1.
          2   -1    0    0  501    0  0.00000000000E+00 -0.00000000000E+00 -0.30085581534E+04  0.30085581534E+04  0.25500000000E-02 0.  1.
   -5000001    1    1    2    0    0 -0.28400000096E+03  0.35757387726E+03 -0.17159782812E+04  0.17932084486E+04  0.25000000000E+03 0.  0.
    5000001    1    1    2    0    0  0.28400000096E+03 -0.35757387726E+03 -0.11999331521E+04  0.13079964249E+04  0.25000000000E+03 0.  0.
<mgrwt>
<rscale>  0 0.10559035E+04</rscale>
<asrwt>0</asrwt>
<pdfrwt beam="1">  1        2 0.46285503E+00 0.10559035E+04</pdfrwt>
<pdfrwt beam="2">  1       -2 0.14253344E-01 0.10559035E+04</pdfrwt>
<totfact> 0.66931189E+01</totfact>
</mgrwt>
</event>
<event>
 4    1  0.1773996E-005  0.1195496E+04  0.7818608E-02  0.9116808E-01
          2   -1    0    0  501    0  0.00000000000E+00  0.00000000000E+00  0.23668368503E+04  0.23668368503E+04  0.25500000000E-02 0.  1.
         -2   -1    0    0    0  501 -0.00000000000E+00 -0.00000000000E+00 -0.15096208343E+03  0.15096208345E+03  0.25500000000E-02 0. -1.
   -5000001    1    1    2    0    0  0.21319814359E+02  0.50120503262E+03  0.15453799957E+04  0.16438857474E+04  0.25000000000E+03 0.  0.
    5000001    1    1    2    0    0 -0.21319814359E+02 -0.50120503262E+03  0.67049477115E+03  0.87391318639E+03  0.25000000000E+03 0.  0.
<mgrwt>
<rscale>  0 0.11954959E+04</rscale>
<asrwt>0</asrwt>
<pdfrwt beam="1">  1        2 0.36412871E+00 0.11954959E+04</pdfrwt>
<pdfrwt beam="2">  1       -2 0.23224938E-01 0.11954959E+04</pdfrwt>
<totfact> 0.67499634E+01</totfact>
</mgrwt>
</event>
<event>
 4    1  0.1773996E-005  0.9992043E+03  0.7818608E-02  0.9309418E-01
          2   -1    0    0  501    0  0.00000000000E+00  0.00000000000E+00  0.71370480324E+03  0.71370480325E+03  0.25500000000E-02 0.  1.
         -2   -1    0    0    0  501 -0.00000000000E+00 -0.00000000000E+00 -0.34972762417E+03  0.34972762417E+03  0.25500000000E-02 0. -1.
   -5000001    1    1    2    0    0 -0.26445855601E+03 -0.16200812196E+03  0.50289541286E+03  0.64155183400E+03  0.25000000000E+03 0.  0.
    5000001    1    1    2    0    0  0.26445855601E+03  0.16200812196E+03 -0.13891823378E+03  0.42188059342E+03  0.25000000000E+03 0.  0.
<mgrwt>
<rscale>  0 0.99920425E+03</rscale>
<asrwt>0</asrwt>
<pdfrwt beam="1">  1        2 0.10980074E+00 0.99920425E+03</pdfrwt>
<pdfrwt beam="2">  1       -2 0.53804250E-01 0.99920425E+03</pdfrwt>
<totfact> 0.12991712E+02</totfact>
</mgrwt>
</event>
<event>
 4    1  0.1773996E-005  0.6072133E+03  0.7818608E-02  0.9890553E-01
          2   -1    0    0  501    0  0.00000000000E+00  0.00000000000E+00  0.70093113732E+03  0.70093113732E+03  0.25500000000E-02 0.  1.
         -2   -1    0    0    0  501 -0.00000000000E+00 -0.00000000000E+00 -0.13150648206E+03  0.13150648208E+03  0.25500000000E-02 0. -1.
   -5000001    1    1    2    0    0  0.14057595284E+03 -0.65506808059E+02  0.38752405674E+03  0.48654664213E+03  0.25000000000E+03 0.  0.
    5000001    1    1    2    0    0 -0.14057595284E+03  0.65506808059E+02  0.18190059852E+03  0.34589097727E+03  0.25000000000E+03 0.  0.
<mgrwt>
<rscale>  0 0.60721327E+03</rscale>
<asrwt>0</asrwt>
<pdfrwt beam="1">  1        2 0.10783556E+00 0.60721327E+03</pdfrwt>
<pdfrwt beam="2">  1       -2 0.20231767E-01 0.60721327E+03</pdfrwt>
<totfact> 0.85962687E+02</totfact>
</mgrwt>
</event>
<event>
 4    1  0.1773996E-005  0.6556222E+03  0.7818608E-02  0.9796286E-01
         -2   -1    0    0    0  501 -0.00000000000E+00  0.00000000000E+00  0.76739428064E+02  0.76739428106E+02  0.25500000000E-02 0. -1.
          2   -1    0    0  501    0  0.00000000000E+00 -0.00000000000E+00 -0.14003248092E+04  0.14003248092E+04  0.25500000000E-02 0.  1.
   -5000001    1    1    2    0    0 -0.17823782529E+03  0.98589842390E+02 -0.79453241120E+03  0.85747911452E+03  0.25000000000E+03 0.  0.
    5000001    1    1    2    0    0  0.17823782529E+03 -0.98589842390E+02 -0.52905296994E+03  0.61958512280E+03  0.25000000000E+03 0.  0.
<mgrwt>
<rscale>  0 0.65562222E+03</rscale>
<asrwt>0</asrwt>
<pdfrwt beam="1">  1        2 0.21543457E+00 0.65562222E+03</pdfrwt>
<pdfrwt beam="2">  1       -2 0.11806067E-01 0.65562222E+03</pdfrwt>
<totfact> 0.76731278E+02</totfact>
</mgrwt>
</event>
<event>
 4    1  0.1773996E-005  0.6457457E+03  0.7818608E-02  0.9814795E-01
         -2   -1    0    0    0  501 -0.00000000000E+00  0.00000000000E+00  0.54526511738E+03  0.54526511738E+03  0.25500000000E-02 0. -1.
          2   -1    0    0  501    0  0.00000000000E+00 -0.00000000000E+00 -0.19118565445E+03  0.19118565447E+03  0.25500000000E-02 0.  1.
   -5000001    1    1    2    0    0  0.65009618473E+02 -0.18818020714E+03  0.12466729935E+03  0.34304515211E+03  0.25000000000E+03 0.  0.
    5000001    1    1    2    0    0 -0.65009618473E+02  0.18818020714E+03  0.22941216357E+03  0.39340561975E+03  0.25000000000E+03 0.  0.
<mgrwt>
<rscale>  0 0.64574567E+03</rscale>
<asrwt>0</asrwt>
<pdfrwt beam="1">  1        2 0.29413178E-01 0.64574567E+03</pdfrwt>
<pdfrwt beam="2">  1       -2 0.83886941E-01 0.64574567E+03</pdfrwt>
<totfact> 0.22842772E+02</totfact>
</mgrwt>
</event>
<event>
 4    1  0.1773996E-005  0.5649322E+03  0.7818608E-02  0.9980956E-01
         -2   -1    0    0    0  501 -0.00000000000E+00  0.00000000000E+00  0.31716485910E+03  0.31716485911E+03  0.25500000000E-02 0. -1.
          2   -1    0    0  501    0  0.00000000000E+00 -0.00000000000E+00 -0.25156351599E+03  0.25156351600E+03  0.25500000000E-02 0.  1.
   -5000001    1    1    2    0    0 -0.12962135443E+02  0.12487133866E+03 -0.65289534594E+01  0.27982761731E+03  0.25000000000E+03 0.  0.
    5000001    1    1    2    0    0  0.12962135443E+02 -0.12487133866E+03  0.72130296578E+02  0.28890075780E+03  0.25000000000E+03 0.  0.
<mgrwt>
<rscale>  0 0.56493223E+03</rscale>
<asrwt>0</asrwt>
<pdfrwt beam="1">  1        2 0.38702079E-01 0.56493223E+03</pdfrwt>
<pdfrwt beam="2">  1       -2 0.48794594E-01 0.56493223E+03</pdfrwt>
<totfact> 0.53571210E+02</totfact>
</mgrwt>
</event>
<event>
 4    1  0.1773996E-005  0.1138055E+04  0.7818608E-02  0.9168874E-01
          2   -1    0    0  501    0  0.00000000000E+00  0.00000000000E+00  0.66219605916E+03  0.66219605916E+03  0.25500000000E-02 0. -1.
         -2   -1    0    0    0  501 -0.00000000000E+00 -0.00000000000E+00 -0.48896755458E+03  0.48896755459E+03  0.25500000000E-02 0.  1.
   -5000001    1    1    2    0    0  0.22587235283E+03  0.44714182346E+03 -0.16234118523E+02  0.56010505860E+03  0.25000000000E+03 0.  0.
    5000001    1    1    2    0    0 -0.22587235283E+03 -0.44714182346E+03  0.18946262310E+03  0.59105855515E+03  0.25000000000E+03 0.  0.
<mgrwt>
<rscale>  0 0.11380552E+04</rscale>
<asrwt>0</asrwt>
<pdfrwt beam="1">  1        2 0.10187632E+00 0.11380552E+04</pdfrwt>
<pdfrwt beam="2">  1       -2 0.75225778E-01 0.11380552E+04</pdfrwt>
<totfact> 0.69075481E+01</totfact>
</mgrwt>
</event>
<event>
 4    1  0.1773996E-005  0.5778287E+03  0.7818608E-02  0.9952503E-01
          2   -1    0    0  501    0  0.00000000000E+00  0.00000000000E+00  0.37998123073E+03  0.37998123073E+03  0.25500000000E-02 0.  1.
         -2   -1    0    0    0  501 -0.00000000000E+00 -0.00000000000E+00 -0.21967266760E+03  0.21967266761E+03  0.25500000000E-02 0. -1.
   -5000001    1    1    2    0    0  0.98017453534E+02  0.70276630804E+02 -0.30311144618E+01  0.27758856909E+03  0.25000000000E+03 0.  0.
    5000001    1    1    2    0    0 -0.98017453534E+02 -0.70276630804E+02  0.16333967759E+03  0.32206532926E+03  0.25000000000E+03 0.  0.
<mgrwt>
<rscale>  0 0.57782866E+03</rscale>
<asrwt>0</asrwt>
<pdfrwt beam="1">  1        2 0.58458651E-01 0.57782866E+03</pdfrwt>
<pdfrwt beam="2">  1       -2 0.33795795E-01 0.57782866E+03</pdfrwt>
<totfact> 0.69406016E+02</totfact>
</mgrwt>
</event>
<event>
 4    1  0.1773996E-005  0.1043975E+04  0.7818608E-02  0.9261587E-01
          2   -1    0    0  501    0  0.00000000000E+00  0.00000000000E+00  0.27894529112E+04  0.27894529112E+04  0.25500000000E-02 0.  1.
         -2   -1    0    0    0  501 -0.00000000000E+00 -0.00000000000E+00 -0.97678904317E+02  0.97678904350E+02  0.25500000000E-02 0. -1.
   -5000001    1    1    2    0    0 -0.30031455185E+03 -0.25599973953E+03  0.19899978303E+04  0.20440929679E+04  0.25000000000E+03 0.  0.
    5000001    1    1    2    0    0  0.30031455185E+03  0.25599973953E+03  0.70177617660E+03  0.84303884770E+03  0.25000000000E+03 0.  0.
<mgrwt>
<rscale>  0 0.10439745E+04</rscale>
<asrwt>0</asrwt>
<pdfrwt beam="1">  1        2 0.42914659E+00 0.10439745E+04</pdfrwt>
<pdfrwt beam="2">  1       -2 0.15027524E-01 0.10439745E+04</pdfrwt>
<totfact> 0.83193347E+01</totfact>
</mgrwt>
</event>
<event>
 4    1  0.1773996E-005  0.9228307E+03  0.7818608E-02  0.9397484E-01
          2   -1    0    0  501    0  0.00000000000E+00  0.00000000000E+00  0.18391338732E+04  0.18391338732E+04  0.25500000000E-02 0.  1.
         -2   -1    0    0    0  501 -0.00000000000E+00 -0.00000000000E+00 -0.11576325416E+03  0.11576325419E+03  0.25500000000E-02 0. -1.
   -5000001    1    1    2    0    0  0.32175170164E+03  0.17101092978E+03  0.11429999908E+04  0.12254459901E+04  0.25000000000E+03 0.  0.
    5000001    1    1    2    0    0 -0.32175170164E+03 -0.17101092978E+03  0.58037062820E+03  0.72945113729E+03  0.25000000000E+03 0.  0.
<mgrwt>
<rscale>  0 0.92283069E+03</rscale>
<asrwt>0</asrwt>
<pdfrwt beam="1">  1        2 0.28294367E+00 0.92283069E+03</pdfrwt>
<pdfrwt beam="2">  1       -2 0.17809732E-01 0.92283069E+03</pdfrwt>
<totfact> 0.21591928E+02</totfact>
</mgrwt>
</event>
<event>
 4    1  0.1773996E-005  0.7676156E+03  0.7818608E-02  0.9608113E-01
          2   -1    0    0  501    0  0.00000000000E+00  0.00000000000E+00  0.13997271066E+04  0.13997271066E+04  0.25500000000E-02 0.  1.
         -2   -1    0    0    0  501 -0.00000000000E+00 -0.00000000000E+00 -0.10524081853E+03  0.10524081857E+03  0.25500000000E-02 0. -1.
   -5000001    1    1    2    0    0 -0.17884032025E+03 -0.22788244732E+03  0.70586913849E+03  0.80291064921E+03  0.25000000000E+03 0.  0.
    5000001    1    1    2    0    0  0.17884032025E+03  0.22788244732E+03  0.58861714952E+03  0.70205727591E+03  0.25000000000E+03 0.  0.
<mgrwt>
<rscale>  0 0.76761560E+03</rscale>
<asrwt>0</asrwt>
<pdfrwt beam="1">  1        2 0.21534262E+00 0.76761560E+03</pdfrwt>
<pdfrwt beam="2">  1       -2 0.16190896E-01 0.76761560E+03</pdfrwt>
<totfact> 0.44974280E+02</totfact>
</mgrwt>
</event>
<event>
 4    1  0.1773996E-005  0.8243788E+03  0.7818608E-02  0.9525385E-01
         -2   -1    0    0    0  501 -0.00000000000E+00  0.00000000000E+00  0.11555099810E+03  0.11555099813E+03  0.25500000000E-02 0. -1.
          2   -1    0    0  501    0  0.00000000000E+00 -0.00000000000E+00 -0.14703471536E+04  0.14703471536E+04  0.25500000000E-02 0.  1.
   -5000001    1    1    2    0    0  0.20001473602E+03 -0.23765359838E+03 -0.87838113746E+03  0.96464426091E+03  0.25000000000E+03 0.  0.
    5000001    1    1    2    0    0 -0.20001473602E+03  0.23765359838E+03 -0.47641501799E+03  0.62125389078E+03  0.25000000000E+03 0.  0.
<mgrwt>
<rscale>  0 0.82437875E+03</rscale>
<asrwt>0</asrwt>
<pdfrwt beam="1">  1        2 0.22620724E+00 0.82437875E+03</pdfrwt>
<pdfrwt beam="2">  1       -2 0.17777078E-01 0.82437875E+03</pdfrwt>
<totfact> 0.34846765E+02</totfact>
</mgrwt>
</event>
<event>
 4    1  0.1773996E-005  0.5927248E+03  0.7818608E-02  0.9920616E-01
         -2   -1    0    0    0  501 -0.00000000000E+00  0.00000000000E+00  0.33699221897E+02  0.33699221993E+02  0.25500000000E-02 0. -1.
          2   -1    0    0  501    0  0.00000000000E+00 -0.00000000000E+00 -0.26063119464E+04  0.26063119464E+04  0.25500000000E-02 0.  1.
   -5000001    1    1    2    0    0  0.13728440274E+03 -0.75896829986E+02 -0.11665147284E+04  0.12032721835E+04  0.25000000000E+03 0.  0.
    5000001    1    1    2    0    0 -0.13728440274E+03  0.75896829986E+02 -0.14060979962E+04  0.14367389850E+04  0.25000000000E+03 0.  0.
<mgrwt>
<rscale>  0 0.59272484E+03</rscale>
<asrwt>0</asrwt>
<pdfrwt beam="1">  1        2 0.40097091E+00 0.59272484E+03</pdfrwt>
<pdfrwt beam="2">  1       -2 0.51844977E-02 0.59272484E+03</pdfrwt>
<totfact> 0.62176603E+02</totfact>
</mgrwt>
</event>
<event>
 4    1  0.1773996E-005  0.7638409E+03  0.7818608E-02  0.9613883E-01
          2   -1    0    0  501    0  0.00000000000E+00  0.00000000000E+00  0.22657045235E+04  0.22657045235E+04  0.25500000000E-02 0.  1.
         -2   -1    0    0    0  501 -0.00000000000E+00 -0.00000000000E+00 -0.64378760495E+02  0.64378760545E+02  0.25500000000E-02 0. -1.
   -5000001    1    1    2    0    0 -0.19343100318E+03  0.21166540608E+03  0.12039050025E+04  0.12625787310E+04  0.25000000000E+03 0.  0.
    5000001    1    1    2    0    0  0.19343100318E+03 -0.21166540608E+03  0.99742076049E+03  0.10675045530E+04  0.25000000000E+03 0.  0.
<mgrwt>
<rscale>  0 0.76384095E+03</rscale>
<asrwt>0</asrwt>
<pdfrwt beam="1">  1        2 0.34856992E+00 0.76384095E+03</pdfrwt>
<pdfrwt beam="2">  1       -2 0.99044249E-02 0.76384095E+03</pdfrwt>
<totfact> 0.34035375E+02</totfact>
</mgrwt>
</event>
<event>
 4    1  0.1773996E-005  0.1012283E+04  0.7818608E-02  0.9295175E-01
         -2   -1    0    0    0  501 -0.00000000000E+00  0.00000000000E+00  0.28723921857E+03  0.28723921858E+03  0.25500000000E-02 0. -1.
          2   -1    0    0  501    0  0.00000000000E+00 -0.00000000000E+00 -0.89186627534E+03  0.89186627535E+03  0.25500000000E-02 0.  1.
   -5000001    1    1    2    0    0 -0.26855814945E+03  0.30078275849E+03 -0.50767923912E+03  0.69486110646E+03  0.25000000000E+03 0.  0.
    5000001    1    1    2    0    0  0.26855814945E+03 -0.30078275849E+03 -0.96947817655E+02  0.48424438746E+03  0.25000000000E+03 0.  0.
<mgrwt>
<rscale>  0 0.10122825E+04</rscale>
<asrwt>0</asrwt>
<pdfrwt beam="1">  1        2 0.13721020E+00 0.10122825E+04</pdfrwt>
<pdfrwt beam="2">  1       -2 0.44190649E-01 0.10122825E+04</pdfrwt>
<totfact> 0.14382272E+02</totfact>
</mgrwt>
</event>
<event>
 4    1  0.1773996E-005  0.6421274E+03  0.7818608E-02  0.9821665E-01
          2   -1    0    0  501    0  0.00000000000E+00  0.00000000000E+00  0.19195101118E+04  0.19195101118E+04  0.25500000000E-02 0.  1.
         -2   -1    0    0    0  501 -0.00000000000E+00 -0.00000000000E+00 -0.53702195633E+02  0.53702195694E+02  0.25500000000E-02 0. -1.
   -5000001    1    1    2    0    0 -0.26919576703E+02  0.19759680374E+03  0.84529866986E+03  0.90376932993E+03  0.25000000000E+03 0.  0.
    5000001    1    1    2    0    0  0.26919576703E+02 -0.19759680374E+03  0.10205092463E+04  0.10694429775E+04  0.25000000000E+03 0.  0.
<mgrwt>
<rscale>  0 0.64212743E+03</rscale>
<asrwt>0</asrwt>
<pdfrwt beam="1">  1        2 0.29530923E+00 0.64212743E+03</pdfrwt>
<pdfrwt beam="2">  1       -2 0.82618768E-02 0.64212743E+03</pdfrwt>
<totfact> 0.71183040E+02</totfact>
</mgrwt>
</event>
<event>
 4    1  0.1773996E-005  0.7631687E+03  0.7818608E-02  0.9614914E-01
         -2   -1    0    0    0  501 -0.00000000000E+00  0.00000000000E+00  0.22781868454E+03  0.22781868456E+03  0.25500000000E-02 0. -1.
          2   -1    0    0  501    0  0.00000000000E+00 -0.00000000000E+00 -0.63913376045E+03  0.63913376046E+03  0.25500000000E-02 0.  1.
   -5000001    1    1    2    0    0 -0.24178242442E+03  0.86108445790E+02 -0.56530020622E+02  0.36272448005E+03  0.25000000000E+03 0.  0.
    5000001    1    1    2    0    0  0.24178242442E+03 -0.86108445790E+02 -0.35478505529E+03  0.50422796496E+03  0.25000000000E+03 0.  0.
<mgrwt>
<rscale>  0 0.76316869E+03</rscale>
<asrwt>0</asrwt>
<pdfrwt beam="1">  1        2 0.98328270E-01 0.76316869E+03</pdfrwt>
<pdfrwt beam="2">  1       -2 0.35049029E-01 0.76316869E+03</pdfrwt>
<totfact> 0.35288924E+02</totfact>
</mgrwt>
</event>
<event>
 4    1  0.1773996E-005  0.6037281E+03  0.7818608E-02  0.9897701E-01
          2   -1    0    0  501    0  0.00000000000E+00  0.00000000000E+00  0.71979286139E+03  0.71979286139E+03  0.25500000000E-02 0.  1.
         -2   -1    0    0    0  501 -0.00000000000E+00 -0.00000000000E+00 -0.12659463081E+03  0.12659463084E+03  0.25500000000E-02 0. -1.
   -5000001    1    1    2    0    0 -0.14669940687E+03  0.84165365614E+02  0.29075339741E+03  0.41909672255E+03  0.25000000000E+03 0.  0.
    5000001    1    1    2    0    0  0.14669940687E+03 -0.84165365614E+02  0.30244483317E+03  0.42729076968E+03  0.25000000000E+03 0.  0.
<mgrwt>
<rscale>  0 0.60372812E+03</rscale>
<asrwt>0</asrwt>
<pdfrwt beam="1">  1        2 0.11073736E+00 0.60372812E+03</pdfrwt>
<pdfrwt beam="2">  1       -2 0.19476097E-01 0.60372812E+03</pdfrwt>
<totfact> 0.88840006E+02</totfact>
</mgrwt>
</event>
<event>
 4    1  0.1773996E-005  0.9988898E+03  0.7818608E-02  0.9309763E-01
         -2   -1    0    0    0  501 -0.00000000000E+00  0.00000000000E+00  0.21112890623E+03  0.21112890625E+03  0.25500000000E-02 0. -1.
          2   -1    0    0  501    0  0.00000000000E+00 -0.00000000000E+00 -0.11814828677E+04  0.11814828677E+04  0.25500000000E-02 0.  1.
   -5000001    1    1    2    0    0  0.26775270701E+03  0.22149793233E+03 -0.12648937574E+03  0.44637698004E+03  0.25000000000E+03 0.  0.
    5000001    1    1    2    0    0 -0.26775270701E+03 -0.22149793233E+03 -0.84386458569E+03  0.94623479386E+03  0.25000000000E+03 0.  0.
<mgrwt>
<rscale>  0 0.99888975E+03</rscale>
<asrwt>0</asrwt>
<pdfrwt beam="1">  1        2 0.18176659E+00 0.99888975E+03</pdfrwt>
<pdfrwt beam="2">  1       -2 0.32481371E-01 0.99888975E+03</pdfrwt>
<totfact> 0.17109928E+02</totfact>
</mgrwt>
</event>
<event>
 4    1  0.1773996E-005  0.8780150E+03  0.7818608E-02  0.9453489E-01
         -2   -1    0    0    0  501 -0.00000000000E+00  0.00000000000E+00  0.12368004324E+03  0.12368004327E+03  0.25500000000E-02 0. -1.
          2   -1    0    0  501    0  0.00000000000E+00 -0.00000000000E+00 -0.15582754435E+04  0.15582754435E+04  0.25500000000E-02 0.  1.
   -5000001    1    1    2    0    0  0.26424711977E+03  0.18192146399E+03 -0.10338449575E+04  0.11109713568E+04  0.25000000000E+03 0.  0.
    5000001    1    1    2    0    0 -0.26424711977E+03 -0.18192146399E+03 -0.40075044276E+03  0.57098413002E+03  0.25000000000E+03 0.  0.
<mgrwt>
<rscale>  0 0.87801498E+03</rscale>
<asrwt>0</asrwt>
<pdfrwt beam="1">  1        2 0.23973467E+00 0.87801498E+03</pdfrwt>
<pdfrwt beam="2">  1       -2 0.19027700E-01 0.87801498E+03</pdfrwt>
<totfact> 0.27572051E+02</totfact>
</mgrwt>
</event>
<event>
 4    1  0.1773996E-005  0.1534533E+04  0.7818608E-02  0.8861808E-01
          2   -1    0    0  501    0  0.00000000000E+00  0.00000000000E+00  0.98207680724E+03  0.98207680725E+03  0.25500000000E-02 0.  1.
         -2   -1    0    0    0  501 -0.00000000000E+00 -0.00000000000E+00 -0.59944213834E+03  0.59944213834E+03  0.25500000000E-02 0. -1.
   -5000001    1    1    2    0    0 -0.53339400303E+03 -0.41359861258E+03  0.46520850358E+03  0.85702504433E+03  0.25000000000E+03 0.  0.
    5000001    1    1    2    0    0  0.53339400303E+03  0.41359861258E+03 -0.82573834678E+02  0.72449390126E+03  0.25000000000E+03 0.  0.
<mgrwt>
<rscale>  0 0.15345334E+04</rscale>
<asrwt>0</asrwt>
<pdfrwt beam="1">  1        2 0.15108874E+00 0.15345334E+04</pdfrwt>
<pdfrwt beam="2">  1       -2 0.92221868E-01 0.15345334E+04</pdfrwt>
<totfact> 0.24905301E+01</totfact>
</mgrwt>
</event>
<event>
 4    1  0.1773996E-005  0.6656799E+03  0.7818608E-02  0.9777794E-01
          2   -1    0    0  501    0  0.00000000000E+00  0.00000000000E+00  0.14345667548E+04  0.14345667548E+04  0.25500000000E-02 0.  1.
         -2   -1    0    0    0  501 -0.00000000000E+00 -0.00000000000E+00 -0.77223621255E+02  0.77223621297E+02  0.25500000000E-02 0. -1.
   -5000001    1    1    2    0    0  0.99647169487E+02 -0.17870603037E+03  0.49674615816E+03  0.59255560864E+03  0.25000000000E+03 0.  0.
    5000001    1    1    2    0    0 -0.99647169487E+02  0.17870603037E+03  0.86059697537E+03  0.91923476745E+03  0.25000000000E+03 0.  0.
<mgrwt>
<rscale>  0 0.66567992E+03</rscale>
<asrwt>0</asrwt>
<pdfrwt beam="1">  1        2 0.22070255E+00 0.66567992E+03</pdfrwt>
<pdfrwt beam="2">  1       -2 0.11880559E-01 0.66567992E+03</pdfrwt>
<totfact> 0.72618354E+02</totfact>
</mgrwt>
</event>
<event>
 4    1  0.1773996E-005  0.8289291E+03  0.7818608E-02  0.9519062E-01
          2   -1    0    0  501    0  0.00000000000E+00  0.00000000000E+00  0.55744585258E+03  0.55744585258E+03  0.25500000000E-02 0.  1.
         -2   -1    0    0    0  501 -0.00000000000E+00 -0.00000000000E+00 -0.30815701685E+03  0.30815701686E+03  0.25500000000E-02 0. -1.
   -5000001    1    1    2    0    0  0.26754553799E+03  0.13133395637E+03  0.27398067393E+03  0.47580944997E+03  0.25000000000E+03 0.  0.
    5000001    1    1    2    0    0 -0.26754553799E+03 -0.13133395637E+03 -0.24691838202E+02  0.38979341948E+03  0.25000000000E+03 0.  0.
<mgrwt>
<rscale>  0 0.82892907E+03</rscale>
<asrwt>0</asrwt>
<pdfrwt beam="1">  1        2 0.85760901E-01 0.82892907E+03</pdfrwt>
<pdfrwt beam="2">  1       -2 0.47408772E-01 0.82892907E+03</pdfrwt>
<totfact> 0.22979571E+02</totfact>
</mgrwt>
</event>
<event>
 4    1  0.1773996E-005  0.9604214E+03  0.7818608E-02  0.9353052E-01
         -2   -1    0    0    0  501 -0.00000000000E+00  0.00000000000E+00  0.65206781068E+02  0.65206781118E+02  0.25500000000E-02 0. -1.
          2   -1    0    0  501    0  0.00000000000E+00 -0.00000000000E+00 -0.35364773439E+04  0.35364773439E+04  0.25500000000E-02 0.  1.
   -5000001    1    1    2    0    0 -0.38709041626E+03  0.12934578083E+03 -0.15888060851E+04  0.16593294119E+04  0.25000000000E+03 0.  0.
    5000001    1    1    2    0    0  0.38709041626E+03 -0.12934578083E+03 -0.18824644778E+04  0.19423547131E+04  0.25000000000E+03 0.  0.
<mgrwt>
<rscale>  0 0.96042137E+03</rscale>
<asrwt>0</asrwt>
<pdfrwt beam="1">  1        2 0.54407329E+00 0.96042137E+03</pdfrwt>
<pdfrwt beam="2">  1       -2 0.10031815E-01 0.96042137E+03</pdfrwt>
<totfact> 0.54818577E+01</totfact>
</mgrwt>
</event>
<event>
 4    1  0.1773996E-005  0.5844197E+03  0.7818608E-02  0.9938268E-01
          2   -1    0    0  501    0  0.00000000000E+00  0.00000000000E+00  0.30241179520E+03  0.30241179521E+03  0.25500000000E-02 0.  1.
         -2   -1    0    0    0  501 -0.00000000000E+00 -0.00000000000E+00 -0.28235202610E+03  0.28235202611E+03  0.25500000000E-02 0. -1.
   -5000001    1    1    2    0    0 -0.49740815834E+02  0.42655107666E+02  0.14646624894E+03  0.29706223093E+03  0.25000000000E+03 0.  0.
    5000001    1    1    2    0    0  0.49740815834E+02 -0.42655107666E+02 -0.12640647984E+03  0.28770159039E+03  0.25000000000E+03 0.  0.
<mgrwt>
<rscale>  0 0.58441965E+03</rscale>
<asrwt>0</asrwt>
<pdfrwt beam="1">  1        2 0.46524892E-01 0.58441965E+03</pdfrwt>
<pdfrwt beam="2">  1       -2 0.43438773E-01 0.58441965E+03</pdfrwt>
<totfact> 0.55103574E+02</totfact>
</mgrwt>
</event>
<event>
 4    1  0.1773996E-005  0.1461705E+04  0.7818608E-02  0.8910326E-01
         -2   -1    0    0    0  501 -0.00000000000E+00  0.00000000000E+00  0.93834943610E+03  0.93834943610E+03  0.25500000000E-02 0. -1.
          2   -1    0    0  501    0  0.00000000000E+00 -0.00000000000E+00 -0.56923927738E+03  0.56923927739E+03  0.25500000000E-02 0.  1.
   -5000001    1    1    2    0    0 -0.63067984390E+03  0.92026563084E+02 -0.79245919618E+02  0.68920669584E+03  0.25000000000E+03 0.  0.
    5000001    1    1    2    0    0  0.63067984390E+03 -0.92026563084E+02  0.44835607833E+03  0.81838201764E+03  0.25000000000E+03 0.  0.
<mgrwt>
<rscale>  0 0.14617050E+04</rscale>
<asrwt>0</asrwt>
<pdfrwt beam="1">  1        2 0.87575275E-01 0.14617050E+04</pdfrwt>
<pdfrwt beam="2">  1       -2 0.14436145E+00 0.14617050E+04</pdfrwt>
<totfact> 0.16960831E+01</totfact>
</mgrwt>
</event>
<event>
 4    1  0.1773996E-005  0.1693697E+04  0.7818608E-02  0.8764968E-01
          2   -1    0    0  501    0  0.00000000000E+00  0.00000000000E+00  0.21097955220E+04  0.21097955220E+04  0.25500000000E-02 0.  1.
         -2   -1    0    0    0  501 -0.00000000000E+00 -0.00000000000E+00 -0.33991545304E+03  0.33991545305E+03  0.25500000000E-02 0. -1.
   -5000001    1    1    2    0    0  0.50408878651E+03  0.61206344744E+03  0.11178231651E+04  0.13931101165E+04  0.25000000000E+03 0.  0.
    5000001    1    1    2    0    0 -0.50408878651E+03 -0.61206344744E+03  0.65205690392E+03  0.10566008586E+04  0.25000000000E+03 0.  0.
<mgrwt>
<rscale>  0 0.16936967E+04</rscale>
<asrwt>0</asrwt>
<pdfrwt beam="1">  1        2 0.32458393E+00 0.16936967E+04</pdfrwt>
<pdfrwt beam="2">  1       -2 0.52294685E-01 0.16936967E+04</pdfrwt>
<totfact> 0.19070540E+01</totfact>
</mgrwt>
</event>
<event>
 4    1  0.1773996E-005  0.7670786E+03  0.7818608E-02  0.9608931E-01
          2   -1    0    0  501    0  0.00000000000E+00  0.00000000000E+00  0.42863460586E+03  0.42863460586E+03  0.25500000000E-02 0.  1.
         -2   -1    0    0    0  501 -0.00000000000E+00 -0.00000000000E+00 -0.34318830759E+03  0.34318830760E+03  0.25500000000E-02 0. -1.
   -5000001    1    1    2    0    0 -0.76386970972E+02  0.22326428773E+03  0.21383516751E+03  0.40485477689E+03  0.25000000000E+03 0.  0.
    5000001    1    1    2    0    0  0.76386970972E+02 -0.22326428773E+03 -0.12838886924E+03  0.36696813657E+03  0.25000000000E+03 0.  0.
<mgrwt>
<rscale>  0 0.76707857E+03</rscale>
<asrwt>0</asrwt>
<pdfrwt beam="1">  1        2 0.65943786E-01 0.76707857E+03</pdfrwt>
<pdfrwt beam="2">  1       -2 0.52798201E-01 0.76707857E+03</pdfrwt>
<totfact> 0.25082123E+02</totfact>
</mgrwt>
</event>
<event>
 4    1  0.1773996E-005  0.8241410E+03  0.7818608E-02  0.9525717E-01
         -2   -1    0    0    0  501 -0.00000000000E+00  0.00000000000E+00  0.52798510908E+02  0.52798510969E+02  0.25500000000E-02 0. -1.
          2   -1    0    0  501    0  0.00000000000E+00 -0.00000000000E+00 -0.32160392779E+04  0.32160392779E+04  0.25500000000E-02 0.  1.
   -5000001    1    1    2    0    0 -0.28566839729E+03  0.13453051042E+03 -0.19273355724E+04  0.19689660484E+04  0.25000000000E+03 0.  0.
    5000001    1    1    2    0    0  0.28566839729E+03 -0.13453051042E+03 -0.12359051947E+04  0.12998717405E+04  0.25000000000E+03 0.  0.
<mgrwt>
<rscale>  0 0.82414097E+03</rscale>
<asrwt>0</asrwt>
<pdfrwt beam="1">  1        2 0.49477512E+00 0.82414097E+03</pdfrwt>
<pdfrwt beam="2">  1       -2 0.81228503E-02 0.82414097E+03</pdfrwt>
<totfact> 0.12814318E+02</totfact>
</mgrwt>
</event>
<event>
 4    1  0.1773996E-005  0.6367447E+03  0.7818608E-02  0.9831975E-01
          2   -1    0    0  501    0  0.00000000000E+00  0.00000000000E+00  0.43195224245E+03  0.43195224245E+03  0.25500000000E-02 0.  1.
         -2   -1    0    0    0  501 -0.00000000000E+00 -0.00000000000E+00 -0.23465775798E+03  0.23465775799E+03  0.25500000000E-02 0. -1.
   -5000001    1    1    2    0    0  0.12211288330E+03  0.77490729123E+02  0.23888762789E+03  0.37481151013E+03  0.25000000000E+03 0.  0.
    5000001    1    1    2    0    0 -0.12211288330E+03 -0.77490729123E+02 -0.41593143419E+02  0.29179849031E+03  0.25000000000E+03 0.  0.
<mgrwt>
<rscale>  0 0.63674467E+03</rscale>
<asrwt>0</asrwt>
<pdfrwt beam="1">  1        2 0.66454191E-01 0.63674467E+03</pdfrwt>
<pdfrwt beam="2">  1       -2 0.36101193E-01 0.63674467E+03</pdfrwt>
<totfact> 0.52990355E+02</totfact>
</mgrwt>
</event>
<event>
 4    1  0.1773996E-005  0.6924821E+03  0.7818608E-02  0.9730176E-01
          2   -1    0    0  501    0  0.00000000000E+00  0.00000000000E+00  0.17312620035E+04  0.17312620035E+04  0.25500000000E-02 0.  1.
         -2   -1    0    0    0  501 -0.00000000000E+00 -0.00000000000E+00 -0.69245933415E+02  0.69245933462E+02  0.25500000000E-02 0. -1.
   -5000001    1    1    2    0    0 -0.23868896658E+03  0.17022517324E+02  0.80244683556E+03  0.87388964565E+03  0.25000000000E+03 0.  0.
    5000001    1    1    2    0    0  0.23868896658E+03 -0.17022517324E+02  0.85956923451E+03  0.92661829131E+03  0.25000000000E+03 0.  0.
<mgrwt>
<rscale>  0 0.69248207E+03</rscale>
<asrwt>0</asrwt>
<pdfrwt beam="1">  1        2 0.26634798E+00 0.69248207E+03</pdfrwt>
<pdfrwt beam="2">  1       -2 0.10653221E-01 0.69248207E+03</pdfrwt>
<totfact> 0.59527198E+02</totfact>
</mgrwt>
</event>
<event>
 4    1  0.1773996E-005  0.7847104E+03  0.7818608E-02  0.9582416E-01
         -2   -1    0    0    0  501 -0.00000000000E+00  0.00000000000E+00  0.66988145568E+02  0.66988145616E+02  0.25500000000E-02 0. -1.
          2   -1    0    0  501    0  0.00000000000E+00 -0.00000000000E+00 -0.22980575070E+04  0.22980575070E+04  0.25500000000E-02 0.  1.
   -5000001    1    1    2    0    0 -0.16306154039E+02 -0.28914160543E+03 -0.13778287808E+04  0.14299583588E+04  0.25000000000E+03 0.  0.
    5000001    1    1    2    0    0  0.16306154039E+02  0.28914160543E+03 -0.85324058061E+03  0.93508729381E+03  0.25000000000E+03 0.  0.
<mgrwt>
<rscale>  0 0.78471042E+03</rscale>
<asrwt>0</asrwt>
<pdfrwt beam="1">  1        2 0.35354725E+00 0.78471042E+03</pdfrwt>
<pdfrwt beam="2">  1       -2 0.10305870E-01 0.78471042E+03</pdfrwt>
<totfact> 0.30555142E+02</totfact>
</mgrwt>
</event>
<event>
 4    1  0.1773996E-005  0.6605918E+03  0.7818608E-02  0.9787105E-01
         -2   -1    0    0    0  501 -0.00000000000E+00  0.00000000000E+00  0.56087210619E+02  0.56087210677E+02  0.25500000000E-02 0. -1.
          2   -1    0    0  501    0  0.00000000000E+00 -0.00000000000E+00 -0.19451028740E+04  0.19451028740E+04  0.25500000000E-02 0.  1.
   -5000001    1    1    2    0    0  0.75107006729E+02  0.11915347367E+03 -0.44897540733E+03  0.53283912125E+03  0.25000000000E+03 0.  0.
    5000001    1    1    2    0    0 -0.75107006729E+02 -0.11915347367E+03 -0.14400402560E+04  0.14683509634E+04  0.25000000000E+03 0.  0.
<mgrwt>
<rscale>  0 0.66059184E+03</rscale>
<asrwt>0</asrwt>
<pdfrwt beam="1">  1        2 0.29924654E+00 0.66059184E+03</pdfrwt>
<pdfrwt beam="2">  1       -2 0.86288031E-02 0.66059184E+03</pdfrwt>
<totfact> 0.64224849E+02</totfact>
</mgrwt>
</event>
<event>
 4    1  0.1773996E-005  0.6963484E+03  0.7818608E-02  0.9723497E-01
         -2   -1    0    0    0  501 -0.00000000000E+00  0.00000000000E+00  0.75518400421E+02  0.75518400464E+02  0.25500000000E-02 0.  1.
          2   -1    0    0  501    0  0.00000000000E+00 -0.00000000000E+00 -0.16052414435E+04  0.16052414435E+04  0.25500000000E-02 0. -1.
   -5000001    1    1    2    0    0 -0.49621964937E+02 -0.22840870481E+03 -0.91926874663E+03  0.98091177196E+03  0.25000000000E+03 0.  0.
    5000001    1    1    2    0    0  0.49621964937E+02  0.22840870481E+03 -0.61045429645E+03  0.69984807200E+03  0.25000000000E+03 0.  0.
<mgrwt>
<rscale>  0 0.69634838E+03</rscale>
<asrwt>0</asrwt>
<pdfrwt beam="1">  1        2 0.24696020E+00 0.69634838E+03</pdfrwt>
<pdfrwt beam="2">  1       -2 0.11618217E-01 0.69634838E+03</pdfrwt>
<totfact> 0.60500995E+02</totfact>
</mgrwt>
</event>
<event>
 4    1  0.1773996E-005  0.6518545E+03  0.7818608E-02  0.9803306E-01
          2   -1    0    0  501    0  0.00000000000E+00  0.00000000000E+00  0.12488774920E+04  0.12488774920E+04  0.25500000000E-02 0. -1.
         -2   -1    0    0    0  501 -0.00000000000E+00 -0.00000000000E+00 -0.85059230609E+02  0.85059230648E+02  0.25500000000E-02 0.  1.
   -5000001    1    1    2    0    0  0.12193530888E+03 -0.80541067820E+02  0.27581759898E+03  0.39991302937E+03  0.25000000000E+03 0.  0.
    5000001    1    1    2    0    0 -0.12193530888E+03  0.80541067820E+02  0.88800066243E+03  0.93402369330E+03  0.25000000000E+03 0.  0.
<mgrwt>
<rscale>  0 0.65185446E+03</rscale>
<asrwt>0</asrwt>
<pdfrwt beam="1">  1        2 0.19213499E+00 0.65185446E+03</pdfrwt>
<pdfrwt beam="2">  1       -2 0.13086036E-01 0.65185446E+03</pdfrwt>
<totfact> 0.78984115E+02</totfact>
</mgrwt>
</event>
<event>
 4    1  0.1773996E-005  0.5737784E+03  0.7818608E-02  0.9961352E-01
         -2   -1    0    0    0  501 -0.00000000000E+00  0.00000000000E+00  0.36786903077E+02  0.36786903165E+02  0.25500000000E-02 0. -1.
          2   -1    0    0  501    0  0.00000000000E+00 -0.00000000000E+00 -0.22373562138E+04  0.22373562138E+04  0.25500000000E-02 0.  1.
   -5000001    1    1    2    0    0  0.11938531452E+03 -0.73138320273E+02 -0.10437670131E+04  0.10823823931E+04  0.25000000000E+03 0.  0.
    5000001    1    1    2    0    0 -0.11938531452E+03  0.73138320273E+02 -0.11568022977E+04  0.11917607239E+04  0.25000000000E+03 0.  0.
<mgrwt>
<rscale>  0 0.57377838E+03</rscale>
<asrwt>0</asrwt>
<pdfrwt beam="1">  1        2 0.34420854E+00 0.57377838E+03</pdfrwt>
<pdfrwt beam="2">  1       -2 0.56595253E-02 0.57377838E+03</pdfrwt>
<totfact> 0.87298034E+02</totfact>
</mgrwt>
</event>
<event>
 4    1  0.1773996E-005  0.9677982E+03  0.7818608E-02  0.9344586E-01
          2   -1    0    0  501    0  0.00000000000E+00  0.00000000000E+00  0.80641864795E+03  0.80641864796E+03  0.25500000000E-02 0.  1.
         -2   -1    0    0    0  501 -0.00000000000E+00 -0.00000000000E+00 -0.29036820289E+03  0.29036820290E+03  0.25500000000E-02 0. -1.
   -5000001    1    1    2    0    0 -0.12997686944E+02  0.39057332739E+03  0.41399801657E+03  0.62178036448E+03  0.25000000000E+03 0.  0.
    5000001    1    1    2    0    0  0.12997686944E+02 -0.39057332739E+03  0.10205242850E+03  0.47500648637E+03  0.25000000000E+03 0.  0.
<mgrwt>
<rscale>  0 0.96779819E+03</rscale>
<asrwt>0</asrwt>
<pdfrwt beam="1">  1        2 0.12406441E+00 0.96779819E+03</pdfrwt>
<pdfrwt beam="2">  1       -2 0.44672032E-01 0.96779819E+03</pdfrwt>
<totfact> 0.16189848E+02</totfact>
</mgrwt>
</event>
<event>
 4    1  0.1773996E-005  0.7217814E+03  0.7818608E-02  0.9680692E-01
          2   -1    0    0  501    0  0.00000000000E+00  0.00000000000E+00  0.82829957971E+03  0.82829957971E+03  0.25500000000E-02 0.  1.
         -2   -1    0    0    0  501 -0.00000000000E+00 -0.00000000000E+00 -0.15724030699E+03  0.15724030701E+03  0.25500000000E-02 0. -1.
   -5000001    1    1    2    0    0 -0.82215916968E+02 -0.19247921993E+03  0.54677129865E+03  0.63660549804E+03  0.25000000000E+03 0.  0.
    5000001    1    1    2    0    0  0.82215916968E+02  0.19247921993E+03  0.12428797407E+03  0.34893438868E+03  0.25000000000E+03 0.  0.
<mgrwt>
<rscale>  0 0.72178135E+03</rscale>
<asrwt>0</asrwt>
<pdfrwt beam="1">  1        2 0.12743070E+00 0.72178135E+03</pdfrwt>
<pdfrwt beam="2">  1       -2 0.24190817E-01 0.72178135E+03</pdfrwt>
<totfact> 0.50299736E+02</totfact>
</mgrwt>
</event>
<event>
 4    1  0.1773996E-005  0.6915021E+03  0.7818608E-02  0.9731876E-01
         -2   -1    0    0    0  501 -0.00000000000E+00  0.00000000000E+00  0.73236549517E+02  0.73236549561E+02  0.25500000000E-02 0. -1.
          2   -1    0    0  501    0  0.00000000000E+00 -0.00000000000E+00 -0.16322968186E+04  0.16322968186E+04  0.25500000000E-02 0.  1.
   -5000001    1    1    2    0    0 -0.19301058714E+03  0.13859489592E+03 -0.83903959291E+03  0.90716540410E+03  0.25000000000E+03 0.  0.
    5000001    1    1    2    0    0  0.19301058714E+03 -0.13859489592E+03 -0.72002067618E+03  0.79836796407E+03  0.25000000000E+03 0.  0.
<mgrwt>
<rscale>  0 0.69150209E+03</rscale>
<asrwt>0</asrwt>
<pdfrwt beam="1">  1        2 0.25112256E+00 0.69150209E+03</pdfrwt>
<pdfrwt beam="2">  1       -2 0.11267163E-01 0.69150209E+03</pdfrwt>
<totfact> 0.61510835E+02</totfact>
</mgrwt>
</event>
<event>
 4    1  0.1773996E-005  0.1610140E+04  0.7818608E-02  0.8814343E-01
         -2   -1    0    0    0  501 -0.00000000000E+00  0.00000000000E+00  0.74097489432E+03  0.74097489432E+03  0.25500000000E-02 0. -1.
          2   -1    0    0  501    0  0.00000000000E+00 -0.00000000000E+00 -0.87470952588E+03  0.87470952588E+03  0.25500000000E-02 0.  1.
   -5000001    1    1    2    0    0  0.74465820853E+03 -0.15023363167E+03  0.25927093026E+02  0.80016136233E+03  0.25000000000E+03 0.  0.
    5000001    1    1    2    0    0 -0.74465820853E+03  0.15023363167E+03 -0.15966172459E+03  0.81552305787E+03  0.25000000000E+03 0.  0.
<mgrwt>
<rscale>  0 0.16101401E+04</rscale>
<asrwt>0</asrwt>
<pdfrwt beam="1">  1        2 0.13457070E+00 0.16101401E+04</pdfrwt>
<pdfrwt beam="2">  1       -2 0.11399614E+00 0.16101401E+04</pdfrwt>
<totfact> 0.17612611E+01</totfact>
</mgrwt>
</event>
<event>
 4    1  0.1773996E-005  0.9524937E+03  0.7818608E-02  0.9362241E-01
         -2   -1    0    0    0  501 -0.00000000000E+00  0.00000000000E+00  0.29841457216E+03  0.29841457217E+03  0.25500000000E-02 0. -1.
          2   -1    0    0  501    0  0.00000000000E+00 -0.00000000000E+00 -0.76005362198E+03  0.76005362198E+03  0.25500000000E-02 0.  1.
   -5000001    1    1    2    0    0 -0.13579435798E+03 -0.24998359229E+03 -0.55170087546E+03  0.66918290479E+03  0.25000000000E+03 0.  0.
    5000001    1    1    2    0    0  0.13579435798E+03  0.24998359229E+03  0.90061825646E+02  0.38928528936E+03  0.25000000000E+03 0.  0.
<mgrwt>
<rscale>  0 0.95249373E+03</rscale>
<asrwt>0</asrwt>
<pdfrwt beam="1">  1        2 0.11693133E+00 0.95249373E+03</pdfrwt>
<pdfrwt beam="2">  1       -2 0.45909934E-01 0.95249373E+03</pdfrwt>
<totfact> 0.16588595E+02</totfact>
</mgrwt>
</event>
<event>
 4    1  0.1773996E-005  0.6204806E+03  0.7818608E-02  0.9863803E-01
         -2   -1    0    0    0  501 -0.00000000000E+00  0.00000000000E+00  0.49688392060E+03  0.49688392061E+03  0.25500000000E-02 0. -1.
          2   -1    0    0  501    0  0.00000000000E+00 -0.00000000000E+00 -0.19370531988E+03  0.19370531989E+03  0.25500000000E-02 0.  1.
   -5000001    1    1    2    0    0  0.13789725857E+03 -0.94359283266E+02  0.66609480381E+02  0.30798725807E+03  0.25000000000E+03 0.  0.
    5000001    1    1    2    0    0 -0.13789725857E+03  0.94359283266E+02  0.23656912035E+03  0.38260198243E+03  0.25000000000E+03 0.  0.
<mgrwt>
<rscale>  0 0.62048065E+03</rscale>
<asrwt>0</asrwt>
<pdfrwt beam="1">  1        2 0.29800819E-01 0.62048065E+03</pdfrwt>
<pdfrwt beam="2">  1       -2 0.76443678E-01 0.62048065E+03</pdfrwt>
<totfact> 0.27740098E+02</totfact>
</mgrwt>
</event>
<event>
 4    1  0.1773996E-005  0.6221839E+03  0.7818608E-02  0.9860421E-01
         -2   -1    0    0    0  501 -0.00000000000E+00  0.00000000000E+00  0.71390507862E+03  0.71390507862E+03  0.25500000000E-02 0. -1.
          2   -1    0    0  501    0  0.00000000000E+00 -0.00000000000E+00 -0.13556170456E+03  0.13556170458E+03  0.25500000000E-02 0.  1.
   -5000001    1    1    2    0    0  0.37513972305E+02 -0.18097825489E+03  0.30398769365E+03  0.43482058915E+03  0.25000000000E+03 0.  0.
    5000001    1    1    2    0    0 -0.37513972305E+02  0.18097825489E+03  0.27435568042E+03  0.41464619405E+03  0.25000000000E+03 0.  0.
<mgrwt>
<rscale>  0 0.62218386E+03</rscale>
<asrwt>0</asrwt>
<pdfrwt beam="1">  1        2 0.20855647E-01 0.62218386E+03</pdfrwt>
<pdfrwt beam="2">  1       -2 0.10983155E+00 0.62218386E+03</pdfrwt>
<totfact> 0.18061141E+02</totfact>
</mgrwt>
</event>
<event>
 4    1  0.1773996E-005  0.1117341E+04  0.7818608E-02  0.9188453E-01
         -2   -1    0    0    0  501 -0.00000000000E+00  0.00000000000E+00  0.55941246030E+03  0.55941246031E+03  0.25500000000E-02 0. -1.
          2   -1    0    0  501    0  0.00000000000E+00 -0.00000000000E+00 -0.55792929786E+03  0.55792929787E+03  0.25500000000E-02 0.  1.
   -5000001    1    1    2    0    0  0.16815842608E+03 -0.33669398280E+03  0.32933357310E+03  0.55910705298E+03  0.25000000000E+03 0.  0.
    5000001    1    1    2    0    0 -0.16815842608E+03  0.33669398280E+03 -0.32785041067E+03  0.55823470520E+03  0.25000000000E+03 0.  0.
<mgrwt>
<rscale>  0 0.11173408E+04</rscale>
<asrwt>0</asrwt>
<pdfrwt beam="1">  1        2 0.85835276E-01 0.11173408E+04</pdfrwt>
<pdfrwt beam="2">  1       -2 0.86063456E-01 0.11173408E+04</pdfrwt>
<totfact> 0.62904782E+01</totfact>
</mgrwt>
</event>
<event>
 4    1  0.1773996E-005  0.7568007E+03  0.7818608E-02  0.9624741E-01
          2   -1    0    0  501    0  0.00000000000E+00  0.00000000000E+00  0.92228310910E+02  0.92228310945E+02  0.25500000000E-02 0.  1.
         -2   -1    0    0    0  501 -0.00000000000E+00 -0.00000000000E+00 -0.15525259095E+04  0.15525259095E+04  0.25500000000E-02 0. -1.
   -5000001    1    1    2    0    0  0.10597017883E+03 -0.20122013847E+03 -0.11000415847E+04  0.11507869964E+04  0.25000000000E+03 0.  0.
    5000001    1    1    2    0    0 -0.10597017883E+03  0.20122013847E+03 -0.36025601389E+03  0.49396722409E+03  0.25000000000E+03 0.  0.
<mgrwt>
<rscale>  0 0.75680075E+03</rscale>
<asrwt>0</asrwt>
<pdfrwt beam="1">  1        2 0.14188972E-01 0.75680075E+03</pdfrwt>
<pdfrwt beam="2">  1       -2 0.23885012E+00 0.75680075E+03</pdfrwt>
<totfact> 0.33110666E+01</totfact>
</mgrwt>
</event>
<event>
 4    1  0.1773996E-005  0.6659250E+03  0.7818608E-02  0.9777347E-01
         -2   -1    0    0    0  501 -0.00000000000E+00  0.00000000000E+00  0.27639064305E+03  0.27639064307E+03  0.25500000000E-02 0. -1.
          2   -1    0    0  501    0  0.00000000000E+00 -0.00000000000E+00 -0.40111355483E+03  0.40111355484E+03  0.25500000000E-02 0.  1.
   -5000001    1    1    2    0    0  0.18168806651E+03 -0.73688789257E+01  0.63479128723E+02  0.31558588953E+03  0.25000000000E+03 0.  0.
    5000001    1    1    2    0    0 -0.18168806651E+03  0.73688789257E+01 -0.18820204050E+03  0.36191830837E+03  0.25000000000E+03 0.  0.
<mgrwt>
<rscale>  0 0.66592502E+03</rscale>
<asrwt>0</asrwt>
<pdfrwt beam="1">  1        2 0.61709778E-01 0.66592502E+03</pdfrwt>
<pdfrwt beam="2">  1       -2 0.42521637E-01 0.66592502E+03</pdfrwt>
<totfact> 0.41914064E+02</totfact>
</mgrwt>
</event>
<event>
 4    1  0.1773996E-005  0.1298253E+04  0.7818608E-02  0.9030951E-01
         -2   -1    0    0    0  501 -0.00000000000E+00  0.00000000000E+00  0.32568030653E+03  0.32568030654E+03  0.25500000000E-02 0. -1.
          2   -1    0    0  501    0  0.00000000000E+00 -0.00000000000E+00 -0.12938006140E+04  0.12938006140E+04  0.25500000000E-02 0.  1.
   -5000001    1    1    2    0    0  0.34813337896E+03 -0.46513013205E+03 -0.66621275921E+03  0.91863068195E+03  0.25000000000E+03 0.  0.
    5000001    1    1    2    0    0 -0.34813337896E+03  0.46513013205E+03 -0.30190754830E+03  0.70085023864E+03  0.25000000000E+03 0.  0.
<mgrwt>
<rscale>  0 0.12982533E+04</rscale>
<asrwt>0</asrwt>
<pdfrwt beam="1">  1        2 0.19904624E+00 0.12982533E+04</pdfrwt>
<pdfrwt beam="2">  1       -2 0.50104663E-01 0.12982533E+04</pdfrwt>
<totfact> 0.61559718E+01</totfact>
</mgrwt>
</event>
<event>
 4    1  0.1773996E-005  0.1323439E+04  0.7818608E-02  0.9011181E-01
         -2   -1    0    0    0  501 -0.00000000000E+00  0.00000000000E+00  0.75432098985E+03  0.75432098986E+03  0.25500000000E-02 0. -1.
          2   -1    0    0  501    0  0.00000000000E+00 -0.00000000000E+00 -0.58048628554E+03  0.58048628554E+03  0.25500000000E-02 0.  1.
   -5000001    1    1    2    0    0  0.53940043523E+03  0.42430297389E+02  0.37682297544E+03  0.70515864491E+03  0.25000000000E+03 0.  0.
    5000001    1    1    2    0    0 -0.53940043523E+03 -0.42430297389E+02 -0.20298827113E+03  0.62964863049E+03  0.25000000000E+03 0.  0.
<mgrwt>
<rscale>  0 0.13234394E+04</rscale>
<asrwt>0</asrwt>
<pdfrwt beam="1">  1        2 0.89305582E-01 0.13234394E+04</pdfrwt>
<pdfrwt beam="2">  1       -2 0.11604938E+00 0.13234394E+04</pdfrwt>
<totfact> 0.29125308E+01</totfact>
</mgrwt>
</event>
<event>
 4    1  0.1773996E-005  0.6256633E+03  0.7818608E-02  0.9853548E-01
          2   -1    0    0  501    0  0.00000000000E+00  0.00000000000E+00  0.48898006892E+03  0.48898006893E+03  0.25500000000E-02 0.  1.
         -2   -1    0    0    0  501 -0.00000000000E+00 -0.00000000000E+00 -0.20013828951E+03  0.20013828953E+03  0.25500000000E-02 0. -1.
   -5000001    1    1    2    0    0  0.17171991758E+03 -0.73039441133E+02  0.17004269929E+03  0.35529847964E+03  0.25000000000E+03 0.  0.
    5000001    1    1    2    0    0 -0.17171991758E+03  0.73039441133E+02  0.11879908011E+03  0.33381987881E+03  0.25000000000E+03 0.  0.
<mgrwt>
<rscale>  0 0.62566328E+03</rscale>
<asrwt>0</asrwt>
<pdfrwt beam="1">  1        2 0.75227702E-01 0.62566328E+03</pdfrwt>
<pdfrwt beam="2">  1       -2 0.30790506E-01 0.62566328E+03</pdfrwt>
<totfact> 0.62092672E+02</totfact>
</mgrwt>
</event>
<event>
 4    1  0.1773996E-005  0.5520888E+03  0.7818608E-02  0.1001012E+00
          2   -1    0    0  501    0  0.00000000000E+00  0.00000000000E+00  0.26483649877E+04  0.26483649877E+04  0.25500000000E-02 0.  1.
         -2   -1    0    0    0  501 -0.00000000000E+00 -0.00000000000E+00 -0.28772665164E+02  0.28772665277E+02  0.25500000000E-02 0. -1.
   -5000001    1    1    2    0    0  0.81950487840E+02  0.44103309208E+02  0.16540327008E+04  0.16754059686E+04  0.25000000000E+03 0.  0.
    5000001    1    1    2    0    0 -0.81950487840E+02 -0.44103309208E+02  0.96555962175E+03  0.10017316844E+04  0.25000000000E+03 0.  0.
<mgrwt>
<rscale>  0 0.55208883E+03</rscale>
<asrwt>0</asrwt>
<pdfrwt beam="1">  1        2 0.40744091E+00 0.55208883E+03</pdfrwt>
<pdfrwt beam="2">  1       -2 0.44265623E-02 0.55208883E+03</pdfrwt>
<totfact> 0.75419193E+02</totfact>
</mgrwt>
</event>
<event>
 4    1  0.1773996E-005  0.1089163E+04  0.7818608E-02  0.9215819E-01
         -2   -1    0    0    0  501 -0.00000000000E+00  0.00000000000E+00  0.33885008314E+03  0.33885008315E+03  0.25500000000E-02 0. -1.
          2   -1    0    0  501    0  0.00000000000E+00 -0.00000000000E+00 -0.87522176419E+03  0.87522176419E+03  0.25500000000E-02 0.  1.
   -5000001    1    1    2    0    0  0.41257322695E+03 -0.95974078906E+02 -0.76233137362E+01  0.49192052847E+03  0.25000000000E+03 0.  0.
    5000001    1    1    2    0    0 -0.41257322695E+03  0.95974078906E+02 -0.52874836731E+03  0.72215131887E+03  0.25000000000E+03 0.  0.
<mgrwt>
<rscale>  0 0.10891629E+04</rscale>
<asrwt>0</asrwt>
<pdfrwt beam="1">  1        2 0.13464950E+00 0.10891629E+04</pdfrwt>
<pdfrwt beam="2">  1       -2 0.52130782E-01 0.10891629E+04</pdfrwt>
<totfact> 0.10521331E+02</totfact>
</mgrwt>
</event>
<event>
 4    1  0.1773996E-005  0.5861154E+03  0.7818608E-02  0.9934638E-01
          2   -1    0    0  501    0  0.00000000000E+00  0.00000000000E+00  0.53084757712E+03  0.53084757712E+03  0.25500000000E-02 0.  1.
         -2   -1    0    0    0  501 -0.00000000000E+00 -0.00000000000E+00 -0.16178434795E+03  0.16178434797E+03  0.25500000000E-02 0. -1.
   -5000001    1    1    2    0    0  0.12259043298E+03 -0.41070260231E+02  0.28102681004E+03  0.39773263444E+03  0.25000000000E+03 0.  0.
    5000001    1    1    2    0    0 -0.12259043298E+03  0.41070260231E+02  0.88036419126E+02  0.29489929065E+03  0.25000000000E+03 0.  0.
<mgrwt>
<rscale>  0 0.58611545E+03</rscale>
<asrwt>0</asrwt>
<pdfrwt beam="1">  1        2 0.81668857E-01 0.58611545E+03</pdfrwt>
<pdfrwt beam="2">  1       -2 0.24889900E-01 0.58611545E+03</pdfrwt>
<totfact> 0.83314313E+02</totfact>
</mgrwt>
</event>
<event>
 4    1  0.1773996E-005  0.6700233E+03  0.7818608E-02  0.9769916E-01
          2   -1    0    0  501    0  0.00000000000E+00  0.00000000000E+00  0.16659591833E+04  0.16659591833E+04  0.25500000000E-02 0.  1.
         -2   -1    0    0    0  501 -0.00000000000E+00 -0.00000000000E+00 -0.67368274501E+02  0.67368274549E+02  0.25500000000E-02 0. -1.
   -5000001    1    1    2    0    0  0.17031068857E+03  0.72061458861E+01  0.42731945208E+03  0.52360249551E+03  0.25000000000E+03 0.  0.
    5000001    1    1    2    0    0 -0.17031068857E+03 -0.72061458861E+01  0.11712714567E+04  0.12097249624E+04  0.25000000000E+03 0.  0.
<mgrwt>
<rscale>  0 0.67002327E+03</rscale>
<asrwt>0</asrwt>
<pdfrwt beam="1">  1        2 0.25630141E+00 0.67002327E+03</pdfrwt>
<pdfrwt beam="2">  1       -2 0.10364350E-01 0.67002327E+03</pdfrwt>
<totfact> 0.67672911E+02</totfact>
</mgrwt>
</event>
<event>
 4    1  0.1773996E-005  0.1874496E+04  0.7818608E-02  0.8667657E-01
         -2   -1    0    0    0  501 -0.00000000000E+00  0.00000000000E+00  0.91639280377E+03  0.91639280377E+03  0.25500000000E-02 0. -1.
          2   -1    0    0  501    0  0.00000000000E+00 -0.00000000000E+00 -0.95857761160E+03  0.95857761161E+03  0.25500000000E-02 0.  1.
   -5000001    1    1    2    0    0 -0.28992992554E+03 -0.72509944484E+03  0.43301049412E+03  0.92726838329E+03  0.25000000000E+03 0.  0.
    5000001    1    1    2    0    0  0.28992992554E+03  0.72509944484E+03 -0.47519530195E+03  0.94770203209E+03  0.25000000000E+03 0.  0.
<mgrwt>
<rscale>  0 0.18744958E+04</rscale>
<asrwt>0</asrwt>
<pdfrwt beam="1">  1        2 0.14747348E+00 0.18744958E+04</pdfrwt>
<pdfrwt beam="2">  1       -2 0.14098351E+00 0.18744958E+04</pdfrwt>
<totfact> 0.88689888E+00</totfact>
</mgrwt>
</event>
<event>
 4    1  0.1773996E-005  0.9324447E+03  0.7818608E-02  0.9385909E-01
         -2   -1    0    0    0  501 -0.00000000000E+00  0.00000000000E+00  0.15903242634E+03  0.15903242636E+03  0.25500000000E-02 0. -1.
          2   -1    0    0  501    0  0.00000000000E+00 -0.00000000000E+00 -0.13667859309E+04  0.13667859309E+04  0.25500000000E-02 0.  1.
   -5000001    1    1    2    0    0 -0.22455870572E+03  0.25779476200E+03 -0.28498092962E+03  0.51048886557E+03  0.25000000000E+03 0.  0.
    5000001    1    1    2    0    0  0.22455870572E+03 -0.25779476200E+03 -0.92277257493E+03  0.10153294917E+04  0.25000000000E+03 0.  0.
<mgrwt>
<rscale>  0 0.93244471E+03</rscale>
<asrwt>0</asrwt>
<pdfrwt beam="1">  1        2 0.21027475E+00 0.93244471E+03</pdfrwt>
<pdfrwt beam="2">  1       -2 0.24466528E-01 0.93244471E+03</pdfrwt>
<totfact> 0.22563167E+02</totfact>
</mgrwt>
</event>
<event>
 4    1  0.1773996E-005  0.7201636E+03  0.7818608E-02  0.9683358E-01
         -2   -1    0    0    0  501 -0.00000000000E+00  0.00000000000E+00  0.17834196651E+03  0.17834196653E+03  0.25500000000E-02 0. -1.
          2   -1    0    0  501    0  0.00000000000E+00 -0.00000000000E+00 -0.72702400458E+03  0.72702400458E+03  0.25500000000E-02 0.  1.
   -5000001    1    1    2    0    0 -0.54201323178E+02 -0.21832821909E+03 -0.11259145010E+03  0.35465734071E+03  0.25000000000E+03 0.  0.
    5000001    1    1    2    0    0  0.54201323178E+02  0.21832821909E+03 -0.43609058797E+03  0.55070863040E+03  0.25000000000E+03 0.  0.
<mgrwt>
<rscale>  0 0.72016357E+03</rscale>
<asrwt>0</asrwt>
<pdfrwt beam="1">  1        2 0.11184985E+00 0.72016357E+03</pdfrwt>
<pdfrwt beam="2">  1       -2 0.27437226E-01 0.72016357E+03</pdfrwt>
<totfact> 0.47495215E+02</totfact>
</mgrwt>
</event>
<event>
 4    1  0.1773996E-005  0.6269111E+03  0.7818608E-02  0.9851095E-01
         -2   -1    0    0    0  501 -0.00000000000E+00  0.00000000000E+00  0.10969748799E+03  0.10969748802E+03  0.25500000000E-02 0. -1.
          2   -1    0    0  501    0  0.00000000000E+00 -0.00000000000E+00 -0.89568476313E+03  0.89568476313E+03  0.25500000000E-02 0.  1.
   -5000001    1    1    2    0    0  0.18340289553E+03  0.45052454210E+02 -0.40803970441E+03  0.51445383281E+03  0.25000000000E+03 0.  0.
    5000001    1    1    2    0    0 -0.18340289553E+03 -0.45052454210E+02 -0.37794757073E+03  0.49092841834E+03  0.25000000000E+03 0.  0.
<mgrwt>
<rscale>  0 0.62691106E+03</rscale>
<asrwt>0</asrwt>
<pdfrwt beam="1">  1        2 0.13779765E+00 0.62691106E+03</pdfrwt>
<pdfrwt beam="2">  1       -2 0.16876537E-01 0.62691106E+03</pdfrwt>
<totfact> 0.85149355E+02</totfact>
</mgrwt>
</event>
<event>
 4    1  0.1773996E-005  0.7303483E+03  0.7818608E-02  0.9666695E-01
         -2   -1    0    0    0  501 -0.00000000000E+00  0.00000000000E+00  0.11461585657E+04  0.11461585657E+04  0.25500000000E-02 0. -1.
          2   -1    0    0  501    0  0.00000000000E+00 -0.00000000000E+00 -0.11634705695E+03  0.11634705698E+03  0.25500000000E-02 0.  1.
   -5000001    1    1    2    0    0 -0.22679970955E+03  0.94538745068E+02  0.33797177580E+03  0.48692977297E+03  0.25000000000E+03 0.  0.
    5000001    1    1    2    0    0  0.22679970955E+03 -0.94538745068E+02  0.69183973297E+03  0.77557584973E+03  0.25000000000E+03 0.  0.
<mgrwt>
<rscale>  0 0.73034834E+03</rscale>
<asrwt>0</asrwt>
<pdfrwt beam="1">  1        2 0.17899548E-01 0.73034834E+03</pdfrwt>
<pdfrwt beam="2">  1       -2 0.17633208E+00 0.73034834E+03</pdfrwt>
<totfact> 0.63239095E+01</totfact>
</mgrwt>
</event>
<event>
 4    1  0.1773996E-005  0.9116265E+03  0.7818608E-02  0.9411163E-01
         -2   -1    0    0    0  501 -0.00000000000E+00  0.00000000000E+00  0.33599235004E+03  0.33599235004E+03  0.25500000000E-02 0. -1.
          2   -1    0    0  501    0  0.00000000000E+00 -0.00000000000E+00 -0.61836439827E+03  0.61836439827E+03  0.25500000000E-02 0.  1.
   -5000001    1    1    2    0    0 -0.89803910307E+02 -0.36534293547E+03 -0.20508389231E+03  0.49608427277E+03  0.25000000000E+03 0.  0.
    5000001    1    1    2    0    0  0.89803910307E+02  0.36534293547E+03 -0.77288155918E+02  0.45827247555E+03  0.25000000000E+03 0.  0.
<mgrwt>
<rscale>  0 0.91162647E+03</rscale>
<asrwt>0</asrwt>
<pdfrwt beam="1">  1        2 0.95132984E-01 0.91162647E+03</pdfrwt>
<pdfrwt beam="2">  1       -2 0.51691131E-01 0.91162647E+03</pdfrwt>
<totfact> 0.16949331E+02</totfact>
</mgrwt>
</event>
<event>
 4    1  0.1773996E-005  0.5396917E+03  0.7818608E-02  0.1003908E+00
         -2   -1    0    0    0  501 -0.00000000000E+00  0.00000000000E+00  0.59252949513E+02  0.59252949568E+02  0.25500000000E-02 0. -1.
          2   -1    0    0  501    0  0.00000000000E+00 -0.00000000000E+00 -0.12289140602E+04  0.12289140602E+04  0.25500000000E-02 0.  1.
   -5000001    1    1    2    0    0  0.96323925914E+02 -0.15184921716E+02 -0.65267368006E+03  0.70568534999E+03  0.25000000000E+03 0.  0.
    5000001    1    1    2    0    0 -0.96323925914E+02  0.15184921716E+02 -0.51698743062E+03  0.58248165977E+03  0.25000000000E+03 0.  0.
<mgrwt>
<rscale>  0 0.53969170E+03</rscale>
<asrwt>0</asrwt>
<pdfrwt beam="1">  1        2 0.18906368E+00 0.53969170E+03</pdfrwt>
<pdfrwt beam="2">  1       -2 0.91158393E-02 0.53969170E+03</pdfrwt>
<totfact> 0.14700930E+03</totfact>
</mgrwt>
</event>
<event>
 4    1  0.1773996E-005  0.9153178E+03  0.7818608E-02  0.9406633E-01
          2   -1    0    0  501    0  0.00000000000E+00  0.00000000000E+00  0.23206685124E+04  0.23206685124E+04  0.25500000000E-02 0.  1.
         -2   -1    0    0    0  501 -0.00000000000E+00 -0.00000000000E+00 -0.90254892209E+02  0.90254892245E+02  0.25500000000E-02 0. -1.
   -5000001    1    1    2    0    0 -0.43752413486E+02 -0.37671070986E+03  0.12624846818E+04  0.13417126385E+04  0.25000000000E+03 0.  0.
    5000001    1    1    2    0    0  0.43752413486E+02  0.37671070986E+03  0.96792893844E+03  0.10692107662E+04  0.25000000000E+03 0.  0.
<mgrwt>
<rscale>  0 0.91531784E+03</rscale>
<asrwt>0</asrwt>
<pdfrwt beam="1">  1        2 0.35702590E+00 0.91531784E+03</pdfrwt>
<pdfrwt beam="2">  1       -2 0.13885369E-01 0.91531784E+03</pdfrwt>
<totfact> 0.17912406E+02</totfact>
</mgrwt>
</event>
<event>
 4    1  0.1773996E-005  0.8299696E+03  0.7818608E-02  0.9517623E-01
          2   -1    0    0  501    0  0.00000000000E+00  0.00000000000E+00  0.21856983962E+04  0.21856983962E+04  0.25500000000E-02 0.  1.
         -2   -1    0    0    0  501 -0.00000000000E+00 -0.00000000000E+00 -0.78790546854E+02  0.78790546896E+02  0.25500000000E-02 0. -1.
   -5000001    1    1    2    0    0 -0.23319198061E+03 -0.22915190241E+03  0.90848168880E+03  0.99736055320E+03  0.25000000000E+03 0.  0.
    5000001    1    1    2    0    0  0.23319198061E+03  0.22915190241E+03  0.11984261605E+04  0.12671283899E+04  0.25000000000E+03 0.  0.
<mgrwt>
<rscale>  0 0.82996957E+03</rscale>
<asrwt>0</asrwt>
<pdfrwt beam="1">  1        2 0.33626125E+00 0.82996957E+03</pdfrwt>
<pdfrwt beam="2">  1       -2 0.12121624E-01 0.82996957E+03</pdfrwt>
<totfact> 0.26900751E+02</totfact>
</mgrwt>
</event>
<event>
 4    1  0.1773996E-005  0.6547869E+03  0.7818608E-02  0.9797838E-01
         -2   -1    0    0    0  501 -0.00000000000E+00  0.00000000000E+00  0.37089543189E+03  0.37089543190E+03  0.25500000000E-02 0. -1.
          2   -1    0    0  501    0  0.00000000000E+00 -0.00000000000E+00 -0.28899381150E+03  0.28899381151E+03  0.25500000000E-02 0.  1.
   -5000001    1    1    2    0    0  0.11907710793E+02  0.19414057463E+03  0.12438559550E+03  0.34030006268E+03  0.25000000000E+03 0.  0.
    5000001    1    1    2    0    0 -0.11907710793E+02 -0.19414057463E+03 -0.42483975110E+02  0.31958918072E+03  0.25000000000E+03 0.  0.
<mgrwt>
<rscale>  0 0.65478694E+03</rscale>
<asrwt>0</asrwt>
<pdfrwt beam="1">  1        2 0.44460586E-01 0.65478694E+03</pdfrwt>
<pdfrwt beam="2">  1       -2 0.57060836E-01 0.65478694E+03</pdfrwt>
<totfact> 0.33278571E+02</totfact>
</mgrwt>
</event>
<event>
 4    1  0.1773996E-005  0.2440001E+04  0.7818608E-02  0.8424678E-01
         -2   -1    0    0    0  501 -0.00000000000E+00  0.00000000000E+00  0.43008417753E+03  0.43008417754E+03  0.25500000000E-02 0. -1.
          2   -1    0    0  501    0  0.00000000000E+00 -0.00000000000E+00 -0.34607209467E+04  0.34607209467E+04  0.25500000000E-02 0.  1.
   -5000001    1    1    2    0    0 -0.10712356915E+04  0.48961086212E+03 -0.18287544865E+04  0.21895450840E+04  0.25000000000E+03 0.  0.
    5000001    1    1    2    0    0  0.10712356915E+04 -0.48961086212E+03 -0.12018822827E+04  0.17012600402E+04  0.25000000000E+03 0.  0.
<mgrwt>
<rscale>  0 0.24400011E+04</rscale>
<asrwt>0</asrwt>
<pdfrwt beam="1">  1        2 0.53241859E+00 0.24400011E+04</pdfrwt>
<pdfrwt beam="2">  1       -2 0.66166799E-01 0.24400011E+04</pdfrwt>
<totfact> 0.16330637E+00</totfact>
</mgrwt>
</event>
<event>
 4    1  0.1773996E-005  0.9444299E+03  0.7818608E-02  0.9371685E-01
         -2   -1    0    0    0  501 -0.00000000000E+00  0.00000000000E+00  0.22763140036E+03  0.22763140037E+03  0.25500000000E-02 0. -1.
          2   -1    0    0  501    0  0.00000000000E+00 -0.00000000000E+00 -0.97959674609E+03  0.97959674609E+03  0.25500000000E-02 0.  1.
   -5000001    1    1    2    0    0 -0.39634539582E+02 -0.33720350006E+03 -0.64777443613E+03  0.77290932023E+03  0.25000000000E+03 0.  0.
    5000001    1    1    2    0    0  0.39634539582E+02  0.33720350006E+03 -0.10419090960E+03  0.43431882624E+03  0.25000000000E+03 0.  0.
<mgrwt>
<rscale>  0 0.94442994E+03</rscale>
<asrwt>0</asrwt>
<pdfrwt beam="1">  1        2 0.15070719E+00 0.94442994E+03</pdfrwt>
<pdfrwt beam="2">  1       -2 0.35020216E-01 0.94442994E+03</pdfrwt>
<totfact> 0.19864170E+02</totfact>
</mgrwt>
</event>
<event>
 4    1  0.1773996E-005  0.1471166E+04  0.7818608E-02  0.8903857E-01
          2   -1    0    0  501    0  0.00000000000E+00  0.00000000000E+00  0.15262954624E+04  0.15262954624E+04  0.25500000000E-02 0.  1.
         -2   -1    0    0    0  501 -0.00000000000E+00 -0.00000000000E+00 -0.35450682264E+03  0.35450682265E+03  0.25500000000E-02 0. -1.
   -5000001    1    1    2    0    0  0.67685408583E+03 -0.12836145695E+03  0.66648735854E+03  0.99061269739E+03  0.25000000000E+03 0.  0.
    5000001    1    1    2    0    0 -0.67685408583E+03  0.12836145695E+03  0.50530128119E+03  0.89018958762E+03  0.25000000000E+03 0.  0.
<mgrwt>
<rscale>  0 0.14711657E+04</rscale>
<asrwt>0</asrwt>
<pdfrwt beam="1">  1        2 0.23481468E+00 0.14711657E+04</pdfrwt>
<pdfrwt beam="2">  1       -2 0.54539512E-01 0.14711657E+04</pdfrwt>
<totfact> 0.37573535E+01</totfact>
</mgrwt>
</event>
<event>
 4    1  0.1773996E-005  0.8888953E+03  0.7818608E-02  0.9439570E-01
         -2   -1    0    0    0  501 -0.00000000000E+00  0.00000000000E+00  0.69560464733E+02  0.69560464780E+02  0.25500000000E-02 0.  1.
          2   -1    0    0  501    0  0.00000000000E+00 -0.00000000000E+00 -0.28397410167E+04  0.28397410167E+04  0.25500000000E-02 0. -1.
   -5000001    1    1    2    0    0 -0.28618996554E+03 -0.14081981488E+03 -0.19823350287E+04  0.20233356327E+04  0.25000000000E+03 0.  0.
    5000001    1    1    2    0    0  0.28618996554E+03  0.14081981488E+03 -0.78784552327E+03  0.88596584876E+03  0.25000000000E+03 0.  0.
<mgrwt>
<rscale>  0 0.88889528E+03</rscale>
<asrwt>0</asrwt>
<pdfrwt beam="1">  1        2 0.43688314E+00 0.88889528E+03</pdfrwt>
<pdfrwt beam="2">  1       -2 0.10701612E-01 0.88889528E+03</pdfrwt>
<totfact> 0.13893072E+02</totfact>
</mgrwt>
</event>
<event>
 4    1  0.1773996E-005  0.6457453E+03  0.7818608E-02  0.9814796E-01
         -2   -1    0    0    0  501 -0.00000000000E+00  0.00000000000E+00  0.40794495973E+03  0.40794495974E+03  0.25500000000E-02 0. -1.
          2   -1    0    0  501    0  0.00000000000E+00 -0.00000000000E+00 -0.25554119589E+03  0.25554119590E+03  0.25500000000E-02 0.  1.
   -5000001    1    1    2    0    0  0.84528165962E+02 -0.44187956392E+02 -0.10945309902E+03  0.28909785059E+03  0.25000000000E+03 0.  0.
    5000001    1    1    2    0    0 -0.84528165962E+02  0.44187956392E+02  0.26185686286E+03  0.37438830505E+03  0.25000000000E+03 0.  0.
<mgrwt>
<rscale>  0 0.64574528E+03</rscale>
<asrwt>0</asrwt>
<pdfrwt beam="1">  1        2 0.39314030E-01 0.64574528E+03</pdfrwt>
<pdfrwt beam="2">  1       -2 0.62760763E-01 0.64574528E+03</pdfrwt>
<totfact> 0.31217507E+02</totfact>
</mgrwt>
</event>
<event>
 4    1  0.1773996E-005  0.7534674E+03  0.7818608E-02  0.9629926E-01
          2   -1    0    0  501    0  0.00000000000E+00  0.00000000000E+00  0.27866223339E+04  0.27866223339E+04  0.25500000000E-02 0.  1.
         -2   -1    0    0    0  501 -0.00000000000E+00 -0.00000000000E+00 -0.50932018078E+02  0.50932018142E+02  0.25500000000E-02 0. -1.
   -5000001    1    1    2    0    0  0.99368315400E+02  0.20658831326E+03  0.19852329223E+04  0.20140016258E+04  0.25000000000E+03 0.  0.
    5000001    1    1    2    0    0 -0.99368315400E+02 -0.20658831326E+03  0.75045739358E+03  0.82355272622E+03  0.25000000000E+03 0.  0.
<mgrwt>
<rscale>  0 0.75346745E+03</rscale>
<asrwt>0</asrwt>
<pdfrwt beam="1">  1        2 0.42871115E+00 0.75346745E+03</pdfrwt>
<pdfrwt beam="2">  1       -2 0.78356948E-02 0.75346745E+03</pdfrwt>
<totfact> 0.25093012E+02</totfact>
</mgrwt>
</event>
<event>
 4    1  0.1773996E-005  0.8207359E+03  0.7818608E-02  0.9530478E-01
         -2   -1    0    0    0  501 -0.00000000000E+00  0.00000000000E+00  0.68239748492E+03  0.68239748492E+03  0.25500000000E-02 0. -1.
          2   -1    0    0  501    0  0.00000000000E+00 -0.00000000000E+00 -0.24677968939E+03  0.24677968941E+03  0.25500000000E-02 0.  1.
   -5000001    1    1    2    0    0 -0.31824479480E+03 -0.19276164564E+02  0.14399874147E+03  0.42998483401E+03  0.25000000000E+03 0.  0.
    5000001    1    1    2    0    0  0.31824479480E+03  0.19276164564E+02  0.29161905406E+03  0.49919234031E+03  0.25000000000E+03 0.  0.
<mgrwt>
<rscale>  0 0.82073586E+03</rscale>
<asrwt>0</asrwt>
<pdfrwt beam="1">  1        2 0.37966106E-01 0.82073586E+03</pdfrwt>
<pdfrwt beam="2">  1       -2 0.10498423E+00 0.82073586E+03</pdfrwt>
<totfact> 0.10105178E+02</totfact>
</mgrwt>
</event>
<event>
 4    1  0.1773996E-005  0.6457893E+03  0.7818608E-02  0.9814712E-01
          2   -1    0    0  501    0  0.00000000000E+00  0.00000000000E+00  0.14656157779E+04  0.14656157779E+04  0.25500000000E-02 0.  1.
         -2   -1    0    0    0  501 -0.00000000000E+00 -0.00000000000E+00 -0.71137985741E+02  0.71137985786E+02  0.25500000000E-02 0. -1.
   -5000001    1    1    2    0    0  0.89840784077E+02  0.18352336498E+03  0.70428297495E+03  0.77476880473E+03  0.25000000000E+03 0.  0.
    5000001    1    1    2    0    0 -0.89840784077E+02 -0.18352336498E+03  0.69019481718E+03  0.76198495894E+03  0.25000000000E+03 0.  0.
<mgrwt>
<rscale>  0 0.64578930E+03</rscale>
<asrwt>0</asrwt>
<pdfrwt beam="1">  1        2 0.22547935E+00 0.64578930E+03</pdfrwt>
<pdfrwt beam="2">  1       -2 0.10944305E-01 0.64578930E+03</pdfrwt>
<totfact> 0.79926315E+02</totfact>
</mgrwt>
</event>
<event>
 4    1  0.1773996E-005  0.8405116E+03  0.7818608E-02  0.9503161E-01
          2   -1    0    0  501    0  0.00000000000E+00  0.00000000000E+00  0.69636218599E+03  0.69636218599E+03  0.25500000000E-02 0.  1.
         -2   -1    0    0    0  501 -0.00000000000E+00 -0.00000000000E+00 -0.25362514135E+03  0.25362514137E+03  0.25500000000E-02 0. -1.
   -5000001    1    1    2    0    0  0.22410259109E+03 -0.14254299557E+03  0.45730233530E+03  0.58494948738E+03  0.25000000000E+03 0.  0.
    5000001    1    1    2    0    0 -0.22410259109E+03  0.14254299557E+03 -0.14565290666E+02  0.36503783997E+03  0.25000000000E+03 0.  0.
<mgrwt>
<rscale>  0 0.84051165E+03</rscale>
<asrwt>0</asrwt>
<pdfrwt beam="1">  1        2 0.10713264E+00 0.84051165E+03</pdfrwt>
<pdfrwt beam="2">  1       -2 0.39019253E-01 0.84051165E+03</pdfrwt>
<totfact> 0.25721374E+02</totfact>
</mgrwt>
</event>
<event>
 4    1  0.1773996E-005  0.5608290E+03  0.7818608E-02  0.9990181E-01
         -2   -1    0    0    0  501 -0.00000000000E+00  0.00000000000E+00  0.46964170087E+02  0.46964170156E+02  0.25500000000E-02 0. -1.
          2   -1    0    0  501    0  0.00000000000E+00 -0.00000000000E+00 -0.16743037716E+04  0.16743037716E+04  0.25500000000E-02 0.  1.
   -5000001    1    1    2    0    0  0.43607552066E+02 -0.10772376216E+03 -0.97095463893E+03  0.10093358898E+04  0.25000000000E+03 0.  0.
    5000001    1    1    2    0    0 -0.43607552066E+02  0.10772376216E+03 -0.65638496256E+03  0.71193205196E+03  0.25000000000E+03 0.  0.
<mgrwt>
<rscale>  0 0.56082898E+03</rscale>
<asrwt>0</asrwt>
<pdfrwt beam="1">  1        2 0.25758515E+00 0.56082898E+03</pdfrwt>
<pdfrwt beam="2">  1       -2 0.72252583E-02 0.56082898E+03</pdfrwt>
<totfact> 0.12019017E+03</totfact>
</mgrwt>
</event>
<event>
 4    1  0.1773996E-005  0.7026475E+03  0.7818608E-02  0.9712715E-01
          2   -1    0    0  501    0  0.00000000000E+00  0.00000000000E+00  0.42576929769E+03  0.42576929770E+03  0.25500000000E-02 0. -1.
         -2   -1    0    0    0  501 -0.00000000000E+00 -0.00000000000E+00 -0.28989493431E+03  0.28989493433E+03  0.25500000000E-02 0.  1.
   -5000001    1    1    2    0    0 -0.17777911826E+03  0.21648050840E+02 -0.10507519673E+03  0.32498438418E+03  0.25000000000E+03 0.  0.
    5000001    1    1    2    0    0  0.17777911826E+03 -0.21648050840E+02  0.24094956011E+03  0.39067984784E+03  0.25000000000E+03 0.  0.
<mgrwt>
<rscale>  0 0.70264746E+03</rscale>
<asrwt>0</asrwt>
<pdfrwt beam="1">  1        2 0.65502969E-01 0.70264746E+03</pdfrwt>
<pdfrwt beam="2">  1       -2 0.44599221E-01 0.70264746E+03</pdfrwt>
<totfact> 0.35625943E+02</totfact>
</mgrwt>
</event>
<event>
 4    1  0.1773996E-005  0.6032419E+03  0.7818608E-02  0.9898703E-01
          2   -1    0    0  501    0  0.00000000000E+00  0.00000000000E+00  0.41203560284E+03  0.41203560284E+03  0.25500000000E-02 0.  1.
         -2   -1    0    0    0  501 -0.00000000000E+00 -0.00000000000E+00 -0.22079447602E+03  0.22079447604E+03  0.25500000000E-02 0. -1.
   -5000001    1    1    2    0    0 -0.16514903107E+03  0.26988468274E+02  0.11842634026E+03  0.32330694077E+03  0.25000000000E+03 0.  0.
    5000001    1    1    2    0    0  0.16514903107E+03 -0.26988468274E+02  0.72814786558E+02  0.30952313811E+03  0.25000000000E+03 0.  0.
<mgrwt>
<rscale>  0 0.60324186E+03</rscale>
<asrwt>0</asrwt>
<pdfrwt beam="1">  1        2 0.63390093E-01 0.60324186E+03</pdfrwt>
<pdfrwt beam="2">  1       -2 0.33968381E-01 0.60324186E+03</pdfrwt>
<totfact> 0.62772022E+02</totfact>
</mgrwt>
</event>
<event>
 4    1  0.1773996E-005  0.1365189E+04  0.7818608E-02  0.8979409E-01
         -2   -1    0    0    0  501 -0.00000000000E+00  0.00000000000E+00  0.40035001657E+04  0.40035001657E+04  0.25500000000E-02 0. -1.
          2   -1    0    0  501    0  0.00000000000E+00 -0.00000000000E+00 -0.11638191862E+03  0.11638191865E+03  0.25500000000E-02 0.  1.
   -5000001    1    1    2    0    0 -0.49198464761E+03  0.33690399513E+03  0.12832040753E+04  0.14368945314E+04  0.25000000000E+03 0.  0.
    5000001    1    1    2    0    0  0.49198464761E+03 -0.33690399513E+03  0.26039141718E+04  0.26829875530E+04  0.25000000000E+03 0.  0.
<mgrwt>
<rscale>  0 0.13651887E+04</rscale>
<asrwt>0</asrwt>
<pdfrwt beam="1">  1        2 0.17904912E-01 0.13651887E+04</pdfrwt>
<pdfrwt beam="2">  1       -2 0.61592304E+00 0.13651887E+04</pdfrwt>
<totfact> 0.13748224E-01</totfact>
</mgrwt>
</event>
<event>
 4    1  0.1773996E-005  0.6098206E+03  0.7818608E-02  0.9885238E-01
          2   -1    0    0  501    0  0.00000000000E+00  0.00000000000E+00  0.12649815721E+04  0.12649815722E+04  0.25500000000E-02 0. -1.
         -2   -1    0    0    0  501 -0.00000000000E+00 -0.00000000000E+00 -0.73495362832E+02  0.73495362877E+02  0.25500000000E-02 0.  1.
   -5000001    1    1    2    0    0  0.18693435506E+02 -0.13518143072E+03  0.35684668152E+03  0.45657750476E+03  0.25000000000E+03 0.  0.
    5000001    1    1    2    0    0 -0.18693435506E+02  0.13518143072E+03  0.83463952780E+03  0.88189943027E+03  0.25000000000E+03 0.  0.
<mgrwt>
<rscale>  0 0.60982056E+03</rscale>
<asrwt>0</asrwt>
<pdfrwt beam="1">  1        2 0.19461252E+00 0.60982056E+03</pdfrwt>
<pdfrwt beam="2">  1       -2 0.11306980E-01 0.60982056E+03</pdfrwt>
<totfact> 0.98562149E+02</totfact>
</mgrwt>
</event>
<event>
 4    1  0.1773996E-005  0.6718652E+03  0.7818608E-02  0.9766594E-01
         -2   -1    0    0    0  501 -0.00000000000E+00  0.00000000000E+00  0.69414506619E+02  0.69414506666E+02  0.25500000000E-02 0. -1.
          2   -1    0    0  501    0  0.00000000000E+00 -0.00000000000E+00 -0.16257512169E+04  0.16257512169E+04  0.25500000000E-02 0.  1.
   -5000001    1    1    2    0    0 -0.10229271796E+03  0.19252452207E+03 -0.64415471293E+03  0.72454453689E+03  0.25000000000E+03 0.  0.
    5000001    1    1    2    0    0  0.10229271796E+03 -0.19252452207E+03 -0.91218199740E+03  0.97062118673E+03  0.25000000000E+03 0.  0.
<mgrwt>
<rscale>  0 0.67186522E+03</rscale>
<asrwt>0</asrwt>
<pdfrwt beam="1">  1        2 0.25011554E+00 0.67186522E+03</pdfrwt>
<pdfrwt beam="2">  1       -2 0.10679156E-01 0.67186522E+03</pdfrwt>
<totfact> 0.67788782E+02</totfact>
</mgrwt>
</event>
<event>
 4    1  0.1773996E-005  0.6938704E+03  0.7818608E-02  0.9727772E-01
         -2   -1    0    0    0  501 -0.00000000000E+00  0.00000000000E+00  0.50850481467E+02  0.50850481531E+02  0.25500000000E-02 0. -1.
          2   -1    0    0  501    0  0.00000000000E+00 -0.00000000000E+00 -0.23670185274E+04  0.23670185275E+04  0.25500000000E-02 0.  1.
   -5000001    1    1    2    0    0 -0.90834988404E+02  0.22231213759E+03 -0.12061603279E+04  0.12549886128E+04  0.25000000000E+03 0.  0.
    5000001    1    1    2    0    0  0.90834988404E+02 -0.22231213759E+03 -0.11100077181E+04  0.11628803962E+04  0.25000000000E+03 0.  0.
<mgrwt>
<rscale>  0 0.69387040E+03</rscale>
<asrwt>0</asrwt>
<pdfrwt beam="1">  1        2 0.36415661E+00 0.69387040E+03</pdfrwt>
<pdfrwt beam="2">  1       -2 0.78231528E-02 0.69387040E+03</pdfrwt>
<totfact> 0.43981573E+02</totfact>
</mgrwt>
</event>
<event>
 4    1  0.1773996E-005  0.6084919E+03  0.7818608E-02  0.9887943E-01
         -2   -1    0    0    0  501 -0.00000000000E+00  0.00000000000E+00  0.54686972388E+03  0.54686972389E+03  0.25500000000E-02 0. -1.
          2   -1    0    0  501    0  0.00000000000E+00 -0.00000000000E+00 -0.16926445480E+03  0.16926445482E+03  0.25500000000E-02 0.  1.
   -5000001    1    1    2    0    0 -0.16251144188E+03 -0.26978630646E+02  0.25248359060E+03  0.39164496521E+03  0.25000000000E+03 0.  0.
    5000001    1    1    2    0    0  0.16251144188E+03  0.26978630646E+02  0.12512167849E+03  0.32448921350E+03  0.25000000000E+03 0.  0.
<mgrwt>
<rscale>  0 0.60849192E+03</rscale>
<asrwt>0</asrwt>
<pdfrwt beam="1">  1        2 0.26040685E-01 0.60849192E+03</pdfrwt>
<pdfrwt beam="2">  1       -2 0.84133804E-01 0.60849192E+03</pdfrwt>
<totfact> 0.26079659E+02</totfact>
</mgrwt>
</event>
<event>
 4    1  0.1773996E-005  0.8090243E+03  0.7818608E-02  0.9547046E-01
         -2   -1    0    0    0  501 -0.00000000000E+00  0.00000000000E+00  0.10568949619E+03  0.10568949622E+03  0.25500000000E-02 0. -1.
          2   -1    0    0  501    0  0.00000000000E+00 -0.00000000000E+00 -0.15482150419E+04  0.15482150419E+04  0.25500000000E-02 0.  1.
   -5000001    1    1    2    0    0  0.21471329255E+03  0.23311618288E+03 -0.77477224263E+03  0.87362290531E+03  0.25000000000E+03 0.  0.
    5000001    1    1    2    0    0 -0.21471329255E+03 -0.23311618288E+03 -0.66775330303E+03  0.78028163277E+03  0.25000000000E+03 0.  0.
<mgrwt>
<rscale>  0 0.80902427E+03</rscale>
<asrwt>0</asrwt>
<pdfrwt beam="1">  1        2 0.23818691E+00 0.80902427E+03</pdfrwt>
<pdfrwt beam="2">  1       -2 0.16259924E-01 0.80902427E+03</pdfrwt>
<totfact> 0.36782939E+02</totfact>
</mgrwt>
</event>
<event>
 4    1  0.1773996E-005  0.1069235E+04  0.7818608E-02  0.9235707E-01
         -2   -1    0    0    0  501 -0.00000000000E+00  0.00000000000E+00  0.27225620559E+03  0.27225620560E+03  0.25500000000E-02 0. -1.
          2   -1    0    0  501    0  0.00000000000E+00 -0.00000000000E+00 -0.10498048030E+04  0.10498048031E+04  0.25500000000E-02 0.  1.
   -5000001    1    1    2    0    0  0.15111999689E+03 -0.43537644436E+03 -0.25953090834E+03  0.58501811438E+03  0.25000000000E+03 0.  0.
    5000001    1    1    2    0    0 -0.15111999689E+03  0.43537644436E+03 -0.51801768912E+03  0.73704289428E+03  0.25000000000E+03 0.  0.
<mgrwt>
<rscale>  0 0.10692350E+04</rscale>
<asrwt>0</asrwt>
<pdfrwt beam="1">  1        2 0.16150843E+00 0.10692350E+04</pdfrwt>
<pdfrwt beam="2">  1       -2 0.41885570E-01 0.10692350E+04</pdfrwt>
<totfact> 0.12571157E+02</totfact>
</mgrwt>
</event>
<event>
 4    1  0.1773996E-005  0.9694809E+03  0.7818608E-02  0.9342666E-01
         -2   -1    0    0    0  501 -0.00000000000E+00  0.00000000000E+00  0.14154658297E+03  0.14154658299E+03  0.25500000000E-02 0. -1.
          2   -1    0    0  501    0  0.00000000000E+00 -0.00000000000E+00 -0.16600422207E+04  0.16600422207E+04  0.25500000000E-02 0.  1.
   -5000001    1    1    2    0    0 -0.25087486905E+02  0.30898214993E+03 -0.24569034792E+03  0.46793492928E+03  0.25000000000E+03 0.  0.
    5000001    1    1    2    0    0  0.25087486905E+02 -0.30898214993E+03 -0.12728052899E+04  0.13336538745E+04  0.25000000000E+03 0.  0.
<mgrwt>
<rscale>  0 0.96948090E+03</rscale>
<asrwt>0</asrwt>
<pdfrwt beam="1">  1        2 0.25539110E+00 0.96948090E+03</pdfrwt>
<pdfrwt beam="2">  1       -2 0.21776399E-01 0.96948090E+03</pdfrwt>
<totfact> 0.18985860E+02</totfact>
</mgrwt>
</event>
<event>
 4    1  0.1773996E-005  0.7636935E+03  0.7818608E-02  0.9614109E-01
         -2   -1    0    0    0  501 -0.00000000000E+00  0.00000000000E+00  0.64066242769E+03  0.64066242769E+03  0.25500000000E-02 0. -1.
          2   -1    0    0  501    0  0.00000000000E+00 -0.00000000000E+00 -0.22758780972E+03  0.22758780974E+03  0.25500000000E-02 0.  1.
   -5000001    1    1    2    0    0 -0.18704437214E+03  0.12772231356E+03  0.40994041640E+03  0.53089521709E+03  0.25000000000E+03 0.  0.
    5000001    1    1    2    0    0  0.18704437214E+03 -0.12772231356E+03  0.31342015728E+01  0.33735502034E+03  0.25000000000E+03 0.  0.
<mgrwt>
<rscale>  0 0.76369355E+03</rscale>
<asrwt>0</asrwt>
<pdfrwt beam="1">  1        2 0.35013510E-01 0.76369355E+03</pdfrwt>
<pdfrwt beam="2">  1       -2 0.98563449E-01 0.76369355E+03</pdfrwt>
<totfact> 0.12887905E+02</totfact>
</mgrwt>
</event>
<event>
 4    1  0.1773996E-005  0.6128686E+03  0.7818608E-02  0.9879062E-01
         -2   -1    0    0    0  501 -0.00000000000E+00  0.00000000000E+00  0.49915143582E+03  0.49915143583E+03  0.25500000000E-02 0. -1.
          2   -1    0    0  501    0  0.00000000000E+00 -0.00000000000E+00 -0.18812322720E+03  0.18812322722E+03  0.25500000000E-02 0.  1.
   -5000001    1    1    2    0    0  0.16071187502E+03 -0.74627771556E+02  0.15785779358E+03  0.34469797512E+03  0.25000000000E+03 0.  0.
    5000001    1    1    2    0    0 -0.16071187502E+03  0.74627771556E+02  0.15317041505E+03  0.34257668792E+03  0.25000000000E+03 0.  0.
<mgrwt>
<rscale>  0 0.61286860E+03</rscale>
<asrwt>0</asrwt>
<pdfrwt beam="1">  1        2 0.28942035E-01 0.61286860E+03</pdfrwt>
<pdfrwt beam="2">  1       -2 0.76792529E-01 0.61286860E+03</pdfrwt>
<totfact> 0.28387387E+02</totfact>
</mgrwt>
</event>
<event>
 4    1  0.1773996E-005  0.7244787E+03  0.7818608E-02  0.9676263E-01
         -2   -1    0    0    0  501 -0.00000000000E+00  0.00000000000E+00  0.13720122454E+03  0.13720122456E+03  0.25500000000E-02 0. -1.
          2   -1    0    0  501    0  0.00000000000E+00 -0.00000000000E+00 -0.95638604151E+03  0.95638604152E+03  0.25500000000E-02 0.  1.
   -5000001    1    1    2    0    0 -0.20599391004E+03 -0.16211900515E+03 -0.40788913846E+03  0.54551774680E+03  0.25000000000E+03 0.  0.
    5000001    1    1    2    0    0  0.20599391004E+03  0.16211900515E+03 -0.41129567851E+03  0.54806951928E+03  0.25000000000E+03 0.  0.
<mgrwt>
<rscale>  0 0.72447867E+03</rscale>
<asrwt>0</asrwt>
<pdfrwt beam="1">  1        2 0.14713631E+00 0.72447867E+03</pdfrwt>
<pdfrwt beam="2">  1       -2 0.21107881E-01 0.72447867E+03</pdfrwt>
<totfact> 0.52504534E+02</totfact>
</mgrwt>
</event>
<event>
 4    1  0.1773996E-005  0.8312846E+03  0.7818608E-02  0.9515806E-01
          2   -1    0    0  501    0  0.00000000000E+00  0.00000000000E+00  0.32096478252E+03  0.32096478253E+03  0.25500000000E-02 0.  1.
         -2   -1    0    0    0  501 -0.00000000000E+00 -0.00000000000E+00 -0.53824765364E+03  0.53824765365E+03  0.25500000000E-02 0. -1.
   -5000001    1    1    2    0    0 -0.25009174948E+03  0.17828996884E+03  0.21793887705E+02  0.39662093955E+03  0.25000000000E+03 0.  0.
    5000001    1    1    2    0    0  0.25009174948E+03 -0.17828996884E+03 -0.23907675882E+03  0.46259149663E+03  0.25000000000E+03 0.  0.
<mgrwt>
<rscale>  0 0.83128465E+03</rscale>
<asrwt>0</asrwt>
<pdfrwt beam="1">  1        2 0.49379197E-01 0.83128465E+03</pdfrwt>
<pdfrwt beam="2">  1       -2 0.82807331E-01 0.83128465E+03</pdfrwt>
<totfact> 0.13103570E+02</totfact>
</mgrwt>
</event>
<event>
 4    1  0.1773996E-005  0.1417364E+04  0.7818608E-02  0.8941344E-01
          2   -1    0    0  501    0  0.00000000000E+00  0.00000000000E+00  0.26657335782E+04  0.26657335782E+04  0.25500000000E-02 0.  1.
         -2   -1    0    0    0  501 -0.00000000000E+00 -0.00000000000E+00 -0.18840231114E+03  0.18840231116E+03  0.25500000000E-02 0. -1.
   -5000001    1    1    2    0    0 -0.66277019990E+03 -0.83110179384E+01  0.12787859574E+04  0.14618915608E+04  0.25000000000E+03 0.  0.
    5000001    1    1    2    0    0  0.66277019990E+03  0.83110179384E+01  0.11985453096E+04  0.13922443285E+04  0.25000000000E+03 0.  0.
<mgrwt>
<rscale>  0 0.14173643E+04</rscale>
<asrwt>0</asrwt>
<pdfrwt beam="1">  1        2 0.41011286E+00 0.14173643E+04</pdfrwt>
<pdfrwt beam="2">  1       -2 0.28984971E-01 0.14173643E+04</pdfrwt>
<totfact> 0.29728165E+01</totfact>
</mgrwt>
</event>
<event>
 4    1  0.1773996E-005  0.8678998E+03  0.7818608E-02  0.9466622E-01
          2   -1    0    0  501    0  0.00000000000E+00  0.00000000000E+00  0.20161650085E+04  0.20161650085E+04  0.25500000000E-02 0.  1.
         -2   -1    0    0    0  501 -0.00000000000E+00 -0.00000000000E+00 -0.93401335967E+02  0.93401336001E+02  0.25500000000E-02 0. -1.
   -5000001    1    1    2    0    0  0.10291119135E+03  0.17705760167E+02  0.17853288956E+04  0.18057694960E+04  0.25000000000E+03 0.  0.
    5000001    1    1    2    0    0 -0.10291119135E+03 -0.17705760167E+02  0.13743477694E+03  0.30379684850E+03  0.25000000000E+03 0.  0.
<mgrwt>
<rscale>  0 0.86789978E+03</rscale>
<asrwt>0</asrwt>
<pdfrwt beam="1">  1        2 0.31017923E+00 0.86789978E+03</pdfrwt>
<pdfrwt beam="2">  1       -2 0.14369436E-01 0.86789978E+03</pdfrwt>
<totfact> 0.25013869E+02</totfact>
</mgrwt>
</event>
<event>
 4    1  0.1773996E-005  0.5898255E+03  0.7818608E-02  0.9926743E-01
         -2   -1    0    0    0  501 -0.00000000000E+00  0.00000000000E+00  0.45657601591E+02  0.45657601662E+02  0.25500000000E-02 0. -1.
          2   -1    0    0  501    0  0.00000000000E+00 -0.00000000000E+00 -0.19049081862E+04  0.19049081862E+04  0.25500000000E-02 0.  1.
   -5000001    1    1    2    0    0 -0.55734186197E+01 -0.15173275896E+03 -0.10542278800E+04  0.10940522456E+04  0.25000000000E+03 0.  0.
    5000001    1    1    2    0    0  0.55734186197E+01  0.15173275896E+03 -0.80502270461E+03  0.85651354226E+03  0.25000000000E+03 0.  0.
<mgrwt>
<rscale>  0 0.58982553E+03</rscale>
<asrwt>0</asrwt>
<pdfrwt beam="1">  1        2 0.29306274E+00 0.58982553E+03</pdfrwt>
<pdfrwt beam="2">  1       -2 0.70242479E-02 0.58982553E+03</pdfrwt>
<totfact> 0.94146802E+02</totfact>
</mgrwt>
</event>
<event>
 4    1  0.1773996E-005  0.9293126E+03  0.7818608E-02  0.9389663E-01
          2   -1    0    0  501    0  0.00000000000E+00  0.00000000000E+00  0.10032416839E+04  0.10032416839E+04  0.25500000000E-02 0.  1.
         -2   -1    0    0    0  501 -0.00000000000E+00 -0.00000000000E+00 -0.21520783894E+03  0.21520783896E+03  0.25500000000E-02 0. -1.
   -5000001    1    1    2    0    0  0.23134128657E+03 -0.20177834199E+03  0.71295364040E+03  0.81549750676E+03  0.25000000000E+03 0.  0.
    5000001    1    1    2    0    0 -0.23134128657E+03  0.20177834199E+03  0.75080204563E+02  0.40295201611E+03  0.25000000000E+03 0.  0.
<mgrwt>
<rscale>  0 0.92931259E+03</rscale>
<asrwt>0</asrwt>
<pdfrwt beam="1">  1        2 0.15434488E+00 0.92931259E+03</pdfrwt>
<pdfrwt beam="2">  1       -2 0.33108898E-01 0.92931259E+03</pdfrwt>
<totfact> 0.21353929E+02</totfact>
</mgrwt>
</event>
<event>
 4    1  0.1773996E-005  0.5160547E+03  0.7818608E-02  0.1009671E+00
         -2   -1    0    0    0  501 -0.00000000000E+00  0.00000000000E+00  0.95174669390E+02  0.95174669425E+02  0.25500000000E-02 0. -1.
          2   -1    0    0  501    0  0.00000000000E+00 -0.00000000000E+00 -0.69953599678E+03  0.69953599678E+03  0.25500000000E-02 0.  1.
   -5000001    1    1    2    0    0  0.45832271077E+02 -0.42929091619E+02 -0.28431409691E+03  0.38376817179E+03  0.25000000000E+03 0.  0.
    5000001    1    1    2    0    0 -0.45832271077E+02  0.42929091619E+02 -0.32004723048E+03  0.41094249442E+03  0.25000000000E+03 0.  0.
<mgrwt>
<rscale>  0 0.51605468E+03</rscale>
<asrwt>0</asrwt>
<pdfrwt beam="1">  1        2 0.10762092E+00 0.51605468E+03</pdfrwt>
<pdfrwt beam="2">  1       -2 0.14642257E-01 0.51605468E+03</pdfrwt>
<totfact> 0.14991961E+03</totfact>
</mgrwt>
</event>
<event>
 4    1  0.1773996E-005  0.7102147E+03  0.7818608E-02  0.9699921E-01
          2   -1    0    0  501    0  0.00000000000E+00  0.00000000000E+00  0.51230215989E+03  0.51230215990E+03  0.25500000000E-02 0.  1.
         -2   -1    0    0    0  501 -0.00000000000E+00 -0.00000000000E+00 -0.24614620816E+03  0.24614620818E+03  0.25500000000E-02 0. -1.
   -5000001    1    1    2    0    0  0.16856610650E+03  0.11928264547E+02 -0.66837210062E+02  0.30906961741E+03  0.25000000000E+03 0.  0.
    5000001    1    1    2    0    0 -0.16856610650E+03 -0.11928264547E+02  0.33299316179E+03  0.44937875067E+03  0.25000000000E+03 0.  0.
<mgrwt>
<rscale>  0 0.71021471E+03</rscale>
<asrwt>0</asrwt>
<pdfrwt beam="1">  1        2 0.78815716E-01 0.71021471E+03</pdfrwt>
<pdfrwt beam="2">  1       -2 0.37868648E-01 0.71021471E+03</pdfrwt>
<totfact> 0.39687161E+02</totfact>
</mgrwt>
</event>
<event>
 4    1  0.1773996E-005  0.8507635E+03  0.7818608E-02  0.9489313E-01
         -2   -1    0    0    0  501 -0.00000000000E+00  0.00000000000E+00  0.43758655172E+03  0.43758655173E+03  0.25500000000E-02 0. -1.
          2   -1    0    0  501    0  0.00000000000E+00 -0.00000000000E+00 -0.41351733509E+03  0.41351733510E+03  0.25500000000E-02 0.  1.
   -5000001    1    1    2    0    0 -0.20446267047E+03  0.27358618728E+03  0.54421825341E+02  0.42675065385E+03  0.25000000000E+03 0.  0.
    5000001    1    1    2    0    0  0.20446267047E+03 -0.27358618728E+03 -0.30352608716E+02  0.42435323298E+03  0.25000000000E+03 0.  0.
<mgrwt>
<rscale>  0 0.85076348E+03</rscale>
<asrwt>0</asrwt>
<pdfrwt beam="1">  1        2 0.63618052E-01 0.85076348E+03</pdfrwt>
<pdfrwt beam="2">  1       -2 0.67321008E-01 0.85076348E+03</pdfrwt>
<totfact> 0.15592283E+02</totfact>
</mgrwt>
</event>
<event>
 4    1  0.1773996E-005  0.5392900E+03  0.7818608E-02  0.1004004E+00
         -2   -1    0    0    0  501 -0.00000000000E+00  0.00000000000E+00  0.91483600911E+03  0.91483600911E+03  0.25500000000E-02 0. -1.
          2   -1    0    0  501    0  0.00000000000E+00 -0.00000000000E+00 -0.79476997858E+02  0.79476997899E+02  0.25500000000E-02 0.  1.
   -5000001    1    1    2    0    0 -0.63527943626E+02 -0.35295174316E+02  0.54709502244E+03  0.60588324992E+03  0.25000000000E+03 0.  0.
    5000001    1    1    2    0    0  0.63527943626E+02  0.35295174316E+02  0.28826398881E+03  0.38842975709E+03  0.25000000000E+03 0.  0.
<mgrwt>
<rscale>  0 0.53928998E+03</rscale>
<asrwt>0</asrwt>
<pdfrwt beam="1">  1        2 0.12227231E-01 0.53928998E+03</pdfrwt>
<pdfrwt beam="2">  1       -2 0.14074400E+00 0.53928998E+03</pdfrwt>
<totfact> 0.18571641E+02</totfact>
</mgrwt>
</event>
<event>
 4    1  0.1773996E-005  0.1399123E+04  0.7818608E-02  0.8954454E-01
         -2   -1    0    0    0  501 -0.00000000000E+00  0.00000000000E+00  0.99822272684E+03  0.99822272684E+03  0.25500000000E-02 0. -1.
          2   -1    0    0  501    0  0.00000000000E+00 -0.00000000000E+00 -0.49025738002E+03  0.49025738002E+03  0.25500000000E-02 0.  1.
   -5000001    1    1    2    0    0  0.39420313021E+03 -0.19317945980E+03 -0.26083612648E+03  0.56855069821E+03  0.25000000000E+03 0.  0.
    5000001    1    1    2    0    0 -0.39420313021E+03  0.19317945980E+03  0.76880147330E+03  0.91992940865E+03  0.25000000000E+03 0.  0.
<mgrwt>
<rscale>  0 0.13991227E+04</rscale>
<asrwt>0</asrwt>
<pdfrwt beam="1">  1        2 0.75424213E-01 0.13991227E+04</pdfrwt>
<pdfrwt beam="2">  1       -2 0.15357273E+00 0.13991227E+04</pdfrwt>
<totfact> 0.17241603E+01</totfact>
</mgrwt>
</event>
<event>
 4    1  0.1773996E-005  0.6071968E+03  0.7818608E-02  0.9890586E-01
         -2   -1    0    0    0  501 -0.00000000000E+00  0.00000000000E+00  0.16575887188E+03  0.16575887190E+03  0.25500000000E-02 0. -1.
          2   -1    0    0  501    0  0.00000000000E+00 -0.00000000000E+00 -0.55606066941E+03  0.55606066942E+03  0.25500000000E-02 0.  1.
   -5000001    1    1    2    0    0  0.13064850530E+03  0.11026570644E+03 -0.22021207700E+03  0.37446083481E+03  0.25000000000E+03 0.  0.
    5000001    1    1    2    0    0 -0.13064850530E+03 -0.11026570644E+03 -0.17008972053E+03  0.34735870650E+03  0.25000000000E+03 0.  0.
<mgrwt>
<rscale>  0 0.60719680E+03</rscale>
<asrwt>0</asrwt>
<pdfrwt beam="1">  1        2 0.85547794E-01 0.60719680E+03</pdfrwt>
<pdfrwt beam="2">  1       -2 0.25501365E-01 0.60719680E+03</pdfrwt>
<totfact> 0.75510977E+02</totfact>
</mgrwt>
</event>
<event>
 4    1  0.1773996E-005  0.6621621E+03  0.7818608E-02  0.9784222E-01
         -2   -1    0    0    0  501 -0.00000000000E+00  0.00000000000E+00  0.59002625051E+02  0.59002625107E+02  0.25500000000E-02 0. -1.
          2   -1    0    0  501    0  0.00000000000E+00 -0.00000000000E+00 -0.18577931373E+04  0.18577931373E+04  0.25500000000E-02 0.  1.
   -5000001    1    1    2    0    0 -0.21374653740E+03  0.37445207699E+01 -0.79057917701E+03  0.85628093451E+03  0.25000000000E+03 0.  0.
    5000001    1    1    2    0    0  0.21374653740E+03 -0.37445207699E+01 -0.10082113352E+04  0.10605148279E+04  0.25000000000E+03 0.  0.
<mgrwt>
<rscale>  0 0.66216213E+03</rscale>
<asrwt>0</asrwt>
<pdfrwt beam="1">  1        2 0.28581428E+00 0.66216213E+03</pdfrwt>
<pdfrwt beam="2">  1       -2 0.90773283E-02 0.66216213E+03</pdfrwt>
<totfact> 0.66012046E+02</totfact>
</mgrwt>
</event>
<event>
 4    1  0.1773996E-005  0.6759572E+03  0.7818608E-02  0.9759256E-01
          2   -1    0    0  501    0  0.00000000000E+00  0.00000000000E+00  0.83056096319E+03  0.83056096320E+03  0.25500000000E-02 0.  1.
         -2   -1    0    0    0  501 -0.00000000000E+00 -0.00000000000E+00 -0.13753298012E+03  0.13753298014E+03  0.25500000000E-02 0. -1.
   -5000001    1    1    2    0    0  0.12362531350E+03  0.17138783574E+03  0.46695802602E+03  0.57026906496E+03  0.25000000000E+03 0.  0.
    5000001    1    1    2    0    0 -0.12362531350E+03 -0.17138783574E+03  0.22606995705E+03  0.39782487838E+03  0.25000000000E+03 0.  0.
<mgrwt>
<rscale>  0 0.67595717E+03</rscale>
<asrwt>0</asrwt>
<pdfrwt beam="1">  1        2 0.12777861E+00 0.67595717E+03</pdfrwt>
<pdfrwt beam="2">  1       -2 0.21158920E-01 0.67595717E+03</pdfrwt>
<totfact> 0.63674177E+02</totfact>
</mgrwt>
</event>
<event>
 4    1  0.1773996E-005  0.1163639E+04  0.7818608E-02  0.9145292E-01
         -2   -1    0    0    0  501 -0.00000000000E+00  0.00000000000E+00  0.20371221593E+03  0.20371221595E+03  0.25500000000E-02 0. -1.
          2   -1    0    0  501    0  0.00000000000E+00 -0.00000000000E+00 -0.16617269138E+04  0.16617269138E+04  0.25500000000E-02 0.  1.
   -5000001    1    1    2    0    0 -0.28711766983E+03 -0.27145898421E+03 -0.17393481326E+03  0.49887859816E+03  0.25000000000E+03 0.  0.
    5000001    1    1    2    0    0  0.28711766983E+03  0.27145898421E+03 -0.12840798846E+04  0.13665605316E+04  0.25000000000E+03 0.  0.
<mgrwt>
<rscale>  0 0.11636392E+04</rscale>
<asrwt>0</asrwt>
<pdfrwt beam="1">  1        2 0.25565029E+00 0.11636392E+04</pdfrwt>
<pdfrwt beam="2">  1       -2 0.31340342E-01 0.11636392E+04</pdfrwt>
<totfact> 0.96223157E+01</totfact>
</mgrwt>
</event>
<event>
 4    1  0.1773996E-005  0.5553088E+03  0.7818608E-02  0.1000273E+00
         -2   -1    0    0    0  501 -0.00000000000E+00  0.00000000000E+00  0.99166849002E+02  0.99166849035E+02  0.25500000000E-02 0. -1.
          2   -1    0    0  501    0  0.00000000000E+00 -0.00000000000E+00 -0.77739664745E+03  0.77739664745E+03  0.25500000000E-02 0.  1.
   -5000001    1    1    2    0    0 -0.10525725897E+03  0.48609004790E+02 -0.39264612256E+03  0.47970084790E+03  0.25000000000E+03 0.  0.
    5000001    1    1    2    0    0  0.10525725897E+03 -0.48609004790E+02 -0.28558367589E+03  0.39686264859E+03  0.25000000000E+03 0.  0.
<mgrwt>
<rscale>  0 0.55530884E+03</rscale>
<asrwt>0</asrwt>
<pdfrwt beam="1">  1        2 0.11959948E+00 0.55530884E+03</pdfrwt>
<pdfrwt beam="2">  1       -2 0.15256439E-01 0.55530884E+03</pdfrwt>
<totfact> 0.12231806E+03</totfact>
</mgrwt>
</event>
<event>
 4    1  0.1773996E-005  0.6582046E+03  0.7818608E-02  0.9791504E-01
         -2   -1    0    0    0  501 -0.00000000000E+00  0.00000000000E+00  0.67930685027E+02  0.67930685075E+02  0.25500000000E-02 0. -1.
          2   -1    0    0  501    0  0.00000000000E+00 -0.00000000000E+00 -0.15943949088E+04  0.15943949088E+04  0.25500000000E-02 0.  1.
   -5000001    1    1    2    0    0  0.12331207196E+03 -0.15159741113E+03 -0.54276060272E+03  0.62871035781E+03  0.25000000000E+03 0.  0.
    5000001    1    1    2    0    0 -0.12331207196E+03  0.15159741113E+03 -0.98370362100E+03  0.10336152360E+04  0.25000000000E+03 0.  0.
<mgrwt>
<rscale>  0 0.65820464E+03</rscale>
<asrwt>0</asrwt>
<pdfrwt beam="1">  1        2 0.24529150E+00 0.65820464E+03</pdfrwt>
<pdfrwt beam="2">  1       -2 0.10450876E-01 0.65820464E+03</pdfrwt>
<totfact> 0.73113486E+02</totfact>
</mgrwt>
</event>
<event>
 4    1  0.1773996E-005  0.7565226E+03  0.7818608E-02  0.9625173E-01
          2   -1    0    0  501    0  0.00000000000E+00  0.00000000000E+00  0.15287785656E+04  0.15287785656E+04  0.25500000000E-02 0.  1.
         -2   -1    0    0    0  501 -0.00000000000E+00 -0.00000000000E+00 -0.93592112989E+02  0.93592113024E+02  0.25500000000E-02 0. -1.
   -5000001    1    1    2    0    0  0.81238755210E+02 -0.20662263681E+03  0.33825746585E+03  0.47561619253E+03  0.25000000000E+03 0.  0.
    5000001    1    1    2    0    0 -0.81238755210E+02  0.20662263681E+03  0.10969289867E+04  0.11467544861E+04  0.25000000000E+03 0.  0.
<mgrwt>
<rscale>  0 0.75652261E+03</rscale>
<asrwt>0</asrwt>
<pdfrwt beam="1">  1        2 0.23519668E+00 0.75652261E+03</pdfrwt>
<pdfrwt beam="2">  1       -2 0.14398788E-01 0.75652261E+03</pdfrwt>
<totfact> 0.46485414E+02</totfact>
</mgrwt>
</event>
<event>
 4    1  0.1773996E-005  0.6264339E+03  0.7818608E-02  0.9852033E-01
          2   -1    0    0  501    0  0.00000000000E+00  0.00000000000E+00  0.54770773865E+02  0.54770773924E+02  0.25500000000E-02 0.  1.
         -2   -1    0    0    0  501 -0.00000000000E+00 -0.00000000000E+00 -0.17911899438E+04  0.17911899438E+04  0.25500000000E-02 0. -1.
   -5000001    1    1    2    0    0  0.56338207805E+02 -0.17520045960E+03 -0.74544301664E+03  0.80749890759E+03  0.25000000000E+03 0.  0.
    5000001    1    1    2    0    0 -0.56338207805E+02  0.17520045960E+03 -0.99097615326E+03  0.10384618101E+04  0.25000000000E+03 0.  0.
<mgrwt>
<rscale>  0 0.62643391E+03</rscale>
<asrwt>0</asrwt>
<pdfrwt beam="1">  1        2 0.84262743E-02 0.62643391E+03</pdfrwt>
<pdfrwt beam="2">  1       -2 0.27556764E+00 0.62643391E+03</pdfrwt>
<totfact> 0.38808075E+01</totfact>
</mgrwt>
</event>
<event>
 4    1  0.1773996E-005  0.5582917E+03  0.7818608E-02  0.9995928E-01
          2   -1    0    0  501    0  0.00000000000E+00  0.00000000000E+00  0.49454224838E+03  0.49454224838E+03  0.25500000000E-02 0.  1.
         -2   -1    0    0    0  501 -0.00000000000E+00 -0.00000000000E+00 -0.15756469061E+03  0.15756469063E+03  0.25500000000E-02 0. -1.
   -5000001    1    1    2    0    0  0.59812422100E+02 -0.98248985581E+02  0.11380246131E+03  0.29779420613E+03  0.25000000000E+03 0.  0.
    5000001    1    1    2    0    0 -0.59812422100E+02  0.98248985581E+02  0.22317509646E+03  0.35431273288E+03  0.25000000000E+03 0.  0.
<mgrwt>
<rscale>  0 0.55829167E+03</rscale>
<asrwt>0</asrwt>
<pdfrwt beam="1">  1        2 0.76083422E-01 0.55829167E+03</pdfrwt>
<pdfrwt beam="2">  1       -2 0.24240722E-01 0.55829167E+03</pdfrwt>
<totfact> 0.94839270E+02</totfact>
</mgrwt>
</event>
<event>
 4    1  0.1773996E-005  0.6888607E+03  0.7818608E-02  0.9736474E-01
         -2   -1    0    0    0  501 -0.00000000000E+00  0.00000000000E+00  0.12211047957E+03  0.12211047960E+03  0.25500000000E-02 0. -1.
          2   -1    0    0  501    0  0.00000000000E+00 -0.00000000000E+00 -0.97151589753E+03  0.97151589753E+03  0.25500000000E-02 0.  1.
   -5000001    1    1    2    0    0 -0.23054344744E+03  0.48954316483E+02 -0.46311660586E+03  0.57664876388E+03  0.25000000000E+03 0.  0.
    5000001    1    1    2    0    0  0.23054344744E+03 -0.48954316483E+02 -0.38628881209E+03  0.51697761325E+03  0.25000000000E+03 0.  0.
<mgrwt>
<rscale>  0 0.68886072E+03</rscale>
<asrwt>0</asrwt>
<pdfrwt beam="1">  1        2 0.14946398E+00 0.68886072E+03</pdfrwt>
<pdfrwt beam="2">  1       -2 0.18786228E-01 0.68886072E+03</pdfrwt>
<totfact> 0.63007075E+02</totfact>
</mgrwt>
</event>
<event>
 4    1  0.1773996E-005  0.1266224E+04  0.7818608E-02  0.9056787E-01
         -2   -1    0    0    0  501 -0.00000000000E+00  0.00000000000E+00  0.38071233683E+03  0.38071233683E+03  0.25500000000E-02 0. -1.
          2   -1    0    0  501    0  0.00000000000E+00 -0.00000000000E+00 -0.10528447869E+04  0.10528447869E+04  0.25500000000E-02 0.  1.
   -5000001    1    1    2    0    0  0.47176043270E+03 -0.26006526549E+03 -0.87665093371E+02  0.60031409843E+03  0.25000000000E+03 0.  0.
    5000001    1    1    2    0    0 -0.47176043270E+03  0.26006526549E+03 -0.58446735672E+03  0.83324302532E+03  0.25000000000E+03 0.  0.
<mgrwt>
<rscale>  0 0.12662243E+04</rscale>
<asrwt>0</asrwt>
<pdfrwt beam="1">  1        2 0.16197612E+00 0.12662243E+04</pdfrwt>
<pdfrwt beam="2">  1       -2 0.58571129E-01 0.12662243E+04</pdfrwt>
<totfact> 0.62416620E+01</totfact>
</mgrwt>
</event>
<event>
 4    1  0.1773996E-005  0.1007515E+04  0.7818608E-02  0.9300341E-01
          2   -1    0    0  501    0  0.00000000000E+00  0.00000000000E+00  0.19457090765E+04  0.19457090765E+04  0.25500000000E-02 0.  1.
         -2   -1    0    0    0  501 -0.00000000000E+00 -0.00000000000E+00 -0.13042630649E+03  0.13042630651E+03  0.25500000000E-02 0. -1.
   -5000001    1    1    2    0    0 -0.20536498540E+02 -0.43640966145E+03  0.94867408588E+03  0.10739449062E+04  0.25000000000E+03 0.  0.
    5000001    1    1    2    0    0  0.20536498540E+02  0.43640966145E+03  0.86660868416E+03  0.10021904768E+04  0.25000000000E+03 0.  0.
<mgrwt>
<rscale>  0 0.10075151E+04</rscale>
<asrwt>0</asrwt>
<pdfrwt beam="1">  1        2 0.29933985E+00 0.10075151E+04</pdfrwt>
<pdfrwt beam="2">  1       -2 0.20065586E-01 0.10075151E+04</pdfrwt>
<totfact> 0.15234407E+02</totfact>
</mgrwt>
</event>
<event>
 4    1  0.1773996E-005  0.7487991E+03  0.7818608E-02  0.9637236E-01
         -2   -1    0    0    0  501 -0.00000000000E+00  0.00000000000E+00  0.41886130056E+03  0.41886130057E+03  0.25500000000E-02 0. -1.
          2   -1    0    0  501    0  0.00000000000E+00 -0.00000000000E+00 -0.33465734363E+03  0.33465734364E+03  0.25500000000E-02 0.  1.
   -5000001    1    1    2    0    0  0.23941801724E+03  0.47483668279E+02 -0.93279699159E+02  0.36163073433E+03  0.25000000000E+03 0.  0.
    5000001    1    1    2    0    0 -0.23941801724E+03 -0.47483668279E+02  0.17748365609E+03  0.39188790988E+03  0.25000000000E+03 0.  0.
<mgrwt>
<rscale>  0 0.74879907E+03</rscale>
<asrwt>0</asrwt>
<pdfrwt beam="1">  1        2 0.51485745E-01 0.74879907E+03</pdfrwt>
<pdfrwt beam="2">  1       -2 0.64440200E-01 0.74879907E+03</pdfrwt>
<totfact> 0.21806660E+02</totfact>
</mgrwt>
</event>
<event>
 4    1  0.1773996E-005  0.9756719E+03  0.7818608E-02  0.9335637E-01
          2   -1    0    0  501    0  0.00000000000E+00  0.00000000000E+00  0.14904311785E+03  0.14904311787E+03  0.25500000000E-02 0.  1.
         -2   -1    0    0    0  501 -0.00000000000E+00 -0.00000000000E+00 -0.15967453195E+04  0.15967453195E+04  0.25500000000E-02 0. -1.
   -5000001    1    1    2    0    0 -0.52666726574E+02  0.38084395340E+03 -0.42622109659E+03  0.62608332042E+03  0.25000000000E+03 0.  0.
    5000001    1    1    2    0    0  0.52666726574E+02 -0.38084395340E+03 -0.10214811051E+04  0.11197051169E+04  0.25000000000E+03 0.  0.
<mgrwt>
<rscale>  0 0.97567187E+03</rscale>
<asrwt>0</asrwt>
<pdfrwt beam="1">  1        2 0.22929712E-01 0.97567187E+03</pdfrwt>
<pdfrwt beam="2">  1       -2 0.24565311E+00 0.97567187E+03</pdfrwt>
<totfact> 0.16680850E+01</totfact>
</mgrwt>
</event>
<event>
 4    1  0.1773996E-005  0.8146318E+03  0.7818608E-02  0.9539076E-01
          2   -1    0    0  501    0  0.00000000000E+00  0.00000000000E+00  0.32884113906E+04  0.32884113906E+04  0.25500000000E-02 0.  1.
         -2   -1    0    0    0  501 -0.00000000000E+00 -0.00000000000E+00 -0.50451789450E+02  0.50451789515E+02  0.25500000000E-02 0. -1.
   -5000001    1    1    2    0    0  0.49683252747E+01 -0.29752726741E+03  0.21185922250E+04  0.21539452581E+04  0.25000000000E+03 0.  0.
    5000001    1    1    2    0    0 -0.49683252747E+01  0.29752726741E+03  0.11193673762E+04  0.11849179221E+04  0.25000000000E+03 0.  0.
<mgrwt>
<rscale>  0 0.81463179E+03</rscale>
<asrwt>0</asrwt>
<pdfrwt beam="1">  1        2 0.50590938E+00 0.81463179E+03</pdfrwt>
<pdfrwt beam="2">  1       -2 0.77618147E-02 0.81463179E+03</pdfrwt>
<totfact> 0.12391632E+02</totfact>
</mgrwt>
</event>
<event>
 4    1  0.1773996E-005  0.8632406E+03  0.7818608E-02  0.9472736E-01
         -2   -1    0    0    0  501 -0.00000000000E+00  0.00000000000E+00  0.19680095942E+03  0.19680095943E+03  0.25500000000E-02 0. -1.
          2   -1    0    0  501    0  0.00000000000E+00 -0.00000000000E+00 -0.94662186729E+03  0.94662186729E+03  0.25500000000E-02 0.  1.
   -5000001    1    1    2    0    0  0.29141658009E+03  0.12745266338E+03 -0.57416160132E+03  0.70237408052E+03  0.25000000000E+03 0.  0.
    5000001    1    1    2    0    0 -0.29141658009E+03 -0.12745266338E+03 -0.17565930655E+03  0.44104874621E+03  0.25000000000E+03 0.  0.
<mgrwt>
<rscale>  0 0.86324062E+03</rscale>
<asrwt>0</asrwt>
<pdfrwt beam="1">  1        2 0.14563413E+00 0.86324062E+03</pdfrwt>
<pdfrwt beam="2">  1       -2 0.30277071E-01 0.86324062E+03</pdfrwt>
<totfact> 0.27574549E+02</totfact>
</mgrwt>
</event>
<event>
 4    1  0.1773996E-005  0.6465699E+03  0.7818608E-02  0.9813237E-01
          2   -1    0    0  501    0  0.00000000000E+00  0.00000000000E+00  0.66853076285E+03  0.66853076286E+03  0.25500000000E-02 0.  1.
         -2   -1    0    0    0  501 -0.00000000000E+00 -0.00000000000E+00 -0.15633260322E+03  0.15633260324E+03  0.25500000000E-02 0. -1.
   -5000001    1    1    2    0    0  0.40856088188E+02 -0.19813574131E+03  0.29814404138E+03  0.43853946383E+03  0.25000000000E+03 0.  0.
    5000001    1    1    2    0    0 -0.40856088188E+02  0.19813574131E+03  0.21405411826E+03  0.38632390227E+03  0.25000000000E+03 0.  0.
<mgrwt>
<rscale>  0 0.64656989E+03</rscale>
<asrwt>0</asrwt>
<pdfrwt beam="1">  1        2 0.10285089E+00 0.64656989E+03</pdfrwt>
<pdfrwt beam="2">  1       -2 0.24051170E-01 0.64656989E+03</pdfrwt>
<totfact> 0.67113165E+02</totfact>
</mgrwt>
</event>
<event>
 4    1  0.1773996E-005  0.7062593E+03  0.7818608E-02  0.9706587E-01
          2   -1    0    0  501    0  0.00000000000E+00  0.00000000000E+00  0.10030191837E+04  0.10030191837E+04  0.25500000000E-02 0.  1.
         -2   -1    0    0    0  501 -0.00000000000E+00 -0.00000000000E+00 -0.12432518732E+03  0.12432518735E+03  0.25500000000E-02 0. -1.
   -5000001    1    1    2    0    0  0.18706220940E+03 -0.14112138231E+03  0.57566289932E+03  0.66992185245E+03  0.25000000000E+03 0.  0.
    5000001    1    1    2    0    0 -0.18706220940E+03  0.14112138231E+03  0.30303109704E+03  0.45742251858E+03  0.25000000000E+03 0.  0.
<mgrwt>
<rscale>  0 0.70625929E+03</rscale>
<asrwt>0</asrwt>
<pdfrwt beam="1">  1        2 0.15431065E+00 0.70625929E+03</pdfrwt>
<pdfrwt beam="2">  1       -2 0.19126951E-01 0.70625929E+03</pdfrwt>
<totfact> 0.58261771E+02</totfact>
</mgrwt>
</event>
<event>
 4    1  0.1773996E-005  0.6842359E+03  0.7818608E-02  0.9744577E-01
         -2   -1    0    0    0  501 -0.00000000000E+00  0.00000000000E+00  0.63084729709E+02  0.63084729761E+02  0.25500000000E-02 0.  1.
          2   -1    0    0  501    0  0.00000000000E+00 -0.00000000000E+00 -0.18553570922E+04  0.18553570922E+04  0.25500000000E-02 0. -1.
   -5000001    1    1    2    0    0 -0.11277283319E+03 -0.20353195344E+03 -0.83993940812E+03  0.90672001042E+03  0.25000000000E+03 0.  0.
    5000001    1    1    2    0    0  0.11277283319E+03  0.20353195344E+03 -0.95233295438E+03  0.10117218116E+04  0.25000000000E+03 0.  0.
<mgrwt>
<rscale>  0 0.68423593E+03</rscale>
<asrwt>0</asrwt>
<pdfrwt beam="1">  1        2 0.28543951E+00 0.68423593E+03</pdfrwt>
<pdfrwt beam="2">  1       -2 0.97053444E-02 0.68423593E+03</pdfrwt>
<totfact> 0.59338211E+02</totfact>
</mgrwt>
</event>
<event>
 4    1  0.1773996E-005  0.6905035E+03  0.7818608E-02  0.9733612E-01
         -2   -1    0    0    0  501 -0.00000000000E+00  0.00000000000E+00  0.11743067843E+03  0.11743067846E+03  0.25500000000E-02 0.  1.
          2   -1    0    0  501    0  0.00000000000E+00 -0.00000000000E+00 -0.10150566211E+04  0.10150566211E+04  0.25500000000E-02 0. -1.
   -5000001    1    1    2    0    0 -0.14501942771E+03 -0.18853742956E+03 -0.46691281745E+03  0.58058985166E+03  0.25000000000E+03 0.  0.
    5000001    1    1    2    0    0  0.14501942771E+03  0.18853742956E+03 -0.43071312519E+03  0.55189744787E+03  0.25000000000E+03 0.  0.
<mgrwt>
<rscale>  0 0.69050355E+03</rscale>
<asrwt>0</asrwt>
<pdfrwt beam="1">  1        2 0.15616255E+00 0.69050355E+03</pdfrwt>
<pdfrwt beam="2">  1       -2 0.18066259E-01 0.69050355E+03</pdfrwt>
<totfact> 0.63228191E+02</totfact>
</mgrwt>
</event>
<event>
 4    1  0.1773996E-005  0.6110721E+03  0.7818608E-02  0.9882698E-01
         -2   -1    0    0    0  501 -0.00000000000E+00  0.00000000000E+00  0.47626885450E+02  0.47626885518E+02  0.25500000000E-02 0. -1.
          2   -1    0    0  501    0  0.00000000000E+00 -0.00000000000E+00 -0.19600753235E+04  0.19600753235E+04  0.25500000000E-02 0.  1.
   -5000001    1    1    2    0    0 -0.66139159844E+02 -0.76071056016E+02 -0.14288294272E+04  0.14540339494E+04  0.25000000000E+03 0.  0.
    5000001    1    1    2    0    0  0.66139159844E+02  0.76071056016E+02 -0.48361901080E+03  0.55366825955E+03  0.25000000000E+03 0.  0.
<mgrwt>
<rscale>  0 0.61107212E+03</rscale>
<asrwt>0</asrwt>
<pdfrwt beam="1">  1        2 0.30154999E+00 0.61107212E+03</pdfrwt>
<pdfrwt beam="2">  1       -2 0.73272147E-02 0.61107212E+03</pdfrwt>
<totfact> 0.82098293E+02</totfact>
</mgrwt>
</event>
<event>
 4    1  0.1773996E-005  0.6246425E+03  0.7818608E-02  0.9855560E-01
          2   -1    0    0  501    0  0.00000000000E+00  0.00000000000E+00  0.37804783777E+03  0.37804783778E+03  0.25500000000E-02 0.  1.
         -2   -1    0    0    0  501 -0.00000000000E+00 -0.00000000000E+00 -0.25802174016E+03  0.25802174017E+03  0.25500000000E-02 0. -1.
   -5000001    1    1    2    0    0  0.10213591126E+03  0.13456180581E+03 -0.22121906880E+02  0.30253595276E+03  0.25000000000E+03 0.  0.
    5000001    1    1    2    0    0 -0.10213591126E+03 -0.13456180581E+03  0.14214800449E+03  0.33353362519E+03  0.25000000000E+03 0.  0.
<mgrwt>
<rscale>  0 0.62464249E+03</rscale>
<asrwt>0</asrwt>
<pdfrwt beam="1">  1        2 0.58161206E-01 0.62464249E+03</pdfrwt>
<pdfrwt beam="2">  1       -2 0.39695652E-01 0.62464249E+03</pdfrwt>
<totfact> 0.51276188E+02</totfact>
</mgrwt>
</event>
<event>
 4    1  0.1773996E-005  0.5804494E+03  0.7818608E-02  0.9946818E-01
         -2   -1    0    0    0  501 -0.00000000000E+00  0.00000000000E+00  0.51320514427E+02  0.51320514490E+02  0.25500000000E-02 0. -1.
          2   -1    0    0  501    0  0.00000000000E+00 -0.00000000000E+00 -0.16412615672E+04  0.16412615672E+04  0.25500000000E-02 0.  1.
   -5000001    1    1    2    0    0 -0.32396023446E+02 -0.12505907028E+03 -0.10020078419E+04  0.10407732648E+04  0.25000000000E+03 0.  0.
    5000001    1    1    2    0    0  0.32396023446E+02  0.12505907028E+03 -0.58793321087E+03  0.65180881694E+03  0.25000000000E+03 0.  0.
<mgrwt>
<rscale>  0 0.58044944E+03</rscale>
<asrwt>0</asrwt>
<pdfrwt beam="1">  1        2 0.25250174E+00 0.58044944E+03</pdfrwt>
<pdfrwt beam="2">  1       -2 0.78954650E-02 0.58044944E+03</pdfrwt>
<totfact> 0.10871148E+03</totfact>
</mgrwt>
</event>
<event>
 4    1  0.1773996E-005  0.7036694E+03  0.7818608E-02  0.9710977E-01
          2   -1    0    0  501    0  0.00000000000E+00  0.00000000000E+00  0.39909385259E+04  0.39909385259E+04  0.25500000000E-02 0.  1.
         -2   -1    0    0    0  501 -0.00000000000E+00 -0.00000000000E+00 -0.31017182533E+02  0.31017182638E+02  0.25500000000E-02 0. -1.
   -5000001    1    1    2    0    0  0.18254658835E+03 -0.96037682229E+02  0.27624294378E+04  0.27813778766E+04  0.25000000000E+03 0.  0.
    5000001    1    1    2    0    0 -0.18254658835E+03  0.96037682229E+02  0.11974919055E+04  0.12405778319E+04  0.25000000000E+03 0.  0.
<mgrwt>
<rscale>  0 0.70366944E+03</rscale>
<asrwt>0</asrwt>
<pdfrwt beam="1">  1        2 0.61399085E+00 0.70366944E+03</pdfrwt>
<pdfrwt beam="2">  1       -2 0.47718719E-02 0.70366944E+03</pdfrwt>
<totfact> 0.85700574E+01</totfact>
</mgrwt>
</event>
<event>
 4    1  0.1773996E-005  0.7634593E+03  0.7818608E-02  0.9614468E-01
         -2   -1    0    0    0  501 -0.00000000000E+00  0.00000000000E+00  0.83952150615E+02  0.83952150653E+02  0.25500000000E-02 0. -1.
          2   -1    0    0  501    0  0.00000000000E+00 -0.00000000000E+00 -0.17357213427E+04  0.17357213427E+04  0.25500000000E-02 0.  1.
   -5000001    1    1    2    0    0  0.21876691561E+03 -0.98733579498E+02 -0.44445488163E+03  0.56360218673E+03  0.25000000000E+03 0.  0.
    5000001    1    1    2    0    0 -0.21876691561E+03  0.98733579498E+02 -0.12073143104E+04  0.12560713066E+04  0.25000000000E+03 0.  0.
<mgrwt>
<rscale>  0 0.76345934E+03</rscale>
<asrwt>0</asrwt>
<pdfrwt beam="1">  1        2 0.26703403E+00 0.76345934E+03</pdfrwt>
<pdfrwt beam="2">  1       -2 0.12915717E-01 0.76345934E+03</pdfrwt>
<totfact> 0.42890563E+02</totfact>
</mgrwt>
</event>
<event>
 4    1  0.1773996E-005  0.8151763E+03  0.7818608E-02  0.9538306E-01
          2   -1    0    0  501    0  0.00000000000E+00  0.00000000000E+00  0.26736725743E+04  0.26736725743E+04  0.25500000000E-02 0.  1.
         -2   -1    0    0    0  501 -0.00000000000E+00 -0.00000000000E+00 -0.62134788472E+02  0.62134788524E+02  0.25500000000E-02 0. -1.
   -5000001    1    1    2    0    0 -0.28109111818E+03 -0.13298018384E+03  0.15851953133E+04  0.16346376135E+04  0.25000000000E+03 0.  0.
    5000001    1    1    2    0    0  0.28109111818E+03  0.13298018384E+03  0.10263424725E+04  0.11011697494E+04  0.25000000000E+03 0.  0.
<mgrwt>
<rscale>  0 0.81517625E+03</rscale>
<asrwt>0</asrwt>
<pdfrwt beam="1">  1        2 0.41133424E+00 0.81517625E+03</pdfrwt>
<pdfrwt beam="2">  1       -2 0.95591983E-02 0.81517625E+03</pdfrwt>
<totfact> 0.21081196E+02</totfact>
</mgrwt>
</event>
<event>
 4    1  0.1773996E-005  0.6804658E+03  0.7818608E-02  0.9751234E-01
          2   -1    0    0  501    0  0.00000000000E+00  0.00000000000E+00  0.17923730064E+04  0.17923730065E+04  0.25500000000E-02 0.  1.
         -2   -1    0    0    0  501 -0.00000000000E+00 -0.00000000000E+00 -0.64583883370E+02  0.64583883420E+02  0.25500000000E-02 0. -1.
   -5000001    1    1    2    0    0 -0.13584556003E+03  0.14824108662E+03  0.11729892212E+04  0.12160728386E+04  0.25000000000E+03 0.  0.
    5000001    1    1    2    0    0  0.13584556003E+03 -0.14824108662E+03  0.55479990192E+03  0.64088405122E+03  0.25000000000E+03 0.  0.
<mgrwt>
<rscale>  0 0.68046575E+03</rscale>
<asrwt>0</asrwt>
<pdfrwt beam="1">  1        2 0.27574971E+00 0.68046575E+03</pdfrwt>
<pdfrwt beam="2">  1       -2 0.99359816E-02 0.68046575E+03</pdfrwt>
<totfact> 0.61817026E+02</totfact>
</mgrwt>
</event>
<event>
 4    1  0.1773996E-005  0.1142736E+04  0.7818608E-02  0.9164511E-01
          2   -1    0    0  501    0  0.00000000000E+00  0.00000000000E+00  0.86520053177E+03  0.86520053177E+03  0.25500000000E-02 0.  1.
         -2   -1    0    0    0  501 -0.00000000000E+00 -0.00000000000E+00 -0.37732460565E+03  0.37732460566E+03  0.25500000000E-02 0. -1.
   -5000001    1    1    2    0    0  0.29796551252E+03  0.40027048463E+03  0.11093925784E+03  0.56904079507E+03  0.25000000000E+03 0.  0.
    5000001    1    1    2    0    0 -0.29796551252E+03 -0.40027048463E+03  0.37693666827E+03  0.67348434237E+03  0.25000000000E+03 0.  0.
<mgrwt>
<rscale>  0 0.11427361E+04</rscale>
<asrwt>0</asrwt>
<pdfrwt beam="1">  1        2 0.13310777E+00 0.11427361E+04</pdfrwt>
<pdfrwt beam="2">  1       -2 0.58049939E-01 0.11427361E+04</pdfrwt>
<totfact> 0.85202266E+01</totfact>
</mgrwt>
</event>
<event>
 4    1  0.1773996E-005  0.6096716E+03  0.7818608E-02  0.9885541E-01
          2   -1    0    0  501    0  0.00000000000E+00  0.00000000000E+00  0.30243464698E+03  0.30243464699E+03  0.25500000000E-02 0.  1.
         -2   -1    0    0    0  501 -0.00000000000E+00 -0.00000000000E+00 -0.30725604396E+03  0.30725604397E+03  0.25500000000E-02 0. -1.
   -5000001    1    1    2    0    0  0.68050936669E+02  0.16057052211E+03  0.91365576704E+00  0.30481905668E+03  0.25000000000E+03 0.  0.
    5000001    1    1    2    0    0 -0.68050936669E+02 -0.16057052211E+03 -0.57350527484E+01  0.30487163427E+03  0.25000000000E+03 0.  0.
<mgrwt>
<rscale>  0 0.60967163E+03</rscale>
<asrwt>0</asrwt>
<pdfrwt beam="1">  1        2 0.46528407E-01 0.60967163E+03</pdfrwt>
<pdfrwt beam="2">  1       -2 0.47270161E-01 0.60967163E+03</pdfrwt>
<totfact> 0.46553940E+02</totfact>
</mgrwt>
</event>
<event>
 4    1  0.1773996E-005  0.5651707E+03  0.7818608E-02  0.9980423E-01
          2   -1    0    0  501    0  0.00000000000E+00  0.00000000000E+00  0.24326622069E+04  0.24326622069E+04  0.25500000000E-02 0.  1.
         -2   -1    0    0    0  501 -0.00000000000E+00 -0.00000000000E+00 -0.32825960983E+02  0.32825961082E+02  0.25500000000E-02 0. -1.
   -5000001    1    1    2    0    0  0.11858878197E+03  0.53717629317E+02  0.11120628288E+04  0.11472282328E+04  0.25000000000E+03 0.  0.
    5000001    1    1    2    0    0 -0.11858878197E+03 -0.53717629317E+02  0.12877734170E+04  0.13182599351E+04  0.25000000000E+03 0.  0.
<mgrwt>
<rscale>  0 0.56517068E+03</rscale>
<asrwt>0</asrwt>
<pdfrwt beam="1">  1        2 0.37425579E+00 0.56517068E+03</pdfrwt>
<pdfrwt beam="2">  1       -2 0.50501470E-02 0.56517068E+03</pdfrwt>
<totfact> 0.81345598E+02</totfact>
</mgrwt>
</event>
<event>
 4    1  0.1773996E-005  0.7489047E+03  0.7818608E-02  0.9637070E-01
          2   -1    0    0  501    0  0.00000000000E+00  0.00000000000E+00  0.13546480279E+04  0.13546480279E+04  0.25500000000E-02 0.  1.
         -2   -1    0    0    0  501 -0.00000000000E+00 -0.00000000000E+00 -0.10350627061E+03  0.10350627065E+03  0.25500000000E-02 0. -1.
   -5000001    1    1    2    0    0 -0.18639742791E+03 -0.13337932947E+03  0.93453585957E+03  0.99417871607E+03  0.25000000000E+03 0.  0.
    5000001    1    1    2    0    0  0.18639742791E+03  0.13337932947E+03  0.31660589770E+03  0.46397558246E+03  0.25000000000E+03 0.  0.
<mgrwt>
<rscale>  0 0.74890471E+03</rscale>
<asrwt>0</asrwt>
<pdfrwt beam="1">  1        2 0.20840738E+00 0.74890471E+03</pdfrwt>
<pdfrwt beam="2">  1       -2 0.15924042E-01 0.74890471E+03</pdfrwt>
<totfact> 0.49122932E+02</totfact>
</mgrwt>
</event>
<event>
 4    1  0.1773996E-005  0.5669627E+03  0.7818608E-02  0.9976422E-01
         -2   -1    0    0    0  501 -0.00000000000E+00  0.00000000000E+00  0.34554227906E+02  0.34554228000E+02  0.25500000000E-02 0. -1.
          2   -1    0    0  501    0  0.00000000000E+00 -0.00000000000E+00 -0.23256680378E+04  0.23256680378E+04  0.25500000000E-02 0.  1.
   -5000001    1    1    2    0    0  0.93717287656E+02 -0.94869973018E+02 -0.11824221123E+04  0.12158969091E+04  0.25000000000E+03 0.  0.
    5000001    1    1    2    0    0 -0.93717287656E+02  0.94869973018E+02 -0.11086916976E+04  0.11443253568E+04  0.25000000000E+03 0.  0.
<mgrwt>
<rscale>  0 0.56696266E+03</rscale>
<asrwt>0</asrwt>
<pdfrwt beam="1">  1        2 0.35779496E+00 0.56696266E+03</pdfrwt>
<pdfrwt beam="2">  1       -2 0.53160369E-02 0.56696266E+03</pdfrwt>
<totfact> 0.86103874E+02</totfact>
</mgrwt>
</event>
<event>
 4    1  0.1773996E-005  0.7990088E+03  0.7818608E-02  0.9561453E-01
         -2   -1    0    0    0  501 -0.00000000000E+00  0.00000000000E+00  0.47466412681E+02  0.47466412750E+02  0.25500000000E-02 0. -1.
          2   -1    0    0  501    0  0.00000000000E+00 -0.00000000000E+00 -0.33624569185E+04  0.33624569185E+04  0.25500000000E-02 0.  1.
   -5000001    1    1    2    0    0 -0.97441394071E+02 -0.29056007772E+03 -0.14166906230E+04  0.14708610761E+04  0.25000000000E+03 0.  0.
    5000001    1    1    2    0    0  0.97441394071E+02  0.29056007772E+03 -0.18982998828E+04  0.19390622551E+04  0.25000000000E+03 0.  0.
<mgrwt>
<rscale>  0 0.79900881E+03</rscale>
<asrwt>0</asrwt>
<pdfrwt beam="1">  1        2 0.51730088E+00 0.79900881E+03</pdfrwt>
<pdfrwt beam="2">  1       -2 0.73025277E-02 0.79900881E+03</pdfrwt>
<totfact> 0.12237793E+02</totfact>
</mgrwt>
</event>
<event>
 4    1  0.1773996E-005  0.6019668E+03  0.7818608E-02  0.9901334E-01
          2   -1    0    0  501    0  0.00000000000E+00  0.00000000000E+00  0.41307026429E+03  0.41307026429E+03  0.25500000000E-02 0.  1.
         -2   -1    0    0    0  501 -0.00000000000E+00 -0.00000000000E+00 -0.21931136993E+03  0.21931136995E+03  0.25500000000E-02 0. -1.
   -5000001    1    1    2    0    0  0.16501311130E+03 -0.12019134437E+02  0.68745373433E+02  0.30757066320E+03  0.25000000000E+03 0.  0.
    5000001    1    1    2    0    0 -0.16501311130E+03  0.12019134437E+02  0.12501352092E+03  0.32481097104E+03  0.25000000000E+03 0.  0.
<mgrwt>
<rscale>  0 0.60196679E+03</rscale>
<asrwt>0</asrwt>
<pdfrwt beam="1">  1        2 0.63549270E-01 0.60196679E+03</pdfrwt>
<pdfrwt beam="2">  1       -2 0.33740211E-01 0.60196679E+03</pdfrwt>
<totfact> 0.63397720E+02</totfact>
</mgrwt>
</event>
<event>
 4    1  0.1773996E-005  0.1387854E+04  0.7818608E-02  0.8962658E-01
          2   -1    0    0  501    0  0.00000000000E+00  0.00000000000E+00  0.19107848775E+04  0.19107848775E+04  0.25500000000E-02 0.  1.
         -2   -1    0    0    0  501 -0.00000000000E+00 -0.00000000000E+00 -0.25200884378E+03  0.25200884380E+03  0.25500000000E-02 0. -1.
   -5000001    1    1    2    0    0 -0.25716747996E+03 -0.59300387121E+03  0.88439622443E+03  0.11235859494E+04  0.25000000000E+03 0.  0.
    5000001    1    1    2    0    0  0.25716747996E+03  0.59300387121E+03  0.77437980925E+03  0.10392077718E+04  0.25000000000E+03 0.  0.
<mgrwt>
<rscale>  0 0.13878540E+04</rscale>
<asrwt>0</asrwt>
<pdfrwt beam="1">  1        2 0.29396691E+00 0.13878540E+04</pdfrwt>
<pdfrwt beam="2">  1       -2 0.38770590E-01 0.13878540E+04</pdfrwt>
<totfact> 0.45880559E+01</totfact>
</mgrwt>
</event>
<event>
 4    1  0.1773996E-005  0.5469987E+03  0.7818608E-02  0.1002191E+00
          2   -1    0    0  501    0  0.00000000000E+00  0.00000000000E+00  0.17666417272E+04  0.17666417272E+04  0.25500000000E-02 0.  1.
         -2   -1    0    0    0  501 -0.00000000000E+00 -0.00000000000E+00 -0.42341295228E+02  0.42341295305E+02  0.25500000000E-02 0. -1.
   -5000001    1    1    2    0    0  0.71808906145E+02 -0.41354763649E+02  0.11059618870E+04  0.11368898060E+04  0.25000000000E+03 0.  0.
    5000001    1    1    2    0    0 -0.71808906145E+02  0.41354763649E+02  0.61833854491E+03  0.67209321645E+03  0.25000000000E+03 0.  0.
<mgrwt>
<rscale>  0 0.54699872E+03</rscale>
<asrwt>0</asrwt>
<pdfrwt beam="1">  1        2 0.27179099E+00 0.54699872E+03</pdfrwt>
<pdfrwt beam="2">  1       -2 0.65140465E-02 0.54699872E+03</pdfrwt>
<totfact> 0.12622315E+03</totfact>
</mgrwt>
</event>
<event>
 4    1  0.1773996E-005  0.1047094E+04  0.7818608E-02  0.9258350E-01
         -2   -1    0    0    0  501 -0.00000000000E+00  0.00000000000E+00  0.22126621402E+03  0.22126621404E+03  0.25500000000E-02 0. -1.
          2   -1    0    0  501    0  0.00000000000E+00 -0.00000000000E+00 -0.12387856906E+04  0.12387856906E+04  0.25500000000E-02 0.  1.
   -5000001    1    1    2    0    0  0.21261037016E+03  0.33663860833E+03 -0.82999132178E+03  0.95389428993E+03  0.25000000000E+03 0.  0.
    5000001    1    1    2    0    0 -0.21261037016E+03 -0.33663860833E+03 -0.18752815483E+03  0.50615761475E+03  0.25000000000E+03 0.  0.
<mgrwt>
<rscale>  0 0.10470939E+04</rscale>
<asrwt>0</asrwt>
<pdfrwt beam="1">  1        2 0.19058241E+00 0.10470939E+04</pdfrwt>
<pdfrwt beam="2">  1       -2 0.34040957E-01 0.10470939E+04</pdfrwt>
<totfact> 0.14432235E+02</totfact>
</mgrwt>
</event>
<event>
 4    1  0.1773996E-005  0.1525955E+04  0.7818608E-02  0.8867375E-01
          2   -1    0    0  501    0  0.00000000000E+00  0.00000000000E+00  0.29091311951E+04  0.29091311951E+04  0.25500000000E-02 0.  1.
         -2   -1    0    0    0  501 -0.00000000000E+00 -0.00000000000E+00 -0.20010590378E+03  0.20010590380E+03  0.25500000000E-02 0. -1.
   -5000001    1    1    2    0    0 -0.71870976477E+03 -0.55399315820E+02  0.13450611190E+04  0.15463835954E+04  0.25000000000E+03 0.  0.
    5000001    1    1    2    0    0  0.71870976477E+03  0.55399315820E+02  0.13639641723E+04  0.15628535035E+04  0.25000000000E+03 0.  0.
<mgrwt>
<rscale>  0 0.15259546E+04</rscale>
<asrwt>0</asrwt>
<pdfrwt beam="1">  1        2 0.44755865E+00 0.15259546E+04</pdfrwt>
<pdfrwt beam="2">  1       -2 0.30785524E-01 0.15259546E+04</pdfrwt>
<totfact> 0.18796583E+01</totfact>
</mgrwt>
</event>
<event>
 4    1  0.1773996E-005  0.7926814E+03  0.7818608E-02  0.9570671E-01
         -2   -1    0    0    0  501 -0.00000000000E+00  0.00000000000E+00  0.33280107275E+03  0.33280107275E+03  0.25500000000E-02 0. -1.
          2   -1    0    0  501    0  0.00000000000E+00 -0.00000000000E+00 -0.47201154975E+03  0.47201154975E+03  0.25500000000E-02 0.  1.
   -5000001    1    1    2    0    0  0.30799150816E+02 -0.30486140388E+03 -0.42802618759E+02  0.39777019426E+03  0.25000000000E+03 0.  0.
    5000001    1    1    2    0    0 -0.30799150816E+02  0.30486140388E+03 -0.96407858243E+02  0.40704242825E+03  0.25000000000E+03 0.  0.
<mgrwt>
<rscale>  0 0.79268140E+03</rscale>
<asrwt>0</asrwt>
<pdfrwt beam="1">  1        2 0.72617162E-01 0.79268140E+03</pdfrwt>
<pdfrwt beam="2">  1       -2 0.51200165E-01 0.79268140E+03</pdfrwt>
<totfact> 0.23906948E+02</totfact>
</mgrwt>
</event>
<event>
 4    1  0.1773996E-005  0.8152440E+03  0.7818608E-02  0.9538210E-01
         -2   -1    0    0    0  501 -0.00000000000E+00  0.00000000000E+00  0.64119599046E+02  0.64119599097E+02  0.25500000000E-02 0. -1.
          2   -1    0    0  501    0  0.00000000000E+00 -0.00000000000E+00 -0.25913401768E+04  0.25913401768E+04  0.25500000000E-02 0.  1.
   -5000001    1    1    2    0    0 -0.21226546549E+03 -0.41086359591E+02 -0.48655819211E+03  0.58820369864E+03  0.25000000000E+03 0.  0.
    5000001    1    1    2    0    0  0.21226546549E+03  0.41086359591E+02 -0.20406623857E+04  0.20672560773E+04  0.25000000000E+03 0.  0.
<mgrwt>
<rscale>  0 0.81524400E+03</rscale>
<asrwt>0</asrwt>
<pdfrwt beam="1">  1        2 0.39866764E+00 0.81524400E+03</pdfrwt>
<pdfrwt beam="2">  1       -2 0.98645557E-02 0.81524400E+03</pdfrwt>
<totfact> 0.22349362E+02</totfact>
</mgrwt>
</event>
<event>
 4    1  0.1773996E-005  0.7263061E+03  0.7818608E-02  0.9673274E-01
          2   -1    0    0  501    0  0.00000000000E+00  0.00000000000E+00  0.16187320869E+04  0.16187320869E+04  0.25500000000E-02 0.  1.
         -2   -1    0    0    0  501 -0.00000000000E+00 -0.00000000000E+00 -0.81471262651E+02  0.81471262691E+02  0.25500000000E-02 0. -1.
   -5000001    1    1    2    0    0  0.75175144336E+02  0.84697138505E+02  0.21193507563E+03  0.34675839410E+03  0.25000000000E+03 0.  0.
    5000001    1    1    2    0    0 -0.75175144336E+02 -0.84697138505E+02  0.13253257486E+04  0.13534449555E+04  0.25000000000E+03 0.  0.
<mgrwt>
<rscale>  0 0.72630613E+03</rscale>
<asrwt>0</asrwt>
<pdfrwt beam="1">  1        2 0.24903570E+00 0.72630613E+03</pdfrwt>
<pdfrwt beam="2">  1       -2 0.12534041E-01 0.72630613E+03</pdfrwt>
<totfact> 0.52374074E+02</totfact>
</mgrwt>
</event>
<event>
 4    1  0.1773996E-005  0.9381822E+03  0.7818608E-02  0.9379071E-01
          2   -1    0    0  501    0  0.00000000000E+00  0.00000000000E+00  0.19541120406E+04  0.19541120406E+04  0.25500000000E-02 0.  1.
         -2   -1    0    0    0  501 -0.00000000000E+00 -0.00000000000E+00 -0.11260688066E+03  0.11260688069E+03  0.25500000000E-02 0. -1.
   -5000001    1    1    2    0    0  0.18740107739E+03 -0.34988971324E+03  0.92541843600E+03  0.10375168707E+04  0.25000000000E+03 0.  0.
    5000001    1    1    2    0    0 -0.18740107739E+03  0.34988971324E+03  0.91608672396E+03  0.10292020506E+04  0.25000000000E+03 0.  0.
<mgrwt>
<rscale>  0 0.93818220E+03</rscale>
<asrwt>0</asrwt>
<pdfrwt beam="1">  1        2 0.30063261E+00 0.93818220E+03</pdfrwt>
<pdfrwt beam="2">  1       -2 0.17324136E-01 0.93818220E+03</pdfrwt>
<totfact> 0.19564797E+02</totfact>
</mgrwt>
</event>
<event>
 4    1  0.1773996E-005  0.5484586E+03  0.7818608E-02  0.1001851E+00
         -2   -1    0    0    0  501 -0.00000000000E+00  0.00000000000E+00  0.11562020105E+03  0.11562020108E+03  0.25500000000E-02 0. -1.
          2   -1    0    0  501    0  0.00000000000E+00 -0.00000000000E+00 -0.65042021019E+03  0.65042021019E+03  0.25500000000E-02 0.  1.
   -5000001    1    1    2    0    0 -0.28419952565E+02  0.10675149507E+03 -0.29857336009E+03  0.40478343193E+03  0.25000000000E+03 0.  0.
    5000001    1    1    2    0    0  0.28419952565E+02 -0.10675149507E+03 -0.23622664904E+03  0.36125697934E+03  0.25000000000E+03 0.  0.
<mgrwt>
<rscale>  0 0.54845862E+03</rscale>
<asrwt>0</asrwt>
<pdfrwt beam="1">  1        2 0.10006465E+00 0.54845862E+03</pdfrwt>
<pdfrwt beam="2">  1       -2 0.17787724E-01 0.54845862E+03</pdfrwt>
<totfact> 0.11792332E+03</totfact>
</mgrwt>
</event>
<event>
 4    1  0.1773996E-005  0.7800718E+03  0.7818608E-02  0.9589319E-01
         -2   -1    0    0    0  501 -0.00000000000E+00  0.00000000000E+00  0.51784316665E+03  0.51784316665E+03  0.25500000000E-02 0. -1.
          2   -1    0    0  501    0  0.00000000000E+00 -0.00000000000E+00 -0.29377234902E+03  0.29377234903E+03  0.25500000000E-02 0.  1.
   -5000001    1    1    2    0    0  0.60711291005E+02 -0.27236688596E+03 -0.78567956758E+00  0.37466011092E+03  0.25000000000E+03 0.  0.
    5000001    1    1    2    0    0 -0.60711291005E+02  0.27236688596E+03  0.22485649720E+03  0.43695540477E+03  0.25000000000E+03 0.  0.
<mgrwt>
<rscale>  0 0.78007180E+03</rscale>
<asrwt>0</asrwt>
<pdfrwt beam="1">  1        2 0.45195747E-01 0.78007180E+03</pdfrwt>
<pdfrwt beam="2">  1       -2 0.79668179E-01 0.78007180E+03</pdfrwt>
<totfact> 0.15809896E+02</totfact>
</mgrwt>
</event>
<event>
 4    1  0.1773996E-005  0.1016037E+04  0.7818608E-02  0.9291129E-01
          2   -1    0    0  501    0  0.00000000000E+00  0.00000000000E+00  0.25940134845E+04  0.25940134845E+04  0.25500000000E-02 0.  1.
         -2   -1    0    0    0  501 -0.00000000000E+00 -0.00000000000E+00 -0.99491627959E+02  0.99491627991E+02  0.25500000000E-02 0. -1.
   -5000001    1    1    2    0    0  0.43482488787E+02 -0.42963321510E+03  0.99427240512E+03  0.11124536134E+04  0.25000000000E+03 0.  0.
    5000001    1    1    2    0    0 -0.43482488787E+02  0.42963321510E+03  0.15002494514E+04  0.15810514991E+04  0.25000000000E+03 0.  0.
<mgrwt>
<rscale>  0 0.10160367E+04</rscale>
<asrwt>0</asrwt>
<pdfrwt beam="1">  1        2 0.39907896E+00 0.10160367E+04</pdfrwt>
<pdfrwt beam="2">  1       -2 0.15306406E-01 0.10160367E+04</pdfrwt>
<totfact> 0.10526968E+02</totfact>
</mgrwt>
</event>
<event>
 4    1  0.1773996E-005  0.5766404E+03  0.7818608E-02  0.9955091E-01
         -2   -1    0    0    0  501 -0.00000000000E+00  0.00000000000E+00  0.13524743598E+03  0.13524743601E+03  0.25500000000E-02 0. -1.
          2   -1    0    0  501    0  0.00000000000E+00 -0.00000000000E+00 -0.61464048047E+03  0.61464048048E+03  0.25500000000E-02 0.  1.
   -5000001    1    1    2    0    0  0.14034570609E+03 -0.29095637997E+02 -0.25169134890E+03  0.38261208616E+03  0.25000000000E+03 0.  0.
    5000001    1    1    2    0    0 -0.14034570609E+03  0.29095637997E+02 -0.22770169559E+03  0.36727583032E+03  0.25000000000E+03 0.  0.
<mgrwt>
<rscale>  0 0.57664044E+03</rscale>
<asrwt>0</asrwt>
<pdfrwt beam="1">  1        2 0.94560072E-01 0.57664044E+03</pdfrwt>
<pdfrwt beam="2">  1       -2 0.20807298E-01 0.57664044E+03</pdfrwt>
<totfact> 0.96232286E+02</totfact>
</mgrwt>
</event>
<event>
 4    1  0.1773996E-005  0.1240544E+04  0.7818608E-02  0.9078091E-01
         -2   -1    0    0    0  501 -0.00000000000E+00  0.00000000000E+00  0.71692025924E+03  0.71692025925E+03  0.25500000000E-02 0. -1.
          2   -1    0    0  501    0  0.00000000000E+00 -0.00000000000E+00 -0.53665261980E+03  0.53665261981E+03  0.25500000000E-02 0.  1.
   -5000001    1    1    2    0    0 -0.26590942651E+03  0.46337597686E+03  0.28401352067E+03  0.65466693743E+03  0.25000000000E+03 0.  0.
    5000001    1    1    2    0    0  0.26590942651E+03 -0.46337597686E+03 -0.10374588123E+03  0.59890594162E+03  0.25000000000E+03 0.  0.
<mgrwt>
<rscale>  0 0.12405436E+04</rscale>
<asrwt>0</asrwt>
<pdfrwt beam="1">  1        2 0.82561942E-01 0.12405436E+04</pdfrwt>
<pdfrwt beam="2">  1       -2 0.11029542E+00 0.12405436E+04</pdfrwt>
<totfact> 0.36408535E+01</totfact>
</mgrwt>
</event>
<event>
 4    1  0.1773996E-005  0.5726209E+03  0.7818608E-02  0.9963896E-01
          2   -1    0    0  501    0  0.00000000000E+00  0.00000000000E+00  0.16939283552E+04  0.16939283552E+04  0.25500000000E-02 0.  1.
         -2   -1    0    0    0  501 -0.00000000000E+00 -0.00000000000E+00 -0.48392645125E+02  0.48392645193E+02  0.25500000000E-02 0. -1.
   -5000001    1    1    2    0    0 -0.89323135047E+02 -0.43493242451E+02  0.11209442376E+04  0.11527732944E+04  0.25000000000E+03 0.  0.
    5000001    1    1    2    0    0  0.89323135047E+02  0.43493242451E+02  0.52459147252E+03  0.58954770599E+03  0.25000000000E+03 0.  0.
<mgrwt>
<rscale>  0 0.57262090E+03</rscale>
<asrwt>0</asrwt>
<pdfrwt beam="1">  1        2 0.26060438E+00 0.57262090E+03</pdfrwt>
<pdfrwt beam="2">  1       -2 0.74450219E-02 0.57262090E+03</pdfrwt>
<totfact> 0.11177861E+03</totfact>
</mgrwt>
</event>
<event>
 4    1  0.1773996E-005  0.9688786E+03  0.7818608E-02  0.9343353E-01
         -2   -1    0    0    0  501 -0.00000000000E+00  0.00000000000E+00  0.23258717466E+03  0.23258717468E+03  0.25500000000E-02 0. -1.
          2   -1    0    0  501    0  0.00000000000E+00 -0.00000000000E+00 -0.10090040955E+04  0.10090040955E+04  0.25500000000E-02 0.  1.
   -5000001    1    1    2    0    0 -0.22038691869E+03  0.33098494378E+03 -0.23625809975E+03  0.52577496768E+03  0.25000000000E+03 0.  0.
    5000001    1    1    2    0    0  0.22038691869E+03 -0.33098494378E+03 -0.54015882108E+03  0.71581630250E+03  0.25000000000E+03 0.  0.
<mgrwt>
<rscale>  0 0.96887855E+03</rscale>
<asrwt>0</asrwt>
<pdfrwt beam="1">  1        2 0.15523140E+00 0.96887855E+03</pdfrwt>
<pdfrwt beam="2">  1       -2 0.35782643E-01 0.96887855E+03</pdfrwt>
<totfact> 0.18225593E+02</totfact>
</mgrwt>
</event>
<event>
 4    1  0.1773996E-005  0.6105086E+03  0.7818608E-02  0.9883841E-01
         -2   -1    0    0    0  501 -0.00000000000E+00  0.00000000000E+00  0.16088876032E+03  0.16088876034E+03  0.25500000000E-02 0. -1.
          2   -1    0    0  501    0  0.00000000000E+00 -0.00000000000E+00 -0.57915908378E+03  0.57915908379E+03  0.25500000000E-02 0.  1.
   -5000001    1    1    2    0    0 -0.13011680127E+03  0.87126681055E+02 -0.11400588879E+03  0.31625746347E+03  0.25000000000E+03 0.  0.
    5000001    1    1    2    0    0  0.13011680127E+03 -0.87126681055E+02 -0.30426443468E+03  0.42379038066E+03  0.25000000000E+03 0.  0.
<mgrwt>
<rscale>  0 0.61050860E+03</rscale>
<asrwt>0</asrwt>
<pdfrwt beam="1">  1        2 0.89101396E-01 0.61050860E+03</pdfrwt>
<pdfrwt beam="2">  1       -2 0.24752117E-01 0.61050860E+03</pdfrwt>
<totfact> 0.75921032E+02</totfact>
</mgrwt>
</event>
<event>
 4    1  0.1773996E-005  0.6734284E+03  0.7818608E-02  0.9763784E-01
          2   -1    0    0  501    0  0.00000000000E+00  0.00000000000E+00  0.24337985581E+04  0.24337985581E+04  0.25500000000E-02 0.  1.
         -2   -1    0    0    0  501 -0.00000000000E+00 -0.00000000000E+00 -0.46584152834E+02  0.46584152904E+02  0.25500000000E-02 0. -1.
   -5000001    1    1    2    0    0 -0.20745363360E+03 -0.49803592590E+02  0.14632387025E+04  0.14996949385E+04  0.25000000000E+03 0.  0.
    5000001    1    1    2    0    0  0.20745363360E+03  0.49803592590E+02  0.92397570274E+03  0.98068777253E+03  0.25000000000E+03 0.  0.
<mgrwt>
<rscale>  0 0.67342838E+03</rscale>
<asrwt>0</asrwt>
<pdfrwt beam="1">  1        2 0.37443069E+00 0.67342838E+03</pdfrwt>
<pdfrwt beam="2">  1       -2 0.71667900E-02 0.67342838E+03</pdfrwt>
<totfact> 0.46480738E+02</totfact>
</mgrwt>
</event>
<event>
 4    1  0.1773996E-005  0.8349226E+03  0.7818608E-02  0.9510800E-01
         -2   -1    0    0    0  501 -0.00000000000E+00  0.00000000000E+00  0.63507861366E+02  0.63507861417E+02  0.25500000000E-02 0. -1.
          2   -1    0    0  501    0  0.00000000000E+00 -0.00000000000E+00 -0.27441316328E+04  0.27441316328E+04  0.25500000000E-02 0.  1.
   -5000001    1    1    2    0    0  0.21683725619E+03  0.24921588603E+03 -0.15133215196E+04  0.15690025415E+04  0.25000000000E+03 0.  0.
    5000001    1    1    2    0    0 -0.21683725619E+03 -0.24921588603E+03 -0.11673022519E+04  0.12386369527E+04  0.25000000000E+03 0.  0.
<mgrwt>
<rscale>  0 0.83492259E+03</rscale>
<asrwt>0</asrwt>
<pdfrwt beam="1">  1        2 0.42217401E+00 0.83492259E+03</pdfrwt>
<pdfrwt beam="2">  1       -2 0.97704423E-02 0.83492259E+03</pdfrwt>
<totfact> 0.18468571E+02</totfact>
</mgrwt>
</event>
<event>
 4    1  0.1773996E-005  0.9548958E+03  0.7818608E-02  0.9359446E-01
         -2   -1    0    0    0  501 -0.00000000000E+00  0.00000000000E+00  0.14726128235E+03  0.14726128238E+03  0.25500000000E-02 0. -1.
          2   -1    0    0  501    0  0.00000000000E+00 -0.00000000000E+00 -0.15479731779E+04  0.15479731779E+04  0.25500000000E-02 0.  1.
   -5000001    1    1    2    0    0  0.23598173390E+03  0.14717930310E+03 -0.12273187235E+04  0.12830278153E+04  0.25000000000E+03 0.  0.
    5000001    1    1    2    0    0 -0.23598173390E+03 -0.14717930310E+03 -0.17339317208E+03  0.41220664492E+03  0.25000000000E+03 0.  0.
<mgrwt>
<rscale>  0 0.95489584E+03</rscale>
<asrwt>0</asrwt>
<pdfrwt beam="1">  1        2 0.23814971E+00 0.95489584E+03</pdfrwt>
<pdfrwt beam="2">  1       -2 0.22655583E-01 0.95489584E+03</pdfrwt>
<totfact> 0.20438909E+02</totfact>
</mgrwt>
</event>
<event>
 4    1  0.1773996E-005  0.6017405E+03  0.7818608E-02  0.9901802E-01
         -2   -1    0    0    0  501 -0.00000000000E+00  0.00000000000E+00  0.24015044920E+03  0.24015044921E+03  0.25500000000E-02 0. -1.
          2   -1    0    0  501    0  0.00000000000E+00 -0.00000000000E+00 -0.37694247905E+03  0.37694247906E+03  0.25500000000E-02 0.  1.
   -5000001    1    1    2    0    0  0.11367959628E+03 -0.46476834939E+02 -0.18505130093E+03  0.33440563807E+03  0.25000000000E+03 0.  0.
    5000001    1    1    2    0    0 -0.11367959628E+03  0.46476834939E+02  0.48259271080E+02  0.28268729020E+03  0.25000000000E+03 0.  0.
<mgrwt>
<rscale>  0 0.60174049E+03</rscale>
<asrwt>0</asrwt>
<pdfrwt beam="1">  1        2 0.57991151E-01 0.60174049E+03</pdfrwt>
<pdfrwt beam="2">  1       -2 0.36946223E-01 0.60174049E+03</pdfrwt>
<totfact> 0.59103925E+02</totfact>
</mgrwt>
</event>
<event>
 4    1  0.1773996E-005  0.7023123E+03  0.7818608E-02  0.9713286E-01
         -2   -1    0    0    0  501 -0.00000000000E+00  0.00000000000E+00  0.86871043255E+03  0.86871043255E+03  0.25500000000E-02 0.  1.
          2   -1    0    0  501    0  0.00000000000E+00 -0.00000000000E+00 -0.14194679015E+03  0.14194679018E+03  0.25500000000E-02 0. -1.
   -5000001    1    1    2    0    0 -0.22352057127E+03 -0.85634362417E+02  0.27805294638E+03  0.44396861465E+03  0.25000000000E+03 0.  0.
    5000001    1    1    2    0    0  0.22352057127E+03  0.85634362417E+02  0.44871069601E+03  0.56668860808E+03  0.25000000000E+03 0.  0.
<mgrwt>
<rscale>  0 0.70231235E+03</rscale>
<asrwt>0</asrwt>
<pdfrwt beam="1">  1        2 0.21837968E-01 0.70231235E+03</pdfrwt>
<pdfrwt beam="2">  1       -2 0.13364776E+00 0.70231235E+03</pdfrwt>
<totfact> 0.10497388E+02</totfact>
</mgrwt>
</event>
<event>
 4    1  0.1773996E-005  0.9255088E+03  0.7818608E-02  0.9394244E-01
         -2   -1    0    0    0  501 -0.00000000000E+00  0.00000000000E+00  0.75070341090E+03  0.75070341090E+03  0.25500000000E-02 0. -1.
          2   -1    0    0  501    0  0.00000000000E+00 -0.00000000000E+00 -0.28525462515E+03  0.28525462516E+03  0.25500000000E-02 0.  1.
   -5000001    1    1    2    0    0  0.24539022347E+03  0.22076739557E+03  0.46398918530E+03  0.62188469092E+03  0.25000000000E+03 0.  0.
    5000001    1    1    2    0    0 -0.24539022347E+03 -0.22076739557E+03  0.14596004498E+01  0.41407334514E+03  0.25000000000E+03 0.  0.
<mgrwt>
<rscale>  0 0.92550877E+03</rscale>
<asrwt>0</asrwt>
<pdfrwt beam="1">  1        2 0.43885327E-01 0.92550877E+03</pdfrwt>
<pdfrwt beam="2">  1       -2 0.11549283E+00 0.92550877E+03</pdfrwt>
<totfact> 0.67890483E+01</totfact>
</mgrwt>
</event>
<event>
 4    1  0.1773996E-005  0.5839015E+03  0.7818608E-02  0.9939380E-01
         -2   -1    0    0    0  501 -0.00000000000E+00  0.00000000000E+00  0.16227766378E+03  0.16227766380E+03  0.25500000000E-02 0. -1.
          2   -1    0    0  501    0  0.00000000000E+00 -0.00000000000E+00 -0.52524327922E+03  0.52524327923E+03  0.25500000000E-02 0.  1.
   -5000001    1    1    2    0    0  0.63094905442E+02  0.86345738028E+02 -0.56324257187E+02  0.27768502933E+03  0.25000000000E+03 0.  0.
    5000001    1    1    2    0    0 -0.63094905442E+02 -0.86345738028E+02 -0.30664135825E+03  0.40983591370E+03  0.25000000000E+03 0.  0.
<mgrwt>
<rscale>  0 0.58390154E+03</rscale>
<asrwt>0</asrwt>
<pdfrwt beam="1">  1        2 0.80806658E-01 0.58390154E+03</pdfrwt>
<pdfrwt beam="2">  1       -2 0.24965795E-01 0.58390154E+03</pdfrwt>
<totfact> 0.83892657E+02</totfact>
</mgrwt>
</event>
<event>
 4    1  0.1773996E-005  0.6249677E+03  0.7818608E-02  0.9854918E-01
          2   -1    0    0  501    0  0.00000000000E+00  0.00000000000E+00  0.39416403287E+03  0.39416403287E+03  0.25500000000E-02 0.  1.
         -2   -1    0    0    0  501 -0.00000000000E+00 -0.00000000000E+00 -0.24772978435E+03  0.24772978436E+03  0.25500000000E-02 0. -1.
   -5000001    1    1    2    0    0 -0.87855335265E+01  0.12537347826E+03 -0.69656287933E+02  0.28835341700E+03  0.25000000000E+03 0.  0.
    5000001    1    1    2    0    0  0.87855335265E+01 -0.12537347826E+03  0.21609053645E+03  0.35354040023E+03  0.25000000000E+03 0.  0.
<mgrwt>
<rscale>  0 0.62496775E+03</rscale>
<asrwt>0</asrwt>
<pdfrwt beam="1">  1        2 0.60640620E-01 0.62496775E+03</pdfrwt>
<pdfrwt beam="2">  1       -2 0.38112275E-01 0.62496775E+03</pdfrwt>
<totfact> 0.52948185E+02</totfact>
</mgrwt>
</event>
<event>
 4    1  0.1773996E-005  0.7452014E+03  0.7818608E-02  0.9642909E-01
          2   -1    0    0  501    0  0.00000000000E+00  0.00000000000E+00  0.14795678387E+04  0.14795678387E+04  0.25500000000E-02 0.  1.
         -2   -1    0    0    0  501 -0.00000000000E+00 -0.00000000000E+00 -0.93832319418E+02  0.93832319452E+02  0.25500000000E-02 0. -1.
   -5000001    1    1    2    0    0 -0.27140142938E+01  0.25343347094E+03  0.46066065642E+03  0.58218908479E+03  0.25000000000E+03 0.  0.
    5000001    1    1    2    0    0  0.27140142938E+01 -0.25343347094E+03  0.92507486283E+03  0.99121107334E+03  0.25000000000E+03 0.  0.
<mgrwt>
<rscale>  0 0.74520140E+03</rscale>
<asrwt>0</asrwt>
<pdfrwt beam="1">  1        2 0.22762580E+00 0.74520140E+03</pdfrwt>
<pdfrwt beam="2">  1       -2 0.14435743E-01 0.74520140E+03</pdfrwt>
<totfact> 0.49329753E+02</totfact>
</mgrwt>
</event>
<event>
 4    1  0.1773996E-005  0.7392286E+03  0.7818608E-02  0.9652402E-01
         -2   -1    0    0    0  501 -0.00000000000E+00  0.00000000000E+00  0.29303637864E+03  0.29303637865E+03  0.25500000000E-02 0. -1.
          2   -1    0    0  501    0  0.00000000000E+00 -0.00000000000E+00 -0.46620398945E+03  0.46620398946E+03  0.25500000000E-02 0.  1.
   -5000001    1    1    2    0    0 -0.26118967771E+03 -0.33103801183E+02 -0.15434979817E+02  0.36339255358E+03  0.25000000000E+03 0.  0.
    5000001    1    1    2    0    0  0.26118967771E+03  0.33103801183E+02 -0.15773263099E+03  0.39584781454E+03  0.25000000000E+03 0.  0.
<mgrwt>
<rscale>  0 0.73922859E+03</rscale>
<asrwt>0</asrwt>
<pdfrwt beam="1">  1        2 0.71723691E-01 0.73922859E+03</pdfrwt>
<pdfrwt beam="2">  1       -2 0.45082520E-01 0.73922859E+03</pdfrwt>
<totfact> 0.31411968E+02</totfact>
</mgrwt>
</event>
<event>
 4    1  0.1773996E-005  0.7487470E+03  0.7818608E-02  0.9637318E-01
         -2   -1    0    0    0  501 -0.00000000000E+00  0.00000000000E+00  0.13617396907E+03  0.13617396910E+03  0.25500000000E-02 0. -1.
          2   -1    0    0  501    0  0.00000000000E+00 -0.00000000000E+00 -0.10292387752E+04  0.10292387752E+04  0.25500000000E-02 0.  1.
   -5000001    1    1    2    0    0 -0.56746915134E+02 -0.10940783910E+03 -0.57519630052E+02  0.28460287327E+03  0.25000000000E+03 0.  0.
    5000001    1    1    2    0    0  0.56746915134E+02  0.10940783910E+03 -0.83554517606E+03  0.88080987101E+03  0.25000000000E+03 0.  0.
<mgrwt>
<rscale>  0 0.74874703E+03</rscale>
<asrwt>0</asrwt>
<pdfrwt beam="1">  1        2 0.15834442E+00 0.74874703E+03</pdfrwt>
<pdfrwt beam="2">  1       -2 0.20949842E-01 0.74874703E+03</pdfrwt>
<totfact> 0.47741059E+02</totfact>
</mgrwt>
</event>
<event>
 4    1  0.1773996E-005  0.8601400E+03  0.7818608E-02  0.9476828E-01
          2   -1    0    0  501    0  0.00000000000E+00  0.00000000000E+00  0.15288726095E+04  0.15288726095E+04  0.25500000000E-02 0.  1.
         -2   -1    0    0    0  501 -0.00000000000E+00 -0.00000000000E+00 -0.12097817233E+03  0.12097817236E+03  0.25500000000E-02 0. -1.
   -5000001    1    1    2    0    0 -0.15005323951E+03 -0.31347510399E+03  0.78251048481E+03  0.89196708143E+03  0.25000000000E+03 0.  0.
    5000001    1    1    2    0    0  0.15005323951E+03  0.31347510399E+03  0.62538395238E+03  0.75788370045E+03  0.25000000000E+03 0.  0.
<mgrwt>
<rscale>  0 0.86014002E+03</rscale>
<asrwt>0</asrwt>
<pdfrwt beam="1">  1        2 0.23521117E+00 0.86014002E+03</pdfrwt>
<pdfrwt beam="2">  1       -2 0.18612027E-01 0.86014002E+03</pdfrwt>
<totfact> 0.29785518E+02</totfact>
</mgrwt>
</event>
<event>
 4    1  0.1773996E-005  0.8023789E+03  0.7818608E-02  0.9556580E-01
         -2   -1    0    0    0  501 -0.00000000000E+00  0.00000000000E+00  0.79897290465E+02  0.79897290505E+02  0.25500000000E-02 0. -1.
          2   -1    0    0  501    0  0.00000000000E+00 -0.00000000000E+00 -0.20144983244E+04  0.20144983244E+04  0.25500000000E-02 0.  1.
   -5000001    1    1    2    0    0 -0.77283692428E+02 -0.29618690825E+03 -0.11472647412E+04  0.12134314320E+04  0.25000000000E+03 0.  0.
    5000001    1    1    2    0    0  0.77283692428E+02  0.29618690825E+03 -0.78733629277E+03  0.88096418296E+03  0.25000000000E+03 0.  0.
<mgrwt>
<rscale>  0 0.80237886E+03</rscale>
<asrwt>0</asrwt>
<pdfrwt beam="1">  1        2 0.30992278E+00 0.80237886E+03</pdfrwt>
<pdfrwt beam="2">  1       -2 0.12291892E-01 0.80237886E+03</pdfrwt>
<totfact> 0.32712633E+02</totfact>
</mgrwt>
</event>
<event>
 4    1  0.1773996E-005  0.5817463E+03  0.7818608E-02  0.9944017E-01
          2   -1    0    0  501    0  0.00000000000E+00  0.00000000000E+00  0.25664058941E+04  0.25664058941E+04  0.25500000000E-02 0.  1.
         -2   -1    0    0    0  501 -0.00000000000E+00 -0.00000000000E+00 -0.32967191151E+02  0.32967191250E+02  0.25500000000E-02 0. -1.
   -5000001    1    1    2    0    0  0.11416983275E+03 -0.45935513075E+02  0.89388700808E+03  0.93631127585E+03  0.25000000000E+03 0.  0.
    5000001    1    1    2    0    0 -0.11416983275E+03  0.45935513075E+02  0.16395516949E+04  0.16630618095E+04  0.25000000000E+03 0.  0.
<mgrwt>
<rscale>  0 0.58174632E+03</rscale>
<asrwt>0</asrwt>
<pdfrwt beam="1">  1        2 0.39483178E+00 0.58174632E+03</pdfrwt>
<pdfrwt beam="2">  1       -2 0.50718743E-02 0.58174632E+03</pdfrwt>
<totfact> 0.67856264E+02</totfact>
</mgrwt>
</event>
<event>
 4    1  0.1773996E-005  0.5976153E+03  0.7818608E-02  0.9910366E-01
          2   -1    0    0  501    0  0.00000000000E+00  0.00000000000E+00  0.60587350696E+03  0.60587350697E+03  0.25500000000E-02 0.  1.
         -2   -1    0    0    0  501 -0.00000000000E+00 -0.00000000000E+00 -0.14736742963E+03  0.14736742966E+03  0.25500000000E-02 0. -1.
   -5000001    1    1    2    0    0 -0.12967928611E+03  0.76089592022E+02  0.14776692524E+03  0.32701897109E+03  0.25000000000E+03 0.  0.
    5000001    1    1    2    0    0  0.12967928611E+03 -0.76089592022E+02  0.31073915209E+03  0.42622196553E+03  0.25000000000E+03 0.  0.
<mgrwt>
<rscale>  0 0.59761533E+03</rscale>
<asrwt>0</asrwt>
<pdfrwt beam="1">  1        2 0.93211307E-01 0.59761533E+03</pdfrwt>
<pdfrwt beam="2">  1       -2 0.22671913E-01 0.59761533E+03</pdfrwt>
<totfact> 0.84148899E+02</totfact>
</mgrwt>
</event>
<event>
 4    1  0.1773996E-005  0.8760019E+03  0.7818608E-02  0.9456088E-01
          2   -1    0    0  501    0  0.00000000000E+00  0.00000000000E+00  0.15559474864E+03  0.15559474866E+03  0.25500000000E-02 0.  1.
         -2   -1    0    0    0  501 -0.00000000000E+00 -0.00000000000E+00 -0.12329776477E+04  0.12329776477E+04  0.25500000000E-02 0. -1.
   -5000001    1    1    2    0    0 -0.32922807249E+03  0.10951757831E+03 -0.68873189425E+03  0.81070145296E+03  0.25000000000E+03 0.  0.
    5000001    1    1    2    0    0  0.32922807249E+03 -0.10951757831E+03 -0.38865100476E+03  0.57787094336E+03  0.25000000000E+03 0.  0.
<mgrwt>
<rscale>  0 0.87600193E+03</rscale>
<asrwt>0</asrwt>
<pdfrwt beam="1">  1        2 0.23937654E-01 0.87600193E+03</pdfrwt>
<pdfrwt beam="2">  1       -2 0.18968886E+00 0.87600193E+03</pdfrwt>
<totfact> 0.36153556E+01</totfact>
</mgrwt>
</event>
<event>
 4    1  0.1773996E-005  0.5912386E+03  0.7818608E-02  0.9923752E-01
          2   -1    0    0  501    0  0.00000000000E+00  0.00000000000E+00  0.27065915674E+04  0.27065915674E+04  0.25500000000E-02 0.  1.
         -2   -1    0    0    0  501 -0.00000000000E+00 -0.00000000000E+00 -0.32288122559E+02  0.32288122659E+02  0.25500000000E-02 0. -1.
   -5000001    1    1    2    0    0  0.53032580910E+02  0.13124206912E+03  0.16598913249E+04  0.16845700181E+04  0.25000000000E+03 0.  0.
    5000001    1    1    2    0    0 -0.53032580910E+02 -0.13124206912E+03  0.10144121200E+04  0.10543096720E+04  0.25000000000E+03 0.  0.
<mgrwt>
<rscale>  0 0.59123857E+03</rscale>
<asrwt>0</asrwt>
<pdfrwt beam="1">  1        2 0.41639871E+00 0.59123857E+03</pdfrwt>
<pdfrwt beam="2">  1       -2 0.49674034E-02 0.59123857E+03</pdfrwt>
<totfact> 0.58199930E+02</totfact>
</mgrwt>
</event>
<event>
 4    1  0.1773996E-005  0.8224132E+03  0.7818608E-02  0.9528130E-01
          2   -1    0    0  501    0  0.00000000000E+00  0.00000000000E+00  0.15064290637E+04  0.15064290637E+04  0.25500000000E-02 0.  1.
         -2   -1    0    0    0  501 -0.00000000000E+00 -0.00000000000E+00 -0.11224615432E+03  0.11224615435E+03  0.25500000000E-02 0. -1.
   -5000001    1    1    2    0    0  0.93169450132E+02 -0.28472779268E+03  0.95250618073E+03  0.10293291440E+04  0.25000000000E+03 0.  0.
    5000001    1    1    2    0    0 -0.93169450132E+02  0.28472779268E+03  0.44167672866E+03  0.58934607406E+03  0.25000000000E+03 0.  0.
<mgrwt>
<rscale>  0 0.82241320E+03</rscale>
<asrwt>0</asrwt>
<pdfrwt beam="1">  1        2 0.23175830E+00 0.82241320E+03</pdfrwt>
<pdfrwt beam="2">  1       -2 0.17268640E-01 0.82241320E+03</pdfrwt>
<totfact> 0.34974080E+02</totfact>
</mgrwt>
</event>
<event>
 4    1  0.1773996E-005  0.7739249E+03  0.7818608E-02  0.9598546E-01
          2   -1    0    0  501    0  0.00000000000E+00  0.00000000000E+00  0.48605504316E+03  0.48605504317E+03  0.25500000000E-02 0.  1.
         -2   -1    0    0    0  501 -0.00000000000E+00 -0.00000000000E+00 -0.30807199959E+03  0.30807199960E+03  0.25500000000E-02 0. -1.
   -5000001    1    1    2    0    0  0.26872449839E+03 -0.22423208558E+02 -0.34671155932E+02  0.36934772962E+03  0.25000000000E+03 0.  0.
    5000001    1    1    2    0    0 -0.26872449839E+03  0.22423208558E+02  0.21265419950E+03  0.42477931316E+03  0.25000000000E+03 0.  0.
<mgrwt>
<rscale>  0 0.77392493E+03</rscale>
<asrwt>0</asrwt>
<pdfrwt beam="1">  1        2 0.74777699E-01 0.77392493E+03</pdfrwt>
<pdfrwt beam="2">  1       -2 0.47395693E-01 0.77392493E+03</pdfrwt>
<totfact> 0.27051766E+02</totfact>
</mgrwt>
</event>
<event>
 4    1  0.1773996E-005  0.6080988E+03  0.7818608E-02  0.9888745E-01
          2   -1    0    0  501    0  0.00000000000E+00  0.00000000000E+00  0.74261903437E+03  0.74261903438E+03  0.25500000000E-02 0.  1.
         -2   -1    0    0    0  501 -0.00000000000E+00 -0.00000000000E+00 -0.12448650233E+03  0.12448650235E+03  0.25500000000E-02 0. -1.
   -5000001    1    1    2    0    0 -0.14324765414E+03 -0.54669118816E+02  0.42347376660E+03  0.51511031242E+03  0.25000000000E+03 0.  0.
    5000001    1    1    2    0    0  0.14324765414E+03  0.54669118816E+02  0.19465876545E+03  0.35199522431E+03  0.25000000000E+03 0.  0.
<mgrwt>
<rscale>  0 0.60809883E+03</rscale>
<asrwt>0</asrwt>
<pdfrwt beam="1">  1        2 0.11424908E+00 0.60809883E+03</pdfrwt>
<pdfrwt beam="2">  1       -2 0.19151770E-01 0.60809883E+03</pdfrwt>
<totfact> 0.87898130E+02</totfact>
</mgrwt>
</event>
<event>
 4    1  0.1773996E-005  0.5762011E+03  0.7818608E-02  0.9956049E-01
          2   -1    0    0  501    0  0.00000000000E+00  0.00000000000E+00  0.11974692128E+04  0.11974692128E+04  0.25500000000E-02 0.  1.
         -2   -1    0    0    0  501 -0.00000000000E+00 -0.00000000000E+00 -0.69314467113E+02  0.69314467160E+02  0.25500000000E-02 0. -1.
   -5000001    1    1    2    0    0 -0.49361226647E+02 -0.12935442529E+03  0.64434080671E+03  0.70487174239E+03  0.25000000000E+03 0.  0.
    5000001    1    1    2    0    0  0.49361226647E+02  0.12935442529E+03  0.48381393902E+03  0.56191193761E+03  0.25000000000E+03 0.  0.
<mgrwt>
<rscale>  0 0.57620115E+03</rscale>
<asrwt>0</asrwt>
<pdfrwt beam="1">  1        2 0.18422603E+00 0.57620115E+03</pdfrwt>
<pdfrwt beam="2">  1       -2 0.10663764E-01 0.57620115E+03</pdfrwt>
<totfact> 0.11886577E+03</totfact>
</mgrwt>
</event>
<event>
 4    1  0.1773996E-005  0.7516308E+03  0.7818608E-02  0.9632795E-01
          2   -1    0    0  501    0  0.00000000000E+00  0.00000000000E+00  0.25874712404E+04  0.25874712404E+04  0.25500000000E-02 0.  1.
         -2   -1    0    0    0  501 -0.00000000000E+00 -0.00000000000E+00 -0.54585033560E+02  0.54585033620E+02  0.25500000000E-02 0. -1.
   -5000001    1    1    2    0    0  0.15862517134E+03 -0.22778234796E+03  0.14109671653E+04  0.14595804481E+04  0.25000000000E+03 0.  0.
    5000001    1    1    2    0    0 -0.15862517134E+03  0.22778234796E+03  0.11219190415E+04  0.11824758258E+04  0.25000000000E+03 0.  0.
<mgrwt>
<rscale>  0 0.75163077E+03</rscale>
<asrwt>0</asrwt>
<pdfrwt beam="1">  1        2 0.39807248E+00 0.75163077E+03</pdfrwt>
<pdfrwt beam="2">  1       -2 0.83976979E-02 0.75163077E+03</pdfrwt>
<totfact> 0.29320183E+02</totfact>
</mgrwt>
</event>
<event>
 4    1  0.1773996E-005  0.5786480E+03  0.7818608E-02  0.9950722E-01
         -2   -1    0    0    0  501 -0.00000000000E+00  0.00000000000E+00  0.13368525570E+03  0.13368525573E+03  0.25500000000E-02 0. -1.
          2   -1    0    0  501    0  0.00000000000E+00 -0.00000000000E+00 -0.62616017818E+03  0.62616017818E+03  0.25500000000E-02 0.  1.
   -5000001    1    1    2    0    0 -0.81620807656E+02 -0.17938616873E+02 -0.40285172914E+03  0.48142836008E+03  0.25000000000E+03 0.  0.
    5000001    1    1    2    0    0  0.81620807656E+02  0.17938616873E+02 -0.89623193331E+02  0.27841707383E+03  0.25000000000E+03 0.  0.
<mgrwt>
<rscale>  0 0.57864802E+03</rscale>
<asrwt>0</asrwt>
<pdfrwt beam="1">  1        2 0.96332333E-01 0.57864802E+03</pdfrwt>
<pdfrwt beam="2">  1       -2 0.20566963E-01 0.57864802E+03</pdfrwt>
<totfact> 0.96027809E+02</totfact>
</mgrwt>
</event>
<event>
 4    1  0.1773996E-005  0.9279672E+03  0.7818608E-02  0.9391281E-01
          2   -1    0    0  501    0  0.00000000000E+00  0.00000000000E+00  0.12190332637E+04  0.12190332638E+04  0.25500000000E-02 0.  1.
         -2   -1    0    0    0  501 -0.00000000000E+00 -0.00000000000E+00 -0.17659960759E+03  0.17659960761E+03  0.25500000000E-02 0. -1.
   -5000001    1    1    2    0    0  0.28649117188E+03 -0.38366817575E+02  0.12549436152E+03  0.40224126967E+03  0.25000000000E+03 0.  0.
    5000001    1    1    2    0    0 -0.28649117188E+03  0.38366817575E+02  0.91693929464E+03  0.99339160169E+03  0.25000000000E+03 0.  0.
<mgrwt>
<rscale>  0 0.92796723E+03</rscale>
<asrwt>0</asrwt>
<pdfrwt beam="1">  1        2 0.18754357E+00 0.92796723E+03</pdfrwt>
<pdfrwt beam="2">  1       -2 0.27169171E-01 0.92796723E+03</pdfrwt>
<totfact> 0.22738526E+02</totfact>
</mgrwt>
</event>
<event>
 4    1  0.1773996E-005  0.8838372E+03  0.7818608E-02  0.9446014E-01
         -2   -1    0    0    0  501 -0.00000000000E+00  0.00000000000E+00  0.14335283104E+03  0.14335283107E+03  0.25500000000E-02 0. -1.
          2   -1    0    0  501    0  0.00000000000E+00 -0.00000000000E+00 -0.13623172083E+04  0.13623172083E+04  0.25500000000E-02 0.  1.
   -5000001    1    1    2    0    0  0.29616987776E+03 -0.65379797264E+02 -0.26537598531E+03  0.47425259932E+03  0.25000000000E+03 0.  0.
    5000001    1    1    2    0    0 -0.29616987776E+03  0.65379797264E+02 -0.95358839193E+03  0.10314174400E+04  0.25000000000E+03 0.  0.
<mgrwt>
<rscale>  0 0.88383715E+03</rscale>
<asrwt>0</asrwt>
<pdfrwt beam="1">  1        2 0.20958725E+00 0.88383715E+03</pdfrwt>
<pdfrwt beam="2">  1       -2 0.22054283E-01 0.88383715E+03</pdfrwt>
<totfact> 0.27407476E+02</totfact>
</mgrwt>
</event>
<event>
 4    1  0.1773996E-005  0.5903243E+03  0.7818608E-02  0.9925686E-01
         -2   -1    0    0    0  501 -0.00000000000E+00  0.00000000000E+00  0.85303940577E+02  0.85303940615E+02  0.25500000000E-02 0. -1.
          2   -1    0    0  501    0  0.00000000000E+00 -0.00000000000E+00 -0.10212974925E+04  0.10212974925E+04  0.25500000000E-02 0.  1.
   -5000001    1    1    2    0    0 -0.41137920719E+02 -0.12923316847E+03 -0.61592313740E+03  0.67842085134E+03  0.25000000000E+03 0.  0.
    5000001    1    1    2    0    0  0.41137920719E+02  0.12923316847E+03 -0.32007041451E+03  0.42818058176E+03  0.25000000000E+03 0.  0.
<mgrwt>
<rscale>  0 0.59032432E+03</rscale>
<asrwt>0</asrwt>
<pdfrwt beam="1">  1        2 0.15712268E+00 0.59032432E+03</pdfrwt>
<pdfrwt beam="2">  1       -2 0.13123684E-01 0.59032432E+03</pdfrwt>
<totfact> 0.10795773E+03</totfact>
</mgrwt>
</event>
<event>
 4    1  0.1773996E-005  0.1618647E+04  0.7818608E-02  0.8809174E-01
         -2   -1    0    0    0  501 -0.00000000000E+00  0.00000000000E+00  0.10575542291E+04  0.10575542291E+04  0.25500000000E-02 0. -1.
          2   -1    0    0  501    0  0.00000000000E+00 -0.00000000000E+00 -0.61935771476E+03  0.61935771476E+03  0.25500000000E-02 0.  1.
   -5000001    1    1    2    0    0 -0.64367798186E+03 -0.11317543457E+03  0.64039900969E+03  0.94854673840E+03  0.25000000000E+03 0.  0.
    5000001    1    1    2    0    0  0.64367798186E+03  0.11317543457E+03 -0.20220249539E+03  0.72836520542E+03  0.25000000000E+03 0.  0.
<mgrwt>
<rscale>  0 0.16186468E+04</rscale>
<asrwt>0</asrwt>
<pdfrwt beam="1">  1        2 0.95285803E-01 0.16186468E+04</pdfrwt>
<pdfrwt beam="2">  1       -2 0.16270065E+00 0.16186468E+04</pdfrwt>
<totfact> 0.10985426E+01</totfact>
</mgrwt>
</event>
<event>
 4    1  0.1773996E-005  0.7169425E+03  0.7818608E-02  0.9688689E-01
         -2   -1    0    0    0  501 -0.00000000000E+00  0.00000000000E+00  0.13835834848E+03  0.13835834850E+03  0.25500000000E-02 0. -1.
          2   -1    0    0  501    0  0.00000000000E+00 -0.00000000000E+00 -0.92875942330E+03  0.92875942330E+03  0.25500000000E-02 0.  1.
   -5000001    1    1    2    0    0 -0.21338192111E+03  0.13872244764E+03 -0.44731378966E+03  0.57215853411E+03  0.25000000000E+03 0.  0.
    5000001    1    1    2    0    0  0.21338192111E+03 -0.13872244764E+03 -0.34308728516E+03  0.49495923769E+03  0.25000000000E+03 0.  0.
<mgrwt>
<rscale>  0 0.71694245E+03</rscale>
<asrwt>0</asrwt>
<pdfrwt beam="1">  1        2 0.14288606E+00 0.71694245E+03</pdfrwt>
<pdfrwt beam="2">  1       -2 0.21285900E-01 0.71694245E+03</pdfrwt>
<totfact> 0.53952847E+02</totfact>
</mgrwt>
</event>
<event>
 4    1  0.1773996E-005  0.9658482E+03  0.7818608E-02  0.9346816E-01
          2   -1    0    0  501    0  0.00000000000E+00  0.00000000000E+00  0.13488607533E+04  0.13488607533E+04  0.25500000000E-02 0.  1.
         -2   -1    0    0    0  501 -0.00000000000E+00 -0.00000000000E+00 -0.17289827866E+03  0.17289827868E+03  0.25500000000E-02 0. -1.
   -5000001    1    1    2    0    0 -0.26839749811E+03  0.31412742625E+03  0.58551734696E+03  0.75897550718E+03  0.25000000000E+03 0.  0.
    5000001    1    1    2    0    0  0.26839749811E+03 -0.31412742625E+03  0.59044512769E+03  0.76278352481E+03  0.25000000000E+03 0.  0.
<mgrwt>
<rscale>  0 0.96584823E+03</rscale>
<asrwt>0</asrwt>
<pdfrwt beam="1">  1        2 0.20751704E+00 0.96584823E+03</pdfrwt>
<pdfrwt beam="2">  1       -2 0.26599736E-01 0.96584823E+03</pdfrwt>
<totfact> 0.19812561E+02</totfact>
</mgrwt>
</event>
<event>
 4    1  0.1773996E-005  0.6385610E+03  0.7818608E-02  0.9828484E-01
          2   -1    0    0  501    0  0.00000000000E+00  0.00000000000E+00  0.21111347532E+04  0.21111347532E+04  0.25500000000E-02 0. -1.
         -2   -1    0    0    0  501 -0.00000000000E+00 -0.00000000000E+00 -0.48286847079E+02  0.48286847146E+02  0.25500000000E-02 0.  1.
   -5000001    1    1    2    0    0  0.18223127750E+03  0.52405472676E+02  0.12310722710E+04  0.12704304422E+04  0.25000000000E+03 0.  0.
    5000001    1    1    2    0    0 -0.18223127750E+03 -0.52405472676E+02  0.83177563514E+03  0.88899115815E+03  0.25000000000E+03 0.  0.
<mgrwt>
<rscale>  0 0.63856101E+03</rscale>
<asrwt>0</asrwt>
<pdfrwt beam="1">  1        2 0.32479004E+00 0.63856101E+03</pdfrwt>
<pdfrwt beam="2">  1       -2 0.74287438E-02 0.63856101E+03</pdfrwt>
<totfact> 0.66366936E+02</totfact>
</mgrwt>
</event>
<event>
 4    1  0.1773996E-005  0.5073303E+03  0.7818608E-02  0.1011883E+00
          2   -1    0    0  501    0  0.00000000000E+00  0.00000000000E+00  0.21340535972E+04  0.21340535972E+04  0.25500000000E-02 0.  1.
         -2   -1    0    0    0  501 -0.00000000000E+00 -0.00000000000E+00 -0.30152015325E+02  0.30152015433E+02  0.25500000000E-02 0. -1.
   -5000001    1    1    2    0    0  0.42780503040E+02 -0.16533104040E+01  0.10673977268E+04  0.10971193244E+04  0.25000000000E+03 0.  0.
    5000001    1    1    2    0    0 -0.42780503040E+02  0.16533104040E+01  0.10365038551E+04  0.10670862882E+04  0.25000000000E+03 0.  0.
<mgrwt>
<rscale>  0 0.50733033E+03</rscale>
<asrwt>0</asrwt>
<pdfrwt beam="1">  1        2 0.32831594E+00 0.50733033E+03</pdfrwt>
<pdfrwt beam="2">  1       -2 0.46387715E-02 0.50733033E+03</pdfrwt>
<totfact> 0.13590021E+03</totfact>
</mgrwt>
</event>
<event>
 4    1  0.1773996E-005  0.1025367E+04  0.7818608E-02  0.9281152E-01
         -2   -1    0    0    0  501 -0.00000000000E+00  0.00000000000E+00  0.12365368813E+03  0.12365368815E+03  0.25500000000E-02 0. -1.
          2   -1    0    0  501    0  0.00000000000E+00 -0.00000000000E+00 -0.21256486624E+04  0.21256486624E+04  0.25500000000E-02 0.  1.
   -5000001    1    1    2    0    0 -0.11848764732E+03 -0.43139003941E+03 -0.10326050303E+04  0.11527835171E+04  0.25000000000E+03 0.  0.
    5000001    1    1    2    0    0  0.11848764732E+03  0.43139003941E+03 -0.96938994392E+03  0.10965188334E+04  0.25000000000E+03 0.  0.
<mgrwt>
<rscale>  0 0.10253669E+04</rscale>
<asrwt>0</asrwt>
<pdfrwt beam="1">  1        2 0.32702284E+00 0.10253669E+04</pdfrwt>
<pdfrwt beam="2">  1       -2 0.19023646E-01 0.10253669E+04</pdfrwt>
<totfact> 0.13291346E+02</totfact>
</mgrwt>
</event>
<event>
 4    1  0.1773996E-005  0.7246242E+03  0.7818608E-02  0.9676024E-01
          2   -1    0    0  501    0  0.00000000000E+00  0.00000000000E+00  0.87644736446E+02  0.87644736483E+02  0.25500000000E-02 0.  1.
         -2   -1    0    0    0  501 -0.00000000000E+00 -0.00000000000E+00 -0.14977516772E+04  0.14977516772E+04  0.25500000000E-02 0. -1.
   -5000001    1    1    2    0    0  0.24714159478E+03  0.24031876580E+02 -0.88958403322E+03  0.95682613422E+03  0.25000000000E+03 0.  0.
    5000001    1    1    2    0    0 -0.24714159478E+03 -0.24031876580E+02 -0.52052290754E+03  0.62857027948E+03  0.25000000000E+03 0.  0.
<mgrwt>
<rscale>  0 0.72462418E+03</rscale>
<asrwt>0</asrwt>
<pdfrwt beam="1">  1        2 0.13483807E-01 0.72462418E+03</pdfrwt>
<pdfrwt beam="2">  1       -2 0.23042332E+00 0.72462418E+03</pdfrwt>
<totfact> 0.39802285E+01</totfact>
</mgrwt>
</event>
<event>
 4    1  0.1773996E-005  0.6345132E+03  0.7818608E-02  0.9836281E-01
         -2   -1    0    0    0  501 -0.00000000000E+00  0.00000000000E+00  0.25765968152E+03  0.25765968153E+03  0.25500000000E-02 0. -1.
          2   -1    0    0  501    0  0.00000000000E+00 -0.00000000000E+00 -0.39063829437E+03  0.39063829437E+03  0.25500000000E-02 0.  1.
   -5000001    1    1    2    0    0  0.13597878238E+03 -0.12054396288E+03  0.66954688990E+01  0.30913735709E+03  0.25000000000E+03 0.  0.
    5000001    1    1    2    0    0 -0.13597878238E+03  0.12054396288E+03 -0.13967408175E+03  0.33916061882E+03  0.25000000000E+03 0.  0.
<mgrwt>
<rscale>  0 0.63451316E+03</rscale>
<asrwt>0</asrwt>
<pdfrwt beam="1">  1        2 0.60098199E-01 0.63451316E+03</pdfrwt>
<pdfrwt beam="2">  1       -2 0.39639951E-01 0.63451316E+03</pdfrwt>
<totfact> 0.49558991E+02</totfact>
</mgrwt>
</event>
<event>
 4    1  0.1773996E-005  0.1064801E+04  0.7818608E-02  0.9240195E-01
         -2   -1    0    0    0  501 -0.00000000000E+00  0.00000000000E+00  0.55658238638E+03  0.55658238639E+03  0.25500000000E-02 0. -1.
          2   -1    0    0  501    0  0.00000000000E+00 -0.00000000000E+00 -0.50926883535E+03  0.50926883536E+03  0.25500000000E-02 0.  1.
   -5000001    1    1    2    0    0  0.28041378510E+03 -0.37640427706E+03  0.48940222408E+02  0.53404795293E+03  0.25000000000E+03 0.  0.
    5000001    1    1    2    0    0 -0.28041378510E+03  0.37640427706E+03 -0.16266713804E+01  0.53180326881E+03  0.25000000000E+03 0.  0.
<mgrwt>
<rscale>  0 0.10648006E+04</rscale>
<asrwt>0</asrwt>
<pdfrwt beam="1">  1        2 0.78349052E-01 0.10648006E+04</pdfrwt>
<pdfrwt beam="2">  1       -2 0.85628059E-01 0.10648006E+04</pdfrwt>
<totfact> 0.71091961E+01</totfact>
</mgrwt>
</event>
<event>
 4    1  0.1773996E-005  0.6450132E+03  0.7818608E-02  0.9816182E-01
         -2   -1    0    0    0  501 -0.00000000000E+00  0.00000000000E+00  0.14293087783E+03  0.14293087786E+03  0.25500000000E-02 0. -1.
          2   -1    0    0  501    0  0.00000000000E+00 -0.00000000000E+00 -0.72769802773E+03  0.72769802773E+03  0.25500000000E-02 0.  1.
   -5000001    1    1    2    0    0  0.14011939952E+03  0.14617183843E+03 -0.32289185458E+03  0.45580566278E+03  0.25000000000E+03 0.  0.
    5000001    1    1    2    0    0 -0.14011939952E+03 -0.14617183843E+03 -0.26187529531E+03  0.41482324280E+03  0.25000000000E+03 0.  0.
<mgrwt>
<rscale>  0 0.64501323E+03</rscale>
<asrwt>0</asrwt>
<pdfrwt beam="1">  1        2 0.11195354E+00 0.64501323E+03</pdfrwt>
<pdfrwt beam="2">  1       -2 0.21989366E-01 0.64501323E+03</pdfrwt>
<totfact> 0.70764655E+02</totfact>
</mgrwt>
</event>
<event>
 4    1  0.1773996E-005  0.8380437E+03  0.7818608E-02  0.9506526E-01
          2   -1    0    0  501    0  0.00000000000E+00  0.00000000000E+00  0.13537404930E+04  0.13537404930E+04  0.25500000000E-02 0.  1.
         -2   -1    0    0    0  501 -0.00000000000E+00 -0.00000000000E+00 -0.12969938810E+03  0.12969938812E+03  0.25500000000E-02 0. -1.
   -5000001    1    1    2    0    0 -0.33176705445E+03  0.15052092005E+01  0.51494310691E+03  0.66161775024E+03  0.25000000000E+03 0.  0.
    5000001    1    1    2    0    0  0.33176705445E+03 -0.15052092005E+01  0.70909799801E+03  0.82182213091E+03  0.25000000000E+03 0.  0.
<mgrwt>
<rscale>  0 0.83804371E+03</rscale>
<asrwt>0</asrwt>
<pdfrwt beam="1">  1        2 0.20826778E+00 0.83804371E+03</pdfrwt>
<pdfrwt beam="2">  1       -2 0.19953751E-01 0.83804371E+03</pdfrwt>
<totfact> 0.33158197E+02</totfact>
</mgrwt>
</event>
<event>
 4    1  0.1773996E-005  0.6752812E+03  0.7818608E-02  0.9760464E-01
          2   -1    0    0  501    0  0.00000000000E+00  0.00000000000E+00  0.16058243092E+04  0.16058243092E+04  0.25500000000E-02 0.  1.
         -2   -1    0    0    0  501 -0.00000000000E+00 -0.00000000000E+00 -0.70992300832E+02  0.70992300878E+02  0.25500000000E-02 0. -1.
   -5000001    1    1    2    0    0 -0.89131157525E+02  0.20283645700E+03  0.88942305848E+03  0.95008440072E+03  0.25000000000E+03 0.  0.
    5000001    1    1    2    0    0  0.89131157525E+02 -0.20283645700E+03  0.64540894989E+03  0.72673220937E+03  0.25000000000E+03 0.  0.
<mgrwt>
<rscale>  0 0.67528116E+03</rscale>
<asrwt>0</asrwt>
<pdfrwt beam="1">  1        2 0.24704985E+00 0.67528116E+03</pdfrwt>
<pdfrwt beam="2">  1       -2 0.10921894E-01 0.67528116E+03</pdfrwt>
<totfact> 0.66993940E+02</totfact>
</mgrwt>
</event>
<event>
 4    1  0.1773996E-005  0.7212458E+03  0.7818608E-02  0.9681573E-01
         -2   -1    0    0    0  501 -0.00000000000E+00  0.00000000000E+00  0.64187573118E+02  0.64187573169E+02  0.25500000000E-02 0. -1.
          2   -1    0    0  501    0  0.00000000000E+00 -0.00000000000E+00 -0.20260754716E+04  0.20260754716E+04  0.25500000000E-02 0.  1.
   -5000001    1    1    2    0    0  0.13876516252E+02  0.15032416774E+03 -0.36780680636E+03  0.46965067861E+03  0.25000000000E+03 0.  0.
    5000001    1    1    2    0    0 -0.13876516252E+02 -0.15032416774E+03 -0.15940810921E+04  0.16206123661E+04  0.25000000000E+03 0.  0.
<mgrwt>
<rscale>  0 0.72124578E+03</rscale>
<asrwt>0</asrwt>
<pdfrwt beam="1">  1        2 0.31170387E+00 0.72124578E+03</pdfrwt>
<pdfrwt beam="2">  1       -2 0.98750128E-02 0.72124578E+03</pdfrwt>
<totfact> 0.46462435E+02</totfact>
</mgrwt>
</event>
<event>
 4    1  0.1773996E-005  0.7956469E+03  0.7818608E-02  0.9566339E-01
          2   -1    0    0  501    0  0.00000000000E+00  0.00000000000E+00  0.35417094052E+04  0.35417094052E+04  0.25500000000E-02 0.  1.
         -2   -1    0    0    0  501 -0.00000000000E+00 -0.00000000000E+00 -0.44685628757E+02  0.44685628830E+02  0.25500000000E-02 0. -1.
   -5000001    1    1    2    0    0  0.13066818283E+03  0.26863603715E+03  0.13844331794E+04  0.14381914763E+04  0.25000000000E+03 0.  0.
    5000001    1    1    2    0    0 -0.13066818283E+03 -0.26863603715E+03  0.21125905970E+04  0.21482035577E+04  0.25000000000E+03 0.  0.
<mgrwt>
<rscale>  0 0.79564694E+03</rscale>
<asrwt>0</asrwt>
<pdfrwt beam="1">  1        2 0.54487846E+00 0.79564694E+03</pdfrwt>
<pdfrwt beam="2">  1       -2 0.68747110E-02 0.79564694E+03</pdfrwt>
<totfact> 0.10197688E+02</totfact>
</mgrwt>
</event>
<event>
 4    1  0.1773996E-005  0.1147490E+04  0.7818608E-02  0.9160102E-01
          2   -1    0    0  501    0  0.00000000000E+00  0.00000000000E+00  0.13878641586E+04  0.13878641586E+04  0.25500000000E-02 0.  1.
         -2   -1    0    0    0  501 -0.00000000000E+00 -0.00000000000E+00 -0.23718703563E+03  0.23718703565E+03  0.25500000000E-02 0. -1.
   -5000001    1    1    2    0    0 -0.43934959498E+03  0.25672785238E+03  0.45069769582E+03  0.72426905899E+03  0.25000000000E+03 0.  0.
    5000001    1    1    2    0    0  0.43934959498E+03 -0.25672785238E+03  0.69997942718E+03  0.90078213529E+03  0.25000000000E+03 0.  0.
<mgrwt>
<rscale>  0 0.11474901E+04</rscale>
<asrwt>0</asrwt>
<pdfrwt beam="1">  1        2 0.21351757E+00 0.11474901E+04</pdfrwt>
<pdfrwt beam="2">  1       -2 0.36490313E-01 0.11474901E+04</pdfrwt>
<totfact> 0.10285345E+02</totfact>
</mgrwt>
</event>
<event>
 4    1  0.1773996E-005  0.6586580E+03  0.7818608E-02  0.9790667E-01
         -2   -1    0    0    0  501 -0.00000000000E+00  0.00000000000E+00  0.88996775713E+02  0.88996775749E+02  0.25500000000E-02 0. -1.
          2   -1    0    0  501    0  0.00000000000E+00 -0.00000000000E+00 -0.12186687423E+04  0.12186687423E+04  0.25500000000E-02 0.  1.
   -5000001    1    1    2    0    0 -0.33609225341E+02 -0.20540211352E+03 -0.46286596603E+03  0.56574244208E+03  0.25000000000E+03 0.  0.
    5000001    1    1    2    0    0  0.33609225341E+02  0.20540211352E+03 -0.66680600052E+03  0.74192307593E+03  0.25000000000E+03 0.  0.
<mgrwt>
<rscale>  0 0.65865800E+03</rscale>
<asrwt>0</asrwt>
<pdfrwt beam="1">  1        2 0.18748749E+00 0.65865800E+03</pdfrwt>
<pdfrwt beam="2">  1       -2 0.13691813E-01 0.65865800E+03</pdfrwt>
<totfact> 0.76254625E+02</totfact>
</mgrwt>
</event>
<event>
 4    1  0.1773996E-005  0.1094374E+04  0.7818608E-02  0.9210693E-01
         -2   -1    0    0    0  501 -0.00000000000E+00  0.00000000000E+00  0.12165862829E+03  0.12165862832E+03  0.25500000000E-02 0. -1.
          2   -1    0    0  501    0  0.00000000000E+00 -0.00000000000E+00 -0.24610974440E+04  0.24610974440E+04  0.25500000000E-02 0.  1.
   -5000001    1    1    2    0    0 -0.29915061028E+03  0.31478252899E+03 -0.65086364238E+03  0.82140283002E+03  0.25000000000E+03 0.  0.
    5000001    1    1    2    0    0  0.29915061028E+03 -0.31478252899E+03 -0.16885751733E+04  0.17613532423E+04  0.25000000000E+03 0.  0.
<mgrwt>
<rscale>  0 0.10943742E+04</rscale>
<asrwt>0</asrwt>
<pdfrwt beam="1">  1        2 0.37863034E+00 0.10943742E+04</pdfrwt>
<pdfrwt beam="2">  1       -2 0.18716714E-01 0.10943742E+04</pdfrwt>
<totfact> 0.88149054E+01</totfact>
</mgrwt>
</event>
<event>
 4    1  0.1773996E-005  0.6512997E+03  0.7818608E-02  0.9804343E-01
         -2   -1    0    0    0  501 -0.00000000000E+00  0.00000000000E+00  0.35523379610E+02  0.35523379702E+02  0.25500000000E-02 0. -1.
          2   -1    0    0  501    0  0.00000000000E+00 -0.00000000000E+00 -0.29852967851E+04  0.29852967851E+04  0.25500000000E-02 0.  1.
   -5000001    1    1    2    0    0 -0.71323216109E+02  0.18697647750E+03 -0.12004659908E+04  0.12424434794E+04  0.25000000000E+03 0.  0.
    5000001    1    1    2    0    0  0.71323216109E+02 -0.18697647750E+03 -0.17493074146E+04  0.17783766854E+04  0.25000000000E+03 0.  0.
<mgrwt>
<rscale>  0 0.65129972E+03</rscale>
<asrwt>0</asrwt>
<pdfrwt beam="1">  1        2 0.45927623E+00 0.65129972E+03</pdfrwt>
<pdfrwt beam="2">  1       -2 0.54651377E-02 0.65129972E+03</pdfrwt>
<totfact> 0.34081777E+02</totfact>
</mgrwt>
</event>
<event>
 4    1  0.1773996E-005  0.5806111E+03  0.7818608E-02  0.9946469E-01
          2   -1    0    0  501    0  0.00000000000E+00  0.00000000000E+00  0.69921219727E+03  0.69921219727E+03  0.25500000000E-02 0.  1.
         -2   -1    0    0    0  501 -0.00000000000E+00 -0.00000000000E+00 -0.12053180049E+03  0.12053180051E+03  0.25500000000E-02 0. -1.
   -5000001    1    1    2    0    0  0.12399655478E+03  0.38193589624E+02  0.19007289828E+03  0.33979641338E+03  0.25000000000E+03 0.  0.
    5000001    1    1    2    0    0 -0.12399655478E+03 -0.38193589624E+02  0.38860749850E+03  0.47994758440E+03  0.25000000000E+03 0.  0.
<mgrwt>
<rscale>  0 0.58061107E+03</rscale>
<asrwt>0</asrwt>
<pdfrwt beam="1">  1        2 0.10757111E+00 0.58061107E+03</pdfrwt>
<pdfrwt beam="2">  1       -2 0.18543354E-01 0.58061107E+03</pdfrwt>
<totfact> 0.10035400E+03</totfact>
</mgrwt>
</event>
<event>
 4    1  0.1773996E-005  0.7620619E+03  0.7818608E-02  0.9616615E-01
          2   -1    0    0  501    0  0.00000000000E+00  0.00000000000E+00  0.66421153162E+03  0.66421153162E+03  0.25500000000E-02 0.  1.
         -2   -1    0    0    0  501 -0.00000000000E+00 -0.00000000000E+00 -0.21858186232E+03  0.21858186234E+03  0.25500000000E-02 0. -1.
   -5000001    1    1    2    0    0 -0.26214145569E+03  0.93451444099E+02  0.13901257469E+03  0.39909373725E+03  0.25000000000E+03 0.  0.
    5000001    1    1    2    0    0  0.26214145569E+03 -0.93451444099E+02  0.30661709461E+03  0.48369965671E+03  0.25000000000E+03 0.  0.
<mgrwt>
<rscale>  0 0.76206192E+03</rscale>
<asrwt>0</asrwt>
<pdfrwt beam="1">  1        2 0.10218639E+00 0.76206192E+03</pdfrwt>
<pdfrwt beam="2">  1       -2 0.33627978E-01 0.76206192E+03</pdfrwt>
<totfact> 0.36402196E+02</totfact>
</mgrwt>
</event>
<event>
 4    1  0.1773996E-005  0.9012296E+03  0.7818608E-02  0.9424046E-01
          2   -1    0    0  501    0  0.00000000000E+00  0.00000000000E+00  0.17445725732E+04  0.17445725732E+04  0.25500000000E-02 0.  1.
         -2   -1    0    0    0  501 -0.00000000000E+00 -0.00000000000E+00 -0.11639165003E+03  0.11639165006E+03  0.25500000000E-02 0. -1.
   -5000001    1    1    2    0    0 -0.31906548052E+03  0.18509632295E+03  0.67572175084E+03  0.80942159236E+03  0.25000000000E+03 0.  0.
    5000001    1    1    2    0    0  0.31906548052E+03 -0.18509632295E+03  0.95245917234E+03  0.10515426309E+04  0.25000000000E+03 0.  0.
<mgrwt>
<rscale>  0 0.90122956E+03</rscale>
<asrwt>0</asrwt>
<pdfrwt beam="1">  1        2 0.26839578E+00 0.90122956E+03</pdfrwt>
<pdfrwt beam="2">  1       -2 0.17906408E-01 0.90122956E+03</pdfrwt>
<totfact> 0.24141337E+02</totfact>
</mgrwt>
</event>
<event>
 4    1  0.1773996E-005  0.1262377E+04  0.7818608E-02  0.9059944E-01
         -2   -1    0    0    0  501 -0.00000000000E+00  0.00000000000E+00  0.28810265345E+03  0.28810265347E+03  0.25500000000E-02 0. -1.
          2   -1    0    0  501    0  0.00000000000E+00 -0.00000000000E+00 -0.13828367146E+04  0.13828367146E+04  0.25500000000E-02 0.  1.
   -5000001    1    1    2    0    0 -0.75995360604E+02  0.50155515858E+03 -0.17635406351E+03  0.59239651218E+03  0.25000000000E+03 0.  0.
    5000001    1    1    2    0    0  0.75995360604E+02 -0.50155515858E+03 -0.91837999763E+03  0.10785428559E+04  0.25000000000E+03 0.  0.
<mgrwt>
<rscale>  0 0.12623770E+04</rscale>
<asrwt>0</asrwt>
<pdfrwt beam="1">  1        2 0.21274411E+00 0.12623770E+04</pdfrwt>
<pdfrwt beam="2">  1       -2 0.44323486E-01 0.12623770E+04</pdfrwt>
<totfact> 0.70187296E+01</totfact>
</mgrwt>
</event>
<event>
 4    1  0.1773996E-005  0.6989897E+03  0.7818608E-02  0.9718961E-01
         -2   -1    0    0    0  501 -0.00000000000E+00  0.00000000000E+00  0.54023521138E+02  0.54023521199E+02  0.25500000000E-02 0. -1.
          2   -1    0    0  501    0  0.00000000000E+00 -0.00000000000E+00 -0.22609902463E+04  0.22609902463E+04  0.25500000000E-02 0.  1.
   -5000001    1    1    2    0    0 -0.10480600854E+03  0.18019513676E+03 -0.68204511267E+03  0.75573813088E+03  0.25000000000E+03 0.  0.
    5000001    1    1    2    0    0  0.10480600854E+03 -0.18019513676E+03 -0.15249216125E+04  0.15592756366E+04  0.25000000000E+03 0.  0.
<mgrwt>
<rscale>  0 0.69898971E+03</rscale>
<asrwt>0</asrwt>
<pdfrwt beam="1">  1        2 0.34784458E+00 0.69898971E+03</pdfrwt>
<pdfrwt beam="2">  1       -2 0.83113127E-02 0.69898971E+03</pdfrwt>
<totfact> 0.45694385E+02</totfact>
</mgrwt>
</event>
<event>
 4    1  0.1773996E-005  0.8030903E+03  0.7818608E-02  0.9555555E-01
          2   -1    0    0  501    0  0.00000000000E+00  0.00000000000E+00  0.14947286889E+04  0.14947286889E+04  0.25500000000E-02 0.  1.
         -2   -1    0    0    0  501 -0.00000000000E+00 -0.00000000000E+00 -0.10787141128E+03  0.10787141131E+03  0.25500000000E-02 0. -1.
   -5000001    1    1    2    0    0  0.66435067894E+02 -0.23452454023E+03  0.29771159056E+03  0.45885462771E+03  0.25000000000E+03 0.  0.
    5000001    1    1    2    0    0 -0.66435067894E+02  0.23452454023E+03  0.10891456871E+04  0.11437454725E+04  0.25000000000E+03 0.  0.
<mgrwt>
<rscale>  0 0.80309026E+03</rscale>
<asrwt>0</asrwt>
<pdfrwt beam="1">  1        2 0.22995823E+00 0.80309026E+03</pdfrwt>
<pdfrwt beam="2">  1       -2 0.16595604E-01 0.80309026E+03</pdfrwt>
<totfact> 0.38053942E+02</totfact>
</mgrwt>
</event>
<event>
 4    1  0.1773996E-005  0.6698312E+03  0.7818608E-02  0.9770263E-01
          2   -1    0    0  501    0  0.00000000000E+00  0.00000000000E+00  0.56478313680E+03  0.56478313680E+03  0.25500000000E-02 0.  1.
         -2   -1    0    0    0  501 -0.00000000000E+00 -0.00000000000E+00 -0.19860450409E+03  0.19860450410E+03  0.25500000000E-02 0. -1.
   -5000001    1    1    2    0    0  0.77750184054E+02 -0.16098553869E+03  0.31435722725E+02  0.30894925061E+03  0.25000000000E+03 0.  0.
    5000001    1    1    2    0    0 -0.77750184054E+02  0.16098553869E+03  0.33474290999E+03  0.45443839030E+03  0.25000000000E+03 0.  0.
<mgrwt>
<rscale>  0 0.66983125E+03</rscale>
<asrwt>0</asrwt>
<pdfrwt beam="1">  1        2 0.86889711E-01 0.66983125E+03</pdfrwt>
<pdfrwt beam="2">  1       -2 0.30554540E-01 0.66983125E+03</pdfrwt>
<totfact> 0.53182204E+02</totfact>
</mgrwt>
</event>
<event>
 4    1  0.1773996E-005  0.1098526E+04  0.7818608E-02  0.9206629E-01
         -2   -1    0    0    0  501 -0.00000000000E+00  0.00000000000E+00  0.36137774469E+03  0.36137774470E+03  0.25500000000E-02 0. -1.
          2   -1    0    0  501    0  0.00000000000E+00 -0.00000000000E+00 -0.83483289105E+03  0.83483289105E+03  0.25500000000E-02 0.  1.
   -5000001    1    1    2    0    0  0.10453365736E+03  0.46588360522E+03 -0.12140857595E+03  0.55246254303E+03  0.25000000000E+03 0.  0.
    5000001    1    1    2    0    0 -0.10453365736E+03 -0.46588360522E+03 -0.35204657041E+03  0.64374809272E+03  0.25000000000E+03 0.  0.
<mgrwt>
<rscale>  0 0.10985263E+04</rscale>
<asrwt>0</asrwt>
<pdfrwt beam="1">  1        2 0.12843583E+00 0.10985263E+04</pdfrwt>
<pdfrwt beam="2">  1       -2 0.55596576E-01 0.10985263E+04</pdfrwt>
<totfact> 0.98198388E+01</totfact>
</mgrwt>
</event>
<event>
 4    1  0.1773996E-005  0.5252747E+03  0.7818608E-02  0.1007385E+00
          2   -1    0    0  501    0  0.00000000000E+00  0.00000000000E+00  0.47230935612E+03  0.47230935612E+03  0.25500000000E-02 0. -1.
         -2   -1    0    0    0  501 -0.00000000000E+00 -0.00000000000E+00 -0.14604490397E+03  0.14604490399E+03  0.25500000000E-02 0.  1.
   -5000001    1    1    2    0    0  0.60639094117E+01  0.79239293920E+02  0.14811481057E+03  0.30125343784E+03  0.25000000000E+03 0.  0.
    5000001    1    1    2    0    0 -0.60639094117E+01 -0.79239293920E+02  0.17814964157E+03  0.31710082228E+03  0.25000000000E+03 0.  0.
<mgrwt>
<rscale>  0 0.52527469E+03</rscale>
<asrwt>0</asrwt>
<pdfrwt beam="1">  1        2 0.72662979E-01 0.52527469E+03</pdfrwt>
<pdfrwt beam="2">  1       -2 0.22468447E-01 0.52527469E+03</pdfrwt>
<totfact> 0.11440598E+03</totfact>
</mgrwt>
</event>
<event>
 4    1  0.1773996E-005  0.8508027E+03  0.7818608E-02  0.9489260E-01
          2   -1    0    0  501    0  0.00000000000E+00  0.00000000000E+00  0.36314589213E+03  0.36314589214E+03  0.25500000000E-02 0.  1.
         -2   -1    0    0    0  501 -0.00000000000E+00 -0.00000000000E+00 -0.49832947190E+03  0.49832947190E+03  0.25500000000E-02 0. -1.
   -5000001    1    1    2    0    0 -0.71053586287E+02 -0.33629861084E+03 -0.49452465227E+02  0.42789124097E+03  0.25000000000E+03 0.  0.
    5000001    1    1    2    0    0  0.71053586287E+02  0.33629861084E+03 -0.85731114543E+02  0.43358412307E+03  0.25000000000E+03 0.  0.
<mgrwt>
<rscale>  0 0.85080268E+03</rscale>
<asrwt>0</asrwt>
<pdfrwt beam="1">  1        2 0.55868599E-01 0.85080268E+03</pdfrwt>
<pdfrwt beam="2">  1       -2 0.76666073E-01 0.85080268E+03</pdfrwt>
<totfact> 0.13563024E+02</totfact>
</mgrwt>
</event>
<event>
 4    1  0.1773996E-005  0.8400800E+03  0.7818608E-02  0.9503749E-01
         -2   -1    0    0    0  501 -0.00000000000E+00  0.00000000000E+00  0.41927435261E+02  0.41927435339E+02  0.25500000000E-02 0.  1.
          2   -1    0    0  501    0  0.00000000000E+00 -0.00000000000E+00 -0.42080703789E+04  0.42080703789E+04  0.25500000000E-02 0. -1.
   -5000001    1    1    2    0    0 -0.25986705393E+03  0.14978744587E+03 -0.12998767106E+04  0.13572570234E+04  0.25000000000E+03 0.  0.
    5000001    1    1    2    0    0  0.25986705393E+03 -0.14978744587E+03 -0.28662662331E+04  0.28927407909E+04  0.25000000000E+03 0.  0.
<mgrwt>
<rscale>  0 0.84007999E+03</rscale>
<asrwt>0</asrwt>
<pdfrwt beam="1">  1        2 0.64739511E+00 0.84007999E+03</pdfrwt>
<pdfrwt beam="2">  1       -2 0.64503780E-02 0.84007999E+03</pdfrwt>
<totfact> 0.34768129E+01</totfact>
</mgrwt>
</event>
<event>
 4    1  0.1773996E-005  0.8699308E+03  0.7818608E-02  0.9463970E-01
         -2   -1    0    0    0  501 -0.00000000000E+00  0.00000000000E+00  0.16135445859E+03  0.16135445861E+03  0.25500000000E-02 0. -1.
          2   -1    0    0  501    0  0.00000000000E+00 -0.00000000000E+00 -0.11725420876E+04  0.11725420876E+04  0.25500000000E-02 0.  1.
   -5000001    1    1    2    0    0  0.26007149157E+03  0.23334646250E+03 -0.40151718481E+03  0.58805084983E+03  0.25000000000E+03 0.  0.
    5000001    1    1    2    0    0 -0.26007149157E+03 -0.23334646250E+03 -0.60967044423E+03  0.74584569641E+03  0.25000000000E+03 0.  0.
<mgrwt>
<rscale>  0 0.86993079E+03</rscale>
<asrwt>0</asrwt>
<pdfrwt beam="1">  1        2 0.18039108E+00 0.86993079E+03</pdfrwt>
<pdfrwt beam="2">  1       -2 0.24823764E-01 0.86993079E+03</pdfrwt>
<totfact> 0.28649398E+02</totfact>
</mgrwt>
</event>
<event>
 4    1  0.1773996E-005  0.1081377E+04  0.7818608E-02  0.9223535E-01
         -2   -1    0    0    0  501 -0.00000000000E+00  0.00000000000E+00  0.51652230912E+03  0.51652230913E+03  0.25500000000E-02 0. -1.
          2   -1    0    0  501    0  0.00000000000E+00 -0.00000000000E+00 -0.56598575756E+03  0.56598575757E+03  0.25500000000E-02 0.  1.
   -5000001    1    1    2    0    0  0.25971505178E+03 -0.20079671893E+03  0.32502311515E+03  0.52527255386E+03  0.25000000000E+03 0.  0.
    5000001    1    1    2    0    0 -0.25971505178E+03  0.20079671893E+03 -0.37448656359E+03  0.55723551283E+03  0.25000000000E+03 0.  0.
<mgrwt>
<rscale>  0 0.10813774E+04</rscale>
<asrwt>0</asrwt>
<pdfrwt beam="1">  1        2 0.87074732E-01 0.10813774E+04</pdfrwt>
<pdfrwt beam="2">  1       -2 0.79464970E-01 0.10813774E+04</pdfrwt>
<totfact> 0.74259681E+01</totfact>
</mgrwt>
</event>
<event>
 4    1  0.1773996E-005  0.9404373E+03  0.7818608E-02  0.9376398E-01
          2   -1    0    0  501    0  0.00000000000E+00  0.00000000000E+00  0.42025728548E+04  0.42025728548E+04  0.25500000000E-02 0.  1.
         -2   -1    0    0    0  501 -0.00000000000E+00 -0.00000000000E+00 -0.52611953634E+02  0.52611953696E+02  0.25500000000E-02 0. -1.
   -5000001    1    1    2    0    0  0.54001677542E+02  0.39448895736E+03  0.21122507096E+04  0.21639410294E+04  0.25000000000E+03 0.  0.
    5000001    1    1    2    0    0 -0.54001677542E+02 -0.39448895736E+03  0.20377101915E+04  0.20912437790E+04  0.25000000000E+03 0.  0.
<mgrwt>
<rscale>  0 0.94043728E+03</rscale>
<asrwt>0</asrwt>
<pdfrwt beam="1">  1        2 0.64654962E+00 0.94043728E+03</pdfrwt>
<pdfrwt beam="2">  1       -2 0.80941473E-02 0.94043728E+03</pdfrwt>
<totfact> 0.24099161E+01</totfact>
</mgrwt>
</event>
<event>
 4    1  0.1773996E-005  0.5989352E+03  0.7818608E-02  0.9907618E-01
         -2   -1    0    0    0  501 -0.00000000000E+00  0.00000000000E+00  0.12559604222E+03  0.12559604225E+03  0.25500000000E-02 0. -1.
          2   -1    0    0  501    0  0.00000000000E+00 -0.00000000000E+00 -0.71404206753E+03  0.71404206754E+03  0.25500000000E-02 0.  1.
   -5000001    1    1    2    0    0  0.60895742216E+02  0.15225825500E+03 -0.27035018779E+03  0.40308819342E+03  0.25000000000E+03 0.  0.
    5000001    1    1    2    0    0 -0.60895742216E+02 -0.15225825500E+03 -0.31809583751E+03  0.43654991637E+03  0.25000000000E+03 0.  0.
<mgrwt>
<rscale>  0 0.59893525E+03</rscale>
<asrwt>0</asrwt>
<pdfrwt beam="1">  1        2 0.10985262E+00 0.59893525E+03</pdfrwt>
<pdfrwt beam="2">  1       -2 0.19322469E-01 0.59893525E+03</pdfrwt>
<totfact> 0.90996252E+02</totfact>
</mgrwt>
</event>
<event>
 4    1  0.1773996E-005  0.7036275E+03  0.7818608E-02  0.9711049E-01
         -2   -1    0    0    0  501 -0.00000000000E+00  0.00000000000E+00  0.66994609394E+02  0.66994609443E+02  0.25500000000E-02 0. -1.
          2   -1    0    0  501    0  0.00000000000E+00 -0.00000000000E+00 -0.18475053232E+04  0.18475053232E+04  0.25500000000E-02 0.  1.
   -5000001    1    1    2    0    0  0.39652622224E+02 -0.22869377264E+03 -0.11243116829E+04  0.11749255008E+04  0.25000000000E+03 0.  0.
    5000001    1    1    2    0    0 -0.39652622224E+02  0.22869377264E+03 -0.65619903088E+03  0.73957443184E+03  0.25000000000E+03 0.  0.
<mgrwt>
<rscale>  0 0.70362745E+03</rscale>
<asrwt>0</asrwt>
<pdfrwt beam="1">  1        2 0.28423155E+00 0.70362745E+03</pdfrwt>
<pdfrwt beam="2">  1       -2 0.10306864E-01 0.70362745E+03</pdfrwt>
<totfact> 0.54271865E+02</totfact>
</mgrwt>
</event>
<event>
 4    1  0.1773996E-005  0.7544574E+03  0.7818608E-02  0.9628383E-01
          2   -1    0    0  501    0  0.00000000000E+00  0.00000000000E+00  0.20651660684E+03  0.20651660686E+03  0.25500000000E-02 0.  1.
         -2   -1    0    0    0  501 -0.00000000000E+00 -0.00000000000E+00 -0.68905583756E+03  0.68905583756E+03  0.25500000000E-02 0. -1.
   -5000001    1    1    2    0    0 -0.23088757545E+03  0.16139857292E+03 -0.21628804787E+03  0.43432601982E+03  0.25000000000E+03 0.  0.
    5000001    1    1    2    0    0  0.23088757545E+03 -0.16139857292E+03 -0.26625118284E+03  0.46124642460E+03  0.25000000000E+03 0.  0.
<mgrwt>
<rscale>  0 0.75445735E+03</rscale>
<asrwt>0</asrwt>
<pdfrwt beam="1">  1        2 0.31771786E-01 0.75445735E+03</pdfrwt>
<pdfrwt beam="2">  1       -2 0.10600859E+00 0.75445735E+03</pdfrwt>
<totfact> 0.12087618E+02</totfact>
</mgrwt>
</event>
<event>
 4    1  0.1773996E-005  0.5589821E+03  0.7818608E-02  0.9994360E-01
         -2   -1    0    0    0  501 -0.00000000000E+00  0.00000000000E+00  0.70166040069E+02  0.70166040115E+02  0.25500000000E-02 0. -1.
          2   -1    0    0  501    0  0.00000000000E+00 -0.00000000000E+00 -0.11132913688E+04  0.11132913688E+04  0.25500000000E-02 0.  1.
   -5000001    1    1    2    0    0  0.10942551637E+03 -0.82515297784E+01 -0.64811912887E+03  0.70327834929E+03  0.25000000000E+03 0.  0.
    5000001    1    1    2    0    0 -0.10942551637E+03  0.82515297784E+01 -0.39500619989E+03  0.48017905965E+03  0.25000000000E+03 0.  0.
<mgrwt>
<rscale>  0 0.55898210E+03</rscale>
<asrwt>0</asrwt>
<pdfrwt beam="1">  1        2 0.17127558E+00 0.55898210E+03</pdfrwt>
<pdfrwt beam="2">  1       -2 0.10794776E-01 0.55898210E+03</pdfrwt>
<totfact> 0.13081412E+03</totfact>
</mgrwt>
</event>
<event>
 4    1  0.1773996E-005  0.5887219E+03  0.7818608E-02  0.9929085E-01
          2   -1    0    0  501    0  0.00000000000E+00  0.00000000000E+00  0.17727539538E+04  0.17727539538E+04  0.25500000000E-02 0.  1.
         -2   -1    0    0    0  501 -0.00000000000E+00 -0.00000000000E+00 -0.48877830905E+02  0.48877830972E+02  0.25500000000E-02 0. -1.
   -5000001    1    1    2    0    0 -0.14033249429E+03 -0.64543528984E+02  0.80930985233E+03  0.86101191232E+03  0.25000000000E+03 0.  0.
    5000001    1    1    2    0    0  0.14033249429E+03  0.64543528984E+02  0.91456627056E+03  0.96061987245E+03  0.25000000000E+03 0.  0.
<mgrwt>
<rscale>  0 0.58872190E+03</rscale>
<asrwt>0</asrwt>
<pdfrwt beam="1">  1        2 0.27273138E+00 0.58872190E+03</pdfrwt>
<pdfrwt beam="2">  1       -2 0.75196663E-02 0.58872190E+03</pdfrwt>
<totfact> 0.99633332E+02</totfact>
</mgrwt>
</event>
<event>
 4    1  0.1773996E-005  0.7767483E+03  0.7818608E-02  0.9594297E-01
         -2   -1    0    0    0  501 -0.00000000000E+00  0.00000000000E+00  0.20952893284E+03  0.20952893286E+03  0.25500000000E-02 0. -1.
          2   -1    0    0  501    0  0.00000000000E+00 -0.00000000000E+00 -0.71987419151E+03  0.71987419151E+03  0.25500000000E-02 0.  1.
   -5000001    1    1    2    0    0 -0.15452097662E+03 -0.18573015680E+03 -0.48058572206E+02  0.35097300427E+03  0.25000000000E+03 0.  0.
    5000001    1    1    2    0    0  0.15452097662E+03  0.18573015680E+03 -0.46228668646E+03  0.57843012010E+03  0.25000000000E+03 0.  0.
<mgrwt>
<rscale>  0 0.77674828E+03</rscale>
<asrwt>0</asrwt>
<pdfrwt beam="1">  1        2 0.11074987E+00 0.77674828E+03</pdfrwt>
<pdfrwt beam="2">  1       -2 0.32235221E-01 0.77674828E+03</pdfrwt>
<totfact> 0.35607605E+02</totfact>
</mgrwt>
</event>
<event>
 4    1  0.1773996E-005  0.7863722E+03  0.7818608E-02  0.9579955E-01
          2   -1    0    0  501    0  0.00000000000E+00  0.00000000000E+00  0.26582855159E+04  0.26582855159E+04  0.25500000000E-02 0.  1.
         -2   -1    0    0    0  501 -0.00000000000E+00 -0.00000000000E+00 -0.58156027070E+02  0.58156027126E+02  0.25500000000E-02 0. -1.
   -5000001    1    1    2    0    0  0.22061821609E+03  0.13534670976E+03  0.75273967163E+03  0.83433095494E+03  0.25000000000E+03 0.  0.
    5000001    1    1    2    0    0 -0.22061821609E+03 -0.13534670976E+03  0.18473898172E+04  0.18821105880E+04  0.25000000000E+03 0.  0.
<mgrwt>
<rscale>  0 0.78637224E+03</rscale>
<asrwt>0</asrwt>
<pdfrwt beam="1">  1        2 0.40896704E+00 0.78637224E+03</pdfrwt>
<pdfrwt beam="2">  1       -2 0.89470803E-02 0.78637224E+03</pdfrwt>
<totfact> 0.24021414E+02</totfact>
</mgrwt>
</event>
<event>
 4    1  0.1773996E-005  0.5504652E+03  0.7818608E-02  0.1001386E+00
          2   -1    0    0  501    0  0.00000000000E+00  0.00000000000E+00  0.38269078597E+03  0.38269078598E+03  0.25500000000E-02 0.  1.
         -2   -1    0    0    0  501 -0.00000000000E+00 -0.00000000000E+00 -0.19794831795E+03  0.19794831797E+03  0.25500000000E-02 0. -1.
   -5000001    1    1    2    0    0 -0.89859031628E+02 -0.68737498642E+02  0.69908174942E+02  0.28317246019E+03  0.25000000000E+03 0.  0.
    5000001    1    1    2    0    0  0.89859031628E+02  0.68737498642E+02  0.11483429308E+03  0.29746664376E+03  0.25000000000E+03 0.  0.
<mgrwt>
<rscale>  0 0.55046525E+03</rscale>
<asrwt>0</asrwt>
<pdfrwt beam="1">  1        2 0.58875506E-01 0.55046525E+03</pdfrwt>
<pdfrwt beam="2">  1       -2 0.30453587E-01 0.55046525E+03</pdfrwt>
<totfact> 0.83657852E+02</totfact>
</mgrwt>
</event>
<event>
 4    1  0.1773996E-005  0.7613609E+03  0.7818608E-02  0.9617694E-01
          2   -1    0    0  501    0  0.00000000000E+00  0.00000000000E+00  0.72700912609E+02  0.72700912653E+02  0.25500000000E-02 0.  1.
         -2   -1    0    0    0  501 -0.00000000000E+00 -0.00000000000E+00 -0.19933397258E+04  0.19933397258E+04  0.25500000000E-02 0. -1.
   -5000001    1    1    2    0    0  0.16379091157E+03  0.20822157666E+03 -0.12604645076E+04  0.13120420964E+04  0.25000000000E+03 0.  0.
    5000001    1    1    2    0    0 -0.16379091157E+03 -0.20822157666E+03 -0.66017430550E+03  0.75399854200E+03  0.25000000000E+03 0.  0.
<mgrwt>
<rscale>  0 0.76136093E+03</rscale>
<asrwt>0</asrwt>
<pdfrwt beam="1">  1        2 0.11184757E-01 0.76136093E+03</pdfrwt>
<pdfrwt beam="2">  1       -2 0.30666761E+00 0.76136093E+03</pdfrwt>
<totfact> 0.17374886E+01</totfact>
</mgrwt>
</event>
<event>
 4    1  0.1773996E-005  0.1210259E+04  0.7818608E-02  0.9103924E-01
          2   -1    0    0  501    0  0.00000000000E+00  0.00000000000E+00  0.20215115376E+04  0.20215115376E+04  0.25500000000E-02 0.  1.
         -2   -1    0    0    0  501 -0.00000000000E+00 -0.00000000000E+00 -0.18114238701E+03  0.18114238703E+03  0.25500000000E-02 0. -1.
   -5000001    1    1    2    0    0 -0.49013793287E+03  0.53969884433E+02  0.47240327807E+03  0.72719515867E+03  0.25000000000E+03 0.  0.
    5000001    1    1    2    0    0  0.49013793287E+03 -0.53969884433E+02  0.13679658726E+04  0.14754587660E+04  0.25000000000E+03 0.  0.
<mgrwt>
<rscale>  0 0.12102585E+04</rscale>
<asrwt>0</asrwt>
<pdfrwt beam="1">  1        2 0.31100175E+00 0.12102585E+04</pdfrwt>
<pdfrwt beam="2">  1       -2 0.27868062E-01 0.12102585E+04</pdfrwt>
<totfact> 0.75474161E+01</totfact>
</mgrwt>
</event>
<event>
 4    1  0.1773996E-005  0.8896089E+03  0.7818608E-02  0.9438665E-01
         -2   -1    0    0    0  501 -0.00000000000E+00  0.00000000000E+00  0.54419025511E+02  0.54419025571E+02  0.25500000000E-02 0.  1.
          2   -1    0    0  501    0  0.00000000000E+00 -0.00000000000E+00 -0.36356956636E+04  0.36356956636E+04  0.25500000000E-02 0. -1.
   -5000001    1    1    2    0    0 -0.34892794186E+03  0.11659296776E+03 -0.17801556915E+04  0.18348838968E+04  0.25000000000E+03 0.  0.
    5000001    1    1    2    0    0  0.34892794186E+03 -0.11659296776E+03 -0.18011209466E+04  0.18552307924E+04  0.25000000000E+03 0.  0.
<mgrwt>
<rscale>  0 0.88960894E+03</rscale>
<asrwt>0</asrwt>
<pdfrwt beam="1">  1        2 0.55933760E+00 0.88960894E+03</pdfrwt>
<pdfrwt beam="2">  1       -2 0.83721607E-02 0.88960894E+03</pdfrwt>
<totfact> 0.63178424E+01</totfact>
</mgrwt>
</event>
<event>
 4    1  0.1773996E-005  0.7532845E+03  0.7818608E-02  0.9630212E-01
         -2   -1    0    0    0  501 -0.00000000000E+00  0.00000000000E+00  0.13460942273E+03  0.13460942275E+03  0.25500000000E-02 0. -1.
          2   -1    0    0  501    0  0.00000000000E+00 -0.00000000000E+00 -0.10538591361E+04  0.10538591361E+04  0.25500000000E-02 0.  1.
   -5000001    1    1    2    0    0  0.23071757974E+03  0.35370122229E+02 -0.21077694519E+03  0.40175685156E+03  0.25000000000E+03 0.  0.
    5000001    1    1    2    0    0 -0.23071757974E+03 -0.35370122229E+02 -0.70847276819E+03  0.78671170730E+03  0.25000000000E+03 0.  0.
<mgrwt>
<rscale>  0 0.75328446E+03</rscale>
<asrwt>0</asrwt>
<pdfrwt beam="1">  1        2 0.16213217E+00 0.75328446E+03</pdfrwt>
<pdfrwt beam="2">  1       -2 0.20709143E-01 0.75328446E+03</pdfrwt>
<totfact> 0.47013046E+02</totfact>
</mgrwt>
</event>
<event>
 4    1  0.1773996E-005  0.7070730E+03  0.7818608E-02  0.9705212E-01
         -2   -1    0    0    0  501 -0.00000000000E+00  0.00000000000E+00  0.59557734729E+03  0.59557734730E+03  0.25500000000E-02 0. -1.
          2   -1    0    0  501    0  0.00000000000E+00 -0.00000000000E+00 -0.20986033855E+03  0.20986033857E+03  0.25500000000E-02 0.  1.
   -5000001    1    1    2    0    0 -0.14769327302E+03  0.14135062302E+03  0.35672791839E+03  0.48119446099E+03  0.25000000000E+03 0.  0.
    5000001    1    1    2    0    0  0.14769327302E+03 -0.14135062302E+03  0.28989090350E+02  0.32424322489E+03  0.25000000000E+03 0.  0.
<mgrwt>
<rscale>  0 0.70707302E+03</rscale>
<asrwt>0</asrwt>
<pdfrwt beam="1">  1        2 0.32286206E-01 0.70707302E+03</pdfrwt>
<pdfrwt beam="2">  1       -2 0.91627284E-01 0.70707302E+03</pdfrwt>
<totfact> 0.16772736E+02</totfact>
</mgrwt>
</event>
<event>
 4    1  0.1773996E-005  0.8655762E+03  0.7818608E-02  0.9469666E-01
         -2   -1    0    0    0  501 -0.00000000000E+00  0.00000000000E+00  0.66932745501E+02  0.66932745550E+02  0.25500000000E-02 0. -1.
          2   -1    0    0  501    0  0.00000000000E+00 -0.00000000000E+00 -0.27984138507E+04  0.27984138507E+04  0.25500000000E-02 0.  1.
   -5000001    1    1    2    0    0  0.89780223238E+02  0.34122882369E+03 -0.14238294763E+04  0.14880483783E+04  0.25000000000E+03 0.  0.
    5000001    1    1    2    0    0 -0.89780223238E+02 -0.34122882369E+03 -0.13076516290E+04  0.13772982180E+04  0.25000000000E+03 0.  0.
<mgrwt>
<rscale>  0 0.86557616E+03</rscale>
<asrwt>0</asrwt>
<pdfrwt beam="1">  1        2 0.43052512E+00 0.86557616E+03</pdfrwt>
<pdfrwt beam="2">  1       -2 0.10297348E-01 0.86557616E+03</pdfrwt>
<totfact> 0.15696922E+02</totfact>
</mgrwt>
</event>
<event>
 4    1  0.1773996E-005  0.8715834E+03  0.7818608E-02  0.9461818E-01
         -2   -1    0    0    0  501 -0.00000000000E+00  0.00000000000E+00  0.87896679032E+02  0.87896679069E+02  0.25500000000E-02 0. -1.
          2   -1    0    0  501    0  0.00000000000E+00 -0.00000000000E+00 -0.21606548626E+04  0.21606548626E+04  0.25500000000E-02 0.  1.
   -5000001    1    1    2    0    0  0.35335496093E+03 -0.43394593727E+02 -0.96952332754E+03  0.10626468378E+04  0.25000000000E+03 0.  0.
    5000001    1    1    2    0    0 -0.35335496093E+03  0.43394593727E+02 -0.11032348561E+04  0.11859047039E+04  0.25000000000E+03 0.  0.
<mgrwt>
<rscale>  0 0.87158336E+03</rscale>
<asrwt>0</asrwt>
<pdfrwt beam="1">  1        2 0.33240840E+00 0.87158336E+03</pdfrwt>
<pdfrwt beam="2">  1       -2 0.13522568E-01 0.87158336E+03</pdfrwt>
<totfact> 0.23064487E+02</totfact>
</mgrwt>
</event>
<event>
 4    1  0.1773996E-005  0.1112378E+04  0.7818608E-02  0.9193210E-01
          2   -1    0    0  501    0  0.00000000000E+00  0.00000000000E+00  0.54696932548E+03  0.54696932549E+03  0.25500000000E-02 0.  1.
         -2   -1    0    0    0  501 -0.00000000000E+00 -0.00000000000E+00 -0.56556443034E+03  0.56556443034E+03  0.25500000000E-02 0. -1.
   -5000001    1    1    2    0    0  0.14063814828E+03  0.39700831453E+03  0.25427617953E+03  0.55186145547E+03  0.25000000000E+03 0.  0.
    5000001    1    1    2    0    0 -0.14063814828E+03 -0.39700831453E+03 -0.27287128438E+03  0.56067230036E+03  0.25000000000E+03 0.  0.
<mgrwt>
<rscale>  0 0.11123783E+04</rscale>
<asrwt>0</asrwt>
<pdfrwt beam="1">  1        2 0.84149127E-01 0.11123783E+04</pdfrwt>
<pdfrwt beam="2">  1       -2 0.87009912E-01 0.11123783E+04</pdfrwt>
<totfact> 0.62831231E+01</totfact>
</mgrwt>
</event>
<event>
 4    1  0.1773996E-005  0.9182267E+03  0.7818608E-02  0.9403080E-01
          2   -1    0    0  501    0  0.00000000000E+00  0.00000000000E+00  0.33699722970E+03  0.33699722971E+03  0.25500000000E-02 0.  1.
         -2   -1    0    0    0  501 -0.00000000000E+00 -0.00000000000E+00 -0.62548015788E+03  0.62548015788E+03  0.25500000000E-02 0. -1.
   -5000001    1    1    2    0    0 -0.41310427741E+02  0.38266196537E+03 -0.13147462744E+03  0.47741209541E+03  0.25000000000E+03 0.  0.
    5000001    1    1    2    0    0  0.41310427741E+02 -0.38266196537E+03 -0.15700830074E+03  0.48506529218E+03  0.25000000000E+03 0.  0.
<mgrwt>
<rscale>  0 0.91822673E+03</rscale>
<asrwt>0</asrwt>
<pdfrwt beam="1">  1        2 0.51845728E-01 0.91822673E+03</pdfrwt>
<pdfrwt beam="2">  1       -2 0.96227716E-01 0.91822673E+03</pdfrwt>
<totfact> 0.87430817E+01</totfact>
</mgrwt>
</event>
<event>
 4    1  0.1773996E-005  0.8648695E+03  0.7818608E-02  0.9470594E-01
         -2   -1    0    0    0  501 -0.00000000000E+00  0.00000000000E+00  0.91999103287E+03  0.91999103288E+03  0.25500000000E-02 0. -1.
          2   -1    0    0  501    0  0.00000000000E+00 -0.00000000000E+00 -0.20326262980E+03  0.20326262981E+03  0.25500000000E-02 0.  1.
   -5000001    1    1    2    0    0 -0.50943734226E+02  0.20214336419E+03  0.72809356622E+03  0.79754463506E+03  0.25000000000E+03 0.  0.
    5000001    1    1    2    0    0  0.50943734226E+02 -0.20214336419E+03 -0.11365163149E+02  0.32570902763E+03  0.25000000000E+03 0.  0.
<mgrwt>
<rscale>  0 0.86486946E+03</rscale>
<asrwt>0</asrwt>
<pdfrwt beam="1">  1        2 0.31271174E-01 0.86486946E+03</pdfrwt>
<pdfrwt beam="2">  1       -2 0.14153708E+00 0.86486946E+03</pdfrwt>
<totfact> 0.59557889E+01</totfact>
</mgrwt>
</event>
<event>
 4    1  0.1773996E-005  0.1017645E+04  0.7818608E-02  0.9289401E-01
          2   -1    0    0  501    0  0.00000000000E+00  0.00000000000E+00  0.11375416996E+04  0.11375416996E+04  0.25500000000E-02 0.  1.
         -2   -1    0    0    0  501 -0.00000000000E+00 -0.00000000000E+00 -0.22759621759E+03  0.22759621761E+03  0.25500000000E-02 0. -1.
   -5000001    1    1    2    0    0 -0.13378833844E+03 -0.30356248738E+03  0.84916967691E+03  0.94532462331E+03  0.25000000000E+03 0.  0.
    5000001    1    1    2    0    0  0.13378833844E+03  0.30356248738E+03  0.60775805088E+02  0.41981329390E+03  0.25000000000E+03 0.  0.
<mgrwt>
<rscale>  0 0.10176447E+04</rscale>
<asrwt>0</asrwt>
<pdfrwt beam="1">  1        2 0.17500641E+00 0.10176447E+04</pdfrwt>
<pdfrwt beam="2">  1       -2 0.35014803E-01 0.10176447E+04</pdfrwt>
<totfact> 0.15754967E+02</totfact>
</mgrwt>
</event>
<event>
 4    1  0.1773996E-005  0.7792119E+03  0.7818608E-02  0.9590604E-01
         -2   -1    0    0    0  501 -0.00000000000E+00  0.00000000000E+00  0.15404417838E+03  0.15404417840E+03  0.25500000000E-02 0. -1.
          2   -1    0    0  501    0  0.00000000000E+00 -0.00000000000E+00 -0.98538484747E+03  0.98538484747E+03  0.25500000000E-02 0.  1.
   -5000001    1    1    2    0    0  0.20620847223E+03  0.13621319391E+03 -0.66130282782E+03  0.74893083679E+03  0.25000000000E+03 0.  0.
    5000001    1    1    2    0    0 -0.20620847223E+03 -0.13621319391E+03 -0.17003784127E+03  0.39049818908E+03  0.25000000000E+03 0.  0.
<mgrwt>
<rscale>  0 0.77921191E+03</rscale>
<asrwt>0</asrwt>
<pdfrwt beam="1">  1        2 0.15159767E+00 0.77921191E+03</pdfrwt>
<pdfrwt beam="2">  1       -2 0.23699105E-01 0.77921191E+03</pdfrwt>
<totfact> 0.40845368E+02</totfact>
</mgrwt>
</event>
<event>
 4    1  0.1773996E-005  0.8794150E+03  0.7818608E-02  0.9451686E-01
         -2   -1    0    0    0  501 -0.00000000000E+00  0.00000000000E+00  0.49787461286E+02  0.49787461352E+02  0.25500000000E-02 0. -1.
          2   -1    0    0  501    0  0.00000000000E+00 -0.00000000000E+00 -0.38833609528E+04  0.38833609528E+04  0.25500000000E-02 0.  1.
   -5000001    1    1    2    0    0  0.15417937962E+03 -0.12694868829E+03 -0.32656278440E+04  0.32812668995E+04  0.25000000000E+03 0.  0.
    5000001    1    1    2    0    0 -0.15417937962E+03  0.12694868829E+03 -0.56794564753E+03  0.65188151462E+03  0.25000000000E+03 0.  0.
<mgrwt>
<rscale>  0 0.87941499E+03</rscale>
<asrwt>0</asrwt>
<pdfrwt beam="1">  1        2 0.59743991E+00 0.87941499E+03</pdfrwt>
<pdfrwt beam="2">  1       -2 0.76596125E-02 0.87941499E+03</pdfrwt>
<totfact> 0.47978042E+01</totfact>
</mgrwt>
</event>
<event>
 4    1  0.1773996E-005  0.6908861E+03  0.7818608E-02  0.9732946E-01
          2   -1    0    0  501    0  0.00000000000E+00  0.00000000000E+00  0.43802570068E+03  0.43802570069E+03  0.25500000000E-02 0.  1.
         -2   -1    0    0    0  501 -0.00000000000E+00 -0.00000000000E+00 -0.27242901686E+03  0.27242901687E+03  0.25500000000E-02 0. -1.
   -5000001    1    1    2    0    0 -0.14163020693E+03  0.26954419619E+02 -0.11243499546E+03  0.30972130126E+03  0.25000000000E+03 0.  0.
    5000001    1    1    2    0    0  0.14163020693E+03 -0.26954419619E+02  0.27803167928E+03  0.40073341630E+03  0.25000000000E+03 0.  0.
<mgrwt>
<rscale>  0 0.69088613E+03</rscale>
<asrwt>0</asrwt>
<pdfrwt beam="1">  1        2 0.67388568E-01 0.69088613E+03</pdfrwt>
<pdfrwt beam="2">  1       -2 0.41912157E-01 0.69088613E+03</pdfrwt>
<totfact> 0.39017955E+02</totfact>
</mgrwt>
</event>
<event>
 4    1  0.1773996E-005  0.7860709E+03  0.7818608E-02  0.9580401E-01
         -2   -1    0    0    0  501 -0.00000000000E+00  0.00000000000E+00  0.43796513755E+03  0.43796513756E+03  0.25500000000E-02 0. -1.
          2   -1    0    0  501    0  0.00000000000E+00 -0.00000000000E+00 -0.35271495552E+03  0.35271495553E+03  0.25500000000E-02 0.  1.
   -5000001    1    1    2    0    0  0.28080672959E+03 -0.10912231876E+03  0.77711629546E+02  0.39912303517E+03  0.25000000000E+03 0.  0.
    5000001    1    1    2    0    0 -0.28080672959E+03  0.10912231876E+03  0.75385524836E+01  0.39155705792E+03  0.25000000000E+03 0.  0.
<mgrwt>
<rscale>  0 0.78607087E+03</rscale>
<asrwt>0</asrwt>
<pdfrwt beam="1">  1        2 0.54263840E-01 0.78607087E+03</pdfrwt>
<pdfrwt beam="2">  1       -2 0.67379251E-01 0.78607087E+03</pdfrwt>
<totfact> 0.18656303E+02</totfact>
</mgrwt>
</event>
<event>
 4    1  0.1773996E-005  0.6329777E+03  0.7818608E-02  0.9839255E-01
          2   -1    0    0  501    0  0.00000000000E+00  0.00000000000E+00  0.66797699308E+03  0.66797699309E+03  0.25500000000E-02 0.  1.
         -2   -1    0    0    0  501 -0.00000000000E+00 -0.00000000000E+00 -0.14995306322E+03  0.14995306324E+03  0.25500000000E-02 0. -1.
   -5000001    1    1    2    0    0 -0.51253245465E+02  0.18478692306E+03  0.22041678223E+03  0.38452133880E+03  0.25000000000E+03 0.  0.
    5000001    1    1    2    0    0  0.51253245465E+02 -0.18478692306E+03  0.29760714763E+03  0.43340871752E+03  0.25000000000E+03 0.  0.
<mgrwt>
<rscale>  0 0.63297771E+03</rscale>
<asrwt>0</asrwt>
<pdfrwt beam="1">  1        2 0.10276569E+00 0.63297771E+03</pdfrwt>
<pdfrwt beam="2">  1       -2 0.23069702E-01 0.63297771E+03</pdfrwt>
<totfact> 0.72388687E+02</totfact>
</mgrwt>
</event>
<event>
 4    1  0.1773996E-005  0.7325535E+03  0.7818608E-02  0.9663126E-01
         -2   -1    0    0    0  501 -0.00000000000E+00  0.00000000000E+00  0.80039066235E+02  0.80039066275E+02  0.25500000000E-02 0. -1.
          2   -1    0    0  501    0  0.00000000000E+00 -0.00000000000E+00 -0.16761645266E+04  0.16761645266E+04  0.25500000000E-02 0.  1.
   -5000001    1    1    2    0    0  0.26759057888E+03 -0.25554124769E+00 -0.78046849831E+03  0.86211128055E+03  0.25000000000E+03 0.  0.
    5000001    1    1    2    0    0 -0.26759057888E+03  0.25554124769E+00 -0.81565696205E+03  0.89409231231E+03  0.25000000000E+03 0.  0.
<mgrwt>
<rscale>  0 0.73255346E+03</rscale>
<asrwt>0</asrwt>
<pdfrwt beam="1">  1        2 0.25787144E+00 0.73255346E+03</pdfrwt>
<pdfrwt beam="2">  1       -2 0.12313704E-01 0.73255346E+03</pdfrwt>
<totfact> 0.50144556E+02</totfact>
</mgrwt>
</event>
<event>
 4    1  0.1773996E-005  0.6652847E+03  0.7818608E-02  0.9778514E-01
         -2   -1    0    0    0  501 -0.00000000000E+00  0.00000000000E+00  0.11582068312E+03  0.11582068315E+03  0.25500000000E-02 0. -1.
          2   -1    0    0  501    0  0.00000000000E+00 -0.00000000000E+00 -0.95536423527E+03  0.95536423528E+03  0.25500000000E-02 0.  1.
   -5000001    1    1    2    0    0 -0.14893904037E+03  0.25463912373E+02 -0.16356766545E+03  0.33479192009E+03  0.25000000000E+03 0.  0.
    5000001    1    1    2    0    0  0.14893904037E+03 -0.25463912373E+02 -0.67597588671E+03  0.73639299833E+03  0.25000000000E+03 0.  0.
<mgrwt>
<rscale>  0 0.66528472E+03</rscale>
<asrwt>0</asrwt>
<pdfrwt beam="1">  1        2 0.14697911E+00 0.66528472E+03</pdfrwt>
<pdfrwt beam="2">  1       -2 0.17818567E-01 0.66528472E+03</pdfrwt>
<totfact> 0.70771445E+02</totfact>
</mgrwt>
</event>
<event>
 4    1  0.1773996E-005  0.7216898E+03  0.7818608E-02  0.9680842E-01
          2   -1    0    0  501    0  0.00000000000E+00  0.00000000000E+00  0.98270820379E+03  0.98270820380E+03  0.25500000000E-02 0.  1.
         -2   -1    0    0    0  501 -0.00000000000E+00 -0.00000000000E+00 -0.13250019862E+03  0.13250019864E+03  0.25500000000E-02 0. -1.
   -5000001    1    1    2    0    0 -0.21780761485E+03 -0.14093770244E+03  0.45621889611E+03  0.58132544605E+03  0.25000000000E+03 0.  0.
    5000001    1    1    2    0    0  0.21780761485E+03  0.14093770244E+03  0.39398910907E+03  0.53388295639E+03  0.25000000000E+03 0.  0.
<mgrwt>
<rscale>  0 0.72168977E+03</rscale>
<asrwt>0</asrwt>
<pdfrwt beam="1">  1        2 0.15118587E+00 0.72168977E+03</pdfrwt>
<pdfrwt beam="2">  1       -2 0.20384646E-01 0.72168977E+03</pdfrwt>
<totfact> 0.53681581E+02</totfact>
</mgrwt>
</event>
<event>
 4    1  0.1773996E-005  0.5970321E+03  0.7818608E-02  0.9911583E-01
          2   -1    0    0  501    0  0.00000000000E+00  0.00000000000E+00  0.77537384308E+03  0.77537384309E+03  0.25500000000E-02 0.  1.
         -2   -1    0    0    0  501 -0.00000000000E+00 -0.00000000000E+00 -0.11492755392E+03  0.11492755395E+03  0.25500000000E-02 0. -1.
   -5000001    1    1    2    0    0  0.53943358126E+02  0.14192647860E+03  0.24126377818E+03  0.37915857089E+03  0.25000000000E+03 0.  0.
    5000001    1    1    2    0    0 -0.53943358126E+02 -0.14192647860E+03  0.41918251098E+03  0.51114282615E+03  0.25000000000E+03 0.  0.
<mgrwt>
<rscale>  0 0.59703206E+03</rscale>
<asrwt>0</asrwt>
<pdfrwt beam="1">  1        2 0.11928828E+00 0.59703206E+03</pdfrwt>
<pdfrwt beam="2">  1       -2 0.17681162E-01 0.59703206E+03</pdfrwt>
<totfact> 0.95446381E+02</totfact>
</mgrwt>
</event>
<event>
 4    1  0.1773996E-005  0.6714786E+03  0.7818608E-02  0.9767290E-01
          2   -1    0    0  501    0  0.00000000000E+00  0.00000000000E+00  0.48997214505E+03  0.48997214506E+03  0.25500000000E-02 0.  1.
         -2   -1    0    0    0  501 -0.00000000000E+00 -0.00000000000E+00 -0.23005567039E+03  0.23005567040E+03  0.25500000000E-02 0. -1.
   -5000001    1    1    2    0    0 -0.20185984360E+03 -0.64986328296E+02  0.52260719596E+02  0.33196656780E+03  0.25000000000E+03 0.  0.
    5000001    1    1    2    0    0  0.20185984360E+03  0.64986328296E+02  0.20765575506E+03  0.38806124766E+03  0.25000000000E+03 0.  0.
<mgrwt>
<rscale>  0 0.67147858E+03</rscale>
<asrwt>0</asrwt>
<pdfrwt beam="1">  1        2 0.75380330E-01 0.67147858E+03</pdfrwt>
<pdfrwt beam="2">  1       -2 0.35393180E-01 0.67147858E+03</pdfrwt>
<totfact> 0.47620009E+02</totfact>
</mgrwt>
</event>
<event>
 4    1  0.1773996E-005  0.5440918E+03  0.7818608E-02  0.1002871E+00
          2   -1    0    0  501    0  0.00000000000E+00  0.00000000000E+00  0.34461548506E+03  0.34461548507E+03  0.25500000000E-02 0.  1.
         -2   -1    0    0    0  501 -0.00000000000E+00 -0.00000000000E+00 -0.21475814069E+03  0.21475814070E+03  0.25500000000E-02 0. -1.
   -5000001    1    1    2    0    0  0.10193950714E+03  0.13607094956E+02  0.96317572453E+02  0.28697367634E+03  0.25000000000E+03 0.  0.
    5000001    1    1    2    0    0 -0.10193950714E+03 -0.13607094956E+02  0.33539771923E+02  0.27239994943E+03  0.25000000000E+03 0.  0.
<mgrwt>
<rscale>  0 0.54409183E+03</rscale>
<asrwt>0</asrwt>
<pdfrwt beam="1">  1        2 0.53017767E-01 0.54409183E+03</pdfrwt>
<pdfrwt beam="2">  1       -2 0.33039714E-01 0.54409183E+03</pdfrwt>
<totfact> 0.80738606E+02</totfact>
</mgrwt>
</event>
<event>
 4    1  0.1773996E-005  0.6053740E+03  0.7818608E-02  0.9894319E-01
          2   -1    0    0  501    0  0.00000000000E+00  0.00000000000E+00  0.59256017626E+03  0.59256017627E+03  0.25500000000E-02 0.  1.
         -2   -1    0    0    0  501 -0.00000000000E+00 -0.00000000000E+00 -0.15461625013E+03  0.15461625015E+03  0.25500000000E-02 0. -1.
   -5000001    1    1    2    0    0  0.84350352672E+02  0.13576404846E+03  0.29274369149E+03  0.41682817534E+03  0.25000000000E+03 0.  0.
    5000001    1    1    2    0    0 -0.84350352672E+02 -0.13576404846E+03  0.14520023464E+03  0.33034825108E+03  0.25000000000E+03 0.  0.
<mgrwt>
<rscale>  0 0.60537404E+03</rscale>
<asrwt>0</asrwt>
<pdfrwt beam="1">  1        2 0.91163104E-01 0.60537404E+03</pdfrwt>
<pdfrwt beam="2">  1       -2 0.23787115E-01 0.60537404E+03</pdfrwt>
<totfact> 0.79335659E+02</totfact>
</mgrwt>
</event>
<event>
 4    1  0.1773996E-005  0.9476399E+03  0.7818608E-02  0.9367913E-01
          2   -1    0    0  501    0  0.00000000000E+00  0.00000000000E+00  0.47992210381E+03  0.47992210382E+03  0.25500000000E-02 0.  1.
         -2   -1    0    0    0  501 -0.00000000000E+00 -0.00000000000E+00 -0.46779541417E+03  0.46779541418E+03  0.25500000000E-02 0. -1.
   -5000001    1    1    2    0    0 -0.19318164647E+03 -0.30212122811E+03 -0.17673284018E+03  0.47151975760E+03  0.25000000000E+03 0.  0.
    5000001    1    1    2    0    0  0.19318164647E+03  0.30212122811E+03  0.18885952982E+03  0.47619776040E+03  0.25000000000E+03 0.  0.
<mgrwt>
<rscale>  0 0.94763993E+03</rscale>
<asrwt>0</asrwt>
<pdfrwt beam="1">  1        2 0.73834170E-01 0.94763993E+03</pdfrwt>
<pdfrwt beam="2">  1       -2 0.71968525E-01 0.94763993E+03</pdfrwt>
<totfact> 0.11317388E+02</totfact>
</mgrwt>
</event>
<event>
 4    1  0.1773996E-005  0.5876942E+03  0.7818608E-02  0.9931271E-01
         -2   -1    0    0    0  501 -0.00000000000E+00  0.00000000000E+00  0.56151200200E+03  0.56151200201E+03  0.25500000000E-02 0. -1.
          2   -1    0    0  501    0  0.00000000000E+00 -0.00000000000E+00 -0.15377428549E+03  0.15377428551E+03  0.25500000000E-02 0.  1.
   -5000001    1    1    2    0    0  0.23760785756E+02 -0.10730119272E+03  0.33590097771E+03  0.43290598024E+03  0.25000000000E+03 0.  0.
    5000001    1    1    2    0    0 -0.23760785756E+02  0.10730119272E+03  0.71836738799E+02  0.28238030728E+03  0.25000000000E+03 0.  0.
<mgrwt>
<rscale>  0 0.58769416E+03</rscale>
<asrwt>0</asrwt>
<pdfrwt beam="1">  1        2 0.23657583E-01 0.58769416E+03</pdfrwt>
<pdfrwt beam="2">  1       -2 0.86386460E-01 0.58769416E+03</pdfrwt>
<totfact> 0.27430009E+02</totfact>
</mgrwt>
</event>
<event>
 4    1  0.1773996E-005  0.8576972E+03  0.7818608E-02  0.9480064E-01
         -2   -1    0    0    0  501 -0.00000000000E+00  0.00000000000E+00  0.47690255583E+02  0.47690255651E+02  0.25500000000E-02 0. -1.
          2   -1    0    0  501    0  0.00000000000E+00 -0.00000000000E+00 -0.38563666272E+04  0.38563666272E+04  0.25500000000E-02 0.  1.
   -5000001    1    1    2    0    0  0.19971159680E+03  0.28436353952E+03 -0.20216088978E+04  0.20664340977E+04  0.25000000000E+03 0.  0.
    5000001    1    1    2    0    0 -0.19971159680E+03 -0.28436353952E+03 -0.17870674738E+04  0.18376227852E+04  0.25000000000E+03 0.  0.
<mgrwt>
<rscale>  0 0.85769717E+03</rscale>
<asrwt>0</asrwt>
<pdfrwt beam="1">  1        2 0.59328692E+00 0.85769717E+03</pdfrwt>
<pdfrwt beam="2">  1       -2 0.73369655E-02 0.85769717E+03</pdfrwt>
<totfact> 0.54040326E+01</totfact>
</mgrwt>
</event>
<event>
 4    1  0.1773996E-005  0.5931321E+03  0.7818608E-02  0.9919758E-01
         -2   -1    0    0    0  501 -0.00000000000E+00  0.00000000000E+00  0.15393757615E+03  0.15393757618E+03  0.25500000000E-02 0. -1.
          2   -1    0    0  501    0  0.00000000000E+00 -0.00000000000E+00 -0.57134466357E+03  0.57134466357E+03  0.25500000000E-02 0.  1.
   -5000001    1    1    2    0    0 -0.20909059480E+02  0.15734950648E+03 -0.22824375586E+03  0.37388670483E+03  0.25000000000E+03 0.  0.
    5000001    1    1    2    0    0  0.20909059480E+02 -0.15734950648E+03 -0.18916333156E+03  0.35139553492E+03  0.25000000000E+03 0.  0.
<mgrwt>
<rscale>  0 0.59313207E+03</rscale>
<asrwt>0</asrwt>
<pdfrwt beam="1">  1        2 0.87899178E-01 0.59313207E+03</pdfrwt>
<pdfrwt beam="2">  1       -2 0.23682704E-01 0.59313207E+03</pdfrwt>
<totfact> 0.83522553E+02</totfact>
</mgrwt>
</event>
<event>
 4    1  0.1773996E-005  0.6445749E+03  0.7818608E-02  0.9817013E-01
          2   -1    0    0  501    0  0.00000000000E+00  0.00000000000E+00  0.15365740051E+03  0.15365740053E+03  0.25500000000E-02 0.  1.
         -2   -1    0    0    0  501 -0.00000000000E+00 -0.00000000000E+00 -0.67597915754E+03  0.67597915755E+03  0.25500000000E-02 0. -1.
   -5000001    1    1    2    0    0 -0.54929693135E+02  0.11817607757E+03 -0.46215707379E+03  0.54136126325E+03  0.25000000000E+03 0.  0.
    5000001    1    1    2    0    0  0.54929693135E+02 -0.11817607757E+03 -0.60164683242E+02  0.28827529483E+03  0.25000000000E+03 0.  0.
<mgrwt>
<rscale>  0 0.64457490E+03</rscale>
<asrwt>0</asrwt>
<pdfrwt beam="1">  1        2 0.23639601E-01 0.64457490E+03</pdfrwt>
<pdfrwt beam="2">  1       -2 0.10399679E+00 0.64457490E+03</pdfrwt>
<totfact> 0.17791091E+02</totfact>
</mgrwt>
</event>
<event>
 4    1  0.1773996E-005  0.8290270E+03  0.7818608E-02  0.9518927E-01
         -2   -1    0    0    0  501 -0.00000000000E+00  0.00000000000E+00  0.18444856101E+03  0.18444856103E+03  0.25500000000E-02 0. -1.
          2   -1    0    0  501    0  0.00000000000E+00 -0.00000000000E+00 -0.93154120069E+03  0.93154120070E+03  0.25500000000E-02 0.  1.
   -5000001    1    1    2    0    0 -0.11590486991E+03 -0.27303126373E+03 -0.57020052780E+03  0.68964385863E+03  0.25000000000E+03 0.  0.
    5000001    1    1    2    0    0  0.11590486991E+03  0.27303126373E+03 -0.17689211188E+03  0.42634590310E+03  0.25000000000E+03 0.  0.
<mgrwt>
<rscale>  0 0.82902698E+03</rscale>
<asrwt>0</asrwt>
<pdfrwt beam="1">  1        2 0.14331403E+00 0.82902698E+03</pdfrwt>
<pdfrwt beam="2">  1       -2 0.28376702E-01 0.82902698E+03</pdfrwt>
<totfact> 0.31862721E+02</totfact>
</mgrwt>
</event>
<event>
 4    1  0.1773996E-005  0.6659570E+03  0.7818608E-02  0.9777289E-01
         -2   -1    0    0    0  501 -0.00000000000E+00  0.00000000000E+00  0.42866310621E+02  0.42866310697E+02  0.25500000000E-02 0. -1.
          2   -1    0    0  501    0  0.00000000000E+00 -0.00000000000E+00 -0.25865225614E+04  0.25865225614E+04  0.25500000000E-02 0.  1.
   -5000001    1    1    2    0    0  0.14507927633E+03 -0.15299947494E+03 -0.15189619554E+04  0.15537703362E+04  0.25000000000E+03 0.  0.
    5000001    1    1    2    0    0 -0.14507927633E+03  0.15299947494E+03 -0.10246942954E+04  0.10756185359E+04  0.25000000000E+03 0.  0.
<mgrwt>
<rscale>  0 0.66595699E+03</rscale>
<asrwt>0</asrwt>
<pdfrwt beam="1">  1        2 0.39792643E+00 0.66595699E+03</pdfrwt>
<pdfrwt beam="2">  1       -2 0.65948190E-02 0.66595699E+03</pdfrwt>
<totfact> 0.43483638E+02</totfact>
</mgrwt>
</event>
<event>
 4    1  0.1773996E-005  0.8188005E+03  0.7818608E-02  0.9533196E-01
          2   -1    0    0  501    0  0.00000000000E+00  0.00000000000E+00  0.49426689836E+03  0.49426689837E+03  0.25500000000E-02 0.  1.
         -2   -1    0    0    0  501 -0.00000000000E+00 -0.00000000000E+00 -0.33910537422E+03  0.33910537423E+03  0.25500000000E-02 0. -1.
   -5000001    1    1    2    0    0 -0.26226500612E+03 -0.18678175801E+03  0.38982207296E+02  0.40949965940E+03  0.25000000000E+03 0.  0.
    5000001    1    1    2    0    0  0.26226500612E+03  0.18678175801E+03  0.11617931684E+03  0.42387261320E+03  0.25000000000E+03 0.  0.
<mgrwt>
<rscale>  0 0.81880049E+03</rscale>
<asrwt>0</asrwt>
<pdfrwt beam="1">  1        2 0.76041061E-01 0.81880049E+03</pdfrwt>
<pdfrwt beam="2">  1       -2 0.52170058E-01 0.81880049E+03</pdfrwt>
<totfact> 0.21790597E+02</totfact>
</mgrwt>
</event>
<event>
 4    1  0.1773996E-005  0.1166481E+04  0.7818608E-02  0.9142712E-01
          2   -1    0    0  501    0  0.00000000000E+00  0.00000000000E+00  0.18529175020E+04  0.18529175020E+04  0.25500000000E-02 0.  1.
         -2   -1    0    0    0  501 -0.00000000000E+00 -0.00000000000E+00 -0.18358589004E+03  0.18358589006E+03  0.25500000000E-02 0. -1.
   -5000001    1    1    2    0    0 -0.37827817080E+03  0.33972586199E+03  0.10763353353E+04  0.12163493700E+04  0.25000000000E+03 0.  0.
    5000001    1    1    2    0    0  0.37827817080E+03 -0.33972586199E+03  0.59299627665E+03  0.82015402207E+03  0.25000000000E+03 0.  0.
<mgrwt>
<rscale>  0 0.11664810E+04</rscale>
<asrwt>0</asrwt>
<pdfrwt beam="1">  1        2 0.28506421E+00 0.11664810E+04</pdfrwt>
<pdfrwt beam="2">  1       -2 0.28243985E-01 0.11664810E+04</pdfrwt>
<totfact> 0.91535177E+01</totfact>
</mgrwt>
</event>
<event>
 4    1  0.1773996E-005  0.7156750E+03  0.7818608E-02  0.9690795E-01
         -2   -1    0    0    0  501 -0.00000000000E+00  0.00000000000E+00  0.11234532370E+03  0.11234532373E+03  0.25500000000E-02 0. -1.
          2   -1    0    0  501    0  0.00000000000E+00 -0.00000000000E+00 -0.11397684845E+04  0.11397684845E+04  0.25500000000E-02 0.  1.
   -5000001    1    1    2    0    0  0.41665704405E+02  0.25118097096E+03 -0.46677425955E+03  0.58754244142E+03  0.25000000000E+03 0.  0.
    5000001    1    1    2    0    0 -0.41665704405E+02 -0.25118097096E+03 -0.56064890126E+03  0.66457136681E+03  0.25000000000E+03 0.  0.
<mgrwt>
<rscale>  0 0.71567495E+03</rscale>
<asrwt>0</asrwt>
<pdfrwt beam="1">  1        2 0.17534899E+00 0.71567495E+03</pdfrwt>
<pdfrwt beam="2">  1       -2 0.17283897E-01 0.71567495E+03</pdfrwt>
<totfact> 0.57110176E+02</totfact>
</mgrwt>
</event>
<event>
 4    1  0.1773996E-005  0.6075693E+03  0.7818608E-02  0.9889826E-01
          2   -1    0    0  501    0  0.00000000000E+00  0.00000000000E+00  0.12555521017E+04  0.12555521017E+04  0.25500000000E-02 0.  1.
         -2   -1    0    0    0  501 -0.00000000000E+00 -0.00000000000E+00 -0.73501609236E+02  0.73501609280E+02  0.25500000000E-02 0. -1.
   -5000001    1    1    2    0    0  0.96115023638E+02 -0.14245465236E+03  0.62586579021E+03  0.69551377636E+03  0.25000000000E+03 0.  0.
    5000001    1    1    2    0    0 -0.96115023638E+02  0.14245465236E+03  0.55618470228E+03  0.63353993465E+03  0.25000000000E+03 0.  0.
<mgrwt>
<rscale>  0 0.60756926E+03</rscale>
<asrwt>0</asrwt>
<pdfrwt beam="1">  1        2 0.19316185E+00 0.60756926E+03</pdfrwt>
<pdfrwt beam="2">  1       -2 0.11307940E-01 0.60756926E+03</pdfrwt>
<totfact> 0.99801213E+02</totfact>
</mgrwt>
</event>
<event>
 4    1  0.1773996E-005  0.5627581E+03  0.7818608E-02  0.9985833E-01
          2   -1    0    0  501    0  0.00000000000E+00  0.00000000000E+00  0.14641086116E+04  0.14641086116E+04  0.25500000000E-02 0.  1.
         -2   -1    0    0    0  501 -0.00000000000E+00 -0.00000000000E+00 -0.54076697196E+02  0.54076697256E+02  0.25500000000E-02 0. -1.
   -5000001    1    1    2    0    0 -0.69237437377E+02 -0.10362442820E+03  0.61383678025E+03  0.67440895430E+03  0.25000000000E+03 0.  0.
    5000001    1    1    2    0    0  0.69237437377E+02  0.10362442820E+03  0.79619513410E+03  0.84377635451E+03  0.25000000000E+03 0.  0.
<mgrwt>
<rscale>  0 0.56275806E+03</rscale>
<asrwt>0</asrwt>
<pdfrwt beam="1">  1        2 0.22524749E+00 0.56275806E+03</pdfrwt>
<pdfrwt beam="2">  1       -2 0.83194915E-02 0.56275806E+03</pdfrwt>
<totfact> 0.12519530E+03</totfact>
</mgrwt>
</event>
<event>
 4    1  0.1773996E-005  0.9415209E+03  0.7818608E-02  0.9375117E-01
         -2   -1    0    0    0  501 -0.00000000000E+00  0.00000000000E+00  0.95200258947E+03  0.95200258948E+03  0.25500000000E-02 0. -1.
          2   -1    0    0  501    0  0.00000000000E+00 -0.00000000000E+00 -0.23278864219E+03  0.23278864220E+03  0.25500000000E-02 0.  1.
   -5000001    1    1    2    0    0  0.18916002382E+03 -0.32110184326E+03  0.53857802405E+03  0.70103794216E+03  0.25000000000E+03 0.  0.
    5000001    1    1    2    0    0 -0.18916002382E+03  0.32110184326E+03  0.18063592323E+03  0.48375328952E+03  0.25000000000E+03 0.  0.
<mgrwt>
<rscale>  0 0.94152088E+03</rscale>
<asrwt>0</asrwt>
<pdfrwt beam="1">  1        2 0.35813638E-01 0.94152088E+03</pdfrwt>
<pdfrwt beam="2">  1       -2 0.14646193E+00 0.94152088E+03</pdfrwt>
<totfact> 0.46556765E+01</totfact>
</mgrwt>
</event>
<event>
 4    1  0.1773996E-005  0.1262951E+04  0.7818608E-02  0.9059472E-01
         -2   -1    0    0    0  501 -0.00000000000E+00  0.00000000000E+00  0.41800952629E+03  0.41800952630E+03  0.25500000000E-02 0. -1.
          2   -1    0    0  501    0  0.00000000000E+00 -0.00000000000E+00 -0.95395304282E+03  0.95395304282E+03  0.25500000000E-02 0.  1.
   -5000001    1    1    2    0    0  0.53815518711E+02 -0.22084226924E+03 -0.84749196063E+03  0.91236508113E+03  0.25000000000E+03 0.  0.
    5000001    1    1    2    0    0 -0.53815518711E+02  0.22084226924E+03  0.31154844411E+03  0.45959748799E+03  0.25000000000E+03 0.  0.
<mgrwt>
<rscale>  0 0.12629512E+04</rscale>
<asrwt>0</asrwt>
<pdfrwt beam="1">  1        2 0.14676201E+00 0.12629512E+04</pdfrwt>
<pdfrwt beam="2">  1       -2 0.64309158E-01 0.12629512E+04</pdfrwt>
<totfact> 0.59254661E+01</totfact>
</mgrwt>
</event>
<event>
 4    1  0.1773996E-005  0.1385842E+04  0.7818608E-02  0.8964131E-01
          2   -1    0    0  501    0  0.00000000000E+00  0.00000000000E+00  0.23420281954E+04  0.23420281954E+04  0.25500000000E-02 0.  1.
         -2   -1    0    0    0  501 -0.00000000000E+00 -0.00000000000E+00 -0.20501011516E+03  0.20501011518E+03  0.25500000000E-02 0. -1.
   -5000001    1    1    2    0    0 -0.54528392693E+03 -0.21461564250E+03  0.15692988529E+04  0.16936922166E+04  0.25000000000E+03 0.  0.
    5000001    1    1    2    0    0  0.54528392693E+03  0.21461564250E+03  0.56771922738E+03  0.85334609399E+03  0.25000000000E+03 0.  0.
<mgrwt>
<rscale>  0 0.13858419E+04</rscale>
<asrwt>0</asrwt>
<pdfrwt beam="1">  1        2 0.36031202E+00 0.13858419E+04</pdfrwt>
<pdfrwt beam="2">  1       -2 0.31540018E-01 0.13858419E+04</pdfrwt>
<totfact> 0.39126101E+01</totfact>
</mgrwt>
</event>
<event>
 4    1  0.1773996E-005  0.6517183E+03  0.7818608E-02  0.9803560E-01
         -2   -1    0    0    0  501 -0.00000000000E+00  0.00000000000E+00  0.27330965389E+02  0.27330965508E+02  0.25500000000E-02 0. -1.
          2   -1    0    0  501    0  0.00000000000E+00 -0.00000000000E+00 -0.38851237576E+04  0.38851237576E+04  0.25500000000E-02 0.  1.
   -5000001    1    1    2    0    0 -0.13766459390E+03  0.42494026003E+02 -0.28378926367E+04  0.28525237773E+04  0.25000000000E+03 0.  0.
    5000001    1    1    2    0    0  0.13766459390E+03 -0.42494026003E+02 -0.10199001555E+04  0.10599309458E+04  0.25000000000E+03 0.  0.
<mgrwt>
<rscale>  0 0.65171829E+03</rscale>
<asrwt>0</asrwt>
<pdfrwt beam="1">  1        2 0.59771091E+00 0.65171829E+03</pdfrwt>
<pdfrwt beam="2">  1       -2 0.42047670E-02 0.65171829E+03</pdfrwt>
<totfact> 0.12682768E+02</totfact>
</mgrwt>
</event>
<event>
 4    1  0.1773996E-005  0.1073470E+04  0.7818608E-02  0.9231443E-01
          2   -1    0    0  501    0  0.00000000000E+00  0.00000000000E+00  0.90539722527E+03  0.90539722527E+03  0.25500000000E-02 0.  1.
         -2   -1    0    0    0  501 -0.00000000000E+00 -0.00000000000E+00 -0.31818569767E+03  0.31818569768E+03  0.25500000000E-02 0. -1.
   -5000001    1    1    2    0    0  0.40664038861E+03 -0.15455673685E+03  0.51089464472E+03  0.71607089632E+03  0.25000000000E+03 0.  0.
    5000001    1    1    2    0    0 -0.40664038861E+03  0.15455673685E+03  0.76316882877E+02  0.50751202662E+03  0.25000000000E+03 0.  0.
<mgrwt>
<rscale>  0 0.10734700E+04</rscale>
<asrwt>0</asrwt>
<pdfrwt beam="1">  1        2 0.13929188E+00 0.10734700E+04</pdfrwt>
<pdfrwt beam="2">  1       -2 0.48951646E-01 0.10734700E+04</pdfrwt>
<totfact> 0.11422525E+02</totfact>
</mgrwt>
</event>
<event>
 4    1  0.1773996E-005  0.1244263E+04  0.7818608E-02  0.9074971E-01
          2   -1    0    0  501    0  0.00000000000E+00  0.00000000000E+00  0.76910795210E+03  0.76910795210E+03  0.25500000000E-02 0.  1.
         -2   -1    0    0    0  501 -0.00000000000E+00 -0.00000000000E+00 -0.50324247282E+03  0.50324247282E+03  0.25500000000E-02 0. -1.
   -5000001    1    1    2    0    0 -0.27964324926E+03  0.34887448593E+03 -0.22807189260E+03  0.56074106500E+03  0.25000000000E+03 0.  0.
    5000001    1    1    2    0    0  0.27964324926E+03 -0.34887448593E+03  0.49393737188E+03  0.71160935992E+03  0.25000000000E+03 0.  0.
<mgrwt>
<rscale>  0 0.12442633E+04</rscale>
<asrwt>0</asrwt>
<pdfrwt beam="1">  1        2 0.11832430E+00 0.12442633E+04</pdfrwt>
<pdfrwt beam="2">  1       -2 0.77421919E-01 0.12442633E+04</pdfrwt>
<totfact> 0.53139512E+01</totfact>
</mgrwt>
</event>
<event>
 4    1  0.1773996E-005  0.7349417E+03  0.7818608E-02  0.9659275E-01
         -2   -1    0    0    0  501 -0.00000000000E+00  0.00000000000E+00  0.62794808028E+02  0.62794808080E+02  0.25500000000E-02 0. -1.
          2   -1    0    0  501    0  0.00000000000E+00 -0.00000000000E+00 -0.21504136100E+04  0.21504136100E+04  0.25500000000E-02 0.  1.
   -5000001    1    1    2    0    0  0.19529175974E+03  0.17333243932E+03 -0.84515229262E+03  0.91921999743E+03  0.25000000000E+03 0.  0.
    5000001    1    1    2    0    0 -0.19529175974E+03 -0.17333243932E+03 -0.12424665094E+04  0.12939884207E+04  0.25000000000E+03 0.  0.
<mgrwt>
<rscale>  0 0.73494166E+03</rscale>
<asrwt>0</asrwt>
<pdfrwt beam="1">  1        2 0.33083281E+00 0.73494166E+03</pdfrwt>
<pdfrwt beam="2">  1       -2 0.96607413E-02 0.73494166E+03</pdfrwt>
<totfact> 0.41124447E+02</totfact>
</mgrwt>
</event>
<event>
 4    1  0.1773996E-005  0.8232888E+03  0.7818608E-02  0.9526906E-01
          2   -1    0    0  501    0  0.00000000000E+00  0.00000000000E+00  0.13659550991E+04  0.13659550991E+04  0.25500000000E-02 0. -1.
         -2   -1    0    0    0  501 -0.00000000000E+00 -0.00000000000E+00 -0.12405319948E+03  0.12405319951E+03  0.25500000000E-02 0.  1.
   -5000001    1    1    2    0    0 -0.17765256541E+03 -0.27374783610E+03  0.65946190205E+03  0.77710251063E+03  0.25000000000E+03 0.  0.
    5000001    1    1    2    0    0  0.17765256541E+03  0.27374783610E+03  0.58243999756E+03  0.71290578797E+03  0.25000000000E+03 0.  0.
<mgrwt>
<rscale>  0 0.82328877E+03</rscale>
<asrwt>0</asrwt>
<pdfrwt beam="1">  1        2 0.21014694E+00 0.82328877E+03</pdfrwt>
<pdfrwt beam="2">  1       -2 0.19085107E-01 0.82328877E+03</pdfrwt>
<totfact> 0.35297251E+02</totfact>
</mgrwt>
</event>
<event>
 4    1  0.1773996E-005  0.7911731E+03  0.7818608E-02  0.9572882E-01
          2   -1    0    0  501    0  0.00000000000E+00  0.00000000000E+00  0.21464469112E+03  0.21464469114E+03  0.25500000000E-02 0.  1.
         -2   -1    0    0    0  501 -0.00000000000E+00 -0.00000000000E+00 -0.72905927772E+03  0.72905927773E+03  0.25500000000E-02 0. -1.
   -5000001    1    1    2    0    0 -0.12451505975E+03 -0.27956123175E+03 -0.27888267170E+03  0.48366726887E+03  0.25000000000E+03 0.  0.
    5000001    1    1    2    0    0  0.12451505975E+03  0.27956123175E+03 -0.23553191490E+03  0.46003669999E+03  0.25000000000E+03 0.  0.
<mgrwt>
<rscale>  0 0.79117306E+03</rscale>
<asrwt>0</asrwt>
<pdfrwt beam="1">  1        2 0.33022260E-01 0.79117306E+03</pdfrwt>
<pdfrwt beam="2">  1       -2 0.11216296E+00 0.79117306E+03</pdfrwt>
<totfact> 0.10082821E+02</totfact>
</mgrwt>
</event>
<event>
 4    1  0.1773996E-005  0.9577227E+03  0.7818608E-02  0.9356169E-01
         -2   -1    0    0    0  501 -0.00000000000E+00  0.00000000000E+00  0.25202990311E+03  0.25202990312E+03  0.25500000000E-02 0. -1.
          2   -1    0    0  501    0  0.00000000000E+00 -0.00000000000E+00 -0.90984515279E+03  0.90984515279E+03  0.25500000000E-02 0.  1.
   -5000001    1    1    2    0    0  0.13985114112E+03  0.38280171798E+03 -0.29652070803E+03  0.56260112625E+03  0.25000000000E+03 0.  0.
    5000001    1    1    2    0    0 -0.13985114112E+03 -0.38280171798E+03 -0.36129454165E+03  0.59927392967E+03  0.25000000000E+03 0.  0.
<mgrwt>
<rscale>  0 0.95772269E+03</rscale>
<asrwt>0</asrwt>
<pdfrwt beam="1">  1        2 0.13997618E+00 0.95772269E+03</pdfrwt>
<pdfrwt beam="2">  1       -2 0.38773832E-01 0.95772269E+03</pdfrwt>
<totfact> 0.18140675E+02</totfact>
</mgrwt>
</event>
<event>
 4    1  0.1773996E-005  0.9110314E+03  0.7818608E-02  0.9411896E-01
          2   -1    0    0  501    0  0.00000000000E+00  0.00000000000E+00  0.14042713649E+04  0.14042713649E+04  0.25500000000E-02 0.  1.
         -2   -1    0    0    0  501 -0.00000000000E+00 -0.00000000000E+00 -0.14775957211E+03  0.14775957213E+03  0.25500000000E-02 0. -1.
   -5000001    1    1    2    0    0  0.16928920228E+03  0.33439536932E+03  0.74273257894E+03  0.86869487212E+03  0.25000000000E+03 0.  0.
    5000001    1    1    2    0    0 -0.16928920228E+03 -0.33439536932E+03  0.51377921385E+03  0.68333606491E+03  0.25000000000E+03 0.  0.
<mgrwt>
<rscale>  0 0.91103136E+03</rscale>
<asrwt>0</asrwt>
<pdfrwt beam="1">  1        2 0.21604176E+00 0.91103136E+03</pdfrwt>
<pdfrwt beam="2">  1       -2 0.22732241E-01 0.91103136E+03</pdfrwt>
<totfact> 0.24538801E+02</totfact>
</mgrwt>
</event>
<event>
 4    1  0.1773996E-005  0.9515222E+03  0.7818608E-02  0.9363373E-01
          2   -1    0    0  501    0  0.00000000000E+00  0.00000000000E+00  0.50797248509E+03  0.50797248510E+03  0.25500000000E-02 0.  1.
         -2   -1    0    0    0  501 -0.00000000000E+00 -0.00000000000E+00 -0.44559229187E+03  0.44559229188E+03  0.25500000000E-02 0. -1.
   -5000001    1    1    2    0    0 -0.29553851747E+03 -0.20728677586E+03 -0.15233631285E+03  0.46477647850E+03  0.25000000000E+03 0.  0.
    5000001    1    1    2    0    0  0.29553851747E+03  0.20728677586E+03  0.21471650607E+03  0.48878829848E+03  0.25000000000E+03 0.  0.
<mgrwt>
<rscale>  0 0.95152220E+03</rscale>
<asrwt>0</asrwt>
<pdfrwt beam="1">  1        2 0.78149613E-01 0.95152220E+03</pdfrwt>
<pdfrwt beam="2">  1       -2 0.68552661E-01 0.95152220E+03</pdfrwt>
<totfact> 0.11781260E+02</totfact>
</mgrwt>
</event>
<event>
 4    1  0.1773996E-005  0.1264586E+04  0.7818608E-02  0.9058130E-01
         -2   -1    0    0    0  501 -0.00000000000E+00  0.00000000000E+00  0.16379033053E+03  0.16379033055E+03  0.25500000000E-02 0. -1.
          2   -1    0    0  501    0  0.00000000000E+00 -0.00000000000E+00 -0.24408902000E+04  0.24408902000E+04  0.25500000000E-02 0.  1.
   -5000001    1    1    2    0    0  0.23714257989E+03 -0.42529032346E+03 -0.17904922853E+04  0.18722903317E+04  0.25000000000E+03 0.  0.
    5000001    1    1    2    0    0 -0.23714257989E+03  0.42529032346E+03 -0.48660758419E+03  0.73239019888E+03  0.25000000000E+03 0.  0.
<mgrwt>
<rscale>  0 0.12645856E+04</rscale>
<asrwt>0</asrwt>
<pdfrwt beam="1">  1        2 0.37552154E+00 0.12645856E+04</pdfrwt>
<pdfrwt beam="2">  1       -2 0.25198514E-01 0.12645856E+04</pdfrwt>
<totfact> 0.52569016E+01</totfact>
</mgrwt>
</event>
<event>
 4    1  0.1773996E-005  0.7979503E+03  0.7818608E-02  0.9562989E-01
         -2   -1    0    0    0  501 -0.00000000000E+00  0.00000000000E+00  0.79338040222E+02  0.79338040263E+02  0.25500000000E-02 0. -1.
          2   -1    0    0  501    0  0.00000000000E+00 -0.00000000000E+00 -0.20063660641E+04  0.20063660641E+04  0.25500000000E-02 0.  1.
   -5000001    1    1    2    0    0  0.29718502209E+03  0.70829840900E+02 -0.11146951179E+04  0.11825316104E+04  0.25000000000E+03 0.  0.
    5000001    1    1    2    0    0 -0.29718502209E+03 -0.70829840900E+02 -0.81233290592E+03  0.90317249391E+03  0.25000000000E+03 0.  0.
<mgrwt>
<rscale>  0 0.79795025E+03</rscale>
<asrwt>0</asrwt>
<pdfrwt beam="1">  1        2 0.30867166E+00 0.79795025E+03</pdfrwt>
<pdfrwt beam="2">  1       -2 0.12205854E-01 0.79795025E+03</pdfrwt>
<totfact> 0.33447727E+02</totfact>
</mgrwt>
</event>
<event>
 4    1  0.1773996E-005  0.8168289E+03  0.7818608E-02  0.9535972E-01
         -2   -1    0    0    0  501 -0.00000000000E+00  0.00000000000E+00  0.16725467898E+03  0.16725467900E+03  0.25500000000E-02 0. -1.
          2   -1    0    0  501    0  0.00000000000E+00 -0.00000000000E+00 -0.99729565563E+03  0.99729565564E+03  0.25500000000E-02 0.  1.
   -5000001    1    1    2    0    0  0.25448683096E+03  0.19652482747E+03 -0.45818897171E+03  0.61304379023E+03  0.25000000000E+03 0.  0.
    5000001    1    1    2    0    0 -0.25448683096E+03 -0.19652482747E+03 -0.37185200495E+03  0.55150654441E+03  0.25000000000E+03 0.  0.
<mgrwt>
<rscale>  0 0.81682890E+03</rscale>
<asrwt>0</asrwt>
<pdfrwt beam="1">  1        2 0.15343010E+00 0.81682890E+03</pdfrwt>
<pdfrwt beam="2">  1       -2 0.25731490E-01 0.81682890E+03</pdfrwt>
<totfact> 0.34543920E+02</totfact>
</mgrwt>
</event>
<event>
 4    1  0.1773996E-005  0.6702207E+03  0.7818608E-02  0.9769559E-01
         -2   -1    0    0    0  501 -0.00000000000E+00  0.00000000000E+00  0.41373737870E+02  0.41373737949E+02  0.25500000000E-02 0. -1.
          2   -1    0    0  501    0  0.00000000000E+00 -0.00000000000E+00 -0.27142565487E+04  0.27142565487E+04  0.25500000000E-02 0.  1.
   -5000001    1    1    2    0    0 -0.11599450848E+03  0.13660569806E+03 -0.18831832120E+04  0.19081391072E+04  0.25000000000E+03 0.  0.
    5000001    1    1    2    0    0  0.11599450848E+03 -0.13660569806E+03 -0.78969959891E+03  0.84749117946E+03  0.25000000000E+03 0.  0.
<mgrwt>
<rscale>  0 0.67022068E+03</rscale>
<asrwt>0</asrwt>
<pdfrwt beam="1">  1        2 0.41757779E+00 0.67022068E+03</pdfrwt>
<pdfrwt beam="2">  1       -2 0.63651926E-02 0.67022068E+03</pdfrwt>
<totfact> 0.38799759E+02</totfact>
</mgrwt>
</event>
<event>
 4    1  0.1773996E-005  0.6031639E+03  0.7818608E-02  0.9898864E-01
         -2   -1    0    0    0  501 -0.00000000000E+00  0.00000000000E+00  0.86053294186E+02  0.86053294224E+02  0.25500000000E-02 0. -1.
          2   -1    0    0  501    0  0.00000000000E+00 -0.00000000000E+00 -0.10569227822E+04  0.10569227822E+04  0.25500000000E-02 0.  1.
   -5000001    1    1    2    0    0  0.83091180756E+02  0.14048369726E+03 -0.56609613645E+03  0.64000363219E+03  0.25000000000E+03 0.  0.
    5000001    1    1    2    0    0 -0.83091180756E+02 -0.14048369726E+03 -0.40477335151E+03  0.50297244419E+03  0.25000000000E+03 0.  0.
<mgrwt>
<rscale>  0 0.60316395E+03</rscale>
<asrwt>0</asrwt>
<pdfrwt beam="1">  1        2 0.16260350E+00 0.60316395E+03</pdfrwt>
<pdfrwt beam="2">  1       -2 0.13238969E-01 0.60316395E+03</pdfrwt>
<totfact> 0.10107045E+03</totfact>
</mgrwt>
</event>
<event>
 4    1  0.1773996E-005  0.5247149E+03  0.7818608E-02  0.1007522E+00
         -2   -1    0    0    0  501 -0.00000000000E+00  0.00000000000E+00  0.15228444889E+03  0.15228444891E+03  0.25500000000E-02 0. -1.
          2   -1    0    0  501    0  0.00000000000E+00 -0.00000000000E+00 -0.45199246548E+03  0.45199246548E+03  0.25500000000E-02 0.  1.
   -5000001    1    1    2    0    0  0.27274339668E+02  0.66109970450E+02 -0.10967872563E+03  0.28221240344E+03  0.25000000000E+03 0.  0.
    5000001    1    1    2    0    0 -0.27274339668E+02 -0.66109970450E+02 -0.19002929096E+03  0.32206451096E+03  0.25000000000E+03 0.  0.
<mgrwt>
<rscale>  0 0.52471487E+03</rscale>
<asrwt>0</asrwt>
<pdfrwt beam="1">  1        2 0.69537302E-01 0.52471487E+03</pdfrwt>
<pdfrwt beam="2">  1       -2 0.23428377E-01 0.52471487E+03</pdfrwt>
<totfact> 0.11166892E+03</totfact>
</mgrwt>
</event>
<event>
 4    1  0.1773996E-005  0.1604584E+04  0.7818608E-02  0.8817737E-01
          2   -1    0    0  501    0  0.00000000000E+00  0.00000000000E+00  0.32142438057E+04  0.32142438057E+04  0.25500000000E-02 0.  1.
         -2   -1    0    0    0  501 -0.00000000000E+00 -0.00000000000E+00 -0.20025633613E+03  0.20025633615E+03  0.25500000000E-02 0. -1.
   -5000001    1    1    2    0    0 -0.49673335329E+03  0.53459588071E+03  0.10377017758E+04  0.12930049325E+04  0.25000000000E+03 0.  0.
    5000001    1    1    2    0    0  0.49673335329E+03 -0.53459588071E+03  0.19762856938E+04  0.21214952094E+04  0.25000000000E+03 0.  0.
<mgrwt>
<rscale>  0 0.16045843E+04</rscale>
<asrwt>0</asrwt>
<pdfrwt beam="1">  1        2 0.49449901E+00 0.16045843E+04</pdfrwt>
<pdfrwt beam="2">  1       -2 0.30808669E-01 0.16045843E+04</pdfrwt>
<totfact> 0.11967738E+01</totfact>
</mgrwt>
</event>
<event>
 4    1  0.1773996E-005  0.6367202E+03  0.7818608E-02  0.9832022E-01
         -2   -1    0    0    0  501 -0.00000000000E+00  0.00000000000E+00  0.12716720873E+03  0.12716720876E+03  0.25500000000E-02 0. -1.
          2   -1    0    0  501    0  0.00000000000E+00 -0.00000000000E+00 -0.79700709581E+03  0.79700709581E+03  0.25500000000E-02 0.  1.
   -5000001    1    1    2    0    0 -0.41243851482E+02  0.13352112128E+03 -0.13315010509E+03  0.31584473337E+03  0.25000000000E+03 0.  0.
    5000001    1    1    2    0    0  0.41243851482E+02 -0.13352112128E+03 -0.53668978198E+03  0.60832957120E+03  0.25000000000E+03 0.  0.
<mgrwt>
<rscale>  0 0.63672025E+03</rscale>
<asrwt>0</asrwt>
<pdfrwt beam="1">  1        2 0.12261647E+00 0.63672025E+03</pdfrwt>
<pdfrwt beam="2">  1       -2 0.19564186E-01 0.63672025E+03</pdfrwt>
<totfact> 0.77230849E+02</totfact>
</mgrwt>
</event>
<event>
 4    1  0.1773996E-005  0.5973014E+03  0.7818608E-02  0.9911021E-01
          2   -1    0    0  501    0  0.00000000000E+00  0.00000000000E+00  0.22719804743E+04  0.22719804743E+04  0.25500000000E-02 0.  1.
         -2   -1    0    0    0  501 -0.00000000000E+00 -0.00000000000E+00 -0.39257483170E+02  0.39257483253E+02  0.25500000000E-02 0. -1.
   -5000001    1    1    2    0    0 -0.16117095378E+03  0.20984257703E+02  0.11806249332E+04  0.12176993259E+04  0.25000000000E+03 0.  0.
    5000001    1    1    2    0    0  0.16117095378E+03 -0.20984257703E+02  0.10520980579E+04  0.10935386316E+04  0.25000000000E+03 0.  0.
<mgrwt>
<rscale>  0 0.59730138E+03</rscale>
<asrwt>0</asrwt>
<pdfrwt beam="1">  1        2 0.34953549E+00 0.59730138E+03</pdfrwt>
<pdfrwt beam="2">  1       -2 0.60396122E-02 0.59730138E+03</pdfrwt>
<totfact> 0.75346493E+02</totfact>
</mgrwt>
</event>
<event>
 4    1  0.1773996E-005  0.6046988E+03  0.7818608E-02  0.9895705E-01
         -2   -1    0    0    0  501 -0.00000000000E+00  0.00000000000E+00  0.93406575873E+02  0.93406575907E+02  0.25500000000E-02 0. -1.
          2   -1    0    0  501    0  0.00000000000E+00 -0.00000000000E+00 -0.97868016988E+03  0.97868016988E+03  0.25500000000E-02 0.  1.
   -5000001    1    1    2    0    0  0.86075359082E+02 -0.14213670644E+03 -0.37863063208E+03  0.48319040378E+03  0.25000000000E+03 0.  0.
    5000001    1    1    2    0    0 -0.86075359082E+02  0.14213670644E+03 -0.50664296193E+03  0.58889634201E+03  0.25000000000E+03 0.  0.
<mgrwt>
<rscale>  0 0.60469881E+03</rscale>
<asrwt>0</asrwt>
<pdfrwt beam="1">  1        2 0.15056617E+00 0.60469881E+03</pdfrwt>
<pdfrwt beam="2">  1       -2 0.14370243E-01 0.60469881E+03</pdfrwt>
<totfact> 0.98692643E+02</totfact>
</mgrwt>
</event>
<event>
 4    1  0.1773996E-005  0.6704118E+03  0.7818608E-02  0.9769214E-01
         -2   -1    0    0    0  501 -0.00000000000E+00  0.00000000000E+00  0.90947535840E+02  0.90947535876E+02  0.25500000000E-02 0. -1.
          2   -1    0    0  501    0  0.00000000000E+00 -0.00000000000E+00 -0.12354702931E+04  0.12354702931E+04  0.25500000000E-02 0.  1.
   -5000001    1    1    2    0    0  0.10238288867E+03  0.15715174428E+03 -0.81201307706E+03  0.87008284889E+03  0.25000000000E+03 0.  0.
    5000001    1    1    2    0    0 -0.10238288867E+03 -0.15715174428E+03 -0.33250968020E+03  0.45633498008E+03  0.25000000000E+03 0.  0.
<mgrwt>
<rscale>  0 0.67041175E+03</rscale>
<asrwt>0</asrwt>
<pdfrwt beam="1">  1        2 0.19007234E+00 0.67041175E+03</pdfrwt>
<pdfrwt beam="2">  1       -2 0.13991929E-01 0.67041175E+03</pdfrwt>
<totfact> 0.71856252E+02</totfact>
</mgrwt>
</event>
<event>
 4    1  0.1773996E-005  0.1121312E+04  0.7818608E-02  0.9184665E-01
          2   -1    0    0  501    0  0.00000000000E+00  0.00000000000E+00  0.13244290943E+04  0.13244290943E+04  0.25500000000E-02 0.  1.
         -2   -1    0    0    0  501 -0.00000000000E+00 -0.00000000000E+00 -0.23733633784E+03  0.23733633785E+03  0.25500000000E-02 0. -1.
   -5000001    1    1    2    0    0  0.43945297606E+03 -0.19120737568E+03  0.75086329554E+03  0.92518909812E+03  0.25000000000E+03 0.  0.
    5000001    1    1    2    0    0 -0.43945297606E+03  0.19120737568E+03  0.33622946096E+03  0.63657633407E+03  0.25000000000E+03 0.  0.
<mgrwt>
<rscale>  0 0.11213120E+04</rscale>
<asrwt>0</asrwt>
<pdfrwt beam="1">  1        2 0.20375832E+00 0.11213120E+04</pdfrwt>
<pdfrwt beam="2">  1       -2 0.36513282E-01 0.11213120E+04</pdfrwt>
<totfact> 0.11193789E+02</totfact>
</mgrwt>
</event>
<event>
 4    1  0.1773996E-005  0.8384143E+03  0.7818608E-02  0.9506020E-01
         -2   -1    0    0    0  501 -0.00000000000E+00  0.00000000000E+00  0.57183214078E+03  0.57183214079E+03  0.25500000000E-02 0. -1.
          2   -1    0    0  501    0  0.00000000000E+00 -0.00000000000E+00 -0.30731854418E+03  0.30731854419E+03  0.25500000000E-02 0.  1.
   -5000001    1    1    2    0    0 -0.29987594352E+03  0.15261757591E+03  0.13656941913E+03  0.44087289803E+03  0.25000000000E+03 0.  0.
    5000001    1    1    2    0    0  0.29987594352E+03 -0.15261757591E+03  0.12794417748E+03  0.43827778694E+03  0.25000000000E+03 0.  0.
<mgrwt>
<rscale>  0 0.83841427E+03</rscale>
<asrwt>0</asrwt>
<pdfrwt beam="1">  1        2 0.47279777E-01 0.83841427E+03</pdfrwt>
<pdfrwt beam="2">  1       -2 0.87974174E-01 0.83841427E+03</pdfrwt>
<totfact> 0.11976240E+02</totfact>
</mgrwt>
</event>
<event>
 4    1  0.1773996E-005  0.5901741E+03  0.7818608E-02  0.9926004E-01
          2   -1    0    0  501    0  0.00000000000E+00  0.00000000000E+00  0.17845023264E+04  0.17845023264E+04  0.25500000000E-02 0.  1.
         -2   -1    0    0    0  501 -0.00000000000E+00 -0.00000000000E+00 -0.48795884639E+02  0.48795884705E+02  0.25500000000E-02 0. -1.
   -5000001    1    1    2    0    0 -0.76673771920E+02 -0.10847754530E+03  0.60925622064E+03  0.67181797202E+03  0.25000000000E+03 0.  0.
    5000001    1    1    2    0    0  0.76673771920E+02  0.10847754530E+03  0.11264502211E+04  0.11614802391E+04  0.25000000000E+03 0.  0.
<mgrwt>
<rscale>  0 0.59017411E+03</rscale>
<asrwt>0</asrwt>
<pdfrwt beam="1">  1        2 0.27453888E+00 0.59017411E+03</pdfrwt>
<pdfrwt beam="2">  1       -2 0.75070576E-02 0.59017411E+03</pdfrwt>
<totfact> 0.98439067E+02</totfact>
</mgrwt>
</event>
<event>
 4    1  0.1773996E-005  0.8443895E+03  0.7818608E-02  0.9497898E-01
         -2   -1    0    0    0  501 -0.00000000000E+00  0.00000000000E+00  0.89042959214E+02  0.89042959251E+02  0.25500000000E-02 0. -1.
          2   -1    0    0  501    0  0.00000000000E+00 -0.00000000000E+00 -0.20018246508E+04  0.20018246508E+04  0.25500000000E-02 0.  1.
   -5000001    1    1    2    0    0  0.30462087138E+03  0.14488219147E+03 -0.10661188676E+04  0.11458159384E+04  0.25000000000E+03 0.  0.
    5000001    1    1    2    0    0 -0.30462087138E+03 -0.14488219147E+03 -0.84666282390E+03  0.94505167163E+03  0.25000000000E+03 0.  0.
<mgrwt>
<rscale>  0 0.84438946E+03</rscale>
<asrwt>0</asrwt>
<pdfrwt beam="1">  1        2 0.30797299E+00 0.84438946E+03</pdfrwt>
<pdfrwt beam="2">  1       -2 0.13698918E-01 0.84438946E+03</pdfrwt>
<totfact> 0.27652944E+02</totfact>
</mgrwt>
</event>
<event>
 4    1  0.1773996E-005  0.8371466E+03  0.7818608E-02  0.9507753E-01
          2   -1    0    0  501    0  0.00000000000E+00  0.00000000000E+00  0.23435211782E+04  0.23435211782E+04  0.25500000000E-02 0.  1.
         -2   -1    0    0    0  501 -0.00000000000E+00 -0.00000000000E+00 -0.74760839957E+02  0.74760840001E+02  0.25500000000E-02 0. -1.
   -5000001    1    1    2    0    0  0.69250156493E+02  0.32848867685E+03  0.11291991191E+04  0.12042803019E+04  0.25000000000E+03 0.  0.
    5000001    1    1    2    0    0 -0.69250156493E+02 -0.32848867685E+03  0.11395612191E+04  0.12140017163E+04  0.25000000000E+03 0.  0.
<mgrwt>
<rscale>  0 0.83714661E+03</rscale>
<asrwt>0</asrwt>
<pdfrwt beam="1">  1        2 0.36054169E+00 0.83714661E+03</pdfrwt>
<pdfrwt beam="2">  1       -2 0.11501669E-01 0.83714661E+03</pdfrwt>
<totfact> 0.23961756E+02</totfact>
</mgrwt>
</event>
<event>
 4    1  0.1773996E-005  0.9040557E+03  0.7818608E-02  0.9420526E-01
          2   -1    0    0  501    0  0.00000000000E+00  0.00000000000E+00  0.18458526376E+04  0.18458526376E+04  0.25500000000E-02 0.  1.
         -2   -1    0    0    0  501 -0.00000000000E+00 -0.00000000000E+00 -0.11069635635E+03  0.11069635638E+03  0.25500000000E-02 0. -1.
   -5000001    1    1    2    0    0 -0.86862588464E+02  0.30108458647E+03  0.41551538036E+03  0.57736476234E+03  0.25000000000E+03 0.  0.
    5000001    1    1    2    0    0  0.86862588464E+02 -0.30108458647E+03  0.13196409009E+04  0.13791842316E+04  0.25000000000E+03 0.  0.
<mgrwt>
<rscale>  0 0.90405567E+03</rscale>
<asrwt>0</asrwt>
<pdfrwt beam="1">  1        2 0.28397735E+00 0.90405567E+03</pdfrwt>
<pdfrwt beam="2">  1       -2 0.17030207E-01 0.90405567E+03</pdfrwt>
<totfact> 0.23157926E+02</totfact>
</mgrwt>
</event>
<event>
 4    1  0.1773996E-005  0.6849027E+03  0.7818608E-02  0.9743405E-01
         -2   -1    0    0    0  501 -0.00000000000E+00  0.00000000000E+00  0.88351740901E+02  0.88351740937E+02  0.25500000000E-02 0. -1.
          2   -1    0    0  501    0  0.00000000000E+00 -0.00000000000E+00 -0.13273412760E+04  0.13273412760E+04  0.25500000000E-02 0.  1.
   -5000001    1    1    2    0    0  0.60017678787E+02  0.21129268321E+03 -0.78647697113E+03  0.85398638506E+03  0.25000000000E+03 0.  0.
    5000001    1    1    2    0    0 -0.60017678787E+02 -0.21129268321E+03 -0.45251256394E+03  0.56170663185E+03  0.25000000000E+03 0.  0.
<mgrwt>
<rscale>  0 0.68490266E+03</rscale>
<asrwt>0</asrwt>
<pdfrwt beam="1">  1        2 0.20420634E+00 0.68490266E+03</pdfrwt>
<pdfrwt beam="2">  1       -2 0.13592576E-01 0.68490266E+03</pdfrwt>
<totfact> 0.66711765E+02</totfact>
</mgrwt>
</event>
<event>
 4    1  0.1773996E-005  0.5600195E+03  0.7818608E-02  0.9992010E-01
         -2   -1    0    0    0  501 -0.00000000000E+00  0.00000000000E+00  0.64491825254E+03  0.64491825254E+03  0.25500000000E-02 0. -1.
          2   -1    0    0  501    0  0.00000000000E+00 -0.00000000000E+00 -0.12157426549E+03  0.12157426552E+03  0.25500000000E-02 0.  1.
   -5000001    1    1    2    0    0 -0.12414231272E+02 -0.12038999499E+03  0.31020931720E+03  0.41638646053E+03  0.25000000000E+03 0.  0.
    5000001    1    1    2    0    0  0.12414231272E+02  0.12038999499E+03  0.21313466984E+03  0.35010605753E+03  0.25000000000E+03 0.  0.
<mgrwt>
<rscale>  0 0.56001951E+03</rscale>
<asrwt>0</asrwt>
<pdfrwt beam="1">  1        2 0.18703733E-01 0.56001951E+03</pdfrwt>
<pdfrwt beam="2">  1       -2 0.99218192E-01 0.56001951E+03</pdfrwt>
<totfact> 0.26198047E+02</totfact>
</mgrwt>
</event>
<event>
 4    1  0.1773996E-005  0.6088011E+03  0.7818608E-02  0.9887313E-01
         -2   -1    0    0    0  501 -0.00000000000E+00  0.00000000000E+00  0.61055818648E+02  0.61055818701E+02  0.25500000000E-02 0. -1.
          2   -1    0    0  501    0  0.00000000000E+00 -0.00000000000E+00 -0.15176229217E+04  0.15176229217E+04  0.25500000000E-02 0.  1.
   -5000001    1    1    2    0    0 -0.20980273434E+02  0.16718518521E+03 -0.61923008393E+03  0.68872124613E+03  0.25000000000E+03 0.  0.
    5000001    1    1    2    0    0  0.20980273434E+02 -0.16718518521E+03 -0.83733701917E+03  0.88995749432E+03  0.25000000000E+03 0.  0.
<mgrwt>
<rscale>  0 0.60880115E+03</rscale>
<asrwt>0</asrwt>
<pdfrwt beam="1">  1        2 0.23348042E+00 0.60880115E+03</pdfrwt>
<pdfrwt beam="2">  1       -2 0.93932040E-02 0.60880115E+03</pdfrwt>
<totfact> 0.96051169E+02</totfact>
</mgrwt>
</event>
<event>
 4    1  0.1773996E-005  0.9348493E+03  0.7818608E-02  0.9383037E-01
         -2   -1    0    0    0  501 -0.00000000000E+00  0.00000000000E+00  0.88768286430E+03  0.88768286430E+03  0.25500000000E-02 0. -1.
          2   -1    0    0  501    0  0.00000000000E+00 -0.00000000000E+00 -0.24613047129E+03  0.24613047130E+03  0.25500000000E-02 0.  1.
   -5000001    1    1    2    0    0 -0.59998429587E+02 -0.39006885251E+03  0.30229175482E+03  0.55644750541E+03  0.25000000000E+03 0.  0.
    5000001    1    1    2    0    0  0.59998429587E+02  0.39006885251E+03  0.33926063819E+03  0.57736583019E+03  0.25000000000E+03 0.  0.
<mgrwt>
<rscale>  0 0.93484930E+03</rscale>
<asrwt>0</asrwt>
<pdfrwt beam="1">  1        2 0.37866227E-01 0.93484930E+03</pdfrwt>
<pdfrwt beam="2">  1       -2 0.13656659E+00 0.93484930E+03</pdfrwt>
<totfact> 0.52506232E+01</totfact>
</mgrwt>
</event>
<event>
 4    1  0.1773996E-005  0.1122941E+04  0.7818608E-02  0.9183116E-01
         -2   -1    0    0    0  501 -0.00000000000E+00  0.00000000000E+00  0.73582157867E+03  0.73582157868E+03  0.25500000000E-02 0. -1.
          2   -1    0    0  501    0  0.00000000000E+00 -0.00000000000E+00 -0.42843177521E+03  0.42843177522E+03  0.25500000000E-02 0.  1.
   -5000001    1    1    2    0    0 -0.43684410568E+03  0.22218563063E+03  0.26984359048E+03  0.61279261619E+03  0.25000000000E+03 0.  0.
    5000001    1    1    2    0    0  0.43684410568E+03 -0.22218563063E+03  0.37546212979E+02  0.55146073771E+03  0.25000000000E+03 0.  0.
<mgrwt>
<rscale>  0 0.11229414E+04</rscale>
<asrwt>0</asrwt>
<pdfrwt beam="1">  1        2 0.65912581E-01 0.11229414E+04</pdfrwt>
<pdfrwt beam="2">  1       -2 0.11320332E+00 0.11229414E+04</pdfrwt>
<totfact> 0.44684623E+01</totfact>
</mgrwt>
</event>
<event>
 4    1  0.1773996E-005  0.6240165E+03  0.7818608E-02  0.9856795E-01
         -2   -1    0    0    0  501 -0.00000000000E+00  0.00000000000E+00  0.73013819626E+02  0.73013819671E+02  0.25500000000E-02 0. -1.
          2   -1    0    0  501    0  0.00000000000E+00 -0.00000000000E+00 -0.13332977678E+04  0.13332977678E+04  0.25500000000E-02 0.  1.
   -5000001    1    1    2    0    0  0.13489576039E+03  0.89424098429E+02 -0.83981121396E+03  0.89105353971E+03  0.25000000000E+03 0.  0.
    5000001    1    1    2    0    0 -0.13489576039E+03 -0.89424098429E+02 -0.42047273417E+03  0.51525804771E+03  0.25000000000E+03 0.  0.
<mgrwt>
<rscale>  0 0.62401655E+03</rscale>
<asrwt>0</asrwt>
<pdfrwt beam="1">  1        2 0.20512272E+00 0.62401655E+03</pdfrwt>
<pdfrwt beam="2">  1       -2 0.11232896E-01 0.62401655E+03</pdfrwt>
<totfact> 0.90992379E+02</totfact>
</mgrwt>
</event>
<event>
 4    1  0.1773996E-005  0.7156438E+03  0.7818608E-02  0.9690847E-01
         -2   -1    0    0    0  501 -0.00000000000E+00  0.00000000000E+00  0.26353754191E+03  0.26353754193E+03  0.25500000000E-02 0. -1.
          2   -1    0    0  501    0  0.00000000000E+00 -0.00000000000E+00 -0.48583781974E+03  0.48583781974E+03  0.25500000000E-02 0.  1.
   -5000001    1    1    2    0    0  0.73926785755E+02  0.18474951786E+03  0.57496896773E+02  0.32465897052E+03  0.25000000000E+03 0.  0.
    5000001    1    1    2    0    0 -0.73926785755E+02 -0.18474951786E+03 -0.27979717459E+03  0.42471639115E+03  0.25000000000E+03 0.  0.
<mgrwt>
<rscale>  0 0.71564378E+03</rscale>
<asrwt>0</asrwt>
<pdfrwt beam="1">  1        2 0.74744280E-01 0.71564378E+03</pdfrwt>
<pdfrwt beam="2">  1       -2 0.40544237E-01 0.71564378E+03</pdfrwt>
<totfact> 0.36959726E+02</totfact>
</mgrwt>
</event>
<event>
 4    1  0.1773996E-005  0.8451319E+03  0.7818608E-02  0.9496894E-01
         -2   -1    0    0    0  501 -0.00000000000E+00  0.00000000000E+00  0.24981559067E+03  0.24981559068E+03  0.25500000000E-02 0. -1.
          2   -1    0    0  501    0  0.00000000000E+00 -0.00000000000E+00 -0.71477516048E+03  0.71477516049E+03  0.25500000000E-02 0.  1.
   -5000001    1    1    2    0    0 -0.79187609697E+02 -0.26668756588E+02 -0.60943636103E+03  0.66399892941E+03  0.25000000000E+03 0.  0.
    5000001    1    1    2    0    0  0.79187609697E+02  0.26668756588E+02  0.14447679122E+03  0.30059182176E+03  0.25000000000E+03 0.  0.
<mgrwt>
<rscale>  0 0.84513189E+03</rscale>
<asrwt>0</asrwt>
<pdfrwt beam="1">  1        2 0.10996541E+00 0.84513189E+03</pdfrwt>
<pdfrwt beam="2">  1       -2 0.38433168E-01 0.84513189E+03</pdfrwt>
<totfact> 0.25620123E+02</totfact>
</mgrwt>
</event>
<event>
 4    1  0.1773996E-005  0.1062128E+04  0.7818608E-02  0.9242911E-01
          2   -1    0    0  501    0  0.00000000000E+00  0.00000000000E+00  0.10578511385E+04  0.10578511385E+04  0.25500000000E-02 0.  1.
         -2   -1    0    0    0  501 -0.00000000000E+00 -0.00000000000E+00 -0.26660555678E+03  0.26660555680E+03  0.25500000000E-02 0. -1.
   -5000001    1    1    2    0    0 -0.19597970328E+03  0.37811651859E+03  0.15206524301E+03  0.51672428224E+03  0.25000000000E+03 0.  0.
    5000001    1    1    2    0    0  0.19597970328E+03 -0.37811651859E+03  0.63918033875E+03  0.80773241310E+03  0.25000000000E+03 0.  0.
<mgrwt>
<rscale>  0 0.10621280E+04</rscale>
<asrwt>0</asrwt>
<pdfrwt beam="1">  1        2 0.16274633E+00 0.10621280E+04</pdfrwt>
<pdfrwt beam="2">  1       -2 0.41016240E-01 0.10621280E+04</pdfrwt>
<totfact> 0.12954860E+02</totfact>
</mgrwt>
</event>
<event>
 4    1  0.1773996E-005  0.7008930E+03  0.7818608E-02  0.9715706E-01
         -2   -1    0    0    0  501 -0.00000000000E+00  0.00000000000E+00  0.83644174137E+02  0.83644174176E+02  0.25500000000E-02 0. -1.
          2   -1    0    0  501    0  0.00000000000E+00 -0.00000000000E+00 -0.14682761226E+04  0.14682761226E+04  0.25500000000E-02 0.  1.
   -5000001    1    1    2    0    0  0.23949177773E+03  0.45007488001E+02 -0.75986764901E+03  0.83623012957E+03  0.25000000000E+03 0.  0.
    5000001    1    1    2    0    0 -0.23949177773E+03 -0.45007488001E+02 -0.62476429947E+03  0.71569016723E+03  0.25000000000E+03 0.  0.
<mgrwt>
<rscale>  0 0.70089298E+03</rscale>
<asrwt>0</asrwt>
<pdfrwt beam="1">  1        2 0.22588862E+00 0.70089298E+03</pdfrwt>
<pdfrwt beam="2">  1       -2 0.12868336E-01 0.70089298E+03</pdfrwt>
<totfact> 0.60813482E+02</totfact>
</mgrwt>
</event>
<event>
 4    1  0.1773996E-005  0.6176127E+03  0.7818608E-02  0.9869524E-01
         -2   -1    0    0    0  501 -0.00000000000E+00  0.00000000000E+00  0.74915901571E+03  0.74915901571E+03  0.25500000000E-02 0. -1.
          2   -1    0    0  501    0  0.00000000000E+00 -0.00000000000E+00 -0.12729122147E+03  0.12729122150E+03  0.25500000000E-02 0.  1.
   -5000001    1    1    2    0    0 -0.18340819032E+02  0.15127929213E+03  0.17160552663E+03  0.33936745077E+03  0.25000000000E+03 0.  0.
    5000001    1    1    2    0    0  0.18340819032E+02 -0.15127929213E+03  0.45026226760E+03  0.53708278645E+03  0.25000000000E+03 0.  0.
<mgrwt>
<rscale>  0 0.61761271E+03</rscale>
<asrwt>0</asrwt>
<pdfrwt beam="1">  1        2 0.19583265E-01 0.61761271E+03</pdfrwt>
<pdfrwt beam="2">  1       -2 0.11525523E+00 0.61761271E+03</pdfrwt>
<totfact> 0.17303227E+02</totfact>
</mgrwt>
</event>
<event>
 4    1  0.1773996E-005  0.9658506E+03  0.7818608E-02  0.9346813E-01
         -2   -1    0    0    0  501 -0.00000000000E+00  0.00000000000E+00  0.99644521327E+02  0.99644521359E+02  0.25500000000E-02 0. -1.
          2   -1    0    0  501    0  0.00000000000E+00 -0.00000000000E+00 -0.23404881580E+04  0.23404881580E+04  0.25500000000E-02 0.  1.
   -5000001    1    1    2    0    0 -0.37866791515E+03  0.11817149839E+03 -0.14124698900E+04  0.14882624376E+04  0.25000000000E+03 0.  0.
    5000001    1    1    2    0    0  0.37866791515E+03 -0.11817149839E+03 -0.82837374669E+03  0.95187024179E+03  0.25000000000E+03 0.  0.
<mgrwt>
<rscale>  0 0.96585055E+03</rscale>
<asrwt>0</asrwt>
<pdfrwt beam="1">  1        2 0.36007506E+00 0.96585055E+03</pdfrwt>
<pdfrwt beam="2">  1       -2 0.15329928E-01 0.96585055E+03</pdfrwt>
<totfact> 0.14705318E+02</totfact>
</mgrwt>
</event>
<event>
 4    1  0.1773996E-005  0.6269793E+03  0.7818608E-02  0.9850961E-01
         -2   -1    0    0    0  501 -0.00000000000E+00  0.00000000000E+00  0.34930068395E+02  0.34930068488E+02  0.25500000000E-02 0. -1.
          2   -1    0    0  501    0  0.00000000000E+00 -0.00000000000E+00 -0.28135002472E+04  0.28135002472E+04  0.25500000000E-02 0.  1.
   -5000001    1    1    2    0    0  0.16153852491E+03 -0.98053156049E+02 -0.14263718673E+04  0.14603923515E+04  0.25000000000E+03 0.  0.
    5000001    1    1    2    0    0 -0.16153852491E+03  0.98053156049E+02 -0.13521983115E+04  0.13880379642E+04  0.25000000000E+03 0.  0.
<mgrwt>
<rscale>  0 0.62697929E+03</rscale>
<asrwt>0</asrwt>
<pdfrwt beam="1">  1        2 0.43284601E+00 0.62697929E+03</pdfrwt>
<pdfrwt beam="2">  1       -2 0.53738589E-02 0.62697929E+03</pdfrwt>
<totfact> 0.44447083E+02</totfact>
</mgrwt>
</event>
<event>
 4    1  0.1773996E-005  0.6605421E+03  0.7818608E-02  0.9787196E-01
          2   -1    0    0  501    0  0.00000000000E+00  0.00000000000E+00  0.72187209254E+03  0.72187209254E+03  0.25500000000E-02 0.  1.
         -2   -1    0    0    0  501 -0.00000000000E+00 -0.00000000000E+00 -0.15110566545E+03  0.15110566547E+03  0.25500000000E-02 0. -1.
   -5000001    1    1    2    0    0  0.16210055306E+03  0.14120966854E+03  0.31053557611E+03  0.45293388460E+03  0.25000000000E+03 0.  0.
    5000001    1    1    2    0    0 -0.16210055306E+03 -0.14120966854E+03  0.26023085098E+03  0.42004387341E+03  0.25000000000E+03 0.  0.
<mgrwt>
<rscale>  0 0.66054209E+03</rscale>
<asrwt>0</asrwt>
<pdfrwt beam="1">  1        2 0.11105724E+00 0.66054209E+03</pdfrwt>
<pdfrwt beam="2">  1       -2 0.23247026E-01 0.66054209E+03</pdfrwt>
<totfact> 0.64746690E+02</totfact>
</mgrwt>
</event>
<event>
 4    1  0.1773996E-005  0.8028559E+03  0.7818608E-02  0.9555893E-01
         -2   -1    0    0    0  501 -0.00000000000E+00  0.00000000000E+00  0.16082783104E+03  0.16082783106E+03  0.25500000000E-02 0. -1.
          2   -1    0    0  501    0  0.00000000000E+00 -0.00000000000E+00 -0.10019683373E+04  0.10019683373E+04  0.25500000000E-02 0.  1.
   -5000001    1    1    2    0    0 -0.14042525695E+03 -0.36454678561E+02 -0.17123507653E+02  0.28955381347E+03  0.25000000000E+03 0.  0.
    5000001    1    1    2    0    0  0.14042525695E+03  0.36454678561E+02 -0.82401699863E+03  0.87324235491E+03  0.25000000000E+03 0.  0.
<mgrwt>
<rscale>  0 0.80285589E+03</rscale>
<asrwt>0</asrwt>
<pdfrwt beam="1">  1        2 0.15414897E+00 0.80285589E+03</pdfrwt>
<pdfrwt beam="2">  1       -2 0.24742744E-01 0.80285589E+03</pdfrwt>
<totfact> 0.36849268E+02</totfact>
</mgrwt>
</event>
<event>
 4    1  0.1773996E-005  0.6497075E+03  0.7818608E-02  0.9807328E-01
          2   -1    0    0  501    0  0.00000000000E+00  0.00000000000E+00  0.47251644590E+04  0.47251644590E+04  0.25500000000E-02 0.  1.
         -2   -1    0    0    0  501 -0.00000000000E+00 -0.00000000000E+00 -0.22333605871E+02  0.22333606017E+02  0.25500000000E-02 0. -1.
   -5000001    1    1    2    0    0 -0.11984798220E+03  0.11140715094E+03  0.32830350929E+04  0.32966034813E+04  0.25000000000E+03 0.  0.
    5000001    1    1    2    0    0  0.11984798220E+03 -0.11140715094E+03  0.14197957603E+04  0.14508945837E+04  0.25000000000E+03 0.  0.
<mgrwt>
<rscale>  0 0.64970751E+03</rscale>
<asrwt>0</asrwt>
<pdfrwt beam="1">  1        2 0.72694868E+00 0.64970751E+03</pdfrwt>
<pdfrwt beam="2">  1       -2 0.34359379E-02 0.64970751E+03</pdfrwt>
<totfact> 0.31153963E+01</totfact>
</mgrwt>
</event>
<event>
 4    1  0.1773996E-005  0.6672048E+03  0.7818608E-02  0.9775021E-01
          2   -1    0    0  501    0  0.00000000000E+00  0.00000000000E+00  0.32623323245E+03  0.32623323246E+03  0.25500000000E-02 0.  1.
         -2   -1    0    0    0  501 -0.00000000000E+00 -0.00000000000E+00 -0.34113800855E+03  0.34113800856E+03  0.25500000000E-02 0. -1.
   -5000001    1    1    2    0    0  0.11779567110E+03  0.44090216230E+02  0.17417151343E+03  0.32962931209E+03  0.25000000000E+03 0.  0.
    5000001    1    1    2    0    0 -0.11779567110E+03 -0.44090216230E+02 -0.18907628953E+03  0.33774192893E+03  0.25000000000E+03 0.  0.
<mgrwt>
<rscale>  0 0.66720478E+03</rscale>
<asrwt>0</asrwt>
<pdfrwt beam="1">  1        2 0.50189728E-01 0.66720478E+03</pdfrwt>
<pdfrwt beam="2">  1       -2 0.52482771E-01 0.66720478E+03</pdfrwt>
<totfact> 0.34579107E+02</totfact>
</mgrwt>
</event>
<event>
 4    1  0.1773996E-005  0.5942215E+03  0.7818608E-02  0.9917468E-01
          2   -1    0    0  501    0  0.00000000000E+00  0.00000000000E+00  0.32243715226E+04  0.32243715226E+04  0.25500000000E-02 0.  1.
         -2   -1    0    0    0  501 -0.00000000000E+00 -0.00000000000E+00 -0.27377365442E+02  0.27377365561E+02  0.25500000000E-02 0. -1.
   -5000001    1    1    2    0    0 -0.69983649423E+02 -0.14353820654E+03  0.15079361877E+04  0.15368384671E+04  0.25000000000E+03 0.  0.
    5000001    1    1    2    0    0  0.69983649423E+02  0.14353820654E+03  0.16890579695E+04  0.17149104210E+04  0.25000000000E+03 0.  0.
<mgrwt>
<rscale>  0 0.59422150E+03</rscale>
<asrwt>0</asrwt>
<pdfrwt beam="1">  1        2 0.49605724E+00 0.59422150E+03</pdfrwt>
<pdfrwt beam="2">  1       -2 0.42119017E-02 0.59422150E+03</pdfrwt>
<totfact> 0.36495809E+02</totfact>
</mgrwt>
</event>
<event>
 4    1  0.1773996E-005  0.6336853E+03  0.7818608E-02  0.9837883E-01
          2   -1    0    0  501    0  0.00000000000E+00  0.00000000000E+00  0.10606854232E+03  0.10606854235E+03  0.25500000000E-02 0.  1.
         -2   -1    0    0    0  501 -0.00000000000E+00 -0.00000000000E+00 -0.94645663176E+03  0.94645663176E+03  0.25500000000E-02 0. -1.
   -5000001    1    1    2    0    0  0.98404590269E+02  0.32931055115E+02 -0.14665800883E+03  0.30785790445E+03  0.25000000000E+03 0.  0.
    5000001    1    1    2    0    0 -0.98404590269E+02 -0.32931055115E+02 -0.69373008061E+03  0.74466726967E+03  0.25000000000E+03 0.  0.
<mgrwt>
<rscale>  0 0.63368533E+03</rscale>
<asrwt>0</asrwt>
<pdfrwt beam="1">  1        2 0.16318238E-01 0.63368533E+03</pdfrwt>
<pdfrwt beam="2">  1       -2 0.14560871E+00 0.63368533E+03</pdfrwt>
<totfact> 0.11913239E+02</totfact>
</mgrwt>
</event>
<event>
 4    1  0.1773996E-005  0.1043269E+04  0.7818608E-02  0.9262321E-01
         -2   -1    0    0    0  501 -0.00000000000E+00  0.00000000000E+00  0.26818486804E+03  0.26818486805E+03  0.25500000000E-02 0. -1.
          2   -1    0    0  501    0  0.00000000000E+00 -0.00000000000E+00 -0.10146081115E+04  0.10146081115E+04  0.25500000000E-02 0.  1.
   -5000001    1    1    2    0    0  0.93296626605E+02 -0.43799647198E+03 -0.25619127150E+03  0.57330544877E+03  0.25000000000E+03 0.  0.
    5000001    1    1    2    0    0 -0.93296626605E+02  0.43799647198E+03 -0.49023197196E+03  0.70948753078E+03  0.25000000000E+03 0.  0.
<mgrwt>
<rscale>  0 0.10432690E+04</rscale>
<asrwt>0</asrwt>
<pdfrwt beam="1">  1        2 0.15609355E+00 0.10432690E+04</pdfrwt>
<pdfrwt beam="2">  1       -2 0.41259211E-01 0.10432690E+04</pdfrwt>
<totfact> 0.13653292E+02</totfact>
</mgrwt>
</event>
<event>
 4    1  0.1773996E-005  0.6564669E+03  0.7818608E-02  0.9794720E-01
         -2   -1    0    0    0  501 -0.00000000000E+00  0.00000000000E+00  0.77963255552E+02  0.77963255594E+02  0.25500000000E-02 0. -1.
          2   -1    0    0  501    0  0.00000000000E+00 -0.00000000000E+00 -0.13818972655E+04  0.13818972655E+04  0.25500000000E-02 0.  1.
   -5000001    1    1    2    0    0 -0.10126056191E+03 -0.18302091436E+03 -0.73771669372E+03  0.80652109500E+03  0.25000000000E+03 0.  0.
    5000001    1    1    2    0    0  0.10126056191E+03  0.18302091436E+03 -0.56621731624E+03  0.65333942610E+03  0.25000000000E+03 0.  0.
<mgrwt>
<rscale>  0 0.65646694E+03</rscale>
<asrwt>0</asrwt>
<pdfrwt beam="1">  1        2 0.21259956E+00 0.65646694E+03</pdfrwt>
<pdfrwt beam="2">  1       -2 0.11994348E-01 0.65646694E+03</pdfrwt>
<totfact> 0.76561444E+02</totfact>
</mgrwt>
</event>
<event>
 4    1  0.1773996E-005  0.5880558E+03  0.7818608E-02  0.9930501E-01
          2   -1    0    0  501    0  0.00000000000E+00  0.00000000000E+00  0.19936867974E+04  0.19936867974E+04  0.25500000000E-02 0.  1.
         -2   -1    0    0    0  501 -0.00000000000E+00 -0.00000000000E+00 -0.43363077786E+02  0.43363077861E+02  0.25500000000E-02 0. -1.
   -5000001    1    1    2    0    0 -0.36203842973E+02 -0.12738256468E+03  0.12526175634E+04  0.12841681339E+04  0.25000000000E+03 0.  0.
    5000001    1    1    2    0    0  0.36203842973E+02  0.12738256468E+03  0.69770615620E+03  0.75288174133E+03  0.25000000000E+03 0.  0.
<mgrwt>
<rscale>  0 0.58805577E+03</rscale>
<asrwt>0</asrwt>
<pdfrwt beam="1">  1        2 0.30672110E+00 0.58805577E+03</pdfrwt>
<pdfrwt beam="2">  1       -2 0.66712416E-02 0.58805577E+03</pdfrwt>
<totfact> 0.91448317E+02</totfact>
</mgrwt>
</event>
<event>
 4    1  0.1773996E-005  0.5703777E+03  0.7818608E-02  0.9968843E-01
         -2   -1    0    0    0  501 -0.00000000000E+00  0.00000000000E+00  0.42126960990E+02  0.42126961067E+02  0.25500000000E-02 0. -1.
          2   -1    0    0  501    0  0.00000000000E+00 -0.00000000000E+00 -0.19306561468E+04  0.19306561468E+04  0.25500000000E-02 0.  1.
   -5000001    1    1    2    0    0  0.98164241525E+02  0.92673533771E+02 -0.85897519265E+03  0.90474470641E+03  0.25000000000E+03 0.  0.
    5000001    1    1    2    0    0 -0.98164241525E+02 -0.92673533771E+02 -0.10295539932E+04  0.10680384015E+04  0.25000000000E+03 0.  0.
<mgrwt>
<rscale>  0 0.57037769E+03</rscale>
<asrwt>0</asrwt>
<pdfrwt beam="1">  1        2 0.29702396E+00 0.57037769E+03</pdfrwt>
<pdfrwt beam="2">  1       -2 0.64810724E-02 0.57037769E+03</pdfrwt>
<totfact> 0.10363656E+03</totfact>
</mgrwt>
</event>
<event>
 4    1  0.1773996E-005  0.5897619E+03  0.7818608E-02  0.9926878E-01
         -2   -1    0    0    0  501 -0.00000000000E+00  0.00000000000E+00  0.65918916823E+02  0.65918916872E+02  0.25500000000E-02 0. -1.
          2   -1    0    0  501    0  0.00000000000E+00 -0.00000000000E+00 -0.13191170721E+04  0.13191170721E+04  0.25500000000E-02 0.  1.
   -5000001    1    1    2    0    0  0.82836497615E+02 -0.82038833449E+01 -0.31569919716E+03  0.41121183364E+03  0.25000000000E+03 0.  0.
    5000001    1    1    2    0    0 -0.82836497615E+02  0.82038833449E+01 -0.93749895813E+03  0.97382415534E+03  0.25000000000E+03 0.  0.
<mgrwt>
<rscale>  0 0.58976188E+03</rscale>
<asrwt>0</asrwt>
<pdfrwt beam="1">  1        2 0.20294107E+00 0.58976188E+03</pdfrwt>
<pdfrwt beam="2">  1       -2 0.10141373E-01 0.58976188E+03</pdfrwt>
<totfact> 0.10966417E+03</totfact>
</mgrwt>
</event>
<event>
 4    1  0.1773996E-005  0.1245527E+04  0.7818608E-02  0.9073914E-01
          2   -1    0    0  501    0  0.00000000000E+00  0.00000000000E+00  0.27263074304E+04  0.27263074304E+04  0.25500000000E-02 0.  1.
         -2   -1    0    0    0  501 -0.00000000000E+00 -0.00000000000E+00 -0.14225630078E+03  0.14225630080E+03  0.25500000000E-02 0. -1.
   -5000001    1    1    2    0    0 -0.22094360933E+03 -0.40987172556E+03  0.20507310677E+04  0.21177367216E+04  0.25000000000E+03 0.  0.
    5000001    1    1    2    0    0  0.22094360933E+03  0.40987172556E+03  0.53332006192E+03  0.75082700962E+03  0.25000000000E+03 0.  0.
<mgrwt>
<rscale>  0 0.12455271E+04</rscale>
<asrwt>0</asrwt>
<pdfrwt beam="1">  1        2 0.41943191E+00 0.12455271E+04</pdfrwt>
<pdfrwt beam="2">  1       -2 0.21885585E-01 0.12455271E+04</pdfrwt>
<totfact> 0.46312912E+01</totfact>
</mgrwt>
</event>
<event>
 4    1  0.1773996E-005  0.5463986E+03  0.7818608E-02  0.1002331E+00
          2   -1    0    0  501    0  0.00000000000E+00  0.00000000000E+00  0.11679770951E+04  0.11679770951E+04  0.25500000000E-02 0.  1.
         -2   -1    0    0    0  501 -0.00000000000E+00 -0.00000000000E+00 -0.63903516746E+02  0.63903516797E+02  0.25500000000E-02 0. -1.
   -5000001    1    1    2    0    0  0.43186475928E+02 -0.10111421301E+03  0.56776830463E+03  0.63003968409E+03  0.25000000000E+03 0.  0.
    5000001    1    1    2    0    0 -0.43186475928E+02  0.10111421301E+03  0.53630527374E+03  0.60184092784E+03  0.25000000000E+03 0.  0.
<mgrwt>
<rscale>  0 0.54639855E+03</rscale>
<asrwt>0</asrwt>
<pdfrwt beam="1">  1        2 0.17968876E+00 0.54639855E+03</pdfrwt>
<pdfrwt beam="2">  1       -2 0.98313117E-02 0.54639855E+03</pdfrwt>
<totfact> 0.14127394E+03</totfact>
</mgrwt>
</event>
<event>
 4    1  0.1773996E-005  0.7500529E+03  0.7818608E-02  0.9635267E-01
         -2   -1    0    0    0  501 -0.00000000000E+00  0.00000000000E+00  0.26376637923E+03  0.26376637925E+03  0.25500000000E-02 0. -1.
          2   -1    0    0  501    0  0.00000000000E+00 -0.00000000000E+00 -0.53321748331E+03  0.53321748331E+03  0.25500000000E-02 0.  1.
   -5000001    1    1    2    0    0  0.12406480324E+03  0.12501843990E+03  0.95935794050E+02  0.32050797541E+03  0.25000000000E+03 0.  0.
    5000001    1    1    2    0    0 -0.12406480324E+03 -0.12501843990E+03 -0.36538689812E+03  0.47647588715E+03  0.25000000000E+03 0.  0.
<mgrwt>
<rscale>  0 0.75005292E+03</rscale>
<asrwt>0</asrwt>
<pdfrwt beam="1">  1        2 0.82033459E-01 0.75005292E+03</pdfrwt>
<pdfrwt beam="2">  1       -2 0.40579443E-01 0.75005292E+03</pdfrwt>
<totfact> 0.33073648E+02</totfact>
</mgrwt>
</event>
<event>
 4    1  0.1773996E-005  0.7275494E+03  0.7818608E-02  0.9671245E-01
         -2   -1    0    0    0  501 -0.00000000000E+00  0.00000000000E+00  0.14947070202E+03  0.14947070204E+03  0.25500000000E-02 0. -1.
          2   -1    0    0  501    0  0.00000000000E+00 -0.00000000000E+00 -0.88533754182E+03  0.88533754182E+03  0.25500000000E-02 0.  1.
   -5000001    1    1    2    0    0 -0.10084799762E+03  0.23716096438E+03 -0.28479904488E+03  0.45828608708E+03  0.25000000000E+03 0.  0.
    5000001    1    1    2    0    0  0.10084799762E+03 -0.23716096438E+03 -0.45106779492E+03  0.57652215678E+03  0.25000000000E+03 0.  0.
<mgrwt>
<rscale>  0 0.72754938E+03</rscale>
<asrwt>0</asrwt>
<pdfrwt beam="1">  1        2 0.13620577E+00 0.72754938E+03</pdfrwt>
<pdfrwt beam="2">  1       -2 0.22995493E-01 0.72754938E+03</pdfrwt>
<totfact> 0.50285105E+02</totfact>
</mgrwt>
</event>
<event>
 4    1  0.1773996E-005  0.6424452E+03  0.7818608E-02  0.9821059E-01
         -2   -1    0    0    0  501 -0.00000000000E+00  0.00000000000E+00  0.61818571182E+02  0.61818571235E+02  0.25500000000E-02 0. -1.
          2   -1    0    0  501    0  0.00000000000E+00 -0.00000000000E+00 -0.16691417854E+04  0.16691417854E+04  0.25500000000E-02 0.  1.
   -5000001    1    1    2    0    0 -0.79510135741E+01 -0.19300278923E+03 -0.96008756694E+03  0.10107331158E+04  0.25000000000E+03 0.  0.
    5000001    1    1    2    0    0  0.79510135741E+01  0.19300278923E+03 -0.64723564723E+03  0.72022724075E+03  0.25000000000E+03 0.  0.
<mgrwt>
<rscale>  0 0.64244520E+03</rscale>
<asrwt>0</asrwt>
<pdfrwt beam="1">  1        2 0.25679101E+00 0.64244520E+03</pdfrwt>
<pdfrwt beam="2">  1       -2 0.95105507E-02 0.64244520E+03</pdfrwt>
<totfact> 0.77620968E+02</totfact>
</mgrwt>
</event>
<event>
 4    1  0.1773996E-005  0.9837530E+03  0.7818608E-02  0.9326546E-01
          2   -1    0    0  501    0  0.00000000000E+00  0.00000000000E+00  0.26230467574E+04  0.26230467574E+04  0.25500000000E-02 0.  1.
         -2   -1    0    0    0  501 -0.00000000000E+00 -0.00000000000E+00 -0.92237204632E+02  0.92237204667E+02  0.25500000000E-02 0. -1.
   -5000001    1    1    2    0    0  0.46098320382E+02 -0.42029437768E+03  0.11939562956E+04  0.12910476579E+04  0.25000000000E+03 0.  0.
    5000001    1    1    2    0    0 -0.46098320382E+02  0.42029437768E+03  0.13368532572E+04  0.14242363042E+04  0.25000000000E+03 0.  0.
<mgrwt>
<rscale>  0 0.98375302E+03</rscale>
<asrwt>0</asrwt>
<pdfrwt beam="1">  1        2 0.40354561E+00 0.98375302E+03</pdfrwt>
<pdfrwt beam="2">  1       -2 0.14190341E-01 0.98375302E+03</pdfrwt>
<totfact> 0.11547918E+02</totfact>
</mgrwt>
</event>
<event>
 4    1  0.1773996E-005  0.6843990E+03  0.7818608E-02  0.9744290E-01
         -2   -1    0    0    0  501 -0.00000000000E+00  0.00000000000E+00  0.15636042667E+03  0.15636042669E+03  0.25500000000E-02 0. -1.
          2   -1    0    0  501    0  0.00000000000E+00 -0.00000000000E+00 -0.74891386942E+03  0.74891386942E+03  0.25500000000E-02 0.  1.
   -5000001    1    1    2    0    0 -0.14466116854E+03 -0.59041985222E+02 -0.52609561001E+03  0.60306666346E+03  0.25000000000E+03 0.  0.
    5000001    1    1    2    0    0  0.14466116854E+03  0.59041985222E+02 -0.66457832742E+02  0.30220763266E+03  0.25000000000E+03 0.  0.
<mgrwt>
<rscale>  0 0.68439898E+03</rscale>
<asrwt>0</asrwt>
<pdfrwt beam="1">  1        2 0.11521752E+00 0.68439898E+03</pdfrwt>
<pdfrwt beam="2">  1       -2 0.24055451E-01 0.68439898E+03</pdfrwt>
<totfact> 0.58073019E+02</totfact>
</mgrwt>
</event>
<event>
 4    1  0.1773996E-005  0.6033732E+03  0.7818608E-02  0.9898432E-01
         -2   -1    0    0    0  501 -0.00000000000E+00  0.00000000000E+00  0.57961931276E+02  0.57961931332E+02  0.25500000000E-02 0.  1.
          2   -1    0    0  501    0  0.00000000000E+00 -0.00000000000E+00 -0.15702514190E+04  0.15702514190E+04  0.25500000000E-02 0. -1.
   -5000001    1    1    2    0    0 -0.22408819769E+02  0.13380957793E+03 -0.10274450711E+04  0.10660912402E+04  0.25000000000E+03 0.  0.
    5000001    1    1    2    0    0  0.22408819769E+02 -0.13380957793E+03 -0.48484441666E+03  0.56212211015E+03  0.25000000000E+03 0.  0.
<mgrwt>
<rscale>  0 0.60337320E+03</rscale>
<asrwt>0</asrwt>
<pdfrwt beam="1">  1        2 0.24157711E+00 0.60337320E+03</pdfrwt>
<pdfrwt beam="2">  1       -2 0.89172214E-02 0.60337320E+03</pdfrwt>
<totfact> 0.97734905E+02</totfact>
</mgrwt>
</event>
<event>
 4    1  0.1773996E-005  0.1063715E+04  0.7818608E-02  0.9241297E-01
         -2   -1    0    0    0  501 -0.00000000000E+00  0.00000000000E+00  0.57133456804E+03  0.57133456805E+03  0.25500000000E-02 0. -1.
          2   -1    0    0  501    0  0.00000000000E+00 -0.00000000000E+00 -0.49510837244E+03  0.49510837245E+03  0.25500000000E-02 0.  1.
   -5000001    1    1    2    0    0 -0.36181520687E+03  0.74737394442E+02  0.32847034254E+03  0.55397534961E+03  0.25000000000E+03 0.  0.
    5000001    1    1    2    0    0  0.36181520687E+03 -0.74737394442E+02 -0.25224414694E+03  0.51246759089E+03  0.25000000000E+03 0.  0.
<mgrwt>
<rscale>  0 0.10637152E+04</rscale>
<asrwt>0</asrwt>
<pdfrwt beam="1">  1        2 0.76170519E-01 0.10637152E+04</pdfrwt>
<pdfrwt beam="2">  1       -2 0.87897625E-01 0.10637152E+04</pdfrwt>
<totfact> 0.69197553E+01</totfact>
</mgrwt>
</event>
<event>
 4    1  0.1773996E-005  0.1402153E+04  0.7818608E-02  0.8952262E-01
          2   -1    0    0  501    0  0.00000000000E+00  0.00000000000E+00  0.23712950003E+03  0.23712950005E+03  0.25500000000E-02 0.  1.
         -2   -1    0    0    0  501 -0.00000000000E+00 -0.00000000000E+00 -0.20727405691E+04  0.20727405691E+04  0.25500000000E-02 0. -1.
   -5000001    1    1    2    0    0  0.38659315255E+03  0.91627671227E+02 -0.17756400796E+04  0.18366402991E+04  0.25000000000E+03 0.  0.
    5000001    1    1    2    0    0 -0.38659315255E+03 -0.91627671227E+02 -0.59970989454E+02  0.47322977010E+03  0.25000000000E+03 0.  0.
<mgrwt>
<rscale>  0 0.14021525E+04</rscale>
<asrwt>0</asrwt>
<pdfrwt beam="1">  1        2 0.36481463E-01 0.14021525E+04</pdfrwt>
<pdfrwt beam="2">  1       -2 0.31888315E+00 0.14021525E+04</pdfrwt>
<totfact> 0.34027981E+00</totfact>
</mgrwt>
</event>
<event>
 4    1  0.1773996E-005  0.5524057E+03  0.7818608E-02  0.1000939E+00
          2   -1    0    0  501    0  0.00000000000E+00  0.00000000000E+00  0.31233377751E+03  0.31233377752E+03  0.25500000000E-02 0.  1.
         -2   -1    0    0    0  501 -0.00000000000E+00 -0.00000000000E+00 -0.24425158759E+03  0.24425158760E+03  0.25500000000E-02 0. -1.
   -5000001    1    1    2    0    0  0.39087681412E+02 -0.93375221590E+02 -0.25917497140E+02  0.27095847561E+03  0.25000000000E+03 0.  0.
    5000001    1    1    2    0    0 -0.39087681412E+02  0.93375221590E+02  0.93999687062E+02  0.28562688951E+03  0.25000000000E+03 0.  0.
<mgrwt>
<rscale>  0 0.55240572E+03</rscale>
<asrwt>0</asrwt>
<pdfrwt beam="1">  1        2 0.48051350E-01 0.55240572E+03</pdfrwt>
<pdfrwt beam="2">  1       -2 0.37577168E-01 0.55240572E+03</pdfrwt>
<totfact> 0.70512956E+02</totfact>
</mgrwt>
</event>
<event>
 4    1  0.1773996E-005  0.6114259E+03  0.7818608E-02  0.9881980E-01
          2   -1    0    0  501    0  0.00000000000E+00  0.00000000000E+00  0.10631767666E+03  0.10631767669E+03  0.25500000000E-02 0.  1.
         -2   -1    0    0    0  501 -0.00000000000E+00 -0.00000000000E+00 -0.87906745272E+03  0.87906745272E+03  0.25500000000E-02 0. -1.
   -5000001    1    1    2    0    0  0.31468135564E+02 -0.16661644469E+03 -0.31062667101E+03  0.43328998597E+03  0.25000000000E+03 0.  0.
    5000001    1    1    2    0    0 -0.31468135564E+02  0.16661644469E+03 -0.46212310505E+03  0.55209514345E+03  0.25000000000E+03 0.  0.
<mgrwt>
<rscale>  0 0.61142590E+03</rscale>
<asrwt>0</asrwt>
<pdfrwt beam="1">  1        2 0.16356566E-01 0.61142590E+03</pdfrwt>
<pdfrwt beam="2">  1       -2 0.13524114E+00 0.61142590E+03</pdfrwt>
<totfact> 0.14388175E+02</totfact>
</mgrwt>
</event>
<event>
 4    1  0.1773996E-005  0.6828372E+03  0.7818608E-02  0.9747042E-01
          2   -1    0    0  501    0  0.00000000000E+00  0.00000000000E+00  0.27612952218E+03  0.27612952220E+03  0.25500000000E-02 0.  1.
         -2   -1    0    0    0  501 -0.00000000000E+00 -0.00000000000E+00 -0.42214483794E+03  0.42214483795E+03  0.25500000000E-02 0. -1.
   -5000001    1    1    2    0    0 -0.13935749789E+02  0.23024173753E+03 -0.10301712750E+03  0.35541242435E+03  0.25000000000E+03 0.  0.
    5000001    1    1    2    0    0  0.13935749789E+02 -0.23024173753E+03 -0.42998188254E+02  0.34286193579E+03  0.25000000000E+03 0.  0.
<mgrwt>
<rscale>  0 0.68283718E+03</rscale>
<asrwt>0</asrwt>
<pdfrwt beam="1">  1        2 0.42481465E-01 0.68283718E+03</pdfrwt>
<pdfrwt beam="2">  1       -2 0.64945360E-01 0.68283718E+03</pdfrwt>
<totfact> 0.26602677E+02</totfact>
</mgrwt>
</event>
<event>
 4    1  0.1773996E-005  0.8540888E+03  0.7818608E-02  0.9484866E-01
          2   -1    0    0  501    0  0.00000000000E+00  0.00000000000E+00  0.55758298471E+03  0.55758298471E+03  0.25500000000E-02 0.  1.
         -2   -1    0    0    0  501 -0.00000000000E+00 -0.00000000000E+00 -0.32706685211E+03  0.32706685212E+03  0.25500000000E-02 0. -1.
   -5000001    1    1    2    0    0  0.24097427304E+03 -0.18391568567E+03 -0.57978865575E+02  0.39718399837E+03  0.25000000000E+03 0.  0.
    5000001    1    1    2    0    0 -0.24097427304E+03  0.18391568567E+03  0.28849499817E+03  0.48746583847E+03  0.25000000000E+03 0.  0.
<mgrwt>
<rscale>  0 0.85408878E+03</rscale>
<asrwt>0</asrwt>
<pdfrwt beam="1">  1        2 0.85781997E-01 0.85408878E+03</pdfrwt>
<pdfrwt beam="2">  1       -2 0.50317978E-01 0.85408878E+03</pdfrwt>
<totfact> 0.20338604E+02</totfact>
</mgrwt>
</event>
<event>
 4    1  0.1773996E-005  0.1064745E+04  0.7818608E-02  0.9240252E-01
         -2   -1    0    0    0  501 -0.00000000000E+00  0.00000000000E+00  0.13251337564E+03  0.13251337566E+03  0.25500000000E-02 0. -1.
          2   -1    0    0  501    0  0.00000000000E+00 -0.00000000000E+00 -0.21388050818E+04  0.21388050818E+04  0.25500000000E-02 0.  1.
   -5000001    1    1    2    0    0 -0.42538804476E+03  0.10524394755E+03 -0.64057001660E+03  0.81539022762E+03  0.25000000000E+03 0.  0.
    5000001    1    1    2    0    0  0.42538804476E+03 -0.10524394755E+03 -0.13657216896E+04  0.14559282298E+04  0.25000000000E+03 0.  0.
<mgrwt>
<rscale>  0 0.10647446E+04</rscale>
<asrwt>0</asrwt>
<pdfrwt beam="1">  1        2 0.32904691E+00 0.10647446E+04</pdfrwt>
<pdfrwt beam="2">  1       -2 0.20386675E-01 0.10647446E+04</pdfrwt>
<totfact> 0.11540394E+02</totfact>
</mgrwt>
</event>
<event>
 4    1  0.1773996E-005  0.7816370E+03  0.7818608E-02  0.9586984E-01
          2   -1    0    0  501    0  0.00000000000E+00  0.00000000000E+00  0.10680433336E+04  0.10680433336E+04  0.25500000000E-02 0.  1.
         -2   -1    0    0    0  501 -0.00000000000E+00 -0.00000000000E+00 -0.14300833982E+03  0.14300833985E+03  0.25500000000E-02 0. -1.
   -5000001    1    1    2    0    0  0.14837801123E+03 -0.25267604357E+03  0.56503306504E+03  0.68383008255E+03  0.25000000000E+03 0.  0.
    5000001    1    1    2    0    0 -0.14837801123E+03  0.25267604357E+03  0.36000192870E+03  0.52722159087E+03  0.25000000000E+03 0.  0.
<mgrwt>
<rscale>  0 0.78163701E+03</rscale>
<asrwt>0</asrwt>
<pdfrwt beam="1">  1        2 0.16431436E+00 0.78163701E+03</pdfrwt>
<pdfrwt beam="2">  1       -2 0.22001283E-01 0.78163701E+03</pdfrwt>
<totfact> 0.41347564E+02</totfact>
</mgrwt>
</event>
<event>
 4    1  0.1773996E-005  0.9422899E+03  0.7818608E-02  0.9374208E-01
          2   -1    0    0  501    0  0.00000000000E+00  0.00000000000E+00  0.20773534531E+04  0.20773534531E+04  0.25500000000E-02 0.  1.
         -2   -1    0    0    0  501 -0.00000000000E+00 -0.00000000000E+00 -0.10685594388E+03  0.10685594391E+03  0.25500000000E-02 0. -1.
   -5000001    1    1    2    0    0 -0.61684768243E+02  0.35535611570E+03  0.58783453940E+03  0.73357509862E+03  0.25000000000E+03 0.  0.
    5000001    1    1    2    0    0  0.61684768243E+02 -0.35535611570E+03  0.13826629698E+04  0.14506342984E+04  0.25000000000E+03 0.  0.
<mgrwt>
<rscale>  0 0.94228990E+03</rscale>
<asrwt>0</asrwt>
<pdfrwt beam="1">  1        2 0.31959281E+00 0.94228990E+03</pdfrwt>
<pdfrwt beam="2">  1       -2 0.16439377E-01 0.94228990E+03</pdfrwt>
<totfact> 0.18311022E+02</totfact>
</mgrwt>
</event>
<event>
 4    1  0.1773996E-005  0.6634861E+03  0.7818608E-02  0.9781798E-01
         -2   -1    0    0    0  501 -0.00000000000E+00  0.00000000000E+00  0.13127786995E+03  0.13127786997E+03  0.25500000000E-02 0. -1.
          2   -1    0    0  501    0  0.00000000000E+00 -0.00000000000E+00 -0.83832435028E+03  0.83832435028E+03  0.25500000000E-02 0.  1.
   -5000001    1    1    2    0    0 -0.11204614361E+03 -0.16399114640E+03 -0.48509573857E+03  0.58074547779E+03  0.25000000000E+03 0.  0.
    5000001    1    1    2    0    0  0.11204614361E+03  0.16399114640E+03 -0.22195074176E+03  0.38885674247E+03  0.25000000000E+03 0.  0.
<mgrwt>
<rscale>  0 0.66348605E+03</rscale>
<asrwt>0</asrwt>
<pdfrwt beam="1">  1        2 0.12897297E+00 0.66348605E+03</pdfrwt>
<pdfrwt beam="2">  1       -2 0.20196596E-01 0.66348605E+03</pdfrwt>
<totfact> 0.68259186E+02</totfact>
</mgrwt>
</event>
<event>
 4    1  0.1773996E-005  0.7816922E+03  0.7818608E-02  0.9586902E-01
          2   -1    0    0  501    0  0.00000000000E+00  0.00000000000E+00  0.13474272775E+04  0.13474272775E+04  0.25500000000E-02 0.  1.
         -2   -1    0    0    0  501 -0.00000000000E+00 -0.00000000000E+00 -0.11337211548E+03  0.11337211551E+03  0.25500000000E-02 0. -1.
   -5000001    1    1    2    0    0 -0.18920413119E+03 -0.84719369626E+02  0.21066194496E+03  0.38710984217E+03  0.25000000000E+03 0.  0.
    5000001    1    1    2    0    0  0.18920413119E+03  0.84719369626E+02  0.10233932170E+04  0.10736895508E+04  0.25000000000E+03 0.  0.
<mgrwt>
<rscale>  0 0.78169222E+03</rscale>
<asrwt>0</asrwt>
<pdfrwt beam="1">  1        2 0.20729650E+00 0.78169222E+03</pdfrwt>
<pdfrwt beam="2">  1       -2 0.17441864E-01 0.78169222E+03</pdfrwt>
<totfact> 0.42363177E+02</totfact>
</mgrwt>
</event>
<event>
 4    1  0.1773996E-005  0.8041848E+03  0.7818608E-02  0.9553980E-01
          2   -1    0    0  501    0  0.00000000000E+00  0.00000000000E+00  0.11365022114E+04  0.11365022114E+04  0.25500000000E-02 0.  1.
         -2   -1    0    0    0  501 -0.00000000000E+00 -0.00000000000E+00 -0.14225954145E+03  0.14225954147E+03  0.25500000000E-02 0. -1.
   -5000001    1    1    2    0    0 -0.30803380996E+03  0.26007278788E+02  0.40148725929E+03  0.56502497821E+03  0.25000000000E+03 0.  0.
    5000001    1    1    2    0    0  0.30803380996E+03 -0.26007278788E+02  0.59275541064E+03  0.71373677464E+03  0.25000000000E+03 0.  0.
<mgrwt>
<rscale>  0 0.80418476E+03</rscale>
<asrwt>0</asrwt>
<pdfrwt beam="1">  1        2 0.17484650E+00 0.80418476E+03</pdfrwt>
<pdfrwt beam="2">  1       -2 0.21886083E-01 0.80418476E+03</pdfrwt>
<totfact> 0.37853727E+02</totfact>
</mgrwt>
</event>
<event>
 4    1  0.1773996E-005  0.6210604E+03  0.7818608E-02  0.9862651E-01
          2   -1    0    0  501    0  0.00000000000E+00  0.00000000000E+00  0.78318124329E+03  0.78318124330E+03  0.25500000000E-02 0.  1.
         -2   -1    0    0    0  501 -0.00000000000E+00 -0.00000000000E+00 -0.12312477272E+03  0.12312477275E+03  0.25500000000E-02 0. -1.
   -5000001    1    1    2    0    0  0.87817153055E+02  0.15100083283E+03  0.24473901681E+03  0.39103745375E+03  0.25000000000E+03 0.  0.
    5000001    1    1    2    0    0 -0.87817153055E+02 -0.15100083283E+03  0.41531745377E+03  0.51526856230E+03  0.25000000000E+03 0.  0.
<mgrwt>
<rscale>  0 0.62106042E+03</rscale>
<asrwt>0</asrwt>
<pdfrwt beam="1">  1        2 0.12048943E+00 0.62106042E+03</pdfrwt>
<pdfrwt beam="2">  1       -2 0.18942272E-01 0.62106042E+03</pdfrwt>
<totfact> 0.83614866E+02</totfact>
</mgrwt>
</event>
<event>
 4    1  0.1773996E-005  0.7546640E+03  0.7818608E-02  0.9628062E-01
         -2   -1    0    0    0  501 -0.00000000000E+00  0.00000000000E+00  0.22645711802E+03  0.22645711804E+03  0.25500000000E-02 0. -1.
          2   -1    0    0  501    0  0.00000000000E+00 -0.00000000000E+00 -0.62872577147E+03  0.62872577148E+03  0.25500000000E-02 0.  1.
   -5000001    1    1    2    0    0  0.22070524084E+03  0.13602061657E+03 -0.73595467942E+02  0.36759856416E+03  0.25000000000E+03 0.  0.
    5000001    1    1    2    0    0 -0.22070524084E+03 -0.13602061657E+03 -0.32867318551E+03  0.48758432536E+03  0.25000000000E+03 0.  0.
<mgrwt>
<rscale>  0 0.75466397E+03</rscale>
<asrwt>0</asrwt>
<pdfrwt beam="1">  1        2 0.96727041E-01 0.75466397E+03</pdfrwt>
<pdfrwt beam="2">  1       -2 0.34839557E-01 0.75466397E+03</pdfrwt>
<totfact> 0.36430054E+02</totfact>
</mgrwt>
</event>
<event>
 4    1  0.1773996E-005  0.5750992E+03  0.7818608E-02  0.9958458E-01
          2   -1    0    0  501    0  0.00000000000E+00  0.00000000000E+00  0.31421466316E+03  0.31421466317E+03  0.25500000000E-02 0.  1.
         -2   -1    0    0    0  501 -0.00000000000E+00 -0.00000000000E+00 -0.26314741975E+03  0.26314741977E+03  0.25500000000E-02 0. -1.
   -5000001    1    1    2    0    0  0.11012188696E+03 -0.85813020864E+02  0.51982554880E+02  0.29102042978E+03  0.25000000000E+03 0.  0.
    5000001    1    1    2    0    0 -0.11012188696E+03  0.85813020864E+02 -0.91531147369E+00  0.28634165316E+03  0.25000000000E+03 0.  0.
<mgrwt>
<rscale>  0 0.57509922E+03</rscale>
<asrwt>0</asrwt>
<pdfrwt beam="1">  1        2 0.48340717E-01 0.57509922E+03</pdfrwt>
<pdfrwt beam="2">  1       -2 0.40484219E-01 0.57509922E+03</pdfrwt>
<totfact> 0.60643669E+02</totfact>
</mgrwt>
</event>
<event>
 4    1  0.1773996E-005  0.6723977E+03  0.7818608E-02  0.9765636E-01
         -2   -1    0    0    0  501 -0.00000000000E+00  0.00000000000E+00  0.26904596915E+03  0.26904596916E+03  0.25500000000E-02 0. -1.
          2   -1    0    0  501    0  0.00000000000E+00 -0.00000000000E+00 -0.42011280004E+03  0.42011280005E+03  0.25500000000E-02 0.  1.
   -5000001    1    1    2    0    0  0.61200461872E+02  0.18701377217E+03 -0.18691622894E+03  0.36899501915E+03  0.25000000000E+03 0.  0.
    5000001    1    1    2    0    0 -0.61200461872E+02 -0.18701377217E+03  0.35849398046E+02  0.32016375006E+03  0.25000000000E+03 0.  0.
<mgrwt>
<rscale>  0 0.67239767E+03</rscale>
<asrwt>0</asrwt>
<pdfrwt beam="1">  1        2 0.64632738E-01 0.67239767E+03</pdfrwt>
<pdfrwt beam="2">  1       -2 0.41391688E-01 0.67239767E+03</pdfrwt>
<totfact> 0.41940816E+02</totfact>
</mgrwt>
</event>
<event>
 4    1  0.1773996E-005  0.8045128E+03  0.7818608E-02  0.9553508E-01
          2   -1    0    0  501    0  0.00000000000E+00  0.00000000000E+00  0.85115474511E+03  0.85115474512E+03  0.25500000000E-02 0.  1.
         -2   -1    0    0    0  501 -0.00000000000E+00 -0.00000000000E+00 -0.19010666677E+03  0.19010666679E+03  0.25500000000E-02 0. -1.
   -5000001    1    1    2    0    0  0.29645579065E+03 -0.95797699878E+02  0.26917268330E+03  0.48168160495E+03  0.25000000000E+03 0.  0.
    5000001    1    1    2    0    0 -0.29645579065E+03  0.95797699878E+02  0.39187539504E+03  0.55957980695E+03  0.25000000000E+03 0.  0.
<mgrwt>
<rscale>  0 0.80451275E+03</rscale>
<asrwt>0</asrwt>
<pdfrwt beam="1">  1        2 0.13094688E+00 0.80451275E+03</pdfrwt>
<pdfrwt beam="2">  1       -2 0.29247180E-01 0.80451275E+03</pdfrwt>
<totfact> 0.34200845E+02</totfact>
</mgrwt>
</event>
<event>
 4    1  0.1773996E-005  0.5984681E+03  0.7818608E-02  0.9908589E-01
          2   -1    0    0  501    0  0.00000000000E+00  0.00000000000E+00  0.17329238271E+04  0.17329238271E+04  0.25500000000E-02 0.  1.
         -2   -1    0    0    0  501 -0.00000000000E+00 -0.00000000000E+00 -0.51670486970E+02  0.51670487033E+02  0.25500000000E-02 0. -1.
   -5000001    1    1    2    0    0  0.14514473314E+03  0.40717998266E+02  0.10365303942E+04  0.10768566326E+04  0.25000000000E+03 0.  0.
    5000001    1    1    2    0    0 -0.14514473314E+03 -0.40717998266E+02  0.64472294592E+03  0.70773768159E+03  0.25000000000E+03 0.  0.
<mgrwt>
<rscale>  0 0.59846810E+03</rscale>
<asrwt>0</asrwt>
<pdfrwt beam="1">  1        2 0.26660363E+00 0.59846810E+03</pdfrwt>
<pdfrwt beam="2">  1       -2 0.79493067E-02 0.59846810E+03</pdfrwt>
<totfact> 0.95799853E+02</totfact>
</mgrwt>
</event>
<event>
 4    1  0.1773996E-005  0.7686286E+03  0.7818608E-02  0.9606570E-01
         -2   -1    0    0    0  501 -0.00000000000E+00  0.00000000000E+00  0.34044119940E+02  0.34044120035E+02  0.25500000000E-02 0. -1.
          2   -1    0    0  501    0  0.00000000000E+00 -0.00000000000E+00 -0.43384140386E+04  0.43384140386E+04  0.25500000000E-02 0.  1.
   -5000001    1    1    2    0    0 -0.22592148081E+03 -0.91523201172E+02 -0.30655714415E+04  0.30853922400E+04  0.25000000000E+03 0.  0.
    5000001    1    1    2    0    0  0.22592148081E+03  0.91523201172E+02 -0.12387984772E+04  0.12870659186E+04  0.25000000000E+03 0.  0.
<mgrwt>
<rscale>  0 0.76862862E+03</rscale>
<asrwt>0</asrwt>
<pdfrwt beam="1">  1        2 0.66744788E+00 0.76862862E+03</pdfrwt>
<pdfrwt beam="2">  1       -2 0.52375604E-02 0.76862862E+03</pdfrwt>
<totfact> 0.37589836E+01</totfact>
</mgrwt>
</event>
<event>
 4    1  0.1773996E-005  0.8406748E+03  0.7818608E-02  0.9502939E-01
          2   -1    0    0  501    0  0.00000000000E+00  0.00000000000E+00  0.18852399461E+04  0.18852399461E+04  0.25500000000E-02 0.  1.
         -2   -1    0    0    0  501 -0.00000000000E+00 -0.00000000000E+00 -0.93719375313E+02  0.93719375348E+02  0.25500000000E-02 0. -1.
   -5000001    1    1    2    0    0 -0.10563099353E+03  0.32094454557E+03  0.90634077637E+03  0.99905801185E+03  0.25000000000E+03 0.  0.
    5000001    1    1    2    0    0  0.10563099353E+03 -0.32094454557E+03  0.88517979446E+03  0.97990130964E+03  0.25000000000E+03 0.  0.
<mgrwt>
<rscale>  0 0.84067475E+03</rscale>
<asrwt>0</asrwt>
<pdfrwt beam="1">  1        2 0.29003689E+00 0.84067475E+03</pdfrwt>
<pdfrwt beam="2">  1       -2 0.14418367E-01 0.84067475E+03</pdfrwt>
<totfact> 0.29392418E+02</totfact>
</mgrwt>
</event>
<event>
 4    1  0.1773996E-005  0.5878366E+03  0.7818608E-02  0.9930968E-01
         -2   -1    0    0    0  501 -0.00000000000E+00  0.00000000000E+00  0.17601972497E+03  0.17601972499E+03  0.25500000000E-02 0. -1.
          2   -1    0    0  501    0  0.00000000000E+00 -0.00000000000E+00 -0.49078569612E+03  0.49078569612E+03  0.25500000000E-02 0.  1.
   -5000001    1    1    2    0    0  0.10518967088E+03  0.80553406062E+02 -0.67103319662E+02  0.29078613034E+03  0.25000000000E+03 0.  0.
    5000001    1    1    2    0    0 -0.10518967088E+03 -0.80553406062E+02 -0.24766265149E+03  0.37601929077E+03  0.25000000000E+03 0.  0.
<mgrwt>
<rscale>  0 0.58783659E+03</rscale>
<asrwt>0</asrwt>
<pdfrwt beam="1">  1        2 0.75505491E-01 0.58783659E+03</pdfrwt>
<pdfrwt beam="2">  1       -2 0.27079958E-01 0.58783659E+03</pdfrwt>
<totfact> 0.78339855E+02</totfact>
</mgrwt>
</event>
<event>
 4    1  0.1773996E-005  0.5992016E+03  0.7818608E-02  0.9907064E-01
          2   -1    0    0  501    0  0.00000000000E+00  0.00000000000E+00  0.89179159437E+03  0.89179159437E+03  0.25500000000E-02 0.  1.
         -2   -1    0    0    0  501 -0.00000000000E+00 -0.00000000000E+00 -0.10065203019E+03  0.10065203022E+03  0.25500000000E-02 0. -1.
   -5000001    1    1    2    0    0  0.63727531451E+01  0.12226485346E+03  0.57904553479E+03  0.64248193572E+03  0.25000000000E+03 0.  0.
    5000001    1    1    2    0    0 -0.63727531451E+01 -0.12226485346E+03  0.21209402939E+03  0.34996168887E+03  0.25000000000E+03 0.  0.
<mgrwt>
<rscale>  0 0.59920158E+03</rscale>
<asrwt>0</asrwt>
<pdfrwt beam="1">  1        2 0.13719871E+00 0.59920158E+03</pdfrwt>
<pdfrwt beam="2">  1       -2 0.15484928E-01 0.59920158E+03</pdfrwt>
<totfact> 0.99222123E+02</totfact>
</mgrwt>
</event>
<event>
 4    1  0.1773996E-005  0.7611929E+03  0.7818608E-02  0.9617952E-01
          2   -1    0    0  501    0  0.00000000000E+00  0.00000000000E+00  0.11530525819E+04  0.11530525819E+04  0.25500000000E-02 0.  1.
         -2   -1    0    0    0  501 -0.00000000000E+00 -0.00000000000E+00 -0.12562624432E+03  0.12562624434E+03  0.25500000000E-02 0. -1.
   -5000001    1    1    2    0    0  0.23093698858E+03  0.10985459773E+03  0.29498763080E+03  0.46359209188E+03  0.25000000000E+03 0.  0.
    5000001    1    1    2    0    0 -0.23093698858E+03 -0.10985459773E+03  0.73243870680E+03  0.81508673437E+03  0.25000000000E+03 0.  0.
<mgrwt>
<rscale>  0 0.76119292E+03</rscale>
<asrwt>0</asrwt>
<pdfrwt beam="1">  1        2 0.17739271E+00 0.76119292E+03</pdfrwt>
<pdfrwt beam="2">  1       -2 0.19327114E-01 0.76119292E+03</pdfrwt>
<totfact> 0.46123155E+02</totfact>
</mgrwt>
</event>
<event>
 4    1  0.1773996E-005  0.8052380E+03  0.7818608E-02  0.9552466E-01
         -2   -1    0    0    0  501 -0.00000000000E+00  0.00000000000E+00  0.20763109847E+03  0.20763109849E+03  0.25500000000E-02 0. -1.
          2   -1    0    0  501    0  0.00000000000E+00 -0.00000000000E+00 -0.78072153030E+03  0.78072153030E+03  0.25500000000E-02 0.  1.
   -5000001    1    1    2    0    0  0.58186055228E+02 -0.29112409399E+03 -0.41795897664E+03  0.57037580706E+03  0.25000000000E+03 0.  0.
    5000001    1    1    2    0    0 -0.58186055228E+02  0.29112409399E+03 -0.15513145519E+03  0.41797682174E+03  0.25000000000E+03 0.  0.
<mgrwt>
<rscale>  0 0.80523802E+03</rscale>
<asrwt>0</asrwt>
<pdfrwt beam="1">  1        2 0.12011100E+00 0.80523802E+03</pdfrwt>
<pdfrwt beam="2">  1       -2 0.31943246E-01 0.80523802E+03</pdfrwt>
<totfact> 0.32573483E+02</totfact>
</mgrwt>
</event>
<event>
 4    1  0.1773996E-005  0.7079723E+03  0.7818608E-02  0.9703695E-01
         -2   -1    0    0    0  501 -0.00000000000E+00  0.00000000000E+00  0.10199195225E+03  0.10199195229E+03  0.25500000000E-02 0. -1.
          2   -1    0    0  501    0  0.00000000000E+00 -0.00000000000E+00 -0.12285889398E+04  0.12285889398E+04  0.25500000000E-02 0.  1.
   -5000001    1    1    2    0    0 -0.69311568240E+02  0.21465105141E+03 -0.35804481227E+03  0.49150305692E+03  0.25000000000E+03 0.  0.
    5000001    1    1    2    0    0  0.69311568240E+02 -0.21465105141E+03 -0.76855217528E+03  0.83907783518E+03  0.25000000000E+03 0.  0.
<mgrwt>
<rscale>  0 0.70797227E+03</rscale>
<asrwt>0</asrwt>
<pdfrwt beam="1">  1        2 0.18901367E+00 0.70797227E+03</pdfrwt>
<pdfrwt beam="2">  1       -2 0.15691070E-01 0.70797227E+03</pdfrwt>
<totfact> 0.59677777E+02</totfact>
</mgrwt>
</event>
<event>
 4    1  0.1773996E-005  0.5616702E+03  0.7818608E-02  0.9988283E-01
          2   -1    0    0  501    0  0.00000000000E+00  0.00000000000E+00  0.13169787723E+04  0.13169787723E+04  0.25500000000E-02 0.  1.
         -2   -1    0    0    0  501 -0.00000000000E+00 -0.00000000000E+00 -0.59885816279E+02  0.59885816333E+02  0.25500000000E-02 0. -1.
   -5000001    1    1    2    0    0  0.68226769778E+02 -0.10218819709E+03  0.54115127262E+03  0.60863948245E+03  0.25000000000E+03 0.  0.
    5000001    1    1    2    0    0 -0.68226769778E+02  0.10218819709E+03  0.71594168339E+03  0.76822510617E+03  0.25000000000E+03 0.  0.
<mgrwt>
<rscale>  0 0.56167018E+03</rscale>
<asrwt>0</asrwt>
<pdfrwt beam="1">  1        2 0.20261211E+00 0.56167018E+03</pdfrwt>
<pdfrwt beam="2">  1       -2 0.92132028E-02 0.56167018E+03</pdfrwt>
<totfact> 0.12855231E+03</totfact>
</mgrwt>
</event>
<event>
 4    1  0.1773996E-005  0.7578800E+03  0.7818608E-02  0.9623068E-01
          2   -1    0    0  501    0  0.00000000000E+00  0.00000000000E+00  0.14047302472E+04  0.14047302472E+04  0.25500000000E-02 0.  1.
         -2   -1    0    0    0  501 -0.00000000000E+00 -0.00000000000E+00 -0.10222283543E+03  0.10222283547E+03  0.25500000000E-02 0. -1.
   -5000001    1    1    2    0    0  0.26311620458E+03 -0.10885124418E+03  0.65939840686E+03  0.76051626508E+03  0.25000000000E+03 0.  0.
    5000001    1    1    2    0    0 -0.26311620458E+03  0.10885124418E+03  0.64310900492E+03  0.74643681760E+03  0.25000000000E+03 0.  0.
<mgrwt>
<rscale>  0 0.75787996E+03</rscale>
<asrwt>0</asrwt>
<pdfrwt beam="1">  1        2 0.21611237E+00 0.75787996E+03</pdfrwt>
<pdfrwt beam="2">  1       -2 0.15726589E-01 0.75787996E+03</pdfrwt>
<totfact> 0.46976870E+02</totfact>
</mgrwt>
</event>
<event>
 4    1  0.1773996E-005  0.6820270E+03  0.7818608E-02  0.9748472E-01
         -2   -1    0    0    0  501 -0.00000000000E+00  0.00000000000E+00  0.57667480434E+02  0.57667480491E+02  0.25500000000E-02 0. -1.
          2   -1    0    0  501    0  0.00000000000E+00 -0.00000000000E+00 -0.20165649646E+04  0.20165649646E+04  0.25500000000E-02 0.  1.
   -5000001    1    1    2    0    0 -0.13932148125E+02 -0.22262119353E+03 -0.78623984911E+03  0.85465045539E+03  0.25000000000E+03 0.  0.
    5000001    1    1    2    0    0  0.13932148125E+02  0.22262119353E+03 -0.11726576350E+04  0.12195819897E+04  0.25000000000E+03 0.  0.
<mgrwt>
<rscale>  0 0.68202704E+03</rscale>
<asrwt>0</asrwt>
<pdfrwt beam="1">  1        2 0.31024071E+00 0.68202704E+03</pdfrwt>
<pdfrwt beam="2">  1       -2 0.88719216E-02 0.68202704E+03</pdfrwt>
<totfact> 0.56079295E+02</totfact>
</mgrwt>
</event>
<event>
 4    1  0.1773996E-005  0.5671179E+03  0.7818608E-02  0.9976077E-01
          2   -1    0    0  501    0  0.00000000000E+00  0.00000000000E+00  0.16033513405E+03  0.16033513407E+03  0.25500000000E-02 0.  1.
         -2   -1    0    0    0  501 -0.00000000000E+00 -0.00000000000E+00 -0.50148501591E+03  0.50148501591E+03  0.25500000000E-02 0. -1.
   -5000001    1    1    2    0    0 -0.12254403797E+03 -0.53127985637E+02 -0.18005870135E+03  0.33579868974E+03  0.25000000000E+03 0.  0.
    5000001    1    1    2    0    0  0.12254403797E+03  0.53127985637E+02 -0.16109118051E+03  0.32602146024E+03  0.25000000000E+03 0.  0.
<mgrwt>
<rscale>  0 0.56711786E+03</rscale>
<asrwt>0</asrwt>
<pdfrwt beam="1">  1        2 0.24666944E-01 0.56711786E+03</pdfrwt>
<pdfrwt beam="2">  1       -2 0.77151540E-01 0.56711786E+03</pdfrwt>
<totfact> 0.33725738E+02</totfact>
</mgrwt>
</event>
<event>
 4    1  0.1773996E-005  0.9559940E+03  0.7818608E-02  0.9358172E-01
          2   -1    0    0  501    0  0.00000000000E+00  0.00000000000E+00  0.12938757402E+04  0.12938757402E+04  0.25500000000E-02 0.  1.
         -2   -1    0    0    0  501 -0.00000000000E+00 -0.00000000000E+00 -0.17658662223E+03  0.17658662225E+03  0.25500000000E-02 0. -1.
   -5000001    1    1    2    0    0 -0.40694619563E+03 -0.13733799957E+02  0.57969661311E+03  0.75122698743E+03  0.25000000000E+03 0.  0.
    5000001    1    1    2    0    0  0.40694619563E+03  0.13733799957E+02  0.53759250485E+03  0.71923537501E+03  0.25000000000E+03 0.  0.
<mgrwt>
<rscale>  0 0.95599403E+03</rscale>
<asrwt>0</asrwt>
<pdfrwt beam="1">  1        2 0.19905781E+00 0.95599403E+03</pdfrwt>
<pdfrwt beam="2">  1       -2 0.27167172E-01 0.95599403E+03</pdfrwt>
<totfact> 0.20521835E+02</totfact>
</mgrwt>
</event>
<event>
 4    1  0.1773996E-005  0.1210546E+04  0.7818608E-02  0.9103675E-01
          2   -1    0    0  501    0  0.00000000000E+00  0.00000000000E+00  0.13337428203E+04  0.13337428203E+04  0.25500000000E-02 0.  1.
         -2   -1    0    0    0  501 -0.00000000000E+00 -0.00000000000E+00 -0.27468236386E+03  0.27468236388E+03  0.25500000000E-02 0. -1.
   -5000001    1    1    2    0    0  0.23868318848E+02 -0.55063396259E+03  0.51705386649E+03  0.79599758684E+03  0.25000000000E+03 0.  0.
    5000001    1    1    2    0    0 -0.23868318848E+02  0.55063396259E+03  0.54200658999E+03  0.81242759738E+03  0.25000000000E+03 0.  0.
<mgrwt>
<rscale>  0 0.12105464E+04</rscale>
<asrwt>0</asrwt>
<pdfrwt beam="1">  1        2 0.20519120E+00 0.12105464E+04</pdfrwt>
<pdfrwt beam="2">  1       -2 0.42258825E-01 0.12105464E+04</pdfrwt>
<totfact> 0.82649378E+01</totfact>
</mgrwt>
</event>
<event>
 4    1  0.1773996E-005  0.1134950E+04  0.7818608E-02  0.9171781E-01
          2   -1    0    0  501    0  0.00000000000E+00  0.00000000000E+00  0.59703414851E+03  0.59703414851E+03  0.25500000000E-02 0.  1.
         -2   -1    0    0    0  501 -0.00000000000E+00 -0.00000000000E+00 -0.53937949320E+03  0.53937949321E+03  0.25500000000E-02 0. -1.
   -5000001    1    1    2    0    0 -0.49264506825E+03 -0.26711379473E+02  0.15593713074E+03  0.57465559234E+03  0.25000000000E+03 0.  0.
    5000001    1    1    2    0    0  0.49264506825E+03  0.26711379473E+02 -0.98282475433E+02  0.56175804938E+03  0.25000000000E+03 0.  0.
<mgrwt>
<rscale>  0 0.11349502E+04</rscale>
<asrwt>0</asrwt>
<pdfrwt beam="1">  1        2 0.91851407E-01 0.11349502E+04</pdfrwt>
<pdfrwt beam="2">  1       -2 0.82981461E-01 0.11349502E+04</pdfrwt>
<totfact> 0.62945444E+01</totfact>
</mgrwt>
</event>
<event>
 4    1  0.1773996E-005  0.8142137E+03  0.7818608E-02  0.9539668E-01
         -2   -1    0    0    0  501 -0.00000000000E+00  0.00000000000E+00  0.17728619389E+03  0.17728619391E+03  0.25500000000E-02 0. -1.
          2   -1    0    0  501    0  0.00000000000E+00 -0.00000000000E+00 -0.93484987625E+03  0.93484987626E+03  0.25500000000E-02 0.  1.
   -5000001    1    1    2    0    0  0.24070143499E+03 -0.14404160884E+03 -0.16476278093E+03  0.41028275599E+03  0.25000000000E+03 0.  0.
    5000001    1    1    2    0    0 -0.24070143499E+03  0.14404160884E+03 -0.59280090143E+03  0.70185331418E+03  0.25000000000E+03 0.  0.
<mgrwt>
<rscale>  0 0.81421367E+03</rscale>
<asrwt>0</asrwt>
<pdfrwt beam="1">  1        2 0.14382306E+00 0.81421367E+03</pdfrwt>
<pdfrwt beam="2">  1       -2 0.27274800E-01 0.81421367E+03</pdfrwt>
<totfact> 0.34116286E+02</totfact>
</mgrwt>
</event>
<event>
 4    1  0.1773996E-005  0.1074253E+04  0.7818608E-02  0.9230656E-01
         -2   -1    0    0    0  501 -0.00000000000E+00  0.00000000000E+00  0.15414619712E+03  0.15414619714E+03  0.25500000000E-02 0. -1.
          2   -1    0    0  501    0  0.00000000000E+00 -0.00000000000E+00 -0.18716329043E+04  0.18716329043E+04  0.25500000000E-02 0.  1.
   -5000001    1    1    2    0    0 -0.24002621517E+03  0.19635881874E+03 -0.17925432129E+03  0.43680828904E+03  0.25000000000E+03 0.  0.
    5000001    1    1    2    0    0  0.24002621517E+03 -0.19635881874E+03 -0.15382323858E+04  0.15889708124E+04  0.25000000000E+03 0.  0.
<mgrwt>
<rscale>  0 0.10742534E+04</rscale>
<asrwt>0</asrwt>
<pdfrwt beam="1">  1        2 0.28794351E+00 0.10742534E+04</pdfrwt>
<pdfrwt beam="2">  1       -2 0.23714801E-01 0.10742534E+04</pdfrwt>
<totfact> 0.12372797E+02</totfact>
</mgrwt>
</event>
<event>
 4    1  0.1773996E-005  0.6081313E+03  0.7818608E-02  0.9888678E-01
         -2   -1    0    0    0  501 -0.00000000000E+00  0.00000000000E+00  0.29462025843E+03  0.29462025844E+03  0.25500000000E-02 0. -1.
          2   -1    0    0  501    0  0.00000000000E+00 -0.00000000000E+00 -0.31381381116E+03  0.31381381117E+03  0.25500000000E-02 0.  1.
   -5000001    1    1    2    0    0 -0.77963945400E+00  0.78818469123E+02  0.14456741630E+03  0.29935379866E+03  0.25000000000E+03 0.  0.
    5000001    1    1    2    0    0  0.77963945400E+00 -0.78818469123E+02 -0.16376096904E+03  0.30908027095E+03  0.25000000000E+03 0.  0.
<mgrwt>
<rscale>  0 0.60813126E+03</rscale>
<asrwt>0</asrwt>
<pdfrwt beam="1">  1        2 0.48279048E-01 0.60813126E+03</pdfrwt>
<pdfrwt beam="2">  1       -2 0.45326194E-01 0.60813126E+03</pdfrwt>
<totfact> 0.48602832E+02</totfact>
</mgrwt>
</event>
<event>
 4    1  0.1773996E-005  0.7304391E+03  0.7818608E-02  0.9666548E-01
         -2   -1    0    0    0  501 -0.00000000000E+00  0.00000000000E+00  0.30121883234E+03  0.30121883235E+03  0.25500000000E-02 0. -1.
          2   -1    0    0  501    0  0.00000000000E+00 -0.00000000000E+00 -0.44281865698E+03  0.44281865698E+03  0.25500000000E-02 0.  1.
   -5000001    1    1    2    0    0  0.21146356387E+03 -0.30487492368E+02 -0.23262535993E+03  0.40281619148E+03  0.25000000000E+03 0.  0.
    5000001    1    1    2    0    0 -0.21146356387E+03  0.30487492368E+02  0.91025535300E+02  0.34122129786E+03  0.25000000000E+03 0.  0.
<mgrwt>
<rscale>  0 0.73043910E+03</rscale>
<asrwt>0</asrwt>
<pdfrwt beam="1">  1        2 0.68125948E-01 0.73043910E+03</pdfrwt>
<pdfrwt beam="2">  1       -2 0.46341359E-01 0.73043910E+03</pdfrwt>
<totfact> 0.31538867E+02</totfact>
</mgrwt>
</event>
<event>
 4    1  0.1773996E-005  0.9525311E+03  0.7818608E-02  0.9362197E-01
          2   -1    0    0  501    0  0.00000000000E+00  0.00000000000E+00  0.54534606173E+03  0.54534606174E+03  0.25500000000E-02 0.  1.
         -2   -1    0    0    0  501 -0.00000000000E+00 -0.00000000000E+00 -0.41593566641E+03  0.41593566642E+03  0.25500000000E-02 0. -1.
   -5000001    1    1    2    0    0 -0.13461453909E+03  0.36726399519E+03 -0.42691241854E+02  0.46618285943E+03  0.25000000000E+03 0.  0.
    5000001    1    1    2    0    0  0.13461453909E+03 -0.36726399519E+03  0.17210163717E+03  0.49509886873E+03  0.25000000000E+03 0.  0.
<mgrwt>
<rscale>  0 0.95253111E+03</rscale>
<asrwt>0</asrwt>
<pdfrwt beam="1">  1        2 0.83899394E-01 0.95253111E+03</pdfrwt>
<pdfrwt beam="2">  1       -2 0.63990103E-01 0.95253111E+03</pdfrwt>
<totfact> 0.12574956E+02</totfact>
</mgrwt>
</event>
<event>
 4    1  0.1773996E-005  0.5595551E+03  0.7818608E-02  0.9993062E-01
          2   -1    0    0  501    0  0.00000000000E+00  0.00000000000E+00  0.73317638178E+03  0.73317638179E+03  0.25500000000E-02 0.  1.
         -2   -1    0    0    0  501 -0.00000000000E+00 -0.00000000000E+00 -0.10676212149E+03  0.10676212152E+03  0.25500000000E-02 0. -1.
   -5000001    1    1    2    0    0 -0.12088802828E+03  0.29326289804E+02  0.28714186028E+03  0.40053014191E+03  0.25000000000E+03 0.  0.
    5000001    1    1    2    0    0  0.12088802828E+03 -0.29326289804E+02  0.33927240001E+03  0.43940836140E+03  0.25000000000E+03 0.  0.
<mgrwt>
<rscale>  0 0.55955506E+03</rscale>
<asrwt>0</asrwt>
<pdfrwt beam="1">  1        2 0.11279637E+00 0.55955506E+03</pdfrwt>
<pdfrwt beam="2">  1       -2 0.16424942E-01 0.55955506E+03</pdfrwt>
<totfact> 0.11637830E+03</totfact>
</mgrwt>
</event>
<event>
 4    1  0.1773996E-005  0.1093352E+04  0.7818608E-02  0.9211696E-01
         -2   -1    0    0    0  501 -0.00000000000E+00  0.00000000000E+00  0.14641318358E+03  0.14641318360E+03  0.25500000000E-02 0. -1.
          2   -1    0    0  501    0  0.00000000000E+00 -0.00000000000E+00 -0.20411734997E+04  0.20411734997E+04  0.25500000000E-02 0.  1.
   -5000001    1    1    2    0    0  0.32221767278E+03  0.16580436361E+03 -0.15958373748E+04  0.16554492569E+04  0.25000000000E+03 0.  0.
    5000001    1    1    2    0    0 -0.32221767278E+03 -0.16580436361E+03 -0.29892294135E+03  0.53213742634E+03  0.25000000000E+03 0.  0.
<mgrwt>
<rscale>  0 0.10933521E+04</rscale>
<asrwt>0</asrwt>
<pdfrwt beam="1">  1        2 0.31402667E+00 0.10933521E+04</pdfrwt>
<pdfrwt beam="2">  1       -2 0.22525107E-01 0.10933521E+04</pdfrwt>
<totfact> 0.10925892E+02</totfact>
</mgrwt>
</event>
<event>
 4    1  0.1773996E-005  0.9296848E+03  0.7818608E-02  0.9389216E-01
          2   -1    0    0  501    0  0.00000000000E+00  0.00000000000E+00  0.87229781897E+03  0.87229781897E+03  0.25500000000E-02 0.  1.
         -2   -1    0    0    0  501 -0.00000000000E+00 -0.00000000000E+00 -0.24771179109E+03  0.24771179111E+03  0.25500000000E-02 0. -1.
   -5000001    1    1    2    0    0  0.39791277633E+02 -0.32390784598E+03  0.57368892479E+03  0.70577519147E+03  0.25000000000E+03 0.  0.
    5000001    1    1    2    0    0 -0.39791277633E+02  0.32390784598E+03  0.50897103085E+02  0.41423441861E+03  0.25000000000E+03 0.  0.
<mgrwt>
<rscale>  0 0.92968480E+03</rscale>
<asrwt>0</asrwt>
<pdfrwt beam="1">  1        2 0.13419967E+00 0.92968480E+03</pdfrwt>
<pdfrwt beam="2">  1       -2 0.38109506E-01 0.92968480E+03</pdfrwt>
<totfact> 0.19924152E+02</totfact>
</mgrwt>
</event>
<event>
 4    1  0.1773996E-005  0.6404326E+03  0.7818608E-02  0.9824899E-01
         -2   -1    0    0    0  501 -0.00000000000E+00  0.00000000000E+00  0.96450104672E+02  0.96450104706E+02  0.25500000000E-02 0. -1.
          2   -1    0    0  501    0  0.00000000000E+00 -0.00000000000E+00 -0.10631244857E+04  0.10631244857E+04  0.25500000000E-02 0.  1.
   -5000001    1    1    2    0    0  0.14749822564E+03  0.11403776557E+03 -0.35179493047E+03  0.47012765463E+03  0.25000000000E+03 0.  0.
    5000001    1    1    2    0    0 -0.14749822564E+03 -0.11403776557E+03 -0.61487945056E+03  0.68944693578E+03  0.25000000000E+03 0.  0.
<mgrwt>
<rscale>  0 0.64043257E+03</rscale>
<asrwt>0</asrwt>
<pdfrwt beam="1">  1        2 0.16355761E+00 0.64043257E+03</pdfrwt>
<pdfrwt beam="2">  1       -2 0.14838478E-01 0.64043257E+03</pdfrwt>
<totfact> 0.82671097E+02</totfact>
</mgrwt>
</event>
<event>
 4    1  0.1773996E-005  0.7970834E+03  0.7818608E-02  0.9564248E-01
          2   -1    0    0  501    0  0.00000000000E+00  0.00000000000E+00  0.97182550062E+02  0.97182550096E+02  0.25500000000E-02 0.  1.
         -2   -1    0    0    0  501 -0.00000000000E+00 -0.00000000000E+00 -0.16344032439E+04  0.16344032439E+04  0.25500000000E-02 0. -1.
   -5000001    1    1    2    0    0  0.19033169877E+03 -0.24517190564E+03 -0.76809521952E+03  0.86533559104E+03  0.25000000000E+03 0.  0.
    5000001    1    1    2    0    0 -0.19033169877E+03  0.24517190564E+03 -0.76912547427E+03  0.86625020291E+03  0.25000000000E+03 0.  0.
<mgrwt>
<rscale>  0 0.79708337E+03</rscale>
<asrwt>0</asrwt>
<pdfrwt beam="1">  1        2 0.14951163E-01 0.79708337E+03</pdfrwt>
<pdfrwt beam="2">  1       -2 0.25144663E+00 0.79708337E+03</pdfrwt>
<totfact> 0.25957199E+01</totfact>
</mgrwt>
</event>
<event>
 4    1  0.1773996E-005  0.7947061E+03  0.7818608E-02  0.9567712E-01
         -2   -1    0    0    0  501 -0.00000000000E+00  0.00000000000E+00  0.10236537541E+03  0.10236537544E+03  0.25500000000E-02 0. -1.
          2   -1    0    0  501    0  0.00000000000E+00 -0.00000000000E+00 -0.15424106058E+04  0.15424106058E+04  0.25500000000E-02 0.  1.
   -5000001    1    1    2    0    0  0.37855140946E+00  0.28968653977E+03 -0.94168957851E+03  0.10164633279E+04  0.25000000000E+03 0.  0.
    5000001    1    1    2    0    0 -0.37855140946E+00 -0.28968653977E+03 -0.49835565189E+03  0.62831265338E+03  0.25000000000E+03 0.  0.
<mgrwt>
<rscale>  0 0.79470609E+03</rscale>
<asrwt>0</asrwt>
<pdfrwt beam="1">  1        2 0.23729392E+00 0.79470609E+03</pdfrwt>
<pdfrwt beam="2">  1       -2 0.15748520E-01 0.79470609E+03</pdfrwt>
<totfact> 0.39165384E+02</totfact>
</mgrwt>
</event>
<event>
 4    1  0.1773996E-005  0.1025183E+04  0.7818608E-02  0.9281347E-01
         -2   -1    0    0    0  501 -0.00000000000E+00  0.00000000000E+00  0.36801155673E+04  0.36801155673E+04  0.25500000000E-02 0. -1.
          2   -1    0    0  501    0  0.00000000000E+00 -0.00000000000E+00 -0.71397284432E+02  0.71397284477E+02  0.25500000000E-02 0.  1.
   -5000001    1    1    2    0    0  0.25464297273E+03 -0.24820182585E+03  0.81023166919E+03  0.91946862245E+03  0.25000000000E+03 0.  0.
    5000001    1    1    2    0    0 -0.25464297273E+03  0.24820182585E+03  0.27984866136E+04  0.28320442293E+04  0.25000000000E+03 0.  0.
<mgrwt>
<rscale>  0 0.10251834E+04</rscale>
<asrwt>0</asrwt>
<pdfrwt beam="1">  1        2 0.10984195E-01 0.10251834E+04</pdfrwt>
<pdfrwt beam="2">  1       -2 0.56617174E+00 0.10251834E+04</pdfrwt>
<totfact> 0.41981578E-01</totfact>
</mgrwt>
</event>
<event>
 4    1  0.1773996E-005  0.5912176E+03  0.7818608E-02  0.9923796E-01
          2   -1    0    0  501    0  0.00000000000E+00  0.00000000000E+00  0.68912170940E+03  0.68912170940E+03  0.25500000000E-02 0.  1.
         -2   -1    0    0    0  501 -0.00000000000E+00 -0.00000000000E+00 -0.12680571718E+03  0.12680571721E+03  0.25500000000E-02 0. -1.
   -5000001    1    1    2    0    0  0.12909008224E+03 -0.16978398364E+02  0.40407078505E+03  0.49267201531E+03  0.25000000000E+03 0.  0.
    5000001    1    1    2    0    0 -0.12909008224E+03  0.16978398364E+02  0.15824520717E+03  0.32325541130E+03  0.25000000000E+03 0.  0.
<mgrwt>
<rscale>  0 0.59121763E+03</rscale>
<asrwt>0</asrwt>
<pdfrwt beam="1">  1        2 0.10601872E+00 0.59121763E+03</pdfrwt>
<pdfrwt beam="2">  1       -2 0.19508572E-01 0.59121763E+03</pdfrwt>
<totfact> 0.93583319E+02</totfact>
</mgrwt>
</event>
<event>
 4    1  0.1773996E-005  0.7738861E+03  0.7818608E-02  0.9598605E-01
          2   -1    0    0  501    0  0.00000000000E+00  0.00000000000E+00  0.76580237442E+03  0.76580237443E+03  0.25500000000E-02 0.  1.
         -2   -1    0    0    0  501 -0.00000000000E+00 -0.00000000000E+00 -0.19551379887E+03  0.19551379889E+03  0.25500000000E-02 0. -1.
   -5000001    1    1    2    0    0  0.86866567577E+02  0.27674752275E+03  0.21609420863E+03  0.43969500670E+03  0.25000000000E+03 0.  0.
    5000001    1    1    2    0    0 -0.86866567577E+02 -0.27674752275E+03  0.35419436692E+03  0.52162116662E+03  0.25000000000E+03 0.  0.
<mgrwt>
<rscale>  0 0.77388612E+03</rscale>
<asrwt>0</asrwt>
<pdfrwt beam="1">  1        2 0.11781575E+00 0.77388612E+03</pdfrwt>
<pdfrwt beam="2">  1       -2 0.30079046E-01 0.77388612E+03</pdfrwt>
<totfact> 0.37421808E+02</totfact>
</mgrwt>
</event>
<event>
 4    1  0.1773996E-005  0.5599904E+03  0.7818608E-02  0.9992076E-01
          2   -1    0    0  501    0  0.00000000000E+00  0.00000000000E+00  0.69690338901E+03  0.69690338902E+03  0.25500000000E-02 0.  1.
         -2   -1    0    0    0  501 -0.00000000000E+00 -0.00000000000E+00 -0.11249379770E+03  0.11249379773E+03  0.25500000000E-02 0. -1.
   -5000001    1    1    2    0    0  0.27683141660E+01  0.12500396535E+03  0.31567399456E+03  0.42164407473E+03  0.25000000000E+03 0.  0.
    5000001    1    1    2    0    0 -0.27683141660E+01 -0.12500396535E+03  0.26873559675E+03  0.38775311202E+03  0.25000000000E+03 0.  0.
<mgrwt>
<rscale>  0 0.55999039E+03</rscale>
<asrwt>0</asrwt>
<pdfrwt beam="1">  1        2 0.10721591E+00 0.55999039E+03</pdfrwt>
<pdfrwt beam="2">  1       -2 0.17306738E-01 0.55999039E+03</pdfrwt>
<totfact> 0.11347736E+03</totfact>
</mgrwt>
</event>
<event>
 4    1  0.1773996E-005  0.7823952E+03  0.7818608E-02  0.9585855E-01
         -2   -1    0    0    0  501 -0.00000000000E+00  0.00000000000E+00  0.12991795611E+03  0.12991795614E+03  0.25500000000E-02 0. -1.
          2   -1    0    0  501    0  0.00000000000E+00 -0.00000000000E+00 -0.11779400810E+04  0.11779400810E+04  0.25500000000E-02 0.  1.
   -5000001    1    1    2    0    0  0.27068051012E+03 -0.12800894561E+03 -0.57363668029E+03  0.69369537240E+03  0.25000000000E+03 0.  0.
    5000001    1    1    2    0    0 -0.27068051012E+03  0.12800894561E+03 -0.47438544461E+03  0.61416266475E+03  0.25000000000E+03 0.  0.
<mgrwt>
<rscale>  0 0.78239521E+03</rscale>
<asrwt>0</asrwt>
<pdfrwt beam="1">  1        2 0.18122154E+00 0.78239521E+03</pdfrwt>
<pdfrwt beam="2">  1       -2 0.19987379E-01 0.78239521E+03</pdfrwt>
<totfact> 0.41985735E+02</totfact>
</mgrwt>
</event>
<event>
 4    1  0.1773996E-005  0.6091369E+03  0.7818608E-02  0.9886629E-01
          2   -1    0    0  501    0  0.00000000000E+00  0.00000000000E+00  0.10144887209E+04  0.10144887209E+04  0.25500000000E-02 0.  1.
         -2   -1    0    0    0  501 -0.00000000000E+00 -0.00000000000E+00 -0.91437141884E+02  0.91437141919E+02  0.25500000000E-02 0. -1.
   -5000001    1    1    2    0    0  0.84626610002E+02  0.13717193615E+03  0.34269110580E+03  0.45377857726E+03  0.25000000000E+03 0.  0.
    5000001    1    1    2    0    0 -0.84626610002E+02 -0.13717193615E+03  0.58036047317E+03  0.65214728551E+03  0.25000000000E+03 0.  0.
<mgrwt>
<rscale>  0 0.60913693E+03</rscale>
<asrwt>0</asrwt>
<pdfrwt beam="1">  1        2 0.15607519E+00 0.60913693E+03</pdfrwt>
<pdfrwt beam="2">  1       -2 0.14067252E-01 0.60913693E+03</pdfrwt>
<totfact> 0.97054990E+02</totfact>
</mgrwt>
</event>
<event>
 4    1  0.1773996E-005  0.9951193E+03  0.7818608E-02  0.9313914E-01
          2   -1    0    0  501    0  0.00000000000E+00  0.00000000000E+00  0.26631064112E+04  0.26631064112E+04  0.25500000000E-02 0.  1.
         -2   -1    0    0    0  501 -0.00000000000E+00 -0.00000000000E+00 -0.92961219806E+02  0.92961219841E+02  0.25500000000E-02 0. -1.
   -5000001    1    1    2    0    0  0.13256504368E+03  0.38584646301E+03  0.16629422271E+04  0.17304126197E+04  0.25000000000E+03 0.  0.
    5000001    1    1    2    0    0 -0.13256504368E+03 -0.38584646301E+03  0.90720296431E+03  0.10256550113E+04  0.25000000000E+03 0.  0.
<mgrwt>
<rscale>  0 0.99511933E+03</rscale>
<asrwt>0</asrwt>
<pdfrwt beam="1">  1        2 0.40970867E+00 0.99511933E+03</pdfrwt>
<pdfrwt beam="2">  1       -2 0.14301726E-01 0.99511933E+03</pdfrwt>
<totfact> 0.10789464E+02</totfact>
</mgrwt>
</event>
<event>
 4    1  0.1773996E-005  0.5525489E+03  0.7818608E-02  0.1000906E+00
         -2   -1    0    0    0  501 -0.00000000000E+00  0.00000000000E+00  0.23263941446E+03  0.23263941448E+03  0.25500000000E-02 0. -1.
          2   -1    0    0  501    0  0.00000000000E+00 -0.00000000000E+00 -0.32809388217E+03  0.32809388218E+03  0.25500000000E-02 0.  1.
   -5000001    1    1    2    0    0 -0.90366362411E+02  0.54207933072E+02  0.52279638130E+01  0.27135200583E+03  0.25000000000E+03 0.  0.
    5000001    1    1    2    0    0  0.90366362411E+02 -0.54207933072E+02 -0.10068243152E+03  0.28938129082E+03  0.25000000000E+03 0.  0.
<mgrwt>
<rscale>  0 0.55254889E+03</rscale>
<asrwt>0</asrwt>
<pdfrwt beam="1">  1        2 0.50475982E-01 0.55254889E+03</pdfrwt>
<pdfrwt beam="2">  1       -2 0.35790679E-01 0.55254889E+03</pdfrwt>
<totfact> 0.73293125E+02</totfact>
</mgrwt>
</event>
<event>
 4    1  0.1773996E-005  0.7111864E+03  0.7818608E-02  0.9698291E-01
          2   -1    0    0  501    0  0.00000000000E+00  0.00000000000E+00  0.12336998853E+03  0.12336998855E+03  0.25500000000E-02 0.  1.
         -2   -1    0    0    0  501 -0.00000000000E+00 -0.00000000000E+00 -0.10249375188E+04  0.10249375188E+04  0.25500000000E-02 0. -1.
   -5000001    1    1    2    0    0 -0.17849656995E+03 -0.17449894936E+03 -0.51608420531E+03  0.62542290954E+03  0.25000000000E+03 0.  0.
    5000001    1    1    2    0    0  0.17849656995E+03  0.17449894936E+03 -0.38548332497E+03  0.52288459783E+03  0.25000000000E+03 0.  0.
<mgrwt>
<rscale>  0 0.71118642E+03</rscale>
<asrwt>0</asrwt>
<pdfrwt beam="1">  1        2 0.18979999E-01 0.71118642E+03</pdfrwt>
<pdfrwt beam="2">  1       -2 0.15768269E+00 0.71118642E+03</pdfrwt>
<totfact> 0.80284280E+01</totfact>
</mgrwt>
</event>
<event>
 4    1  0.1773996E-005  0.6335474E+03  0.7818608E-02  0.9838151E-01
         -2   -1    0    0    0  501 -0.00000000000E+00  0.00000000000E+00  0.11394298890E+03  0.11394298893E+03  0.25500000000E-02 0. -1.
          2   -1    0    0  501    0  0.00000000000E+00 -0.00000000000E+00 -0.88066488837E+03  0.88066488838E+03  0.25500000000E-02 0.  1.
   -5000001    1    1    2    0    0 -0.26927300434E+02 -0.12823779007E+03 -0.60909735127E+03  0.67131929336E+03  0.25000000000E+03 0.  0.
    5000001    1    1    2    0    0  0.26927300434E+02  0.12823779007E+03 -0.15762454820E+03  0.32328858394E+03  0.25000000000E+03 0.  0.
<mgrwt>
<rscale>  0 0.63354744E+03</rscale>
<asrwt>0</asrwt>
<pdfrwt beam="1">  1        2 0.13548690E+00 0.63354744E+03</pdfrwt>
<pdfrwt beam="2">  1       -2 0.17529691E-01 0.63354744E+03</pdfrwt>
<totfact> 0.81655717E+02</totfact>
</mgrwt>
</event>
<event>
 4    1  0.1773996E-005  0.8493990E+03  0.7818608E-02  0.9491144E-01
          2   -1    0    0  501    0  0.00000000000E+00  0.00000000000E+00  0.79644530806E+03  0.79644530807E+03  0.25500000000E-02 0.  1.
         -2   -1    0    0    0  501 -0.00000000000E+00 -0.00000000000E+00 -0.22646835310E+03  0.22646835311E+03  0.25500000000E-02 0. -1.
   -5000001    1    1    2    0    0 -0.32537874316E+03  0.51258820795E+02  0.40156660131E+03  0.57641523965E+03  0.25000000000E+03 0.  0.
    5000001    1    1    2    0    0  0.32537874316E+03 -0.51258820795E+02  0.16841035365E+03  0.44649842153E+03  0.25000000000E+03 0.  0.
<mgrwt>
<rscale>  0 0.84939898E+03</rscale>
<asrwt>0</asrwt>
<pdfrwt beam="1">  1        2 0.12253005E+00 0.84939898E+03</pdfrwt>
<pdfrwt beam="2">  1       -2 0.34841285E-01 0.84939898E+03</pdfrwt>
<totfact> 0.26872320E+02</totfact>
</mgrwt>
</event>
<event>
 4    1  0.1773996E-005  0.7577893E+03  0.7818608E-02  0.9623209E-01
         -2   -1    0    0    0  501 -0.00000000000E+00  0.00000000000E+00  0.79932438711E+02  0.79932438752E+02  0.25500000000E-02 0.  1.
          2   -1    0    0  501    0  0.00000000000E+00 -0.00000000000E+00 -0.17960314428E+04  0.17960314428E+04  0.25500000000E-02 0. -1.
   -5000001    1    1    2    0    0 -0.63953511932E+02  0.20876134932E+03 -0.40569072608E+03  0.52417203081E+03  0.25000000000E+03 0.  0.
    5000001    1    1    2    0    0  0.63953511932E+02 -0.20876134932E+03 -0.13104082780E+04  0.13517918507E+04  0.25000000000E+03 0.  0.
<mgrwt>
<rscale>  0 0.75778935E+03</rscale>
<asrwt>0</asrwt>
<pdfrwt beam="1">  1        2 0.27631250E+00 0.75778935E+03</pdfrwt>
<pdfrwt beam="2">  1       -2 0.12297300E-01 0.75778935E+03</pdfrwt>
<totfact> 0.43151792E+02</totfact>
</mgrwt>
</event>
<event>
 4    1  0.1773996E-005  0.9273036E+03  0.7818608E-02  0.9392080E-01
          2   -1    0    0  501    0  0.00000000000E+00  0.00000000000E+00  0.13736921146E+04  0.13736921146E+04  0.25500000000E-02 0.  1.
         -2   -1    0    0    0  501 -0.00000000000E+00 -0.00000000000E+00 -0.15649286165E+03  0.15649286167E+03  0.25500000000E-02 0. -1.
   -5000001    1    1    2    0    0  0.25018640429E+03 -0.29037485250E+03  0.48553138919E+03  0.66719676389E+03  0.25000000000E+03 0.  0.
    5000001    1    1    2    0    0 -0.25018640429E+03  0.29037485250E+03  0.73166786376E+03  0.86298821238E+03  0.25000000000E+03 0.  0.
<mgrwt>
<rscale>  0 0.92730364E+03</rscale>
<asrwt>0</asrwt>
<pdfrwt beam="1">  1        2 0.21133724E+00 0.92730364E+03</pdfrwt>
<pdfrwt beam="2">  1       -2 0.24075825E-01 0.92730364E+03</pdfrwt>
<totfact> 0.23023686E+02</totfact>
</mgrwt>
</event>
<event>
 4    1  0.1773996E-005  0.9644636E+03  0.7818608E-02  0.9348403E-01
         -2   -1    0    0    0  501 -0.00000000000E+00  0.00000000000E+00  0.31855950114E+03  0.31855950115E+03  0.25500000000E-02 0. -1.
          2   -1    0    0  501    0  0.00000000000E+00 -0.00000000000E+00 -0.72999706076E+03  0.72999706077E+03  0.25500000000E-02 0.  1.
   -5000001    1    1    2    0    0  0.22905987924E+03  0.33029273145E+03 -0.30586901771E+03  0.56357570274E+03  0.25000000000E+03 0.  0.
    5000001    1    1    2    0    0 -0.22905987924E+03 -0.33029273145E+03 -0.10556854192E+03  0.48498085918E+03  0.25000000000E+03 0.  0.
<mgrwt>
<rscale>  0 0.96446358E+03</rscale>
<asrwt>0</asrwt>
<pdfrwt beam="1">  1        2 0.11230724E+00 0.96446358E+03</pdfrwt>
<pdfrwt beam="2">  1       -2 0.49009154E-01 0.96446358E+03</pdfrwt>
<totfact> 0.15310887E+02</totfact>
</mgrwt>
</event>
<event>
 4    1  0.1773996E-005  0.5968781E+03  0.7818608E-02  0.9911904E-01
          2   -1    0    0  501    0  0.00000000000E+00  0.00000000000E+00  0.15568461359E+03  0.15568461361E+03  0.25500000000E-02 0.  1.
         -2   -1    0    0    0  501 -0.00000000000E+00 -0.00000000000E+00 -0.57209158999E+03  0.57209158999E+03  0.25500000000E-02 0. -1.
   -5000001    1    1    2    0    0 -0.12046899044E+02 -0.13648170402E+03 -0.31584450603E+03  0.42547636279E+03  0.25000000000E+03 0.  0.
    5000001    1    1    2    0    0  0.12046899044E+02  0.13648170402E+03 -0.10056247037E+03  0.30229984081E+03  0.25000000000E+03 0.  0.
<mgrwt>
<rscale>  0 0.59687807E+03</rscale>
<asrwt>0</asrwt>
<pdfrwt beam="1">  1        2 0.23951479E-01 0.59687807E+03</pdfrwt>
<pdfrwt beam="2">  1       -2 0.88014090E-01 0.59687807E+03</pdfrwt>
<totfact> 0.25910496E+02</totfact>
</mgrwt>
</event>
<event>
 4    1  0.1773996E-005  0.5898138E+03  0.7818608E-02  0.9926767E-01
          2   -1    0    0  501    0  0.00000000000E+00  0.00000000000E+00  0.13284580425E+04  0.13284580425E+04  0.25500000000E-02 0. -1.
         -2   -1    0    0    0  501 -0.00000000000E+00 -0.00000000000E+00 -0.65466932682E+02  0.65466932732E+02  0.25500000000E-02 0.  1.
   -5000001    1    1    2    0    0 -0.11922204147E+03  0.85030229404E+02  0.76150104373E+03  0.81475632841E+03  0.25000000000E+03 0.  0.
    5000001    1    1    2    0    0  0.11922204147E+03 -0.85030229404E+02  0.50149006613E+03  0.57916864687E+03  0.25000000000E+03 0.  0.
<mgrwt>
<rscale>  0 0.58981378E+03</rscale>
<asrwt>0</asrwt>
<pdfrwt beam="1">  1        2 0.20437816E+00 0.58981378E+03</pdfrwt>
<pdfrwt beam="2">  1       -2 0.10071836E-01 0.58981378E+03</pdfrwt>
<totfact> 0.10954661E+03</totfact>
</mgrwt>
</event>
<event>
 4    1  0.1773996E-005  0.7364900E+03  0.7818608E-02  0.9656787E-01
          2   -1    0    0  501    0  0.00000000000E+00  0.00000000000E+00  0.45723547392E+04  0.45723547392E+04  0.25500000000E-02 0.  1.
         -2   -1    0    0    0  501 -0.00000000000E+00 -0.00000000000E+00 -0.29657450564E+02  0.29657450673E+02  0.25500000000E-02 0. -1.
   -5000001    1    1    2    0    0  0.13689030556E+01  0.26988161807E+03  0.23733408401E+04  0.24016837229E+04  0.25000000000E+03 0.  0.
    5000001    1    1    2    0    0 -0.13689030556E+01 -0.26988161807E+03  0.21693564486E+04  0.22003284670E+04  0.25000000000E+03 0.  0.
<mgrwt>
<rscale>  0 0.73649001E+03</rscale>
<asrwt>0</asrwt>
<pdfrwt beam="1">  1        2 0.70343884E+00 0.73649001E+03</pdfrwt>
<pdfrwt beam="2">  1       -2 0.45626870E-02 0.73649001E+03</pdfrwt>
<totfact> 0.28304719E+01</totfact>
</mgrwt>
</event>
<event>
 4    1  0.1773996E-005  0.6072512E+03  0.7818608E-02  0.9890475E-01
         -2   -1    0    0    0  501 -0.00000000000E+00  0.00000000000E+00  0.38578471996E+03  0.38578471996E+03  0.25500000000E-02 0. -1.
          2   -1    0    0  501    0  0.00000000000E+00 -0.00000000000E+00 -0.23896362636E+03  0.23896362637E+03  0.25500000000E-02 0.  1.
   -5000001    1    1    2    0    0 -0.94512820404E+02 -0.11290245662E+03  0.16548147905E+03  0.33401161333E+03  0.25000000000E+03 0.  0.
    5000001    1    1    2    0    0  0.94512820404E+02  0.11290245662E+03 -0.18660385456E+02  0.29073673300E+03  0.25000000000E+03 0.  0.
<mgrwt>
<rscale>  0 0.60725124E+03</rscale>
<asrwt>0</asrwt>
<pdfrwt beam="1">  1        2 0.36763635E-01 0.60725124E+03</pdfrwt>
<pdfrwt beam="2">  1       -2 0.59351495E-01 0.60725124E+03</pdfrwt>
<totfact> 0.37879352E+02</totfact>
</mgrwt>
</event>
<event>
 4    1  0.1773996E-005  0.1177903E+04  0.7818608E-02  0.9132421E-01
          2   -1    0    0  501    0  0.00000000000E+00  0.00000000000E+00  0.11739484481E+04  0.11739484481E+04  0.25500000000E-02 0.  1.
         -2   -1    0    0    0  501 -0.00000000000E+00 -0.00000000000E+00 -0.29546764645E+03  0.29546764646E+03  0.25500000000E-02 0. -1.
   -5000001    1    1    2    0    0  0.33131416965E+03  0.34365262688E+03  0.73575783447E+03  0.91197905566E+03  0.25000000000E+03 0.  0.
    5000001    1    1    2    0    0 -0.33131416965E+03 -0.34365262688E+03  0.14272296718E+03  0.55743703890E+03  0.25000000000E+03 0.  0.
<mgrwt>
<rscale>  0 0.11779029E+04</rscale>
<asrwt>0</asrwt>
<pdfrwt beam="1">  1        2 0.18060745E+00 0.11779029E+04</pdfrwt>
<pdfrwt beam="2">  1       -2 0.45456562E-01 0.11779029E+04</pdfrwt>
<totfact> 0.89006813E+01</totfact>
</mgrwt>
</event>
<event>
 4    1  0.1773996E-005  0.6694362E+03  0.7818608E-02  0.9770977E-01
         -2   -1    0    0    0  501 -0.00000000000E+00  0.00000000000E+00  0.27090496687E+03  0.27090496688E+03  0.25500000000E-02 0. -1.
          2   -1    0    0  501    0  0.00000000000E+00 -0.00000000000E+00 -0.41356280193E+03  0.41356280194E+03  0.25500000000E-02 0.  1.
   -5000001    1    1    2    0    0  0.21878239019E+03 -0.18833854762E+02 -0.34240903081E+02  0.33450394286E+03  0.25000000000E+03 0.  0.
    5000001    1    1    2    0    0 -0.21878239019E+03  0.18833854762E+02 -0.10841693198E+03  0.34996382596E+03  0.25000000000E+03 0.  0.
<mgrwt>
<rscale>  0 0.66943623E+03</rscale>
<asrwt>0</asrwt>
<pdfrwt beam="1">  1        2 0.63625046E-01 0.66943623E+03</pdfrwt>
<pdfrwt beam="2">  1       -2 0.41677687E-01 0.66943623E+03</pdfrwt>
<totfact> 0.42121257E+02</totfact>
</mgrwt>
</event>
<event>
 4    1  0.1773996E-005  0.8159707E+03  0.7818608E-02  0.9537184E-01
         -2   -1    0    0    0  501 -0.00000000000E+00  0.00000000000E+00  0.16511040921E+03  0.16511040923E+03  0.25500000000E-02 0. -1.
          2   -1    0    0  501    0  0.00000000000E+00 -0.00000000000E+00 -0.10081257076E+04  0.10081257076E+04  0.25500000000E-02 0.  1.
   -5000001    1    1    2    0    0  0.14499111084E+03  0.25975072248E+03 -0.60028158306E+03  0.71507400947E+03  0.25000000000E+03 0.  0.
    5000001    1    1    2    0    0 -0.14499111084E+03 -0.25975072248E+03 -0.24273371531E+03  0.45816210734E+03  0.25000000000E+03 0.  0.
<mgrwt>
<rscale>  0 0.81597071E+03</rscale>
<asrwt>0</asrwt>
<pdfrwt beam="1">  1        2 0.15509626E+00 0.81597071E+03</pdfrwt>
<pdfrwt beam="2">  1       -2 0.25401602E-01 0.81597071E+03</pdfrwt>
<totfact> 0.34803581E+02</totfact>
</mgrwt>
</event>
<event>
 4    1  0.1773996E-005  0.5761818E+03  0.7818608E-02  0.9956092E-01
         -2   -1    0    0    0  501 -0.00000000000E+00  0.00000000000E+00  0.33934878042E+02  0.33934878138E+02  0.25500000000E-02 0. -1.
          2   -1    0    0  501    0  0.00000000000E+00 -0.00000000000E+00 -0.24457538061E+04  0.24457538061E+04  0.25500000000E-02 0.  1.
   -5000001    1    1    2    0    0 -0.72673368774E+02 -0.11553386511E+03 -0.13918585614E+04  0.14207039620E+04  0.25000000000E+03 0.  0.
    5000001    1    1    2    0    0  0.72673368774E+02  0.11553386511E+03 -0.10199603666E+04  0.10589847222E+04  0.25000000000E+03 0.  0.
<mgrwt>
<rscale>  0 0.57618177E+03</rscale>
<asrwt>0</asrwt>
<pdfrwt beam="1">  1        2 0.37626968E+00 0.57618177E+03</pdfrwt>
<pdfrwt beam="2">  1       -2 0.52207524E-02 0.57618177E+03</pdfrwt>
<totfact> 0.75895773E+02</totfact>
</mgrwt>
</event>
<event>
 4    1  0.1773996E-005  0.5964083E+03  0.7818608E-02  0.9912886E-01
          2   -1    0    0  501    0  0.00000000000E+00  0.00000000000E+00  0.87049476425E+02  0.87049476463E+02  0.25500000000E-02 0.  1.
         -2   -1    0    0    0  501 -0.00000000000E+00 -0.00000000000E+00 -0.10215535501E+04  0.10215535501E+04  0.25500000000E-02 0. -1.
   -5000001    1    1    2    0    0  0.93694036595E+02  0.51381122532E+02 -0.69496142635E+03  0.74625061230E+03  0.25000000000E+03 0.  0.
    5000001    1    1    2    0    0 -0.93694036595E+02 -0.51381122532E+02 -0.23954264737E+03  0.36235241431E+03  0.25000000000E+03 0.  0.
<mgrwt>
<rscale>  0 0.59640826E+03</rscale>
<asrwt>0</asrwt>
<pdfrwt beam="1">  1        2 0.13392228E-01 0.59640826E+03</pdfrwt>
<pdfrwt beam="2">  1       -2 0.15716208E+00 0.59640826E+03</pdfrwt>
<totfact> 0.12401248E+02</totfact>
</mgrwt>
</event>
<event>
 4    1  0.1773996E-005  0.7346078E+03  0.7818608E-02  0.9659813E-01
          2   -1    0    0  501    0  0.00000000000E+00  0.00000000000E+00  0.89450706870E+02  0.89450706906E+02  0.25500000000E-02 0.  1.
         -2   -1    0    0    0  501 -0.00000000000E+00 -0.00000000000E+00 -0.15082292302E+04  0.15082292302E+04  0.25500000000E-02 0. -1.
   -5000001    1    1    2    0    0  0.21255019432E+03 -0.70084489513E+02 -0.38444560106E+03  0.51028211898E+03  0.25000000000E+03 0.  0.
    5000001    1    1    2    0    0 -0.21255019432E+03  0.70084489513E+02 -0.10343329223E+04  0.10873978181E+04  0.25000000000E+03 0.  0.
<mgrwt>
<rscale>  0 0.73460784E+03</rscale>
<asrwt>0</asrwt>
<pdfrwt beam="1">  1        2 0.13761648E-01 0.73460784E+03</pdfrwt>
<pdfrwt beam="2">  1       -2 0.23203525E+00 0.73460784E+03</pdfrwt>
<totfact> 0.37910719E+01</totfact>
</mgrwt>
</event>
<event>
 4    1  0.1773996E-005  0.6104238E+03  0.7818608E-02  0.9884013E-01
         -2   -1    0    0    0  501 -0.00000000000E+00  0.00000000000E+00  0.76668050771E+02  0.76668050814E+02  0.25500000000E-02 0.  1.
          2   -1    0    0  501    0  0.00000000000E+00 -0.00000000000E+00 -0.12150342057E+04  0.12150342057E+04  0.25500000000E-02 0. -1.
   -5000001    1    1    2    0    0  0.66545612265E+02  0.16157110651E+03 -0.54592904264E+03  0.62535754619E+03  0.25000000000E+03 0.  0.
    5000001    1    1    2    0    0 -0.66545612265E+02 -0.16157110651E+03 -0.59243711229E+03  0.66634471033E+03  0.25000000000E+03 0.  0.
<mgrwt>
<rscale>  0 0.61042380E+03</rscale>
<asrwt>0</asrwt>
<pdfrwt beam="1">  1        2 0.18692833E+00 0.61042380E+03</pdfrwt>
<pdfrwt beam="2">  1       -2 0.11795086E-01 0.61042380E+03</pdfrwt>
<totfact> 0.98307090E+02</totfact>
</mgrwt>
</event>
<event>
 4    1  0.1773996E-005  0.5416781E+03  0.7818608E-02  0.1003439E+00
         -2   -1    0    0    0  501 -0.00000000000E+00  0.00000000000E+00  0.65113342124E+02  0.65113342174E+02  0.25500000000E-02 0. -1.
          2   -1    0    0  501    0  0.00000000000E+00 -0.00000000000E+00 -0.11265555152E+04  0.11265555152E+04  0.25500000000E-02 0.  1.
   -5000001    1    1    2    0    0 -0.59471604731E+02 -0.79030603578E+02 -0.60272010946E+03  0.65996533122E+03  0.25000000000E+03 0.  0.
    5000001    1    1    2    0    0  0.59471604731E+02  0.79030603578E+02 -0.45872206360E+03  0.53170352613E+03  0.25000000000E+03 0.  0.
<mgrwt>
<rscale>  0 0.54167811E+03</rscale>
<asrwt>0</asrwt>
<pdfrwt beam="1">  1        2 0.17331622E+00 0.54167811E+03</pdfrwt>
<pdfrwt beam="2">  1       -2 0.10017438E-01 0.54167811E+03</pdfrwt>
<totfact> 0.14506964E+03</totfact>
</mgrwt>
</event>
<event>
 4    1  0.1773996E-005  0.6823559E+03  0.7818608E-02  0.9747891E-01
         -2   -1    0    0    0  501 -0.00000000000E+00  0.00000000000E+00  0.32721098640E+02  0.32721098739E+02  0.25500000000E-02 0. -1.
          2   -1    0    0  501    0  0.00000000000E+00 -0.00000000000E+00 -0.35574105464E+04  0.35574105464E+04  0.25500000000E-02 0.  1.
   -5000001    1    1    2    0    0  0.84452412064E+02 -0.13945866833E+03 -0.89268105112E+03  0.94125468876E+03  0.25000000000E+03 0.  0.
    5000001    1    1    2    0    0 -0.84452412064E+02  0.13945866833E+03 -0.26320083966E+04  0.26488769563E+04  0.25000000000E+03 0.  0.
<mgrwt>
<rscale>  0 0.68235586E+03</rscale>
<asrwt>0</asrwt>
<pdfrwt beam="1">  1        2 0.54729363E+00 0.68235586E+03</pdfrwt>
<pdfrwt beam="2">  1       -2 0.50340180E-02 0.68235586E+03</pdfrwt>
<totfact> 0.16477226E+02</totfact>
</mgrwt>
</event>
<event>
 4    1  0.1773996E-005  0.6404558E+03  0.7818608E-02  0.9824855E-01
         -2   -1    0    0    0  501 -0.00000000000E+00  0.00000000000E+00  0.58922798897E+03  0.58922798898E+03  0.25500000000E-02 0. -1.
          2   -1    0    0  501    0  0.00000000000E+00 -0.00000000000E+00 -0.17403436146E+03  0.17403436148E+03  0.25500000000E-02 0.  1.
   -5000001    1    1    2    0    0  0.11712171015E+03 -0.77379300841E+02  0.37627948840E+02  0.28917280944E+03  0.25000000000E+03 0.  0.
    5000001    1    1    2    0    0 -0.11712171015E+03  0.77379300841E+02  0.37756567867E+03  0.47408954101E+03  0.25000000000E+03 0.  0.
<mgrwt>
<rscale>  0 0.64045583E+03</rscale>
<asrwt>0</asrwt>
<pdfrwt beam="1">  1        2 0.26774518E-01 0.64045583E+03</pdfrwt>
<pdfrwt beam="2">  1       -2 0.90650459E-01 0.64045583E+03</pdfrwt>
<totfact> 0.21289439E+02</totfact>
</mgrwt>
</event>
<event>
 4    1  0.1773996E-005  0.5850436E+03  0.7818608E-02  0.9936931E-01
         -2   -1    0    0    0  501 -0.00000000000E+00  0.00000000000E+00  0.73448700619E+02  0.73448700663E+02  0.25500000000E-02 0. -1.
          2   -1    0    0  501    0  0.00000000000E+00 -0.00000000000E+00 -0.11650173497E+04  0.11650173497E+04  0.25500000000E-02 0.  1.
   -5000001    1    1    2    0    0 -0.15101580526E+03 -0.15801971373E+02 -0.55357225598E+03  0.62609721157E+03  0.25000000000E+03 0.  0.
    5000001    1    1    2    0    0  0.15101580526E+03  0.15801971373E+02 -0.53799639306E+03  0.61236883876E+03  0.25000000000E+03 0.  0.
<mgrwt>
<rscale>  0 0.58504362E+03</rscale>
<asrwt>0</asrwt>
<pdfrwt beam="1">  1        2 0.17923343E+00 0.58504362E+03</pdfrwt>
<pdfrwt beam="2">  1       -2 0.11299801E-01 0.58504362E+03</pdfrwt>
<totfact> 0.11297663E+03</totfact>
</mgrwt>
</event>
<event>
 4    1  0.1773996E-005  0.7046595E+03  0.7818608E-02  0.9709297E-01
          2   -1    0    0  501    0  0.00000000000E+00  0.00000000000E+00  0.16344759797E+03  0.16344759799E+03  0.25500000000E-02 0.  1.
         -2   -1    0    0    0  501 -0.00000000000E+00 -0.00000000000E+00 -0.75948663165E+03  0.75948663165E+03  0.25500000000E-02 0. -1.
   -5000001    1    1    2    0    0 -0.52272407732E+02  0.14859605852E+03 -0.54935362526E+03  0.62378089006E+03  0.25000000000E+03 0.  0.
    5000001    1    1    2    0    0  0.52272407732E+02 -0.14859605852E+03 -0.46685408416E+02  0.29915333957E+03  0.25000000000E+03 0.  0.
<mgrwt>
<rscale>  0 0.70465954E+03</rscale>
<asrwt>0</asrwt>
<pdfrwt beam="1">  1        2 0.25145785E-01 0.70465954E+03</pdfrwt>
<pdfrwt beam="2">  1       -2 0.11684409E+00 0.70465954E+03</pdfrwt>
<totfact> 0.12478176E+02</totfact>
</mgrwt>
</event>
<event>
 4    1  0.1773996E-005  0.9081962E+03  0.7818608E-02  0.9415393E-01
         -2   -1    0    0    0  501 -0.00000000000E+00  0.00000000000E+00  0.19985414050E+03  0.19985414052E+03  0.25500000000E-02 0. -1.
          2   -1    0    0  501    0  0.00000000000E+00 -0.00000000000E+00 -0.10317779772E+04  0.10317779772E+04  0.25500000000E-02 0.  1.
   -5000001    1    1    2    0    0  0.35473206598E+03 -0.10820306141E+03 -0.52241906707E+03  0.68772408913E+03  0.25000000000E+03 0.  0.
    5000001    1    1    2    0    0 -0.35473206598E+03  0.10820306141E+03 -0.30950476964E+03  0.54390802859E+03  0.25000000000E+03 0.  0.
<mgrwt>
<rscale>  0 0.90819624E+03</rscale>
<asrwt>0</asrwt>
<pdfrwt beam="1">  1        2 0.15873507E+00 0.90819624E+03</pdfrwt>
<pdfrwt beam="2">  1       -2 0.30746791E-01 0.90819624E+03</pdfrwt>
<totfact> 0.23560694E+02</totfact>
</mgrwt>
</event>
<event>
 4    1  0.1773996E-005  0.1110977E+04  0.7818608E-02  0.9194559E-01
          2   -1    0    0  501    0  0.00000000000E+00  0.00000000000E+00  0.12211970494E+04  0.12211970494E+04  0.25500000000E-02 0.  1.
         -2   -1    0    0    0  501 -0.00000000000E+00 -0.00000000000E+00 -0.25267602181E+03  0.25267602182E+03  0.25500000000E-02 0. -1.
   -5000001    1    1    2    0    0  0.30547951004E+03  0.34138584674E+03  0.73669029146E+03  0.90281482760E+03  0.25000000000E+03 0.  0.
    5000001    1    1    2    0    0 -0.30547951004E+03 -0.34138584674E+03  0.23183073615E+03  0.57105824365E+03  0.25000000000E+03 0.  0.
<mgrwt>
<rscale>  0 0.11109765E+04</rscale>
<asrwt>0</asrwt>
<pdfrwt beam="1">  1        2 0.18787647E+00 0.11109765E+04</pdfrwt>
<pdfrwt beam="2">  1       -2 0.38873235E-01 0.11109765E+04</pdfrwt>
<totfact> 0.11406793E+02</totfact>
</mgrwt>
</event>
<event>
 4    1  0.1773996E-005  0.5519423E+03  0.7818608E-02  0.1001045E+00
         -2   -1    0    0    0  501 -0.00000000000E+00  0.00000000000E+00  0.16790757891E+03  0.16790757893E+03  0.25500000000E-02 0. -1.
          2   -1    0    0  501    0  0.00000000000E+00 -0.00000000000E+00 -0.45358326909E+03  0.45358326909E+03  0.25500000000E-02 0.  1.
   -5000001    1    1    2    0    0  0.87614309291E+02 -0.65415865643E+02 -0.18932660641E+03  0.33211453832E+03  0.25000000000E+03 0.  0.
    5000001    1    1    2    0    0 -0.87614309291E+02  0.65415865643E+02 -0.96349083771E+02  0.28937630970E+03  0.25000000000E+03 0.  0.
<mgrwt>
<rscale>  0 0.55194227E+03</rscale>
<asrwt>0</asrwt>
<pdfrwt beam="1">  1        2 0.69782041E-01 0.55194227E+03</pdfrwt>
<pdfrwt beam="2">  1       -2 0.25831935E-01 0.55194227E+03</pdfrwt>
<totfact> 0.93384319E+02</totfact>
</mgrwt>
</event>
<event>
 4    1  0.1773996E-005  0.5936072E+03  0.7818608E-02  0.9918758E-01
          2   -1    0    0  501    0  0.00000000000E+00  0.00000000000E+00  0.57903241325E+03  0.57903241325E+03  0.25500000000E-02 0.  1.
         -2   -1    0    0    0  501 -0.00000000000E+00 -0.00000000000E+00 -0.15213722822E+03  0.15213722824E+03  0.25500000000E-02 0. -1.
   -5000001    1    1    2    0    0 -0.12931706515E+03  0.10035142108E+02  0.98105313028E+02  0.29824194852E+03  0.25000000000E+03 0.  0.
    5000001    1    1    2    0    0  0.12931706515E+03 -0.10035142108E+02  0.32878987200E+03  0.43292769297E+03  0.25000000000E+03 0.  0.
<mgrwt>
<rscale>  0 0.59360723E+03</rscale>
<asrwt>0</asrwt>
<pdfrwt beam="1">  1        2 0.89081912E-01 0.59360723E+03</pdfrwt>
<pdfrwt beam="2">  1       -2 0.23405727E-01 0.59360723E+03</pdfrwt>
<totfact> 0.83949244E+02</totfact>
</mgrwt>
</event>
<event>
 4    1  0.1773996E-005  0.7993114E+03  0.7818608E-02  0.9561014E-01
         -2   -1    0    0    0  501 -0.00000000000E+00  0.00000000000E+00  0.17527012594E+03  0.17527012596E+03  0.25500000000E-02 0. -1.
          2   -1    0    0  501    0  0.00000000000E+00 -0.00000000000E+00 -0.91130568173E+03  0.91130568173E+03  0.25500000000E-02 0.  1.
   -5000001    1    1    2    0    0 -0.20002413428E+03  0.21966303493E+03 -0.49671660332E+03  0.63046719758E+03  0.25000000000E+03 0.  0.
    5000001    1    1    2    0    0  0.20002413428E+03 -0.21966303493E+03 -0.23931895247E+03  0.45610861011E+03  0.25000000000E+03 0.  0.
<mgrwt>
<rscale>  0 0.79931136E+03</rscale>
<asrwt>0</asrwt>
<pdfrwt beam="1">  1        2 0.14020087E+00 0.79931136E+03</pdfrwt>
<pdfrwt beam="2">  1       -2 0.26964635E-01 0.79931136E+03</pdfrwt>
<totfact> 0.36139656E+02</totfact>
</mgrwt>
</event>
<event>
 4    1  0.1773996E-005  0.9390765E+03  0.7818608E-02  0.9378010E-01
         -2   -1    0    0    0  501 -0.00000000000E+00  0.00000000000E+00  0.18855572528E+03  0.18855572530E+03  0.25500000000E-02 0. -1.
          2   -1    0    0  501    0  0.00000000000E+00 -0.00000000000E+00 -0.11692360998E+04  0.11692360998E+04  0.25500000000E-02 0.  1.
   -5000001    1    1    2    0    0  0.35345912293E+03  0.26054632056E+02 -0.23026675897E+03  0.49105496202E+03  0.25000000000E+03 0.  0.
    5000001    1    1    2    0    0 -0.35345912293E+03 -0.26054632056E+02 -0.75041361559E+03  0.86673686313E+03  0.25000000000E+03 0.  0.
<mgrwt>
<rscale>  0 0.93907648E+03</rscale>
<asrwt>0</asrwt>
<pdfrwt beam="1">  1        2 0.17988247E+00 0.93907648E+03</pdfrwt>
<pdfrwt beam="2">  1       -2 0.29008574E-01 0.93907648E+03</pdfrwt>
<totfact> 0.21568366E+02</totfact>
</mgrwt>
</event>
<event>
 4    1  0.1773996E-005  0.7353739E+03  0.7818608E-02  0.9658580E-01
         -2   -1    0    0    0  501 -0.00000000000E+00  0.00000000000E+00  0.15920317174E+03  0.15920317176E+03  0.25500000000E-02 0. -1.
          2   -1    0    0  501    0  0.00000000000E+00 -0.00000000000E+00 -0.84918972264E+03  0.84918972264E+03  0.25500000000E-02 0.  1.
   -5000001    1    1    2    0    0  0.11975635176E+03  0.23050925025E+03 -0.24594272155E+03  0.43642172325E+03  0.25000000000E+03 0.  0.
    5000001    1    1    2    0    0 -0.11975635176E+03 -0.23050925025E+03 -0.44404382935E+03  0.57197117115E+03  0.25000000000E+03 0.  0.
<mgrwt>
<rscale>  0 0.73537391E+03</rscale>
<asrwt>0</asrwt>
<pdfrwt beam="1">  1        2 0.13064457E+00 0.73537391E+03</pdfrwt>
<pdfrwt beam="2">  1       -2 0.24492796E-01 0.73537391E+03</pdfrwt>
<totfact> 0.47541576E+02</totfact>
</mgrwt>
</event>
<event>
 4    1  0.1773996E-005  0.8694320E+03  0.7818608E-02  0.9464621E-01
         -2   -1    0    0    0  501 -0.00000000000E+00  0.00000000000E+00  0.19502297625E+03  0.19502297627E+03  0.25500000000E-02 0. -1.
          2   -1    0    0  501    0  0.00000000000E+00 -0.00000000000E+00 -0.96900376730E+03  0.96900376730E+03  0.25500000000E-02 0.  1.
   -5000001    1    1    2    0    0  0.19878361317E+03  0.14115125031E+03 -0.73364134502E+03  0.81250736824E+03  0.25000000000E+03 0.  0.
    5000001    1    1    2    0    0 -0.19878361317E+03 -0.14115125031E+03 -0.40339446022E+02  0.35151937533E+03  0.25000000000E+03 0.  0.
<mgrwt>
<rscale>  0 0.86943200E+03</rscale>
<asrwt>0</asrwt>
<pdfrwt beam="1">  1        2 0.14907750E+00 0.86943200E+03</pdfrwt>
<pdfrwt beam="2">  1       -2 0.30003535E-01 0.86943200E+03</pdfrwt>
<totfact> 0.27106450E+02</totfact>
</mgrwt>
</event>
<event>
 4    1  0.1773996E-005  0.5425229E+03  0.7818608E-02  0.1003240E+00
          2   -1    0    0  501    0  0.00000000000E+00  0.00000000000E+00  0.14733883636E+03  0.14733883638E+03  0.25500000000E-02 0.  1.
         -2   -1    0    0    0  501 -0.00000000000E+00 -0.00000000000E+00 -0.49941200293E+03  0.49941200294E+03  0.25500000000E-02 0. -1.
   -5000001    1    1    2    0    0  0.47279356909E+02 -0.60701647449E+02 -0.26169295823E+03  0.37000436751E+03  0.25000000000E+03 0.  0.
    5000001    1    1    2    0    0 -0.47279356909E+02  0.60701647449E+02 -0.90380208343E+02  0.27674647180E+03  0.25000000000E+03 0.  0.
<mgrwt>
<rscale>  0 0.54252293E+03</rscale>
<asrwt>0</asrwt>
<pdfrwt beam="1">  1        2 0.22667513E-01 0.54252293E+03</pdfrwt>
<pdfrwt beam="2">  1       -2 0.76832615E-01 0.54252293E+03</pdfrwt>
<totfact> 0.37524687E+02</totfact>
</mgrwt>
</event>
<event>
 4    1  0.1773996E-005  0.1051984E+04  0.7818608E-02  0.9253298E-01
          2   -1    0    0  501    0  0.00000000000E+00  0.00000000000E+00  0.30630850453E+04  0.30630850453E+04  0.25500000000E-02 0.  1.
         -2   -1    0    0    0  501 -0.00000000000E+00 -0.00000000000E+00 -0.90323170263E+02  0.90323170299E+02  0.25500000000E-02 0. -1.
   -5000001    1    1    2    0    0  0.41587088614E+03  0.15609610546E+01  0.87781624224E+03  0.10030016878E+04  0.25000000000E+03 0.  0.
    5000001    1    1    2    0    0 -0.41587088614E+03 -0.15609610546E+01  0.20949456328E+04  0.21504065278E+04  0.25000000000E+03 0.  0.
<mgrwt>
<rscale>  0 0.10519839E+04</rscale>
<asrwt>0</asrwt>
<pdfrwt beam="1">  1        2 0.47124380E+00 0.10519839E+04</pdfrwt>
<pdfrwt beam="2">  1       -2 0.13895874E-01 0.10519839E+04</pdfrwt>
<totfact> 0.64644333E+01</totfact>
</mgrwt>
</event>
<event>
 4    1  0.1773996E-005  0.8746536E+03  0.7818608E-02  0.9457832E-01
          2   -1    0    0  501    0  0.00000000000E+00  0.00000000000E+00  0.13330890432E+04  0.13330890432E+04  0.25500000000E-02 0.  1.
         -2   -1    0    0    0  501 -0.00000000000E+00 -0.00000000000E+00 -0.14346733315E+03  0.14346733318E+03  0.25500000000E-02 0. -1.
   -5000001    1    1    2    0    0 -0.22398586048E+03 -0.22659176373E+03  0.31618118776E+03  0.51379376853E+03  0.25000000000E+03 0.  0.
    5000001    1    1    2    0    0  0.22398586048E+03  0.22659176373E+03  0.87344052224E+03  0.96276260780E+03  0.25000000000E+03 0.  0.
<mgrwt>
<rscale>  0 0.87465360E+03</rscale>
<asrwt>0</asrwt>
<pdfrwt beam="1">  1        2 0.20509062E+00 0.87465360E+03</pdfrwt>
<pdfrwt beam="2">  1       -2 0.22071898E-01 0.87465360E+03</pdfrwt>
<totfact> 0.28460626E+02</totfact>
</mgrwt>
</event>
<event>
 4    1  0.1773996E-005  0.6490092E+03  0.7818608E-02  0.9808640E-01
         -2   -1    0    0    0  501 -0.00000000000E+00  0.00000000000E+00  0.16736645926E+03  0.16736645928E+03  0.25500000000E-02 0. -1.
          2   -1    0    0  501    0  0.00000000000E+00 -0.00000000000E+00 -0.62917770520E+03  0.62917770521E+03  0.25500000000E-02 0.  1.
   -5000001    1    1    2    0    0 -0.15663425189E+03  0.12479697216E+03 -0.29461625516E+03  0.43520950235E+03  0.25000000000E+03 0.  0.
    5000001    1    1    2    0    0  0.15663425189E+03 -0.12479697216E+03 -0.16719499078E+03  0.36133466215E+03  0.25000000000E+03 0.  0.
<mgrwt>
<rscale>  0 0.64900923E+03</rscale>
<asrwt>0</asrwt>
<pdfrwt beam="1">  1        2 0.96796569E-01 0.64900923E+03</pdfrwt>
<pdfrwt beam="2">  1       -2 0.25748686E-01 0.64900923E+03</pdfrwt>
<totfact> 0.63953035E+02</totfact>
</mgrwt>
</event>
<event>
 4    1  0.1773996E-005  0.6496646E+03  0.7818608E-02  0.9807409E-01
         -2   -1    0    0    0  501 -0.00000000000E+00  0.00000000000E+00  0.12916322240E+03  0.12916322243E+03  0.25500000000E-02 0. -1.
          2   -1    0    0  501    0  0.00000000000E+00 -0.00000000000E+00 -0.81692006219E+03  0.81692006220E+03  0.25500000000E-02 0.  1.
   -5000001    1    1    2    0    0 -0.19878754143E+03  0.58855501012E+02 -0.33519304496E+03  0.46672779435E+03  0.25000000000E+03 0.  0.
    5000001    1    1    2    0    0  0.19878754143E+03 -0.58855501012E+02 -0.35256379483E+03  0.47935549027E+03  0.25000000000E+03 0.  0.
<mgrwt>
<rscale>  0 0.64966461E+03</rscale>
<asrwt>0</asrwt>
<pdfrwt beam="1">  1        2 0.12568001E+00 0.64966461E+03</pdfrwt>
<pdfrwt beam="2">  1       -2 0.19871266E-01 0.64966461E+03</pdfrwt>
<totfact> 0.72723751E+02</totfact>
</mgrwt>
</event>
<event>
 4    1  0.1773996E-005  0.6613731E+03  0.7818608E-02  0.9785669E-01
          2   -1    0    0  501    0  0.00000000000E+00  0.00000000000E+00  0.83184274918E+03  0.83184274918E+03  0.25500000000E-02 0.  1.
         -2   -1    0    0    0  501 -0.00000000000E+00 -0.00000000000E+00 -0.13145945976E+03  0.13145945978E+03  0.25500000000E-02 0. -1.
   -5000001    1    1    2    0    0  0.92126799383E+02  0.11843715288E+03  0.12296124957E+03  0.31643984459E+03  0.25000000000E+03 0.  0.
    5000001    1    1    2    0    0 -0.92126799383E+02 -0.11843715288E+03  0.57742203985E+03  0.64686236438E+03  0.25000000000E+03 0.  0.
<mgrwt>
<rscale>  0 0.66137311E+03</rscale>
<asrwt>0</asrwt>
<pdfrwt beam="1">  1        2 0.12797581E+00 0.66137311E+03</pdfrwt>
<pdfrwt beam="2">  1       -2 0.20224533E-01 0.66137311E+03</pdfrwt>
<totfact> 0.68812265E+02</totfact>
</mgrwt>
</event>
<event>
 4    1  0.1773996E-005  0.7474648E+03  0.7818608E-02  0.9639336E-01
         -2   -1    0    0    0  501 -0.00000000000E+00  0.00000000000E+00  0.21714591409E+03  0.21714591411E+03  0.25500000000E-02 0. -1.
          2   -1    0    0  501    0  0.00000000000E+00 -0.00000000000E+00 -0.64323533478E+03  0.64323533479E+03  0.25500000000E-02 0.  1.
   -5000001    1    1    2    0    0 -0.99594078040E+02 -0.15015849470E+03 -0.45643286768E+03  0.55072453786E+03  0.25000000000E+03 0.  0.
    5000001    1    1    2    0    0  0.99594078040E+02  0.15015849470E+03  0.30343446984E+02  0.30965671103E+03  0.25000000000E+03 0.  0.
<mgrwt>
<rscale>  0 0.74746485E+03</rscale>
<asrwt>0</asrwt>
<pdfrwt beam="1">  1        2 0.98959281E-01 0.74746485E+03</pdfrwt>
<pdfrwt beam="2">  1       -2 0.33407064E-01 0.74746485E+03</pdfrwt>
<totfact> 0.38369307E+02</totfact>
</mgrwt>
</event>
<event>
 4    1  0.1773996E-005  0.5149101E+03  0.7818608E-02  0.1009959E+00
          2   -1    0    0  501    0  0.00000000000E+00  0.00000000000E+00  0.11125227065E+04  0.11125227065E+04  0.25500000000E-02 0.  1.
         -2   -1    0    0    0  501 -0.00000000000E+00 -0.00000000000E+00 -0.59579089596E+02  0.59579089650E+02  0.25500000000E-02 0. -1.
   -5000001    1    1    2    0    0 -0.48981258355E+02  0.24678328599E+02  0.46310547102E+03  0.52912650743E+03  0.25000000000E+03 0.  0.
    5000001    1    1    2    0    0  0.48981258355E+02 -0.24678328599E+02  0.58983814587E+03  0.64297528872E+03  0.25000000000E+03 0.  0.
<mgrwt>
<rscale>  0 0.51491005E+03</rscale>
<asrwt>0</asrwt>
<pdfrwt beam="1">  1        2 0.17115736E+00 0.51491005E+03</pdfrwt>
<pdfrwt beam="2">  1       -2 0.91660127E-02 0.51491005E+03</pdfrwt>
<totfact> 0.17077121E+03</totfact>
</mgrwt>
</event>
<event>
 4    1  0.1773996E-005  0.8378879E+03  0.7818608E-02  0.9506739E-01
         -2   -1    0    0    0  501 -0.00000000000E+00  0.00000000000E+00  0.19085860659E+03  0.19085860661E+03  0.25500000000E-02 0. -1.
          2   -1    0    0  501    0  0.00000000000E+00 -0.00000000000E+00 -0.91960242619E+03  0.91960242619E+03  0.25500000000E-02 0.  1.
   -5000001    1    1    2    0    0 -0.26483484881E+03  0.16214481063E+03 -0.19369176415E+03  0.44322109185E+03  0.25000000000E+03 0.  0.
    5000001    1    1    2    0    0  0.26483484881E+03 -0.16214481063E+03 -0.53505205545E+03  0.66723994095E+03  0.25000000000E+03 0.  0.
<mgrwt>
<rscale>  0 0.83788791E+03</rscale>
<asrwt>0</asrwt>
<pdfrwt beam="1">  1        2 0.14147729E+00 0.83788791E+03</pdfrwt>
<pdfrwt beam="2">  1       -2 0.29362863E-01 0.83788791E+03</pdfrwt>
<totfact> 0.30453969E+02</totfact>
</mgrwt>
</event>
<event>
 4    1  0.1773996E-005  0.7826545E+03  0.7818608E-02  0.9585469E-01
          2   -1    0    0  501    0  0.00000000000E+00  0.00000000000E+00  0.41105976555E+03  0.41105976556E+03  0.25500000000E-02 0.  1.
         -2   -1    0    0    0  501 -0.00000000000E+00 -0.00000000000E+00 -0.37254197426E+03  0.37254197427E+03  0.25500000000E-02 0. -1.
   -5000001    1    1    2    0    0  0.29890135689E+03  0.99148513704E+01 -0.15376196635E+02  0.39009838868E+03  0.25000000000E+03 0.  0.
    5000001    1    1    2    0    0 -0.29890135689E+03 -0.99148513704E+01  0.53893987928E+02  0.39350335114E+03  0.25000000000E+03 0.  0.
<mgrwt>
<rscale>  0 0.78265450E+03</rscale>
<asrwt>0</asrwt>
<pdfrwt beam="1">  1        2 0.63239964E-01 0.78265450E+03</pdfrwt>
<pdfrwt beam="2">  1       -2 0.57314150E-01 0.78265450E+03</pdfrwt>
<totfact> 0.22168980E+02</totfact>
</mgrwt>
</event>
<event>
 4    1  0.1773996E-005  0.6629928E+03  0.7818608E-02  0.9782700E-01
         -2   -1    0    0    0  501 -0.00000000000E+00  0.00000000000E+00  0.29168812541E+03  0.29168812542E+03  0.25500000000E-02 0. -1.
          2   -1    0    0  501    0  0.00000000000E+00 -0.00000000000E+00 -0.37673755680E+03  0.37673755680E+03  0.25500000000E-02 0.  1.
   -5000001    1    1    2    0    0 -0.17628839971E+03  0.12749087839E+03 -0.50225880979E+02  0.33519272526E+03  0.25000000000E+03 0.  0.
    5000001    1    1    2    0    0  0.17628839971E+03 -0.12749087839E+03 -0.34823550410E+02  0.33323295697E+03  0.25000000000E+03 0.  0.
<mgrwt>
<rscale>  0 0.66299283E+03</rscale>
<asrwt>0</asrwt>
<pdfrwt beam="1">  1        2 0.57959624E-01 0.66299283E+03</pdfrwt>
<pdfrwt beam="2">  1       -2 0.44875096E-01 0.66299283E+03</pdfrwt>
<totfact> 0.40419429E+02</totfact>
</mgrwt>
</event>
<event>
 4    1  0.1773996E-005  0.1044976E+04  0.7818608E-02  0.9260547E-01
         -2   -1    0    0    0  501 -0.00000000000E+00  0.00000000000E+00  0.42294414274E+03  0.42294414275E+03  0.25500000000E-02 0. -1.
          2   -1    0    0  501    0  0.00000000000E+00 -0.00000000000E+00 -0.64546027242E+03  0.64546027243E+03  0.25500000000E-02 0.  1.
   -5000001    1    1    2    0    0 -0.35917520486E+03  0.27284490644E+03 -0.25457145480E+02  0.51633248688E+03  0.25000000000E+03 0.  0.
    5000001    1    1    2    0    0  0.35917520486E+03 -0.27284490644E+03 -0.19705898420E+03  0.55207192829E+03  0.25000000000E+03 0.  0.
<mgrwt>
<rscale>  0 0.10449759E+04</rscale>
<asrwt>0</asrwt>
<pdfrwt beam="1">  1        2 0.99301581E-01 0.10449759E+04</pdfrwt>
<pdfrwt beam="2">  1       -2 0.65068329E-01 0.10449759E+04</pdfrwt>
<totfact> 0.98458160E+01</totfact>
</mgrwt>
</event>
<event>
 4    1  0.1773996E-005  0.6923534E+03  0.7818608E-02  0.9730399E-01
          2   -1    0    0  501    0  0.00000000000E+00  0.00000000000E+00  0.48012885821E+03  0.48012885821E+03  0.25500000000E-02 0.  1.
         -2   -1    0    0    0  501 -0.00000000000E+00 -0.00000000000E+00 -0.24959615901E+03  0.24959615902E+03  0.25500000000E-02 0. -1.
   -5000001    1    1    2    0    0  0.12675324076E+03  0.20218792138E+03  0.13613348941E+03  0.37145479743E+03  0.25000000000E+03 0.  0.
    5000001    1    1    2    0    0 -0.12675324076E+03 -0.20218792138E+03  0.94399209786E+02  0.35827021981E+03  0.25000000000E+03 0.  0.
<mgrwt>
<rscale>  0 0.69235343E+03</rscale>
<asrwt>0</asrwt>
<pdfrwt beam="1">  1        2 0.73865978E-01 0.69235343E+03</pdfrwt>
<pdfrwt beam="2">  1       -2 0.38399409E-01 0.69235343E+03</pdfrwt>
<totfact> 0.41666426E+02</totfact>
</mgrwt>
</event>
<event>
 4    1  0.1773996E-005  0.8312195E+03  0.7818608E-02  0.9515896E-01
          2   -1    0    0  501    0  0.00000000000E+00  0.00000000000E+00  0.24832776879E+04  0.24832776879E+04  0.25500000000E-02 0.  1.
         -2   -1    0    0    0  501 -0.00000000000E+00 -0.00000000000E+00 -0.69557853409E+02  0.69557853456E+02  0.25500000000E-02 0. -1.
   -5000001    1    1    2    0    0  0.26482293120E+03 -0.19286517954E+03  0.13723428850E+04  0.14328828132E+04  0.25000000000E+03 0.  0.
    5000001    1    1    2    0    0 -0.26482293120E+03  0.19286517954E+03  0.10413769495E+04  0.11199527282E+04  0.25000000000E+03 0.  0.
<mgrwt>
<rscale>  0 0.83121950E+03</rscale>
<asrwt>0</asrwt>
<pdfrwt beam="1">  1        2 0.38204270E+00 0.83121950E+03</pdfrwt>
<pdfrwt beam="2">  1       -2 0.10701209E-01 0.83121950E+03</pdfrwt>
<totfact> 0.22519252E+02</totfact>
</mgrwt>
</event>
<event>
 4    1  0.1773996E-005  0.7024208E+03  0.7818608E-02  0.9713101E-01
          2   -1    0    0  501    0  0.00000000000E+00  0.00000000000E+00  0.27230682880E+03  0.27230682881E+03  0.25500000000E-02 0.  1.
         -2   -1    0    0    0  501 -0.00000000000E+00 -0.00000000000E+00 -0.45297704735E+03  0.45297704735E+03  0.25500000000E-02 0. -1.
   -5000001    1    1    2    0    0  0.77288635739E+01 -0.23608073813E+03 -0.16923178294E+02  0.34435482313E+03  0.25000000000E+03 0.  0.
    5000001    1    1    2    0    0 -0.77288635739E+01  0.23608073813E+03 -0.16374704025E+03  0.38092905303E+03  0.25000000000E+03 0.  0.
<mgrwt>
<rscale>  0 0.70242079E+03</rscale>
<asrwt>0</asrwt>
<pdfrwt beam="1">  1        2 0.41893358E-01 0.70242079E+03</pdfrwt>
<pdfrwt beam="2">  1       -2 0.69688777E-01 0.70242079E+03</pdfrwt>
<totfact> 0.23186874E+02</totfact>
</mgrwt>
</event>
<event>
 4    1  0.1773996E-005  0.7662044E+03  0.7818608E-02  0.9610266E-01
         -2   -1    0    0    0  501 -0.00000000000E+00  0.00000000000E+00  0.66321783336E+02  0.66321783385E+02  0.25500000000E-02 0. -1.
          2   -1    0    0  501    0  0.00000000000E+00 -0.00000000000E+00 -0.22129578750E+04  0.22129578750E+04  0.25500000000E-02 0.  1.
   -5000001    1    1    2    0    0  0.16353276199E+03  0.23357807913E+03 -0.12353166948E+04  0.12922109038E+04  0.25000000000E+03 0.  0.
    5000001    1    1    2    0    0 -0.16353276199E+03 -0.23357807913E+03 -0.91131939682E+03  0.98706875460E+03  0.25000000000E+03 0.  0.
<mgrwt>
<rscale>  0 0.76620444E+03</rscale>
<asrwt>0</asrwt>
<pdfrwt beam="1">  1        2 0.34045500E+00 0.76620444E+03</pdfrwt>
<pdfrwt beam="2">  1       -2 0.10203353E-01 0.76620444E+03</pdfrwt>
<totfact> 0.34671805E+02</totfact>
</mgrwt>
</event>
<event>
 4    1  0.1773996E-005  0.8623147E+03  0.7818608E-02  0.9473956E-01
         -2   -1    0    0    0  501 -0.00000000000E+00  0.00000000000E+00  0.10075098904E+03  0.10075098908E+03  0.25500000000E-02 0. -1.
          2   -1    0    0  501    0  0.00000000000E+00 -0.00000000000E+00 -0.18451099276E+04  0.18451099276E+04  0.25500000000E-02 0.  1.
   -5000001    1    1    2    0    0 -0.19422347438E+03  0.29264491135E+03 -0.85924643446E+03  0.96133669298E+03  0.25000000000E+03 0.  0.
    5000001    1    1    2    0    0  0.19422347438E+03 -0.29264491135E+03 -0.88511250409E+03  0.98452422369E+03  0.25000000000E+03 0.  0.
<mgrwt>
<rscale>  0 0.86231468E+03</rscale>
<asrwt>0</asrwt>
<pdfrwt beam="1">  1        2 0.28386304E+00 0.86231468E+03</pdfrwt>
<pdfrwt beam="2">  1       -2 0.15500154E-01 0.86231468E+03</pdfrwt>
<totfact> 0.27308248E+02</totfact>
</mgrwt>
</event>
<event>
 4    1  0.1773996E-005  0.1199172E+04  0.7818608E-02  0.9113581E-01
          2   -1    0    0  501    0  0.00000000000E+00  0.00000000000E+00  0.88933507015E+03  0.88933507015E+03  0.25500000000E-02 0.  1.
         -2   -1    0    0    0  501 -0.00000000000E+00 -0.00000000000E+00 -0.40423847885E+03  0.40423847886E+03  0.25500000000E-02 0. -1.
   -5000001    1    1    2    0    0 -0.51622532429E+03  0.39787057754E+02  0.42603211750E+03  0.71559413116E+03  0.25000000000E+03 0.  0.
    5000001    1    1    2    0    0  0.51622532429E+03 -0.39787057754E+02  0.59064473793E+02  0.57797941786E+03  0.25000000000E+03 0.  0.
<mgrwt>
<rscale>  0 0.11991721E+04</rscale>
<asrwt>0</asrwt>
<pdfrwt beam="1">  1        2 0.13682078E+00 0.11991721E+04</pdfrwt>
<pdfrwt beam="2">  1       -2 0.62190536E-01 0.11991721E+04</pdfrwt>
<totfact> 0.70628318E+01</totfact>
</mgrwt>
</event>
<event>
 4    1  0.1773996E-005  0.5299741E+03  0.7818608E-02  0.1006238E+00
         -2   -1    0    0    0  501 -0.00000000000E+00  0.00000000000E+00  0.62393721285E+02  0.62393721337E+02  0.25500000000E-02 0. -1.
          2   -1    0    0  501    0  0.00000000000E+00 -0.00000000000E+00 -0.11254037065E+04  0.11254037065E+04  0.25500000000E-02 0.  1.
   -5000001    1    1    2    0    0  0.36378029768E+02  0.64483872407E+02 -0.63749901756E+03  0.68875723462E+03  0.25000000000E+03 0.  0.
    5000001    1    1    2    0    0 -0.36378029768E+02 -0.64483872407E+02 -0.42551096763E+03  0.49904019319E+03  0.25000000000E+03 0.  0.
<mgrwt>
<rscale>  0 0.52997406E+03</rscale>
<asrwt>0</asrwt>
<pdfrwt beam="1">  1        2 0.17313902E+00 0.52997406E+03</pdfrwt>
<pdfrwt beam="2">  1       -2 0.95990349E-02 0.52997406E+03</pdfrwt>
<totfact> 0.15570735E+03</totfact>
</mgrwt>
</event>
<event>
 4    1  0.1773996E-005  0.7930938E+03  0.7818608E-02  0.9570068E-01
         -2   -1    0    0    0  501 -0.00000000000E+00  0.00000000000E+00  0.59599416317E+02  0.59599416372E+02  0.25500000000E-02 0. -1.
          2   -1    0    0  501    0  0.00000000000E+00 -0.00000000000E+00 -0.26384392208E+04  0.26384392208E+04  0.25500000000E-02 0.  1.
   -5000001    1    1    2    0    0  0.28788709311E+03  0.82344388597E+02 -0.15321237021E+04  0.15810005108E+04  0.25000000000E+03 0.  0.
    5000001    1    1    2    0    0 -0.28788709311E+03 -0.82344388597E+02 -0.10467161024E+04  0.11170381264E+04  0.25000000000E+03 0.  0.
<mgrwt>
<rscale>  0 0.79309378E+03</rscale>
<asrwt>0</asrwt>
<pdfrwt beam="1">  1        2 0.40591363E+00 0.79309378E+03</pdfrwt>
<pdfrwt beam="2">  1       -2 0.91691430E-02 0.79309378E+03</pdfrwt>
<totfact> 0.23691055E+02</totfact>
</mgrwt>
</event>
<event>
 4    1  0.1773996E-005  0.8103204E+03  0.7818608E-02  0.9545198E-01
         -2   -1    0    0    0  501 -0.00000000000E+00  0.00000000000E+00  0.16752053485E+03  0.16752053487E+03  0.25500000000E-02 0. -1.
          2   -1    0    0  501    0  0.00000000000E+00 -0.00000000000E+00 -0.97990834129E+03  0.97990834130E+03  0.25500000000E-02 0.  1.
   -5000001    1    1    2    0    0 -0.11488744459E+03  0.17066859870E+03 -0.75109805277E+03  0.81790902940E+03  0.25000000000E+03 0.  0.
    5000001    1    1    2    0    0  0.11488744459E+03 -0.17066859870E+03 -0.61289753675E+02  0.32951984677E+03  0.25000000000E+03 0.  0.
<mgrwt>
<rscale>  0 0.81032036E+03</rscale>
<asrwt>0</asrwt>
<pdfrwt beam="1">  1        2 0.15075513E+00 0.81032036E+03</pdfrwt>
<pdfrwt beam="2">  1       -2 0.25772391E-01 0.81032036E+03</pdfrwt>
<totfact> 0.35353234E+02</totfact>
</mgrwt>
</event>
<event>
 4    1  0.1773996E-005  0.8452979E+03  0.7818608E-02  0.9496670E-01
         -2   -1    0    0    0  501 -0.00000000000E+00  0.00000000000E+00  0.70667392909E+02  0.70667392955E+02  0.25500000000E-02 0. -1.
          2   -1    0    0  501    0  0.00000000000E+00 -0.00000000000E+00 -0.25277869784E+04  0.25277869784E+04  0.25500000000E-02 0.  1.
   -5000001    1    1    2    0    0 -0.47749956984E+02  0.33615591078E+03 -0.13182482751E+04  0.13840373439E+04  0.25000000000E+03 0.  0.
    5000001    1    1    2    0    0  0.47749956984E+02 -0.33615591078E+03 -0.11388713104E+04  0.12144170274E+04  0.25000000000E+03 0.  0.
<mgrwt>
<rscale>  0 0.84529785E+03</rscale>
<asrwt>0</asrwt>
<pdfrwt beam="1">  1        2 0.38889023E+00 0.84529785E+03</pdfrwt>
<pdfrwt beam="2">  1       -2 0.10871909E-01 0.84529785E+03</pdfrwt>
<totfact> 0.20671970E+02</totfact>
</mgrwt>
</event>
<event>
 4    1  0.1773996E-005  0.6439957E+03  0.7818608E-02  0.9818112E-01
         -2   -1    0    0    0  501 -0.00000000000E+00  0.00000000000E+00  0.71442358769E+02  0.71442358815E+02  0.25500000000E-02 0. -1.
          2   -1    0    0  501    0  0.00000000000E+00 -0.00000000000E+00 -0.14512764316E+04  0.14512764316E+04  0.25500000000E-02 0.  1.
   -5000001    1    1    2    0    0 -0.10227652598E+03 -0.17130397222E+03 -0.60217348493E+03  0.68184928292E+03  0.25000000000E+03 0.  0.
    5000001    1    1    2    0    0  0.10227652598E+03  0.17130397222E+03 -0.77766058793E+03  0.84086950752E+03  0.25000000000E+03 0.  0.
<mgrwt>
<rscale>  0 0.64399569E+03</rscale>
<asrwt>0</asrwt>
<pdfrwt beam="1">  1        2 0.22327327E+00 0.64399569E+03</pdfrwt>
<pdfrwt beam="2">  1       -2 0.10991133E-01 0.64399569E+03</pdfrwt>
<totfact> 0.80850386E+02</totfact>
</mgrwt>
</event>
<event>
 4    1  0.1773996E-005  0.1000990E+04  0.7818608E-02  0.9307460E-01
         -2   -1    0    0    0  501 -0.00000000000E+00  0.00000000000E+00  0.91141522436E+03  0.91141522436E+03  0.25500000000E-02 0. -1.
          2   -1    0    0  501    0  0.00000000000E+00 -0.00000000000E+00 -0.27484195464E+03  0.27484195465E+03  0.25500000000E-02 0.  1.
   -5000001    1    1    2    0    0 -0.29438250278E+03 -0.30849526341E+03  0.41133465997E+03  0.64306032997E+03  0.25000000000E+03 0.  0.
    5000001    1    1    2    0    0  0.29438250278E+03  0.30849526341E+03  0.22523860976E+03  0.54319684905E+03  0.25000000000E+03 0.  0.
<mgrwt>
<rscale>  0 0.10009898E+04</rscale>
<asrwt>0</asrwt>
<pdfrwt beam="1">  1        2 0.42283378E-01 0.10009898E+04</pdfrwt>
<pdfrwt beam="2">  1       -2 0.14021772E+00 0.10009898E+04</pdfrwt>
<totfact> 0.43196844E+01</totfact>
</mgrwt>
</event>
<event>
 4    1  0.1773996E-005  0.1053755E+04  0.7818608E-02  0.9251476E-01
          2   -1    0    0  501    0  0.00000000000E+00  0.00000000000E+00  0.10366297383E+04  0.10366297383E+04  0.25500000000E-02 0.  1.
         -2   -1    0    0    0  501 -0.00000000000E+00 -0.00000000000E+00 -0.26779073634E+03  0.26779073635E+03  0.25500000000E-02 0. -1.
   -5000001    1    1    2    0    0  0.20469350283E+03 -0.19871509052E+03  0.83707142683E+03  0.91900799285E+03  0.25000000000E+03 0.  0.
    5000001    1    1    2    0    0 -0.20469350283E+03  0.19871509052E+03 -0.68232424899E+02  0.38541248177E+03  0.25000000000E+03 0.  0.
<mgrwt>
<rscale>  0 0.10537549E+04</rscale>
<asrwt>0</asrwt>
<pdfrwt beam="1">  1        2 0.15948150E+00 0.10537549E+04</pdfrwt>
<pdfrwt beam="2">  1       -2 0.41198575E-01 0.10537549E+04</pdfrwt>
<totfact> 0.13250396E+02</totfact>
</mgrwt>
</event>
<event>
 4    1  0.1773996E-005  0.1322322E+04  0.7818608E-02  0.9012048E-01
          2   -1    0    0  501    0  0.00000000000E+00  0.00000000000E+00  0.90899844693E+03  0.90899844693E+03  0.25500000000E-02 0.  1.
         -2   -1    0    0    0  501 -0.00000000000E+00 -0.00000000000E+00 -0.48089623973E+03  0.48089623973E+03  0.25500000000E-02 0. -1.
   -5000001    1    1    2    0    0  0.25921418280E+03 -0.55444220564E+03  0.22033868430E+03  0.69688398443E+03  0.25000000000E+03 0.  0.
    5000001    1    1    2    0    0 -0.25921418280E+03  0.55444220564E+03  0.20776352290E+03  0.69301070223E+03  0.25000000000E+03 0.  0.
<mgrwt>
<rscale>  0 0.13223221E+04</rscale>
<asrwt>0</asrwt>
<pdfrwt beam="1">  1        2 0.13984591E+00 0.13223221E+04</pdfrwt>
<pdfrwt beam="2">  1       -2 0.73984038E-01 0.13223221E+04</pdfrwt>
<totfact> 0.46586940E+01</totfact>
</mgrwt>
</event>
<event>
 4    1  0.1773996E-005  0.6045598E+03  0.7818608E-02  0.9895991E-01
          2   -1    0    0  501    0  0.00000000000E+00  0.00000000000E+00  0.72526779257E+03  0.72526779258E+03  0.25500000000E-02 0.  1.
         -2   -1    0    0    0  501 -0.00000000000E+00 -0.00000000000E+00 -0.12598536856E+03  0.12598536859E+03  0.25500000000E-02 0. -1.
   -5000001    1    1    2    0    0 -0.13564496867E+03  0.15914263270E+02  0.15729316897E+03  0.32541352508E+03  0.25000000000E+03 0.  0.
    5000001    1    1    2    0    0  0.13564496867E+03 -0.15914263270E+02  0.44198925504E+03  0.52583963608E+03  0.25000000000E+03 0.  0.
<mgrwt>
<rscale>  0 0.60455977E+03</rscale>
<asrwt>0</asrwt>
<pdfrwt beam="1">  1        2 0.11157966E+00 0.60455977E+03</pdfrwt>
<pdfrwt beam="2">  1       -2 0.19382364E-01 0.60455977E+03</pdfrwt>
<totfact> 0.88730210E+02</totfact>
</mgrwt>
</event>
<event>
 4    1  0.1773996E-005  0.1242896E+04  0.7818608E-02  0.9076117E-01
          2   -1    0    0  501    0  0.00000000000E+00  0.00000000000E+00  0.99397083009E+03  0.99397083010E+03  0.25500000000E-02 0.  1.
         -2   -1    0    0    0  501 -0.00000000000E+00 -0.00000000000E+00 -0.38854031945E+03  0.38854031946E+03  0.25500000000E-02 0. -1.
   -5000001    1    1    2    0    0  0.29951965974E+03  0.48252968339E+03  0.34044968983E+03  0.70778027186E+03  0.25000000000E+03 0.  0.
    5000001    1    1    2    0    0 -0.29951965974E+03 -0.48252968339E+03  0.26498082081E+03  0.67473087770E+03  0.25000000000E+03 0.  0.
<mgrwt>
<rscale>  0 0.12428962E+04</rscale>
<asrwt>0</asrwt>
<pdfrwt beam="1">  1        2 0.15291859E+00 0.12428962E+04</pdfrwt>
<pdfrwt beam="2">  1       -2 0.59775434E-01 0.12428962E+04</pdfrwt>
<totfact> 0.65291600E+01</totfact>
</mgrwt>
</event>
<event>
 4    1  0.1773996E-005  0.6018387E+03  0.7818608E-02  0.9901599E-01
         -2   -1    0    0    0  501 -0.00000000000E+00  0.00000000000E+00  0.26162047727E+03  0.26162047728E+03  0.25500000000E-02 0. -1.
          2   -1    0    0  501    0  0.00000000000E+00 -0.00000000000E+00 -0.34612149100E+03  0.34612149101E+03  0.25500000000E-02 0.  1.
   -5000001    1    1    2    0    0 -0.92165899207E+02 -0.12288984895E+03 -0.10965855590E+03  0.31324346256E+03  0.25000000000E+03 0.  0.
    5000001    1    1    2    0    0  0.92165899207E+02  0.12288984895E+03  0.25157542173E+02  0.29449850574E+03  0.25000000000E+03 0.  0.
<mgrwt>
<rscale>  0 0.60183875E+03</rscale>
<asrwt>0</asrwt>
<pdfrwt beam="1">  1        2 0.53249460E-01 0.60183875E+03</pdfrwt>
<pdfrwt beam="2">  1       -2 0.40249304E-01 0.60183875E+03</pdfrwt>
<totfact> 0.55086909E+02</totfact>
</mgrwt>
</event>
<event>
 4    1  0.1773996E-005  0.1274260E+04  0.7818608E-02  0.9050230E-01
         -2   -1    0    0    0  501 -0.00000000000E+00  0.00000000000E+00  0.10870646832E+04  0.10870646832E+04  0.25500000000E-02 0. -1.
          2   -1    0    0  501    0  0.00000000000E+00 -0.00000000000E+00 -0.37342250032E+03  0.37342250033E+03  0.25500000000E-02 0.  1.
   -5000001    1    1    2    0    0  0.26358290091E+03 -0.51014075218E+03  0.49104683398E+03  0.79583071432E+03  0.25000000000E+03 0.  0.
    5000001    1    1    2    0    0 -0.26358290091E+03  0.51014075218E+03  0.22259534886E+03  0.66465646918E+03  0.25000000000E+03 0.  0.
<mgrwt>
<rscale>  0 0.12742596E+04</rscale>
<asrwt>0</asrwt>
<pdfrwt beam="1">  1        2 0.57449615E-01 0.12742596E+04</pdfrwt>
<pdfrwt beam="2">  1       -2 0.16724072E+00 0.12742596E+04</pdfrwt>
<totfact> 0.18795926E+01</totfact>
</mgrwt>
</event>
<event>
 4    1  0.1773996E-005  0.7774072E+03  0.7818608E-02  0.9593308E-01
         -2   -1    0    0    0  501 -0.00000000000E+00  0.00000000000E+00  0.24379460547E+03  0.24379460548E+03  0.25500000000E-02 0. -1.
          2   -1    0    0  501    0  0.00000000000E+00 -0.00000000000E+00 -0.61974499460E+03  0.61974499461E+03  0.25500000000E-02 0.  1.
   -5000001    1    1    2    0    0  0.22767701938E+03  0.18824607799E+03 -0.14766276013E+03  0.41421938844E+03  0.25000000000E+03 0.  0.
    5000001    1    1    2    0    0 -0.22767701938E+03 -0.18824607799E+03 -0.22828762900E+03  0.44932021164E+03  0.25000000000E+03 0.  0.
<mgrwt>
<rscale>  0 0.77740719E+03</rscale>
<asrwt>0</asrwt>
<pdfrwt beam="1">  1        2 0.95345383E-01 0.77740719E+03</pdfrwt>
<pdfrwt beam="2">  1       -2 0.37506863E-01 0.77740719E+03</pdfrwt>
<totfact> 0.32164629E+02</totfact>
</mgrwt>
</event>
<event>
 4    1  0.1773996E-005  0.7129329E+03  0.7818608E-02  0.9695367E-01
         -2   -1    0    0    0  501 -0.00000000000E+00  0.00000000000E+00  0.12490646120E+04  0.12490646120E+04  0.25500000000E-02 0. -1.
          2   -1    0    0  501    0  0.00000000000E+00 -0.00000000000E+00 -0.10173080080E+03  0.10173080084E+03  0.25500000000E-02 0.  1.
   -5000001    1    1    2    0    0  0.19737100186E+03 -0.11148478091E+03  0.35611275712E+03  0.49061233630E+03  0.25000000000E+03 0.  0.
    5000001    1    1    2    0    0 -0.19737100186E+03  0.11148478091E+03  0.79122105408E+03  0.86018307654E+03  0.25000000000E+03 0.  0.
<mgrwt>
<rscale>  0 0.71293294E+03</rscale>
<asrwt>0</asrwt>
<pdfrwt beam="1">  1        2 0.15650893E-01 0.71293294E+03</pdfrwt>
<pdfrwt beam="2">  1       -2 0.19216378E+00 0.71293294E+03</pdfrwt>
<totfact> 0.58128757E+01</totfact>
</mgrwt>
</event>
<event>
 4    1  0.1773996E-005  0.7085563E+03  0.7818608E-02  0.9702711E-01
          2   -1    0    0  501    0  0.00000000000E+00  0.00000000000E+00  0.25629392006E+03  0.25629392007E+03  0.25500000000E-02 0.  1.
         -2   -1    0    0    0  501 -0.00000000000E+00 -0.00000000000E+00 -0.48972291413E+03  0.48972291414E+03  0.25500000000E-02 0. -1.
   -5000001    1    1    2    0    0 -0.22009481554E+03  0.20201137752E+02  0.85865883528E+01  0.33380165263E+03  0.25000000000E+03 0.  0.
    5000001    1    1    2    0    0  0.22009481554E+03 -0.20201137752E+02 -0.24201558243E+03  0.41221518159E+03  0.25000000000E+03 0.  0.
<mgrwt>
<rscale>  0 0.70855629E+03</rscale>
<asrwt>0</asrwt>
<pdfrwt beam="1">  1        2 0.39429834E-01 0.70855629E+03</pdfrwt>
<pdfrwt beam="2">  1       -2 0.75341987E-01 0.70855629E+03</pdfrwt>
<totfact> 0.20891781E+02</totfact>
</mgrwt>
</event>
<event>
 4    1  0.1773996E-005  0.5350557E+03  0.7818608E-02  0.1005013E+00
          2   -1    0    0  501    0  0.00000000000E+00  0.00000000000E+00  0.11729348118E+03  0.11729348121E+03  0.25500000000E-02 0. -1.
         -2   -1    0    0    0  501 -0.00000000000E+00 -0.00000000000E+00 -0.61018870031E+03  0.61018870032E+03  0.25500000000E-02 0.  1.
   -5000001    1    1    2    0    0  0.88973331232E+01  0.90375699555E+02 -0.28548194845E+03  0.39018825264E+03  0.25000000000E+03 0.  0.
    5000001    1    1    2    0    0 -0.88973331232E+01 -0.90375699555E+02 -0.20741327069E+03  0.33729392889E+03  0.25000000000E+03 0.  0.
<mgrwt>
<rscale>  0 0.53505572E+03</rscale>
<asrwt>0</asrwt>
<pdfrwt beam="1">  1        2 0.18045151E-01 0.53505572E+03</pdfrwt>
<pdfrwt beam="2">  1       -2 0.93875183E-01 0.53505572E+03</pdfrwt>
<totfact> 0.31115345E+02</totfact>
</mgrwt>
</event>
<event>
 4    1  0.1773996E-005  0.5822854E+03  0.7818608E-02  0.9942855E-01
          2   -1    0    0  501    0  0.00000000000E+00  0.00000000000E+00  0.39839232923E+03  0.39839232924E+03  0.25500000000E-02 0.  1.
         -2   -1    0    0    0  501 -0.00000000000E+00 -0.00000000000E+00 -0.21276530511E+03  0.21276530513E+03  0.25500000000E-02 0. -1.
   -5000001    1    1    2    0    0 -0.67106922365E+02 -0.11433016404E+03  0.16468774453E+03  0.32740919144E+03  0.25000000000E+03 0.  0.
    5000001    1    1    2    0    0  0.67106922365E+02  0.11433016404E+03  0.20939279587E+02  0.28374844293E+03  0.25000000000E+03 0.  0.
<mgrwt>
<rscale>  0 0.58228538E+03</rscale>
<asrwt>0</asrwt>
<pdfrwt beam="1">  1        2 0.61291128E-01 0.58228538E+03</pdfrwt>
<pdfrwt beam="2">  1       -2 0.32733124E-01 0.58228538E+03</pdfrwt>
<totfact> 0.69908794E+02</totfact>
</mgrwt>
</event>
<event>
 4    1  0.1773996E-005  0.7389987E+03  0.7818608E-02  0.9652769E-01
          2   -1    0    0  501    0  0.00000000000E+00  0.00000000000E+00  0.18226084016E+04  0.18226084016E+04  0.25500000000E-02 0.  1.
         -2   -1    0    0    0  501 -0.00000000000E+00 -0.00000000000E+00 -0.74909005473E+02  0.74909005517E+02  0.25500000000E-02 0. -1.
   -5000001    1    1    2    0    0 -0.20166743289E+03 -0.18205218929E+03  0.91167667369E+03  0.98359905981E+03  0.25000000000E+03 0.  0.
    5000001    1    1    2    0    0  0.20166743289E+03  0.18205218929E+03  0.83602272246E+03  0.91391834733E+03  0.25000000000E+03 0.  0.
<mgrwt>
<rscale>  0 0.73899874E+03</rscale>
<asrwt>0</asrwt>
<pdfrwt beam="1">  1        2 0.28040129E+00 0.73899874E+03</pdfrwt>
<pdfrwt beam="2">  1       -2 0.11524462E-01 0.73899874E+03</pdfrwt>
<totfact> 0.46519221E+02</totfact>
</mgrwt>
</event>
<event>
 4    1  0.1773996E-005  0.1352949E+04  0.7818608E-02  0.8988599E-01
         -2   -1    0    0    0  501 -0.00000000000E+00  0.00000000000E+00  0.14909623753E+04  0.14909623753E+04  0.25500000000E-02 0. -1.
          2   -1    0    0  501    0  0.00000000000E+00 -0.00000000000E+00 -0.30692764209E+03  0.30692764211E+03  0.25500000000E-02 0.  1.
   -5000001    1    1    2    0    0  0.13968208189E+03 -0.53412456180E+03  0.99138013928E+03  0.11619529733E+04  0.25000000000E+03 0.  0.
    5000001    1    1    2    0    0 -0.13968208189E+03  0.53412456180E+03  0.19265459390E+03  0.63593704411E+03  0.25000000000E+03 0.  0.
<mgrwt>
<rscale>  0 0.13529487E+04</rscale>
<asrwt>0</asrwt>
<pdfrwt beam="1">  1        2 0.47219637E-01 0.13529487E+04</pdfrwt>
<pdfrwt beam="2">  1       -2 0.22937883E+00 0.13529487E+04</pdfrwt>
<totfact> 0.90185069E+00</totfact>
</mgrwt>
</event>
<event>
 4    1  0.1773996E-005  0.6293609E+03  0.7818608E-02  0.9846297E-01
          2   -1    0    0  501    0  0.00000000000E+00  0.00000000000E+00  0.76276891359E+03  0.76276891360E+03  0.25500000000E-02 0.  1.
         -2   -1    0    0    0  501 -0.00000000000E+00 -0.00000000000E+00 -0.12982145952E+03  0.12982145954E+03  0.25500000000E-02 0. -1.
   -5000001    1    1    2    0    0 -0.14226634617E+03  0.33553536415E+02  0.14186072541E+03  0.32247483386E+03  0.25000000000E+03 0.  0.
    5000001    1    1    2    0    0  0.14226634617E+03 -0.33553536415E+02  0.49108672867E+03  0.57011553928E+03  0.25000000000E+03 0.  0.
<mgrwt>
<rscale>  0 0.62936086E+03</rscale>
<asrwt>0</asrwt>
<pdfrwt beam="1">  1        2 0.11734906E+00 0.62936086E+03</pdfrwt>
<pdfrwt beam="2">  1       -2 0.19972533E-01 0.62936086E+03</pdfrwt>
<totfact> 0.78907459E+02</totfact>
</mgrwt>
</event>
<event>
 4    1  0.1773996E-005  0.5476269E+03  0.7818608E-02  0.1002045E+00
         -2   -1    0    0    0  501 -0.00000000000E+00  0.00000000000E+00  0.47337133663E+02  0.47337133731E+02  0.25500000000E-02 0. -1.
          2   -1    0    0  501    0  0.00000000000E+00 -0.00000000000E+00 -0.15838261873E+04  0.15838261873E+04  0.25500000000E-02 0.  1.
   -5000001    1    1    2    0    0 -0.73099971756E+02  0.65390825772E+02 -0.92737629689E+03  0.96547727162E+03  0.25000000000E+03 0.  0.
    5000001    1    1    2    0    0  0.73099971756E+02 -0.65390825772E+02 -0.60911275678E+03  0.66568604945E+03  0.25000000000E+03 0.  0.
<mgrwt>
<rscale>  0 0.54762685E+03</rscale>
<asrwt>0</asrwt>
<pdfrwt beam="1">  1        2 0.24366553E+00 0.54762685E+03</pdfrwt>
<pdfrwt beam="2">  1       -2 0.72826372E-02 0.54762685E+03</pdfrwt>
<totfact> 0.13302291E+03</totfact>
</mgrwt>
</event>
<event>
 4    1  0.1773996E-005  0.1194602E+04  0.7818608E-02  0.9117594E-01
         -2   -1    0    0    0  501 -0.00000000000E+00  0.00000000000E+00  0.34194410108E+03  0.34194410109E+03  0.25500000000E-02 0. -1.
          2   -1    0    0  501    0  0.00000000000E+00 -0.00000000000E+00 -0.10433535052E+04  0.10433535052E+04  0.25500000000E-02 0.  1.
   -5000001    1    1    2    0    0  0.42126946437E+03 -0.33699681067E+03 -0.28476090018E+03  0.65925987461E+03  0.25000000000E+03 0.  0.
    5000001    1    1    2    0    0 -0.42126946437E+03  0.33699681067E+03 -0.41664850397E+03  0.72603773171E+03  0.25000000000E+03 0.  0.
<mgrwt>
<rscale>  0 0.11946022E+04</rscale>
<asrwt>0</asrwt>
<pdfrwt beam="1">  1        2 0.16051592E+00 0.11946022E+04</pdfrwt>
<pdfrwt beam="2">  1       -2 0.52606785E-01 0.11946022E+04</pdfrwt>
<totfact> 0.79529852E+01</totfact>
</mgrwt>
</event>
<event>
 4    1  0.1773996E-005  0.6271582E+03  0.7818608E-02  0.9850610E-01
          2   -1    0    0  501    0  0.00000000000E+00  0.00000000000E+00  0.20183771222E+04  0.20183771222E+04  0.25500000000E-02 0.  1.
         -2   -1    0    0    0  501 -0.00000000000E+00 -0.00000000000E+00 -0.48718267497E+02  0.48718267564E+02  0.25500000000E-02 0. -1.
   -5000001    1    1    2    0    0  0.47714158818E+02  0.16776060220E+03  0.74236650856E+03  0.80251373424E+03  0.25000000000E+03 0.  0.
    5000001    1    1    2    0    0 -0.47714158818E+02 -0.16776060220E+03  0.12272923461E+04  0.12645816555E+04  0.25000000000E+03 0.  0.
<mgrwt>
<rscale>  0 0.62715815E+03</rscale>
<asrwt>0</asrwt>
<pdfrwt beam="1">  1        2 0.31051956E+00 0.62715815E+03</pdfrwt>
<pdfrwt beam="2">  1       -2 0.74951180E-02 0.62715815E+03</pdfrwt>
<totfact> 0.73558665E+02</totfact>
</mgrwt>
</event>
<event>
 4    1  0.1773996E-005  0.8858449E+03  0.7818608E-02  0.9443451E-01
          2   -1    0    0  501    0  0.00000000000E+00  0.00000000000E+00  0.86930684628E+03  0.86930684629E+03  0.25500000000E-02 0.  1.
         -2   -1    0    0    0  501 -0.00000000000E+00 -0.00000000000E+00 -0.22567440851E+03  0.22567440853E+03  0.25500000000E-02 0. -1.
   -5000001    1    1    2    0    0 -0.26195636364E+02 -0.20688451312E+03 -0.49407012213E+02  0.32928477947E+03  0.25000000000E+03 0.  0.
    5000001    1    1    2    0    0  0.26195636364E+02  0.20688451312E+03  0.69303944998E+03  0.76569647535E+03  0.25000000000E+03 0.  0.
<mgrwt>
<rscale>  0 0.88584493E+03</rscale>
<asrwt>0</asrwt>
<pdfrwt beam="1">  1        2 0.13373951E+00 0.88584493E+03</pdfrwt>
<pdfrwt beam="2">  1       -2 0.34719140E-01 0.88584493E+03</pdfrwt>
<totfact> 0.23993366E+02</totfact>
</mgrwt>
</event>
<event>
 4    1  0.1773996E-005  0.5688581E+03  0.7818608E-02  0.9972209E-01
          2   -1    0    0  501    0  0.00000000000E+00  0.00000000000E+00  0.54940351333E+03  0.54940351333E+03  0.25500000000E-02 0.  1.
         -2   -1    0    0    0  501 -0.00000000000E+00 -0.00000000000E+00 -0.14725038895E+03  0.14725038897E+03  0.25500000000E-02 0. -1.
   -5000001    1    1    2    0    0  0.70921056507E+02 -0.21728096848E+02  0.61993611617E+02  0.26803938951E+03  0.25000000000E+03 0.  0.
    5000001    1    1    2    0    0 -0.70921056507E+02  0.21728096848E+02  0.34015951276E+03  0.42861451279E+03  0.25000000000E+03 0.  0.
<mgrwt>
<rscale>  0 0.56885809E+03</rscale>
<asrwt>0</asrwt>
<pdfrwt beam="1">  1        2 0.84523617E-01 0.56885809E+03</pdfrwt>
<pdfrwt beam="2">  1       -2 0.22653906E-01 0.56885809E+03</pdfrwt>
<totfact> 0.94674924E+02</totfact>
</mgrwt>
</event>
<event>
 4    1  0.1773996E-005  0.7709014E+03  0.7818608E-02  0.9603118E-01
         -2   -1    0    0    0  501 -0.00000000000E+00  0.00000000000E+00  0.88124446473E+02  0.88124446510E+02  0.25500000000E-02 0. -1.
          2   -1    0    0  501    0  0.00000000000E+00 -0.00000000000E+00 -0.16859366819E+04  0.16859366819E+04  0.25500000000E-02 0.  1.
   -5000001    1    1    2    0    0 -0.25790383944E+03 -0.12692828987E+03 -0.66379412256E+03  0.76534163503E+03  0.25000000000E+03 0.  0.
    5000001    1    1    2    0    0  0.25790383944E+03  0.12692828987E+03 -0.93401811290E+03  0.10087194934E+04  0.25000000000E+03 0.  0.
<mgrwt>
<rscale>  0 0.77090139E+03</rscale>
<asrwt>0</asrwt>
<pdfrwt beam="1">  1        2 0.25937485E+00 0.77090139E+03</pdfrwt>
<pdfrwt beam="2">  1       -2 0.13557608E-01 0.77090139E+03</pdfrwt>
<totfact> 0.42093971E+02</totfact>
</mgrwt>
</event>
<event>
 4    1  0.1773996E-005  0.1342145E+04  0.7818608E-02  0.8996795E-01
         -2   -1    0    0    0  501 -0.00000000000E+00  0.00000000000E+00  0.23714086699E+03  0.23714086700E+03  0.25500000000E-02 0. -1.
          2   -1    0    0  501    0  0.00000000000E+00 -0.00000000000E+00 -0.18990335736E+04  0.18990335736E+04  0.25500000000E-02 0.  1.
   -5000001    1    1    2    0    0  0.18284777621E+03 -0.59360653137E+03 -0.90277100212E+03  0.11239650820E+04  0.25000000000E+03 0.  0.
    5000001    1    1    2    0    0 -0.18284777621E+03  0.59360653137E+03 -0.75912170451E+03  0.10122093586E+04  0.25000000000E+03 0.  0.
<mgrwt>
<rscale>  0 0.13421453E+04</rscale>
<asrwt>0</asrwt>
<pdfrwt beam="1">  1        2 0.29215900E+00 0.13421453E+04</pdfrwt>
<pdfrwt beam="2">  1       -2 0.36483212E-01 0.13421453E+04</pdfrwt>
<totfact> 0.52576484E+01</totfact>
</mgrwt>
</event>
<event>
 4    1  0.1773996E-005  0.9354246E+03  0.7818608E-02  0.9382351E-01
         -2   -1    0    0    0  501 -0.00000000000E+00  0.00000000000E+00  0.10950063539E+03  0.10950063542E+03  0.25500000000E-02 0. -1.
          2   -1    0    0  501    0  0.00000000000E+00 -0.00000000000E+00 -0.19977492606E+04  0.19977492606E+04  0.25500000000E-02 0.  1.
   -5000001    1    1    2    0    0  0.50704221552E+02 -0.38882054540E+03 -0.83143248016E+03  0.95264489905E+03  0.25000000000E+03 0.  0.
    5000001    1    1    2    0    0 -0.50704221552E+02  0.38882054540E+03 -0.10568161450E+04  0.11546049969E+04  0.25000000000E+03 0.  0.
<mgrwt>
<rscale>  0 0.93542464E+03</rscale>
<asrwt>0</asrwt>
<pdfrwt beam="1">  1        2 0.30734601E+00 0.93542464E+03</pdfrwt>
<pdfrwt beam="2">  1       -2 0.16846253E-01 0.93542464E+03</pdfrwt>
<totfact> 0.19431773E+02</totfact>
</mgrwt>
</event>
<event>
 4    1  0.1773996E-005  0.8286464E+03  0.7818608E-02  0.9519454E-01
         -2   -1    0    0    0  501 -0.00000000000E+00  0.00000000000E+00  0.89329435631E+02  0.89329435668E+02  0.25500000000E-02 0. -1.
          2   -1    0    0  501    0  0.00000000000E+00 -0.00000000000E+00 -0.19216925155E+04  0.19216925155E+04  0.25500000000E-02 0.  1.
   -5000001    1    1    2    0    0 -0.19836242356E+03 -0.24886553788E+03 -0.70072195921E+03  0.80919278985E+03  0.25000000000E+03 0.  0.
    5000001    1    1    2    0    0  0.19836242356E+03  0.24886553788E+03 -0.11316411206E+04  0.12018291613E+04  0.25000000000E+03 0.  0.
<mgrwt>
<rscale>  0 0.82864639E+03</rscale>
<asrwt>0</asrwt>
<pdfrwt beam="1">  1        2 0.29564497E+00 0.82864639E+03</pdfrwt>
<pdfrwt beam="2">  1       -2 0.13742992E-01 0.82864639E+03</pdfrwt>
<totfact> 0.30461197E+02</totfact>
</mgrwt>
</event>
<event>
 4    1  0.1773996E-005  0.1285456E+04  0.7818608E-02  0.9041179E-01
          2   -1    0    0  501    0  0.00000000000E+00  0.00000000000E+00  0.12851578124E+04  0.12851578124E+04  0.25500000000E-02 0.  1.
         -2   -1    0    0    0  501 -0.00000000000E+00 -0.00000000000E+00 -0.32143862841E+03  0.32143862842E+03  0.25500000000E-02 0. -1.
   -5000001    1    1    2    0    0 -0.15212103344E+03  0.53561410510E+03  0.23010081615E+03  0.65228035690E+03  0.25000000000E+03 0.  0.
    5000001    1    1    2    0    0  0.15212103344E+03 -0.53561410510E+03  0.73361836784E+03  0.95431608392E+03  0.25000000000E+03 0.  0.
<mgrwt>
<rscale>  0 0.12854561E+04</rscale>
<asrwt>0</asrwt>
<pdfrwt beam="1">  1        2 0.19771659E+00 0.12854561E+04</pdfrwt>
<pdfrwt beam="2">  1       -2 0.49452096E-01 0.12854561E+04</pdfrwt>
<totfact> 0.64024779E+01</totfact>
</mgrwt>
</event>
<event>
 4    1  0.1773996E-005  0.5558204E+03  0.7818608E-02  0.1000156E+00
         -2   -1    0    0    0  501 -0.00000000000E+00  0.00000000000E+00  0.68048001119E+02  0.68048001167E+02  0.25500000000E-02 0. -1.
          2   -1    0    0  501    0  0.00000000000E+00 -0.00000000000E+00 -0.11349941449E+04  0.11349941449E+04  0.25500000000E-02 0.  1.
   -5000001    1    1    2    0    0  0.10894071458E+03  0.49936428005E+02 -0.57523936764E+03  0.63856249202E+03  0.25000000000E+03 0.  0.
    5000001    1    1    2    0    0 -0.10894071458E+03 -0.49936428005E+02 -0.49170677618E+03  0.56447965408E+03  0.25000000000E+03 0.  0.
<mgrwt>
<rscale>  0 0.55582041E+03</rscale>
<asrwt>0</asrwt>
<pdfrwt beam="1">  1        2 0.17461447E+00 0.55582041E+03</pdfrwt>
<pdfrwt beam="2">  1       -2 0.10468924E-01 0.55582041E+03</pdfrwt>
<totfact> 0.13345287E+03</totfact>
</mgrwt>
</event>
<event>
 4    1  0.1773996E-005  0.6145967E+03  0.7818608E-02  0.9875577E-01
          2   -1    0    0  501    0  0.00000000000E+00  0.00000000000E+00  0.14456976629E+04  0.14456976629E+04  0.25500000000E-02 0.  1.
         -2   -1    0    0    0  501 -0.00000000000E+00 -0.00000000000E+00 -0.65319527846E+02  0.65319527896E+02  0.25500000000E-02 0. -1.
   -5000001    1    1    2    0    0 -0.16276861017E+02 -0.17350872431E+03  0.59301953428E+03  0.66674011552E+03  0.25000000000E+03 0.  0.
    5000001    1    1    2    0    0  0.16276861017E+02  0.17350872431E+03  0.78735860081E+03  0.84427707531E+03  0.25000000000E+03 0.  0.
<mgrwt>
<rscale>  0 0.61459674E+03</rscale>
<asrwt>0</asrwt>
<pdfrwt beam="1">  1        2 0.22241503E+00 0.61459674E+03</pdfrwt>
<pdfrwt beam="2">  1       -2 0.10049158E-01 0.61459674E+03</pdfrwt>
<totfact> 0.94364139E+02</totfact>
</mgrwt>
</event>
<event>
 4    1  0.1773996E-005  0.6921858E+03  0.7818608E-02  0.9730690E-01
          2   -1    0    0  501    0  0.00000000000E+00  0.00000000000E+00  0.31740956674E+04  0.31740956674E+04  0.25500000000E-02 0.  1.
         -2   -1    0    0    0  501 -0.00000000000E+00 -0.00000000000E+00 -0.37736827102E+02  0.37736827188E+02  0.25500000000E-02 0. -1.
   -5000001    1    1    2    0    0 -0.16100033834E+03 -0.10673079958E+03  0.22238633052E+04  0.22461924612E+04  0.25000000000E+03 0.  0.
    5000001    1    1    2    0    0  0.16100033834E+03  0.10673079958E+03  0.91249553515E+03  0.96564003345E+03  0.25000000000E+03 0.  0.
<mgrwt>
<rscale>  0 0.69218581E+03</rscale>
<asrwt>0</asrwt>
<pdfrwt beam="1">  1        2 0.48832242E+00 0.69218581E+03</pdfrwt>
<pdfrwt beam="2">  1       -2 0.58056656E-02 0.69218581E+03</pdfrwt>
<totfact> 0.23574462E+02</totfact>
</mgrwt>
</event>
<event>
 4    1  0.1773996E-005  0.5766483E+03  0.7818608E-02  0.9955074E-01
         -2   -1    0    0    0  501 -0.00000000000E+00  0.00000000000E+00  0.27282818996E+03  0.27282818997E+03  0.25500000000E-02 0. -1.
          2   -1    0    0  501    0  0.00000000000E+00 -0.00000000000E+00 -0.30470020390E+03  0.30470020391E+03  0.25500000000E-02 0.  1.
   -5000001    1    1    2    0    0  0.35360106712E+02  0.13121327373E+03 -0.62520920624E+02  0.29133507490E+03  0.25000000000E+03 0.  0.
    5000001    1    1    2    0    0 -0.35360106712E+02 -0.13121327373E+03  0.30648906680E+02  0.28619331898E+03  0.25000000000E+03 0.  0.
<mgrwt>
<rscale>  0 0.57664826E+03</rscale>
<asrwt>0</asrwt>
<pdfrwt beam="1">  1        2 0.46876954E-01 0.57664826E+03</pdfrwt>
<pdfrwt beam="2">  1       -2 0.41973568E-01 0.57664826E+03</pdfrwt>
<totfact> 0.58464823E+02</totfact>
</mgrwt>
</event>
<event>
 4    1  0.1773996E-005  0.7773212E+03  0.7818608E-02  0.9593436E-01
         -2   -1    0    0    0  501 -0.00000000000E+00  0.00000000000E+00  0.98821488090E+02  0.98821488123E+02  0.25500000000E-02 0. -1.
          2   -1    0    0  501    0  0.00000000000E+00 -0.00000000000E+00 -0.15285853289E+04  0.15285853289E+04  0.25500000000E-02 0.  1.
   -5000001    1    1    2    0    0 -0.14404084518E+03  0.16482495361E+03 -0.11369508482E+04  0.11845135127E+04  0.25000000000E+03 0.  0.
    5000001    1    1    2    0    0  0.14404084518E+03 -0.16482495361E+03 -0.29281299257E+03  0.44289330434E+03  0.25000000000E+03 0.  0.
<mgrwt>
<rscale>  0 0.77732124E+03</rscale>
<asrwt>0</asrwt>
<pdfrwt beam="1">  1        2 0.23516696E+00 0.77732124E+03</pdfrwt>
<pdfrwt beam="2">  1       -2 0.15203307E-01 0.77732124E+03</pdfrwt>
<totfact> 0.42365232E+02</totfact>
</mgrwt>
</event>
<event>
 4    1  0.1773996E-005  0.1113961E+04  0.7818608E-02  0.9191691E-01
          2   -1    0    0  501    0  0.00000000000E+00  0.00000000000E+00  0.47488463329E+03  0.47488463329E+03  0.25500000000E-02 0.  1.
         -2   -1    0    0    0  501 -0.00000000000E+00 -0.00000000000E+00 -0.65326854416E+03  0.65326854417E+03  0.25500000000E-02 0. -1.
   -5000001    1    1    2    0    0  0.23778691060E+03  0.41648448542E+03 -0.22402438113E+03  0.58539633138E+03  0.25000000000E+03 0.  0.
    5000001    1    1    2    0    0 -0.23778691060E+03 -0.41648448542E+03  0.45640470258E+02  0.54275684608E+03  0.25000000000E+03 0.  0.
<mgrwt>
<rscale>  0 0.11139608E+04</rscale>
<asrwt>0</asrwt>
<pdfrwt beam="1">  1        2 0.73059174E-01 0.11139608E+04</pdfrwt>
<pdfrwt beam="2">  1       -2 0.10050285E+00 0.11139608E+04</pdfrwt>
<totfact> 0.52946279E+01</totfact>
</mgrwt>
</event>
<event>
 4    1  0.1773996E-005  0.6668997E+03  0.7818608E-02  0.9775575E-01
          2   -1    0    0  501    0  0.00000000000E+00  0.00000000000E+00  0.12001886486E+04  0.12001886486E+04  0.25500000000E-02 0.  1.
         -2   -1    0    0    0  501 -0.00000000000E+00 -0.00000000000E+00 -0.92642784019E+02  0.92642784054E+02  0.25500000000E-02 0. -1.
   -5000001    1    1    2    0    0  0.21993849244E+03 -0.16089142971E+02  0.56841096781E+03  0.65895586294E+03  0.25000000000E+03 0.  0.
    5000001    1    1    2    0    0 -0.21993849244E+03  0.16089142971E+02  0.53913489682E+03  0.63387556976E+03  0.25000000000E+03 0.  0.
<mgrwt>
<rscale>  0 0.66689975E+03</rscale>
<asrwt>0</asrwt>
<pdfrwt beam="1">  1        2 0.18464440E+00 0.66689975E+03</pdfrwt>
<pdfrwt beam="2">  1       -2 0.14252736E-01 0.66689975E+03</pdfrwt>
<totfact> 0.73074506E+02</totfact>
</mgrwt>
</event>
<event>
 4    1  0.1773996E-005  0.5310210E+03  0.7818608E-02  0.1005985E+00
          2   -1    0    0  501    0  0.00000000000E+00  0.00000000000E+00  0.13305929893E+04  0.13305929893E+04  0.25500000000E-02 0.  1.
         -2   -1    0    0    0  501 -0.00000000000E+00 -0.00000000000E+00 -0.52980766284E+02  0.52980766345E+02  0.25500000000E-02 0. -1.
   -5000001    1    1    2    0    0  0.32003809903E+02 -0.69844153050E+02  0.51959539086E+03  0.58170595645E+03  0.25000000000E+03 0.  0.
    5000001    1    1    2    0    0 -0.32003809903E+02  0.69844153050E+02  0.75801683219E+03  0.80186779923E+03  0.25000000000E+03 0.  0.
<mgrwt>
<rscale>  0 0.53102104E+03</rscale>
<asrwt>0</asrwt>
<pdfrwt beam="1">  1        2 0.20470663E+00 0.53102104E+03</pdfrwt>
<pdfrwt beam="2">  1       -2 0.81508863E-02 0.53102104E+03</pdfrwt>
<totfact> 0.15379369E+03</totfact>
</mgrwt>
</event>
<event>
 4    1  0.1773996E-005  0.5669993E+03  0.7818608E-02  0.9976341E-01
          2   -1    0    0  501    0  0.00000000000E+00  0.00000000000E+00  0.38702737518E+02  0.38702737602E+02  0.25500000000E-02 0. -1.
         -2   -1    0    0    0  501 -0.00000000000E+00 -0.00000000000E+00 -0.20766505158E+04  0.20766505158E+04  0.25500000000E-02 0.  1.
   -5000001    1    1    2    0    0 -0.87841386576E+02 -0.76146416178E+02 -0.77269469297E+03  0.82040933347E+03  0.25000000000E+03 0.  0.
    5000001    1    1    2    0    0  0.87841386576E+02  0.76146416178E+02 -0.12652530853E+04  0.12949439199E+04  0.25000000000E+03 0.  0.
<mgrwt>
<rscale>  0 0.56699933E+03</rscale>
<asrwt>0</asrwt>
<pdfrwt beam="1">  1        2 0.59542689E-02 0.56699933E+03</pdfrwt>
<pdfrwt beam="2">  1       -2 0.31948461E+00 0.56699933E+03</pdfrwt>
<totfact> 0.33644984E+01</totfact>
</mgrwt>
</event>
<event>
 4    1  0.1773996E-005  0.6149841E+03  0.7818608E-02  0.9874797E-01
          2   -1    0    0  501    0  0.00000000000E+00  0.00000000000E+00  0.64452320654E+03  0.64452320654E+03  0.25500000000E-02 0.  1.
         -2   -1    0    0    0  501 -0.00000000000E+00 -0.00000000000E+00 -0.14669971442E+03  0.14669971444E+03  0.25500000000E-02 0. -1.
   -5000001    1    1    2    0    0 -0.19934221534E+02 -0.11995545022E+03  0.79862084133E+02  0.28924839793E+03  0.25000000000E+03 0.  0.
    5000001    1    1    2    0    0  0.19934221534E+02  0.11995545022E+03  0.41796140798E+03  0.50197452305E+03  0.25000000000E+03 0.  0.
<mgrwt>
<rscale>  0 0.61498413E+03</rscale>
<asrwt>0</asrwt>
<pdfrwt beam="1">  1        2 0.99157418E-01 0.61498413E+03</pdfrwt>
<pdfrwt beam="2">  1       -2 0.22569187E-01 0.61498413E+03</pdfrwt>
<totfact> 0.78676703E+02</totfact>
</mgrwt>
</event>
<event>
 4    1  0.1773996E-005  0.6836696E+03  0.7818608E-02  0.9745574E-01
          2   -1    0    0  501    0  0.00000000000E+00  0.00000000000E+00  0.81066966059E+03  0.81066966060E+03  0.25500000000E-02 0.  1.
         -2   -1    0    0    0  501 -0.00000000000E+00 -0.00000000000E+00 -0.14414134405E+03  0.14414134407E+03  0.25500000000E-02 0. -1.
   -5000001    1    1    2    0    0 -0.14057631462E+03  0.11253185468E+03  0.12646448384E+03  0.33304411753E+03  0.25000000000E+03 0.  0.
    5000001    1    1    2    0    0  0.14057631462E+03 -0.11253185468E+03  0.54006383270E+03  0.62176688714E+03  0.25000000000E+03 0.  0.
<mgrwt>
<rscale>  0 0.68366955E+03</rscale>
<asrwt>0</asrwt>
<pdfrwt beam="1">  1        2 0.12471841E+00 0.68366955E+03</pdfrwt>
<pdfrwt beam="2">  1       -2 0.22175592E-01 0.68366955E+03</pdfrwt>
<totfact> 0.60523743E+02</totfact>
</mgrwt>
</event>
<event>
 4    1  0.1773996E-005  0.7847524E+03  0.7818608E-02  0.9582353E-01
          2   -1    0    0  501    0  0.00000000000E+00  0.00000000000E+00  0.28989666547E+03  0.28989666548E+03  0.25500000000E-02 0.  1.
         -2   -1    0    0    0  501 -0.00000000000E+00 -0.00000000000E+00 -0.53108259578E+03  0.53108259578E+03  0.25500000000E-02 0. -1.
   -5000001    1    1    2    0    0 -0.22415642353E+03  0.10260742517E+03  0.62663962000E+02  0.35665271350E+03  0.25000000000E+03 0.  0.
    5000001    1    1    2    0    0  0.22415642353E+03 -0.10260742517E+03 -0.30384989230E+03  0.46432654777E+03  0.25000000000E+03 0.  0.
<mgrwt>
<rscale>  0 0.78475238E+03</rscale>
<asrwt>0</asrwt>
<pdfrwt beam="1">  1        2 0.44599487E-01 0.78475238E+03</pdfrwt>
<pdfrwt beam="2">  1       -2 0.81705015E-01 0.78475238E+03</pdfrwt>
<totfact> 0.15155294E+02</totfact>
</mgrwt>
</event>
<event>
 4    1  0.1773996E-005  0.1217240E+04  0.7818608E-02  0.9097899E-01
          2   -1    0    0  501    0  0.00000000000E+00  0.00000000000E+00  0.19124478165E+04  0.19124478165E+04  0.25500000000E-02 0.  1.
         -2   -1    0    0    0  501 -0.00000000000E+00 -0.00000000000E+00 -0.19368794686E+03  0.19368794688E+03  0.25500000000E-02 0. -1.
   -5000001    1    1    2    0    0 -0.41809122853E+03  0.29292786504E+03  0.48303011645E+03  0.74593907451E+03  0.25000000000E+03 0.  0.
    5000001    1    1    2    0    0  0.41809122853E+03 -0.29292786504E+03  0.12357297532E+04  0.13601966888E+04  0.25000000000E+03 0.  0.
<mgrwt>
<rscale>  0 0.12172396E+04</rscale>
<asrwt>0</asrwt>
<pdfrwt beam="1">  1        2 0.29422275E+00 0.12172396E+04</pdfrwt>
<pdfrwt beam="2">  1       -2 0.29798145E-01 0.12172396E+04</pdfrwt>
<totfact> 0.76551099E+01</totfact>
</mgrwt>
</event>
<event>
 4    1  0.1773996E-005  0.8767487E+03  0.7818608E-02  0.9455123E-01
          2   -1    0    0  501    0  0.00000000000E+00  0.00000000000E+00  0.15667806378E+04  0.15667806378E+04  0.25500000000E-02 0.  1.
         -2   -1    0    0    0  501 -0.00000000000E+00 -0.00000000000E+00 -0.12265411332E+03  0.12265411335E+03  0.25500000000E-02 0. -1.
   -5000001    1    1    2    0    0 -0.44038019847E+02 -0.35434053732E+03  0.81194023686E+03  0.92154409108E+03  0.25000000000E+03 0.  0.
    5000001    1    1    2    0    0  0.44038019847E+02  0.35434053732E+03  0.63218628764E+03  0.76789066009E+03  0.25000000000E+03 0.  0.
<mgrwt>
<rscale>  0 0.87674874E+03</rscale>
<asrwt>0</asrwt>
<pdfrwt beam="1">  1        2 0.24104316E+00 0.87674874E+03</pdfrwt>
<pdfrwt beam="2">  1       -2 0.18869865E-01 0.87674874E+03</pdfrwt>
<totfact> 0.27674426E+02</totfact>
</mgrwt>
</event>
<event>
 4    1  0.1773996E-005  0.1340840E+04  0.7818608E-02  0.8997791E-01
          2   -1    0    0  501    0  0.00000000000E+00  0.00000000000E+00  0.23968626051E+04  0.23968626051E+04  0.25500000000E-02 0.  1.
         -2   -1    0    0    0  501 -0.00000000000E+00 -0.00000000000E+00 -0.18752132240E+03  0.18752132242E+03  0.25500000000E-02 0. -1.
   -5000001    1    1    2    0    0 -0.53518679660E+03 -0.20777611542E+03  0.64302228076E+03  0.89753745045E+03  0.25000000000E+03 0.  0.
    5000001    1    1    2    0    0  0.53518679660E+03  0.20777611542E+03  0.15663190020E+04  0.16868464771E+04  0.25000000000E+03 0.  0.
<mgrwt>
<rscale>  0 0.13408398E+04</rscale>
<asrwt>0</asrwt>
<pdfrwt beam="1">  1        2 0.36874808E+00 0.13408398E+04</pdfrwt>
<pdfrwt beam="2">  1       -2 0.28849435E-01 0.13408398E+04</pdfrwt>
<totfact> 0.43178299E+01</totfact>
</mgrwt>
</event>
<event>
 4    1  0.1773996E-005  0.5961665E+03  0.7818608E-02  0.9913391E-01
         -2   -1    0    0    0  501 -0.00000000000E+00  0.00000000000E+00  0.52349252229E+03  0.52349252230E+03  0.25500000000E-02 0. -1.
          2   -1    0    0  501    0  0.00000000000E+00 -0.00000000000E+00 -0.16973234222E+03  0.16973234224E+03  0.25500000000E-02 0.  1.
   -5000001    1    1    2    0    0  0.35152861129E+02  0.14332661100E+03  0.98226283685E+02  0.30647454034E+03  0.25000000000E+03 0.  0.
    5000001    1    1    2    0    0 -0.35152861129E+02 -0.14332661100E+03  0.25553389638E+03  0.38675032420E+03  0.25000000000E+03 0.  0.
<mgrwt>
<rscale>  0 0.59616646E+03</rscale>
<asrwt>0</asrwt>
<pdfrwt beam="1">  1        2 0.26112668E-01 0.59616646E+03</pdfrwt>
<pdfrwt beam="2">  1       -2 0.80537311E-01 0.59616646E+03</pdfrwt>
<totfact> 0.28696465E+02</totfact>
</mgrwt>
</event>
<event>
 4    1  0.1773996E-005  0.1060954E+04  0.7818608E-02  0.9244107E-01
          2   -1    0    0  501    0  0.00000000000E+00  0.00000000000E+00  0.32652837049E+04  0.32652837049E+04  0.25500000000E-02 0.  1.
         -2   -1    0    0    0  501 -0.00000000000E+00 -0.00000000000E+00 -0.86181176052E+02  0.86181176090E+02  0.25500000000E-02 0. -1.
   -5000001    1    1    2    0    0  0.31617134973E+02 -0.24336233896E+03  0.28478988937E+04  0.28693645603E+04  0.25000000000E+03 0.  0.
    5000001    1    1    2    0    0 -0.31617134973E+02  0.24336233896E+03  0.33120363510E+03  0.48210032063E+03  0.25000000000E+03 0.  0.
<mgrwt>
<rscale>  0 0.10609543E+04</rscale>
<asrwt>0</asrwt>
<pdfrwt beam="1">  1        2 0.50235128E+00 0.10609543E+04</pdfrwt>
<pdfrwt beam="2">  1       -2 0.13258644E-01 0.10609543E+04</pdfrwt>
<totfact> 0.51937875E+01</totfact>
</mgrwt>
</event>
<event>
 4    1  0.1773996E-005  0.8963303E+03  0.7818608E-02  0.9430180E-01
          2   -1    0    0  501    0  0.00000000000E+00  0.00000000000E+00  0.58515444830E+03  0.58515444831E+03  0.25500000000E-02 0.  1.
         -2   -1    0    0    0  501 -0.00000000000E+00 -0.00000000000E+00 -0.34324616628E+03  0.34324616629E+03  0.25500000000E-02 0. -1.
   -5000001    1    1    2    0    0  0.22650204159E+03  0.28936259672E+03  0.61289879369E+02  0.44865391622E+03  0.25000000000E+03 0.  0.
    5000001    1    1    2    0    0 -0.22650204159E+03 -0.28936259672E+03  0.18061840265E+03  0.47974669838E+03  0.25000000000E+03 0.  0.
<mgrwt>
<rscale>  0 0.89633034E+03</rscale>
<asrwt>0</asrwt>
<pdfrwt beam="1">  1        2 0.90023761E-01 0.89633034E+03</pdfrwt>
<pdfrwt beam="2">  1       -2 0.52807103E-01 0.89633034E+03</pdfrwt>
<totfact> 0.17355926E+02</totfact>
</mgrwt>
</event>
<event>
 4    1  0.1773996E-005  0.8488437E+03  0.7818608E-02  0.9491890E-01
          2   -1    0    0  501    0  0.00000000000E+00  0.00000000000E+00  0.17100765283E+03  0.17100765285E+03  0.25500000000E-02 0.  1.
         -2   -1    0    0    0  501 -0.00000000000E+00 -0.00000000000E+00 -0.10533676024E+04  0.10533676024E+04  0.25500000000E-02 0. -1.
   -5000001    1    1    2    0    0  0.29663368671E+03  0.11328089129E+03 -0.62819146341E+03  0.74695958333E+03  0.25000000000E+03 0.  0.
    5000001    1    1    2    0    0 -0.29663368671E+03 -0.11328089129E+03 -0.25416848612E+03  0.47741567188E+03  0.25000000000E+03 0.  0.
<mgrwt>
<rscale>  0 0.84884373E+03</rscale>
<asrwt>0</asrwt>
<pdfrwt beam="1">  1        2 0.26308870E-01 0.84884373E+03</pdfrwt>
<pdfrwt beam="2">  1       -2 0.16205655E+00 0.84884373E+03</pdfrwt>
<totfact> 0.50607476E+01</totfact>
</mgrwt>
</event>
<event>
 4    1  0.1773996E-005  0.8208085E+03  0.7818608E-02  0.9530377E-01
         -2   -1    0    0    0  501 -0.00000000000E+00  0.00000000000E+00  0.93629304269E+02  0.93629304304E+02  0.25500000000E-02 0. -1.
          2   -1    0    0  501    0  0.00000000000E+00 -0.00000000000E+00 -0.17989200602E+04  0.17989200602E+04  0.25500000000E-02 0.  1.
   -5000001    1    1    2    0    0  0.12002745058E+03 -0.30239714816E+03 -0.83189272457E+03  0.92757540357E+03  0.25000000000E+03 0.  0.
    5000001    1    1    2    0    0 -0.12002745058E+03  0.30239714816E+03 -0.87339803140E+03  0.96497396098E+03  0.25000000000E+03 0.  0.
<mgrwt>
<rscale>  0 0.82080846E+03</rscale>
<asrwt>0</asrwt>
<pdfrwt beam="1">  1        2 0.27675691E+00 0.82080846E+03</pdfrwt>
<pdfrwt beam="2">  1       -2 0.14404510E-01 0.82080846E+03</pdfrwt>
<totfact> 0.32865058E+02</totfact>
</mgrwt>
</event>
<event>
 4    1  0.1773996E-005  0.9284574E+03  0.7818608E-02  0.9390691E-01
         -2   -1    0    0    0  501 -0.00000000000E+00  0.00000000000E+00  0.53199325727E+02  0.53199325788E+02  0.25500000000E-02 0. -1.
          2   -1    0    0  501    0  0.00000000000E+00 -0.00000000000E+00 -0.40509586158E+04  0.40509586158E+04  0.25500000000E-02 0.  1.
   -5000001    1    1    2    0    0 -0.37404434400E+03  0.79716598485E+01 -0.25035720344E+04  0.25436874120E+04  0.25000000000E+03 0.  0.
    5000001    1    1    2    0    0  0.37404434400E+03 -0.79716598485E+01 -0.14941872557E+04  0.15604705296E+04  0.25000000000E+03 0.  0.
<mgrwt>
<rscale>  0 0.92845736E+03</rscale>
<asrwt>0</asrwt>
<pdfrwt beam="1">  1        2 0.62322416E+00 0.92845736E+03</pdfrwt>
<pdfrwt beam="2">  1       -2 0.81845148E-02 0.92845736E+03</pdfrwt>
<totfact> 0.31660930E+01</totfact>
</mgrwt>
</event>
<event>
 4    1  0.1773996E-005  0.9024952E+03  0.7818608E-02  0.9422468E-01
         -2   -1    0    0    0  501 -0.00000000000E+00  0.00000000000E+00  0.49387249172E+03  0.49387249172E+03  0.25500000000E-02 0. -1.
          2   -1    0    0  501    0  0.00000000000E+00 -0.00000000000E+00 -0.41230157473E+03  0.41230157474E+03  0.25500000000E-02 0.  1.
   -5000001    1    1    2    0    0  0.27321248744E+03  0.23086071257E+03  0.15606930987E+03  0.46346452009E+03  0.25000000000E+03 0.  0.
    5000001    1    1    2    0    0 -0.27321248744E+03 -0.23086071257E+03 -0.74498392880E+02  0.44270954637E+03  0.25000000000E+03 0.  0.
<mgrwt>
<rscale>  0 0.90249522E+03</rscale>
<asrwt>0</asrwt>
<pdfrwt beam="1">  1        2 0.63431012E-01 0.90249522E+03</pdfrwt>
<pdfrwt beam="2">  1       -2 0.75980383E-01 0.90249522E+03</pdfrwt>
<totfact> 0.11967045E+02</totfact>
</mgrwt>
</event>
<event>
 4    1  0.1773996E-005  0.6810561E+03  0.7818608E-02  0.9750189E-01
          2   -1    0    0  501    0  0.00000000000E+00  0.00000000000E+00  0.15375286736E+03  0.15375286738E+03  0.25500000000E-02 0.  1.
         -2   -1    0    0    0  501 -0.00000000000E+00 -0.00000000000E+00 -0.75419313689E+03  0.75419313689E+03  0.25500000000E-02 0. -1.
   -5000001    1    1    2    0    0 -0.57878600905E+02  0.11909761913E+03 -0.55290347823E+03  0.62107683225E+03  0.25000000000E+03 0.  0.
    5000001    1    1    2    0    0  0.57878600905E+02 -0.11909761913E+03 -0.47536791303E+02  0.28686917202E+03  0.25000000000E+03 0.  0.
<mgrwt>
<rscale>  0 0.68105611E+03</rscale>
<asrwt>0</asrwt>
<pdfrwt beam="1">  1        2 0.23654288E-01 0.68105611E+03</pdfrwt>
<pdfrwt beam="2">  1       -2 0.11602971E+00 0.68105611E+03</pdfrwt>
<totfact> 0.13631043E+02</totfact>
</mgrwt>
</event>
<event>
 4    1  0.1773996E-005  0.1283052E+04  0.7818608E-02  0.9043114E-01
          2   -1    0    0  501    0  0.00000000000E+00  0.00000000000E+00  0.10305495585E+04  0.10305495586E+04  0.25500000000E-02 0.  1.
         -2   -1    0    0    0  501 -0.00000000000E+00 -0.00000000000E+00 -0.39935563071E+03  0.39935563072E+03  0.25500000000E-02 0. -1.
   -5000001    1    1    2    0    0 -0.45293293612E+03  0.36414841570E+03  0.19711056043E+03  0.66264989724E+03  0.25000000000E+03 0.  0.
    5000001    1    1    2    0    0  0.45293293612E+03 -0.36414841570E+03  0.43408336741E+03  0.76725529203E+03  0.25000000000E+03 0.  0.
<mgrwt>
<rscale>  0 0.12830522E+04</rscale>
<asrwt>0</asrwt>
<pdfrwt beam="1">  1        2 0.15854609E+00 0.12830522E+04</pdfrwt>
<pdfrwt beam="2">  1       -2 0.61439328E-01 0.12830522E+04</pdfrwt>
<totfact> 0.58206569E+01</totfact>
</mgrwt>
</event>
<event>
 4    1  0.1773996E-005  0.8699310E+03  0.7818608E-02  0.9463970E-01
         -2   -1    0    0    0  501 -0.00000000000E+00  0.00000000000E+00  0.22322406250E+03  0.22322406251E+03  0.25500000000E-02 0. -1.
          2   -1    0    0  501    0  0.00000000000E+00 -0.00000000000E+00 -0.84755643733E+03  0.84755643733E+03  0.25500000000E-02 0.  1.
   -5000001    1    1    2    0    0 -0.33791487370E+03 -0.45874587664E+02 -0.43771623655E+03  0.60859382465E+03  0.25000000000E+03 0.  0.
    5000001    1    1    2    0    0  0.33791487370E+03  0.45874587664E+02 -0.18661613829E+03  0.46218667520E+03  0.25000000000E+03 0.  0.
<mgrwt>
<rscale>  0 0.86993101E+03</rscale>
<asrwt>0</asrwt>
<pdfrwt beam="1">  1        2 0.13039330E+00 0.86993101E+03</pdfrwt>
<pdfrwt beam="2">  1       -2 0.34342164E-01 0.86993101E+03</pdfrwt>
<totfact> 0.25381465E+02</totfact>
</mgrwt>
</event>
<event>
 4    1  0.1773996E-005  0.1297745E+04  0.7818608E-02  0.9031355E-01
         -2   -1    0    0    0  501 -0.00000000000E+00  0.00000000000E+00  0.53679141176E+03  0.53679141177E+03  0.25500000000E-02 0. -1.
          2   -1    0    0  501    0  0.00000000000E+00 -0.00000000000E+00 -0.78435575087E+03  0.78435575087E+03  0.25500000000E-02 0.  1.
   -5000001    1    1    2    0    0 -0.83404767805E+02 -0.55108228582E+03  0.98995912928E+02  0.61882811169E+03  0.25000000000E+03 0.  0.
    5000001    1    1    2    0    0  0.83404767805E+02  0.55108228582E+03 -0.34656025204E+03  0.70231905095E+03  0.25000000000E+03 0.  0.
<mgrwt>
<rscale>  0 0.12977449E+04</rscale>
<asrwt>0</asrwt>
<pdfrwt beam="1">  1        2 0.12067012E+00 0.12977449E+04</pdfrwt>
<pdfrwt beam="2">  1       -2 0.82583294E-01 0.12977449E+04</pdfrwt>
<totfact> 0.44617303E+01</totfact>
</mgrwt>
</event>
<event>
 4    1  0.1773996E-005  0.7353595E+03  0.7818608E-02  0.9658603E-01
         -2   -1    0    0    0  501 -0.00000000000E+00  0.00000000000E+00  0.78510952361E+02  0.78510952402E+02  0.25500000000E-02 0. -1.
          2   -1    0    0  501    0  0.00000000000E+00 -0.00000000000E+00 -0.17219051189E+04  0.17219051189E+04  0.25500000000E-02 0.  1.
   -5000001    1    1    2    0    0 -0.20537022719E+03  0.15921852728E+03 -0.64580851760E+03  0.73965945614E+03  0.25000000000E+03 0.  0.
    5000001    1    1    2    0    0  0.20537022719E+03 -0.15921852728E+03 -0.99758564889E+03  0.10607566151E+04  0.25000000000E+03 0.  0.
<mgrwt>
<rscale>  0 0.73535953E+03</rscale>
<asrwt>0</asrwt>
<pdfrwt beam="1">  1        2 0.26490845E+00 0.73535953E+03</pdfrwt>
<pdfrwt beam="2">  1       -2 0.12078609E-01 0.73535953E+03</pdfrwt>
<totfact> 0.48864271E+02</totfact>
</mgrwt>
</event>
<event>
 4    1  0.1773996E-005  0.1610362E+04  0.7818608E-02  0.8814207E-01
          2   -1    0    0  501    0  0.00000000000E+00  0.00000000000E+00  0.15784160974E+04  0.15784160974E+04  0.25500000000E-02 0.  1.
         -2   -1    0    0    0  501 -0.00000000000E+00 -0.00000000000E+00 -0.41073863927E+03  0.41073863928E+03  0.25500000000E-02 0. -1.
   -5000001    1    1    2    0    0 -0.23860611715E+03 -0.65403254293E+03  0.19103610389E+03  0.76399361211E+03  0.25000000000E+03 0.  0.
    5000001    1    1    2    0    0  0.23860611715E+03  0.65403254293E+03  0.97664135427E+03  0.12251611246E+04  0.25000000000E+03 0.  0.
<mgrwt>
<rscale>  0 0.16103620E+04</rscale>
<asrwt>0</asrwt>
<pdfrwt beam="1">  1        2 0.24283324E+00 0.16103620E+04</pdfrwt>
<pdfrwt beam="2">  1       -2 0.63190561E-01 0.16103620E+04</pdfrwt>
<totfact> 0.25482170E+01</totfact>
</mgrwt>
</event>
<event>
 4    1  0.1773996E-005  0.5809164E+03  0.7818608E-02  0.9945809E-01
          2   -1    0    0  501    0  0.00000000000E+00  0.00000000000E+00  0.20599494319E+04  0.20599494319E+04  0.25500000000E-02 0.  1.
         -2   -1    0    0    0  501 -0.00000000000E+00 -0.00000000000E+00 -0.40955363350E+02  0.40955363429E+02  0.25500000000E-02 0. -1.
   -5000001    1    1    2    0    0  0.27795952774E+02 -0.14206538934E+03  0.11186413913E+04  0.11553414007E+04  0.25000000000E+03 0.  0.
    5000001    1    1    2    0    0 -0.27795952774E+02  0.14206538934E+03  0.90035267731E+03  0.94556339469E+03  0.25000000000E+03 0.  0.
<mgrwt>
<rscale>  0 0.58091644E+03</rscale>
<asrwt>0</asrwt>
<pdfrwt beam="1">  1        2 0.31691525E+00 0.58091644E+03</pdfrwt>
<pdfrwt beam="2">  1       -2 0.63008260E-02 0.58091644E+03</pdfrwt>
<totfact> 0.92151433E+02</totfact>
</mgrwt>
</event>
<event>
 4    1  0.1773996E-005  0.6286297E+03  0.7818608E-02  0.9847726E-01
         -2   -1    0    0    0  501 -0.00000000000E+00  0.00000000000E+00  0.14692962737E+03  0.14692962739E+03  0.25500000000E-02 0. -1.
          2   -1    0    0  501    0  0.00000000000E+00 -0.00000000000E+00 -0.67238881367E+03  0.67238881367E+03  0.25500000000E-02 0.  1.
   -5000001    1    1    2    0    0  0.56995422826E+01 -0.17485348400E+03 -0.16443654698E+03  0.34662025854E+03  0.25000000000E+03 0.  0.
    5000001    1    1    2    0    0 -0.56995422826E+01  0.17485348400E+03 -0.36102263933E+03  0.47269818252E+03  0.25000000000E+03 0.  0.
<mgrwt>
<rscale>  0 0.62862974E+03</rscale>
<asrwt>0</asrwt>
<pdfrwt beam="1">  1        2 0.10344443E+00 0.62862974E+03</pdfrwt>
<pdfrwt beam="2">  1       -2 0.22604559E-01 0.62862974E+03</pdfrwt>
<totfact> 0.74452835E+02</totfact>
</mgrwt>
</event>
<event>
 4    1  0.1773996E-005  0.7172076E+03  0.7818608E-02  0.9688249E-01
          2   -1    0    0  501    0  0.00000000000E+00  0.00000000000E+00  0.11592181448E+04  0.11592181448E+04  0.25500000000E-02 0.  1.
         -2   -1    0    0    0  501 -0.00000000000E+00 -0.00000000000E+00 -0.11093399016E+03  0.11093399019E+03  0.25500000000E-02 0. -1.
   -5000001    1    1    2    0    0  0.25061495595E+03 -0.22077291256E+02  0.43040728167E+03  0.55771470399E+03  0.25000000000E+03 0.  0.
    5000001    1    1    2    0    0 -0.25061495595E+03  0.22077291256E+02  0.61787687292E+03  0.71243743096E+03  0.25000000000E+03 0.  0.
<mgrwt>
<rscale>  0 0.71720762E+03</rscale>
<asrwt>0</asrwt>
<pdfrwt beam="1">  1        2 0.17834126E+00 0.71720762E+03</pdfrwt>
<pdfrwt beam="2">  1       -2 0.17066767E-01 0.71720762E+03</pdfrwt>
<totfact> 0.56810548E+02</totfact>
</mgrwt>
</event>
<event>
 4    1  0.1773996E-005  0.1142356E+04  0.7818608E-02  0.9164865E-01
          2   -1    0    0  501    0  0.00000000000E+00  0.00000000000E+00  0.52583467170E+03  0.52583467170E+03  0.25500000000E-02 0.  1.
         -2   -1    0    0    0  501 -0.00000000000E+00 -0.00000000000E+00 -0.62043121096E+03  0.62043121096E+03  0.25500000000E-02 0. -1.
   -5000001    1    1    2    0    0 -0.39758296517E+03  0.97481847666E+02  0.26387494712E+03  0.54745311446E+03  0.25000000000E+03 0.  0.
    5000001    1    1    2    0    0  0.39758296517E+03 -0.97481847666E+02 -0.35847148638E+03  0.59881276821E+03  0.25000000000E+03 0.  0.
<mgrwt>
<rscale>  0 0.11423559E+04</rscale>
<asrwt>0</asrwt>
<pdfrwt beam="1">  1        2 0.80897642E-01 0.11423559E+04</pdfrwt>
<pdfrwt beam="2">  1       -2 0.95450955E-01 0.11423559E+04</pdfrwt>
<totfact> 0.53011416E+01</totfact>
</mgrwt>
</event>
<event>
 4    1  0.1773996E-005  0.8245258E+03  0.7818608E-02  0.9525180E-01
          2   -1    0    0  501    0  0.00000000000E+00  0.00000000000E+00  0.12423353491E+04  0.12423353491E+04  0.25500000000E-02 0.  1.
         -2   -1    0    0    0  501 -0.00000000000E+00 -0.00000000000E+00 -0.13680743568E+03  0.13680743570E+03  0.25500000000E-02 0. -1.
   -5000001    1    1    2    0    0 -0.21525354149E+03 -0.24251120127E+03  0.47228632957E+03  0.62506011468E+03  0.25000000000E+03 0.  0.
    5000001    1    1    2    0    0  0.21525354149E+03  0.24251120127E+03  0.63324158386E+03  0.75408267013E+03  0.25000000000E+03 0.  0.
<mgrwt>
<rscale>  0 0.82452584E+03</rscale>
<asrwt>0</asrwt>
<pdfrwt beam="1">  1        2 0.19112851E+00 0.82452584E+03</pdfrwt>
<pdfrwt beam="2">  1       -2 0.21047299E-01 0.82452584E+03</pdfrwt>
<totfact> 0.35048003E+02</totfact>
</mgrwt>
</event>
<event>
 4    1  0.1773996E-005  0.6616034E+03  0.7818608E-02  0.9785247E-01
         -2   -1    0    0    0  501 -0.00000000000E+00  0.00000000000E+00  0.11565142786E+03  0.11565142789E+03  0.25500000000E-02 0. -1.
          2   -1    0    0  501    0  0.00000000000E+00 -0.00000000000E+00 -0.94620338401E+03  0.94620338401E+03  0.25500000000E-02 0.  1.
   -5000001    1    1    2    0    0 -0.12472347230E+03 -0.13130734646E+03 -0.60607336217E+03  0.68016357159E+03  0.25000000000E+03 0.  0.
    5000001    1    1    2    0    0  0.12472347230E+03  0.13130734646E+03 -0.22447859398E+03  0.38169124031E+03  0.25000000000E+03 0.  0.
<mgrwt>
<rscale>  0 0.66160342E+03</rscale>
<asrwt>0</asrwt>
<pdfrwt beam="1">  1        2 0.14556975E+00 0.66160342E+03</pdfrwt>
<pdfrwt beam="2">  1       -2 0.17792528E-01 0.66160342E+03</pdfrwt>
<totfact> 0.71939748E+02</totfact>
</mgrwt>
</event>
<event>
 4    1  0.1773996E-005  0.1033602E+04  0.7818608E-02  0.9272440E-01
          2   -1    0    0  501    0  0.00000000000E+00  0.00000000000E+00  0.14269546673E+04  0.14269546673E+04  0.25500000000E-02 0.  1.
         -2   -1    0    0    0  501 -0.00000000000E+00 -0.00000000000E+00 -0.18717010598E+03  0.18717010600E+03  0.25500000000E-02 0. -1.
   -5000001    1    1    2    0    0  0.44224266205E+03 -0.48101865455E+02  0.74763197559E+03  0.90517729342E+03  0.25000000000E+03 0.  0.
    5000001    1    1    2    0    0 -0.44224266205E+03  0.48101865455E+02  0.49215258574E+03  0.70894747989E+03  0.25000000000E+03 0.  0.
<mgrwt>
<rscale>  0 0.10336020E+04</rscale>
<asrwt>0</asrwt>
<pdfrwt beam="1">  1        2 0.21953149E+00 0.10336020E+04</pdfrwt>
<pdfrwt beam="2">  1       -2 0.28795400E-01 0.10336020E+04</pdfrwt>
<totfact> 0.15388242E+02</totfact>
</mgrwt>
</event>
<event>
 4    1  0.1773996E-005  0.7072053E+03  0.7818608E-02  0.9704989E-01
          2   -1    0    0  501    0  0.00000000000E+00  0.00000000000E+00  0.14374574726E+04  0.14374574726E+04  0.25500000000E-02 0.  1.
         -2   -1    0    0    0  501 -0.00000000000E+00 -0.00000000000E+00 -0.86983321728E+02  0.86983321766E+02  0.25500000000E-02 0. -1.
   -5000001    1    1    2    0    0  0.20705498685E+03  0.15283612021E+02  0.37477093341E+03  0.49604295066E+03  0.25000000000E+03 0.  0.
    5000001    1    1    2    0    0 -0.20705498685E+03 -0.15283612021E+02  0.97570321749E+03  0.10283978437E+04  0.25000000000E+03 0.  0.
<mgrwt>
<rscale>  0 0.70720528E+03</rscale>
<asrwt>0</asrwt>
<pdfrwt beam="1">  1        2 0.22114729E+00 0.70720528E+03</pdfrwt>
<pdfrwt beam="2">  1       -2 0.13382050E-01 0.70720528E+03</pdfrwt>
<totfact> 0.59259587E+02</totfact>
</mgrwt>
</event>
<event>
 4    1  0.1773996E-005  0.1005137E+04  0.7818608E-02  0.9302928E-01
         -2   -1    0    0    0  501 -0.00000000000E+00  0.00000000000E+00  0.14522269507E+03  0.14522269510E+03  0.25500000000E-02 0. -1.
          2   -1    0    0  501    0  0.00000000000E+00 -0.00000000000E+00 -0.17392277727E+04  0.17392277727E+04  0.25500000000E-02 0.  1.
   -5000001    1    1    2    0    0  0.33106802084E+03 -0.23983530444E+03 -0.10810133433E+04  0.11824622007E+04  0.25000000000E+03 0.  0.
    5000001    1    1    2    0    0 -0.33106802084E+03  0.23983530444E+03 -0.51299173438E+03  0.70198826715E+03  0.25000000000E+03 0.  0.
<mgrwt>
<rscale>  0 0.10051375E+04</rscale>
<asrwt>0</asrwt>
<pdfrwt beam="1">  1        2 0.26757349E+00 0.10051375E+04</pdfrwt>
<pdfrwt beam="2">  1       -2 0.22341954E-01 0.10051375E+04</pdfrwt>
<totfact> 0.16363145E+02</totfact>
</mgrwt>
</event>
<event>
 4    1  0.1773996E-005  0.8863479E+03  0.7818608E-02  0.9442810E-01
          2   -1    0    0  501    0  0.00000000000E+00  0.00000000000E+00  0.69903724999E+03  0.69903725000E+03  0.25500000000E-02 0.  1.
         -2   -1    0    0    0  501 -0.00000000000E+00 -0.00000000000E+00 -0.28096233108E+03  0.28096233109E+03  0.25500000000E-02 0. -1.
   -5000001    1    1    2    0    0  0.34246881311E+02 -0.17019587785E+03  0.56519677279E+03  0.64193993309E+03  0.25000000000E+03 0.  0.
    5000001    1    1    2    0    0 -0.34246881311E+02  0.17019587785E+03 -0.14712185388E+03  0.33805964800E+03  0.25000000000E+03 0.  0.
<mgrwt>
<rscale>  0 0.88634787E+03</rscale>
<asrwt>0</asrwt>
<pdfrwt beam="1">  1        2 0.10754419E+00 0.88634787E+03</pdfrwt>
<pdfrwt beam="2">  1       -2 0.43224974E-01 0.88634787E+03</pdfrwt>
<totfact> 0.20896845E+02</totfact>
</mgrwt>
</event>
<event>
 4    1  0.1773996E-005  0.7018939E+03  0.7818608E-02  0.9713999E-01
         -2   -1    0    0    0  501 -0.00000000000E+00  0.00000000000E+00  0.14259782644E+03  0.14259782646E+03  0.25500000000E-02 0. -1.
          2   -1    0    0  501    0  0.00000000000E+00 -0.00000000000E+00 -0.86371404777E+03  0.86371404778E+03  0.25500000000E-02 0.  1.
   -5000001    1    1    2    0    0  0.31849127926E+02  0.18100977338E+03 -0.59563768321E+03  0.67161235447E+03  0.25000000000E+03 0.  0.
    5000001    1    1    2    0    0 -0.31849127926E+02 -0.18100977338E+03 -0.12547853812E+03  0.33469951977E+03  0.25000000000E+03 0.  0.
<mgrwt>
<rscale>  0 0.70189385E+03</rscale>
<asrwt>0</asrwt>
<pdfrwt beam="1">  1        2 0.13287908E+00 0.70189385E+03</pdfrwt>
<pdfrwt beam="2">  1       -2 0.21938128E-01 0.70189385E+03</pdfrwt>
<totfact> 0.56608970E+02</totfact>
</mgrwt>
</event>
<event>
 4    1  0.1773996E-005  0.1361427E+04  0.7818608E-02  0.8982223E-01
         -2   -1    0    0    0  501 -0.00000000000E+00  0.00000000000E+00  0.16216698561E+03  0.16216698563E+03  0.25500000000E-02 0. -1.
          2   -1    0    0  501    0  0.00000000000E+00 -0.00000000000E+00 -0.28573675712E+04  0.28573675712E+04  0.25500000000E-02 0.  1.
   -5000001    1    1    2    0    0 -0.31722322862E+03  0.52799044896E+03 -0.10226452623E+04  0.12197162881E+04  0.25000000000E+03 0.  0.
    5000001    1    1    2    0    0  0.31722322862E+03 -0.52799044896E+03 -0.16725553233E+04  0.17998182688E+04  0.25000000000E+03 0.  0.
<mgrwt>
<rscale>  0 0.13614267E+04</rscale>
<asrwt>0</asrwt>
<pdfrwt beam="1">  1        2 0.43959497E+00 0.13614267E+04</pdfrwt>
<pdfrwt beam="2">  1       -2 0.24948769E-01 0.13614267E+04</pdfrwt>
<totfact> 0.30229928E+01</totfact>
</mgrwt>
</event>
<event>
 4    1  0.1773996E-005  0.1214012E+04  0.7818608E-02  0.9100680E-01
         -2   -1    0    0    0  501 -0.00000000000E+00  0.00000000000E+00  0.35462447387E+03  0.35462447388E+03  0.25500000000E-02 0. -1.
          2   -1    0    0  501    0  0.00000000000E+00 -0.00000000000E+00 -0.10390034400E+04  0.10390034400E+04  0.25500000000E-02 0.  1.
   -5000001    1    1    2    0    0 -0.30192806098E+03 -0.26853543663E+03  0.91433166495E+02  0.48387173783E+03  0.25000000000E+03 0.  0.
    5000001    1    1    2    0    0  0.30192806098E+03  0.26853543663E+03 -0.77581213267E+03  0.90975617609E+03  0.25000000000E+03 0.  0.
<mgrwt>
<rscale>  0 0.12140116E+04</rscale>
<asrwt>0</asrwt>
<pdfrwt beam="1">  1        2 0.15984668E+00 0.12140116E+04</pdfrwt>
<pdfrwt beam="2">  1       -2 0.54557612E-01 0.12140116E+04</pdfrwt>
<totfact> 0.74133644E+01</totfact>
</mgrwt>
</event>
<event>
 4    1  0.1773996E-005  0.7100277E+03  0.7818608E-02  0.9700235E-01
         -2   -1    0    0    0  501 -0.00000000000E+00  0.00000000000E+00  0.26691941619E+03  0.26691941621E+03  0.25500000000E-02 0. -1.
          2   -1    0    0  501    0  0.00000000000E+00 -0.00000000000E+00 -0.47218312923E+03  0.47218312924E+03  0.25500000000E-02 0.  1.
   -5000001    1    1    2    0    0 -0.19558556935E+03 -0.84574111902E+01  0.62645129591E+02  0.32365051368E+03  0.25000000000E+03 0.  0.
    5000001    1    1    2    0    0  0.19558556935E+03  0.84574111902E+01 -0.26790884263E+03  0.41545203177E+03  0.25000000000E+03 0.  0.
<mgrwt>
<rscale>  0 0.71002773E+03</rscale>
<asrwt>0</asrwt>
<pdfrwt beam="1">  1        2 0.72643558E-01 0.71002773E+03</pdfrwt>
<pdfrwt beam="2">  1       -2 0.41064526E-01 0.71002773E+03</pdfrwt>
<totfact> 0.37257813E+02</totfact>
</mgrwt>
</event>
<event>
 4    1  0.1773996E-005  0.9261532E+03  0.7818608E-02  0.9393466E-01
          2   -1    0    0  501    0  0.00000000000E+00  0.00000000000E+00  0.45351361289E+03  0.45351361289E+03  0.25500000000E-02 0.  1.
         -2   -1    0    0    0  501 -0.00000000000E+00 -0.00000000000E+00 -0.47284128518E+03  0.47284128518E+03  0.25500000000E-02 0. -1.
   -5000001    1    1    2    0    0 -0.29887738112E+03 -0.20958760759E+03 -0.14638780229E+03  0.46603008793E+03  0.25000000000E+03 0.  0.
    5000001    1    1    2    0    0  0.29887738112E+03  0.20958760759E+03  0.12706012999E+03  0.46032481015E+03  0.25000000000E+03 0.  0.
<mgrwt>
<rscale>  0 0.92615325E+03</rscale>
<asrwt>0</asrwt>
<pdfrwt beam="1">  1        2 0.69771325E-01 0.92615325E+03</pdfrwt>
<pdfrwt beam="2">  1       -2 0.72744813E-01 0.92615325E+03</pdfrwt>
<totfact> 0.11809683E+02</totfact>
</mgrwt>
</event>
<event>
 4    1  0.1773996E-005  0.5987815E+03  0.7818608E-02  0.9907937E-01
         -2   -1    0    0    0  501 -0.00000000000E+00  0.00000000000E+00  0.95982993483E+02  0.95982993517E+02  0.25500000000E-02 0. -1.
          2   -1    0    0  501    0  0.00000000000E+00 -0.00000000000E+00 -0.93386139017E+03  0.93386139017E+03  0.25500000000E-02 0.  1.
   -5000001    1    1    2    0    0 -0.12028547691E+03 -0.10894855551E+03 -0.37040179641E+03  0.47543230274E+03  0.25000000000E+03 0.  0.
    5000001    1    1    2    0    0  0.12028547691E+03  0.10894855551E+03 -0.46747660027E+03  0.55441208095E+03  0.25000000000E+03 0.  0.
<mgrwt>
<rscale>  0 0.59878147E+03</rscale>
<asrwt>0</asrwt>
<pdfrwt beam="1">  1        2 0.14367098E+00 0.59878147E+03</pdfrwt>
<pdfrwt beam="2">  1       -2 0.14766615E-01 0.59878147E+03</pdfrwt>
<totfact> 0.10081205E+03</totfact>
</mgrwt>
</event>
<event>
 4    1  0.1773996E-005  0.1086595E+04  0.7818608E-02  0.9218357E-01
         -2   -1    0    0    0  501 -0.00000000000E+00  0.00000000000E+00  0.21954939569E+03  0.21954939571E+03  0.25500000000E-02 0. -1.
          2   -1    0    0  501    0  0.00000000000E+00 -0.00000000000E+00 -0.13444441957E+04  0.13444441957E+04  0.25500000000E-02 0.  1.
   -5000001    1    1    2    0    0  0.21744249009E+03 -0.35604741186E+03 -0.91094015651E+03  0.10326485195E+04  0.25000000000E+03 0.  0.
    5000001    1    1    2    0    0 -0.21744249009E+03  0.35604741186E+03 -0.21395464345E+03  0.53134507191E+03  0.25000000000E+03 0.  0.
<mgrwt>
<rscale>  0 0.10865945E+04</rscale>
<asrwt>0</asrwt>
<pdfrwt beam="1">  1        2 0.20683756E+00 0.10865945E+04</pdfrwt>
<pdfrwt beam="2">  1       -2 0.33776831E-01 0.10865945E+04</pdfrwt>
<totfact> 0.12678071E+02</totfact>
</mgrwt>
</event>
<event>
 4    1  0.1773996E-005  0.6287988E+03  0.7818608E-02  0.9847396E-01
          2   -1    0    0  501    0  0.00000000000E+00  0.00000000000E+00  0.22679318801E+04  0.22679318801E+04  0.25500000000E-02 0.  1.
         -2   -1    0    0    0  501 -0.00000000000E+00 -0.00000000000E+00 -0.43584637117E+02  0.43584637192E+02  0.25500000000E-02 0. -1.
   -5000001    1    1    2    0    0 -0.57958837486E+02 -0.10235290093E+03  0.16637287155E+04  0.16865137361E+04  0.25000000000E+03 0.  0.
    5000001    1    1    2    0    0  0.57958837486E+02  0.10235290093E+03  0.56061852741E+03  0.62500278116E+03  0.25000000000E+03 0.  0.
<mgrwt>
<rscale>  0 0.62879882E+03</rscale>
<asrwt>0</asrwt>
<pdfrwt beam="1">  1        2 0.34891266E+00 0.62879882E+03</pdfrwt>
<pdfrwt beam="2">  1       -2 0.67053276E-02 0.62879882E+03</pdfrwt>
<totfact> 0.64093098E+02</totfact>
</mgrwt>
</event>
<event>
 4    1  0.1773996E-005  0.8483411E+03  0.7818608E-02  0.9492566E-01
         -2   -1    0    0    0  501 -0.00000000000E+00  0.00000000000E+00  0.64180552262E+02  0.64180552313E+02  0.25500000000E-02 0. -1.
          2   -1    0    0  501    0  0.00000000000E+00 -0.00000000000E+00 -0.28033514669E+04  0.28033514669E+04  0.25500000000E-02 0.  1.
   -5000001    1    1    2    0    0 -0.10323924026E+03  0.32391006222E+03 -0.15147585365E+04  0.15724406167E+04  0.25000000000E+03 0.  0.
    5000001    1    1    2    0    0  0.10323924026E+03 -0.32391006222E+03 -0.12244123781E+04  0.12950914025E+04  0.25000000000E+03 0.  0.
<mgrwt>
<rscale>  0 0.84834108E+03</rscale>
<asrwt>0</asrwt>
<pdfrwt beam="1">  1        2 0.43128475E+00 0.84834108E+03</pdfrwt>
<pdfrwt beam="2">  1       -2 0.98739333E-02 0.84834108E+03</pdfrwt>
<totfact> 0.16727079E+02</totfact>
</mgrwt>
</event>
<event>
 4    1  0.1773996E-005  0.6609040E+03  0.7818608E-02  0.9786531E-01
         -2   -1    0    0    0  501 -0.00000000000E+00  0.00000000000E+00  0.13038310526E+03  0.13038310529E+03  0.25500000000E-02 0. -1.
          2   -1    0    0  501    0  0.00000000000E+00 -0.00000000000E+00 -0.83752060231E+03  0.83752060231E+03  0.25500000000E-02 0.  1.
   -5000001    1    1    2    0    0 -0.11824265349E+03 -0.38875339557E+02 -0.61227816812E+03  0.67296149391E+03  0.25000000000E+03 0.  0.
    5000001    1    1    2    0    0  0.11824265349E+03  0.38875339557E+02 -0.94859328930E+02  0.29494221369E+03  0.25000000000E+03 0.  0.
<mgrwt>
<rscale>  0 0.66090404E+03</rscale>
<asrwt>0</asrwt>
<pdfrwt beam="1">  1        2 0.12884932E+00 0.66090404E+03</pdfrwt>
<pdfrwt beam="2">  1       -2 0.20058940E-01 0.66090404E+03</pdfrwt>
<totfact> 0.69174468E+02</totfact>
</mgrwt>
</event>
<event>
 4    1  0.1773996E-005  0.8008287E+03  0.7818608E-02  0.9558818E-01
         -2   -1    0    0    0  501 -0.00000000000E+00  0.00000000000E+00  0.95236800258E+02  0.95236800292E+02  0.25500000000E-02 0. -1.
          2   -1    0    0  501    0  0.00000000000E+00 -0.00000000000E+00 -0.16835050876E+04  0.16835050876E+04  0.25500000000E-02 0.  1.
   -5000001    1    1    2    0    0 -0.22847689190E+03 -0.10250775366E+03 -0.12103931182E+04  0.12610555222E+04  0.25000000000E+03 0.  0.
    5000001    1    1    2    0    0  0.22847689190E+03  0.10250775366E+03 -0.37787516918E+03  0.51768636564E+03  0.25000000000E+03 0.  0.
<mgrwt>
<rscale>  0 0.80082867E+03</rscale>
<asrwt>0</asrwt>
<pdfrwt beam="1">  1        2 0.25900076E+00 0.80082867E+03</pdfrwt>
<pdfrwt beam="2">  1       -2 0.14651817E-01 0.80082867E+03</pdfrwt>
<totfact> 0.36986417E+02</totfact>
</mgrwt>
</event>
<event>
 4    1  0.1773996E-005  0.1339165E+04  0.7818608E-02  0.8999071E-01
          2   -1    0    0  501    0  0.00000000000E+00  0.00000000000E+00  0.14506449967E+04  0.14506449967E+04  0.25500000000E-02 0.  1.
         -2   -1    0    0    0  501 -0.00000000000E+00 -0.00000000000E+00 -0.30906311685E+03  0.30906311686E+03  0.25500000000E-02 0. -1.
   -5000001    1    1    2    0    0  0.57869120540E+03 -0.11970301938E+03  0.31930350974E+03  0.71670569649E+03  0.25000000000E+03 0.  0.
    5000001    1    1    2    0    0 -0.57869120540E+03  0.11970301938E+03  0.82227837015E+03  0.10430024171E+04  0.25000000000E+03 0.  0.
<mgrwt>
<rscale>  0 0.13391652E+04</rscale>
<asrwt>0</asrwt>
<pdfrwt beam="1">  1        2 0.22317616E+00 0.13391652E+04</pdfrwt>
<pdfrwt beam="2">  1       -2 0.47548171E-01 0.13391652E+04</pdfrwt>
<totfact> 0.55456462E+01</totfact>
</mgrwt>
</event>
<event>
 4    1  0.1773996E-005  0.6305499E+03  0.7818608E-02  0.9843976E-01
          2   -1    0    0  501    0  0.00000000000E+00  0.00000000000E+00  0.11257044416E+04  0.11257044416E+04  0.25500000000E-02 0.  1.
         -2   -1    0    0    0  501 -0.00000000000E+00 -0.00000000000E+00 -0.88298744282E+02  0.88298744318E+02  0.25500000000E-02 0. -1.
   -5000001    1    1    2    0    0 -0.38216716899E+02 -0.18418237421E+03  0.59363234742E+03  0.67103131695E+03  0.25000000000E+03 0.  0.
    5000001    1    1    2    0    0  0.38216716899E+02  0.18418237421E+03  0.44377334991E+03  0.54297186899E+03  0.25000000000E+03 0.  0.
<mgrwt>
<rscale>  0 0.63054988E+03</rscale>
<asrwt>0</asrwt>
<pdfrwt beam="1">  1        2 0.17318530E+00 0.63054988E+03</pdfrwt>
<pdfrwt beam="2">  1       -2 0.13584422E-01 0.63054988E+03</pdfrwt>
<totfact> 0.87832156E+02</totfact>
</mgrwt>
</event>
<event>
 4    1  0.1773996E-005  0.8638861E+03  0.7818608E-02  0.9471887E-01
         -2   -1    0    0    0  501 -0.00000000000E+00  0.00000000000E+00  0.42034783979E+03  0.42034783980E+03  0.25500000000E-02 0. -1.
          2   -1    0    0  501    0  0.00000000000E+00 -0.00000000000E+00 -0.44385813205E+03  0.44385813206E+03  0.25500000000E-02 0.  1.
   -5000001    1    1    2    0    0  0.31075148426E+03 -0.58020272517E+02  0.14367924625E+03  0.42787447084E+03  0.25000000000E+03 0.  0.
    5000001    1    1    2    0    0 -0.31075148426E+03  0.58020272517E+02 -0.16718953851E+03  0.43633150102E+03  0.25000000000E+03 0.  0.
<mgrwt>
<rscale>  0 0.86388612E+03</rscale>
<asrwt>0</asrwt>
<pdfrwt beam="1">  1        2 0.68285866E-01 0.86388612E+03</pdfrwt>
<pdfrwt beam="2">  1       -2 0.64668899E-01 0.86388612E+03</pdfrwt>
<totfact> 0.15680481E+02</totfact>
</mgrwt>
</event>
<event>
 4    1  0.1773996E-005  0.7986338E+03  0.7818608E-02  0.9561997E-01
         -2   -1    0    0    0  501 -0.00000000000E+00  0.00000000000E+00  0.24988490841E+03  0.24988490842E+03  0.25500000000E-02 0. -1.
          2   -1    0    0  501    0  0.00000000000E+00 -0.00000000000E+00 -0.63810965771E+03  0.63810965771E+03  0.25500000000E-02 0.  1.
   -5000001    1    1    2    0    0  0.26091403734E+03 -0.56549753637E+02 -0.37229273947E+03  0.52189643932E+03  0.25000000000E+03 0.  0.
    5000001    1    1    2    0    0 -0.26091403734E+03  0.56549753637E+02 -0.15932009822E+02  0.36609812681E+03  0.25000000000E+03 0.  0.
<mgrwt>
<rscale>  0 0.79863377E+03</rscale>
<asrwt>0</asrwt>
<pdfrwt beam="1">  1        2 0.98170716E-01 0.79863377E+03</pdfrwt>
<pdfrwt beam="2">  1       -2 0.38443832E-01 0.79863377E+03</pdfrwt>
<totfact> 0.29567139E+02</totfact>
</mgrwt>
</event>
<event>
 4    1  0.1773996E-005  0.7812382E+03  0.7818608E-02  0.9587578E-01
          2   -1    0    0  501    0  0.00000000000E+00  0.00000000000E+00  0.20644238347E+04  0.20644238347E+04  0.25500000000E-02 0.  1.
         -2   -1    0    0    0  501 -0.00000000000E+00 -0.00000000000E+00 -0.73910823747E+02  0.73910823791E+02  0.25500000000E-02 0. -1.
   -5000001    1    1    2    0    0  0.88808233186E+02 -0.28388299417E+03  0.88553937733E+03  0.96703487293E+03  0.25000000000E+03 0.  0.
    5000001    1    1    2    0    0 -0.88808233186E+02  0.28388299417E+03  0.11049736336E+04  0.11712997856E+04  0.25000000000E+03 0.  0.
<mgrwt>
<rscale>  0 0.78123816E+03</rscale>
<asrwt>0</asrwt>
<pdfrwt beam="1">  1        2 0.31760363E+00 0.78123816E+03</pdfrwt>
<pdfrwt beam="2">  1       -2 0.11370897E-01 0.78123816E+03</pdfrwt>
<totfact> 0.34993443E+02</totfact>
</mgrwt>
</event>
<event>
 4    1  0.1773996E-005  0.9353296E+03  0.7818608E-02  0.9382464E-01
          2   -1    0    0  501    0  0.00000000000E+00  0.00000000000E+00  0.11024985671E+04  0.11024985671E+04  0.25500000000E-02 0.  1.
         -2   -1    0    0    0  501 -0.00000000000E+00 -0.00000000000E+00 -0.19837699064E+03  0.19837699065E+03  0.25500000000E-02 0. -1.
   -5000001    1    1    2    0    0  0.73361917526E+02 -0.37216937600E+03  0.29769642183E+03  0.54315299405E+03  0.25000000000E+03 0.  0.
    5000001    1    1    2    0    0 -0.73361917526E+02  0.37216937600E+03  0.60642515459E+03  0.75772256367E+03  0.25000000000E+03 0.  0.
<mgrwt>
<rscale>  0 0.93532956E+03</rscale>
<asrwt>0</asrwt>
<pdfrwt beam="1">  1        2 0.16961516E+00 0.93532956E+03</pdfrwt>
<pdfrwt beam="2">  1       -2 0.30519538E-01 0.93532956E+03</pdfrwt>
<totfact> 0.21552513E+02</totfact>
</mgrwt>
</event>
<event>
 4    1  0.1773996E-005  0.5746986E+03  0.7818608E-02  0.9959335E-01
          2   -1    0    0  501    0  0.00000000000E+00  0.00000000000E+00  0.11919775766E+04  0.11919775766E+04  0.25500000000E-02 0.  1.
         -2   -1    0    0    0  501 -0.00000000000E+00 -0.00000000000E+00 -0.69271128800E+02  0.69271128847E+02  0.25500000000E-02 0. -1.
   -5000001    1    1    2    0    0  0.78069204816E+02  0.99252419138E+02  0.42042149777E+03  0.50517331604E+03  0.25000000000E+03 0.  0.
    5000001    1    1    2    0    0 -0.78069204816E+02 -0.99252419138E+02  0.70228495005E+03  0.75607538943E+03  0.25000000000E+03 0.  0.
<mgrwt>
<rscale>  0 0.57469864E+03</rscale>
<asrwt>0</asrwt>
<pdfrwt beam="1">  1        2 0.18338118E+00 0.57469864E+03</pdfrwt>
<pdfrwt beam="2">  1       -2 0.10657096E-01 0.57469864E+03</pdfrwt>
<totfact> 0.11987924E+03</totfact>
</mgrwt>
</event>
<event>
 4    1  0.1773996E-005  0.6424359E+03  0.7818608E-02  0.9821077E-01
         -2   -1    0    0    0  501 -0.00000000000E+00  0.00000000000E+00  0.61161835820E+02  0.61161835873E+02  0.25500000000E-02 0. -1.
          2   -1    0    0  501    0  0.00000000000E+00 -0.00000000000E+00 -0.16870157294E+04  0.16870157294E+04  0.25500000000E-02 0.  1.
   -5000001    1    1    2    0    0 -0.63032073745E+02  0.16288078939E+03 -0.10874522412E+04  0.11294049631E+04  0.25000000000E+03 0.  0.
    5000001    1    1    2    0    0  0.63032073745E+02 -0.16288078939E+03 -0.53840165242E+03  0.61877260218E+03  0.25000000000E+03 0.  0.
<mgrwt>
<rscale>  0 0.64243592E+03</rscale>
<asrwt>0</asrwt>
<pdfrwt beam="1">  1        2 0.25954085E+00 0.64243592E+03</pdfrwt>
<pdfrwt beam="2">  1       -2 0.94095145E-02 0.64243592E+03</pdfrwt>
<totfact> 0.77221023E+02</totfact>
</mgrwt>
</event>
<event>
 4    1  0.1773996E-005  0.5639478E+03  0.7818608E-02  0.9983161E-01
          2   -1    0    0  501    0  0.00000000000E+00  0.00000000000E+00  0.12276401726E+04  0.12276401726E+04  0.25500000000E-02 0.  1.
         -2   -1    0    0    0  501 -0.00000000000E+00 -0.00000000000E+00 -0.64765954905E+02  0.64765954955E+02  0.25500000000E-02 0. -1.
   -5000001    1    1    2    0    0 -0.56579768281E+02 -0.11746835739E+03  0.58838932218E+03  0.65245848881E+03  0.25000000000E+03 0.  0.
    5000001    1    1    2    0    0  0.56579768281E+02  0.11746835739E+03  0.57448489555E+03  0.63994763878E+03  0.25000000000E+03 0.  0.
<mgrwt>
<rscale>  0 0.56394783E+03</rscale>
<asrwt>0</asrwt>
<pdfrwt beam="1">  1        2 0.18886770E+00 0.56394783E+03</pdfrwt>
<pdfrwt beam="2">  1       -2 0.99639943E-02 0.56394783E+03</pdfrwt>
<totfact> 0.12748841E+03</totfact>
</mgrwt>
</event>
<event>
 4    1  0.1773996E-005  0.8403620E+03  0.7818608E-02  0.9503365E-01
         -2   -1    0    0    0  501 -0.00000000000E+00  0.00000000000E+00  0.73404512339E+02  0.73404512383E+02  0.25500000000E-02 0. -1.
          2   -1    0    0  501    0  0.00000000000E+00 -0.00000000000E+00 -0.24051938185E+04  0.24051938185E+04  0.25500000000E-02 0.  1.
   -5000001    1    1    2    0    0  0.14240388573E+03  0.29999069240E+03 -0.98458683545E+03  0.10687303302E+04  0.25000000000E+03 0.  0.
    5000001    1    1    2    0    0 -0.14240388573E+03 -0.29999069240E+03 -0.13472024707E+04  0.14098680006E+04  0.25000000000E+03 0.  0.
<mgrwt>
<rscale>  0 0.84036202E+03</rscale>
<asrwt>0</asrwt>
<pdfrwt beam="1">  1        2 0.37002976E+00 0.84036202E+03</pdfrwt>
<pdfrwt beam="2">  1       -2 0.11293004E-01 0.84036202E+03</pdfrwt>
<totfact> 0.22798278E+02</totfact>
</mgrwt>
</event>
<event>
 4    1  0.1773996E-005  0.1024269E+04  0.7818608E-02  0.9282321E-01
          2   -1    0    0  501    0  0.00000000000E+00  0.00000000000E+00  0.41316992422E+03  0.41316992422E+03  0.25500000000E-02 0.  1.
         -2   -1    0    0    0  501 -0.00000000000E+00 -0.00000000000E+00 -0.63480303221E+03  0.63480303221E+03  0.25500000000E-02 0. -1.
   -5000001    1    1    2    0    0 -0.89033717647E+02 -0.24480137409E+03  0.26080659232E+03  0.44539285382E+03  0.25000000000E+03 0.  0.
    5000001    1    1    2    0    0  0.89033717647E+02  0.24480137409E+03 -0.48243970031E+03  0.60258010262E+03  0.25000000000E+03 0.  0.
<mgrwt>
<rscale>  0 0.10242686E+04</rscale>
<asrwt>0</asrwt>
<pdfrwt beam="1">  1        2 0.63564604E-01 0.10242686E+04</pdfrwt>
<pdfrwt beam="2">  1       -2 0.97662004E-01 0.10242686E+04</pdfrwt>
<totfact> 0.66785591E+01</totfact>
</mgrwt>
</event>
<event>
 4    1  0.1773996E-005  0.1089288E+04  0.7818608E-02  0.9215696E-01
         -2   -1    0    0    0  501 -0.00000000000E+00  0.00000000000E+00  0.14487652791E+03  0.14487652793E+03  0.25500000000E-02 0. -1.
          2   -1    0    0  501    0  0.00000000000E+00 -0.00000000000E+00 -0.20475154716E+04  0.20475154716E+04  0.25500000000E-02 0.  1.
   -5000001    1    1    2    0    0  0.14730726633E+03  0.32654619488E+03 -0.29663977749E+03  0.52804072352E+03  0.25000000000E+03 0.  0.
    5000001    1    1    2    0    0 -0.14730726633E+03 -0.32654619488E+03 -0.16059991662E+04  0.16643512760E+04  0.25000000000E+03 0.  0.
<mgrwt>
<rscale>  0 0.10892877E+04</rscale>
<asrwt>0</asrwt>
<pdfrwt beam="1">  1        2 0.31500236E+00 0.10892877E+04</pdfrwt>
<pdfrwt beam="2">  1       -2 0.22288698E-01 0.10892877E+04</pdfrwt>
<totfact> 0.11047498E+02</totfact>
</mgrwt>
</event>
<event>
 4    1  0.1773996E-005  0.6264091E+03  0.7818608E-02  0.9852081E-01
          2   -1    0    0  501    0  0.00000000000E+00  0.00000000000E+00  0.61924940124E+03  0.61924940124E+03  0.25500000000E-02 0.  1.
         -2   -1    0    0    0  501 -0.00000000000E+00 -0.00000000000E+00 -0.15841289065E+03  0.15841289067E+03  0.25500000000E-02 0. -1.
   -5000001    1    1    2    0    0 -0.11160512052E+03  0.15041746017E+03  0.20221844141E+03  0.37212015975E+03  0.25000000000E+03 0.  0.
    5000001    1    1    2    0    0  0.11160512052E+03 -0.15041746017E+03  0.25861806918E+03  0.40554213216E+03  0.25000000000E+03 0.  0.
<mgrwt>
<rscale>  0 0.62640909E+03</rscale>
<asrwt>0</asrwt>
<pdfrwt beam="1">  1        2 0.95269140E-01 0.62640909E+03</pdfrwt>
<pdfrwt beam="2">  1       -2 0.24371214E-01 0.62640909E+03</pdfrwt>
<totfact> 0.72017107E+02</totfact>
</mgrwt>
</event>
<event>
 4    1  0.1773996E-005  0.1618329E+04  0.7818608E-02  0.8809366E-01
          2   -1    0    0  501    0  0.00000000000E+00  0.00000000000E+00  0.16576861687E+04  0.16576861687E+04  0.25500000000E-02 0.  1.
         -2   -1    0    0    0  501 -0.00000000000E+00 -0.00000000000E+00 -0.39497663631E+03  0.39497663632E+03  0.25500000000E-02 0. -1.
   -5000001    1    1    2    0    0 -0.28538812711E+03  0.68056234897E+03  0.90818756773E+03  0.11966269895E+04  0.25000000000E+03 0.  0.
    5000001    1    1    2    0    0  0.28538812711E+03 -0.68056234897E+03  0.35452196462E+03  0.85603581545E+03  0.25000000000E+03 0.  0.
<mgrwt>
<rscale>  0 0.16183291E+04</rscale>
<asrwt>0</asrwt>
<pdfrwt beam="1">  1        2 0.25502864E+00 0.16183291E+04</pdfrwt>
<pdfrwt beam="2">  1       -2 0.60765637E-01 0.16183291E+04</pdfrwt>
<totfact> 0.24995025E+01</totfact>
</mgrwt>
</event>
<event>
 4    1  0.1773996E-005  0.8893731E+03  0.7818608E-02  0.9438964E-01
         -2   -1    0    0    0  501 -0.00000000000E+00  0.00000000000E+00  0.33059670886E+03  0.33059670887E+03  0.25500000000E-02 0. -1.
          2   -1    0    0  501    0  0.00000000000E+00 -0.00000000000E+00 -0.59814915914E+03  0.59814915914E+03  0.25500000000E-02 0.  1.
   -5000001    1    1    2    0    0  0.12293185123E+02  0.28532213354E+03  0.10818436179E+03  0.39466909991E+03  0.25000000000E+03 0.  0.
    5000001    1    1    2    0    0 -0.12293185123E+02 -0.28532213354E+03 -0.37573681206E+03  0.53407676810E+03  0.25000000000E+03 0.  0.
<mgrwt>
<rscale>  0 0.88937314E+03</rscale>
<asrwt>0</asrwt>
<pdfrwt beam="1">  1        2 0.92022947E-01 0.88937314E+03</pdfrwt>
<pdfrwt beam="2">  1       -2 0.50861032E-01 0.88937314E+03</pdfrwt>
<totfact> 0.18262006E+02</totfact>
</mgrwt>
</event>
<event>
 4    1  0.1773996E-005  0.6709065E+03  0.7818608E-02  0.9768322E-01
         -2   -1    0    0    0  501 -0.00000000000E+00  0.00000000000E+00  0.85398209957E+02  0.85398209995E+02  0.25500000000E-02 0. -1.
          2   -1    0    0  501    0  0.00000000000E+00 -0.00000000000E+00 -0.13176958654E+04  0.13176958654E+04  0.25500000000E-02 0.  1.
   -5000001    1    1    2    0    0 -0.21342640949E+03  0.62604877650E+02 -0.56671768636E+03  0.65813307090E+03  0.25000000000E+03 0.  0.
    5000001    1    1    2    0    0  0.21342640949E+03 -0.62604877650E+02 -0.66557996905E+03  0.74496100447E+03  0.25000000000E+03 0.  0.
<mgrwt>
<rscale>  0 0.67090646E+03</rscale>
<asrwt>0</asrwt>
<pdfrwt beam="1">  1        2 0.20272243E+00 0.67090646E+03</pdfrwt>
<pdfrwt beam="2">  1       -2 0.13138187E-01 0.67090646E+03</pdfrwt>
<totfact> 0.71554473E+02</totfact>
</mgrwt>
</event>
<event>
 4    1  0.1773996E-005  0.5137354E+03  0.7818608E-02  0.1010255E+00
         -2   -1    0    0    0  501 -0.00000000000E+00  0.00000000000E+00  0.77099667157E+02  0.77099667199E+02  0.25500000000E-02 0. -1.
          2   -1    0    0  501    0  0.00000000000E+00 -0.00000000000E+00 -0.85578846044E+03  0.85578846044E+03  0.25500000000E-02 0.  1.
   -5000001    1    1    2    0    0  0.49843515671E+02  0.31416434159E+02 -0.38370720206E+03  0.46173865476E+03  0.25000000000E+03 0.  0.
    5000001    1    1    2    0    0 -0.49843515671E+02 -0.31416434159E+02 -0.39498159122E+03  0.47114947288E+03  0.25000000000E+03 0.  0.
<mgrwt>
<rscale>  0 0.51373536E+03</rscale>
<asrwt>0</asrwt>
<pdfrwt beam="1">  1        2 0.13165976E+00 0.51373536E+03</pdfrwt>
<pdfrwt beam="2">  1       -2 0.11861488E-01 0.51373536E+03</pdfrwt>
<totfact> 0.16378501E+03</totfact>
</mgrwt>
</event>
<event>
 4    1  0.1773996E-005  0.7718566E+03  0.7818608E-02  0.9601671E-01
         -2   -1    0    0    0  501 -0.00000000000E+00  0.00000000000E+00  0.59830022782E+02  0.59830022837E+02  0.25500000000E-02 0.  1.
          2   -1    0    0  501    0  0.00000000000E+00 -0.00000000000E+00 -0.24893962437E+04  0.24893962437E+04  0.25500000000E-02 0. -1.
   -5000001    1    1    2    0    0 -0.22896501223E+03 -0.18435661808E+03 -0.11972150646E+04  0.12578697271E+04  0.25000000000E+03 0.  0.
    5000001    1    1    2    0    0  0.22896501223E+03  0.18435661808E+03 -0.12323511563E+04  0.12913565394E+04  0.25000000000E+03 0.  0.
<mgrwt>
<rscale>  0 0.77185655E+03</rscale>
<asrwt>0</asrwt>
<pdfrwt beam="1">  1        2 0.38298396E+00 0.77185655E+03</pdfrwt>
<pdfrwt beam="2">  1       -2 0.92046208E-02 0.77185655E+03</pdfrwt>
<totfact> 0.28708069E+02</totfact>
</mgrwt>
</event>
<event>
 4    1  0.1773996E-005  0.8729104E+03  0.7818608E-02  0.9460093E-01
          2   -1    0    0  501    0  0.00000000000E+00  0.00000000000E+00  0.14814358131E+04  0.14814358131E+04  0.25500000000E-02 0.  1.
         -2   -1    0    0    0  501 -0.00000000000E+00 -0.00000000000E+00 -0.12858683252E+03  0.12858683254E+03  0.25500000000E-02 0. -1.
   -5000001    1    1    2    0    0 -0.75342777563E+02 -0.30085169240E+03  0.10053587358E+04  0.10814039313E+04  0.25000000000E+03 0.  0.
    5000001    1    1    2    0    0  0.75342777563E+02  0.30085169240E+03  0.34749024477E+03  0.52861871435E+03  0.25000000000E+03 0.  0.
<mgrwt>
<rscale>  0 0.87291039E+03</rscale>
<asrwt>0</asrwt>
<pdfrwt beam="1">  1        2 0.22791321E+00 0.87291039E+03</pdfrwt>
<pdfrwt beam="2">  1       -2 0.19782589E-01 0.87291039E+03</pdfrwt>
<totfact> 0.28443418E+02</totfact>
</mgrwt>
</event>
<event>
 4    1  0.1773996E-005  0.6026943E+03  0.7818608E-02  0.9899832E-01
         -2   -1    0    0    0  501 -0.00000000000E+00  0.00000000000E+00  0.76220123781E+02  0.76220123824E+02  0.25500000000E-02 0. -1.
          2   -1    0    0  501    0  0.00000000000E+00 -0.00000000000E+00 -0.11914190281E+04  0.11914190281E+04  0.25500000000E-02 0.  1.
   -5000001    1    1    2    0    0  0.83432430684E+02 -0.14603648499E+03 -0.54762703517E+03  0.62504639435E+03  0.25000000000E+03 0.  0.
    5000001    1    1    2    0    0 -0.83432430684E+02  0.14603648499E+03 -0.56757186911E+03  0.64259275754E+03  0.25000000000E+03 0.  0.
<mgrwt>
<rscale>  0 0.60269430E+03</rscale>
<asrwt>0</asrwt>
<pdfrwt beam="1">  1        2 0.18329522E+00 0.60269430E+03</pdfrwt>
<pdfrwt beam="2">  1       -2 0.11726174E-01 0.60269430E+03</pdfrwt>
<totfact> 0.10250574E+03</totfact>
</mgrwt>
</event>
<event>
 4    1  0.1773996E-005  0.8411564E+03  0.7818608E-02  0.9502284E-01
         -2   -1    0    0    0  501 -0.00000000000E+00  0.00000000000E+00  0.58221103324E+03  0.58221103325E+03  0.25500000000E-02 0. -1.
          2   -1    0    0  501    0  0.00000000000E+00 -0.00000000000E+00 -0.30381772884E+03  0.30381772885E+03  0.25500000000E-02 0.  1.
   -5000001    1    1    2    0    0 -0.18674725130E+03 -0.23017173919E+03 -0.32380668025E+02  0.38910419305E+03  0.25000000000E+03 0.  0.
    5000001    1    1    2    0    0  0.18674725130E+03  0.23017173919E+03  0.31077397243E+03  0.49692456905E+03  0.25000000000E+03 0.  0.
<mgrwt>
<rscale>  0 0.84115643E+03</rscale>
<asrwt>0</asrwt>
<pdfrwt beam="1">  1        2 0.46741189E-01 0.84115643E+03</pdfrwt>
<pdfrwt beam="2">  1       -2 0.89570929E-01 0.84115643E+03</pdfrwt>
<totfact> 0.11636683E+02</totfact>
</mgrwt>
</event>
<event>
 4    1  0.1773996E-005  0.1026857E+04  0.7818608E-02  0.9279569E-01
          2   -1    0    0  501    0  0.00000000000E+00  0.00000000000E+00  0.10024155011E+04  0.10024155011E+04  0.25500000000E-02 0.  1.
         -2   -1    0    0    0  501 -0.00000000000E+00 -0.00000000000E+00 -0.26297376229E+03  0.26297376231E+03  0.25500000000E-02 0. -1.
   -5000001    1    1    2    0    0  0.62177757407E+02 -0.43085721663E+03  0.50247128734E+03  0.71026854727E+03  0.25000000000E+03 0.  0.
    5000001    1    1    2    0    0 -0.62177757407E+02  0.43085721663E+03  0.23697045150E+03  0.55512071617E+03  0.25000000000E+03 0.  0.
<mgrwt>
<rscale>  0 0.10268573E+04</rscale>
<asrwt>0</asrwt>
<pdfrwt beam="1">  1        2 0.15421777E+00 0.10268573E+04</pdfrwt>
<pdfrwt beam="2">  1       -2 0.40457502E-01 0.10268573E+04</pdfrwt>
<totfact> 0.14460531E+02</totfact>
</mgrwt>
</event>
<event>
 4    1  0.1773996E-005  0.8423941E+03  0.7818608E-02  0.9500603E-01
          2   -1    0    0  501    0  0.00000000000E+00  0.00000000000E+00  0.50711036824E+03  0.50711036825E+03  0.25500000000E-02 0.  1.
         -2   -1    0    0    0  501 -0.00000000000E+00 -0.00000000000E+00 -0.34983896987E+03  0.34983896988E+03  0.25500000000E-02 0. -1.
   -5000001    1    1    2    0    0 -0.61135562207E+02 -0.32973356007E+03  0.12893897062E+03  0.43770656352E+03  0.25000000000E+03 0.  0.
    5000001    1    1    2    0    0  0.61135562207E+02  0.32973356007E+03  0.28332427751E+02  0.41924277461E+03  0.25000000000E+03 0.  0.
<mgrwt>
<rscale>  0 0.84239413E+03</rscale>
<asrwt>0</asrwt>
<pdfrwt beam="1">  1        2 0.78016979E-01 0.84239413E+03</pdfrwt>
<pdfrwt beam="2">  1       -2 0.53821380E-01 0.84239413E+03</pdfrwt>
<totfact> 0.19815759E+02</totfact>
</mgrwt>
</event>
<event>
 4    1  0.1773996E-005  0.7892325E+03  0.7818608E-02  0.9575735E-01
          2   -1    0    0  501    0  0.00000000000E+00  0.00000000000E+00  0.10765273088E+04  0.10765273088E+04  0.25500000000E-02 0.  1.
         -2   -1    0    0    0  501 -0.00000000000E+00 -0.00000000000E+00 -0.14465214326E+03  0.14465214328E+03  0.25500000000E-02 0. -1.
   -5000001    1    1    2    0    0 -0.21448046093E+03  0.14513277138E+03  0.71618241539E+03  0.80155014912E+03  0.25000000000E+03 0.  0.
    5000001    1    1    2    0    0  0.21448046093E+03 -0.14513277138E+03  0.21569275020E+03  0.41962930300E+03  0.25000000000E+03 0.  0.
<mgrwt>
<rscale>  0 0.78923249E+03</rscale>
<asrwt>0</asrwt>
<pdfrwt beam="1">  1        2 0.16561959E+00 0.78923249E+03</pdfrwt>
<pdfrwt beam="2">  1       -2 0.22254176E-01 0.78923249E+03</pdfrwt>
<totfact> 0.40016415E+02</totfact>
</mgrwt>
</event>
<event>
 4    1  0.1773996E-005  0.5786401E+03  0.7818608E-02  0.9950739E-01
         -2   -1    0    0    0  501 -0.00000000000E+00  0.00000000000E+00  0.17861560993E+03  0.17861560994E+03  0.25500000000E-02 0. -1.
          2   -1    0    0  501    0  0.00000000000E+00 -0.00000000000E+00 -0.46863818926E+03  0.46863818927E+03  0.25500000000E-02 0.  1.
   -5000001    1    1    2    0    0 -0.55142329072E+02 -0.13400383297E+03 -0.12886372941E+03  0.31639147344E+03  0.25000000000E+03 0.  0.
    5000001    1    1    2    0    0  0.55142329072E+02  0.13400383297E+03 -0.16115884992E+03  0.33086232577E+03  0.25000000000E+03 0.  0.
<mgrwt>
<rscale>  0 0.57864012E+03</rscale>
<asrwt>0</asrwt>
<pdfrwt beam="1">  1        2 0.72098183E-01 0.57864012E+03</pdfrwt>
<pdfrwt beam="2">  1       -2 0.27479325E-01 0.57864012E+03</pdfrwt>
<totfact> 0.80427575E+02</totfact>
</mgrwt>
</event>
<event>
 4    1  0.1773996E-005  0.5992231E+03  0.7818608E-02  0.9907019E-01
         -2   -1    0    0    0  501 -0.00000000000E+00  0.00000000000E+00  0.81836025286E+02  0.81836025325E+02  0.25500000000E-02 0. -1.
          2   -1    0    0  501    0  0.00000000000E+00 -0.00000000000E+00 -0.10969141081E+04  0.10969141081E+04  0.25500000000E-02 0.  1.
   -5000001    1    1    2    0    0  0.14432938006E+03 -0.28909199602E+02 -0.65475059328E+03  0.71614597057E+03  0.25000000000E+03 0.  0.
    5000001    1    1    2    0    0 -0.14432938006E+03  0.28909199602E+02 -0.36032748951E+03  0.46260416283E+03  0.25000000000E+03 0.  0.
<mgrwt>
<rscale>  0 0.59922313E+03</rscale>
<asrwt>0</asrwt>
<pdfrwt beam="1">  1        2 0.16875601E+00 0.59922313E+03</pdfrwt>
<pdfrwt beam="2">  1       -2 0.12590159E-01 0.59922313E+03</pdfrwt>
<totfact> 0.10384413E+03</totfact>
</mgrwt>
</event>
<event>
 4    1  0.1773996E-005  0.6807605E+03  0.7818608E-02  0.9750712E-01
         -2   -1    0    0    0  501 -0.00000000000E+00  0.00000000000E+00  0.64475054582E+02  0.64475054633E+02  0.25500000000E-02 0. -1.
          2   -1    0    0  501    0  0.00000000000E+00 -0.00000000000E+00 -0.17969541878E+04  0.17969541878E+04  0.25500000000E-02 0.  1.
   -5000001    1    1    2    0    0 -0.50243941171E+02  0.21099962115E+03 -0.10835020351E+04  0.11329262790E+04  0.25000000000E+03 0.  0.
    5000001    1    1    2    0    0  0.50243941171E+02 -0.21099962115E+03 -0.64897709819E+03  0.72850296343E+03  0.25000000000E+03 0.  0.
<mgrwt>
<rscale>  0 0.68076051E+03</rscale>
<asrwt>0</asrwt>
<pdfrwt beam="1">  1        2 0.27645445E+00 0.68076051E+03</pdfrwt>
<pdfrwt beam="2">  1       -2 0.99192405E-02 0.68076051E+03</pdfrwt>
<totfact> 0.61631049E+02</totfact>
</mgrwt>
</event>
<event>
 4    1  0.1773996E-005  0.8256771E+03  0.7818608E-02  0.9523577E-01
         -2   -1    0    0    0  501 -0.00000000000E+00  0.00000000000E+00  0.60331551193E+03  0.60331551193E+03  0.25500000000E-02 0. -1.
          2   -1    0    0  501    0  0.00000000000E+00 -0.00000000000E+00 -0.28249841396E+03  0.28249841397E+03  0.25500000000E-02 0.  1.
   -5000001    1    1    2    0    0 -0.27609861253E+03  0.15921404142E+03  0.24594048714E+03  0.47388424540E+03  0.25000000000E+03 0.  0.
    5000001    1    1    2    0    0  0.27609861253E+03 -0.15921404142E+03  0.74876610834E+02  0.41192968050E+03  0.25000000000E+03 0.  0.
<mgrwt>
<rscale>  0 0.82567712E+03</rscale>
<asrwt>0</asrwt>
<pdfrwt beam="1">  1        2 0.43461294E-01 0.82567712E+03</pdfrwt>
<pdfrwt beam="2">  1       -2 0.92817772E-01 0.82567712E+03</pdfrwt>
<totfact> 0.11626748E+02</totfact>
</mgrwt>
</event>
<event>
 4    1  0.1773996E-005  0.6250602E+03  0.7818608E-02  0.9854736E-01
         -2   -1    0    0    0  501 -0.00000000000E+00  0.00000000000E+00  0.14824463399E+03  0.14824463401E+03  0.25500000000E-02 0. -1.
          2   -1    0    0  501    0  0.00000000000E+00 -0.00000000000E+00 -0.65887756969E+03  0.65887756970E+03  0.25500000000E-02 0.  1.
   -5000001    1    1    2    0    0 -0.89691763349E+02 -0.16319149370E+03 -0.28416093766E+03  0.42180980847E+03  0.25000000000E+03 0.  0.
    5000001    1    1    2    0    0  0.89691763349E+02  0.16319149370E+03 -0.22647199804E+03  0.38531239524E+03  0.25000000000E+03 0.  0.
<mgrwt>
<rscale>  0 0.62506020E+03</rscale>
<asrwt>0</asrwt>
<pdfrwt beam="1">  1        2 0.10136578E+00 0.62506020E+03</pdfrwt>
<pdfrwt beam="2">  1       -2 0.22806867E-01 0.62506020E+03</pdfrwt>
<totfact> 0.75152406E+02</totfact>
</mgrwt>
</event>
<event>
 4    1  0.1773996E-005  0.1054247E+04  0.7818608E-02  0.9250970E-01
         -2   -1    0    0    0  501 -0.00000000000E+00  0.00000000000E+00  0.18480799372E+03  0.18480799374E+03  0.25500000000E-02 0. -1.
          2   -1    0    0  501    0  0.00000000000E+00 -0.00000000000E+00 -0.15035023145E+04  0.15035023145E+04  0.25500000000E-02 0.  1.
   -5000001    1    1    2    0    0  0.20926150109E+03 -0.40305426562E+03 -0.50644448255E+03  0.72472693532E+03  0.25000000000E+03 0.  0.
    5000001    1    1    2    0    0 -0.20926150109E+03  0.40305426562E+03 -0.81224983824E+03  0.96358337293E+03  0.25000000000E+03 0.  0.
<mgrwt>
<rscale>  0 0.10542471E+04</rscale>
<asrwt>0</asrwt>
<pdfrwt beam="1">  1        2 0.23130804E+00 0.10542471E+04</pdfrwt>
<pdfrwt beam="2">  1       -2 0.28432000E-01 0.10542471E+04</pdfrwt>
<totfact> 0.14241923E+02</totfact>
</mgrwt>
</event>
<event>
 4    1  0.1773996E-005  0.9651625E+03  0.7818608E-02  0.9347601E-01
         -2   -1    0    0    0  501 -0.00000000000E+00  0.00000000000E+00  0.22643297696E+03  0.22643297698E+03  0.25500000000E-02 0. -1.
          2   -1    0    0  501    0  0.00000000000E+00 -0.00000000000E+00 -0.10284925900E+04  0.10284925900E+04  0.25500000000E-02 0.  1.
   -5000001    1    1    2    0    0 -0.37956205295E+03 -0.11428833690E+03 -0.55072746255E+03  0.72313893132E+03  0.25000000000E+03 0.  0.
    5000001    1    1    2    0    0  0.37956205295E+03  0.11428833690E+03 -0.25133215049E+03  0.53178663566E+03  0.25000000000E+03 0.  0.
<mgrwt>
<rscale>  0 0.96516245E+03</rscale>
<asrwt>0</asrwt>
<pdfrwt beam="1">  1        2 0.15822963E+00 0.96516245E+03</pdfrwt>
<pdfrwt beam="2">  1       -2 0.34835843E-01 0.96516245E+03</pdfrwt>
<totfact> 0.18647702E+02</totfact>
</mgrwt>
</event>
<event>
 4    1  0.1773996E-005  0.6894624E+03  0.7818608E-02  0.9735424E-01
         -2   -1    0    0    0  501 -0.00000000000E+00  0.00000000000E+00  0.56108405026E+02  0.56108405084E+02  0.25500000000E-02 0. -1.
          2   -1    0    0  501    0  0.00000000000E+00 -0.00000000000E+00 -0.21180359111E+04  0.21180359111E+04  0.25500000000E-02 0.  1.
   -5000001    1    1    2    0    0  0.21860119837E+03 -0.85305706326E+02 -0.11436095241E+04  0.11939038031E+04  0.25000000000E+03 0.  0.
    5000001    1    1    2    0    0 -0.21860119837E+03  0.85305706326E+02 -0.91831798194E+03  0.98024051305E+03  0.25000000000E+03 0.  0.
<mgrwt>
<rscale>  0 0.68946245E+03</rscale>
<asrwt>0</asrwt>
<pdfrwt beam="1">  1        2 0.32585162E+00 0.68946245E+03</pdfrwt>
<pdfrwt beam="2">  1       -2 0.86320640E-02 0.68946245E+03</pdfrwt>
<totfact> 0.51564540E+02</totfact>
</mgrwt>
</event>
<event>
 4    1  0.1773996E-005  0.7147777E+03  0.7818608E-02  0.9692289E-01
          2   -1    0    0  501    0  0.00000000000E+00  0.00000000000E+00  0.16588618746E+04  0.16588618746E+04  0.25500000000E-02 0.  1.
         -2   -1    0    0    0  501 -0.00000000000E+00 -0.00000000000E+00 -0.76996640212E+02  0.76996640255E+02  0.25500000000E-02 0. -1.
   -5000001    1    1    2    0    0  0.12259485728E+03  0.12761291645E+03  0.12381529471E+04  0.12754753137E+04  0.25000000000E+03 0.  0.
    5000001    1    1    2    0    0 -0.12259485728E+03 -0.12761291645E+03  0.34371228734E+03  0.46038320120E+03  0.25000000000E+03 0.  0.
<mgrwt>
<rscale>  0 0.71477770E+03</rscale>
<asrwt>0</asrwt>
<pdfrwt beam="1">  1        2 0.25520952E+00 0.71477770E+03</pdfrwt>
<pdfrwt beam="2">  1       -2 0.11845637E-01 0.71477770E+03</pdfrwt>
<totfact> 0.54701546E+02</totfact>
</mgrwt>
</event>
<event>
 4    1  0.1773996E-005  0.9693970E+03  0.7818608E-02  0.9342761E-01
          2   -1    0    0  501    0  0.00000000000E+00  0.00000000000E+00  0.10442464071E+04  0.10442464071E+04  0.25500000000E-02 0.  1.
         -2   -1    0    0    0  501 -0.00000000000E+00 -0.00000000000E+00 -0.22497817762E+03  0.22497817764E+03  0.25500000000E-02 0. -1.
   -5000001    1    1    2    0    0 -0.48859378696E+02  0.40881661643E+03  0.33895183612E+03  0.58898778592E+03  0.25000000000E+03 0.  0.
    5000001    1    1    2    0    0  0.48859378696E+02 -0.40881661643E+03  0.48031639340E+03  0.68023679886E+03  0.25000000000E+03 0.  0.
<mgrwt>
<rscale>  0 0.96939704E+03</rscale>
<asrwt>0</asrwt>
<pdfrwt beam="1">  1        2 0.16065329E+00 0.96939704E+03</pdfrwt>
<pdfrwt beam="2">  1       -2 0.34612027E-01 0.96939704E+03</pdfrwt>
<totfact> 0.18446232E+02</totfact>
</mgrwt>
</event>
<event>
 4    1  0.1773996E-005  0.7621290E+03  0.7818608E-02  0.9616512E-01
          2   -1    0    0  501    0  0.00000000000E+00  0.00000000000E+00  0.13348067435E+04  0.13348067435E+04  0.25500000000E-02 0.  1.
         -2   -1    0    0    0  501 -0.00000000000E+00 -0.00000000000E+00 -0.10878739260E+03  0.10878739263E+03  0.25500000000E-02 0. -1.
   -5000001    1    1    2    0    0  0.24540695133E+03 -0.82656308759E+02  0.37602379302E+03  0.52052908666E+03  0.25000000000E+03 0.  0.
    5000001    1    1    2    0    0 -0.24540695133E+03  0.82656308759E+02  0.84999555790E+03  0.92306504949E+03  0.25000000000E+03 0.  0.
<mgrwt>
<rscale>  0 0.76212898E+03</rscale>
<asrwt>0</asrwt>
<pdfrwt beam="1">  1        2 0.20535488E+00 0.76212898E+03</pdfrwt>
<pdfrwt beam="2">  1       -2 0.16736522E-01 0.76212898E+03</pdfrwt>
<totfact> 0.46283540E+02</totfact>
</mgrwt>
</event>
<event>
 4    1  0.1773996E-005  0.8601776E+03  0.7818608E-02  0.9476778E-01
         -2   -1    0    0    0  501 -0.00000000000E+00  0.00000000000E+00  0.72459747390E+02  0.72459747435E+02  0.25500000000E-02 0. -1.
          2   -1    0    0  501    0  0.00000000000E+00 -0.00000000000E+00 -0.25528158006E+04  0.25528158006E+04  0.25500000000E-02 0.  1.
   -5000001    1    1    2    0    0 -0.26420058241E+02 -0.31851768104E+03 -0.80506660497E+03  0.90154521298E+03  0.25000000000E+03 0.  0.
    5000001    1    1    2    0    0  0.26420058241E+02  0.31851768104E+03 -0.16752894483E+04  0.17237303351E+04  0.25000000000E+03 0.  0.
<mgrwt>
<rscale>  0 0.86017763E+03</rscale>
<asrwt>0</asrwt>
<pdfrwt beam="1">  1        2 0.39274082E+00 0.86017763E+03</pdfrwt>
<pdfrwt beam="2">  1       -2 0.11147655E-01 0.86017763E+03</pdfrwt>
<totfact> 0.19168194E+02</totfact>
</mgrwt>
</event>
<event>
 4    1  0.1773996E-005  0.1132901E+04  0.7818608E-02  0.9173705E-01
          2   -1    0    0  501    0  0.00000000000E+00  0.00000000000E+00  0.11449250718E+04  0.11449250718E+04  0.25500000000E-02 0.  1.
         -2   -1    0    0    0  501 -0.00000000000E+00 -0.00000000000E+00 -0.28025083071E+03  0.28025083072E+03  0.25500000000E-02 0. -1.
   -5000001    1    1    2    0    0  0.11116010008E+03 -0.47973086889E+03  0.59080330417E+03  0.80873161101E+03  0.25000000000E+03 0.  0.
    5000001    1    1    2    0    0 -0.11116010008E+03  0.47973086889E+03  0.27387093688E+03  0.61644429147E+03  0.25000000000E+03 0.  0.
<mgrwt>
<rscale>  0 0.11329011E+04</rscale>
<asrwt>0</asrwt>
<pdfrwt beam="1">  1        2 0.17614232E+00 0.11329011E+04</pdfrwt>
<pdfrwt beam="2">  1       -2 0.43115512E-01 0.11329011E+04</pdfrwt>
<totfact> 0.10328020E+02</totfact>
</mgrwt>
</event>
<event>
 4    1  0.1773996E-005  0.6790749E+03  0.7818608E-02  0.9753702E-01
          2   -1    0    0  501    0  0.00000000000E+00  0.00000000000E+00  0.17221638282E+04  0.17221638282E+04  0.25500000000E-02 0.  1.
         -2   -1    0    0    0  501 -0.00000000000E+00 -0.00000000000E+00 -0.66942332935E+02  0.66942332984E+02  0.25500000000E-02 0. -1.
   -5000001    1    1    2    0    0 -0.17935255180E+03 -0.10831537582E+02  0.45038091475E+03  0.54555258997E+03  0.25000000000E+03 0.  0.
    5000001    1    1    2    0    0  0.17935255180E+03  0.10831537582E+02  0.12048405805E+04  0.12435535712E+04  0.25000000000E+03 0.  0.
<mgrwt>
<rscale>  0 0.67907485E+03</rscale>
<asrwt>0</asrwt>
<pdfrwt beam="1">  1        2 0.26494826E+00 0.67907485E+03</pdfrwt>
<pdfrwt beam="2">  1       -2 0.10298821E-01 0.67907485E+03</pdfrwt>
<totfact> 0.63680785E+02</totfact>
</mgrwt>
</event>
<event>
 4    1  0.1773996E-005  0.7169132E+03  0.7818608E-02  0.9688738E-01
         -2   -1    0    0    0  501 -0.00000000000E+00  0.00000000000E+00  0.15130241402E+03  0.15130241405E+03  0.25500000000E-02 0. -1.
          2   -1    0    0  501    0  0.00000000000E+00 -0.00000000000E+00 -0.84923395003E+03  0.84923395003E+03  0.25500000000E-02 0.  1.
   -5000001    1    1    2    0    0  0.25421368205E+03 -0.36768032132E+02 -0.35430979632E+03  0.50399594849E+03  0.25000000000E+03 0.  0.
    5000001    1    1    2    0    0 -0.25421368205E+03  0.36768032132E+02 -0.34362173968E+03  0.49654041558E+03  0.25000000000E+03 0.  0.
<mgrwt>
<rscale>  0 0.71691324E+03</rscale>
<asrwt>0</asrwt>
<pdfrwt beam="1">  1        2 0.13065137E+00 0.71691324E+03</pdfrwt>
<pdfrwt beam="2">  1       -2 0.23277295E-01 0.71691324E+03</pdfrwt>
<totfact> 0.52110936E+02</totfact>
</mgrwt>
</event>
<event>
 4    1  0.1773996E-005  0.7847415E+03  0.7818608E-02  0.9582370E-01
          2   -1    0    0  501    0  0.00000000000E+00  0.00000000000E+00  0.29100721045E+04  0.29100721045E+04  0.25500000000E-02 0.  1.
         -2   -1    0    0    0  501 -0.00000000000E+00 -0.00000000000E+00 -0.52904126825E+02  0.52904126886E+02  0.25500000000E-02 0. -1.
   -5000001    1    1    2    0    0 -0.18777971943E+03  0.21874076905E+03  0.10836446652E+04  0.11488666187E+04  0.25000000000E+03 0.  0.
    5000001    1    1    2    0    0  0.18777971943E+03 -0.21874076905E+03  0.17735233124E+04  0.18141096127E+04  0.25000000000E+03 0.  0.
<mgrwt>
<rscale>  0 0.78474155E+03</rscale>
<asrwt>0</asrwt>
<pdfrwt beam="1">  1        2 0.44770347E+00 0.78474155E+03</pdfrwt>
<pdfrwt beam="2">  1       -2 0.81390952E-02 0.78474155E+03</pdfrwt>
<totfact> 0.19866824E+02</totfact>
</mgrwt>
</event>
<event>
 4    1  0.1773996E-005  0.2209081E+04  0.7818608E-02  0.8514658E-01
         -2   -1    0    0    0  501 -0.00000000000E+00  0.00000000000E+00  0.73321386979E+03  0.73321386979E+03  0.25500000000E-02 0. -1.
          2   -1    0    0  501    0  0.00000000000E+00 -0.00000000000E+00 -0.16639203724E+04  0.16639203724E+04  0.25500000000E-02 0.  1.
   -5000001    1    1    2    0    0 -0.47563902923E+03  0.95687880980E+03 -0.60114581119E+03  0.12512896663E+04  0.25000000000E+03 0.  0.
    5000001    1    1    2    0    0  0.47563902923E+03 -0.95687880980E+03 -0.32956069146E+03  0.11458445759E+04  0.25000000000E+03 0.  0.
<mgrwt>
<rscale>  0 0.22090808E+04</rscale>
<asrwt>0</asrwt>
<pdfrwt beam="1">  1        2 0.25598775E+00 0.22090808E+04</pdfrwt>
<pdfrwt beam="2">  1       -2 0.11280213E+00 0.22090808E+04</pdfrwt>
<totfact> 0.57990673E+00</totfact>
</mgrwt>
</event>
<event>
 4    1  0.1773996E-005  0.6880788E+03  0.7818608E-02  0.9737839E-01
          2   -1    0    0  501    0  0.00000000000E+00  0.00000000000E+00  0.19675728582E+04  0.19675728582E+04  0.25500000000E-02 0. -1.
         -2   -1    0    0    0  501 -0.00000000000E+00 -0.00000000000E+00 -0.60156908897E+02  0.60156908951E+02  0.25500000000E-02 0.  1.
   -5000001    1    1    2    0    0  0.79352311299E+02  0.20276730346E+03  0.68278565424E+03  0.75901753491E+03  0.25000000000E+03 0.  0.
    5000001    1    1    2    0    0 -0.79352311299E+02 -0.20276730346E+03  0.12246302951E+04  0.12687122323E+04  0.25000000000E+03 0.  0.
<mgrwt>
<rscale>  0 0.68807878E+03</rscale>
<asrwt>0</asrwt>
<pdfrwt beam="1">  1        2 0.30270356E+00 0.68807878E+03</pdfrwt>
<pdfrwt beam="2">  1       -2 0.92549078E-02 0.68807878E+03</pdfrwt>
<totfact> 0.55674627E+02</totfact>
</mgrwt>
</event>
<event>
 4    1  0.1773996E-005  0.8685327E+03  0.7818608E-02  0.9465795E-01
         -2   -1    0    0    0  501 -0.00000000000E+00  0.00000000000E+00  0.13378980977E+04  0.13378980977E+04  0.25500000000E-02 0. -1.
          2   -1    0    0  501    0  0.00000000000E+00 -0.00000000000E+00 -0.14095788041E+03  0.14095788043E+03  0.25500000000E-02 0.  1.
   -5000001    1    1    2    0    0  0.43119890478E+02 -0.31659403122E+03  0.86223117692E+03  0.95290802704E+03  0.25000000000E+03 0.  0.
    5000001    1    1    2    0    0 -0.43119890478E+02  0.31659403122E+03  0.33470904041E+03  0.52594795113E+03  0.25000000000E+03 0.  0.
<mgrwt>
<rscale>  0 0.86853274E+03</rscale>
<asrwt>0</asrwt>
<pdfrwt beam="1">  1        2 0.21685827E-01 0.86853274E+03</pdfrwt>
<pdfrwt beam="2">  1       -2 0.20583048E+00 0.86853274E+03</pdfrwt>
<totfact> 0.31801041E+01</totfact>
</mgrwt>
</event>
<event>
 4    1  0.1773996E-005  0.1251354E+04  0.7818608E-02  0.9069057E-01
         -2   -1    0    0    0  501 -0.00000000000E+00  0.00000000000E+00  0.27867400194E+03  0.27867400195E+03  0.25500000000E-02 0. -1.
          2   -1    0    0  501    0  0.00000000000E+00 -0.00000000000E+00 -0.14047659623E+04  0.14047659623E+04  0.25500000000E-02 0.  1.
   -5000001    1    1    2    0    0 -0.19331158802E+03 -0.53544369089E+03 -0.46885194460E+03  0.77871141133E+03  0.25000000000E+03 0.  0.
    5000001    1    1    2    0    0  0.19331158802E+03  0.53544369089E+03 -0.65724001577E+03  0.90472855294E+03  0.25000000000E+03 0.  0.
<mgrwt>
<rscale>  0 0.12513541E+04</rscale>
<asrwt>0</asrwt>
<pdfrwt beam="1">  1        2 0.21611784E+00 0.12513541E+04</pdfrwt>
<pdfrwt beam="2">  1       -2 0.42872924E-01 0.12513541E+04</pdfrwt>
<totfact> 0.72905424E+01</totfact>
</mgrwt>
</event>
<event>
 4    1  0.1773996E-005  0.1267341E+04  0.7818608E-02  0.9055872E-01
         -2   -1    0    0    0  501 -0.00000000000E+00  0.00000000000E+00  0.42093138566E+03  0.42093138567E+03  0.25500000000E-02 0. -1.
          2   -1    0    0  501    0  0.00000000000E+00 -0.00000000000E+00 -0.95392858222E+03  0.95392858223E+03  0.25500000000E-02 0.  1.
   -5000001    1    1    2    0    0 -0.33242702461E+03  0.47725411663E+03 -0.29639098216E+03  0.69901847818E+03  0.25000000000E+03 0.  0.
    5000001    1    1    2    0    0  0.33242702461E+03 -0.47725411663E+03 -0.23660621441E+03  0.67584148972E+03  0.25000000000E+03 0.  0.
<mgrwt>
<rscale>  0 0.12673413E+04</rscale>
<asrwt>0</asrwt>
<pdfrwt beam="1">  1        2 0.14675824E+00 0.12673413E+04</pdfrwt>
<pdfrwt beam="2">  1       -2 0.64758675E-01 0.12673413E+04</pdfrwt>
<totfact> 0.58359385E+01</totfact>
</mgrwt>
</event>
<event>
 4    1  0.1773996E-005  0.9026247E+03  0.7818608E-02  0.9422306E-01
          2   -1    0    0  501    0  0.00000000000E+00  0.00000000000E+00  0.19456524235E+04  0.19456524235E+04  0.25500000000E-02 0.  1.
         -2   -1    0    0    0  501 -0.00000000000E+00 -0.00000000000E+00 -0.10468613496E+03  0.10468613499E+03  0.25500000000E-02 0. -1.
   -5000001    1    1    2    0    0  0.36011473263E+03  0.65435094477E+02  0.11134757399E+04  0.11984542526E+04  0.25000000000E+03 0.  0.
    5000001    1    1    2    0    0 -0.36011473263E+03 -0.65435094477E+02  0.72749054865E+03  0.85188430589E+03  0.25000000000E+03 0.  0.
<mgrwt>
<rscale>  0 0.90262469E+03</rscale>
<asrwt>0</asrwt>
<pdfrwt beam="1">  1        2 0.29933112E+00 0.90262469E+03</pdfrwt>
<pdfrwt beam="2">  1       -2 0.16105560E-01 0.90262469E+03</pdfrwt>
<totfact> 0.22470665E+02</totfact>
</mgrwt>
</event>
<event>
 4    1  0.1773996E-005  0.5799940E+03  0.7818608E-02  0.9947804E-01
         -2   -1    0    0    0  501 -0.00000000000E+00  0.00000000000E+00  0.31306821968E+02  0.31306822072E+02  0.25500000000E-02 0. -1.
          2   -1    0    0  501    0  0.00000000000E+00 -0.00000000000E+00 -0.26862598346E+04  0.26862598346E+04  0.25500000000E-02 0.  1.
   -5000001    1    1    2    0    0 -0.22833853936E+02 -0.14141793043E+03 -0.14813041484E+04  0.15090667302E+04  0.25000000000E+03 0.  0.
    5000001    1    1    2    0    0  0.22833853936E+02  0.14141793043E+03 -0.11736488642E+04  0.12084999265E+04  0.25000000000E+03 0.  0.
<mgrwt>
<rscale>  0 0.57999399E+03</rscale>
<asrwt>0</asrwt>
<pdfrwt beam="1">  1        2 0.41327056E+00 0.57999399E+03</pdfrwt>
<pdfrwt beam="2">  1       -2 0.48164363E-02 0.57999399E+03</pdfrwt>
<totfact> 0.62794608E+02</totfact>
</mgrwt>
</event>
<event>
 4    1  0.1773996E-005  0.8765976E+03  0.7818608E-02  0.9455318E-01
          2   -1    0    0  501    0  0.00000000000E+00  0.00000000000E+00  0.20893728174E+03  0.20893728176E+03  0.25500000000E-02 0.  1.
         -2   -1    0    0    0  501 -0.00000000000E+00 -0.00000000000E+00 -0.91944250665E+03  0.91944250665E+03  0.25500000000E-02 0. -1.
   -5000001    1    1    2    0    0 -0.22843984006E+03 -0.27678184195E+03 -0.31855266340E+03  0.54108109181E+03  0.25000000000E+03 0.  0.
    5000001    1    1    2    0    0  0.22843984006E+03  0.27678184195E+03 -0.39195256150E+03  0.58729869660E+03  0.25000000000E+03 0.  0.
<mgrwt>
<rscale>  0 0.87659755E+03</rscale>
<asrwt>0</asrwt>
<pdfrwt beam="1">  1        2 0.32144198E-01 0.87659755E+03</pdfrwt>
<pdfrwt beam="2">  1       -2 0.14145269E+00 0.87659755E+03</pdfrwt>
<totfact> 0.57790311E+01</totfact>
</mgrwt>
</event>
<event>
 4    1  0.1773996E-005  0.8234018E+03  0.7818608E-02  0.9526748E-01
          2   -1    0    0  501    0  0.00000000000E+00  0.00000000000E+00  0.20413781696E+04  0.20413781696E+04  0.25500000000E-02 0.  1.
         -2   -1    0    0    0  501 -0.00000000000E+00 -0.00000000000E+00 -0.83030987322E+02  0.83030987361E+02  0.25500000000E-02 0. -1.
   -5000001    1    1    2    0    0  0.11808449891E+03  0.36527283415E+02  0.19780299467E+03  0.34191258535E+03  0.25000000000E+03 0.  0.
    5000001    1    1    2    0    0 -0.11808449891E+03 -0.36527283415E+02  0.17605441876E+04  0.17824965717E+04  0.25000000000E+03 0.  0.
<mgrwt>
<rscale>  0 0.82340183E+03</rscale>
<asrwt>0</asrwt>
<pdfrwt beam="1">  1        2 0.31405818E+00 0.82340183E+03</pdfrwt>
<pdfrwt beam="2">  1       -2 0.12773998E-01 0.82340183E+03</pdfrwt>
<totfact> 0.29616380E+02</totfact>
</mgrwt>
</event>
<event>
 4    1  0.1773996E-005  0.7104064E+03  0.7818608E-02  0.9699600E-01
          2   -1    0    0  501    0  0.00000000000E+00  0.00000000000E+00  0.97941346138E+03  0.97941346138E+03  0.25500000000E-02 0.  1.
         -2   -1    0    0    0  501 -0.00000000000E+00 -0.00000000000E+00 -0.12882129830E+03  0.12882129833E+03  0.25500000000E-02 0. -1.
   -5000001    1    1    2    0    0  0.23510931699E+03 -0.71838267094E+02  0.33660640254E+03  0.48604629182E+03  0.25000000000E+03 0.  0.
    5000001    1    1    2    0    0 -0.23510931699E+03  0.71838267094E+02  0.51398576053E+03  0.62218846790E+03  0.25000000000E+03 0.  0.
<mgrwt>
<rscale>  0 0.71040640E+03</rscale>
<asrwt>0</asrwt>
<pdfrwt beam="1">  1        2 0.15067900E+00 0.71040640E+03</pdfrwt>
<pdfrwt beam="2">  1       -2 0.19818661E-01 0.71040640E+03</pdfrwt>
<totfact> 0.56692892E+02</totfact>
</mgrwt>
</event>
<event>
 4    1  0.1773996E-005  0.9752142E+03  0.7818608E-02  0.9336155E-01
          2   -1    0    0  501    0  0.00000000000E+00  0.00000000000E+00  0.37594385219E+03  0.37594385220E+03  0.25500000000E-02 0.  1.
         -2   -1    0    0    0  501 -0.00000000000E+00 -0.00000000000E+00 -0.63243663140E+03  0.63243663141E+03  0.25500000000E-02 0. -1.
   -5000001    1    1    2    0    0  0.95525657829E+02 -0.40008471891E+03 -0.47701581117E+02  0.48370277491E+03  0.25000000000E+03 0.  0.
    5000001    1    1    2    0    0 -0.95525657829E+02  0.40008471891E+03 -0.20879119809E+03  0.52467770871E+03  0.25000000000E+03 0.  0.
<mgrwt>
<rscale>  0 0.97521416E+03</rscale>
<asrwt>0</asrwt>
<pdfrwt beam="1">  1        2 0.57837516E-01 0.97521416E+03</pdfrwt>
<pdfrwt beam="2">  1       -2 0.97297943E-01 0.97521416E+03</pdfrwt>
<totfact> 0.75144762E+01</totfact>
</mgrwt>
</event>
<event>
 4    1  0.1773996E-005  0.5351147E+03  0.7818608E-02  0.1004999E+00
         -2   -1    0    0    0  501 -0.00000000000E+00  0.00000000000E+00  0.10886838335E+03  0.10886838338E+03  0.25500000000E-02 0. -1.
          2   -1    0    0  501    0  0.00000000000E+00 -0.00000000000E+00 -0.65755487679E+03  0.65755487680E+03  0.25500000000E-02 0.  1.
   -5000001    1    1    2    0    0  0.40927722557E+02  0.84538016152E+02 -0.25101975213E+03  0.36651421610E+03  0.25000000000E+03 0.  0.
    5000001    1    1    2    0    0 -0.40927722557E+02 -0.84538016152E+02 -0.29766674132E+03  0.39990904408E+03  0.25000000000E+03 0.  0.
<mgrwt>
<rscale>  0 0.53511470E+03</rscale>
<asrwt>0</asrwt>
<pdfrwt beam="1">  1        2 0.10116229E+00 0.53511470E+03</pdfrwt>
<pdfrwt beam="2">  1       -2 0.16748982E-01 0.53511470E+03</pdfrwt>
<totfact> 0.12896475E+03</totfact>
</mgrwt>
</event>
<event>
 4    1  0.1773996E-005  0.9013061E+03  0.7818608E-02  0.9423950E-01
         -2   -1    0    0    0  501 -0.00000000000E+00  0.00000000000E+00  0.85351973415E+02  0.85351973453E+02  0.25500000000E-02 0. -1.
          2   -1    0    0  501    0  0.00000000000E+00 -0.00000000000E+00 -0.23794197025E+04  0.23794197025E+04  0.25500000000E-02 0.  1.
   -5000001    1    1    2    0    0 -0.23356391955E+03 -0.28298596898E+03 -0.93600327094E+03  0.10359706976E+04  0.25000000000E+03 0.  0.
    5000001    1    1    2    0    0  0.23356391955E+03  0.28298596898E+03 -0.13580644581E+04  0.14288009783E+04  0.25000000000E+03 0.  0.
<mgrwt>
<rscale>  0 0.90130609E+03</rscale>
<asrwt>0</asrwt>
<pdfrwt beam="1">  1        2 0.36606452E+00 0.90130609E+03</pdfrwt>
<pdfrwt beam="2">  1       -2 0.13131075E-01 0.90130609E+03</pdfrwt>
<totfact> 0.18255954E+02</totfact>
</mgrwt>
</event>
<event>
 4    1  0.1773996E-005  0.7487410E+03  0.7818608E-02  0.9637328E-01
         -2   -1    0    0    0  501 -0.00000000000E+00  0.00000000000E+00  0.28518616875E+03  0.28518616876E+03  0.25500000000E-02 0. -1.
          2   -1    0    0  501    0  0.00000000000E+00 -0.00000000000E+00 -0.49144485779E+03  0.49144485780E+03  0.25500000000E-02 0.  1.
   -5000001    1    1    2    0    0  0.27097336669E+03 -0.14221484317E+02 -0.37327673027E+02  0.37083981885E+03  0.25000000000E+03 0.  0.
    5000001    1    1    2    0    0 -0.27097336669E+03  0.14221484317E+02 -0.16893101602E+03  0.40579120770E+03  0.25000000000E+03 0.  0.
<mgrwt>
<rscale>  0 0.74874101E+03</rscale>
<asrwt>0</asrwt>
<pdfrwt beam="1">  1        2 0.75606901E-01 0.74874101E+03</pdfrwt>
<pdfrwt beam="2">  1       -2 0.43874795E-01 0.74874101E+03</pdfrwt>
<totfact> 0.31191342E+02</totfact>
</mgrwt>
</event>
<event>
 4    1  0.1773996E-005  0.1086106E+04  0.7818608E-02  0.9218841E-01
         -2   -1    0    0    0  501 -0.00000000000E+00  0.00000000000E+00  0.99820313976E+02  0.99820314008E+02  0.25500000000E-02 0. -1.
          2   -1    0    0  501    0  0.00000000000E+00 -0.00000000000E+00 -0.29543735130E+04  0.29543735130E+04  0.25500000000E-02 0.  1.
   -5000001    1    1    2    0    0 -0.15497699170E+03 -0.45430433685E+03 -0.13016372361E+04  0.14096701007E+04  0.25000000000E+03 0.  0.
    5000001    1    1    2    0    0  0.15497699170E+03  0.45430433685E+03 -0.15529159629E+04  0.16445237263E+04  0.25000000000E+03 0.  0.
<mgrwt>
<rscale>  0 0.10861059E+04</rscale>
<asrwt>0</asrwt>
<pdfrwt beam="1">  1        2 0.45451894E+00 0.10861059E+04</pdfrwt>
<pdfrwt beam="2">  1       -2 0.15356974E-01 0.10861059E+04</pdfrwt>
<totfact> 0.63492786E+01</totfact>
</mgrwt>
</event>
<event>
 4    1  0.1773996E-005  0.7664282E+03  0.7818608E-02  0.9609924E-01
          2   -1    0    0  501    0  0.00000000000E+00  0.00000000000E+00  0.70398925052E+03  0.70398925053E+03  0.25500000000E-02 0.  1.
         -2   -1    0    0    0  501 -0.00000000000E+00 -0.00000000000E+00 -0.20860125331E+03  0.20860125333E+03  0.25500000000E-02 0. -1.
   -5000001    1    1    2    0    0  0.11592783792E+03  0.21239391662E+03  0.56428684189E+02  0.35246934026E+03  0.25000000000E+03 0.  0.
    5000001    1    1    2    0    0 -0.11592783792E+03 -0.21239391662E+03  0.43895931302E+03  0.56012116360E+03  0.25000000000E+03 0.  0.
<mgrwt>
<rscale>  0 0.76642818E+03</rscale>
<asrwt>0</asrwt>
<pdfrwt beam="1">  1        2 0.10830604E+00 0.76642818E+03</pdfrwt>
<pdfrwt beam="2">  1       -2 0.32092501E-01 0.76642818E+03</pdfrwt>
<totfact> 0.36951833E+02</totfact>
</mgrwt>
</event>
<event>
 4    1  0.1773996E-005  0.5645987E+03  0.7818608E-02  0.9981703E-01
         -2   -1    0    0    0  501 -0.00000000000E+00  0.00000000000E+00  0.51080910331E+02  0.51080910395E+02  0.25500000000E-02 0. -1.
          2   -1    0    0  501    0  0.00000000000E+00 -0.00000000000E+00 -0.15601313228E+04  0.15601313228E+04  0.25500000000E-02 0.  1.
   -5000001    1    1    2    0    0  0.99054657558E+02 -0.85090075952E+02 -0.72066524158E+03  0.77389310413E+03  0.25000000000E+03 0.  0.
    5000001    1    1    2    0    0 -0.99054657558E+02  0.85090075952E+02 -0.78838517087E+03  0.83731912904E+03  0.25000000000E+03 0.  0.
<mgrwt>
<rscale>  0 0.56459872E+03</rscale>
<asrwt>0</asrwt>
<pdfrwt beam="1">  1        2 0.24002017E+00 0.56459872E+03</pdfrwt>
<pdfrwt beam="2">  1       -2 0.78586028E-02 0.56459872E+03</pdfrwt>
<totfact> 0.12137436E+03</totfact>
</mgrwt>
</event>
<event>
 4    1  0.1773996E-005  0.5835953E+03  0.7818608E-02  0.9940037E-01
          2   -1    0    0  501    0  0.00000000000E+00  0.00000000000E+00  0.58089447635E+03  0.58089447636E+03  0.25500000000E-02 0.  1.
         -2   -1    0    0    0  501 -0.00000000000E+00 -0.00000000000E+00 -0.14657717302E+03  0.14657717304E+03  0.25500000000E-02 0. -1.
   -5000001    1    1    2    0    0 -0.11535006453E+03  0.90710755978E+02  0.25872252043E+03  0.38855041013E+03  0.25000000000E+03 0.  0.
    5000001    1    1    2    0    0  0.11535006453E+03 -0.90710755978E+02  0.17559478291E+03  0.33892123926E+03  0.25000000000E+03 0.  0.
<mgrwt>
<rscale>  0 0.58359531E+03</rscale>
<asrwt>0</asrwt>
<pdfrwt beam="1">  1        2 0.89368382E-01 0.58359531E+03</pdfrwt>
<pdfrwt beam="2">  1       -2 0.22550334E-01 0.58359531E+03</pdfrwt>
<totfact> 0.89355017E+02</totfact>
</mgrwt>
</event>
<event>
 4    1  0.1773996E-005  0.5488010E+03  0.7818608E-02  0.1001772E+00
          2   -1    0    0  501    0  0.00000000000E+00  0.00000000000E+00  0.15821258751E+04  0.15821258751E+04  0.25500000000E-02 0.  1.
         -2   -1    0    0    0  501 -0.00000000000E+00 -0.00000000000E+00 -0.47591422287E+02  0.47591422355E+02  0.25500000000E-02 0. -1.
   -5000001    1    1    2    0    0 -0.93190166798E+02 -0.11640928721E+02  0.95450969056E+03  0.99116530800E+03  0.25000000000E+03 0.  0.
    5000001    1    1    2    0    0  0.93190166798E+02  0.11640928721E+02  0.58002476222E+03  0.63855198942E+03  0.25000000000E+03 0.  0.
<mgrwt>
<rscale>  0 0.54880095E+03</rscale>
<asrwt>0</asrwt>
<pdfrwt beam="1">  1        2 0.24340393E+00 0.54880095E+03</pdfrwt>
<pdfrwt beam="2">  1       -2 0.73217588E-02 0.54880095E+03</pdfrwt>
<totfact> 0.13217572E+03</totfact>
</mgrwt>
</event>
<event>
 4    1  0.1773996E-005  0.8874905E+03  0.7818608E-02  0.9441355E-01
          2   -1    0    0  501    0  0.00000000000E+00  0.00000000000E+00  0.12423320427E+04  0.12423320427E+04  0.25500000000E-02 0.  1.
         -2   -1    0    0    0  501 -0.00000000000E+00 -0.00000000000E+00 -0.15850017806E+03  0.15850017808E+03  0.25500000000E-02 0. -1.
   -5000001    1    1    2    0    0 -0.14956967440E+03 -0.33360183620E+03  0.58510171105E+03  0.73382919327E+03  0.25000000000E+03 0.  0.
    5000001    1    1    2    0    0  0.14956967440E+03  0.33360183620E+03  0.49873015363E+03  0.66700302755E+03  0.25000000000E+03 0.  0.
<mgrwt>
<rscale>  0 0.88749051E+03</rscale>
<asrwt>0</asrwt>
<pdfrwt beam="1">  1        2 0.19112801E+00 0.88749051E+03</pdfrwt>
<pdfrwt beam="2">  1       -2 0.24384643E-01 0.88749051E+03</pdfrwt>
<totfact> 0.26870187E+02</totfact>
</mgrwt>
</event>
<event>
 4    1  0.1773996E-005  0.6565502E+03  0.7818608E-02  0.9794565E-01
          2   -1    0    0  501    0  0.00000000000E+00  0.00000000000E+00  0.69533262331E+03  0.69533262332E+03  0.25500000000E-02 0.  1.
         -2   -1    0    0    0  501 -0.00000000000E+00 -0.00000000000E+00 -0.15498270298E+03  0.15498270300E+03  0.25500000000E-02 0. -1.
   -5000001    1    1    2    0    0 -0.20734240476E+03  0.58798563759E+01  0.33145898477E+03  0.46410182515E+03  0.25000000000E+03 0.  0.
    5000001    1    1    2    0    0  0.20734240476E+03 -0.58798563759E+01  0.20889093557E+03  0.38621350117E+03  0.25000000000E+03 0.  0.
<mgrwt>
<rscale>  0 0.65655016E+03</rscale>
<asrwt>0</asrwt>
<pdfrwt beam="1">  1        2 0.10697425E+00 0.65655016E+03</pdfrwt>
<pdfrwt beam="2">  1       -2 0.23843492E-01 0.65655016E+03</pdfrwt>
<totfact> 0.64887286E+02</totfact>
</mgrwt>
</event>
<event>
 4    1  0.1773996E-005  0.8412900E+03  0.7818608E-02  0.9502102E-01
          2   -1    0    0  501    0  0.00000000000E+00  0.00000000000E+00  0.23159649005E+03  0.23159649007E+03  0.25500000000E-02 0.  1.
         -2   -1    0    0    0  501 -0.00000000000E+00 -0.00000000000E+00 -0.76401079949E+03  0.76401079950E+03  0.25500000000E-02 0. -1.
   -5000001    1    1    2    0    0 -0.30586557589E+03 -0.79369724420E+02 -0.40914717737E+03  0.57424273301E+03  0.25000000000E+03 0.  0.
    5000001    1    1    2    0    0  0.30586557589E+03  0.79369724420E+02 -0.12326713207E+03  0.42136455655E+03  0.25000000000E+03 0.  0.
<mgrwt>
<rscale>  0 0.84129001E+03</rscale>
<asrwt>0</asrwt>
<pdfrwt beam="1">  1        2 0.35630230E-01 0.84129001E+03</pdfrwt>
<pdfrwt beam="2">  1       -2 0.11754012E+00 0.84129001E+03</pdfrwt>
<totfact> 0.82395195E+01</totfact>
</mgrwt>
</event>
<event>
 4    1  0.1773996E-005  0.1178738E+04  0.7818608E-02  0.9131673E-01
          2   -1    0    0  501    0  0.00000000000E+00  0.00000000000E+00  0.26730924701E+04  0.26730924701E+04  0.25500000000E-02 0.  1.
         -2   -1    0    0    0  501 -0.00000000000E+00 -0.00000000000E+00 -0.12994528748E+03  0.12994528750E+03  0.25500000000E-02 0. -1.
   -5000001    1    1    2    0    0 -0.48794517231E+03 -0.14255103971E+03  0.88486911010E+03  0.10506686595E+04  0.25000000000E+03 0.  0.
    5000001    1    1    2    0    0  0.48794517231E+03  0.14255103971E+03  0.16582780725E+04  0.17523690981E+04  0.25000000000E+03 0.  0.
<mgrwt>
<rscale>  0 0.11787379E+04</rscale>
<asrwt>0</asrwt>
<pdfrwt beam="1">  1        2 0.41124503E+00 0.11787379E+04</pdfrwt>
<pdfrwt beam="2">  1       -2 0.19991581E-01 0.11787379E+04</pdfrwt>
<totfact> 0.58787086E+01</totfact>
</mgrwt>
</event>
<event>
 4    1  0.1773996E-005  0.6240429E+03  0.7818608E-02  0.9856743E-01
          2   -1    0    0  501    0  0.00000000000E+00  0.00000000000E+00  0.43754287730E+03  0.43754287731E+03  0.25500000000E-02 0.  1.
         -2   -1    0    0    0  501 -0.00000000000E+00 -0.00000000000E+00 -0.22250938411E+03  0.22250938412E+03  0.25500000000E-02 0. -1.
   -5000001    1    1    2    0    0  0.90814104167E+02 -0.14854145197E+03  0.36205016248E+02  0.30679401505E+03  0.25000000000E+03 0.  0.
    5000001    1    1    2    0    0 -0.90814104167E+02  0.14854145197E+03  0.17882847694E+03  0.35325824638E+03  0.25000000000E+03 0.  0.
<mgrwt>
<rscale>  0 0.62404293E+03</rscale>
<asrwt>0</asrwt>
<pdfrwt beam="1">  1        2 0.67314288E-01 0.62404293E+03</pdfrwt>
<pdfrwt beam="2">  1       -2 0.34232213E-01 0.62404293E+03</pdfrwt>
<totfact> 0.57790410E+02</totfact>
</mgrwt>
</event>
<event>
 4    1  0.1773996E-005  0.7028575E+03  0.7818608E-02  0.9712358E-01
         -2   -1    0    0    0  501 -0.00000000000E+00  0.00000000000E+00  0.17685637215E+04  0.17685637215E+04  0.25500000000E-02 0. -1.
          2   -1    0    0  501    0  0.00000000000E+00 -0.00000000000E+00 -0.69831896321E+02  0.69831896368E+02  0.25500000000E-02 0.  1.
   -5000001    1    1    2    0    0 -0.85621876055E+02 -0.22281624561E+03  0.10152861129E+04  0.10725129724E+04  0.25000000000E+03 0.  0.
    5000001    1    1    2    0    0  0.85621876055E+02  0.22281624561E+03  0.68344571230E+03  0.76588264547E+03  0.25000000000E+03 0.  0.
<mgrwt>
<rscale>  0 0.70285748E+03</rscale>
<asrwt>0</asrwt>
<pdfrwt beam="1">  1        2 0.10743369E-01 0.70285748E+03</pdfrwt>
<pdfrwt beam="2">  1       -2 0.27208671E+00 0.70285748E+03</pdfrwt>
<totfact> 0.29634160E+01</totfact>
</mgrwt>
</event>
<event>
 4    1  0.1773996E-005  0.1212011E+04  0.7818608E-02  0.9102408E-01
          2   -1    0    0  501    0  0.00000000000E+00  0.00000000000E+00  0.87763729329E+03  0.87763729329E+03  0.25500000000E-02 0.  1.
         -2   -1    0    0    0  501 -0.00000000000E+00 -0.00000000000E+00 -0.41844442527E+03  0.41844442528E+03  0.25500000000E-02 0. -1.
   -5000001    1    1    2    0    0  0.12806072810E+03 -0.40398210425E+02 -0.34299920838E+03  0.44517414843E+03  0.25000000000E+03 0.  0.
    5000001    1    1    2    0    0 -0.12806072810E+03  0.40398210425E+02  0.80219207639E+03  0.85090757014E+03  0.25000000000E+03 0.  0.
<mgrwt>
<rscale>  0 0.12120106E+04</rscale>
<asrwt>0</asrwt>
<pdfrwt beam="1">  1        2 0.13502112E+00 0.12120106E+04</pdfrwt>
<pdfrwt beam="2">  1       -2 0.64376066E-01 0.12120106E+04</pdfrwt>
<totfact> 0.66762789E+01</totfact>
</mgrwt>
</event>
<event>
 4    1  0.1773996E-005  0.9342642E+03  0.7818608E-02  0.9383735E-01
          2   -1    0    0  501    0  0.00000000000E+00  0.00000000000E+00  0.17084666938E+04  0.17084666938E+04  0.25500000000E-02 0.  1.
         -2   -1    0    0    0  501 -0.00000000000E+00 -0.00000000000E+00 -0.12772412902E+03  0.12772412904E+03  0.25500000000E-02 0. -1.
   -5000001    1    1    2    0    0  0.37376346106E+03  0.10549787634E+03  0.65302610960E+03  0.79985750391E+03  0.25000000000E+03 0.  0.
    5000001    1    1    2    0    0 -0.37376346106E+03 -0.10549787634E+03  0.92771645518E+03  0.10363333189E+04  0.25000000000E+03 0.  0.
<mgrwt>
<rscale>  0 0.93426425E+03</rscale>
<asrwt>0</asrwt>
<pdfrwt beam="1">  1        2 0.26284103E+00 0.93426425E+03</pdfrwt>
<pdfrwt beam="2">  1       -2 0.19649866E-01 0.93426425E+03</pdfrwt>
<totfact> 0.21449919E+02</totfact>
</mgrwt>
</event>
<event>
 4    1  0.1773996E-005  0.5326169E+03  0.7818608E-02  0.1005599E+00
         -2   -1    0    0    0  501 -0.00000000000E+00  0.00000000000E+00  0.39236702990E+03  0.39236702991E+03  0.25500000000E-02 0. -1.
          2   -1    0    0  501    0  0.00000000000E+00 -0.00000000000E+00 -0.18074960988E+03  0.18074960990E+03  0.25500000000E-02 0.  1.
   -5000001    1    1    2    0    0 -0.42865364785E+02 -0.80740398407E+02  0.11439926131E+03  0.28973029255E+03  0.25000000000E+03 0.  0.
    5000001    1    1    2    0    0  0.42865364785E+02  0.80740398407E+02  0.97218158706E+02  0.28338634726E+03  0.25000000000E+03 0.  0.
<mgrwt>
<rscale>  0 0.53261689E+03</rscale>
<asrwt>0</asrwt>
<pdfrwt beam="1">  1        2 0.27807633E-01 0.53261689E+03</pdfrwt>
<pdfrwt beam="2">  1       -2 0.60364158E-01 0.53261689E+03</pdfrwt>
<totfact> 0.50023571E+02</totfact>
</mgrwt>
</event>
<event>
 4    1  0.1773996E-005  0.6098480E+03  0.7818608E-02  0.9885183E-01
          2   -1    0    0  501    0  0.00000000000E+00  0.00000000000E+00  0.53653061630E+03  0.53653061631E+03  0.25500000000E-02 0.  1.
         -2   -1    0    0    0  501 -0.00000000000E+00 -0.00000000000E+00 -0.17329609567E+03  0.17329609569E+03  0.25500000000E-02 0. -1.
   -5000001    1    1    2    0    0 -0.12381489950E+03  0.12271074314E+03  0.17053808945E+03  0.34924389153E+03  0.25000000000E+03 0.  0.
    5000001    1    1    2    0    0  0.12381489950E+03 -0.12271074314E+03  0.19269643118E+03  0.36058282046E+03  0.25000000000E+03 0.  0.
<mgrwt>
<rscale>  0 0.60984805E+03</rscale>
<asrwt>0</asrwt>
<pdfrwt beam="1">  1        2 0.82543170E-01 0.60984805E+03</pdfrwt>
<pdfrwt beam="2">  1       -2 0.26660938E-01 0.60984805E+03</pdfrwt>
<totfact> 0.72657904E+02</totfact>
</mgrwt>
</event>
<event>
 4    1  0.1773996E-005  0.6049753E+03  0.7818608E-02  0.9895137E-01
          2   -1    0    0  501    0  0.00000000000E+00  0.00000000000E+00  0.33075627478E+04  0.33075627478E+04  0.25500000000E-02 0.  1.
         -2   -1    0    0    0  501 -0.00000000000E+00 -0.00000000000E+00 -0.27663505950E+02  0.27663506067E+02  0.25500000000E-02 0. -1.
   -5000001    1    1    2    0    0 -0.16011759664E+03  0.54296159178E+02  0.17519956522E+04  0.17778004621E+04  0.25000000000E+03 0.  0.
    5000001    1    1    2    0    0  0.16011759664E+03 -0.54296159178E+02  0.15279035897E+04  0.15574257918E+04  0.25000000000E+03 0.  0.
<mgrwt>
<rscale>  0 0.60497531E+03</rscale>
<asrwt>0</asrwt>
<pdfrwt beam="1">  1        2 0.50885536E+00 0.60497531E+03</pdfrwt>
<pdfrwt beam="2">  1       -2 0.42559277E-02 0.60497531E+03</pdfrwt>
<totfact> 0.31718846E+02</totfact>
</mgrwt>
</event>
<event>
 4    1  0.1773996E-005  0.9072868E+03  0.7818608E-02  0.9416518E-01
          2   -1    0    0  501    0  0.00000000000E+00  0.00000000000E+00  0.94188657634E+03  0.94188657634E+03  0.25500000000E-02 0.  1.
         -2   -1    0    0    0  501 -0.00000000000E+00 -0.00000000000E+00 -0.21848950716E+03  0.21848950717E+03  0.25500000000E-02 0. -1.
   -5000001    1    1    2    0    0  0.21798417748E+03  0.15344288408E+03  0.17970837439E+02  0.36590268010E+03  0.25000000000E+03 0.  0.
    5000001    1    1    2    0    0 -0.21798417748E+03 -0.15344288408E+03  0.70542623174E+03  0.79447340342E+03  0.25000000000E+03 0.  0.
<mgrwt>
<rscale>  0 0.90728680E+03</rscale>
<asrwt>0</asrwt>
<pdfrwt beam="1">  1        2 0.14490563E+00 0.90728680E+03</pdfrwt>
<pdfrwt beam="2">  1       -2 0.33613771E-01 0.90728680E+03</pdfrwt>
<totfact> 0.22773034E+02</totfact>
</mgrwt>
</event>
<event>
 4    1  0.1773996E-005  0.7234925E+03  0.7818608E-02  0.9677879E-01
         -2   -1    0    0    0  501 -0.00000000000E+00  0.00000000000E+00  0.10415904865E+03  0.10415904868E+03  0.25500000000E-02 0. -1.
          2   -1    0    0  501    0  0.00000000000E+00 -0.00000000000E+00 -0.12563512833E+04  0.12563512833E+04  0.25500000000E-02 0.  1.
   -5000001    1    1    2    0    0  0.18878099739E+03 -0.17589486038E+03 -0.65550226728E+03  0.74750283564E+03  0.25000000000E+03 0.  0.
    5000001    1    1    2    0    0 -0.18878099739E+03  0.17589486038E+03 -0.49668996742E+03  0.61300749638E+03  0.25000000000E+03 0.  0.
<mgrwt>
<rscale>  0 0.72349251E+03</rscale>
<asrwt>0</asrwt>
<pdfrwt beam="1">  1        2 0.19328480E+00 0.72349251E+03</pdfrwt>
<pdfrwt beam="2">  1       -2 0.16024470E-01 0.72349251E+03</pdfrwt>
<totfact> 0.55432784E+02</totfact>
</mgrwt>
</event>
<event>
 4    1  0.1773996E-005  0.8804734E+03  0.7818608E-02  0.9450325E-01
         -2   -1    0    0    0  501 -0.00000000000E+00  0.00000000000E+00  0.41512692947E+03  0.41512692947E+03  0.25500000000E-02 0.  1.
          2   -1    0    0  501    0  0.00000000000E+00 -0.00000000000E+00 -0.46686532833E+03  0.46686532834E+03  0.25500000000E-02 0. -1.
   -5000001    1    1    2    0    0 -0.31038841902E+03 -0.10260936295E+03 -0.18246774506E+03  0.45018232974E+03  0.25000000000E+03 0.  0.
    5000001    1    1    2    0    0  0.31038841902E+03  0.10260936295E+03  0.13072934620E+03  0.43180992807E+03  0.25000000000E+03 0.  0.
<mgrwt>
<rscale>  0 0.88047344E+03</rscale>
<asrwt>0</asrwt>
<pdfrwt beam="1">  1        2 0.71825435E-01 0.88047344E+03</pdfrwt>
<pdfrwt beam="2">  1       -2 0.63865681E-01 0.88047344E+03</pdfrwt>
<totfact> 0.15189020E+02</totfact>
</mgrwt>
</event>
<event>
 4    1  0.1773996E-005  0.6561554E+03  0.7818608E-02  0.9795297E-01
          2   -1    0    0  501    0  0.00000000000E+00  0.00000000000E+00  0.34169452724E+04  0.34169452724E+04  0.25500000000E-02 0.  1.
         -2   -1    0    0    0  501 -0.00000000000E+00 -0.00000000000E+00 -0.31500353624E+02  0.31500353728E+02  0.25500000000E-02 0. -1.
   -5000001    1    1    2    0    0  0.20249604977E+03  0.57060534479E+02  0.15373123961E+04  0.15716519838E+04  0.25000000000E+03 0.  0.
    5000001    1    1    2    0    0 -0.20249604977E+03 -0.57060534479E+02  0.18481325226E+04  0.18767936423E+04  0.25000000000E+03 0.  0.
<mgrwt>
<rscale>  0 0.65615542E+03</rscale>
<asrwt>0</asrwt>
<pdfrwt beam="1">  1        2 0.52568384E+00 0.65615542E+03</pdfrwt>
<pdfrwt beam="2">  1       -2 0.48462087E-02 0.65615542E+03</pdfrwt>
<totfact> 0.21845081E+02</totfact>
</mgrwt>
</event>
<event>
 4    1  0.1773996E-005  0.8047729E+03  0.7818608E-02  0.9553134E-01
         -2   -1    0    0    0  501 -0.00000000000E+00  0.00000000000E+00  0.61192141216E+03  0.61192141217E+03  0.25500000000E-02 0. -1.
          2   -1    0    0  501    0  0.00000000000E+00 -0.00000000000E+00 -0.26460074681E+03  0.26460074682E+03  0.25500000000E-02 0.  1.
   -5000001    1    1    2    0    0  0.17336764465E+03  0.26328936374E+03  0.18030626343E+03  0.44089452015E+03  0.25000000000E+03 0.  0.
    5000001    1    1    2    0    0 -0.17336764465E+03 -0.26328936374E+03  0.16701440192E+03  0.43562763883E+03  0.25000000000E+03 0.  0.
<mgrwt>
<rscale>  0 0.80477292E+03</rscale>
<asrwt>0</asrwt>
<pdfrwt beam="1">  1        2 0.40707808E-01 0.80477292E+03</pdfrwt>
<pdfrwt beam="2">  1       -2 0.94141754E-01 0.80477292E+03</pdfrwt>
<totfact> 0.12109797E+02</totfact>
</mgrwt>
</event>
<event>
 4    1  0.1773996E-005  0.1168249E+04  0.7818608E-02  0.9141111E-01
         -2   -1    0    0    0  501 -0.00000000000E+00  0.00000000000E+00  0.52840606063E+03  0.52840606064E+03  0.25500000000E-02 0. -1.
          2   -1    0    0  501    0  0.00000000000E+00 -0.00000000000E+00 -0.64571860807E+03  0.64571860808E+03  0.25500000000E-02 0.  1.
   -5000001    1    1    2    0    0  0.47142056119E+03  0.14174134414E+03 -0.25033426222E+03  0.60621382118E+03  0.25000000000E+03 0.  0.
    5000001    1    1    2    0    0 -0.47142056119E+03 -0.14174134414E+03  0.13302171478E+03  0.56791084754E+03  0.25000000000E+03 0.  0.
<mgrwt>
<rscale>  0 0.11682493E+04</rscale>
<asrwt>0</asrwt>
<pdfrwt beam="1">  1        2 0.99341324E-01 0.11682493E+04</pdfrwt>
<pdfrwt beam="2">  1       -2 0.81293240E-01 0.11682493E+04</pdfrwt>
<totfact> 0.59788714E+01</totfact>
</mgrwt>
</event>
<event>
 4    1  0.1773996E-005  0.9155928E+03  0.7818608E-02  0.9406297E-01
          2   -1    0    0  501    0  0.00000000000E+00  0.00000000000E+00  0.28101147503E+04  0.28101147503E+04  0.25500000000E-02 0.  1.
         -2   -1    0    0    0  501 -0.00000000000E+00 -0.00000000000E+00 -0.74579702238E+02  0.74579702282E+02  0.25500000000E-02 0. -1.
   -5000001    1    1    2    0    0  0.38282646716E+03  0.15462869248E+02  0.13148297014E+04  0.13921466690E+04  0.25000000000E+03 0.  0.
    5000001    1    1    2    0    0 -0.38282646716E+03 -0.15462869248E+02  0.14207053467E+04  0.14925477836E+04  0.25000000000E+03 0.  0.
<mgrwt>
<rscale>  0 0.91559275E+03</rscale>
<asrwt>0</asrwt>
<pdfrwt beam="1">  1        2 0.43232529E+00 0.91559275E+03</pdfrwt>
<pdfrwt beam="2">  1       -2 0.11473802E-01 0.91559275E+03</pdfrwt>
<totfact> 0.12867560E+02</totfact>
</mgrwt>
</event>
<event>
 4    1  0.1773996E-005  0.6703445E+03  0.7818608E-02  0.9769336E-01
          2   -1    0    0  501    0  0.00000000000E+00  0.00000000000E+00  0.33860277366E+03  0.33860277367E+03  0.25500000000E-02 0.  1.
         -2   -1    0    0    0  501 -0.00000000000E+00 -0.00000000000E+00 -0.33177646969E+03  0.33177646970E+03  0.25500000000E-02 0. -1.
   -5000001    1    1    2    0    0  0.39391999094E+02  0.21968374043E+03 -0.18556575421E+01  0.33513597071E+03  0.25000000000E+03 0.  0.
    5000001    1    1    2    0    0 -0.39391999094E+02 -0.21968374043E+03  0.86819615121E+01  0.33524327265E+03  0.25000000000E+03 0.  0.
<mgrwt>
<rscale>  0 0.67034449E+03</rscale>
<asrwt>0</asrwt>
<pdfrwt beam="1">  1        2 0.52092734E-01 0.67034449E+03</pdfrwt>
<pdfrwt beam="2">  1       -2 0.51042534E-01 0.67034449E+03</pdfrwt>
<totfact> 0.35119048E+02</totfact>
</mgrwt>
</event>
<event>
 4    1  0.1773996E-005  0.6732043E+03  0.7818608E-02  0.9764186E-01
         -2   -1    0    0    0  501 -0.00000000000E+00  0.00000000000E+00  0.21611600216E+03  0.21611600218E+03  0.25500000000E-02 0. -1.
          2   -1    0    0  501    0  0.00000000000E+00 -0.00000000000E+00 -0.52426018144E+03  0.52426018145E+03  0.25500000000E-02 0.  1.
   -5000001    1    1    2    0    0  0.17534863532E+03 -0.14078682167E+03 -0.13728679646E+03  0.36320206159E+03  0.25000000000E+03 0.  0.
    5000001    1    1    2    0    0 -0.17534863532E+03  0.14078682167E+03 -0.17085738282E+03  0.37717412203E+03  0.25000000000E+03 0.  0.
<mgrwt>
<rscale>  0 0.67320432E+03</rscale>
<asrwt>0</asrwt>
<pdfrwt beam="1">  1        2 0.80655412E-01 0.67320432E+03</pdfrwt>
<pdfrwt beam="2">  1       -2 0.33248616E-01 0.67320432E+03</pdfrwt>
<totfact> 0.49557259E+02</totfact>
</mgrwt>
</event>
<event>
 4    1  0.1773996E-005  0.9672906E+03  0.7818608E-02  0.9345166E-01
         -2   -1    0    0    0  501 -0.00000000000E+00  0.00000000000E+00  0.32614296487E+03  0.32614296488E+03  0.25500000000E-02 0. -1.
          2   -1    0    0  501    0  0.00000000000E+00 -0.00000000000E+00 -0.71720939825E+03  0.71720939826E+03  0.25500000000E-02 0.  1.
   -5000001    1    1    2    0    0  0.18604012555E+03 -0.13111084431E+03  0.17751164312E+03  0.38185254386E+03  0.25000000000E+03 0.  0.
    5000001    1    1    2    0    0 -0.18604012555E+03  0.13111084431E+03 -0.56857807651E+03  0.66149981927E+03  0.25000000000E+03 0.  0.
<mgrwt>
<rscale>  0 0.96729065E+03</rscale>
<asrwt>0</asrwt>
<pdfrwt beam="1">  1        2 0.11033991E+00 0.96729065E+03</pdfrwt>
<pdfrwt beam="2">  1       -2 0.50175841E-01 0.96729065E+03</pdfrwt>
<totfact> 0.14927343E+02</totfact>
</mgrwt>
</event>
<event>
 4    1  0.1773996E-005  0.7294601E+03  0.7818608E-02  0.9668137E-01
         -2   -1    0    0    0  501 -0.00000000000E+00  0.00000000000E+00  0.36216236258E+03  0.36216236259E+03  0.25500000000E-02 0. -1.
          2   -1    0    0  501    0  0.00000000000E+00 -0.00000000000E+00 -0.36731590195E+03  0.36731590196E+03  0.25500000000E-02 0.  1.
   -5000001    1    1    2    0    0 -0.24658514817E+03 -0.79713657568E+02 -0.60625547027E+02  0.36514922902E+03  0.25000000000E+03 0.  0.
    5000001    1    1    2    0    0  0.24658514817E+03  0.79713657568E+02  0.55472007655E+02  0.36432903553E+03  0.25000000000E+03 0.  0.
<mgrwt>
<rscale>  0 0.72946006E+03</rscale>
<asrwt>0</asrwt>
<pdfrwt beam="1">  1        2 0.56510139E-01 0.72946006E+03</pdfrwt>
<pdfrwt beam="2">  1       -2 0.55717286E-01 0.72946006E+03</pdfrwt>
<totfact> 0.26731456E+02</totfact>
</mgrwt>
</event>
<event>
 4    1  0.1773996E-005  0.6963750E+03  0.7818608E-02  0.9723452E-01
         -2   -1    0    0    0  501 -0.00000000000E+00  0.00000000000E+00  0.19547446691E+03  0.19547446693E+03  0.25500000000E-02 0. -1.
          2   -1    0    0  501    0  0.00000000000E+00 -0.00000000000E+00 -0.62020650355E+03  0.62020650355E+03  0.25500000000E-02 0.  1.
   -5000001    1    1    2    0    0 -0.12557747215E+03  0.82829707343E+02 -0.43493019453E+03  0.52373154960E+03  0.25000000000E+03 0.  0.
    5000001    1    1    2    0    0  0.12557747215E+03 -0.82829707343E+02  0.10198157893E+02  0.29194942088E+03  0.25000000000E+03 0.  0.
<mgrwt>
<rscale>  0 0.69637500E+03</rscale>
<asrwt>0</asrwt>
<pdfrwt beam="1">  1        2 0.95416384E-01 0.69637500E+03</pdfrwt>
<pdfrwt beam="2">  1       -2 0.30072995E-01 0.69637500E+03</pdfrwt>
<totfact> 0.48919823E+02</totfact>
</mgrwt>
</event>
<event>
 4    1  0.1773996E-005  0.8683147E+03  0.7818608E-02  0.9466080E-01
         -2   -1    0    0    0  501 -0.00000000000E+00  0.00000000000E+00  0.34109928239E+03  0.34109928240E+03  0.25500000000E-02 0. -1.
          2   -1    0    0  501    0  0.00000000000E+00 -0.00000000000E+00 -0.55260333838E+03  0.55260333839E+03  0.25500000000E-02 0.  1.
   -5000001    1    1    2    0    0  0.11262153732E+03  0.31598158570E+03  0.13677874207E+02  0.41858697712E+03  0.25000000000E+03 0.  0.
    5000001    1    1    2    0    0 -0.11262153732E+03 -0.31598158570E+03 -0.22518193020E+03  0.47511564367E+03  0.25000000000E+03 0.  0.
<mgrwt>
<rscale>  0 0.86831469E+03</rscale>
<asrwt>0</asrwt>
<pdfrwt beam="1">  1        2 0.85015898E-01 0.86831469E+03</pdfrwt>
<pdfrwt beam="2">  1       -2 0.52476813E-01 0.86831469E+03</pdfrwt>
<totfact> 0.18849942E+02</totfact>
</mgrwt>
</event>
<event>
 4    1  0.1773996E-005  0.9550031E+03  0.7818608E-02  0.9359322E-01
          2   -1    0    0  501    0  0.00000000000E+00  0.00000000000E+00  0.25191864996E+04  0.25191864996E+04  0.25500000000E-02 0.  1.
         -2   -1    0    0    0  501 -0.00000000000E+00 -0.00000000000E+00 -0.90508467288E+02  0.90508467324E+02  0.25500000000E-02 0. -1.
   -5000001    1    1    2    0    0 -0.33745530192E+03  0.63793416283E+02  0.61838168048E+03  0.75022768778E+03  0.25000000000E+03 0.  0.
    5000001    1    1    2    0    0  0.33745530192E+03 -0.63793416283E+02  0.18102963519E+04  0.18594672792E+04  0.25000000000E+03 0.  0.
<mgrwt>
<rscale>  0 0.95500306E+03</rscale>
<asrwt>0</asrwt>
<pdfrwt beam="1">  1        2 0.38756709E+00 0.95500306E+03</pdfrwt>
<pdfrwt beam="2">  1       -2 0.13924382E-01 0.95500306E+03</pdfrwt>
<totfact> 0.13719113E+02</totfact>
</mgrwt>
</event>
<event>
 4    1  0.1773996E-005  0.7851174E+03  0.7818608E-02  0.9581812E-01
         -2   -1    0    0    0  501 -0.00000000000E+00  0.00000000000E+00  0.21110379944E+03  0.21110379946E+03  0.25500000000E-02 0. -1.
          2   -1    0    0  501    0  0.00000000000E+00 -0.00000000000E+00 -0.72998367052E+03  0.72998367052E+03  0.25500000000E-02 0.  1.
   -5000001    1    1    2    0    0 -0.20065851084E+03 -0.82881794385E+02 -0.66705043470E+01  0.33117627548E+03  0.25000000000E+03 0.  0.
    5000001    1    1    2    0    0  0.20065851084E+03  0.82881794385E+02 -0.51220936673E+03  0.60991119450E+03  0.25000000000E+03 0.  0.
<mgrwt>
<rscale>  0 0.78511738E+03</rscale>
<asrwt>0</asrwt>
<pdfrwt beam="1">  1        2 0.11230518E+00 0.78511738E+03</pdfrwt>
<pdfrwt beam="2">  1       -2 0.32477508E-01 0.78511738E+03</pdfrwt>
<totfact> 0.34478551E+02</totfact>
</mgrwt>
</event>
<event>
 4    1  0.1773996E-005  0.5962930E+03  0.7818608E-02  0.9913127E-01
         -2   -1    0    0    0  501 -0.00000000000E+00  0.00000000000E+00  0.58828721821E+03  0.58828721822E+03  0.25500000000E-02 0.  1.
          2   -1    0    0  501    0  0.00000000000E+00 -0.00000000000E+00 -0.15110191884E+03  0.15110191886E+03  0.25500000000E-02 0. -1.
   -5000001    1    1    2    0    0 -0.10370856887E+03 -0.21898000816E+02  0.37124746647E+03  0.45995616211E+03  0.25000000000E+03 0.  0.
    5000001    1    1    2    0    0  0.10370856887E+03  0.21898000816E+02  0.65937832897E+02  0.27943297498E+03  0.25000000000E+03 0.  0.
<mgrwt>
<rscale>  0 0.59629297E+03</rscale>
<asrwt>0</asrwt>
<pdfrwt beam="1">  1        2 0.23246450E-01 0.59629297E+03</pdfrwt>
<pdfrwt beam="2">  1       -2 0.90505724E-01 0.59629297E+03</pdfrwt>
<totfact> 0.25154355E+02</totfact>
</mgrwt>
</event>
<event>
 4    1  0.1773996E-005  0.1058267E+04  0.7818608E-02  0.9246850E-01
          2   -1    0    0  501    0  0.00000000000E+00  0.00000000000E+00  0.58291471831E+03  0.58291471832E+03  0.25500000000E-02 0. -1.
         -2   -1    0    0    0  501 -0.00000000000E+00 -0.00000000000E+00 -0.48031435173E+03  0.48031435174E+03  0.25500000000E-02 0.  1.
   -5000001    1    1    2    0    0 -0.13608761984E+03 -0.44012335230E+02  0.49725682896E+03  0.57464883179E+03  0.25000000000E+03 0.  0.
    5000001    1    1    2    0    0  0.13608761984E+03  0.44012335230E+02 -0.39465646238E+03  0.48858023827E+03  0.25000000000E+03 0.  0.
<mgrwt>
<rscale>  0 0.10582671E+04</rscale>
<asrwt>0</asrwt>
<pdfrwt beam="1">  1        2 0.89679187E-01 0.10582671E+04</pdfrwt>
<pdfrwt beam="2">  1       -2 0.73894516E-01 0.10582671E+04</pdfrwt>
<totfact> 0.84408497E+01</totfact>
</mgrwt>
</event>
<event>
 4    1  0.1773996E-005  0.7362212E+03  0.7818608E-02  0.9657219E-01
          2   -1    0    0  501    0  0.00000000000E+00  0.00000000000E+00  0.12581841095E+03  0.12581841098E+03  0.25500000000E-02 0.  1.
         -2   -1    0    0    0  501 -0.00000000000E+00 -0.00000000000E+00 -0.10769920128E+04  0.10769920128E+04  0.25500000000E-02 0. -1.
   -5000001    1    1    2    0    0 -0.85649367797E+02  0.24975977748E+03 -0.38188141470E+03  0.52730368436E+03  0.25000000000E+03 0.  0.
    5000001    1    1    2    0    0  0.85649367797E+02 -0.24975977748E+03 -0.56929218716E+03  0.67550673943E+03  0.25000000000E+03 0.  0.
<mgrwt>
<rscale>  0 0.73622123E+03</rscale>
<asrwt>0</asrwt>
<pdfrwt beam="1">  1        2 0.19356679E-01 0.73622123E+03</pdfrwt>
<pdfrwt beam="2">  1       -2 0.16569107E+00 0.73622123E+03</pdfrwt>
<totfact> 0.68474410E+01</totfact>
</mgrwt>
</event>
<event>
 4    1  0.1773996E-005  0.6370777E+03  0.7818608E-02  0.9831334E-01
          2   -1    0    0  501    0  0.00000000000E+00  0.00000000000E+00  0.98001830069E+03  0.98001830069E+03  0.25500000000E-02 0.  1.
         -2   -1    0    0    0  501 -0.00000000000E+00 -0.00000000000E+00 -0.10353583204E+03  0.10353583207E+03  0.25500000000E-02 0. -1.
   -5000001    1    1    2    0    0 -0.16487406937E+03 -0.68785993392E+02  0.29541252085E+03  0.42624350917E+03  0.25000000000E+03 0.  0.
    5000001    1    1    2    0    0  0.16487406937E+03  0.68785993392E+02  0.58106994780E+03  0.65731062359E+03  0.25000000000E+03 0.  0.
<mgrwt>
<rscale>  0 0.63707774E+03</rscale>
<asrwt>0</asrwt>
<pdfrwt beam="1">  1        2 0.15077204E+00 0.63707774E+03</pdfrwt>
<pdfrwt beam="2">  1       -2 0.15928590E-01 0.63707774E+03</pdfrwt>
<totfact> 0.82711951E+02</totfact>
</mgrwt>
</event>
<event>
 4    1  0.1773996E-005  0.7488500E+03  0.7818608E-02  0.9637156E-01
          2   -1    0    0  501    0  0.00000000000E+00  0.00000000000E+00  0.20352590447E+04  0.20352590447E+04  0.25500000000E-02 0.  1.
         -2   -1    0    0    0  501 -0.00000000000E+00 -0.00000000000E+00 -0.68882663593E+02  0.68882663640E+02  0.25500000000E-02 0. -1.
   -5000001    1    1    2    0    0 -0.63868399047E+02 -0.18435115661E+03  0.15425460021E+04  0.15748056039E+04  0.25000000000E+03 0.  0.
    5000001    1    1    2    0    0  0.63868399047E+02  0.18435115661E+03  0.42383037900E+03  0.52933610448E+03  0.25000000000E+03 0.  0.
<mgrwt>
<rscale>  0 0.74884996E+03</rscale>
<asrwt>0</asrwt>
<pdfrwt beam="1">  1        2 0.31311676E+00 0.74884996E+03</pdfrwt>
<pdfrwt beam="2">  1       -2 0.10597333E-01 0.74884996E+03</pdfrwt>
<totfact> 0.40852195E+02</totfact>
</mgrwt>
</event>
<event>
 4    1  0.1773996E-005  0.1812939E+04  0.7818608E-02  0.8699449E-01
          2   -1    0    0  501    0  0.00000000000E+00  0.00000000000E+00  0.82050725234E+03  0.82050725235E+03  0.25500000000E-02 0.  1.
         -2   -1    0    0    0  501 -0.00000000000E+00 -0.00000000000E+00 -0.10014376957E+04  0.10014376957E+04  0.25500000000E-02 0. -1.
   -5000001    1    1    2    0    0  0.70591104717E+02  0.86636143011E+03 -0.29986035511E+02  0.90496651539E+03  0.25000000000E+03 0.  0.
    5000001    1    1    2    0    0 -0.70591104717E+02 -0.86636143011E+03 -0.15094440780E+03  0.91697843262E+03  0.25000000000E+03 0.  0.
<mgrwt>
<rscale>  0 0.18129389E+04</rscale>
<asrwt>0</asrwt>
<pdfrwt beam="1">  1        2 0.12623188E+00 0.18129389E+04</pdfrwt>
<pdfrwt beam="2">  1       -2 0.15406734E+00 0.18129389E+04</pdfrwt>
<totfact> 0.87579064E+00</totfact>
</mgrwt>
</event>
<event>
 4    1  0.1773996E-005  0.6445676E+03  0.7818608E-02  0.9817026E-01
         -2   -1    0    0    0  501 -0.00000000000E+00  0.00000000000E+00  0.21446288018E+03  0.21446288020E+03  0.25500000000E-02 0. -1.
          2   -1    0    0  501    0  0.00000000000E+00 -0.00000000000E+00 -0.48431151269E+03  0.48431151269E+03  0.25500000000E-02 0.  1.
   -5000001    1    1    2    0    0 -0.15105737099E+03  0.10656695527E+03 -0.22686193694E+03  0.38489113230E+03  0.25000000000E+03 0.  0.
    5000001    1    1    2    0    0  0.15105737099E+03 -0.10656695527E+03 -0.42986695559E+02  0.31388326060E+03  0.25000000000E+03 0.  0.
<mgrwt>
<rscale>  0 0.64456758E+03</rscale>
<asrwt>0</asrwt>
<pdfrwt beam="1">  1        2 0.74509463E-01 0.64456758E+03</pdfrwt>
<pdfrwt beam="2">  1       -2 0.32994289E-01 0.64456758E+03</pdfrwt>
<totfact> 0.55150283E+02</totfact>
</mgrwt>
</event>
<event>
 4    1  0.1773996E-005  0.1189482E+04  0.7818608E-02  0.9122113E-01
         -2   -1    0    0    0  501 -0.00000000000E+00  0.00000000000E+00  0.66998462700E+03  0.66998462701E+03  0.25500000000E-02 0. -1.
          2   -1    0    0  501    0  0.00000000000E+00 -0.00000000000E+00 -0.52794784067E+03  0.52794784068E+03  0.25500000000E-02 0.  1.
   -5000001    1    1    2    0    0  0.23549739977E+03 -0.46045107463E+03  0.22619978572E+03  0.61736582388E+03  0.25000000000E+03 0.  0.
    5000001    1    1    2    0    0 -0.23549739977E+03  0.46045107463E+03 -0.84162999389E+02  0.58056664380E+03  0.25000000000E+03 0.  0.
<mgrwt>
<rscale>  0 0.11894821E+04</rscale>
<asrwt>0</asrwt>
<pdfrwt beam="1">  1        2 0.81222745E-01 0.11894821E+04</pdfrwt>
<pdfrwt beam="2">  1       -2 0.10307456E+00 0.11894821E+04</pdfrwt>
<totfact> 0.43849145E+01</totfact>
</mgrwt>
</event>
<event>
 4    1  0.1773996E-005  0.6793031E+03  0.7818608E-02  0.9753296E-01
         -2   -1    0    0    0  501 -0.00000000000E+00  0.00000000000E+00  0.17438969604E+03  0.17438969606E+03  0.25500000000E-02 0. -1.
          2   -1    0    0  501    0  0.00000000000E+00 -0.00000000000E+00 -0.66152510726E+03  0.66152510726E+03  0.25500000000E-02 0.  1.
   -5000001    1    1    2    0    0  0.20313203228E+03  0.62550803356E+02 -0.35146320958E+03  0.48083428874E+03  0.25000000000E+03 0.  0.
    5000001    1    1    2    0    0 -0.20313203228E+03 -0.62550803356E+02 -0.13567220164E+03  0.35508051458E+03  0.25000000000E+03 0.  0.
<mgrwt>
<rscale>  0 0.67930306E+03</rscale>
<asrwt>0</asrwt>
<pdfrwt beam="1">  1        2 0.10177309E+00 0.67930306E+03</pdfrwt>
<pdfrwt beam="2">  1       -2 0.26829184E-01 0.67930306E+03</pdfrwt>
<totfact> 0.55774877E+02</totfact>
</mgrwt>
</event>
<event>
 4    1  0.1773996E-005  0.6417264E+03  0.7818608E-02  0.9822429E-01
          2   -1    0    0  501    0  0.00000000000E+00  0.00000000000E+00  0.10597345015E+04  0.10597345015E+04  0.25500000000E-02 0.  1.
         -2   -1    0    0    0  501 -0.00000000000E+00 -0.00000000000E+00 -0.97149987956E+02  0.97149987990E+02  0.25500000000E-02 0. -1.
   -5000001    1    1    2    0    0  0.13815681769E+03 -0.21304506577E+02  0.22059411492E+03  0.36152863208E+03  0.25000000000E+03 0.  0.
    5000001    1    1    2    0    0 -0.13815681769E+03  0.21304506577E+02  0.74199039864E+03  0.79535585743E+03  0.25000000000E+03 0.  0.
<mgrwt>
<rscale>  0 0.64172640E+03</rscale>
<asrwt>0</asrwt>
<pdfrwt beam="1">  1        2 0.16303607E+00 0.64172640E+03</pdfrwt>
<pdfrwt beam="2">  1       -2 0.14946152E-01 0.64172640E+03</pdfrwt>
<totfact> 0.82060879E+02</totfact>
</mgrwt>
</event>
<event>
 4    1  0.1773996E-005  0.6161773E+03  0.7818608E-02  0.9872400E-01
         -2   -1    0    0    0  501 -0.00000000000E+00  0.00000000000E+00  0.71795583121E+02  0.71795583166E+02  0.25500000000E-02 0. -1.
          2   -1    0    0  501    0  0.00000000000E+00 -0.00000000000E+00 -0.13220678159E+04  0.13220678159E+04  0.25500000000E-02 0.  1.
   -5000001    1    1    2    0    0 -0.14067824348E+03  0.30808936529E+02 -0.38067001959E+03  0.47764968604E+03  0.25000000000E+03 0.  0.
    5000001    1    1    2    0    0  0.14067824348E+03 -0.30808936529E+02 -0.86960221318E+03  0.91621371302E+03  0.25000000000E+03 0.  0.
<mgrwt>
<rscale>  0 0.61617734E+03</rscale>
<asrwt>0</asrwt>
<pdfrwt beam="1">  1        2 0.20339503E+00 0.61617734E+03</pdfrwt>
<pdfrwt beam="2">  1       -2 0.11045475E-01 0.61617734E+03</pdfrwt>
<totfact> 0.94951979E+02</totfact>
</mgrwt>
</event>
<event>
 4    1  0.1773996E-005  0.7651574E+03  0.7818608E-02  0.9611866E-01
         -2   -1    0    0    0  501 -0.00000000000E+00  0.00000000000E+00  0.12247350518E+03  0.12247350521E+03  0.25500000000E-02 0. -1.
          2   -1    0    0  501    0  0.00000000000E+00 -0.00000000000E+00 -0.11950866404E+04  0.11950866404E+04  0.25500000000E-02 0.  1.
   -5000001    1    1    2    0    0  0.18339671143E+03  0.58902413686E+02 -0.16394142677E+03  0.35564116678E+03  0.25000000000E+03 0.  0.
    5000001    1    1    2    0    0 -0.18339671143E+03 -0.58902413686E+02 -0.90867170839E+03  0.96191897878E+03  0.25000000000E+03 0.  0.
<mgrwt>
<rscale>  0 0.76515737E+03</rscale>
<asrwt>0</asrwt>
<pdfrwt beam="1">  1        2 0.18385948E+00 0.76515737E+03</pdfrwt>
<pdfrwt beam="2">  1       -2 0.18842079E-01 0.76515737E+03</pdfrwt>
<totfact> 0.45494608E+02</totfact>
</mgrwt>
</event>
<event>
 4    1  0.1773996E-005  0.6329226E+03  0.7818608E-02  0.9839362E-01
         -2   -1    0    0    0  501 -0.00000000000E+00  0.00000000000E+00  0.86373763366E+02  0.86373763404E+02  0.25500000000E-02 0. -1.
          2   -1    0    0  501    0  0.00000000000E+00 -0.00000000000E+00 -0.11594695080E+04  0.11594695080E+04  0.25500000000E-02 0.  1.
   -5000001    1    1    2    0    0 -0.15951966009E+03  0.54183703750E+02 -0.34707644585E+03  0.45972214975E+03  0.25000000000E+03 0.  0.
    5000001    1    1    2    0    0  0.15951966009E+03 -0.54183703750E+02 -0.72601929876E+03  0.78612112163E+03  0.25000000000E+03 0.  0.
<mgrwt>
<rscale>  0 0.63292257E+03</rscale>
<asrwt>0</asrwt>
<pdfrwt beam="1">  1        2 0.17837991E+00 0.63292257E+03</pdfrwt>
<pdfrwt beam="2">  1       -2 0.13288272E-01 0.63292257E+03</pdfrwt>
<totfact> 0.86966291E+02</totfact>
</mgrwt>
</event>
<event>
 4    1  0.1773996E-005  0.5882669E+03  0.7818608E-02  0.9930052E-01
          2   -1    0    0  501    0  0.00000000000E+00  0.00000000000E+00  0.76956022468E+02  0.76956022511E+02  0.25500000000E-02 0.  1.
         -2   -1    0    0    0  501 -0.00000000000E+00 -0.00000000000E+00 -0.11242068973E+04  0.11242068973E+04  0.25500000000E-02 0. -1.
   -5000001    1    1    2    0    0  0.97668858814E+02  0.11623738977E+03 -0.46022375075E+03  0.54530380296E+03  0.25000000000E+03 0.  0.
    5000001    1    1    2    0    0 -0.97668858814E+02 -0.11623738977E+03 -0.58702712412E+03  0.65585911689E+03  0.25000000000E+03 0.  0.
<mgrwt>
<rscale>  0 0.58826692E+03</rscale>
<asrwt>0</asrwt>
<pdfrwt beam="1">  1        2 0.11839389E-01 0.58826692E+03</pdfrwt>
<pdfrwt beam="2">  1       -2 0.17295490E+00 0.58826692E+03</pdfrwt>
<totfact> 0.11131379E+02</totfact>
</mgrwt>
</event>
<event>
 4    1  0.1773996E-005  0.6973881E+03  0.7818608E-02  0.9721709E-01
          2   -1    0    0  501    0  0.00000000000E+00  0.00000000000E+00  0.79054401828E+03  0.79054401829E+03  0.25500000000E-02 0. -1.
         -2   -1    0    0    0  501 -0.00000000000E+00 -0.00000000000E+00 -0.15380237664E+03  0.15380237666E+03  0.25500000000E-02 0.  1.
   -5000001    1    1    2    0    0  0.15054813635E+03 -0.35903928881E+02  0.64554924116E+02  0.30103350593E+03  0.25000000000E+03 0.  0.
    5000001    1    1    2    0    0 -0.15054813635E+03  0.35903928881E+02  0.57218671752E+03  0.64331288902E+03  0.25000000000E+03 0.  0.
<mgrwt>
<rscale>  0 0.69738812E+03</rscale>
<asrwt>0</asrwt>
<pdfrwt beam="1">  1        2 0.12162215E+00 0.69738812E+03</pdfrwt>
<pdfrwt beam="2">  1       -2 0.23661905E-01 0.69738812E+03</pdfrwt>
<totfact> 0.55723438E+02</totfact>
</mgrwt>
</event>
<event>
 4    1  0.1773996E-005  0.1192823E+04  0.7818608E-02  0.9119162E-01
         -2   -1    0    0    0  501 -0.00000000000E+00  0.00000000000E+00  0.36429888960E+03  0.36429888961E+03  0.25500000000E-02 0. -1.
          2   -1    0    0  501    0  0.00000000000E+00 -0.00000000000E+00 -0.97641499919E+03  0.97641499919E+03  0.25500000000E-02 0.  1.
   -5000001    1    1    2    0    0 -0.16894219914E+03 -0.36583017210E+03  0.10049741680E+03  0.48474004606E+03  0.25000000000E+03 0.  0.
    5000001    1    1    2    0    0  0.16894219914E+03  0.36583017210E+03 -0.71261352638E+03  0.85597384274E+03  0.25000000000E+03 0.  0.
<mgrwt>
<rscale>  0 0.11928234E+04</rscale>
<asrwt>0</asrwt>
<pdfrwt beam="1">  1        2 0.15021769E+00 0.11928234E+04</pdfrwt>
<pdfrwt beam="2">  1       -2 0.56045983E-01 0.11928234E+04</pdfrwt>
<totfact> 0.76991559E+01</totfact>
</mgrwt>
</event>
<event>
 4    1  0.1773996E-005  0.6358675E+03  0.7818608E-02  0.9833665E-01
          2   -1    0    0  501    0  0.00000000000E+00  0.00000000000E+00  0.15151592441E+04  0.15151592441E+04  0.25500000000E-02 0.  1.
         -2   -1    0    0    0  501 -0.00000000000E+00 -0.00000000000E+00 -0.66713700636E+02  0.66713700685E+02  0.25500000000E-02 0. -1.
   -5000001    1    1    2    0    0  0.12178839670E+03 -0.11924660964E+03  0.48136900018E+03  0.56856686661E+03  0.25000000000E+03 0.  0.
    5000001    1    1    2    0    0 -0.12178839670E+03  0.11924660964E+03  0.96707654328E+03  0.10133060782E+04  0.25000000000E+03 0.  0.
<mgrwt>
<rscale>  0 0.63586753E+03</rscale>
<asrwt>0</asrwt>
<pdfrwt beam="1">  1        2 0.23310142E+00 0.63586753E+03</pdfrwt>
<pdfrwt beam="2">  1       -2 0.10263646E-01 0.63586753E+03</pdfrwt>
<totfact> 0.83353253E+02</totfact>
</mgrwt>
</event>
<event>
 4    1  0.1773996E-005  0.9213560E+03  0.7818608E-02  0.9399272E-01
         -2   -1    0    0    0  501 -0.00000000000E+00  0.00000000000E+00  0.19196986860E+03  0.19196986862E+03  0.25500000000E-02 0. -1.
          2   -1    0    0  501    0  0.00000000000E+00 -0.00000000000E+00 -0.11055080152E+04  0.11055080152E+04  0.25500000000E-02 0.  1.
   -5000001    1    1    2    0    0  0.19316269007E+03 -0.33166287810E+03 -0.52593204447E+03  0.69743573535E+03  0.25000000000E+03 0.  0.
    5000001    1    1    2    0    0 -0.19316269007E+03  0.33166287810E+03 -0.38760610216E+03  0.60004214850E+03  0.25000000000E+03 0.  0.
<mgrwt>
<rscale>  0 0.92135602E+03</rscale>
<asrwt>0</asrwt>
<pdfrwt beam="1">  1        2 0.17007815E+00 0.92135602E+03</pdfrwt>
<pdfrwt beam="2">  1       -2 0.29533827E-01 0.92135602E+03</pdfrwt>
<totfact> 0.22829934E+02</totfact>
</mgrwt>
</event>
<event>
 4    1  0.1773996E-005  0.5424430E+03  0.7818608E-02  0.1003258E+00
          2   -1    0    0  501    0  0.00000000000E+00  0.00000000000E+00  0.57040657394E+03  0.57040657394E+03  0.25500000000E-02 0.  1.
         -2   -1    0    0    0  501 -0.00000000000E+00 -0.00000000000E+00 -0.12896256469E+03  0.12896256472E+03  0.25500000000E-02 0. -1.
   -5000001    1    1    2    0    0  0.30658240194E+02  0.91064848338E+02  0.27585140651E+03  0.38448242192E+03  0.25000000000E+03 0.  0.
    5000001    1    1    2    0    0 -0.30658240194E+02 -0.91064848338E+02  0.16559260274E+03  0.31488671673E+03  0.25000000000E+03 0.  0.
<mgrwt>
<rscale>  0 0.54244297E+03</rscale>
<asrwt>0</asrwt>
<pdfrwt beam="1">  1        2 0.87754857E-01 0.54244297E+03</pdfrwt>
<pdfrwt beam="2">  1       -2 0.19840395E-01 0.54244297E+03</pdfrwt>
<totfact> 0.11433381E+03</totfact>
</mgrwt>
</event>
<event>
 4    1  0.1773996E-005  0.6213670E+03  0.7818608E-02  0.9862042E-01
         -2   -1    0    0    0  501 -0.00000000000E+00  0.00000000000E+00  0.26492954693E+02  0.26492954816E+02  0.25500000000E-02 0.  1.
          2   -1    0    0  501    0  0.00000000000E+00 -0.00000000000E+00 -0.36433930477E+04  0.36433930477E+04  0.25500000000E-02 0. -1.
   -5000001    1    1    2    0    0 -0.47829542199E+02  0.17495245572E+03 -0.16100684771E+04  0.16394256701E+04  0.25000000000E+03 0.  0.
    5000001    1    1    2    0    0  0.47829542199E+02 -0.17495245572E+03 -0.20068316159E+04  0.20304603324E+04  0.25000000000E+03 0.  0.
<mgrwt>
<rscale>  0 0.62136703E+03</rscale>
<asrwt>0</asrwt>
<pdfrwt beam="1">  1        2 0.56052161E+00 0.62136703E+03</pdfrwt>
<pdfrwt beam="2">  1       -2 0.40758421E-02 0.62136703E+03</pdfrwt>
<totfact> 0.20069820E+02</totfact>
</mgrwt>
</event>
<event>
 4    1  0.1773996E-005  0.7024125E+03  0.7818608E-02  0.9713115E-01
          2   -1    0    0  501    0  0.00000000000E+00  0.00000000000E+00  0.13246308051E+04  0.13246308051E+04  0.25500000000E-02 0.  1.
         -2   -1    0    0    0  501 -0.00000000000E+00 -0.00000000000E+00 -0.93117138723E+02  0.93117138758E+02  0.25500000000E-02 0. -1.
   -5000001    1    1    2    0    0 -0.24512225637E+03 -0.84037257439E+01  0.66878684599E+03  0.75493800311E+03  0.25000000000E+03 0.  0.
    5000001    1    1    2    0    0  0.24512225637E+03  0.84037257439E+01  0.56272682041E+03  0.66280994077E+03  0.25000000000E+03 0.  0.
<mgrwt>
<rscale>  0 0.70241250E+03</rscale>
<asrwt>0</asrwt>
<pdfrwt beam="1">  1        2 0.20378936E+00 0.70241250E+03</pdfrwt>
<pdfrwt beam="2">  1       -2 0.14325713E-01 0.70241250E+03</pdfrwt>
<totfact> 0.61255182E+02</totfact>
</mgrwt>
</event>
<event>
 4    1  0.1773996E-005  0.1266564E+04  0.7818608E-02  0.9056509E-01
         -2   -1    0    0    0  501 -0.00000000000E+00  0.00000000000E+00  0.27923620538E+03  0.27923620539E+03  0.25500000000E-02 0. -1.
          2   -1    0    0  501    0  0.00000000000E+00 -0.00000000000E+00 -0.14362248764E+04  0.14362248765E+04  0.25500000000E-02 0.  1.
   -5000001    1    1    2    0    0 -0.42804212187E+03 -0.10941854060E+02 -0.44903546407E+02  0.49785149467E+03  0.25000000000E+03 0.  0.
    5000001    1    1    2    0    0  0.42804212187E+03  0.10941854060E+02 -0.11120851247E+04  0.12176095872E+04  0.25000000000E+03 0.  0.
<mgrwt>
<rscale>  0 0.12665638E+04</rscale>
<asrwt>0</asrwt>
<pdfrwt beam="1">  1        2 0.22095767E+00 0.12665638E+04</pdfrwt>
<pdfrwt beam="2">  1       -2 0.42959417E-01 0.12665638E+04</pdfrwt>
<totfact> 0.69601348E+01</totfact>
</mgrwt>
</event>
<event>
 4    1  0.1773996E-005  0.8138515E+03  0.7818608E-02  0.9540181E-01
         -2   -1    0    0    0  501 -0.00000000000E+00  0.00000000000E+00  0.74109261216E+02  0.74109261260E+02  0.25500000000E-02 0. -1.
          2   -1    0    0  501    0  0.00000000000E+00 -0.00000000000E+00 -0.22343844711E+04  0.22343844711E+04  0.25500000000E-02 0.  1.
   -5000001    1    1    2    0    0  0.17227935853E+03  0.27090455221E+03 -0.10677317665E+04  0.11426375537E+04  0.25000000000E+03 0.  0.
    5000001    1    1    2    0    0 -0.17227935853E+03 -0.27090455221E+03 -0.10925434433E+04  0.11658561787E+04  0.25000000000E+03 0.  0.
<mgrwt>
<rscale>  0 0.81385154E+03</rscale>
<asrwt>0</asrwt>
<pdfrwt beam="1">  1        2 0.34375141E+00 0.81385154E+03</pdfrwt>
<pdfrwt beam="2">  1       -2 0.11401427E-01 0.81385154E+03</pdfrwt>
<totfact> 0.28014440E+02</totfact>
</mgrwt>
</event>
<event>
 4    1  0.1773996E-005  0.8459083E+03  0.7818608E-02  0.9495845E-01
         -2   -1    0    0    0  501 -0.00000000000E+00  0.00000000000E+00  0.94620704167E+02  0.94620704201E+02  0.25500000000E-02 0. -1.
          2   -1    0    0  501    0  0.00000000000E+00 -0.00000000000E+00 -0.18906030674E+04  0.18906030674E+04  0.25500000000E-02 0.  1.
   -5000001    1    1    2    0    0  0.15267605536E+03  0.14490150539E+03 -0.26789775535E+03  0.42258210027E+03  0.25000000000E+03 0.  0.
    5000001    1    1    2    0    0 -0.15267605536E+03 -0.14490150539E+03 -0.15280846079E+04  0.15626416714E+04  0.25000000000E+03 0.  0.
<mgrwt>
<rscale>  0 0.84590825E+03</rscale>
<asrwt>0</asrwt>
<pdfrwt beam="1">  1        2 0.29086198E+00 0.84590825E+03</pdfrwt>
<pdfrwt beam="2">  1       -2 0.14557033E-01 0.84590825E+03</pdfrwt>
<totfact> 0.28715920E+02</totfact>
</mgrwt>
</event>
<event>
 4    1  0.1773996E-005  0.1130890E+04  0.7818608E-02  0.9175597E-01
         -2   -1    0    0    0  501 -0.00000000000E+00  0.00000000000E+00  0.65095196803E+02  0.65095196853E+02  0.25500000000E-02 0. -1.
          2   -1    0    0  501    0  0.00000000000E+00 -0.00000000000E+00 -0.49116968476E+04  0.49116968476E+04  0.25500000000E-02 0.  1.
   -5000001    1    1    2    0    0 -0.22938300317E+03 -0.42949158531E+03 -0.30479674976E+04  0.30967217263E+04  0.25000000000E+03 0.  0.
    5000001    1    1    2    0    0  0.22938300317E+03  0.42949158531E+03 -0.17986341532E+04  0.18800703182E+04  0.25000000000E+03 0.  0.
<mgrwt>
<rscale>  0 0.11308897E+04</rscale>
<asrwt>0</asrwt>
<pdfrwt beam="1">  1        2 0.75564538E+00 0.11308897E+04</pdfrwt>
<pdfrwt beam="2">  1       -2 0.10014650E-01 0.11308897E+04</pdfrwt>
<totfact> 0.32620226E+00</totfact>
</mgrwt>
</event>
<event>
 4    1  0.1773996E-005  0.9432952E+03  0.7818608E-02  0.9373022E-01
          2   -1    0    0  501    0  0.00000000000E+00  0.00000000000E+00  0.10126078975E+04  0.10126078975E+04  0.25500000000E-02 0.  1.
         -2   -1    0    0    0  501 -0.00000000000E+00 -0.00000000000E+00 -0.21968171940E+03  0.21968171942E+03  0.25500000000E-02 0. -1.
   -5000001    1    1    2    0    0  0.30560120130E+03 -0.25468006575E+03  0.45028499278E+03  0.65077692403E+03  0.25000000000E+03 0.  0.
    5000001    1    1    2    0    0 -0.30560120130E+03  0.25468006575E+03  0.34264118532E+03  0.58151269290E+03  0.25000000000E+03 0.  0.
<mgrwt>
<rscale>  0 0.94329517E+03</rscale>
<asrwt>0</asrwt>
<pdfrwt beam="1">  1        2 0.15578583E+00 0.94329517E+03</pdfrwt>
<pdfrwt beam="2">  1       -2 0.33797187E-01 0.94329517E+03</pdfrwt>
<totfact> 0.20241650E+02</totfact>
</mgrwt>
</event>
<event>
 4    1  0.1773996E-005  0.6577773E+03  0.7818608E-02  0.9792294E-01
         -2   -1    0    0    0  501 -0.00000000000E+00  0.00000000000E+00  0.30868538421E+02  0.30868538527E+02  0.25500000000E-02 0. -1.
          2   -1    0    0  501    0  0.00000000000E+00 -0.00000000000E+00 -0.35041421195E+04  0.35041421195E+04  0.25500000000E-02 0.  1.
   -5000001    1    1    2    0    0 -0.17638122627E+03  0.11950434878E+03 -0.16473349590E+04  0.16797631064E+04  0.25000000000E+03 0.  0.
    5000001    1    1    2    0    0  0.17638122627E+03 -0.11950434878E+03 -0.18259386221E+04  0.18552475517E+04  0.25000000000E+03 0.  0.
<mgrwt>
<rscale>  0 0.65777731E+03</rscale>
<asrwt>0</asrwt>
<pdfrwt beam="1">  1        2 0.53909847E+00 0.65777731E+03</pdfrwt>
<pdfrwt beam="2">  1       -2 0.47490087E-02 0.65777731E+03</pdfrwt>
<totfact> 0.19688189E+02</totfact>
</mgrwt>
</event>
<event>
 4    1  0.1773996E-005  0.7308997E+03  0.7818608E-02  0.9665801E-01
          2   -1    0    0  501    0  0.00000000000E+00  0.00000000000E+00  0.11881680648E+04  0.11881680648E+04  0.25500000000E-02 0.  1.
         -2   -1    0    0    0  501 -0.00000000000E+00 -0.00000000000E+00 -0.11240296166E+03  0.11240296169E+03  0.25500000000E-02 0. -1.
   -5000001    1    1    2    0    0  0.12234038551E+03 -0.18821545703E+03  0.79365628341E+03  0.86184831866E+03  0.25000000000E+03 0.  0.
    5000001    1    1    2    0    0 -0.12234038551E+03  0.18821545703E+03  0.28210881973E+03  0.43872270782E+03  0.25000000000E+03 0.  0.
<mgrwt>
<rscale>  0 0.73089975E+03</rscale>
<asrwt>0</asrwt>
<pdfrwt beam="1">  1        2 0.18279508E+00 0.73089975E+03</pdfrwt>
<pdfrwt beam="2">  1       -2 0.17292764E-01 0.73089975E+03</pdfrwt>
<totfact> 0.53347147E+02</totfact>
</mgrwt>
</event>
<event>
 4    1  0.1773996E-005  0.7082682E+03  0.7818608E-02  0.9703196E-01
         -2   -1    0    0    0  501 -0.00000000000E+00  0.00000000000E+00  0.26995697549E+03  0.26995697551E+03  0.25500000000E-02 0. -1.
          2   -1    0    0  501    0  0.00000000000E+00 -0.00000000000E+00 -0.46455905559E+03  0.46455905559E+03  0.25500000000E-02 0.  1.
   -5000001    1    1    2    0    0  0.54046560950E+02  0.24487562179E+03 -0.10257443158E+03  0.36865514362E+03  0.25000000000E+03 0.  0.
    5000001    1    1    2    0    0 -0.54046560950E+02 -0.24487562179E+03 -0.92027648511E+02  0.36586088748E+03  0.25000000000E+03 0.  0.
<mgrwt>
<rscale>  0 0.70826819E+03</rscale>
<asrwt>0</asrwt>
<pdfrwt beam="1">  1        2 0.71470624E-01 0.70826819E+03</pdfrwt>
<pdfrwt beam="2">  1       -2 0.41531842E-01 0.70826819E+03</pdfrwt>
<totfact> 0.37129070E+02</totfact>
</mgrwt>
</event>
<event>
 4    1  0.1773996E-005  0.5820588E+03  0.7818608E-02  0.9943344E-01
          2   -1    0    0  501    0  0.00000000000E+00  0.00000000000E+00  0.73137846947E+03  0.73137846948E+03  0.25500000000E-02 0.  1.
         -2   -1    0    0    0  501 -0.00000000000E+00 -0.00000000000E+00 -0.11580613697E+03  0.11580613699E+03  0.25500000000E-02 0. -1.
   -5000001    1    1    2    0    0  0.13490844786E+03  0.38822780537E+02  0.38042430648E+03  0.47637186163E+03  0.25000000000E+03 0.  0.
    5000001    1    1    2    0    0 -0.13490844786E+03 -0.38822780537E+02  0.23514802603E+03  0.37081274484E+03  0.25000000000E+03 0.  0.
<mgrwt>
<rscale>  0 0.58205881E+03</rscale>
<asrwt>0</asrwt>
<pdfrwt beam="1">  1        2 0.11251977E+00 0.58205881E+03</pdfrwt>
<pdfrwt beam="2">  1       -2 0.17816328E-01 0.58205881E+03</pdfrwt>
<totfact> 0.10157410E+03</totfact>
</mgrwt>
</event>
<event>
 4    1  0.1773996E-005  0.7347725E+03  0.7818608E-02  0.9659547E-01
          2   -1    0    0  501    0  0.00000000000E+00  0.00000000000E+00  0.14479925631E+04  0.14479925631E+04  0.25500000000E-02 0.  1.
         -2   -1    0    0    0  501 -0.00000000000E+00 -0.00000000000E+00 -0.93213641066E+02  0.93213641101E+02  0.25500000000E-02 0. -1.
   -5000001    1    1    2    0    0 -0.17914629826E+03  0.10417058169E+03  0.31695770378E+03  0.45376986707E+03  0.25000000000E+03 0.  0.
    5000001    1    1    2    0    0  0.17914629826E+03 -0.10417058169E+03  0.10378212182E+04  0.10874363371E+04  0.25000000000E+03 0.  0.
<mgrwt>
<rscale>  0 0.73477251E+03</rscale>
<asrwt>0</asrwt>
<pdfrwt beam="1">  1        2 0.22276806E+00 0.73477251E+03</pdfrwt>
<pdfrwt beam="2">  1       -2 0.14340562E-01 0.73477251E+03</pdfrwt>
<totfact> 0.51982128E+02</totfact>
</mgrwt>
</event>
<event>
 4    1  0.1773996E-005  0.7167527E+03  0.7818608E-02  0.9689004E-01
         -2   -1    0    0    0  501 -0.00000000000E+00  0.00000000000E+00  0.82945368902E+02  0.82945368941E+02  0.25500000000E-02 0. -1.
          2   -1    0    0  501    0  0.00000000000E+00 -0.00000000000E+00 -0.15484118482E+04  0.15484118482E+04  0.25500000000E-02 0.  1.
   -5000001    1    1    2    0    0 -0.20599206355E+03 -0.15318005987E+03 -0.74652742888E+03  0.82807008342E+03  0.25000000000E+03 0.  0.
    5000001    1    1    2    0    0  0.20599206355E+03  0.15318005987E+03 -0.71893905039E+03  0.80328713370E+03  0.25000000000E+03 0.  0.
<mgrwt>
<rscale>  0 0.71675265E+03</rscale>
<asrwt>0</asrwt>
<pdfrwt beam="1">  1        2 0.23821719E+00 0.71675265E+03</pdfrwt>
<pdfrwt beam="2">  1       -2 0.12760827E-01 0.71675265E+03</pdfrwt>
<totfact> 0.55613584E+02</totfact>
</mgrwt>
</event>
<event>
 4    1  0.1773996E-005  0.5485922E+03  0.7818608E-02  0.1001820E+00
          2   -1    0    0  501    0  0.00000000000E+00  0.00000000000E+00  0.30517146373E+03  0.30517146374E+03  0.25500000000E-02 0.  1.
         -2   -1    0    0    0  501 -0.00000000000E+00 -0.00000000000E+00 -0.24654449224E+03  0.24654449225E+03  0.25500000000E-02 0. -1.
   -5000001    1    1    2    0    0 -0.38434108781E+02  0.45556802963E+02  0.12570149781E+03  0.28610045363E+03  0.25000000000E+03 0.  0.
    5000001    1    1    2    0    0  0.38434108781E+02 -0.45556802963E+02 -0.67074526320E+02  0.26561550236E+03  0.25000000000E+03 0.  0.
<mgrwt>
<rscale>  0 0.54859217E+03</rscale>
<asrwt>0</asrwt>
<pdfrwt beam="1">  1        2 0.46949456E-01 0.54859217E+03</pdfrwt>
<pdfrwt beam="2">  1       -2 0.37929922E-01 0.54859217E+03</pdfrwt>
<totfact> 0.71056706E+02</totfact>
</mgrwt>
</event>
<event>
 4    1  0.1773996E-005  0.5434906E+03  0.7818608E-02  0.1003012E+00
         -2   -1    0    0    0  501 -0.00000000000E+00  0.00000000000E+00  0.73339648737E+02  0.73339648781E+02  0.25500000000E-02 0. -1.
          2   -1    0    0  501    0  0.00000000000E+00 -0.00000000000E+00 -0.10068976281E+04  0.10068976281E+04  0.25500000000E-02 0.  1.
   -5000001    1    1    2    0    0  0.90494702592E+02 -0.52596982403E+02 -0.42753804559E+03  0.50620599975E+03  0.25000000000E+03 0.  0.
    5000001    1    1    2    0    0 -0.90494702592E+02  0.52596982403E+02 -0.50601993379E+03  0.57403127715E+03  0.25000000000E+03 0.  0.
<mgrwt>
<rscale>  0 0.54349064E+03</rscale>
<asrwt>0</asrwt>
<pdfrwt beam="1">  1        2 0.15490732E+00 0.54349064E+03</pdfrwt>
<pdfrwt beam="2">  1       -2 0.11283024E-01 0.54349064E+03</pdfrwt>
<totfact> 0.14153942E+03</totfact>
</mgrwt>
</event>
<event>
 4    1  0.1773996E-005  0.5787934E+03  0.7818608E-02  0.9950407E-01
         -2   -1    0    0    0  501 -0.00000000000E+00  0.00000000000E+00  0.14531024169E+03  0.14531024171E+03  0.25500000000E-02 0.  1.
          2   -1    0    0  501    0  0.00000000000E+00 -0.00000000000E+00 -0.57635605110E+03  0.57635605111E+03  0.25500000000E-02 0. -1.
   -5000001    1    1    2    0    0 -0.12910476213E+03  0.48760808047E+02 -0.27406868812E+03  0.39580209930E+03  0.25000000000E+03 0.  0.
    5000001    1    1    2    0    0  0.12910476213E+03 -0.48760808047E+02 -0.15697712129E+03  0.32586419352E+03  0.25000000000E+03 0.  0.
<mgrwt>
<rscale>  0 0.57879336E+03</rscale>
<asrwt>0</asrwt>
<pdfrwt beam="1">  1        2 0.88670161E-01 0.57879336E+03</pdfrwt>
<pdfrwt beam="2">  1       -2 0.22355422E-01 0.57879336E+03</pdfrwt>
<totfact> 0.91591936E+02</totfact>
</mgrwt>
</event>
<event>
 4    1  0.1773996E-005  0.6923645E+03  0.7818608E-02  0.9730380E-01
         -2   -1    0    0    0  501 -0.00000000000E+00  0.00000000000E+00  0.19298650858E+03  0.19298650859E+03  0.25500000000E-02 0. -1.
          2   -1    0    0  501    0  0.00000000000E+00 -0.00000000000E+00 -0.62098719583E+03  0.62098719584E+03  0.25500000000E-02 0.  1.
   -5000001    1    1    2    0    0 -0.17159709019E+03 -0.16640444561E+03 -0.23088013873E+03  0.41586252457E+03  0.25000000000E+03 0.  0.
    5000001    1    1    2    0    0  0.17159709019E+03  0.16640444561E+03 -0.19712054852E+03  0.39811117986E+03  0.25000000000E+03 0.  0.
<mgrwt>
<rscale>  0 0.69236450E+03</rscale>
<asrwt>0</asrwt>
<pdfrwt beam="1">  1        2 0.95536491E-01 0.69236450E+03</pdfrwt>
<pdfrwt beam="2">  1       -2 0.29690232E-01 0.69236450E+03</pdfrwt>
<totfact> 0.50023615E+02</totfact>
</mgrwt>
</event>
<event>
 4    1  0.1773996E-005  0.6190162E+03  0.7818608E-02  0.9866720E-01
         -2   -1    0    0    0  501 -0.00000000000E+00  0.00000000000E+00  0.86995257824E+03  0.86995257824E+03  0.25500000000E-02 0. -1.
          2   -1    0    0  501    0  0.00000000000E+00 -0.00000000000E+00 -0.11011550737E+03  0.11011550740E+03  0.25500000000E-02 0.  1.
   -5000001    1    1    2    0    0  0.88090052885E+02 -0.35515924975E+02  0.62659355581E+03  0.68127874070E+03  0.25000000000E+03 0.  0.
    5000001    1    1    2    0    0 -0.88090052885E+02  0.35515924975E+02  0.13324351506E+03  0.29878934494E+03  0.25000000000E+03 0.  0.
<mgrwt>
<rscale>  0 0.61901622E+03</rscale>
<asrwt>0</asrwt>
<pdfrwt beam="1">  1        2 0.16940848E-01 0.61901622E+03</pdfrwt>
<pdfrwt beam="2">  1       -2 0.13383885E+00 0.61901622E+03</pdfrwt>
<totfact> 0.14161281E+02</totfact>
</mgrwt>
</event>
<event>
 4    1  0.1773996E-005  0.8174485E+03  0.7818608E-02  0.9535099E-01
          2   -1    0    0  501    0  0.00000000000E+00  0.00000000000E+00  0.87271481209E+03  0.87271481209E+03  0.25500000000E-02 0.  1.
         -2   -1    0    0    0  501 -0.00000000000E+00 -0.00000000000E+00 -0.19142049201E+03  0.19142049203E+03  0.25500000000E-02 0. -1.
   -5000001    1    1    2    0    0  0.18083134975E+03  0.18271354136E+03  0.59597890084E+03  0.69553940614E+03  0.25000000000E+03 0.  0.
    5000001    1    1    2    0    0 -0.18083134975E+03 -0.18271354136E+03  0.85315419234E+02  0.36859589798E+03  0.25000000000E+03 0.  0.
<mgrwt>
<rscale>  0 0.81744847E+03</rscale>
<asrwt>0</asrwt>
<pdfrwt beam="1">  1        2 0.13426382E+00 0.81744847E+03</pdfrwt>
<pdfrwt beam="2">  1       -2 0.29449307E-01 0.81744847E+03</pdfrwt>
<totfact> 0.32612052E+02</totfact>
</mgrwt>
</event>
<event>
 4    1  0.1773996E-005  0.8656559E+03  0.7818608E-02  0.9469562E-01
         -2   -1    0    0    0  501 -0.00000000000E+00  0.00000000000E+00  0.90389005650E+02  0.90389005686E+02  0.25500000000E-02 0. -1.
          2   -1    0    0  501    0  0.00000000000E+00 -0.00000000000E+00 -0.20725977879E+04  0.20725977879E+04  0.25500000000E-02 0.  1.
   -5000001    1    1    2    0    0  0.14195973298E+03  0.24660694582E+03 -0.15144694831E+04  0.15611167050E+04  0.25000000000E+03 0.  0.
    5000001    1    1    2    0    0 -0.14195973298E+03 -0.24660694582E+03 -0.46773929912E+03  0.60187008852E+03  0.25000000000E+03 0.  0.
<mgrwt>
<rscale>  0 0.86565594E+03</rscale>
<asrwt>0</asrwt>
<pdfrwt beam="1">  1        2 0.31886116E+00 0.86565594E+03</pdfrwt>
<pdfrwt beam="2">  1       -2 0.13906002E-01 0.86565594E+03</pdfrwt>
<totfact> 0.24618249E+02</totfact>
</mgrwt>
</event>
<event>
 4    1  0.1773996E-005  0.5300003E+03  0.7818608E-02  0.1006232E+00
          2   -1    0    0  501    0  0.00000000000E+00  0.00000000000E+00  0.27854654995E+03  0.27854654996E+03  0.25500000000E-02 0.  1.
         -2   -1    0    0    0  501 -0.00000000000E+00 -0.00000000000E+00 -0.25211254629E+03  0.25211254631E+03  0.25500000000E-02 0. -1.
   -5000001    1    1    2    0    0  0.57966203327E+02 -0.56096400932E+02 -0.21729004776E+02  0.26358876413E+03  0.25000000000E+03 0.  0.
    5000001    1    1    2    0    0 -0.57966203327E+02  0.56096400932E+02  0.48163008429E+02  0.26707033213E+03  0.25000000000E+03 0.  0.
<mgrwt>
<rscale>  0 0.53000030E+03</rscale>
<asrwt>0</asrwt>
<pdfrwt beam="1">  1        2 0.42853315E-01 0.53000030E+03</pdfrwt>
<pdfrwt beam="2">  1       -2 0.38786546E-01 0.53000030E+03</pdfrwt>
<totfact> 0.75279236E+02</totfact>
</mgrwt>
</event>
<event>
 4    1  0.1773996E-005  0.6847532E+03  0.7818608E-02  0.9743667E-01
         -2   -1    0    0    0  501 -0.00000000000E+00  0.00000000000E+00  0.11756133584E+03  0.11756133587E+03  0.25500000000E-02 0. -1.
          2   -1    0    0  501    0  0.00000000000E+00 -0.00000000000E+00 -0.99711131272E+03  0.99711131272E+03  0.25500000000E-02 0.  1.
   -5000001    1    1    2    0    0 -0.93774868078E+01  0.23271095800E+03 -0.40413257297E+03  0.52921211604E+03  0.25000000000E+03 0.  0.
    5000001    1    1    2    0    0  0.93774868078E+01 -0.23271095800E+03 -0.47541740391E+03  0.58546053255E+03  0.25000000000E+03 0.  0.
<mgrwt>
<rscale>  0 0.68475320E+03</rscale>
<asrwt>0</asrwt>
<pdfrwt beam="1">  1        2 0.15340174E+00 0.68475320E+03</pdfrwt>
<pdfrwt beam="2">  1       -2 0.18086360E-01 0.68475320E+03</pdfrwt>
<totfact> 0.64796734E+02</totfact>
</mgrwt>
</event>
<event>
 4    1  0.1773996E-005  0.1874129E+04  0.7818608E-02  0.8667842E-01
          2   -1    0    0  501    0  0.00000000000E+00  0.00000000000E+00  0.17420786222E+04  0.17420786222E+04  0.25500000000E-02 0.  1.
         -2   -1    0    0    0  501 -0.00000000000E+00 -0.00000000000E+00 -0.50404737820E+03  0.50404737821E+03  0.25500000000E-02 0. -1.
   -5000001    1    1    2    0    0 -0.32604764532E+03  0.79215129866E+03  0.27628211573E+03  0.93415338914E+03  0.25000000000E+03 0.  0.
    5000001    1    1    2    0    0  0.32604764532E+03 -0.79215129866E+03  0.96174912828E+03  0.13119726113E+04  0.25000000000E+03 0.  0.
<mgrwt>
<rscale>  0 0.18741293E+04</rscale>
<asrwt>0</asrwt>
<pdfrwt beam="1">  1        2 0.26801210E+00 0.18741293E+04</pdfrwt>
<pdfrwt beam="2">  1       -2 0.77545750E-01 0.18741293E+04</pdfrwt>
<totfact> 0.12926546E+01</totfact>
</mgrwt>
</event>
<event>
 4    1  0.1773996E-005  0.1223530E+04  0.7818608E-02  0.9092506E-01
         -2   -1    0    0    0  501 -0.00000000000E+00  0.00000000000E+00  0.22200200781E+03  0.22200200782E+03  0.25500000000E-02 0. -1.
          2   -1    0    0  501    0  0.00000000000E+00 -0.00000000000E+00 -0.16858252647E+04  0.16858252647E+04  0.25500000000E-02 0.  1.
   -5000001    1    1    2    0    0  0.41810289549E+03 -0.36870959711E+03 -0.78121537109E+03  0.99174303842E+03  0.25000000000E+03 0.  0.
    5000001    1    1    2    0    0 -0.41810289549E+03  0.36870959711E+03 -0.68260788578E+03  0.91608423409E+03  0.25000000000E+03 0.  0.
<mgrwt>
<rscale>  0 0.12235303E+04</rscale>
<asrwt>0</asrwt>
<pdfrwt beam="1">  1        2 0.25935772E+00 0.12235303E+04</pdfrwt>
<pdfrwt beam="2">  1       -2 0.34154156E-01 0.12235303E+04</pdfrwt>
<totfact> 0.78970087E+01</totfact>
</mgrwt>
</event>
<event>
 4    1  0.1773996E-005  0.7395507E+03  0.7818608E-02  0.9651888E-01
         -2   -1    0    0    0  501 -0.00000000000E+00  0.00000000000E+00  0.30709174684E+03  0.30709174685E+03  0.25500000000E-02 0. -1.
          2   -1    0    0  501    0  0.00000000000E+00 -0.00000000000E+00 -0.44525390494E+03  0.44525390495E+03  0.25500000000E-02 0.  1.
   -5000001    1    1    2    0    0  0.23611263363E+03  0.54660661109E+02 -0.19572110617E+03  0.39942923657E+03  0.25000000000E+03 0.  0.
    5000001    1    1    2    0    0 -0.23611263363E+03 -0.54660661109E+02  0.57558948069E+02  0.35291641522E+03  0.25000000000E+03 0.  0.
<mgrwt>
<rscale>  0 0.73955067E+03</rscale>
<asrwt>0</asrwt>
<pdfrwt beam="1">  1        2 0.68500600E-01 0.73955067E+03</pdfrwt>
<pdfrwt beam="2">  1       -2 0.47244884E-01 0.73955067E+03</pdfrwt>
<totfact> 0.30141901E+02</totfact>
</mgrwt>
</event>
<event>
 4    1  0.1773996E-005  0.9154492E+03  0.7818608E-02  0.9406473E-01
         -2   -1    0    0    0  501 -0.00000000000E+00  0.00000000000E+00  0.38220815471E+03  0.38220815472E+03  0.25500000000E-02 0. -1.
          2   -1    0    0  501    0  0.00000000000E+00 -0.00000000000E+00 -0.54816152503E+03  0.54816152504E+03  0.25500000000E-02 0.  1.
   -5000001    1    1    2    0    0 -0.27582391644E+03  0.25644303412E+03 -0.99024709889E+01  0.45215033071E+03  0.25000000000E+03 0.  0.
    5000001    1    1    2    0    0  0.27582391644E+03 -0.25644303412E+03 -0.15605089933E+03  0.47821934905E+03  0.25000000000E+03 0.  0.
<mgrwt>
<rscale>  0 0.91544919E+03</rscale>
<asrwt>0</asrwt>
<pdfrwt beam="1">  1        2 0.84332542E-01 0.91544919E+03</pdfrwt>
<pdfrwt beam="2">  1       -2 0.58801254E-01 0.91544919E+03</pdfrwt>
<totfact> 0.14985257E+02</totfact>
</mgrwt>
</event>
<event>
 4    1  0.1773996E-005  0.8703041E+03  0.7818608E-02  0.9463484E-01
          2   -1    0    0  501    0  0.00000000000E+00  0.00000000000E+00  0.15953454654E+04  0.15953454654E+04  0.25500000000E-02 0.  1.
         -2   -1    0    0    0  501 -0.00000000000E+00 -0.00000000000E+00 -0.11869359481E+03  0.11869359484E+03  0.25500000000E-02 0. -1.
   -5000001    1    1    2    0    0 -0.36418689005E+01 -0.14827287484E+03  0.10057231294E+03  0.30759209800E+03  0.25000000000E+03 0.  0.
    5000001    1    1    2    0    0  0.36418689005E+01  0.14827287484E+03  0.13760795576E+04  0.14064469622E+04  0.25000000000E+03 0.  0.
<mgrwt>
<rscale>  0 0.87030406E+03</rscale>
<asrwt>0</asrwt>
<pdfrwt beam="1">  1        2 0.24543776E+00 0.87030406E+03</pdfrwt>
<pdfrwt beam="2">  1       -2 0.18260553E-01 0.87030406E+03</pdfrwt>
<totfact> 0.28259683E+02</totfact>
</mgrwt>
</event>
<event>
 4    1  0.1773996E-005  0.1469647E+04  0.7818608E-02  0.8904892E-01
          2   -1    0    0  501    0  0.00000000000E+00  0.00000000000E+00  0.25146516646E+04  0.25146516646E+04  0.25500000000E-02 0.  1.
         -2   -1    0    0    0  501 -0.00000000000E+00 -0.00000000000E+00 -0.21472780138E+03  0.21472780139E+03  0.25500000000E-02 0. -1.
   -5000001    1    1    2    0    0  0.35152789752E+03  0.53615925906E+03  0.16286176137E+04  0.17680310929E+04  0.25000000000E+03 0.  0.
    5000001    1    1    2    0    0 -0.35152789752E+03 -0.53615925906E+03  0.67130624956E+03  0.96134837312E+03  0.25000000000E+03 0.  0.
<mgrwt>
<rscale>  0 0.14696471E+04</rscale>
<asrwt>0</asrwt>
<pdfrwt beam="1">  1        2 0.38686949E+00 0.14696471E+04</pdfrwt>
<pdfrwt beam="2">  1       -2 0.33035046E-01 0.14696471E+04</pdfrwt>
<totfact> 0.28362214E+01</totfact>
</mgrwt>
</event>
<event>
 4    1  0.1773996E-005  0.1103355E+04  0.7818608E-02  0.9201928E-01
          2   -1    0    0  501    0  0.00000000000E+00  0.00000000000E+00  0.30028601694E+04  0.30028601694E+04  0.25500000000E-02 0.  1.
         -2   -1    0    0    0  501 -0.00000000000E+00 -0.00000000000E+00 -0.10135280010E+03  0.10135280013E+03  0.25500000000E-02 0. -1.
   -5000001    1    1    2    0    0 -0.34942561027E+03  0.34447140065E+03  0.13578898916E+04  0.14653067122E+04  0.25000000000E+03 0.  0.
    5000001    1    1    2    0    0  0.34942561027E+03 -0.34447140065E+03  0.15436174777E+04  0.16389062574E+04  0.25000000000E+03 0.  0.
<mgrwt>
<rscale>  0 0.11033554E+04</rscale>
<asrwt>0</asrwt>
<pdfrwt beam="1">  1        2 0.46197851E+00 0.11033554E+04</pdfrwt>
<pdfrwt beam="2">  1       -2 0.15592738E-01 0.11033554E+04</pdfrwt>
<totfact> 0.57658207E+01</totfact>
</mgrwt>
</event>
<event>
 4    1  0.1773996E-005  0.1051340E+04  0.7818608E-02  0.9253962E-01
         -2   -1    0    0    0  501 -0.00000000000E+00  0.00000000000E+00  0.25789220319E+03  0.25789220321E+03  0.25500000000E-02 0. -1.
          2   -1    0    0  501    0  0.00000000000E+00 -0.00000000000E+00 -0.10714901315E+04  0.10714901315E+04  0.25500000000E-02 0.  1.
   -5000001    1    1    2    0    0 -0.40439621915E+03  0.13173298580E+03 -0.17730969943E+03  0.52424098573E+03  0.25000000000E+03 0.  0.
    5000001    1    1    2    0    0  0.40439621915E+03 -0.13173298580E+03 -0.63628822884E+03  0.80514134894E+03  0.25000000000E+03 0.  0.
<mgrwt>
<rscale>  0 0.10513400E+04</rscale>
<asrwt>0</asrwt>
<pdfrwt beam="1">  1        2 0.16484463E+00 0.10513400E+04</pdfrwt>
<pdfrwt beam="2">  1       -2 0.39675724E-01 0.10513400E+04</pdfrwt>
<totfact> 0.13565758E+02</totfact>
</mgrwt>
</event>
<event>
 4    1  0.1773996E-005  0.9454697E+03  0.7818608E-02  0.9370462E-01
          2   -1    0    0  501    0  0.00000000000E+00  0.00000000000E+00  0.84832669349E+03  0.84832669350E+03  0.25500000000E-02 0.  1.
         -2   -1    0    0    0  501 -0.00000000000E+00 -0.00000000000E+00 -0.26343414559E+03  0.26343414560E+03  0.25500000000E-02 0. -1.
   -5000001    1    1    2    0    0 -0.32732768129E+03 -0.65996811577E+02  0.55400862530E+03  0.69348723635E+03  0.25000000000E+03 0.  0.
    5000001    1    1    2    0    0  0.32732768129E+03  0.65996811577E+02  0.30883922604E+02  0.41827360275E+03  0.25000000000E+03 0.  0.
<mgrwt>
<rscale>  0 0.94546966E+03</rscale>
<asrwt>0</asrwt>
<pdfrwt beam="1">  1        2 0.13051180E+00 0.94546966E+03</pdfrwt>
<pdfrwt beam="2">  1       -2 0.40528330E-01 0.94546966E+03</pdfrwt>
<totfact> 0.18348314E+02</totfact>
</mgrwt>
</event>
<event>
 4    1  0.1773996E-005  0.1821021E+04  0.7818608E-02  0.8695200E-01
         -2   -1    0    0    0  501 -0.00000000000E+00  0.00000000000E+00  0.65099323247E+03  0.65099323247E+03  0.25500000000E-02 0. -1.
          2   -1    0    0  501    0  0.00000000000E+00 -0.00000000000E+00 -0.12734843104E+04  0.12734843104E+04  0.25500000000E-02 0.  1.
   -5000001    1    1    2    0    0 -0.86406617727E+03 -0.11941349872E+03 -0.23174034628E+03  0.93652203951E+03  0.25000000000E+03 0.  0.
    5000001    1    1    2    0    0  0.86406617727E+03  0.11941349872E+03 -0.39075073168E+03  0.98795550340E+03  0.25000000000E+03 0.  0.
<mgrwt>
<rscale>  0 0.18210213E+04</rscale>
<asrwt>0</asrwt>
<pdfrwt beam="1">  1        2 0.19592066E+00 0.18210213E+04</pdfrwt>
<pdfrwt beam="2">  1       -2 0.10015281E+00 0.18210213E+04</pdfrwt>
<totfact> 0.13292217E+01</totfact>
</mgrwt>
</event>
<event>
 4    1  0.1773996E-005  0.6631143E+03  0.7818608E-02  0.9782478E-01
         -2   -1    0    0    0  501 -0.00000000000E+00  0.00000000000E+00  0.35219690542E+02  0.35219690634E+02  0.25500000000E-02 0. -1.
          2   -1    0    0  501    0  0.00000000000E+00 -0.00000000000E+00 -0.31212697753E+04  0.31212697753E+04  0.25500000000E-02 0.  1.
   -5000001    1    1    2    0    0  0.21534843473E+03  0.31591876540E+02 -0.15790136297E+04  0.16134302086E+04  0.25000000000E+03 0.  0.
    5000001    1    1    2    0    0 -0.21534843473E+03 -0.31591876540E+02 -0.15070364550E+04  0.15430592574E+04  0.25000000000E+03 0.  0.
<mgrwt>
<rscale>  0 0.66311434E+03</rscale>
<asrwt>0</asrwt>
<pdfrwt beam="1">  1        2 0.48019513E+00 0.66311434E+03</pdfrwt>
<pdfrwt beam="2">  1       -2 0.54184164E-02 0.66311434E+03</pdfrwt>
<totfact> 0.28446189E+02</totfact>
</mgrwt>
</event>
<event>
 4    1  0.1773996E-005  0.8080724E+03  0.7818608E-02  0.9548406E-01
         -2   -1    0    0    0  501 -0.00000000000E+00  0.00000000000E+00  0.10589783255E+03  0.10589783258E+03  0.25500000000E-02 0. -1.
          2   -1    0    0  501    0  0.00000000000E+00 -0.00000000000E+00 -0.15415352215E+04  0.15415352215E+04  0.25500000000E-02 0.  1.
   -5000001    1    1    2    0    0 -0.26554326305E+03  0.14643984953E+03 -0.90893042173E+03  0.99025873671E+03  0.25000000000E+03 0.  0.
    5000001    1    1    2    0    0  0.26554326305E+03 -0.14643984953E+03 -0.52670696720E+03  0.65717431734E+03  0.25000000000E+03 0.  0.
<mgrwt>
<rscale>  0 0.80807237E+03</rscale>
<asrwt>0</asrwt>
<pdfrwt beam="1">  1        2 0.23715925E+00 0.80807237E+03</pdfrwt>
<pdfrwt beam="2">  1       -2 0.16291975E-01 0.80807237E+03</pdfrwt>
<totfact> 0.36975957E+02</totfact>
</mgrwt>
</event>
<event>
 4    1  0.1773996E-005  0.6918905E+03  0.7818608E-02  0.9731202E-01
          2   -1    0    0  501    0  0.00000000000E+00  0.00000000000E+00  0.81711453973E+03  0.81711453974E+03  0.25500000000E-02 0.  1.
         -2   -1    0    0    0  501 -0.00000000000E+00 -0.00000000000E+00 -0.14646430958E+03  0.14646430960E+03  0.25500000000E-02 0. -1.
   -5000001    1    1    2    0    0 -0.54795526874E+02  0.22318560136E+03  0.24332676378E+03  0.41775863413E+03  0.25000000000E+03 0.  0.
    5000001    1    1    2    0    0  0.54795526874E+02 -0.22318560136E+03  0.42732346637E+03  0.54582021521E+03  0.25000000000E+03 0.  0.
<mgrwt>
<rscale>  0 0.69189050E+03</rscale>
<asrwt>0</asrwt>
<pdfrwt beam="1">  1        2 0.12570993E+00 0.69189050E+03</pdfrwt>
<pdfrwt beam="2">  1       -2 0.22532971E-01 0.69189050E+03</pdfrwt>
<totfact> 0.58200311E+02</totfact>
</mgrwt>
</event>
<event>
 4    1  0.1773996E-005  0.9276917E+03  0.7818608E-02  0.9391612E-01
         -2   -1    0    0    0  501 -0.00000000000E+00  0.00000000000E+00  0.77923092217E+02  0.77923092259E+02  0.25500000000E-02 0. -1.
          2   -1    0    0  501    0  0.00000000000E+00 -0.00000000000E+00 -0.27610941277E+04  0.27610941277E+04  0.25500000000E-02 0.  1.
   -5000001    1    1    2    0    0 -0.34008932738E+03 -0.65123092333E+02 -0.78775343831E+03  0.89607881759E+03  0.25000000000E+03 0.  0.
    5000001    1    1    2    0    0  0.34008932738E+03  0.65123092333E+02 -0.18954175971E+04  0.19429384023E+04  0.25000000000E+03 0.  0.
<mgrwt>
<rscale>  0 0.92769174E+03</rscale>
<asrwt>0</asrwt>
<pdfrwt beam="1">  1        2 0.42478364E+00 0.92769174E+03</pdfrwt>
<pdfrwt beam="2">  1       -2 0.11988170E-01 0.92769174E+03</pdfrwt>
<totfact> 0.12779974E+02</totfact>
</mgrwt>
</event>
<event>
 4    1  0.1773996E-005  0.2379461E+04  0.7818608E-02  0.8447233E-01
         -2   -1    0    0    0  501 -0.00000000000E+00  0.00000000000E+00  0.11746843394E+04  0.11746843394E+04  0.25500000000E-02 0. -1.
          2   -1    0    0  501    0  0.00000000000E+00 -0.00000000000E+00 -0.12049689661E+04  0.12049689661E+04  0.25500000000E-02 0.  1.
   -5000001    1    1    2    0    0 -0.53743631939E+03 -0.96393040786E+03  0.35225448469E+03  0.11851509822E+04  0.25000000000E+03 0.  0.
    5000001    1    1    2    0    0  0.53743631939E+03  0.96393040786E+03 -0.38253911148E+03  0.11945023233E+04  0.25000000000E+03 0.  0.
<mgrwt>
<rscale>  0 0.23794606E+04</rscale>
<asrwt>0</asrwt>
<pdfrwt beam="1">  1        2 0.18537984E+00 0.23794606E+04</pdfrwt>
<pdfrwt beam="2">  1       -2 0.18072067E+00 0.23794606E+04</pdfrwt>
<totfact> 0.30374987E+00</totfact>
</mgrwt>
</event>
<event>
 4    1  0.1773996E-005  0.5751792E+03  0.7818608E-02  0.9958283E-01
         -2   -1    0    0    0  501 -0.00000000000E+00  0.00000000000E+00  0.92588058147E+02  0.92588058183E+02  0.25500000000E-02 0. -1.
          2   -1    0    0  501    0  0.00000000000E+00 -0.00000000000E+00 -0.89328771866E+03  0.89328771866E+03  0.25500000000E-02 0.  1.
   -5000001    1    1    2    0    0  0.12502454846E+03  0.40177549029E+02 -0.49364110638E+03  0.56870635223E+03  0.25000000000E+03 0.  0.
    5000001    1    1    2    0    0 -0.12502454846E+03 -0.40177549029E+02 -0.30705855414E+03  0.41716942461E+03  0.25000000000E+03 0.  0.
<mgrwt>
<rscale>  0 0.57517919E+03</rscale>
<asrwt>0</asrwt>
<pdfrwt beam="1">  1        2 0.13742887E+00 0.57517919E+03</pdfrwt>
<pdfrwt beam="2">  1       -2 0.14244317E-01 0.57517919E+03</pdfrwt>
<totfact> 0.11398239E+03</totfact>
</mgrwt>
</event>
<event>
 4    1  0.1773996E-005  0.8602701E+03  0.7818608E-02  0.9476655E-01
          2   -1    0    0  501    0  0.00000000000E+00  0.00000000000E+00  0.10651823103E+04  0.10651823103E+04  0.25500000000E-02 0.  1.
         -2   -1    0    0    0  501 -0.00000000000E+00 -0.00000000000E+00 -0.17369437450E+03  0.17369437452E+03  0.25500000000E-02 0. -1.
   -5000001    1    1    2    0    0 -0.22141691315E+03 -0.22815642679E+03  0.65658674761E+03  0.77115949171E+03  0.25000000000E+03 0.  0.
    5000001    1    1    2    0    0  0.22141691315E+03  0.22815642679E+03  0.23490118818E+03  0.46771719310E+03  0.25000000000E+03 0.  0.
<mgrwt>
<rscale>  0 0.86027013E+03</rscale>
<asrwt>0</asrwt>
<pdfrwt beam="1">  1        2 0.16387420E+00 0.86027013E+03</pdfrwt>
<pdfrwt beam="2">  1       -2 0.26722211E-01 0.86027013E+03</pdfrwt>
<totfact> 0.29158886E+02</totfact>
</mgrwt>
</event>
<event>
 4    1  0.1773996E-005  0.1582552E+04  0.7818608E-02  0.8831339E-01
         -2   -1    0    0    0  501 -0.00000000000E+00  0.00000000000E+00  0.58974903740E+03  0.58974903740E+03  0.25500000000E-02 0. -1.
          2   -1    0    0  501    0  0.00000000000E+00 -0.00000000000E+00 -0.10616676100E+04  0.10616676100E+04  0.25500000000E-02 0.  1.
   -5000001    1    1    2    0    0  0.63394456538E+03  0.24896200467E+03 -0.56553444420E+03  0.91988966693E+03  0.25000000000E+03 0.  0.
    5000001    1    1    2    0    0 -0.63394456538E+03 -0.24896200467E+03  0.93615871600E+02  0.73152698048E+03  0.25000000000E+03 0.  0.
<mgrwt>
<rscale>  0 0.15825517E+04</rscale>
<asrwt>0</asrwt>
<pdfrwt beam="1">  1        2 0.16333348E+00 0.15825517E+04</pdfrwt>
<pdfrwt beam="2">  1       -2 0.90730621E-01 0.15825517E+04</pdfrwt>
<totfact> 0.22928409E+01</totfact>
</mgrwt>
</event>
<event>
 4    1  0.1773996E-005  0.7899831E+03  0.7818608E-02  0.9574630E-01
          2   -1    0    0  501    0  0.00000000000E+00  0.00000000000E+00  0.58292671179E+03  0.58292671180E+03  0.25500000000E-02 0.  1.
         -2   -1    0    0    0  501 -0.00000000000E+00 -0.00000000000E+00 -0.26764654956E+03  0.26764654957E+03  0.25500000000E-02 0. -1.
   -5000001    1    1    2    0    0 -0.22465462478E+03  0.14144898902E+03 -0.57940515104E+01  0.36470685209E+03  0.25000000000E+03 0.  0.
    5000001    1    1    2    0    0  0.22465462478E+03 -0.14144898902E+03  0.32107421375E+03  0.48586640928E+03  0.25000000000E+03 0.  0.
<mgrwt>
<rscale>  0 0.78998310E+03</rscale>
<asrwt>0</asrwt>
<pdfrwt beam="1">  1        2 0.89681032E-01 0.78998310E+03</pdfrwt>
<pdfrwt beam="2">  1       -2 0.41176393E-01 0.78998310E+03</pdfrwt>
<totfact> 0.28874212E+02</totfact>
</mgrwt>
</event>
<event>
 4    1  0.1773996E-005  0.1782812E+04  0.7818608E-02  0.8715493E-01
          2   -1    0    0  501    0  0.00000000000E+00  0.00000000000E+00  0.18828557166E+04  0.18828557166E+04  0.25500000000E-02 0.  1.
         -2   -1    0    0    0  501 -0.00000000000E+00 -0.00000000000E+00 -0.42202112298E+03  0.42202112299E+03  0.25500000000E-02 0. -1.
   -5000001    1    1    2    0    0  0.54023209663E+03 -0.52396350854E+03  0.12567069938E+04  0.14860016638E+04  0.25000000000E+03 0.  0.
    5000001    1    1    2    0    0 -0.54023209663E+03  0.52396350854E+03  0.20412759977E+03  0.81887517577E+03  0.25000000000E+03 0.  0.
<mgrwt>
<rscale>  0 0.17828123E+04</rscale>
<asrwt>0</asrwt>
<pdfrwt beam="1">  1        2 0.28967012E+00 0.17828123E+04</pdfrwt>
<pdfrwt beam="2">  1       -2 0.64926326E-01 0.17828123E+04</pdfrwt>
<totfact> 0.16057019E+01</totfact>
</mgrwt>
</event>
<event>
 4    1  0.1773996E-005  0.9401656E+03  0.7818608E-02  0.9376720E-01
          2   -1    0    0  501    0  0.00000000000E+00  0.00000000000E+00  0.65662128544E+03  0.65662128544E+03  0.25500000000E-02 0.  1.
         -2   -1    0    0    0  501 -0.00000000000E+00 -0.00000000000E+00 -0.33653772609E+03  0.33653772610E+03  0.25500000000E-02 0. -1.
   -5000001    1    1    2    0    0  0.30022987235E+03 -0.20965451117E+03  0.32500017616E+03  0.54974367191E+03  0.25000000000E+03 0.  0.
    5000001    1    1    2    0    0 -0.30022987235E+03  0.20965451117E+03 -0.49166168186E+01  0.44341533963E+03  0.25000000000E+03 0.  0.
<mgrwt>
<rscale>  0 0.94016559E+03</rscale>
<asrwt>0</asrwt>
<pdfrwt beam="1">  1        2 0.10101866E+00 0.94016559E+03</pdfrwt>
<pdfrwt beam="2">  1       -2 0.51775035E-01 0.94016559E+03</pdfrwt>
<totfact> 0.15667419E+02</totfact>
</mgrwt>
</event>
<event>
 4    1  0.1773996E-005  0.8695643E+03  0.7818608E-02  0.9464448E-01
         -2   -1    0    0    0  501 -0.00000000000E+00  0.00000000000E+00  0.14292438480E+04  0.14292438480E+04  0.25500000000E-02 0. -1.
          2   -1    0    0  501    0  0.00000000000E+00 -0.00000000000E+00 -0.13226261202E+03  0.13226261204E+03  0.25500000000E-02 0.  1.
   -5000001    1    1    2    0    0 -0.10144219506E+03  0.25785418735E+03  0.10490489612E+04  0.11134554431E+04  0.25000000000E+03 0.  0.
    5000001    1    1    2    0    0  0.10144219506E+03 -0.25785418735E+03  0.24793227478E+03  0.44805101691E+03  0.25000000000E+03 0.  0.
<mgrwt>
<rscale>  0 0.86956432E+03</rscale>
<asrwt>0</asrwt>
<pdfrwt beam="1">  1        2 0.20348095E-01 0.86956432E+03</pdfrwt>
<pdfrwt beam="2">  1       -2 0.21988366E+00 0.86956432E+03</pdfrwt>
<totfact> 0.27898540E+01</totfact>
</mgrwt>
</event>
<event>
 4    1  0.1773996E-005  0.1101644E+04  0.7818608E-02  0.9203591E-01
         -2   -1    0    0    0  501 -0.00000000000E+00  0.00000000000E+00  0.22554800872E+03  0.22554800874E+03  0.25500000000E-02 0. -1.
          2   -1    0    0  501    0  0.00000000000E+00 -0.00000000000E+00 -0.13451886739E+04  0.13451886739E+04  0.25500000000E-02 0.  1.
   -5000001    1    1    2    0    0 -0.11266520148E+03  0.47420522967E+03 -0.47741160975E+03  0.72662637758E+03  0.25000000000E+03 0.  0.
    5000001    1    1    2    0    0  0.11266520148E+03 -0.47420522967E+03 -0.64222905542E+03  0.84411030506E+03  0.25000000000E+03 0.  0.
<mgrwt>
<rscale>  0 0.11016435E+04</rscale>
<asrwt>0</asrwt>
<pdfrwt beam="1">  1        2 0.20695210E+00 0.11016435E+04</pdfrwt>
<pdfrwt beam="2">  1       -2 0.34699695E-01 0.11016435E+04</pdfrwt>
<totfact> 0.12020483E+02</totfact>
</mgrwt>
</event>
<event>
 4    1  0.1773996E-005  0.7350325E+03  0.7818608E-02  0.9659129E-01
         -2   -1    0    0    0  501 -0.00000000000E+00  0.00000000000E+00  0.42616151658E+03  0.42616151659E+03  0.25500000000E-02 0. -1.
          2   -1    0    0  501    0  0.00000000000E+00 -0.00000000000E+00 -0.31694131202E+03  0.31694131203E+03  0.25500000000E-02 0.  1.
   -5000001    1    1    2    0    0  0.20199967684E+03  0.13891210691E+03  0.16749513790E+03  0.38814309746E+03  0.25000000000E+03 0.  0.
    5000001    1    1    2    0    0 -0.20199967684E+03 -0.13891210691E+03 -0.58274933344E+02  0.35495973116E+03  0.25000000000E+03 0.  0.
<mgrwt>
<rscale>  0 0.73503249E+03</rscale>
<asrwt>0</asrwt>
<pdfrwt beam="1">  1        2 0.48760202E-01 0.73503249E+03</pdfrwt>
<pdfrwt beam="2">  1       -2 0.65563310E-01 0.73503249E+03</pdfrwt>
<totfact> 0.22334003E+02</totfact>
</mgrwt>
</event>
<event>
 4    1  0.1773996E-005  0.8802836E+03  0.7818608E-02  0.9450569E-01
          2   -1    0    0  501    0  0.00000000000E+00  0.00000000000E+00  0.11681435983E+04  0.11681435983E+04  0.25500000000E-02 0.  1.
         -2   -1    0    0    0  501 -0.00000000000E+00 -0.00000000000E+00 -0.16583990493E+03  0.16583990495E+03  0.25500000000E-02 0. -1.
   -5000001    1    1    2    0    0  0.33166197365E+03 -0.13756865028E+02  0.28136158318E+03  0.50184983470E+03  0.25000000000E+03 0.  0.
    5000001    1    1    2    0    0 -0.33166197365E+03  0.13756865028E+02  0.72094211018E+03  0.83213366855E+03  0.25000000000E+03 0.  0.
<mgrwt>
<rscale>  0 0.88028364E+03</rscale>
<asrwt>0</asrwt>
<pdfrwt beam="1">  1        2 0.17971440E+00 0.88028364E+03</pdfrwt>
<pdfrwt beam="2">  1       -2 0.25513832E-01 0.88028364E+03</pdfrwt>
<totfact> 0.27413994E+02</totfact>
</mgrwt>
</event>
<event>
 4    1  0.1773996E-005  0.9160733E+03  0.7818608E-02  0.9405709E-01
          2   -1    0    0  501    0  0.00000000000E+00  0.00000000000E+00  0.82044887942E+03  0.82044887942E+03  0.25500000000E-02 0.  1.
         -2   -1    0    0    0  501 -0.00000000000E+00 -0.00000000000E+00 -0.25571074057E+03  0.25571074058E+03  0.25500000000E-02 0. -1.
   -5000001    1    1    2    0    0 -0.73619039800E+02  0.11235640885E+03  0.70471490627E+03  0.75971496283E+03  0.25000000000E+03 0.  0.
    5000001    1    1    2    0    0  0.73619039800E+02 -0.11235640885E+03 -0.13997676743E+03  0.31644465717E+03  0.25000000000E+03 0.  0.
<mgrwt>
<rscale>  0 0.91607334E+03</rscale>
<asrwt>0</asrwt>
<pdfrwt beam="1">  1        2 0.12622291E+00 0.91607334E+03</pdfrwt>
<pdfrwt beam="2">  1       -2 0.39340114E-01 0.91607334E+03</pdfrwt>
<totfact> 0.20376980E+02</totfact>
</mgrwt>
</event>
<event>
 4    1  0.1773996E-005  0.1011202E+04  0.7818608E-02  0.9296344E-01
         -2   -1    0    0    0  501 -0.00000000000E+00  0.00000000000E+00  0.16863268422E+03  0.16863268423E+03  0.25500000000E-02 0. -1.
          2   -1    0    0  501    0  0.00000000000E+00 -0.00000000000E+00 -0.15159110273E+04  0.15159110273E+04  0.25500000000E-02 0.  1.
   -5000001    1    1    2    0    0 -0.43295917767E+03  0.75169131695E+02 -0.66480878165E+03  0.83520941328E+03  0.25000000000E+03 0.  0.
    5000001    1    1    2    0    0  0.43295917767E+03 -0.75169131695E+02 -0.68246956140E+03  0.84933429821E+03  0.25000000000E+03 0.  0.
<mgrwt>
<rscale>  0 0.10112016E+04</rscale>
<asrwt>0</asrwt>
<pdfrwt beam="1">  1        2 0.23321707E+00 0.10112016E+04</pdfrwt>
<pdfrwt beam="2">  1       -2 0.25943491E-01 0.10112016E+04</pdfrwt>
<totfact> 0.16624702E+02</totfact>
</mgrwt>
</event>
<event>
 4    1  0.1773996E-005  0.9552240E+03  0.7818608E-02  0.9359065E-01
          2   -1    0    0  501    0  0.00000000000E+00  0.00000000000E+00  0.83471349161E+03  0.83471349161E+03  0.25500000000E-02 0.  1.
         -2   -1    0    0    0  501 -0.00000000000E+00 -0.00000000000E+00 -0.27328324774E+03  0.27328324775E+03  0.25500000000E-02 0. -1.
   -5000001    1    1    2    0    0  0.32673696157E+03 -0.15979242988E+03  0.68975376265E+02  0.44670825516E+03  0.25000000000E+03 0.  0.
    5000001    1    1    2    0    0 -0.32673696157E+03  0.15979242988E+03  0.49245486761E+03  0.66128848420E+03  0.25000000000E+03 0.  0.
<mgrwt>
<rscale>  0 0.95522398E+03</rscale>
<asrwt>0</asrwt>
<pdfrwt beam="1">  1        2 0.12841746E+00 0.95522398E+03</pdfrwt>
<pdfrwt beam="2">  1       -2 0.42043577E-01 0.95522398E+03</pdfrwt>
<totfact> 0.17442301E+02</totfact>
</mgrwt>
</event>
<event>
 4    1  0.1773996E-005  0.8071072E+03  0.7818608E-02  0.9549786E-01
          2   -1    0    0  501    0  0.00000000000E+00  0.00000000000E+00  0.11812139271E+04  0.11812139271E+04  0.25500000000E-02 0.  1.
         -2   -1    0    0    0  501 -0.00000000000E+00 -0.00000000000E+00 -0.13787131917E+03  0.13787131919E+03  0.25500000000E-02 0. -1.
   -5000001    1    1    2    0    0 -0.25980093154E+03  0.18084573554E+03  0.54194092311E+03  0.67557506484E+03  0.25000000000E+03 0.  0.
    5000001    1    1    2    0    0  0.25980093154E+03 -0.18084573554E+03  0.50140168481E+03  0.64351018144E+03  0.25000000000E+03 0.  0.
<mgrwt>
<rscale>  0 0.80710724E+03</rscale>
<asrwt>0</asrwt>
<pdfrwt beam="1">  1        2 0.18172522E+00 0.80710724E+03</pdfrwt>
<pdfrwt beam="2">  1       -2 0.21210972E-01 0.80710724E+03</pdfrwt>
<totfact> 0.37606075E+02</totfact>
</mgrwt>
</event>
<event>
 4    1  0.1773996E-005  0.6143983E+03  0.7818608E-02  0.9875976E-01
         -2   -1    0    0    0  501 -0.00000000000E+00  0.00000000000E+00  0.34888714042E+02  0.34888714135E+02  0.25500000000E-02 0. -1.
          2   -1    0    0  501    0  0.00000000000E+00 -0.00000000000E+00 -0.27049238011E+04  0.27049238011E+04  0.25500000000E-02 0.  1.
   -5000001    1    1    2    0    0  0.63600851778E+02 -0.15134640278E+02 -0.59421363990E+03  0.64796911619E+03  0.25000000000E+03 0.  0.
    5000001    1    1    2    0    0 -0.63600851778E+02  0.15134640278E+02 -0.20758214472E+04  0.20918433991E+04  0.25000000000E+03 0.  0.
<mgrwt>
<rscale>  0 0.61439828E+03</rscale>
<asrwt>0</asrwt>
<pdfrwt beam="1">  1        2 0.41614196E+00 0.61439828E+03</pdfrwt>
<pdfrwt beam="2">  1       -2 0.53674966E-02 0.61439828E+03</pdfrwt>
<totfact> 0.51595498E+02</totfact>
</mgrwt>
</event>
<event>
 4    1  0.1773996E-005  0.1126941E+04  0.7818608E-02  0.9179324E-01
          2   -1    0    0  501    0  0.00000000000E+00  0.00000000000E+00  0.22563802947E+04  0.22563802948E+04  0.25500000000E-02 0.  1.
         -2   -1    0    0    0  501 -0.00000000000E+00 -0.00000000000E+00 -0.14071155923E+03  0.14071155925E+03  0.25500000000E-02 0. -1.
   -5000001    1    1    2    0    0  0.47620480133E+03  0.16429477066E+03  0.11325855403E+04  0.12645211704E+04  0.25000000000E+03 0.  0.
    5000001    1    1    2    0    0 -0.47620480133E+03 -0.16429477066E+03  0.98308319525E+03  0.11325706836E+04  0.25000000000E+03 0.  0.
<mgrwt>
<rscale>  0 0.11269406E+04</rscale>
<asrwt>0</asrwt>
<pdfrwt beam="1">  1        2 0.34713543E+00 0.11269406E+04</pdfrwt>
<pdfrwt beam="2">  1       -2 0.21647932E-01 0.11269406E+04</pdfrwt>
<totfact> 0.88806875E+01</totfact>
</mgrwt>
</event>
<event>
 4    1  0.1773996E-005  0.5392670E+03  0.7818608E-02  0.1004009E+00
          2   -1    0    0  501    0  0.00000000000E+00  0.00000000000E+00  0.20381174000E+04  0.20381174000E+04  0.25500000000E-02 0.  1.
         -2   -1    0    0    0  501 -0.00000000000E+00 -0.00000000000E+00 -0.35671259699E+02  0.35671259790E+02  0.25500000000E-02 0. -1.
   -5000001    1    1    2    0    0 -0.50242201259E+02 -0.87249038618E+02  0.97009018770E+03  0.10068324815E+04  0.25000000000E+03 0.  0.
    5000001    1    1    2    0    0  0.50242201259E+02  0.87249038618E+02  0.10323559526E+04  0.10669561783E+04  0.25000000000E+03 0.  0.
<mgrwt>
<rscale>  0 0.53926697E+03</rscale>
<asrwt>0</asrwt>
<pdfrwt beam="1">  1        2 0.31355654E+00 0.53926697E+03</pdfrwt>
<pdfrwt beam="2">  1       -2 0.54878858E-02 0.53926697E+03</pdfrwt>
<totfact> 0.11782889E+03</totfact>
</mgrwt>
</event>
<event>
 4    1  0.1773996E-005  0.6176724E+03  0.7818608E-02  0.9869405E-01
         -2   -1    0    0    0  501 -0.00000000000E+00  0.00000000000E+00  0.35204768191E+03  0.35204768192E+03  0.25500000000E-02 0. -1.
          2   -1    0    0  501    0  0.00000000000E+00 -0.00000000000E+00 -0.27092861149E+03  0.27092861150E+03  0.25500000000E-02 0.  1.
   -5000001    1    1    2    0    0  0.42868517328E+02  0.17184763308E+03  0.79758041849E+02  0.31659226777E+03  0.25000000000E+03 0.  0.
    5000001    1    1    2    0    0 -0.42868517328E+02 -0.17184763308E+03  0.13610285691E+01  0.30638402565E+03  0.25000000000E+03 0.  0.
<mgrwt>
<rscale>  0 0.61767237E+03</rscale>
<asrwt>0</asrwt>
<pdfrwt beam="1">  1        2 0.41681325E-01 0.61767237E+03</pdfrwt>
<pdfrwt beam="2">  1       -2 0.54161182E-01 0.61767237E+03</pdfrwt>
<totfact> 0.39859811E+02</totfact>
</mgrwt>
</event>
<event>
 4    1  0.1773996E-005  0.7543881E+03  0.7818608E-02  0.9628491E-01
         -2   -1    0    0    0  501 -0.00000000000E+00  0.00000000000E+00  0.24713510779E+03  0.24713510780E+03  0.25500000000E-02 0. -1.
          2   -1    0    0  501    0  0.00000000000E+00 -0.00000000000E+00 -0.57569862380E+03  0.57569862381E+03  0.25500000000E-02 0.  1.
   -5000001    1    1    2    0    0 -0.24641780538E+03  0.28708120507E+02 -0.17015225382E+02  0.35261226423E+03  0.25000000000E+03 0.  0.
    5000001    1    1    2    0    0  0.24641780538E+03 -0.28708120507E+02 -0.31154829063E+03  0.47022146738E+03  0.25000000000E+03 0.  0.
<mgrwt>
<rscale>  0 0.75438807E+03</rscale>
<asrwt>0</asrwt>
<pdfrwt beam="1">  1        2 0.88569019E-01 0.75438807E+03</pdfrwt>
<pdfrwt beam="2">  1       -2 0.38020786E-01 0.75438807E+03</pdfrwt>
<totfact> 0.34272690E+02</totfact>
</mgrwt>
</event>
<event>
 4    1  0.1773996E-005  0.1184305E+04  0.7818608E-02  0.9126706E-01
          2   -1    0    0  501    0  0.00000000000E+00  0.00000000000E+00  0.15799874536E+04  0.15799874536E+04  0.25500000000E-02 0.  1.
         -2   -1    0    0    0  501 -0.00000000000E+00 -0.00000000000E+00 -0.22192885502E+03  0.22192885504E+03  0.25500000000E-02 0. -1.
   -5000001    1    1    2    0    0  0.70648578657E+02 -0.52169831993E+03  0.51956626240E+03  0.78077490976E+03  0.25000000000E+03 0.  0.
    5000001    1    1    2    0    0 -0.70648578657E+02  0.52169831993E+03  0.83849233621E+03  0.10211413989E+04  0.25000000000E+03 0.  0.
<mgrwt>
<rscale>  0 0.11843054E+04</rscale>
<asrwt>0</asrwt>
<pdfrwt beam="1">  1        2 0.24307499E+00 0.11843054E+04</pdfrwt>
<pdfrwt beam="2">  1       -2 0.34142901E-01 0.11843054E+04</pdfrwt>
<totfact> 0.90752838E+01</totfact>
</mgrwt>
</event>
<event>
 4    1  0.1773996E-005  0.1029149E+04  0.7818608E-02  0.9277140E-01
         -2   -1    0    0    0  501 -0.00000000000E+00  0.00000000000E+00  0.10528808645E+03  0.10528808648E+03  0.25500000000E-02 0. -1.
          2   -1    0    0  501    0  0.00000000000E+00 -0.00000000000E+00 -0.25148814842E+04  0.25148814842E+04  0.25500000000E-02 0.  1.
   -5000001    1    1    2    0    0 -0.32901939724E+03 -0.30659862515E+03 -0.11907181205E+04  0.12971376655E+04  0.25000000000E+03 0.  0.
    5000001    1    1    2    0    0  0.32901939724E+03  0.30659862515E+03 -0.12188752773E+04  0.13230319052E+04  0.25000000000E+03 0.  0.
<mgrwt>
<rscale>  0 0.10291493E+04</rscale>
<asrwt>0</asrwt>
<pdfrwt beam="1">  1        2 0.38690480E+00 0.10291493E+04</pdfrwt>
<pdfrwt beam="2">  1       -2 0.16198169E-01 0.10291493E+04</pdfrwt>
<totfact> 0.10601217E+02</totfact>
</mgrwt>
</event>
