<event>
 4    1  0.1300812E-003  0.1986423E+03  0.7818608E-02  0.1150890E+00
          2   -1    0    0  501    0  0.00000000000E+00  0.00000000000E+00  0.32905955637E+04  0.32905955637E+04  0.25500000000E-02 0.  1.
         -2   -1    0    0    0  501 -0.00000000000E+00 -0.00000000000E+00 -0.29978422079E+01  0.29978432925E+01  0.25500000000E-02 0. -1.
    5000001    1    1    2    0    0  0.32124784591E+02 -0.53769224242E+02  0.17025529029E+04  0.17054437893E+04  0.77000000000E+02 0.  0.
   -5000001    1    1    2    0    0 -0.32124784591E+02  0.53769224242E+02  0.15850448186E+04  0.15881496177E+04  0.77000000000E+02 0.  0.
<mgrwt>
<rscale>  0 0.19864227E+03</rscale>
<asrwt>0</asrwt>
<pdfrwt beam="1">  1        2 0.47008698E+00 0.19864227E+03</pdfrwt>
<pdfrwt beam="2">  1       -2 0.42826152E-03 0.19864227E+03</pdfrwt>
<totfact> 0.13972796E+04</totfact>
</mgrwt>
</event>
<event>
 4    1  0.1300812E-003  0.1930739E+03  0.7818608E-02  0.1155718E+00
         -2   -1    0    0    0  501 -0.00000000000E+00  0.00000000000E+00  0.44653900877E+01  0.44653908158E+01  0.25500000000E-02 0. -1.
          2   -1    0    0  501    0  0.00000000000E+00 -0.00000000000E+00 -0.20870252168E+04  0.20870252168E+04  0.25500000000E-02 0.  1.
    5000001    1    1    2    0    0 -0.50316546120E+02 -0.19483410543E+02 -0.12783687814E+04  0.12818217892E+04  0.77000000000E+02 0.  0.
   -5000001    1    1    2    0    0  0.50316546120E+02  0.19483410543E+02 -0.80419104530E+03  0.80966881837E+03  0.77000000000E+02 0.  0.
<mgrwt>
<rscale>  0 0.19307390E+03</rscale>
<asrwt>0</asrwt>
<pdfrwt beam="1">  1        2 0.29814584E+00 0.19307390E+03</pdfrwt>
<pdfrwt beam="2">  1       -2 0.63791426E-03 0.19307390E+03</pdfrwt>
<totfact> 0.32203330E+04</totfact>
</mgrwt>
</event>
<event>
 4    1  0.1300812E-003  0.2124016E+03  0.7818608E-02  0.1139678E+00
         -2   -1    0    0    0  501 -0.00000000000E+00  0.00000000000E+00  0.27203651465E+02  0.27203651584E+02  0.25500000000E-02 0. -1.
          2   -1    0    0  501    0  0.00000000000E+00 -0.00000000000E+00 -0.41459898777E+03  0.41459898778E+03  0.25500000000E-02 0.  1.
    5000001    1    1    2    0    0  0.42763814628E+02  0.51443451419E+02 -0.13218931891E+03  0.16696762731E+03  0.77000000000E+02 0.  0.
   -5000001    1    1    2    0    0 -0.42763814628E+02 -0.51443451419E+02 -0.25520601740E+03  0.27483501206E+03  0.77000000000E+02 0.  0.
<mgrwt>
<rscale>  0 0.21240157E+03</rscale>
<asrwt>0</asrwt>
<pdfrwt beam="1">  1        2 0.59228423E-01 0.21240157E+03</pdfrwt>
<pdfrwt beam="2">  1       -2 0.38862362E-02 0.21240157E+03</pdfrwt>
<totfact> 0.23244896E+04</totfact>
</mgrwt>
</event>
<event>
 4    1  0.1300812E-003  0.1823057E+03  0.7818608E-02  0.1165590E+00
         -2   -1    0    0    0  501 -0.00000000000E+00  0.00000000000E+00  0.62954074106E+01  0.62954079270E+01  0.25500000000E-02 0. -1.
          2   -1    0    0  501    0  0.00000000000E+00 -0.00000000000E+00 -0.13198251845E+04  0.13198251845E+04  0.25500000000E-02 0.  1.
    5000001    1    1    2    0    0 -0.47269456156E+02 -0.11903839807E+02 -0.64270729555E+03  0.64913617264E+03  0.77000000000E+02 0.  0.
   -5000001    1    1    2    0    0  0.47269456156E+02  0.11903839807E+02 -0.67082248153E+03  0.67698441977E+03  0.77000000000E+02 0.  0.
<mgrwt>
<rscale>  0 0.18230565E+03</rscale>
<asrwt>0</asrwt>
<pdfrwt beam="1">  1        2 0.18854628E+00 0.18230565E+03</pdfrwt>
<pdfrwt beam="2">  1       -2 0.89934480E-03 0.18230565E+03</pdfrwt>
<totfact> 0.46610253E+04</totfact>
</mgrwt>
</event>
<event>
 4    1  0.1300812E-003  0.2178615E+03  0.7818608E-02  0.1135488E+00
          2   -1    0    0  501    0  0.00000000000E+00  0.00000000000E+00  0.37120461951E+03  0.37120461952E+03  0.25500000000E-02 0.  1.
         -2   -1    0    0    0  501 -0.00000000000E+00 -0.00000000000E+00 -0.31965942125E+02  0.31965942227E+02  0.25500000000E-02 0. -1.
    5000001    1    1    2    0    0 -0.59364913590E+02  0.47957353708E+02  0.14996439024E+03  0.18504707261E+03  0.77000000000E+02 0.  0.
   -5000001    1    1    2    0    0  0.59364913590E+02 -0.47957353708E+02  0.18927428714E+03  0.21812348914E+03  0.77000000000E+02 0.  0.
<mgrwt>
<rscale>  0 0.21786147E+03</rscale>
<asrwt>0</asrwt>
<pdfrwt beam="1">  1        2 0.53029230E-01 0.21786147E+03</pdfrwt>
<pdfrwt beam="2">  1       -2 0.45665632E-02 0.21786147E+03</pdfrwt>
<totfact> 0.20585281E+04</totfact>
</mgrwt>
</event>
<event>
 4    1  0.1300812E-003  0.2198373E+03  0.7818608E-02  0.1134004E+00
          2   -1    0    0  501    0  0.00000000000E+00  0.00000000000E+00  0.15844556824E+03  0.15844556826E+03  0.25500000000E-02 0.  1.
         -2   -1    0    0    0  501 -0.00000000000E+00 -0.00000000000E+00 -0.76254012359E+02  0.76254012402E+02  0.25500000000E-02 0. -1.
    5000001    1    1    2    0    0  0.75474565193E+02  0.15144987443E+02  0.57192557607E+02  0.12298686630E+03  0.77000000000E+02 0.  0.
   -5000001    1    1    2    0    0 -0.75474565193E+02 -0.15144987443E+02  0.24998998269E+02  0.11171271436E+03  0.77000000000E+02 0.  0.
<mgrwt>
<rscale>  0 0.21983731E+03</rscale>
<asrwt>0</asrwt>
<pdfrwt beam="1">  1        2 0.22635081E-01 0.21983731E+03</pdfrwt>
<pdfrwt beam="2">  1       -2 0.10893430E-01 0.21983731E+03</pdfrwt>
<totfact> 0.13553960E+04</totfact>
</mgrwt>
</event>
<event>
 4    1  0.1300812E-003  0.1239045E+04  0.7818608E-02  0.9079351E-01
         -2   -1    0    0    0  501 -0.00000000000E+00  0.00000000000E+00  0.13636046927E+04  0.13636046927E+04  0.25500000000E-02 0. -1.
          2   -1    0    0  501    0  0.00000000000E+00 -0.00000000000E+00 -0.28146588066E+03  0.28146588067E+03  0.25500000000E-02 0.  1.
    5000001    1    1    2    0    0  0.45000246717E+03  0.33354607124E+03  0.87727713810E+03  0.10436950604E+04  0.77000000000E+02 0.  0.
   -5000001    1    1    2    0    0 -0.45000246717E+03 -0.33354607124E+03  0.20486167389E+03  0.60137551291E+03  0.77000000000E+02 0.  0.
<mgrwt>
<rscale>  0 0.12390451E+04</rscale>
<asrwt>0</asrwt>
<pdfrwt beam="1">  1        2 0.40209411E-01 0.12390451E+04</pdfrwt>
<pdfrwt beam="2">  1       -2 0.19480067E+00 0.12390451E+04</pdfrwt>
<totfact> 0.18153008E+01</totfact>
</mgrwt>
</event>
<event>
 4    1  0.1300812E-003  0.2181854E+03  0.7818608E-02  0.1135243E+00
          2   -1    0    0  501    0  0.00000000000E+00  0.00000000000E+00  0.12693011691E+04  0.12693011691E+04  0.25500000000E-02 0.  1.
         -2   -1    0    0    0  501 -0.00000000000E+00 -0.00000000000E+00 -0.93761979494E+01  0.93761982962E+01  0.25500000000E-02 0. -1.
    5000001    1    1    2    0    0 -0.67297338585E+02  0.26701254546E+02  0.78834052553E+03  0.79539403629E+03  0.77000000000E+02 0.  0.
   -5000001    1    1    2    0    0  0.67297338585E+02 -0.26701254546E+02  0.47158444562E+03  0.48328333111E+03  0.77000000000E+02 0.  0.
<mgrwt>
<rscale>  0 0.21818542E+03</rscale>
<asrwt>0</asrwt>
<pdfrwt beam="1">  1        2 0.18132856E+00 0.21818542E+03</pdfrwt>
<pdfrwt beam="2">  1       -2 0.13394582E-02 0.21818542E+03</pdfrwt>
<totfact> 0.28198935E+04</totfact>
</mgrwt>
</event>
<event>
 4    1  0.1300812E-003  0.2290806E+03  0.7818608E-02  0.1127289E+00
         -2   -1    0    0    0  501 -0.00000000000E+00  0.00000000000E+00  0.27960491377E+02  0.27960491494E+02  0.25500000000E-02 0. -1.
          2   -1    0    0  501    0  0.00000000000E+00 -0.00000000000E+00 -0.46921474253E+03  0.46921474254E+03  0.25500000000E-02 0.  1.
    5000001    1    1    2    0    0  0.56604529166E+02  0.43574893154E+02 -0.12146447886E+03  0.16057852801E+03  0.77000000000E+02 0.  0.
   -5000001    1    1    2    0    0 -0.56604529166E+02 -0.43574893154E+02 -0.31978977230E+03  0.33659670602E+03  0.77000000000E+02 0.  0.
<mgrwt>
<rscale>  0 0.22908055E+03</rscale>
<asrwt>0</asrwt>
<pdfrwt beam="1">  1        2 0.67030673E-01 0.22908055E+03</pdfrwt>
<pdfrwt beam="2">  1       -2 0.39943562E-02 0.22908055E+03</pdfrwt>
<totfact> 0.19608238E+04</totfact>
</mgrwt>
</event>
<event>
 4    1  0.1300812E-003  0.2258643E+03  0.7818608E-02  0.1129585E+00
          2   -1    0    0  501    0  0.00000000000E+00  0.00000000000E+00  0.13335628504E+04  0.13335628504E+04  0.25500000000E-02 0.  1.
         -2   -1    0    0    0  501 -0.00000000000E+00 -0.00000000000E+00 -0.95636105587E+01  0.95636108987E+01  0.25500000000E-02 0. -1.
    5000001    1    1    2    0    0  0.21705306472E+02  0.39908907024E+02  0.10723083674E+04  0.10760288453E+04  0.77000000000E+02 0.  0.
   -5000001    1    1    2    0    0 -0.21705306472E+02 -0.39908907024E+02  0.25169087252E+03  0.26709761605E+03  0.77000000000E+02 0.  0.
<mgrwt>
<rscale>  0 0.22586435E+03</rscale>
<asrwt>0</asrwt>
<pdfrwt beam="1">  1        2 0.19050884E+00 0.22586435E+03</pdfrwt>
<pdfrwt beam="2">  1       -2 0.13662311E-02 0.22586435E+03</pdfrwt>
<totfact> 0.25409476E+04</totfact>
</mgrwt>
</event>
<event>
 4    1  0.1300812E-003  0.1894297E+03  0.7818608E-02  0.1158977E+00
         -2   -1    0    0    0  501 -0.00000000000E+00  0.00000000000E+00  0.14258869664E+02  0.14258869892E+02  0.25500000000E-02 0. -1.
          2   -1    0    0  501    0  0.00000000000E+00 -0.00000000000E+00 -0.62914550065E+03  0.62914550066E+03  0.25500000000E-02 0.  1.
    5000001    1    1    2    0    0 -0.32794299590E+02  0.38165924434E+02 -0.23075383727E+03  0.24841183000E+03  0.77000000000E+02 0.  0.
   -5000001    1    1    2    0    0  0.32794299590E+02 -0.38165924434E+02 -0.38413279372E+03  0.39499254054E+03  0.77000000000E+02 0.  0.
<mgrwt>
<rscale>  0 0.18942971E+03</rscale>
<asrwt>0</asrwt>
<pdfrwt beam="1">  1        2 0.89877911E-01 0.18942971E+03</pdfrwt>
<pdfrwt beam="2">  1       -2 0.20369818E-02 0.18942971E+03</pdfrwt>
<totfact> 0.37758086E+04</totfact>
</mgrwt>
</event>
<event>
 4    1  0.1300812E-003  0.1804205E+03  0.7818608E-02  0.1167397E+00
         -2   -1    0    0    0  501 -0.00000000000E+00  0.00000000000E+00  0.78856378825E+01  0.78856382948E+01  0.25500000000E-02 0. -1.
          2   -1    0    0  501    0  0.00000000000E+00 -0.00000000000E+00 -0.10319887303E+04  0.10319887303E+04  0.25500000000E-02 0.  1.
    5000001    1    1    2    0    0 -0.39841401509E+02  0.70346234454E+01 -0.64990517906E+03  0.65570005716E+03  0.77000000000E+02 0.  0.
   -5000001    1    1    2    0    0  0.39841401509E+02 -0.70346234454E+01 -0.37419791334E+03  0.38417431141E+03  0.77000000000E+02 0.  0.
<mgrwt>
<rscale>  0 0.18042050E+03</rscale>
<asrwt>0</asrwt>
<pdfrwt beam="1">  1        2 0.14742688E+00 0.18042050E+03</pdfrwt>
<pdfrwt beam="2">  1       -2 0.11265204E-02 0.18042050E+03</pdfrwt>
<totfact> 0.48202073E+04</totfact>
</mgrwt>
</event>
<event>
 4    1  0.1300812E-003  0.2511957E+03  0.7818608E-02  0.1112552E+00
         -2   -1    0    0    0  501 -0.00000000000E+00  0.00000000000E+00  0.11874661714E+03  0.11874661717E+03  0.25500000000E-02 0. -1.
          2   -1    0    0  501    0  0.00000000000E+00 -0.00000000000E+00 -0.13284433008E+03  0.13284433011E+03  0.25500000000E-02 0.  1.
    5000001    1    1    2    0    0 -0.32600537262E+01  0.77727376565E+02  0.54640613721E+02  0.12233874973E+03  0.77000000000E+02 0.  0.
   -5000001    1    1    2    0    0  0.32600537262E+01 -0.77727376565E+02 -0.68738326664E+02  0.12925219755E+03  0.77000000000E+02 0.  0.
<mgrwt>
<rscale>  0 0.25119566E+03</rscale>
<asrwt>0</asrwt>
<pdfrwt beam="1">  1        2 0.18977761E-01 0.25119566E+03</pdfrwt>
<pdfrwt beam="2">  1       -2 0.16963803E-01 0.25119566E+03</pdfrwt>
<totfact> 0.80984169E+03</totfact>
</mgrwt>
</event>
<event>
 4    1  0.1300812E-003  0.2393905E+03  0.7818608E-02  0.1120200E+00
         -2   -1    0    0    0  501 -0.00000000000E+00  0.00000000000E+00  0.16548542545E+02  0.16548542741E+02  0.25500000000E-02 0. -1.
          2   -1    0    0  501    0  0.00000000000E+00 -0.00000000000E+00 -0.86575325961E+03  0.86575325961E+03  0.25500000000E-02 0.  1.
    5000001    1    1    2    0    0 -0.50721466238E+02 -0.74637665338E+02 -0.48339996909E+03  0.49774288376E+03  0.77000000000E+02 0.  0.
   -5000001    1    1    2    0    0  0.50721466238E+02  0.74637665338E+02 -0.36580474798E+03  0.38455891859E+03  0.77000000000E+02 0.  0.
<mgrwt>
<rscale>  0 0.23939052E+03</rscale>
<asrwt>0</asrwt>
<pdfrwt beam="1">  1        2 0.12367901E+00 0.23939052E+03</pdfrwt>
<pdfrwt beam="2">  1       -2 0.23640781E-02 0.23939052E+03</pdfrwt>
<totfact> 0.21027364E+04</totfact>
</mgrwt>
</event>
<event>
 4    1  0.1300812E-003  0.3592818E+03  0.7818608E-02  0.1058869E+00
          2   -1    0    0  501    0  0.00000000000E+00  0.00000000000E+00  0.10659291813E+03  0.10659291816E+03  0.25500000000E-02 0.  1.
         -2   -1    0    0    0  501 -0.00000000000E+00 -0.00000000000E+00 -0.30274853737E+03  0.30274853738E+03  0.25500000000E-02 0. -1.
    5000001    1    1    2    0    0 -0.13799169865E+03 -0.82546460597E+02 -0.72954995389E+02  0.19263192468E+03  0.77000000000E+02 0.  0.
   -5000001    1    1    2    0    0  0.13799169865E+03  0.82546460597E+02 -0.12320062385E+03  0.21670953087E+03  0.77000000000E+02 0.  0.
<mgrwt>
<rscale>  0 0.35928178E+03</rscale>
<asrwt>0</asrwt>
<pdfrwt beam="1">  1        2 0.15227560E-01 0.35928178E+03</pdfrwt>
<pdfrwt beam="2">  1       -2 0.43249791E-01 0.35928178E+03</pdfrwt>
<totfact> 0.19714252E+03</totfact>
</mgrwt>
</event>
<event>
 4    1  0.1300812E-003  0.1831654E+03  0.7818608E-02  0.1164774E+00
          2   -1    0    0  501    0  0.00000000000E+00  0.00000000000E+00  0.21431696398E+04  0.21431696398E+04  0.25500000000E-02 0.  1.
         -2   -1    0    0    0  501 -0.00000000000E+00 -0.00000000000E+00 -0.39135449150E+01  0.39135457458E+01  0.25500000000E-02 0. -1.
    5000001    1    1    2    0    0  0.24655790922E+02 -0.40115057207E+02  0.88755183631E+03  0.89212913190E+03  0.77000000000E+02 0.  0.
   -5000001    1    1    2    0    0 -0.24655790922E+02  0.40115057207E+02  0.12517042586E+04  0.12549540537E+04  0.77000000000E+02 0.  0.
<mgrwt>
<rscale>  0 0.18316541E+03</rscale>
<asrwt>0</asrwt>
<pdfrwt beam="1">  1        2 0.30616775E+00 0.18316541E+03</pdfrwt>
<pdfrwt beam="2">  1       -2 0.55907669E-03 0.18316541E+03</pdfrwt>
<totfact> 0.36440778E+04</totfact>
</mgrwt>
</event>
<event>
 4    1  0.1300812E-003  0.1777590E+03  0.7818608E-02  0.1169990E+00
          2   -1    0    0  501    0  0.00000000000E+00  0.00000000000E+00  0.12710121936E+04  0.12710121936E+04  0.25500000000E-02 0.  1.
         -2   -1    0    0    0  501 -0.00000000000E+00 -0.00000000000E+00 -0.62151756555E+01  0.62151761786E+01  0.25500000000E-02 0. -1.
    5000001    1    1    2    0    0  0.35758685551E+02  0.42774665420E+01  0.44591838370E+03  0.45394843896E+03  0.77000000000E+02 0.  0.
   -5000001    1    1    2    0    0 -0.35758685551E+02 -0.42774665420E+01  0.81887863425E+03  0.82327893082E+03  0.77000000000E+02 0.  0.
<mgrwt>
<rscale>  0 0.17775899E+03</rscale>
<asrwt>0</asrwt>
<pdfrwt beam="1">  1        2 0.18157313E+00 0.17775899E+03</pdfrwt>
<pdfrwt beam="2">  1       -2 0.88788249E-03 0.17775899E+03</pdfrwt>
<totfact> 0.50231437E+04</totfact>
</mgrwt>
</event>
<event>
 4    1  0.1300812E-003  0.1951826E+03  0.7818608E-02  0.1153868E+00
         -2   -1    0    0    0  501 -0.00000000000E+00  0.00000000000E+00  0.17424430046E+03  0.17424430047E+03  0.25500000000E-02 0. -1.
          2   -1    0    0  501    0  0.00000000000E+00 -0.00000000000E+00 -0.54659269070E+02  0.54659269129E+02  0.25500000000E-02 0.  1.
    5000001    1    1    2    0    0 -0.23884304315E+02  0.43957622726E+02  0.21032048781E+02  0.94202333646E+02  0.77000000000E+02 0.  0.
   -5000001    1    1    2    0    0  0.23884304315E+02 -0.43957622726E+02  0.98552982605E+02  0.13470123596E+03  0.77000000000E+02 0.  0.
<mgrwt>
<rscale>  0 0.19518264E+03</rscale>
<asrwt>0</asrwt>
<pdfrwt beam="1">  1        2 0.78084669E-02 0.19518264E+03</pdfrwt>
<pdfrwt beam="2">  1       -2 0.24892043E-01 0.19518264E+03</pdfrwt>
<totfact> 0.12119797E+04</totfact>
</mgrwt>
</event>
<event>
 4    1  0.1300812E-003  0.3383671E+03  0.7818608E-02  0.1067494E+00
          2   -1    0    0  501    0  0.00000000000E+00  0.00000000000E+00  0.24973109368E+04  0.24973109368E+04  0.25500000000E-02 0. -1.
         -2   -1    0    0    0  501 -0.00000000000E+00 -0.00000000000E+00 -0.11461558107E+02  0.11461558390E+02  0.25500000000E-02 0.  1.
    5000001    1    1    2    0    0 -0.12029410557E+03 -0.90461384343E+02  0.12898996657E+04  0.13009320050E+04  0.77000000000E+02 0.  0.
   -5000001    1    1    2    0    0  0.12029410557E+03  0.90461384343E+02  0.11959497130E+04  0.12078404903E+04  0.77000000000E+02 0.  0.
<mgrwt>
<rscale>  0 0.33836711E+03</rscale>
<asrwt>0</asrwt>
<pdfrwt beam="1">  1        2 0.35675887E+00 0.33836711E+03</pdfrwt>
<pdfrwt beam="2">  1       -2 0.16373647E-02 0.33836711E+03</pdfrwt>
<totfact> 0.52126503E+03</totfact>
</mgrwt>
</event>
<event>
 4    1  0.1300812E-003  0.1776041E+03  0.7818608E-02  0.1170142E+00
          2   -1    0    0  501    0  0.00000000000E+00  0.00000000000E+00  0.46980659581E+03  0.46980659581E+03  0.25500000000E-02 0.  1.
         -2   -1    0    0    0  501 -0.00000000000E+00 -0.00000000000E+00 -0.16785222485E+02  0.16785222679E+02  0.25500000000E-02 0. -1.
    5000001    1    1    2    0    0  0.43033628075E+02 -0.97763158017E+01  0.23488322151E+03  0.25109081474E+03  0.77000000000E+02 0.  0.
   -5000001    1    1    2    0    0 -0.43033628075E+02  0.97763158017E+01  0.21813815181E+03  0.23550100376E+03  0.77000000000E+02 0.  0.
<mgrwt>
<rscale>  0 0.17760415E+03</rscale>
<asrwt>0</asrwt>
<pdfrwt beam="1">  1        2 0.67115241E-01 0.17760415E+03</pdfrwt>
<pdfrwt beam="2">  1       -2 0.23978885E-02 0.17760415E+03</pdfrwt>
<totfact> 0.40896564E+04</totfact>
</mgrwt>
</event>
<event>
 4    1  0.1300812E-003  0.3568095E+03  0.7818608E-02  0.1059854E+00
          2   -1    0    0  501    0  0.00000000000E+00  0.00000000000E+00  0.44630296611E+03  0.44630296612E+03  0.25500000000E-02 0.  1.
         -2   -1    0    0    0  501 -0.00000000000E+00 -0.00000000000E+00 -0.71315372598E+02  0.71315372644E+02  0.25500000000E-02 0. -1.
    5000001    1    1    2    0    0 -0.10253949849E+03  0.88230740620E+02  0.31396368456E+03  0.35043003234E+03  0.77000000000E+02 0.  0.
   -5000001    1    1    2    0    0  0.10253949849E+03 -0.88230740620E+02  0.61023908952E+02  0.16718830642E+03  0.77000000000E+02 0.  0.
<mgrwt>
<rscale>  0 0.35680954E+03</rscale>
<asrwt>0</asrwt>
<pdfrwt beam="1">  1        2 0.63757569E-01 0.35680954E+03</pdfrwt>
<pdfrwt beam="2">  1       -2 0.10187910E-01 0.35680954E+03</pdfrwt>
<totfact> 0.49673553E+03</totfact>
</mgrwt>
</event>
<event>
 4    1  0.1300812E-003  0.2513675E+03  0.7818608E-02  0.1112444E+00
         -2   -1    0    0    0  501 -0.00000000000E+00  0.00000000000E+00  0.35332239323E+02  0.35332239415E+02  0.25500000000E-02 0. -1.
          2   -1    0    0  501    0  0.00000000000E+00 -0.00000000000E+00 -0.44708189800E+03  0.44708189801E+03  0.25500000000E-02 0.  1.
    5000001    1    1    2    0    0 -0.69296641570E+01  0.64999458414E+02 -0.62329260517E+02  0.11868819047E+03  0.77000000000E+02 0.  0.
   -5000001    1    1    2    0    0  0.69296641570E+01 -0.64999458414E+02 -0.34942039816E+03  0.36372594696E+03  0.77000000000E+02 0.  0.
<mgrwt>
<rscale>  0 0.25136750E+03</rscale>
<asrwt>0</asrwt>
<pdfrwt beam="1">  1        2 0.63868839E-01 0.25136750E+03</pdfrwt>
<pdfrwt beam="2">  1       -2 0.50474631E-02 0.25136750E+03</pdfrwt>
<totfact> 0.14599033E+04</totfact>
</mgrwt>
</event>
<event>
 4    1  0.1300812E-003  0.3556461E+03  0.7818608E-02  0.1060321E+00
         -2   -1    0    0    0  501 -0.00000000000E+00  0.00000000000E+00  0.26630838599E+02  0.26630838721E+02  0.25500000000E-02 0. -1.
          2   -1    0    0  501    0  0.00000000000E+00 -0.00000000000E+00 -0.11873842853E+04  0.11873842853E+04  0.25500000000E-02 0.  1.
    5000001    1    1    2    0    0 -0.32524875959E+02  0.91527051365E+02 -0.14513968936E+03  0.19086539266E+03  0.77000000000E+02 0.  0.
   -5000001    1    1    2    0    0  0.32524875959E+02 -0.91527051365E+02 -0.10156137574E+04  0.10231497314E+04  0.77000000000E+02 0.  0.
<mgrwt>
<rscale>  0 0.35564611E+03</rscale>
<asrwt>0</asrwt>
<pdfrwt beam="1">  1        2 0.16962629E+00 0.35564611E+03</pdfrwt>
<pdfrwt beam="2">  1       -2 0.38044063E-02 0.35564611E+03</pdfrwt>
<totfact> 0.67842848E+03</totfact>
</mgrwt>
</event>
<event>
 4    1  0.1300812E-003  0.2192452E+03  0.7818608E-02  0.1134447E+00
         -2   -1    0    0    0  501 -0.00000000000E+00  0.00000000000E+00  0.46580518844E+02  0.46580518913E+02  0.25500000000E-02 0. -1.
          2   -1    0    0  501    0  0.00000000000E+00 -0.00000000000E+00 -0.25798580904E+03  0.25798580905E+03  0.25500000000E-02 0.  1.
    5000001    1    1    2    0    0 -0.60846214714E+02 -0.38735788539E+02 -0.14703775082E+03  0.18097464829E+03  0.77000000000E+02 0.  0.
   -5000001    1    1    2    0    0  0.60846214714E+02  0.38735788539E+02 -0.64367539375E+02  0.12359167967E+03  0.77000000000E+02 0.  0.
<mgrwt>
<rscale>  0 0.21924519E+03</rscale>
<asrwt>0</asrwt>
<pdfrwt beam="1">  1        2 0.36855115E-01 0.21924519E+03</pdfrwt>
<pdfrwt beam="2">  1       -2 0.66543600E-02 0.21924519E+03</pdfrwt>
<totfact> 0.17153883E+04</totfact>
</mgrwt>
</event>
<event>
 4    1  0.1300812E-003  0.2853999E+03  0.7818608E-02  0.1092776E+00
          2   -1    0    0  501    0  0.00000000000E+00  0.00000000000E+00  0.27826467828E+04  0.27826467828E+04  0.25500000000E-02 0.  1.
         -2   -1    0    0    0  501 -0.00000000000E+00 -0.00000000000E+00 -0.73179512212E+01  0.73179516655E+01  0.25500000000E-02 0. -1.
    5000001    1    1    2    0    0  0.80122130712E+02  0.32736755490E+02  0.57311165724E+03  0.58470267885E+03  0.77000000000E+02 0.  0.
   -5000001    1    1    2    0    0 -0.80122130712E+02 -0.32736755490E+02  0.22022171743E+04  0.22052620556E+04  0.77000000000E+02 0.  0.
<mgrwt>
<rscale>  0 0.28539989E+03</rscale>
<asrwt>0</asrwt>
<pdfrwt beam="1">  1        2 0.39752096E+00 0.28539989E+03</pdfrwt>
<pdfrwt beam="2">  1       -2 0.10454217E-02 0.28539989E+03</pdfrwt>
<totfact> 0.72064907E+03</totfact>
</mgrwt>
</event>
<event>
 4    1  0.1300812E-003  0.2260949E+03  0.7818608E-02  0.1129419E+00
          2   -1    0    0  501    0  0.00000000000E+00  0.00000000000E+00  0.33566658648E+03  0.33566658649E+03  0.25500000000E-02 0.  1.
         -2   -1    0    0    0  501 -0.00000000000E+00 -0.00000000000E+00 -0.38072688428E+02  0.38072688514E+02  0.25500000000E-02 0. -1.
    5000001    1    1    2    0    0 -0.45879361644E+02  0.24646497591E+02  0.25513586849E+03  0.27154314033E+03  0.77000000000E+02 0.  0.
   -5000001    1    1    2    0    0  0.45879361644E+02 -0.24646497591E+02  0.42458029561E+02  0.10219613468E+03  0.77000000000E+02 0.  0.
<mgrwt>
<rscale>  0 0.22609493E+03</rscale>
<asrwt>0</asrwt>
<pdfrwt beam="1">  1        2 0.47952368E-01 0.22609493E+03</pdfrwt>
<pdfrwt beam="2">  1       -2 0.54389557E-02 0.22609493E+03</pdfrwt>
<totfact> 0.17641929E+04</totfact>
</mgrwt>
</event>
<event>
 4    1  0.1300812E-003  0.1722785E+03  0.7818608E-02  0.1175492E+00
          2   -1    0    0  501    0  0.00000000000E+00  0.00000000000E+00  0.50067342656E+03  0.50067342657E+03  0.25500000000E-02 0.  1.
         -2   -1    0    0    0  501 -0.00000000000E+00 -0.00000000000E+00 -0.14819976611E+02  0.14819976830E+02  0.25500000000E-02 0. -1.
    5000001    1    1    2    0    0  0.38112706991E+02 -0.61829127461E+01  0.24412989626E+03  0.25888069277E+03  0.77000000000E+02 0.  0.
   -5000001    1    1    2    0    0 -0.38112706991E+02  0.61829127461E+01  0.24172355369E+03  0.25661271062E+03  0.77000000000E+02 0.  0.
<mgrwt>
<rscale>  0 0.17227848E+03</rscale>
<asrwt>0</asrwt>
<pdfrwt beam="1">  1        2 0.71524791E-01 0.17227848E+03</pdfrwt>
<pdfrwt beam="2">  1       -2 0.21171391E-02 0.17227848E+03</pdfrwt>
<totfact> 0.45653367E+04</totfact>
</mgrwt>
</event>
<event>
 4    1  0.1300812E-003  0.5481757E+03  0.7818608E-02  0.1001917E+00
          2   -1    0    0  501    0  0.00000000000E+00  0.00000000000E+00  0.13172581367E+04  0.13172581367E+04  0.25500000000E-02 0.  1.
         -2   -1    0    0    0  501 -0.00000000000E+00 -0.00000000000E+00 -0.57030706901E+02  0.57030706958E+02  0.25500000000E-02 0. -1.
    5000001    1    1    2    0    0  0.61136716219E+02 -0.13697166389E+03  0.88363486474E+02  0.19035766473E+03  0.77000000000E+02 0.  0.
   -5000001    1    1    2    0    0 -0.61136716219E+02  0.13697166389E+03  0.11718639433E+04  0.11839311789E+04  0.77000000000E+02 0.  0.
<mgrwt>
<rscale>  0 0.54817575E+03</rscale>
<asrwt>0</asrwt>
<pdfrwt beam="1">  1        2 0.18817970E+00 0.54817575E+03</pdfrwt>
<pdfrwt beam="2">  1       -2 0.81472451E-02 0.54817575E+03</pdfrwt>
<totfact> 0.17728551E+03</totfact>
</mgrwt>
</event>
<event>
 4    1  0.1300812E-003  0.1726336E+03  0.7818608E-02  0.1175129E+00
         -2   -1    0    0    0  501 -0.00000000000E+00  0.00000000000E+00  0.73030566352E+01  0.73030570804E+01  0.25500000000E-02 0. -1.
          2   -1    0    0  501    0  0.00000000000E+00 -0.00000000000E+00 -0.10202012741E+04  0.10202012741E+04  0.25500000000E-02 0.  1.
    5000001    1    1    2    0    0 -0.87455610444E+01  0.37497680973E+02 -0.46926640477E+03  0.47709801882E+03  0.77000000000E+02 0.  0.
   -5000001    1    1    2    0    0  0.87455610444E+01 -0.37497680973E+02 -0.54363181274E+03  0.55040631241E+03  0.77000000000E+02 0.  0.
<mgrwt>
<rscale>  0 0.17263358E+03</rscale>
<asrwt>0</asrwt>
<pdfrwt beam="1">  1        2 0.14574295E+00 0.17263358E+03</pdfrwt>
<pdfrwt beam="2">  1       -2 0.10432945E-02 0.17263358E+03</pdfrwt>
<totfact> 0.54472869E+04</totfact>
</mgrwt>
</event>
<event>
 4    1  0.1300812E-003  0.2603421E+03  0.7818608E-02  0.1106938E+00
          2   -1    0    0  501    0  0.00000000000E+00  0.00000000000E+00  0.11753784287E+02  0.11753784564E+02  0.25500000000E-02 0.  1.
         -2   -1    0    0    0  501 -0.00000000000E+00 -0.00000000000E+00 -0.14416206989E+04  0.14416206989E+04  0.25500000000E-02 0. -1.
    5000001    1    1    2    0    0 -0.83157362828E+02 -0.54307573708E+02 -0.90433270908E+03  0.91302306010E+03  0.77000000000E+02 0.  0.
   -5000001    1    1    2    0    0  0.83157362828E+02  0.54307573708E+02 -0.52553420558E+03  0.54035142341E+03  0.77000000000E+02 0.  0.
<mgrwt>
<rscale>  0 0.26034207E+03</rscale>
<asrwt>0</asrwt>
<pdfrwt beam="1">  1        2 0.16791130E-02 0.26034207E+03</pdfrwt>
<pdfrwt beam="2">  1       -2 0.20594570E+00 0.26034207E+03</pdfrwt>
<totfact> 0.92299412E+02</totfact>
</mgrwt>
</event>
<event>
 4    1  0.1300812E-003  0.3697892E+03  0.7818608E-02  0.1054774E+00
          2   -1    0    0  501    0  0.00000000000E+00  0.00000000000E+00  0.11161976133E+04  0.11161976133E+04  0.25500000000E-02 0.  1.
         -2   -1    0    0    0  501 -0.00000000000E+00 -0.00000000000E+00 -0.30627202097E+02  0.30627202203E+02  0.25500000000E-02 0. -1.
    5000001    1    1    2    0    0 -0.12458229346E+03  0.11253811917E+03  0.56899688620E+03  0.59822406556E+03  0.77000000000E+02 0.  0.
   -5000001    1    1    2    0    0  0.12458229346E+03 -0.11253811917E+03  0.51657352504E+03  0.54860074998E+03  0.77000000000E+02 0.  0.
<mgrwt>
<rscale>  0 0.36978918E+03</rscale>
<asrwt>0</asrwt>
<pdfrwt beam="1">  1        2 0.15945681E+00 0.36978918E+03</pdfrwt>
<pdfrwt beam="2">  1       -2 0.43753145E-02 0.36978918E+03</pdfrwt>
<totfact> 0.60174268E+03</totfact>
</mgrwt>
</event>
<event>
 4    1  0.1300812E-003  0.1976579E+03  0.7818608E-02  0.1151730E+00
         -2   -1    0    0    0  501 -0.00000000000E+00  0.00000000000E+00  0.88019701774E+01  0.88019705468E+01  0.25500000000E-02 0. -1.
          2   -1    0    0  501    0  0.00000000000E+00 -0.00000000000E+00 -0.11096563209E+04  0.11096563209E+04  0.25500000000E-02 0.  1.
    5000001    1    1    2    0    0 -0.21310533164E+02 -0.92922019404E+01 -0.87537208529E+03  0.87905959499E+03  0.77000000000E+02 0.  0.
   -5000001    1    1    2    0    0  0.21310533164E+02  0.92922019404E+01 -0.22548226540E+03  0.23939869642E+03  0.77000000000E+02 0.  0.
<mgrwt>
<rscale>  0 0.19765791E+03</rscale>
<asrwt>0</asrwt>
<pdfrwt beam="1">  1        2 0.15852224E+00 0.19765791E+03</pdfrwt>
<pdfrwt beam="2">  1       -2 0.12574250E-02 0.19765791E+03</pdfrwt>
<totfact> 0.37448145E+04</totfact>
</mgrwt>
</event>
<event>
 4    1  0.1300812E-003  0.4122479E+03  0.7818608E-02  0.1039619E+00
          2   -1    0    0  501    0  0.00000000000E+00  0.00000000000E+00  0.21115919653E+03  0.21115919655E+03  0.25500000000E-02 0.  1.
         -2   -1    0    0    0  501 -0.00000000000E+00 -0.00000000000E+00 -0.20120874296E+03  0.20120874298E+03  0.25500000000E-02 0. -1.
    5000001    1    1    2    0    0  0.14090539980E+03  0.12003877046E+03  0.52889474524E+02  0.20734014233E+03  0.77000000000E+02 0.  0.
   -5000001    1    1    2    0    0 -0.14090539980E+03 -0.12003877046E+03 -0.42939020956E+02  0.20502779720E+03  0.77000000000E+02 0.  0.
<mgrwt>
<rscale>  0 0.41224787E+03</rscale>
<asrwt>0</asrwt>
<pdfrwt beam="1">  1        2 0.30165600E-01 0.41224787E+03</pdfrwt>
<pdfrwt beam="2">  1       -2 0.28744106E-01 0.41224787E+03</pdfrwt>
<totfact> 0.19427079E+03</totfact>
</mgrwt>
</event>
<event>
 4    1  0.1300812E-003  0.8519326E+03  0.7818608E-02  0.9487747E-01
         -2   -1    0    0    0  501 -0.00000000000E+00  0.00000000000E+00  0.98778870622E+02  0.98778870655E+02  0.25500000000E-02 0. -1.
          2   -1    0    0  501    0  0.00000000000E+00 -0.00000000000E+00 -0.18369038121E+04  0.18369038121E+04  0.25500000000E-02 0.  1.
    5000001    1    1    2    0    0  0.69088970430E+02  0.32524918093E+03 -0.14481512506E+04  0.14878277320E+04  0.77000000000E+02 0.  0.
   -5000001    1    1    2    0    0 -0.69088970430E+02 -0.32524918093E+03 -0.28997369096E+03  0.44785495082E+03  0.77000000000E+02 0.  0.
<mgrwt>
<rscale>  0 0.85193259E+03</rscale>
<asrwt>0</asrwt>
<pdfrwt beam="1">  1        2 0.26241481E+00 0.85193259E+03</pdfrwt>
<pdfrwt beam="2">  1       -2 0.14111268E-01 0.85193259E+03</pdfrwt>
<totfact> 0.38198783E+02</totfact>
</mgrwt>
</event>
<event>
 4    1  0.1300812E-003  0.3472610E+03  0.7818608E-02  0.1063745E+00
          2   -1    0    0  501    0  0.00000000000E+00  0.00000000000E+00  0.42178764236E+04  0.42178764236E+04  0.25500000000E-02 0.  1.
         -2   -1    0    0    0  501 -0.00000000000E+00 -0.00000000000E+00 -0.71475661301E+01  0.71475665850E+01  0.25500000000E-02 0. -1.
    5000001    1    1    2    0    0 -0.10538879899E+03  0.11342176914E+03  0.22966779506E+04  0.23031782183E+04  0.77000000000E+02 0.  0.
   -5000001    1    1    2    0    0  0.10538879899E+03 -0.11342176914E+03  0.19140509069E+04  0.19218457719E+04  0.77000000000E+02 0.  0.
<mgrwt>
<rscale>  0 0.34726101E+03</rscale>
<asrwt>0</asrwt>
<pdfrwt beam="1">  1        2 0.60255384E+00 0.34726101E+03</pdfrwt>
<pdfrwt beam="2">  1       -2 0.10210808E-02 0.34726101E+03</pdfrwt>
<totfact> 0.10539625E+03</totfact>
</mgrwt>
</event>
<event>
 4    1  0.1300812E-003  0.2745344E+03  0.7818608E-02  0.1098712E+00
          2   -1    0    0  501    0  0.00000000000E+00  0.00000000000E+00  0.33507558274E+03  0.33507558275E+03  0.25500000000E-02 0.  1.
         -2   -1    0    0    0  501 -0.00000000000E+00 -0.00000000000E+00 -0.56232952298E+02  0.56232952356E+02  0.25500000000E-02 0. -1.
    5000001    1    1    2    0    0  0.87547004377E+02  0.69587854462E+02  0.16815347328E+03  0.21612852204E+03  0.77000000000E+02 0.  0.
   -5000001    1    1    2    0    0 -0.87547004377E+02 -0.69587854462E+02  0.11068915716E+03  0.17518001307E+03  0.77000000000E+02 0.  0.
<mgrwt>
<rscale>  0 0.27453444E+03</rscale>
<asrwt>0</asrwt>
<pdfrwt beam="1">  1        2 0.47867941E-01 0.27453444E+03</pdfrwt>
<pdfrwt beam="2">  1       -2 0.80332788E-02 0.27453444E+03</pdfrwt>
<totfact> 0.97911836E+03</totfact>
</mgrwt>
</event>
<event>
 4    1  0.1300812E-003  0.2720939E+03  0.7818608E-02  0.1100087E+00
          2   -1    0    0  501    0  0.00000000000E+00  0.00000000000E+00  0.11304952971E+04  0.11304952971E+04  0.25500000000E-02 0.  1.
         -2   -1    0    0    0  501 -0.00000000000E+00 -0.00000000000E+00 -0.16372272544E+02  0.16372272742E+02  0.25500000000E-02 0. -1.
    5000001    1    1    2    0    0 -0.72480892814E+02 -0.83402986472E+02  0.47595875048E+03  0.49464661137E+03  0.77000000000E+02 0.  0.
   -5000001    1    1    2    0    0  0.72480892814E+02  0.83402986472E+02  0.63816427410E+03  0.65222095851E+03  0.77000000000E+02 0.  0.
<mgrwt>
<rscale>  0 0.27209393E+03</rscale>
<asrwt>0</asrwt>
<pdfrwt beam="1">  1        2 0.16149932E+00 0.27209393E+03</pdfrwt>
<pdfrwt beam="2">  1       -2 0.23388962E-02 0.27209393E+03</pdfrwt>
<totfact> 0.14979644E+04</totfact>
</mgrwt>
</event>
<event>
 4    1  0.1300812E-003  0.4275212E+03  0.7818608E-02  0.1034646E+00
         -2   -1    0    0    0  501 -0.00000000000E+00  0.00000000000E+00  0.11901016581E+02  0.11901016854E+02  0.25500000000E-02 0. -1.
          2   -1    0    0  501    0  0.00000000000E+00 -0.00000000000E+00 -0.38394695955E+04  0.38394695955E+04  0.25500000000E-02 0.  1.
    5000001    1    1    2    0    0  0.16237245859E+03 -0.70319622662E+02 -0.27421318620E+04  0.27489135696E+04  0.77000000000E+02 0.  0.
   -5000001    1    1    2    0    0 -0.16237245859E+03  0.70319622662E+02 -0.10854367169E+04  0.11024570427E+04  0.77000000000E+02 0.  0.
<mgrwt>
<rscale>  0 0.42752119E+03</rscale>
<asrwt>0</asrwt>
<pdfrwt beam="1">  1        2 0.54849486E+00 0.42752119E+03</pdfrwt>
<pdfrwt beam="2">  1       -2 0.17001477E-02 0.42752119E+03</pdfrwt>
<totfact> 0.87586485E+02</totfact>
</mgrwt>
</event>
<event>
 4    1  0.1300812E-003  0.3029232E+03  0.7818608E-02  0.1083788E+00
          2   -1    0    0  501    0  0.00000000000E+00  0.00000000000E+00  0.16730732477E+04  0.16730732477E+04  0.25500000000E-02 0.  1.
         -2   -1    0    0    0  501 -0.00000000000E+00 -0.00000000000E+00 -0.13711663559E+02  0.13711663796E+02  0.25500000000E-02 0. -1.
    5000001    1    1    2    0    0 -0.61920907873E+01 -0.12757401012E+03  0.68255094133E+03  0.69865460534E+03  0.77000000000E+02 0.  0.
   -5000001    1    1    2    0    0  0.61920907873E+01  0.12757401012E+03  0.97681064280E+03  0.98813030616E+03  0.77000000000E+02 0.  0.
<mgrwt>
<rscale>  0 0.30292321E+03</rscale>
<asrwt>0</asrwt>
<pdfrwt beam="1">  1        2 0.23901041E+00 0.30292321E+03</pdfrwt>
<pdfrwt beam="2">  1       -2 0.19588096E-02 0.30292321E+03</pdfrwt>
<totfact> 0.10207654E+04</totfact>
</mgrwt>
</event>
<event>
 4    1  0.1300812E-003  0.2108047E+03  0.7818608E-02  0.1140930E+00
          2   -1    0    0  501    0  0.00000000000E+00  0.00000000000E+00  0.10928420727E+03  0.10928420730E+03  0.25500000000E-02 0.  1.
         -2   -1    0    0    0  501 -0.00000000000E+00 -0.00000000000E+00 -0.10165841505E+03  0.10165841509E+03  0.25500000000E-02 0. -1.
    5000001    1    1    2    0    0 -0.65828532359E+02 -0.17370828304E+02 -0.19558706916E+02  0.10462640376E+03  0.77000000000E+02 0.  0.
   -5000001    1    1    2    0    0  0.65828532359E+02  0.17370828304E+02  0.27184499132E+02  0.10631621862E+03  0.77000000000E+02 0.  0.
<mgrwt>
<rscale>  0 0.21080474E+03</rscale>
<asrwt>0</asrwt>
<pdfrwt beam="1">  1        2 0.15612030E-01 0.21080474E+03</pdfrwt>
<pdfrwt beam="2">  1       -2 0.14522631E-01 0.21080474E+03</pdfrwt>
<totfact> 0.13012861E+04</totfact>
</mgrwt>
</event>
<event>
 4    1  0.1300812E-003  0.3479675E+03  0.7818608E-02  0.1063452E+00
          2   -1    0    0  501    0  0.00000000000E+00  0.00000000000E+00  0.10016491116E+04  0.10016491116E+04  0.25500000000E-02 0.  1.
         -2   -1    0    0    0  501 -0.00000000000E+00 -0.00000000000E+00 -0.30220501500E+02  0.30220501608E+02  0.25500000000E-02 0. -1.
    5000001    1    1    2    0    0 -0.13271126860E+03 -0.32286664886E+02  0.26209276389E+03  0.30541173263E+03  0.77000000000E+02 0.  0.
   -5000001    1    1    2    0    0  0.13271126860E+03  0.32286664886E+02  0.70933584619E+03  0.72645788056E+03  0.77000000000E+02 0.  0.
<mgrwt>
<rscale>  0 0.34796746E+03</rscale>
<asrwt>0</asrwt>
<pdfrwt beam="1">  1        2 0.14309276E+00 0.34796746E+03</pdfrwt>
<pdfrwt beam="2">  1       -2 0.43172136E-02 0.34796746E+03</pdfrwt>
<totfact> 0.71492346E+03</totfact>
</mgrwt>
</event>
<event>
 4    1  0.1300812E-003  0.2709076E+03  0.7818608E-02  0.1100761E+00
         -2   -1    0    0    0  501 -0.00000000000E+00  0.00000000000E+00  0.45087486303E+02  0.45087486375E+02  0.25500000000E-02 0. -1.
          2   -1    0    0  501    0  0.00000000000E+00 -0.00000000000E+00 -0.40693628937E+03  0.40693628938E+03  0.25500000000E-02 0.  1.
    5000001    1    1    2    0    0  0.50216554567E+02  0.99480588618E+02 -0.18226395688E+03  0.22708421311E+03  0.77000000000E+02 0.  0.
   -5000001    1    1    2    0    0 -0.50216554567E+02 -0.99480588618E+02 -0.17958484619E+03  0.22493956265E+03  0.77000000000E+02 0.  0.
<mgrwt>
<rscale>  0 0.27090762E+03</rscale>
<asrwt>0</asrwt>
<pdfrwt beam="1">  1        2 0.58133754E-01 0.27090762E+03</pdfrwt>
<pdfrwt beam="2">  1       -2 0.64410697E-02 0.27090762E+03</pdfrwt>
<totfact> 0.11178291E+04</totfact>
</mgrwt>
</event>
<event>
 4    1  0.1300812E-003  0.4518263E+03  0.7818608E-02  0.1027179E+00
          2   -1    0    0  501    0  0.00000000000E+00  0.00000000000E+00  0.11698695251E+04  0.11698695251E+04  0.25500000000E-02 0.  1.
         -2   -1    0    0    0  501 -0.00000000000E+00 -0.00000000000E+00 -0.43626023818E+02  0.43626023893E+02  0.25500000000E-02 0. -1.
    5000001    1    1    2    0    0 -0.66138179316E+02  0.20168804022E+03  0.54312566875E+03  0.58818943920E+03  0.77000000000E+02 0.  0.
   -5000001    1    1    2    0    0  0.66138179316E+02 -0.20168804022E+03  0.58311783250E+03  0.62530610977E+03  0.77000000000E+02 0.  0.
<mgrwt>
<rscale>  0 0.45182632E+03</rscale>
<asrwt>0</asrwt>
<pdfrwt beam="1">  1        2 0.16712424E+00 0.45182632E+03</pdfrwt>
<pdfrwt beam="2">  1       -2 0.62322884E-02 0.45182632E+03</pdfrwt>
<totfact> 0.32608998E+03</totfact>
</mgrwt>
</event>
<event>
 4    1  0.1300812E-003  0.3725402E+03  0.7818608E-02  0.1053726E+00
          2   -1    0    0  501    0  0.00000000000E+00  0.00000000000E+00  0.14975959462E+04  0.14975959462E+04  0.25500000000E-02 0.  1.
         -2   -1    0    0    0  501 -0.00000000000E+00 -0.00000000000E+00 -0.23168170784E+02  0.23168170925E+02  0.25500000000E-02 0. -1.
    5000001    1    1    2    0    0  0.11765830092E+03  0.56492157875E+02  0.11793825866E+04  0.11890782670E+04  0.77000000000E+02 0.  0.
   -5000001    1    1    2    0    0 -0.11765830092E+03 -0.56492157875E+02  0.29504518884E+03  0.33168585007E+03  0.77000000000E+02 0.  0.
<mgrwt>
<rscale>  0 0.37254025E+03</rscale>
<asrwt>0</asrwt>
<pdfrwt beam="1">  1        2 0.21394238E+00 0.37254025E+03</pdfrwt>
<pdfrwt beam="2">  1       -2 0.33097371E-02 0.37254025E+03</pdfrwt>
<totfact> 0.57417050E+03</totfact>
</mgrwt>
</event>
<event>
 4    1  0.1300812E-003  0.2395575E+03  0.7818608E-02  0.1120088E+00
         -2   -1    0    0    0  501 -0.00000000000E+00  0.00000000000E+00  0.16055057694E+02  0.16055057896E+02  0.25500000000E-02 0. -1.
          2   -1    0    0  501    0  0.00000000000E+00 -0.00000000000E+00 -0.89360936016E+03  0.89360936017E+03  0.25500000000E-02 0.  1.
    5000001    1    1    2    0    0 -0.33057068998E+02 -0.85360139382E+02 -0.41511595069E+03  0.43200622186E+03  0.77000000000E+02 0.  0.
   -5000001    1    1    2    0    0  0.33057068998E+02  0.85360139382E+02 -0.46243835178E+03  0.47765819621E+03  0.77000000000E+02 0.  0.
<mgrwt>
<rscale>  0 0.23955751E+03</rscale>
<asrwt>0</asrwt>
<pdfrwt beam="1">  1        2 0.12765845E+00 0.23955751E+03</pdfrwt>
<pdfrwt beam="2">  1       -2 0.22935802E-02 0.23955751E+03</pdfrwt>
<totfact> 0.21114766E+04</totfact>
</mgrwt>
</event>
<event>
 4    1  0.1300812E-003  0.3270028E+03  0.7818608E-02  0.1072471E+00
          2   -1    0    0  501    0  0.00000000000E+00  0.00000000000E+00  0.37421364702E+03  0.37421364703E+03  0.25500000000E-02 0.  1.
         -2   -1    0    0    0  501 -0.00000000000E+00 -0.00000000000E+00 -0.71437036640E+02  0.71437036686E+02  0.25500000000E-02 0. -1.
    5000001    1    1    2    0    0  0.26160072769E+02 -0.40271933523E+02 -0.33964855317E+02  0.96895765819E+02  0.77000000000E+02 0.  0.
   -5000001    1    1    2    0    0 -0.26160072769E+02  0.40271933523E+02  0.33674146570E+03  0.34875491790E+03  0.77000000000E+02 0.  0.
<mgrwt>
<rscale>  0 0.32700284E+03</rscale>
<asrwt>0</asrwt>
<pdfrwt beam="1">  1        2 0.53459094E-01 0.32700284E+03</pdfrwt>
<pdfrwt beam="2">  1       -2 0.10205291E-01 0.32700284E+03</pdfrwt>
<totfact> 0.59908395E+03</totfact>
</mgrwt>
</event>
<event>
 4    1  0.1300812E-003  0.2421261E+03  0.7818608E-02  0.1118385E+00
         -2   -1    0    0    0  501 -0.00000000000E+00  0.00000000000E+00  0.62903283232E+02  0.62903283283E+02  0.25500000000E-02 0. -1.
          2   -1    0    0  501    0  0.00000000000E+00 -0.00000000000E+00 -0.23299678377E+03  0.23299678378E+03  0.25500000000E-02 0.  1.
    5000001    1    1    2    0    0  0.27415610601E+02  0.53085352488E+02  0.27193807226E+01  0.97499053251E+02  0.77000000000E+02 0.  0.
   -5000001    1    1    2    0    0 -0.27415610601E+02 -0.53085352488E+02 -0.17281288126E+03  0.19840101381E+03  0.77000000000E+02 0.  0.
<mgrwt>
<rscale>  0 0.24212611E+03</rscale>
<asrwt>0</asrwt>
<pdfrwt beam="1">  1        2 0.33285254E-01 0.24212611E+03</pdfrwt>
<pdfrwt beam="2">  1       -2 0.89861834E-02 0.24212611E+03</pdfrwt>
<totfact> 0.12079436E+04</totfact>
</mgrwt>
</event>
<event>
 4    1  0.1300812E-003  0.2261059E+03  0.7818608E-02  0.1129411E+00
          2   -1    0    0  501    0  0.00000000000E+00  0.00000000000E+00  0.48800855291E+03  0.48800855292E+03  0.25500000000E-02 0.  1.
         -2   -1    0    0    0  501 -0.00000000000E+00 -0.00000000000E+00 -0.26190060638E+02  0.26190060762E+02  0.25500000000E-02 0. -1.
    5000001    1    1    2    0    0  0.48402535068E+02 -0.62956563371E+02  0.17778756882E+03  0.20938900139E+03  0.77000000000E+02 0.  0.
   -5000001    1    1    2    0    0 -0.48402535068E+02  0.62956563371E+02  0.28403092345E+03  0.30480961229E+03  0.77000000000E+02 0.  0.
<mgrwt>
<rscale>  0 0.22610594E+03</rscale>
<asrwt>0</asrwt>
<pdfrwt beam="1">  1        2 0.69715501E-01 0.22610594E+03</pdfrwt>
<pdfrwt beam="2">  1       -2 0.37414376E-02 0.22610594E+03</pdfrwt>
<totfact> 0.20698304E+04</totfact>
</mgrwt>
</event>
<event>
 4    1  0.1300812E-003  0.1869379E+03  0.7818608E-02  0.1161253E+00
          2   -1    0    0  501    0  0.00000000000E+00  0.00000000000E+00  0.22995543425E+04  0.22995543425E+04  0.25500000000E-02 0.  1.
         -2   -1    0    0    0  501 -0.00000000000E+00 -0.00000000000E+00 -0.37991879206E+01  0.37991887764E+01  0.25500000000E-02 0. -1.
    5000001    1    1    2    0    0  0.22427698792E+02  0.13061224554E+02  0.17170509388E+04  0.17189725198E+04  0.77000000000E+02 0.  0.
   -5000001    1    1    2    0    0 -0.22427698792E+02 -0.13061224554E+02  0.57870421573E+03  0.58438101147E+03  0.77000000000E+02 0.  0.
<mgrwt>
<rscale>  0 0.18693785E+03</rscale>
<asrwt>0</asrwt>
<pdfrwt beam="1">  1        2 0.32850716E+00 0.18693785E+03</pdfrwt>
<pdfrwt beam="2">  1       -2 0.54274218E-03 0.18693785E+03</pdfrwt>
<totfact> 0.31983557E+04</totfact>
</mgrwt>
</event>
<event>
 4    1  0.1300812E-003  0.1787979E+03  0.7818608E-02  0.1168972E+00
         -2   -1    0    0    0  501 -0.00000000000E+00  0.00000000000E+00  0.93174897283E+02  0.93174897318E+02  0.25500000000E-02 0. -1.
          2   -1    0    0  501    0  0.00000000000E+00 -0.00000000000E+00 -0.85776011577E+02  0.85776011615E+02  0.25500000000E-02 0.  1.
    5000001    1    1    2    0    0  0.43973456733E+02 -0.10783629124E+02  0.73384204049E+01  0.89625911255E+02  0.77000000000E+02 0.  0.
   -5000001    1    1    2    0    0 -0.43973456733E+02  0.10783629124E+02  0.60465300332E-01  0.89324997678E+02  0.77000000000E+02 0.  0.
<mgrwt>
<rscale>  0 0.17879789E+03</rscale>
<asrwt>0</asrwt>
<pdfrwt beam="1">  1        2 0.12253716E-01 0.17879789E+03</pdfrwt>
<pdfrwt beam="2">  1       -2 0.13310700E-01 0.17879789E+03</pdfrwt>
<totfact> 0.19761187E+04</totfact>
</mgrwt>
</event>
<event>
 4    1  0.1300812E-003  0.2195224E+03  0.7818608E-02  0.1134240E+00
          2   -1    0    0  501    0  0.00000000000E+00  0.00000000000E+00  0.51340449185E+02  0.51340449248E+02  0.25500000000E-02 0.  1.
         -2   -1    0    0    0  501 -0.00000000000E+00 -0.00000000000E+00 -0.23465940918E+03  0.23465940920E+03  0.25500000000E-02 0. -1.
    5000001    1    1    2    0    0  0.71532121638E+02 -0.22400472077E+02 -0.62530456478E+02  0.12432893293E+03  0.77000000000E+02 0.  0.
   -5000001    1    1    2    0    0 -0.71532121638E+02  0.22400472077E+02 -0.12078850352E+03  0.16167092552E+03  0.77000000000E+02 0.  0.
<mgrwt>
<rscale>  0 0.21952239E+03</rscale>
<asrwt>0</asrwt>
<pdfrwt beam="1">  1        2 0.73343500E-02 0.21952239E+03</pdfrwt>
<pdfrwt beam="2">  1       -2 0.33522772E-01 0.21952239E+03</pdfrwt>
<totfact> 0.77436313E+03</totfact>
</mgrwt>
</event>
<event>
 4    1  0.1300812E-003  0.2283044E+03  0.7818608E-02  0.1127839E+00
          2   -1    0    0  501    0  0.00000000000E+00  0.00000000000E+00  0.37536258384E+02  0.37536258470E+02  0.25500000000E-02 0.  1.
         -2   -1    0    0    0  501 -0.00000000000E+00 -0.00000000000E+00 -0.34715039792E+03  0.34715039793E+03  0.25500000000E-02 0. -1.
    5000001    1    1    2    0    0 -0.52645211838E+02 -0.31417693177E+02 -0.25223195609E+03  0.27075551601E+03  0.77000000000E+02 0.  0.
   -5000001    1    1    2    0    0  0.52645211838E+02  0.31417693177E+02 -0.57382183442E+02  0.11393114039E+03  0.77000000000E+02 0.  0.
<mgrwt>
<rscale>  0 0.22830442E+03</rscale>
<asrwt>0</asrwt>
<pdfrwt beam="1">  1        2 0.53623228E-02 0.22830442E+03</pdfrwt>
<pdfrwt beam="2">  1       -2 0.49592912E-01 0.22830442E+03</pdfrwt>
<totfact> 0.55032124E+03</totfact>
</mgrwt>
</event>
<event>
 4    1  0.1300812E-003  0.2406240E+03  0.7818608E-02  0.1119378E+00
          2   -1    0    0  501    0  0.00000000000E+00  0.00000000000E+00  0.26431905334E+03  0.26431905335E+03  0.25500000000E-02 0.  1.
         -2   -1    0    0    0  501 -0.00000000000E+00 -0.00000000000E+00 -0.54763262641E+02  0.54763262700E+02  0.25500000000E-02 0. -1.
    5000001    1    1    2    0    0 -0.59408428920E+01  0.74092168145E+02  0.31892347765E+02  0.11167392194E+03  0.77000000000E+02 0.  0.
   -5000001    1    1    2    0    0  0.59408428920E+01 -0.74092168145E+02  0.17766344293E+03  0.20740839412E+03  0.77000000000E+02 0.  0.
<mgrwt>
<rscale>  0 0.24062397E+03</rscale>
<asrwt>0</asrwt>
<pdfrwt beam="1">  1        2 0.37759865E-01 0.24062397E+03</pdfrwt>
<pdfrwt beam="2">  1       -2 0.78233232E-02 0.24062397E+03</pdfrwt>
<totfact> 0.13084078E+04</totfact>
</mgrwt>
</event>
<event>
 4    1  0.1300812E-003  0.2510562E+03  0.7818608E-02  0.1112639E+00
          2   -1    0    0  501    0  0.00000000000E+00  0.00000000000E+00  0.14248377370E+04  0.14248377370E+04  0.25500000000E-02 0.  1.
         -2   -1    0    0    0  501 -0.00000000000E+00 -0.00000000000E+00 -0.11059012190E+02  0.11059012484E+02  0.25500000000E-02 0. -1.
    5000001    1    1    2    0    0  0.47768151892E+02 -0.25111156543E+02  0.11825286122E+04  0.11862610527E+04  0.77000000000E+02 0.  0.
   -5000001    1    1    2    0    0 -0.47768151892E+02  0.25111156543E+02  0.23125011255E+03  0.24963569672E+03  0.77000000000E+02 0.  0.
<mgrwt>
<rscale>  0 0.25105615E+03</rscale>
<asrwt>0</asrwt>
<pdfrwt beam="1">  1        2 0.20354823E+00 0.25105615E+03</pdfrwt>
<pdfrwt beam="2">  1       -2 0.15798591E-02 0.25105615E+03</pdfrwt>
<totfact> 0.18545988E+04</totfact>
</mgrwt>
</event>
<event>
 4    1  0.1300812E-003  0.2943624E+03  0.7818608E-02  0.1088093E+00
         -2   -1    0    0    0  501 -0.00000000000E+00  0.00000000000E+00  0.97082251188E+01  0.97082254537E+01  0.25500000000E-02 0. -1.
          2   -1    0    0  501    0  0.00000000000E+00 -0.00000000000E+00 -0.22313355403E+04  0.22313355403E+04  0.25500000000E-02 0.  1.
    5000001    1    1    2    0    0 -0.96004951032E+02  0.73150154834E+02 -0.85091275687E+03  0.86287276906E+03  0.77000000000E+02 0.  0.
   -5000001    1    1    2    0    0  0.96004951032E+02 -0.73150154834E+02 -0.13707145583E+04  0.13781709967E+04  0.77000000000E+02 0.  0.
<mgrwt>
<rscale>  0 0.29436242E+03</rscale>
<asrwt>0</asrwt>
<pdfrwt beam="1">  1        2 0.31876189E+00 0.29436242E+03</pdfrwt>
<pdfrwt beam="2">  1       -2 0.13868908E-02 0.29436242E+03</pdfrwt>
<totfact> 0.90172759E+03</totfact>
</mgrwt>
</event>
<event>
 4    1  0.1300812E-003  0.2010409E+03  0.7818608E-02  0.1148864E+00
          2   -1    0    0  501    0  0.00000000000E+00  0.00000000000E+00  0.13318033515E+03  0.13318033517E+03  0.25500000000E-02 0.  1.
         -2   -1    0    0    0  501 -0.00000000000E+00 -0.00000000000E+00 -0.75869790250E+02  0.75869790293E+02  0.25500000000E-02 0. -1.
    5000001    1    1    2    0    0  0.24472963429E+02  0.56742318635E+02  0.90150512759E+01  0.99140747488E+02  0.77000000000E+02 0.  0.
   -5000001    1    1    2    0    0 -0.24472963429E+02 -0.56742318635E+02  0.48295493622E+02  0.10990937798E+03  0.77000000000E+02 0.  0.
<mgrwt>
<rscale>  0 0.20104093E+03</rscale>
<asrwt>0</asrwt>
<pdfrwt beam="1">  1        2 0.19025762E-01 0.20104093E+03</pdfrwt>
<pdfrwt beam="2">  1       -2 0.10838542E-01 0.20104093E+03</pdfrwt>
<totfact> 0.16539948E+04</totfact>
</mgrwt>
</event>
<event>
 4    1  0.1300812E-003  0.3523936E+03  0.7818608E-02  0.1061637E+00
         -2   -1    0    0    0  501 -0.00000000000E+00  0.00000000000E+00  0.53364363430E+02  0.53364363491E+02  0.25500000000E-02 0. -1.
          2   -1    0    0  501    0  0.00000000000E+00 -0.00000000000E+00 -0.58176129295E+03  0.58176129295E+03  0.25500000000E-02 0.  1.
    5000001    1    1    2    0    0 -0.59797836883E+02 -0.10832529779E+03 -0.85721864606E+02  0.16907805745E+03  0.77000000000E+02 0.  0.
   -5000001    1    1    2    0    0  0.59797836883E+02  0.10832529779E+03 -0.44267506491E+03  0.46604759900E+03  0.77000000000E+02 0.  0.
<mgrwt>
<rscale>  0 0.35239365E+03</rscale>
<asrwt>0</asrwt>
<pdfrwt beam="1">  1        2 0.83108752E-01 0.35239365E+03</pdfrwt>
<pdfrwt beam="2">  1       -2 0.76234808E-02 0.35239365E+03</pdfrwt>
<totfact> 0.58403111E+03</totfact>
</mgrwt>
</event>
<event>
 4    1  0.1300812E-003  0.3591878E+03  0.7818608E-02  0.1058906E+00
         -2   -1    0    0    0  501 -0.00000000000E+00  0.00000000000E+00  0.16582664845E+02  0.16582665041E+02  0.25500000000E-02 0. -1.
          2   -1    0    0  501    0  0.00000000000E+00 -0.00000000000E+00 -0.19450412784E+04  0.19450412784E+04  0.25500000000E-02 0.  1.
    5000001    1    1    2    0    0 -0.55796422579E+02 -0.14073683923E+03 -0.12829016664E+04  0.12940965128E+04  0.77000000000E+02 0.  0.
   -5000001    1    1    2    0    0  0.55796422579E+02  0.14073683923E+03 -0.64555694712E+03  0.66752743064E+03  0.77000000000E+02 0.  0.
<mgrwt>
<rscale>  0 0.35918779E+03</rscale>
<asrwt>0</asrwt>
<pdfrwt beam="1">  1        2 0.27786289E+00 0.35918779E+03</pdfrwt>
<pdfrwt beam="2">  1       -2 0.23689534E-02 0.35918779E+03</pdfrwt>
<totfact> 0.56622980E+03</totfact>
</mgrwt>
</event>
<event>
 4    1  0.1300812E-003  0.4015954E+03  0.7818608E-02  0.1043229E+00
          2   -1    0    0  501    0  0.00000000000E+00  0.00000000000E+00  0.49489937459E+03  0.49489937459E+03  0.25500000000E-02 0.  1.
         -2   -1    0    0    0  501 -0.00000000000E+00 -0.00000000000E+00 -0.81470528966E+02  0.81470529006E+02  0.25500000000E-02 0. -1.
    5000001    1    1    2    0    0  0.54750383157E+02 -0.16707807724E+03  0.29135506687E+03  0.34889749690E+03  0.77000000000E+02 0.  0.
   -5000001    1    1    2    0    0 -0.54750383157E+02  0.16707807724E+03  0.12207377875E+03  0.22747240670E+03  0.77000000000E+02 0.  0.
<mgrwt>
<rscale>  0 0.40159539E+03</rscale>
<asrwt>0</asrwt>
<pdfrwt beam="1">  1        2 0.70699907E-01 0.40159539E+03</pdfrwt>
<pdfrwt beam="2">  1       -2 0.11638648E-01 0.40159539E+03</pdfrwt>
<totfact> 0.35812819E+03</totfact>
</mgrwt>
</event>
<event>
 4    1  0.1300812E-003  0.2062450E+03  0.7818608E-02  0.1144575E+00
          2   -1    0    0  501    0  0.00000000000E+00  0.00000000000E+00  0.97973132496E+02  0.97973132529E+02  0.25500000000E-02 0.  1.
         -2   -1    0    0    0  501 -0.00000000000E+00 -0.00000000000E+00 -0.10854246611E+03  0.10854246614E+03  0.25500000000E-02 0. -1.
    5000001    1    1    2    0    0 -0.28591316995E+02  0.48173412884E+02  0.34353948712E+02  0.10122912085E+03  0.77000000000E+02 0.  0.
   -5000001    1    1    2    0    0  0.28591316995E+02 -0.48173412884E+02 -0.44923282329E+02  0.10528647782E+03  0.77000000000E+02 0.  0.
<mgrwt>
<rscale>  0 0.20624496E+03</rscale>
<asrwt>0</asrwt>
<pdfrwt beam="1">  1        2 0.13996162E-01 0.20624496E+03</pdfrwt>
<pdfrwt beam="2">  1       -2 0.15506067E-01 0.20624496E+03</pdfrwt>
<totfact> 0.13273996E+04</totfact>
</mgrwt>
</event>
<event>
 4    1  0.1300812E-003  0.2901717E+03  0.7818608E-02  0.1090260E+00
         -2   -1    0    0    0  501 -0.00000000000E+00  0.00000000000E+00  0.54430366916E+01  0.54430372889E+01  0.25500000000E-02 0. -1.
          2   -1    0    0  501    0  0.00000000000E+00 -0.00000000000E+00 -0.38673079368E+04  0.38673079368E+04  0.25500000000E-02 0.  1.
    5000001    1    1    2    0    0 -0.16398108985E+02 -0.11878483678E+03 -0.22945247788E+04  0.22989457792E+04  0.77000000000E+02 0.  0.
   -5000001    1    1    2    0    0  0.16398108985E+02  0.11878483678E+03 -0.15673401214E+04  0.15738051949E+04  0.77000000000E+02 0.  0.
<mgrwt>
<rscale>  0 0.29017167E+03</rscale>
<asrwt>0</asrwt>
<pdfrwt beam="1">  1        2 0.55247080E+00 0.29017167E+03</pdfrwt>
<pdfrwt beam="2">  1       -2 0.77757919E-03 0.29017167E+03</pdfrwt>
<totfact> 0.27008374E+03</totfact>
</mgrwt>
</event>
<event>
 4    1  0.1300812E-003  0.5468021E+03  0.7818608E-02  0.1002237E+00
          2   -1    0    0  501    0  0.00000000000E+00  0.00000000000E+00  0.53289413024E+02  0.53289413085E+02  0.25500000000E-02 0.  1.
         -2   -1    0    0    0  501 -0.00000000000E+00 -0.00000000000E+00 -0.14026827027E+04  0.14026827027E+04  0.25500000000E-02 0. -1.
    5000001    1    1    2    0    0  0.86539153102E+02  0.24758225047E+03 -0.65936766233E+03  0.71377917446E+03  0.77000000000E+02 0.  0.
   -5000001    1    1    2    0    0 -0.86539153102E+02 -0.24758225047E+03 -0.69002562739E+03  0.74219294137E+03  0.77000000000E+02 0.  0.
<mgrwt>
<rscale>  0 0.54680211E+03</rscale>
<asrwt>0</asrwt>
<pdfrwt beam="1">  1        2 0.76127742E-02 0.54680211E+03</pdfrwt>
<pdfrwt beam="2">  1       -2 0.20038322E+00 0.54680211E+03</pdfrwt>
<totfact> 0.12843525E+02</totfact>
</mgrwt>
</event>
<event>
 4    1  0.1300812E-003  0.2763331E+03  0.7818608E-02  0.1097709E+00
          2   -1    0    0  501    0  0.00000000000E+00  0.00000000000E+00  0.34164574447E+03  0.34164574448E+03  0.25500000000E-02 0. -1.
         -2   -1    0    0    0  501 -0.00000000000E+00 -0.00000000000E+00 -0.55876576695E+02  0.55876576753E+02  0.25500000000E-02 0.  1.
    5000001    1    1    2    0    0  0.87224534979E+02 -0.52137554026E+02  0.66294820334E+02  0.14370263479E+03  0.77000000000E+02 0.  0.
   -5000001    1    1    2    0    0 -0.87224534979E+02  0.52137554026E+02  0.21947434744E+03  0.25381968644E+03  0.77000000000E+02 0.  0.
<mgrwt>
<rscale>  0 0.27633309E+03</rscale>
<asrwt>0</asrwt>
<pdfrwt beam="1">  1        2 0.48806536E-01 0.27633309E+03</pdfrwt>
<pdfrwt beam="2">  1       -2 0.79823680E-02 0.27633309E+03</pdfrwt>
<totfact> 0.96872120E+03</totfact>
</mgrwt>
</event>
<event>
 4    1  0.1300812E-003  0.2141733E+03  0.7818608E-02  0.1138303E+00
         -2   -1    0    0    0  501 -0.00000000000E+00  0.00000000000E+00  0.34740295653E+01  0.34740305011E+01  0.25500000000E-02 0. -1.
          2   -1    0    0  501    0  0.00000000000E+00 -0.00000000000E+00 -0.33009352417E+04  0.33009352417E+04  0.25500000000E-02 0.  1.
    5000001    1    1    2    0    0  0.35421063607E+02 -0.31200724411E+02 -0.25364373567E+04  0.25380448384E+04  0.77000000000E+02 0.  0.
   -5000001    1    1    2    0    0 -0.35421063607E+02  0.31200724411E+02 -0.76102385541E+03  0.76636443384E+03  0.77000000000E+02 0.  0.
<mgrwt>
<rscale>  0 0.21417328E+03</rscale>
<asrwt>0</asrwt>
<pdfrwt beam="1">  1        2 0.47156017E+00 0.21417328E+03</pdfrwt>
<pdfrwt beam="2">  1       -2 0.49629212E-03 0.21417328E+03</pdfrwt>
<totfact> 0.11180128E+04</totfact>
</mgrwt>
</event>
<event>
 4    1  0.1300812E-003  0.2515011E+03  0.7818608E-02  0.1112360E+00
         -2   -1    0    0    0  501 -0.00000000000E+00  0.00000000000E+00  0.29256563326E+03  0.29256563327E+03  0.25500000000E-02 0. -1.
          2   -1    0    0  501    0  0.00000000000E+00 -0.00000000000E+00 -0.54050108791E+02  0.54050108851E+02  0.25500000000E-02 0.  1.
    5000001    1    1    2    0    0 -0.44124713152E+02 -0.67942055774E+02  0.39834314024E+02  0.11865448086E+03  0.77000000000E+02 0.  0.
   -5000001    1    1    2    0    0  0.44124713152E+02  0.67942055774E+02  0.19868121044E+03  0.22796126126E+03  0.77000000000E+02 0.  0.
<mgrwt>
<rscale>  0 0.25150113E+03</rscale>
<asrwt>0</asrwt>
<pdfrwt beam="1">  1        2 0.77214442E-02 0.25150113E+03</pdfrwt>
<pdfrwt beam="2">  1       -2 0.41795090E-01 0.25150113E+03</pdfrwt>
<totfact> 0.48203478E+03</totfact>
</mgrwt>
</event>
<event>
 4    1  0.1300812E-003  0.2229973E+03  0.7818608E-02  0.1131668E+00
          2   -1    0    0  501    0  0.00000000000E+00  0.00000000000E+00  0.26867189712E+04  0.26867189712E+04  0.25500000000E-02 0.  1.
         -2   -1    0    0    0  501 -0.00000000000E+00 -0.00000000000E+00 -0.46271874801E+01  0.46271881827E+01  0.25500000000E-02 0. -1.
    5000001    1    1    2    0    0  0.78688942035E+02 -0.13048569324E+02  0.14842239444E+04  0.14883588048E+04  0.77000000000E+02 0.  0.
   -5000001    1    1    2    0    0 -0.78688942035E+02  0.13048569324E+02  0.11978678393E+04  0.12029873546E+04  0.77000000000E+02 0.  0.
<mgrwt>
<rscale>  0 0.22299734E+03</rscale>
<asrwt>0</asrwt>
<pdfrwt beam="1">  1        2 0.38381800E+00 0.22299734E+03</pdfrwt>
<pdfrwt beam="2">  1       -2 0.66102510E-03 0.22299734E+03</pdfrwt>
<totfact> 0.15618671E+04</totfact>
</mgrwt>
</event>
<event>
 4    1  0.1300812E-003  0.1766149E+03  0.7818608E-02  0.1171120E+00
          2   -1    0    0  501    0  0.00000000000E+00  0.00000000000E+00  0.38280872492E+03  0.38280872493E+03  0.25500000000E-02 0.  1.
         -2   -1    0    0    0  501 -0.00000000000E+00 -0.00000000000E+00 -0.20371024281E+02  0.20371024440E+02  0.25500000000E-02 0. -1.
    5000001    1    1    2    0    0  0.35853900721E+02 -0.24159437732E+02  0.18158149223E+03  0.20191587097E+03  0.77000000000E+02 0.  0.
   -5000001    1    1    2    0    0 -0.35853900721E+02  0.24159437732E+02  0.18085620841E+03  0.20126387840E+03  0.77000000000E+02 0.  0.
<mgrwt>
<rscale>  0 0.17661490E+03</rscale>
<asrwt>0</asrwt>
<pdfrwt beam="1">  1        2 0.54686960E-01 0.17661490E+03</pdfrwt>
<pdfrwt beam="2">  1       -2 0.29101464E-02 0.17661490E+03</pdfrwt>
<totfact> 0.38325707E+04</totfact>
</mgrwt>
</event>
<event>
 4    1  0.1300812E-003  0.9027360E+03  0.7818608E-02  0.9422168E-01
         -2   -1    0    0    0  501 -0.00000000000E+00  0.00000000000E+00  0.19172609339E+03  0.19172609341E+03  0.25500000000E-02 0. -1.
          2   -1    0    0  501    0  0.00000000000E+00 -0.00000000000E+00 -0.10626257463E+04  0.10626257463E+04  0.25500000000E-02 0.  1.
    5000001    1    1    2    0    0 -0.15742676363E+02  0.39540118109E+03 -0.71753600571E+03  0.82302906714E+03  0.77000000000E+02 0.  0.
   -5000001    1    1    2    0    0  0.15742676363E+02 -0.39540118109E+03 -0.15336364723E+03  0.43132277259E+03  0.77000000000E+02 0.  0.
<mgrwt>
<rscale>  0 0.90273603E+03</rscale>
<asrwt>0</asrwt>
<pdfrwt beam="1">  1        2 0.15180367E+00 0.90273603E+03</pdfrwt>
<pdfrwt beam="2">  1       -2 0.27389443E-01 0.90273603E+03</pdfrwt>
<totfact> 0.31196934E+02</totfact>
</mgrwt>
</event>
<event>
 4    1  0.1300812E-003  0.5294057E+03  0.7818608E-02  0.1006376E+00
         -2   -1    0    0    0  501 -0.00000000000E+00  0.00000000000E+00  0.96184073232E+02  0.96184073266E+02  0.25500000000E-02 0. -1.
          2   -1    0    0  501    0  0.00000000000E+00 -0.00000000000E+00 -0.72847388681E+03  0.72847388681E+03  0.25500000000E-02 0.  1.
    5000001    1    1    2    0    0 -0.24468925222E+03 -0.48088894146E+02 -0.38498796825E+03  0.46511300518E+03  0.77000000000E+02 0.  0.
   -5000001    1    1    2    0    0  0.24468925222E+03  0.48088894146E+02 -0.24730184532E+03  0.35954495489E+03  0.77000000000E+02 0.  0.
<mgrwt>
<rscale>  0 0.52940565E+03</rscale>
<asrwt>0</asrwt>
<pdfrwt beam="1">  1        2 0.10406770E+00 0.52940565E+03</pdfrwt>
<pdfrwt beam="2">  1       -2 0.13740582E-01 0.52940565E+03</pdfrwt>
<totfact> 0.17381855E+03</totfact>
</mgrwt>
</event>
<event>
 4    1  0.1300812E-003  0.2705142E+03  0.7818608E-02  0.1100986E+00
          2   -1    0    0  501    0  0.00000000000E+00  0.00000000000E+00  0.50778208659E+03  0.50778208659E+03  0.25500000000E-02 0. -1.
         -2   -1    0    0    0  501 -0.00000000000E+00 -0.00000000000E+00 -0.36028207025E+02  0.36028207116E+02  0.25500000000E-02 0.  1.
    5000001    1    1    2    0    0  0.32168429043E+01  0.46141364833E+02  0.43916530778E+03  0.44825722658E+03  0.77000000000E+02 0.  0.
   -5000001    1    1    2    0    0 -0.32168429043E+01 -0.46141364833E+02  0.32588571787E+02  0.95553067130E+02  0.77000000000E+02 0.  0.
<mgrwt>
<rscale>  0 0.27051416E+03</rscale>
<asrwt>0</asrwt>
<pdfrwt beam="1">  1        2 0.72540297E-01 0.27051416E+03</pdfrwt>
<pdfrwt beam="2">  1       -2 0.51468868E-02 0.27051416E+03</pdfrwt>
<totfact> 0.12368366E+04</totfact>
</mgrwt>
</event>
<event>
 4    1  0.1300812E-003  0.2152322E+03  0.7818608E-02  0.1137488E+00
         -2   -1    0    0    0  501 -0.00000000000E+00  0.00000000000E+00  0.72988599962E+02  0.72988600007E+02  0.25500000000E-02 0. -1.
          2   -1    0    0  501    0  0.00000000000E+00 -0.00000000000E+00 -0.15867164258E+03  0.15867164260E+03  0.25500000000E-02 0.  1.
    5000001    1    1    2    0    0  0.42588017249E+02  0.39722444648E+02  0.83333882646E+01  0.96902307413E+02  0.77000000000E+02 0.  0.
   -5000001    1    1    2    0    0 -0.42588017249E+02 -0.39722444648E+02 -0.94016430884E+02  0.13475793520E+03  0.77000000000E+02 0.  0.
<mgrwt>
<rscale>  0 0.21523216E+03</rscale>
<asrwt>0</asrwt>
<pdfrwt beam="1">  1        2 0.22667377E-01 0.21523216E+03</pdfrwt>
<pdfrwt beam="2">  1       -2 0.10426943E-01 0.21523216E+03</pdfrwt>
<totfact> 0.14488670E+04</totfact>
</mgrwt>
</event>
<event>
 4    1  0.1300812E-003  0.3682315E+03  0.7818608E-02  0.1055371E+00
          2   -1    0    0  501    0  0.00000000000E+00  0.00000000000E+00  0.16030536888E+04  0.16030536888E+04  0.25500000000E-02 0.  1.
         -2   -1    0    0    0  501 -0.00000000000E+00 -0.00000000000E+00 -0.21146274467E+02  0.21146274621E+02  0.25500000000E-02 0. -1.
    5000001    1    1    2    0    0  0.13891500671E+03  0.18549716357E+02  0.38842894372E+03  0.42005656213E+03  0.77000000000E+02 0.  0.
   -5000001    1    1    2    0    0 -0.13891500671E+03 -0.18549716357E+02  0.11934784706E+04  0.12041434013E+04  0.77000000000E+02 0.  0.
<mgrwt>
<rscale>  0 0.36823152E+03</rscale>
<asrwt>0</asrwt>
<pdfrwt beam="1">  1        2 0.22900773E+00 0.36823152E+03</pdfrwt>
<pdfrwt beam="2">  1       -2 0.30208955E-02 0.36823152E+03</pdfrwt>
<totfact> 0.58225277E+03</totfact>
</mgrwt>
</event>
<event>
 4    1  0.1300812E-003  0.3779435E+03  0.7818608E-02  0.1051696E+00
          2   -1    0    0  501    0  0.00000000000E+00  0.00000000000E+00  0.21089375435E+04  0.21089375435E+04  0.25500000000E-02 0.  1.
         -2   -1    0    0    0  501 -0.00000000000E+00 -0.00000000000E+00 -0.16932846918E+02  0.16932847110E+02  0.25500000000E-02 0. -1.
    5000001    1    1    2    0    0 -0.19016772912E+02  0.16106727836E+03  0.71432717329E+03  0.73654369613E+03  0.77000000000E+02 0.  0.
   -5000001    1    1    2    0    0  0.19016772912E+02 -0.16106727836E+03  0.13776775233E+04  0.13893266945E+04  0.77000000000E+02 0.  0.
<mgrwt>
<rscale>  0 0.37794347E+03</rscale>
<asrwt>0</asrwt>
<pdfrwt beam="1">  1        2 0.30127681E+00 0.37794347E+03</pdfrwt>
<pdfrwt beam="2">  1       -2 0.24189780E-02 0.37794347E+03</pdfrwt>
<totfact> 0.45558167E+03</totfact>
</mgrwt>
</event>
<event>
 4    1  0.1300812E-003  0.3047556E+03  0.7818608E-02  0.1082887E+00
         -2   -1    0    0    0  501 -0.00000000000E+00  0.00000000000E+00  0.11570107378E+02  0.11570107659E+02  0.25500000000E-02 0. -1.
          2   -1    0    0  501    0  0.00000000000E+00 -0.00000000000E+00 -0.20068086749E+04  0.20068086749E+04  0.25500000000E-02 0.  1.
    5000001    1    1    2    0    0 -0.12236393465E+03 -0.47163574563E+02 -0.10613706964E+04  0.10722099097E+04  0.77000000000E+02 0.  0.
   -5000001    1    1    2    0    0  0.12236393465E+03  0.47163574563E+02 -0.93386787110E+03  0.94616887285E+03  0.77000000000E+02 0.  0.
<mgrwt>
<rscale>  0 0.30475559E+03</rscale>
<asrwt>0</asrwt>
<pdfrwt beam="1">  1        2 0.28668673E+00 0.30475559E+03</pdfrwt>
<pdfrwt beam="2">  1       -2 0.16528738E-02 0.30475559E+03</pdfrwt>
<totfact> 0.89843884E+03</totfact>
</mgrwt>
</event>
<event>
 4    1  0.1300812E-003  0.3825431E+03  0.7818608E-02  0.1049998E+00
         -2   -1    0    0    0  501 -0.00000000000E+00  0.00000000000E+00  0.11397522741E+03  0.11397522744E+03  0.25500000000E-02 0. -1.
          2   -1    0    0  501    0  0.00000000000E+00 -0.00000000000E+00 -0.32098904349E+03  0.32098904350E+03  0.25500000000E-02 0.  1.
    5000001    1    1    2    0    0  0.15297495476E+03  0.81741326483E+02 -0.13072023115E+03  0.23043385183E+03  0.77000000000E+02 0.  0.
   -5000001    1    1    2    0    0 -0.15297495476E+03 -0.81741326483E+02 -0.76293584936E+02  0.20453041911E+03  0.77000000000E+02 0.  0.
<mgrwt>
<rscale>  0 0.38254307E+03</rscale>
<asrwt>0</asrwt>
<pdfrwt beam="1">  1        2 0.45855577E-01 0.38254307E+03</pdfrwt>
<pdfrwt beam="2">  1       -2 0.16282175E-01 0.38254307E+03</pdfrwt>
<totfact> 0.33059246E+03</totfact>
</mgrwt>
</event>
<event>
 4    1  0.1300812E-003  0.4399999E+03  0.7818608E-02  0.1030747E+00
         -2   -1    0    0    0  501 -0.00000000000E+00  0.00000000000E+00  0.66492317583E+02  0.66492317632E+02  0.25500000000E-02 0. -1.
          2   -1    0    0  501    0  0.00000000000E+00 -0.00000000000E+00 -0.72790314350E+03  0.72790314351E+03  0.25500000000E-02 0.  1.
    5000001    1    1    2    0    0 -0.17729946099E+03  0.59103073430E+01 -0.52007012543E+03  0.55486211437E+03  0.77000000000E+02 0.  0.
   -5000001    1    1    2    0    0  0.17729946099E+03 -0.59103073430E+01 -0.14134070049E+03  0.23953334677E+03  0.77000000000E+02 0.  0.
<mgrwt>
<rscale>  0 0.43999985E+03</rscale>
<asrwt>0</asrwt>
<pdfrwt beam="1">  1        2 0.10398616E+00 0.43999985E+03</pdfrwt>
<pdfrwt beam="2">  1       -2 0.94989030E-02 0.43999985E+03</pdfrwt>
<totfact> 0.31749132E+03</totfact>
</mgrwt>
</event>
<event>
 4    1  0.1300812E-003  0.2115545E+03  0.7818608E-02  0.1140341E+00
          2   -1    0    0  501    0  0.00000000000E+00  0.00000000000E+00  0.29914628633E+03  0.29914628634E+03  0.25500000000E-02 0.  1.
         -2   -1    0    0    0  501 -0.00000000000E+00 -0.00000000000E+00 -0.37402523403E+02  0.37402523490E+02  0.25500000000E-02 0. -1.
    5000001    1    1    2    0    0 -0.61243834790E+02 -0.38805279437E+02  0.13370383127E+03  0.17047689436E+03  0.77000000000E+02 0.  0.
   -5000001    1    1    2    0    0  0.61243834790E+02  0.38805279437E+02  0.12803993166E+03  0.16607191548E+03  0.77000000000E+02 0.  0.
<mgrwt>
<rscale>  0 0.21155449E+03</rscale>
<asrwt>0</asrwt>
<pdfrwt beam="1">  1        2 0.42735184E-01 0.21155449E+03</pdfrwt>
<pdfrwt beam="2">  1       -2 0.53432176E-02 0.21155449E+03</pdfrwt>
<totfact> 0.20410463E+04</totfact>
</mgrwt>
</event>
<event>
 4    1  0.1300812E-003  0.2438750E+03  0.7818608E-02  0.1117238E+00
         -2   -1    0    0    0  501 -0.00000000000E+00  0.00000000000E+00  0.51806135528E+01  0.51806141804E+01  0.25500000000E-02 0. -1.
          2   -1    0    0  501    0  0.00000000000E+00 -0.00000000000E+00 -0.28700768315E+04  0.28700768315E+04  0.25500000000E-02 0.  1.
    5000001    1    1    2    0    0 -0.80561935800E+02 -0.39853794095E+02 -0.10864579420E+04  0.10928853600E+04  0.77000000000E+02 0.  0.
   -5000001    1    1    2    0    0  0.80561935800E+02  0.39853794095E+02 -0.17784382759E+04  0.17823720857E+04  0.77000000000E+02 0.  0.
<mgrwt>
<rscale>  0 0.24387505E+03</rscale>
<asrwt>0</asrwt>
<pdfrwt beam="1">  1        2 0.41000996E+00 0.24387505E+03</pdfrwt>
<pdfrwt beam="2">  1       -2 0.74008953E-03 0.24387505E+03</pdfrwt>
<totfact> 0.10709371E+04</totfact>
</mgrwt>
</event>
<event>
 4    1  0.1300812E-003  0.1947197E+03  0.7818608E-02  0.1154272E+00
         -2   -1    0    0    0  501 -0.00000000000E+00  0.00000000000E+00  0.87160075481E+01  0.87160079211E+01  0.25500000000E-02 0. -1.
          2   -1    0    0  501    0  0.00000000000E+00 -0.00000000000E+00 -0.10875325631E+04  0.10875325631E+04  0.25500000000E-02 0.  1.
    5000001    1    1    2    0    0  0.23724338975E+02 -0.54632521896E+02 -0.53071284443E+03  0.53956712274E+03  0.77000000000E+02 0.  0.
   -5000001    1    1    2    0    0 -0.23724338975E+02  0.54632521896E+02 -0.54810371115E+03  0.55668144830E+03  0.77000000000E+02 0.  0.
<mgrwt>
<rscale>  0 0.19471972E+03</rscale>
<asrwt>0</asrwt>
<pdfrwt beam="1">  1        2 0.15536171E+00 0.19471972E+03</pdfrwt>
<pdfrwt beam="2">  1       -2 0.12451447E-02 0.19471972E+03</pdfrwt>
<totfact> 0.39035136E+04</totfact>
</mgrwt>
</event>
<event>
 4    1  0.1300812E-003  0.3821497E+03  0.7818608E-02  0.1050142E+00
          2   -1    0    0  501    0  0.00000000000E+00  0.00000000000E+00  0.15133126395E+04  0.15133126395E+04  0.25500000000E-02 0.  1.
         -2   -1    0    0    0  501 -0.00000000000E+00 -0.00000000000E+00 -0.24125618833E+02  0.24125618968E+02  0.25500000000E-02 0. -1.
    5000001    1    1    2    0    0  0.42109884842E+02  0.73576512785E+02  0.12925364040E+03  0.17269119605E+03  0.77000000000E+02 0.  0.
   -5000001    1    1    2    0    0 -0.42109884842E+02 -0.73576512785E+02  0.13599333803E+04  0.13647470625E+04  0.77000000000E+02 0.  0.
<mgrwt>
<rscale>  0 0.38214973E+03</rscale>
<asrwt>0</asrwt>
<pdfrwt beam="1">  1        2 0.21618752E+00 0.38214973E+03</pdfrwt>
<pdfrwt beam="2">  1       -2 0.34465170E-02 0.38214973E+03</pdfrwt>
<totfact> 0.53034475E+03</totfact>
</mgrwt>
</event>
<event>
 4    1  0.1300812E-003  0.2724419E+03  0.7818608E-02  0.1099890E+00
          2   -1    0    0  501    0  0.00000000000E+00  0.00000000000E+00  0.18858321476E+03  0.18858321477E+03  0.25500000000E-02 0.  1.
         -2   -1    0    0    0  501 -0.00000000000E+00 -0.00000000000E+00 -0.98397659097E+02  0.98397659130E+02  0.25500000000E-02 0. -1.
    5000001    1    1    2    0    0 -0.37932021685E+02  0.74226897383E+02  0.12447122791E+03  0.16843561720E+03  0.77000000000E+02 0.  0.
   -5000001    1    1    2    0    0  0.37932021685E+02 -0.74226897383E+02 -0.34285672254E+02  0.11854525670E+03  0.77000000000E+02 0.  0.
<mgrwt>
<rscale>  0 0.27244190E+03</rscale>
<asrwt>0</asrwt>
<pdfrwt beam="1">  1        2 0.26940459E-01 0.27244190E+03</pdfrwt>
<pdfrwt beam="2">  1       -2 0.14056809E-01 0.27244190E+03</pdfrwt>
<totfact> 0.74719199E+03</totfact>
</mgrwt>
</event>
<event>
 4    1  0.1300812E-003  0.1949153E+03  0.7818608E-02  0.1154101E+00
         -2   -1    0    0    0  501 -0.00000000000E+00  0.00000000000E+00  0.14066682730E+03  0.14066682732E+03  0.25500000000E-02 0. -1.
          2   -1    0    0  501    0  0.00000000000E+00 -0.00000000000E+00 -0.67521228118E+02  0.67521228166E+02  0.25500000000E-02 0.  1.
    5000001    1    1    2    0    0 -0.50318083154E+02  0.10603272206E+02  0.40939691283E+01  0.92682789432E+02  0.77000000000E+02 0.  0.
   -5000001    1    1    2    0    0  0.50318083154E+02 -0.10603272206E+02  0.69051630054E+02  0.11550526606E+03  0.77000000000E+02 0.  0.
<mgrwt>
<rscale>  0 0.19491533E+03</rscale>
<asrwt>0</asrwt>
<pdfrwt beam="1">  1        2 0.96458897E-02 0.19491533E+03</pdfrwt>
<pdfrwt beam="2">  1       -2 0.20095261E-01 0.19491533E+03</pdfrwt>
<totfact> 0.13460258E+04</totfact>
</mgrwt>
</event>
<event>
 4    1  0.1300812E-003  0.2105533E+03  0.7818608E-02  0.1141129E+00
         -2   -1    0    0    0  501 -0.00000000000E+00  0.00000000000E+00  0.13033134291E+02  0.13033134541E+02  0.25500000000E-02 0. -1.
          2   -1    0    0  501    0  0.00000000000E+00 -0.00000000000E+00 -0.85038411613E+03  0.85038411614E+03  0.25500000000E-02 0.  1.
    5000001    1    1    2    0    0 -0.68708762581E+02  0.32047101172E+01 -0.33433577732E+03  0.34991509859E+03  0.77000000000E+02 0.  0.
   -5000001    1    1    2    0    0  0.68708762581E+02 -0.32047101172E+01 -0.50301520452E+03  0.51350215209E+03  0.77000000000E+02 0.  0.
<mgrwt>
<rscale>  0 0.21055328E+03</rscale>
<asrwt>0</asrwt>
<pdfrwt beam="1">  1        2 0.12148341E+00 0.21055328E+03</pdfrwt>
<pdfrwt beam="2">  1       -2 0.18618769E-02 0.21055328E+03</pdfrwt>
<totfact> 0.30291372E+04</totfact>
</mgrwt>
</event>
<event>
 4    1  0.1300812E-003  0.6203134E+03  0.7818608E-02  0.9864136E-01
          2   -1    0    0  501    0  0.00000000000E+00  0.00000000000E+00  0.97880019344E+03  0.97880019344E+03  0.25500000000E-02 0.  1.
         -2   -1    0    0    0  501 -0.00000000000E+00 -0.00000000000E+00 -0.98280723060E+02  0.98280723093E+02  0.25500000000E-02 0. -1.
    5000001    1    1    2    0    0  0.49017946554E+01  0.30012116355E+03  0.46299533120E+03  0.55712693088E+03  0.77000000000E+02 0.  0.
   -5000001    1    1    2    0    0 -0.49017946554E+01 -0.30012116355E+03  0.41752413918E+03  0.51995398565E+03  0.77000000000E+02 0.  0.
<mgrwt>
<rscale>  0 0.62031344E+03</rscale>
<asrwt>0</asrwt>
<pdfrwt beam="1">  1        2 0.13982860E+00 0.62031344E+03</pdfrwt>
<pdfrwt beam="2">  1       -2 0.14040103E-01 0.62031344E+03</pdfrwt>
<totfact> 0.11391128E+03</totfact>
</mgrwt>
</event>
<event>
 4    1  0.1300812E-003  0.2251712E+03  0.7818608E-02  0.1130085E+00
          2   -1    0    0  501    0  0.00000000000E+00  0.00000000000E+00  0.33901690338E+03  0.33901690339E+03  0.25500000000E-02 0.  1.
         -2   -1    0    0    0  501 -0.00000000000E+00 -0.00000000000E+00 -0.37389054429E+02  0.37389054516E+02  0.25500000000E-02 0. -1.
    5000001    1    1    2    0    0 -0.19379340380E+02 -0.71129823816E+02  0.90275723392E+02  0.13969150620E+03  0.77000000000E+02 0.  0.
   -5000001    1    1    2    0    0  0.19379340380E+02  0.71129823816E+02  0.21135212556E+03  0.23671445171E+03  0.77000000000E+02 0.  0.
<mgrwt>
<rscale>  0 0.22517124E+03</rscale>
<asrwt>0</asrwt>
<pdfrwt beam="1">  1        2 0.48430985E-01 0.22517124E+03</pdfrwt>
<pdfrwt beam="2">  1       -2 0.53412936E-02 0.22517124E+03</pdfrwt>
<totfact> 0.17937911E+04</totfact>
</mgrwt>
</event>
<event>
 4    1  0.1300812E-003  0.2739763E+03  0.7818608E-02  0.1099025E+00
          2   -1    0    0  501    0  0.00000000000E+00  0.00000000000E+00  0.13148209537E+04  0.13148209537E+04  0.25500000000E-02 0.  1.
         -2   -1    0    0    0  501 -0.00000000000E+00 -0.00000000000E+00 -0.14272473790E+02  0.14272474018E+02  0.25500000000E-02 0. -1.
    5000001    1    1    2    0    0 -0.10892293191E+03 -0.22251372123E+02  0.54427750913E+03  0.56082647548E+03  0.77000000000E+02 0.  0.
   -5000001    1    1    2    0    0  0.10892293191E+03  0.22251372123E+02  0.75627097078E+03  0.76826695224E+03  0.77000000000E+02 0.  0.
<mgrwt>
<rscale>  0 0.27397626E+03</rscale>
<asrwt>0</asrwt>
<pdfrwt beam="1">  1        2 0.18783158E+00 0.27397626E+03</pdfrwt>
<pdfrwt beam="2">  1       -2 0.20389247E-02 0.27397626E+03</pdfrwt>
<totfact> 0.14591493E+04</totfact>
</mgrwt>
</event>
<event>
 4    1  0.1300812E-003  0.2031378E+03  0.7818608E-02  0.1147118E+00
          2   -1    0    0  501    0  0.00000000000E+00  0.00000000000E+00  0.11161029558E+04  0.11161029558E+04  0.25500000000E-02 0.  1.
         -2   -1    0    0    0  501 -0.00000000000E+00 -0.00000000000E+00 -0.92430923600E+01  0.92430927118E+01  0.25500000000E-02 0. -1.
    5000001    1    1    2    0    0  0.15886364958E+02 -0.62332116028E+02  0.46591248133E+03  0.47659323279E+03  0.77000000000E+02 0.  0.
   -5000001    1    1    2    0    0 -0.15886364958E+02  0.62332116028E+02  0.64094738213E+03  0.64875281575E+03  0.77000000000E+02 0.  0.
<mgrwt>
<rscale>  0 0.20313781E+03</rscale>
<asrwt>0</asrwt>
<pdfrwt beam="1">  1        2 0.15944327E+00 0.20313781E+03</pdfrwt>
<pdfrwt beam="2">  1       -2 0.13204419E-02 0.20313781E+03</pdfrwt>
<totfact> 0.34668105E+04</totfact>
</mgrwt>
</event>
<event>
 4    1  0.1300812E-003  0.2212346E+03  0.7818608E-02  0.1132966E+00
         -2   -1    0    0    0  501 -0.00000000000E+00  0.00000000000E+00  0.21060368680E+03  0.21060368681E+03  0.25500000000E-02 0. -1.
          2   -1    0    0  501    0  0.00000000000E+00 -0.00000000000E+00 -0.58100536776E+02  0.58100536832E+02  0.25500000000E-02 0.  1.
    5000001    1    1    2    0    0  0.67766808677E+02  0.19250298759E+02  0.12078285326E+03  0.15962585005E+03  0.77000000000E+02 0.  0.
   -5000001    1    1    2    0    0 -0.67766808677E+02 -0.19250298759E+02  0.31720296759E+02  0.10907837360E+03  0.77000000000E+02 0.  0.
<mgrwt>
<rscale>  0 0.22123460E+03</rscale>
<asrwt>0</asrwt>
<pdfrwt beam="1">  1        2 0.83000765E-02 0.22123460E+03</pdfrwt>
<pdfrwt beam="2">  1       -2 0.30086241E-01 0.22123460E+03</pdfrwt>
<totfact> 0.80686824E+03</totfact>
</mgrwt>
</event>
<event>
 4    1  0.1300812E-003  0.2828998E+03  0.7818608E-02  0.1094116E+00
         -2   -1    0    0    0  501 -0.00000000000E+00  0.00000000000E+00  0.25467864678E+02  0.25467864805E+02  0.25500000000E-02 0. -1.
          2   -1    0    0  501    0  0.00000000000E+00 -0.00000000000E+00 -0.78562027768E+03  0.78562027769E+03  0.25500000000E-02 0.  1.
    5000001    1    1    2    0    0 -0.66336055363E+02 -0.94848147908E+02 -0.30517932602E+03  0.33535065891E+03  0.77000000000E+02 0.  0.
   -5000001    1    1    2    0    0  0.66336055363E+02  0.94848147908E+02 -0.45497308698E+03  0.47573748358E+03  0.77000000000E+02 0.  0.
<mgrwt>
<rscale>  0 0.28289978E+03</rscale>
<asrwt>0</asrwt>
<pdfrwt beam="1">  1        2 0.11223145E+00 0.28289978E+03</pdfrwt>
<pdfrwt beam="2">  1       -2 0.36382669E-02 0.28289978E+03</pdfrwt>
<totfact> 0.12608560E+04</totfact>
</mgrwt>
</event>
<event>
 4    1  0.1300812E-003  0.1901575E+03  0.7818608E-02  0.1158319E+00
         -2   -1    0    0    0  501 -0.00000000000E+00  0.00000000000E+00  0.12162883068E+02  0.12162883336E+02  0.25500000000E-02 0. -1.
          2   -1    0    0  501    0  0.00000000000E+00 -0.00000000000E+00 -0.74324232992E+03  0.74324232992E+03  0.25500000000E-02 0.  1.
    5000001    1    1    2    0    0  0.18739086792E+02  0.49286981977E+02 -0.29330861443E+03  0.30779750367E+03  0.77000000000E+02 0.  0.
   -5000001    1    1    2    0    0 -0.18739086792E+02 -0.49286981977E+02 -0.43777083242E+03  0.44760770959E+03  0.77000000000E+02 0.  0.
<mgrwt>
<rscale>  0 0.19015751E+03</rscale>
<asrwt>0</asrwt>
<pdfrwt beam="1">  1        2 0.10617745E+00 0.19015751E+03</pdfrwt>
<pdfrwt beam="2">  1       -2 0.17375552E-02 0.19015751E+03</pdfrwt>
<totfact> 0.39206961E+04</totfact>
</mgrwt>
</event>
<event>
 4    1  0.1300812E-003  0.1833656E+03  0.7818608E-02  0.1164585E+00
          2   -1    0    0  501    0  0.00000000000E+00  0.00000000000E+00  0.58850359022E+03  0.58850359022E+03  0.25500000000E-02 0.  1.
         -2   -1    0    0    0  501 -0.00000000000E+00 -0.00000000000E+00 -0.14283228913E+02  0.14283229140E+02  0.25500000000E-02 0. -1.
    5000001    1    1    2    0    0  0.20367622114E+02 -0.29209333545E+02  0.40139969795E+03  0.41026667268E+03  0.77000000000E+02 0.  0.
   -5000001    1    1    2    0    0 -0.20367622114E+02  0.29209333545E+02  0.17282066335E+03  0.19252014668E+03  0.77000000000E+02 0.  0.
<mgrwt>
<rscale>  0 0.18336555E+03</rscale>
<asrwt>0</asrwt>
<pdfrwt beam="1">  1        2 0.84071938E-01 0.18336555E+03</pdfrwt>
<pdfrwt beam="2">  1       -2 0.20404614E-02 0.18336555E+03</pdfrwt>
<totfact> 0.40510609E+04</totfact>
</mgrwt>
</event>
<event>
 4    1  0.1300812E-003  0.3530721E+03  0.7818608E-02  0.1061361E+00
          2   -1    0    0  501    0  0.00000000000E+00  0.00000000000E+00  0.31810850925E+03  0.31810850926E+03  0.25500000000E-02 0.  1.
         -2   -1    0    0    0  501 -0.00000000000E+00 -0.00000000000E+00 -0.97969648843E+02  0.97969648876E+02  0.25500000000E-02 0. -1.
    5000001    1    1    2    0    0  0.31430116320E+02 -0.13842644794E+03  0.26024764813E+02  0.16357268135E+03  0.77000000000E+02 0.  0.
   -5000001    1    1    2    0    0 -0.31430116320E+02  0.13842644794E+03  0.19411409560E+03  0.25250547679E+03  0.77000000000E+02 0.  0.
<mgrwt>
<rscale>  0 0.35307211E+03</rscale>
<asrwt>0</asrwt>
<pdfrwt beam="1">  1        2 0.45444072E-01 0.35307211E+03</pdfrwt>
<pdfrwt beam="2">  1       -2 0.13995664E-01 0.35307211E+03</pdfrwt>
<totfact> 0.42876991E+03</totfact>
</mgrwt>
</event>
<event>
 4    1  0.1300812E-003  0.6756032E+03  0.7818608E-02  0.9759888E-01
          2   -1    0    0  501    0  0.00000000000E+00  0.00000000000E+00  0.15065645619E+04  0.15065645619E+04  0.25500000000E-02 0.  1.
         -2   -1    0    0    0  501 -0.00000000000E+00 -0.00000000000E+00 -0.75741805447E+02  0.75741805490E+02  0.25500000000E-02 0. -1.
    5000001    1    1    2    0    0 -0.93544454923E+02  0.28696003103E+03  0.40928735158E+03  0.51433623304E+03  0.77000000000E+02 0.  0.
   -5000001    1    1    2    0    0  0.93544454923E+02 -0.28696003103E+03  0.10215354049E+04  0.10679701344E+04  0.77000000000E+02 0.  0.
<mgrwt>
<rscale>  0 0.67560320E+03</rscale>
<asrwt>0</asrwt>
<pdfrwt beam="1">  1        2 0.21522350E+00 0.67560320E+03</pdfrwt>
<pdfrwt beam="2">  1       -2 0.10820258E-01 0.67560320E+03</pdfrwt>
<totfact> 0.88621319E+02</totfact>
</mgrwt>
</event>
<event>
 4    1  0.1300812E-003  0.1660559E+03  0.7818608E-02  0.1182025E+00
         -2   -1    0    0    0  501 -0.00000000000E+00  0.00000000000E+00  0.78319658764E+02  0.78319658806E+02  0.25500000000E-02 0. -1.
          2   -1    0    0  501    0  0.00000000000E+00 -0.00000000000E+00 -0.88019236130E+02  0.88019236167E+02  0.25500000000E-02 0.  1.
    5000001    1    1    2    0    0 -0.42806299155E+01  0.22546895540E+02 -0.25812720245E+02  0.84391840941E+02  0.77000000000E+02 0.  0.
   -5000001    1    1    2    0    0  0.42806299155E+01 -0.22546895540E+02  0.16113142880E+02  0.81947054031E+02  0.77000000000E+02 0.  0.
<mgrwt>
<rscale>  0 0.16605585E+03</rscale>
<asrwt>0</asrwt>
<pdfrwt beam="1">  1        2 0.12574177E-01 0.16605585E+03</pdfrwt>
<pdfrwt beam="2">  1       -2 0.11188523E-01 0.16605585E+03</pdfrwt>
<totfact> 0.25152144E+04</totfact>
</mgrwt>
</event>
<event>
 4    1  0.1300812E-003  0.2126350E+03  0.7818608E-02  0.1139496E+00
          2   -1    0    0  501    0  0.00000000000E+00  0.00000000000E+00  0.97630792017E+03  0.97630792018E+03  0.25500000000E-02 0.  1.
         -2   -1    0    0    0  501 -0.00000000000E+00 -0.00000000000E+00 -0.11577705890E+02  0.11577706171E+02  0.25500000000E-02 0. -1.
    5000001    1    1    2    0    0  0.44681197531E+02 -0.49969856513E+02  0.34446568211E+03  0.35927566314E+03  0.77000000000E+02 0.  0.
   -5000001    1    1    2    0    0 -0.44681197531E+02  0.49969856513E+02  0.62026453217E+03  0.62860996321E+03  0.77000000000E+02 0.  0.
<mgrwt>
<rscale>  0 0.21263496E+03</rscale>
<asrwt>0</asrwt>
<pdfrwt beam="1">  1        2 0.13947256E+00 0.21263496E+03</pdfrwt>
<pdfrwt beam="2">  1       -2 0.16539580E-02 0.21263496E+03</pdfrwt>
<totfact> 0.30137811E+04</totfact>
</mgrwt>
</event>
<event>
 4    1  0.1300812E-003  0.2200821E+03  0.7818608E-02  0.1133822E+00
          2   -1    0    0  501    0  0.00000000000E+00  0.00000000000E+00  0.32881047799E+03  0.32881047800E+03  0.25500000000E-02 0.  1.
         -2   -1    0    0    0  501 -0.00000000000E+00 -0.00000000000E+00 -0.36826794812E+02  0.36826794900E+02  0.25500000000E-02 0. -1.
    5000001    1    1    2    0    0 -0.46546072720E+02  0.62637206365E+02  0.13022376568E+03  0.17022686525E+03  0.77000000000E+02 0.  0.
   -5000001    1    1    2    0    0  0.46546072720E+02 -0.62637206365E+02  0.16175991750E+03  0.19541040765E+03  0.77000000000E+02 0.  0.
<mgrwt>
<rscale>  0 0.22008213E+03</rscale>
<asrwt>0</asrwt>
<pdfrwt beam="1">  1        2 0.46972927E-01 0.22008213E+03</pdfrwt>
<pdfrwt beam="2">  1       -2 0.52609705E-02 0.22008213E+03</pdfrwt>
<totfact> 0.18937539E+04</totfact>
</mgrwt>
</event>
<event>
 4    1  0.1300812E-003  0.1988640E+03  0.7818608E-02  0.1150701E+00
          2   -1    0    0  501    0  0.00000000000E+00  0.00000000000E+00  0.12565370170E+04  0.12565370170E+04  0.25500000000E-02 0.  1.
         -2   -1    0    0    0  501 -0.00000000000E+00 -0.00000000000E+00 -0.78682324221E+01  0.78682328353E+01  0.25500000000E-02 0. -1.
    5000001    1    1    2    0    0  0.18384138494E+02  0.59826481217E+02  0.66481789901E+03  0.67218228425E+03  0.77000000000E+02 0.  0.
   -5000001    1    1    2    0    0 -0.18384138494E+02 -0.59826481217E+02  0.58385088560E+03  0.59222296563E+03  0.77000000000E+02 0.  0.
<mgrwt>
<rscale>  0 0.19886403E+03</rscale>
<asrwt>0</asrwt>
<pdfrwt beam="1">  1        2 0.17950489E+00 0.19886403E+03</pdfrwt>
<pdfrwt beam="2">  1       -2 0.11240357E-02 0.19886403E+03</pdfrwt>
<totfact> 0.36702633E+04</totfact>
</mgrwt>
</event>
<event>
 4    1  0.1300812E-003  0.4642350E+03  0.7818608E-02  0.1023560E+00
         -2   -1    0    0    0  501 -0.00000000000E+00  0.00000000000E+00  0.70717954372E+02  0.70717954418E+02  0.25500000000E-02 0. -1.
          2   -1    0    0  501    0  0.00000000000E+00 -0.00000000000E+00 -0.76187905507E+03  0.76187905508E+03  0.25500000000E-02 0.  1.
    5000001    1    1    2    0    0 -0.90025045927E+02  0.12449095244E+03 -0.62542707267E+03  0.64860660601E+03  0.77000000000E+02 0.  0.
   -5000001    1    1    2    0    0  0.90025045927E+02 -0.12449095244E+03 -0.65734028034E+02  0.18399040349E+03  0.77000000000E+02 0.  0.
<mgrwt>
<rscale>  0 0.46423498E+03</rscale>
<asrwt>0</asrwt>
<pdfrwt beam="1">  1        2 0.10883986E+00 0.46423498E+03</pdfrwt>
<pdfrwt beam="2">  1       -2 0.10102565E-01 0.46423498E+03</pdfrwt>
<totfact> 0.27193664E+03</totfact>
</mgrwt>
</event>
<event>
 4    1  0.1300812E-003  0.1992551E+03  0.7818608E-02  0.1150369E+00
          2   -1    0    0  501    0  0.00000000000E+00  0.00000000000E+00  0.17639956911E+04  0.17639956911E+04  0.25500000000E-02 0.  1.
         -2   -1    0    0    0  501 -0.00000000000E+00 -0.00000000000E+00 -0.56267971033E+01  0.56267976811E+01  0.25500000000E-02 0. -1.
    5000001    1    1    2    0    0 -0.32711092185E+02 -0.23368885283E+02  0.44586547965E+03  0.45424789080E+03  0.77000000000E+02 0.  0.
   -5000001    1    1    2    0    0  0.32711092185E+02  0.23368885283E+02  0.13125034143E+04  0.13153745980E+04  0.77000000000E+02 0.  0.
<mgrwt>
<rscale>  0 0.19925508E+03</rscale>
<asrwt>0</asrwt>
<pdfrwt beam="1">  1        2 0.25199954E+00 0.19925508E+03</pdfrwt>
<pdfrwt beam="2">  1       -2 0.80382771E-03 0.19925508E+03</pdfrwt>
<totfact> 0.33141640E+04</totfact>
</mgrwt>
</event>
<event>
 4    1  0.1300812E-003  0.5942112E+03  0.7818608E-02  0.9917489E-01
         -2   -1    0    0    0  501 -0.00000000000E+00  0.00000000000E+00  0.10706438346E+03  0.10706438349E+03  0.25500000000E-02 0. -1.
          2   -1    0    0  501    0  0.00000000000E+00 -0.00000000000E+00 -0.82447348898E+03  0.82447348898E+03  0.25500000000E-02 0.  1.
    5000001    1    1    2    0    0  0.27247608989E+03 -0.88596220861E+02 -0.33390553659E+03  0.44667036759E+03  0.77000000000E+02 0.  0.
   -5000001    1    1    2    0    0 -0.27247608989E+03  0.88596220861E+02 -0.38350356893E+03  0.48486750489E+03  0.77000000000E+02 0.  0.
<mgrwt>
<rscale>  0 0.59421123E+03</rscale>
<asrwt>0</asrwt>
<pdfrwt beam="1">  1        2 0.11778192E+00 0.59421123E+03</pdfrwt>
<pdfrwt beam="2">  1       -2 0.15294912E-01 0.59421123E+03</pdfrwt>
<totfact> 0.12419122E+03</totfact>
</mgrwt>
</event>
<event>
 4    1  0.1300812E-003  0.2259514E+03  0.7818608E-02  0.1129522E+00
          2   -1    0    0  501    0  0.00000000000E+00  0.00000000000E+00  0.19811985387E+04  0.19811985387E+04  0.25500000000E-02 0.  1.
         -2   -1    0    0    0  501 -0.00000000000E+00 -0.00000000000E+00 -0.64423143999E+01  0.64423149046E+01  0.25500000000E-02 0. -1.
    5000001    1    1    2    0    0  0.23278094791E+02 -0.67961712888E+02  0.62747967716E+03  0.63625498770E+03  0.77000000000E+02 0.  0.
   -5000001    1    1    2    0    0 -0.23278094791E+02  0.67961712888E+02  0.13472765471E+04  0.13513858659E+04  0.77000000000E+02 0.  0.
<mgrwt>
<rscale>  0 0.22595136E+03</rscale>
<asrwt>0</asrwt>
<pdfrwt beam="1">  1        2 0.28302874E+00 0.22595136E+03</pdfrwt>
<pdfrwt beam="2">  1       -2 0.92032943E-03 0.22595136E+03</pdfrwt>
<totfact> 0.21535341E+04</totfact>
</mgrwt>
</event>
<event>
 4    1  0.1300812E-003  0.3240887E+03  0.7818608E-02  0.1073783E+00
         -2   -1    0    0    0  501 -0.00000000000E+00  0.00000000000E+00  0.13828445165E+02  0.13828445400E+02  0.25500000000E-02 0. -1.
          2   -1    0    0  501    0  0.00000000000E+00 -0.00000000000E+00 -0.18988666013E+04  0.18988666013E+04  0.25500000000E-02 0.  1.
    5000001    1    1    2    0    0  0.13132114886E+03  0.30797506698E+02 -0.66978080076E+03  0.68755294460E+03  0.77000000000E+02 0.  0.
   -5000001    1    1    2    0    0 -0.13132114886E+03 -0.30797506698E+02 -0.12152573554E+04  0.12251421021E+04  0.77000000000E+02 0.  0.
<mgrwt>
<rscale>  0 0.32408871E+03</rscale>
<asrwt>0</asrwt>
<pdfrwt beam="1">  1        2 0.27126649E+00 0.32408871E+03</pdfrwt>
<pdfrwt beam="2">  1       -2 0.19754934E-02 0.32408871E+03</pdfrwt>
<totfact> 0.78079728E+03</totfact>
</mgrwt>
</event>
<event>
 4    1  0.1300812E-003  0.2407775E+03  0.7818608E-02  0.1119276E+00
          2   -1    0    0  501    0  0.00000000000E+00  0.00000000000E+00  0.37938026277E+02  0.37938026363E+02  0.25500000000E-02 0.  1.
         -2   -1    0    0    0  501 -0.00000000000E+00 -0.00000000000E+00 -0.38202978685E+03  0.38202978686E+03  0.25500000000E-02 0. -1.
    5000001    1    1    2    0    0  0.82375113451E+02  0.97375911485E+01 -0.24362197432E+03  0.26862826800E+03  0.77000000000E+02 0.  0.
   -5000001    1    1    2    0    0 -0.82375113451E+02 -0.97375911485E+01 -0.10046978625E+03  0.15133954522E+03  0.77000000000E+02 0.  0.
<mgrwt>
<rscale>  0 0.24077754E+03</rscale>
<asrwt>0</asrwt>
<pdfrwt beam="1">  1        2 0.54197183E-02 0.24077754E+03</pdfrwt>
<pdfrwt beam="2">  1       -2 0.54575682E-01 0.24077754E+03</pdfrwt>
<totfact> 0.44899587E+03</totfact>
</mgrwt>
</event>
<event>
 4    1  0.1300812E-003  0.2843829E+03  0.7818608E-02  0.1093319E+00
          2   -1    0    0  501    0  0.00000000000E+00  0.00000000000E+00  0.23890262687E+03  0.23890262688E+03  0.25500000000E-02 0.  1.
         -2   -1    0    0    0  501 -0.00000000000E+00 -0.00000000000E+00 -0.84630354169E+02  0.84630354208E+02  0.25500000000E-02 0. -1.
    5000001    1    1    2    0    0 -0.86154667036E+02 -0.64980553295E+02  0.18634015039E+02  0.13387055492E+03  0.77000000000E+02 0.  0.
   -5000001    1    1    2    0    0  0.86154667036E+02  0.64980553295E+02  0.13563825766E+03  0.18966242617E+03  0.77000000000E+02 0.  0.
<mgrwt>
<rscale>  0 0.28438294E+03</rscale>
<asrwt>0</asrwt>
<pdfrwt beam="1">  1        2 0.34128946E-01 0.28438294E+03</pdfrwt>
<pdfrwt beam="2">  1       -2 0.12090051E-01 0.28438294E+03</pdfrwt>
<totfact> 0.73800138E+03</totfact>
</mgrwt>
</event>
<event>
 4    1  0.1300812E-003  0.2562892E+03  0.7818608E-02  0.1109393E+00
          2   -1    0    0  501    0  0.00000000000E+00  0.00000000000E+00  0.67847734057E+03  0.67847734058E+03  0.25500000000E-02 0.  1.
         -2   -1    0    0    0  501 -0.00000000000E+00 -0.00000000000E+00 -0.24202778914E+02  0.24202779048E+02  0.25500000000E-02 0. -1.
    5000001    1    1    2    0    0 -0.94066650052E+01 -0.10194673904E+03  0.31828938937E+03  0.34310167346E+03  0.77000000000E+02 0.  0.
   -5000001    1    1    2    0    0  0.94066650052E+01  0.10194673904E+03  0.33598517229E+03  0.35957844617E+03  0.77000000000E+02 0.  0.
<mgrwt>
<rscale>  0 0.25628919E+03</rscale>
<asrwt>0</asrwt>
<pdfrwt beam="1">  1        2 0.96925351E-01 0.25628919E+03</pdfrwt>
<pdfrwt beam="2">  1       -2 0.34575393E-02 0.25628919E+03</pdfrwt>
<totfact> 0.16158615E+04</totfact>
</mgrwt>
</event>
<event>
 4    1  0.1300812E-003  0.3028706E+03  0.7818608E-02  0.1083814E+00
          2   -1    0    0  501    0  0.00000000000E+00  0.00000000000E+00  0.12191504103E+04  0.12191504103E+04  0.25500000000E-02 0.  1.
         -2   -1    0    0    0  501 -0.00000000000E+00 -0.00000000000E+00 -0.18810352700E+02  0.18810352873E+02  0.25500000000E-02 0. -1.
    5000001    1    1    2    0    0  0.82229786493E+02 -0.96924562622E+02  0.71916539484E+03  0.73435956708E+03  0.77000000000E+02 0.  0.
   -5000001    1    1    2    0    0 -0.82229786493E+02  0.96924562622E+02  0.48117466274E+03  0.50360119608E+03  0.77000000000E+02 0.  0.
<mgrwt>
<rscale>  0 0.30287059E+03</rscale>
<asrwt>0</asrwt>
<pdfrwt beam="1">  1        2 0.17416443E+00 0.30287059E+03</pdfrwt>
<pdfrwt beam="2">  1       -2 0.26871920E-02 0.30287059E+03</pdfrwt>
<totfact> 0.10939620E+04</totfact>
</mgrwt>
</event>
<event>
 4    1  0.1300812E-003  0.4805697E+03  0.7818608E-02  0.1018979E+00
         -2   -1    0    0    0  501 -0.00000000000E+00  0.00000000000E+00  0.96329877569E+02  0.96329877602E+02  0.25500000000E-02 0. -1.
          2   -1    0    0  501    0  0.00000000000E+00 -0.00000000000E+00 -0.59936562497E+03  0.59936562497E+03  0.25500000000E-02 0.  1.
    5000001    1    1    2    0    0 -0.98595141651E+02 -0.20131449839E+03 -0.19435343314E+03  0.30651392496E+03  0.77000000000E+02 0.  0.
   -5000001    1    1    2    0    0  0.98595141651E+02  0.20131449839E+03 -0.30868231426E+03  0.38918157761E+03  0.77000000000E+02 0.  0.
<mgrwt>
<rscale>  0 0.48056973E+03</rscale>
<asrwt>0</asrwt>
<pdfrwt beam="1">  1        2 0.85623658E-01 0.48056973E+03</pdfrwt>
<pdfrwt beam="2">  1       -2 0.13761411E-01 0.48056973E+03</pdfrwt>
<totfact> 0.21897871E+03</totfact>
</mgrwt>
</event>
<event>
 4    1  0.1300812E-003  0.2558891E+03  0.7818608E-02  0.1109639E+00
          2   -1    0    0  501    0  0.00000000000E+00  0.00000000000E+00  0.34136815764E+03  0.34136815765E+03  0.25500000000E-02 0.  1.
         -2   -1    0    0    0  501 -0.00000000000E+00 -0.00000000000E+00 -0.47953520796E+02  0.47953520864E+02  0.25500000000E-02 0. -1.
    5000001    1    1    2    0    0 -0.75688952378E+01 -0.63318768306E+02  0.26817798084E+03  0.28620793840E+03  0.77000000000E+02 0.  0.
   -5000001    1    1    2    0    0  0.75688952378E+01  0.63318768306E+02  0.25236656008E+02  0.10311374012E+03  0.77000000000E+02 0.  0.
<mgrwt>
<rscale>  0 0.25588908E+03</rscale>
<asrwt>0</asrwt>
<pdfrwt beam="1">  1        2 0.48766881E-01 0.25588908E+03</pdfrwt>
<pdfrwt beam="2">  1       -2 0.68505028E-02 0.25588908E+03</pdfrwt>
<totfact> 0.12251091E+04</totfact>
</mgrwt>
</event>
<event>
 4    1  0.1300812E-003  0.1975934E+03  0.7818608E-02  0.1151786E+00
         -2   -1    0    0    0  501 -0.00000000000E+00  0.00000000000E+00  0.18933268044E+02  0.18933268216E+02  0.25500000000E-02 0. -1.
          2   -1    0    0  501    0  0.00000000000E+00 -0.00000000000E+00 -0.51553614704E+03  0.51553614704E+03  0.25500000000E-02 0.  1.
    5000001    1    1    2    0    0  0.39713082944E+02 -0.40072563526E+02 -0.31720170945E+03  0.33125347362E+03  0.77000000000E+02 0.  0.
   -5000001    1    1    2    0    0 -0.39713082944E+02  0.40072563526E+02 -0.17940116954E+03  0.20321594164E+03  0.77000000000E+02 0.  0.
<mgrwt>
<rscale>  0 0.19759336E+03</rscale>
<asrwt>0</asrwt>
<pdfrwt beam="1">  1        2 0.73648012E-01 0.19759336E+03</pdfrwt>
<pdfrwt beam="2">  1       -2 0.27047529E-02 0.19759336E+03</pdfrwt>
<totfact> 0.31238707E+04</totfact>
</mgrwt>
</event>
<event>
 4    1  0.1300812E-003  0.2231306E+03  0.7818608E-02  0.1131570E+00
         -2   -1    0    0    0  501 -0.00000000000E+00  0.00000000000E+00  0.24696412830E+02  0.24696412962E+02  0.25500000000E-02 0. -1.
          2   -1    0    0  501    0  0.00000000000E+00 -0.00000000000E+00 -0.50399271441E+03  0.50399271442E+03  0.25500000000E-02 0.  1.
    5000001    1    1    2    0    0 -0.59475880078E+01 -0.78882611962E+02 -0.20144453038E+03  0.22971011970E+03  0.77000000000E+02 0.  0.
   -5000001    1    1    2    0    0  0.59475880078E+01  0.78882611962E+02 -0.27785177120E+03  0.29897900768E+03  0.77000000000E+02 0.  0.
<mgrwt>
<rscale>  0 0.22313056E+03</rscale>
<asrwt>0</asrwt>
<pdfrwt beam="1">  1        2 0.71998953E-01 0.22313056E+03</pdfrwt>
<pdfrwt beam="2">  1       -2 0.35280593E-02 0.22313056E+03</pdfrwt>
<totfact> 0.21789530E+04</totfact>
</mgrwt>
</event>
<event>
 4    1  0.1300812E-003  0.2667733E+03  0.7818608E-02  0.1103141E+00
         -2   -1    0    0    0  501 -0.00000000000E+00  0.00000000000E+00  0.15653720691E+02  0.15653720899E+02  0.25500000000E-02 0. -1.
          2   -1    0    0  501    0  0.00000000000E+00 -0.00000000000E+00 -0.11365988030E+04  0.11365988030E+04  0.25500000000E-02 0.  1.
    5000001    1    1    2    0    0  0.89238401858E+02 -0.58750129737E+02 -0.65188606713E+03  0.66505602368E+03  0.77000000000E+02 0.  0.
   -5000001    1    1    2    0    0 -0.89238401858E+02  0.58750129737E+02 -0.46905901517E+03  0.48719650021E+03  0.77000000000E+02 0.  0.
<mgrwt>
<rscale>  0 0.26677331E+03</rscale>
<asrwt>0</asrwt>
<pdfrwt beam="1">  1        2 0.16237121E+00 0.26677331E+03</pdfrwt>
<pdfrwt beam="2">  1       -2 0.22362465E-02 0.26677331E+03</pdfrwt>
<totfact> 0.15868889E+04</totfact>
</mgrwt>
</event>
<event>
 4    1  0.1300812E-003  0.3523077E+03  0.7818608E-02  0.1061672E+00
         -2   -1    0    0    0  501 -0.00000000000E+00  0.00000000000E+00  0.10424685986E+03  0.10424685989E+03  0.25500000000E-02 0. -1.
          2   -1    0    0  501    0  0.00000000000E+00 -0.00000000000E+00 -0.29766057274E+03  0.29766057275E+03  0.25500000000E-02 0.  1.
    5000001    1    1    2    0    0 -0.12167468048E+03 -0.99488925421E+02 -0.73936660974E+02  0.18999579992E+03  0.77000000000E+02 0.  0.
   -5000001    1    1    2    0    0  0.12167468048E+03  0.99488925421E+02 -0.11947705190E+03  0.21191163272E+03  0.77000000000E+02 0.  0.
<mgrwt>
<rscale>  0 0.35230771E+03</rscale>
<asrwt>0</asrwt>
<pdfrwt beam="1">  1        2 0.42522939E-01 0.35230771E+03</pdfrwt>
<pdfrwt beam="2">  1       -2 0.14892409E-01 0.35230771E+03</pdfrwt>
<totfact> 0.41576761E+03</totfact>
</mgrwt>
</event>
<event>
 4    1  0.1300812E-003  0.5323739E+03  0.7818608E-02  0.1005658E+00
          2   -1    0    0  501    0  0.00000000000E+00  0.00000000000E+00  0.14195856872E+04  0.14195856872E+04  0.25500000000E-02 0.  1.
         -2   -1    0    0    0  501 -0.00000000000E+00 -0.00000000000E+00 -0.49912793484E+02  0.49912793549E+02  0.25500000000E-02 0. -1.
    5000001    1    1    2    0    0 -0.75665807579E+02 -0.23358790582E+03  0.87281632512E+03  0.90995931864E+03  0.77000000000E+02 0.  0.
   -5000001    1    1    2    0    0  0.75665807579E+02  0.23358790582E+03  0.49685656862E+03  0.55953916214E+03  0.77000000000E+02 0.  0.
<mgrwt>
<rscale>  0 0.53237388E+03</rscale>
<asrwt>0</asrwt>
<pdfrwt beam="1">  1        2 0.20279796E+00 0.53237388E+03</pdfrwt>
<pdfrwt beam="2">  1       -2 0.71303990E-02 0.53237388E+03</pdfrwt>
<totfact> 0.19323363E+03</totfact>
</mgrwt>
</event>
<event>
 4    1  0.1300812E-003  0.1824849E+03  0.7818608E-02  0.1165420E+00
          2   -1    0    0  501    0  0.00000000000E+00  0.00000000000E+00  0.69686244692E+03  0.69686244692E+03  0.25500000000E-02 0.  1.
         -2   -1    0    0    0  501 -0.00000000000E+00 -0.00000000000E+00 -0.11946664077E+02  0.11946664349E+02  0.25500000000E-02 0. -1.
    5000001    1    1    2    0    0 -0.66787926435E+01 -0.36875770720E+02  0.46477978087E+03  0.47260308235E+03  0.77000000000E+02 0.  0.
   -5000001    1    1    2    0    0  0.66787926435E+01  0.36875770720E+02  0.22013600197E+03  0.23620602893E+03  0.77000000000E+02 0.  0.
<mgrwt>
<rscale>  0 0.18248487E+03</rscale>
<asrwt>0</asrwt>
<pdfrwt beam="1">  1        2 0.99551798E-01 0.18248487E+03</pdfrwt>
<pdfrwt beam="2">  1       -2 0.17066660E-02 0.18248487E+03</pdfrwt>
<totfact> 0.43278350E+04</totfact>
</mgrwt>
</event>
<event>
 4    1  0.1300812E-003  0.3337139E+03  0.7818608E-02  0.1069505E+00
         -2   -1    0    0    0  501 -0.00000000000E+00  0.00000000000E+00  0.23710848606E+02  0.23710848743E+02  0.25500000000E-02 0. -1.
          2   -1    0    0  501    0  0.00000000000E+00 -0.00000000000E+00 -0.11741983208E+04  0.11741983208E+04  0.25500000000E-02 0.  1.
    5000001    1    1    2    0    0  0.82616007264E+02  0.86165942055E+02 -0.26102781559E+03  0.29717754750E+03  0.77000000000E+02 0.  0.
   -5000001    1    1    2    0    0 -0.82616007264E+02 -0.86165942055E+02 -0.88945965660E+03  0.90073162204E+03  0.77000000000E+02 0.  0.
<mgrwt>
<rscale>  0 0.33371388E+03</rscale>
<asrwt>0</asrwt>
<pdfrwt beam="1">  1        2 0.16774258E+00 0.33371388E+03</pdfrwt>
<pdfrwt beam="2">  1       -2 0.33872648E-02 0.33371388E+03</pdfrwt>
<totfact> 0.82090385E+03</totfact>
</mgrwt>
</event>
<event>
 4    1  0.1300812E-003  0.3042596E+03  0.7818608E-02  0.1083130E+00
         -2   -1    0    0    0  501 -0.00000000000E+00  0.00000000000E+00  0.10494487040E+02  0.10494487350E+02  0.25500000000E-02 0. -1.
          2   -1    0    0  501    0  0.00000000000E+00 -0.00000000000E+00 -0.22052982747E+04  0.22052982747E+04  0.25500000000E-02 0.  1.
    5000001    1    1    2    0    0  0.10576656999E+03  0.54477207444E+02 -0.69454056015E+03  0.70885112905E+03  0.77000000000E+02 0.  0.
   -5000001    1    1    2    0    0 -0.10576656999E+03 -0.54477207444E+02 -0.15002632275E+04  0.15069416330E+04  0.77000000000E+02 0.  0.
<mgrwt>
<rscale>  0 0.30425959E+03</rscale>
<asrwt>0</asrwt>
<pdfrwt beam="1">  1        2 0.31504232E+00 0.30425959E+03</pdfrwt>
<pdfrwt beam="2">  1       -2 0.14992139E-02 0.30425959E+03</pdfrwt>
<totfact> 0.82875291E+03</totfact>
</mgrwt>
</event>
<event>
 4    1  0.1300812E-003  0.2011107E+03  0.7818608E-02  0.1148805E+00
         -2   -1    0    0    0  501 -0.00000000000E+00  0.00000000000E+00  0.57271072106E+01  0.57271077783E+01  0.25500000000E-02 0. -1.
          2   -1    0    0  501    0  0.00000000000E+00 -0.00000000000E+00 -0.17655289694E+04  0.17655289694E+04  0.25500000000E-02 0.  1.
    5000001    1    1    2    0    0 -0.64063279618E+02 -0.88466214694E+01 -0.88067321385E+03  0.88639532721E+03  0.77000000000E+02 0.  0.
   -5000001    1    1    2    0    0  0.64063279618E+02  0.88466214694E+01 -0.87912864834E+03  0.88486074997E+03  0.77000000000E+02 0.  0.
<mgrwt>
<rscale>  0 0.20111066E+03</rscale>
<asrwt>0</asrwt>
<pdfrwt beam="1">  1        2 0.25221808E+00 0.20111066E+03</pdfrwt>
<pdfrwt beam="2">  1       -2 0.81815935E-03 0.20111066E+03</pdfrwt>
<totfact> 0.32271913E+04</totfact>
</mgrwt>
</event>
<event>
 4    1  0.1300812E-003  0.2119494E+03  0.7818608E-02  0.1140032E+00
         -2   -1    0    0    0  501 -0.00000000000E+00  0.00000000000E+00  0.20452451025E+03  0.20452451027E+03  0.25500000000E-02 0. -1.
          2   -1    0    0  501    0  0.00000000000E+00 -0.00000000000E+00 -0.54910938824E+02  0.54910938883E+02  0.25500000000E-02 0.  1.
    5000001    1    1    2    0    0  0.28102061995E+02  0.64768659737E+02  0.96597793272E+02  0.14228435908E+03  0.77000000000E+02 0.  0.
   -5000001    1    1    2    0    0 -0.28102061995E+02 -0.64768659737E+02  0.53015778156E+02  0.11715109008E+03  0.77000000000E+02 0.  0.
<mgrwt>
<rscale>  0 0.21194936E+03</rscale>
<asrwt>0</asrwt>
<pdfrwt beam="1">  1        2 0.78444198E-02 0.21194936E+03</pdfrwt>
<pdfrwt beam="2">  1       -2 0.29217787E-01 0.21194936E+03</pdfrwt>
<totfact> 0.91131507E+03</totfact>
</mgrwt>
</event>
<event>
 4    1  0.1300812E-003  0.6098034E+03  0.7818608E-02  0.9885273E-01
          2   -1    0    0  501    0  0.00000000000E+00  0.00000000000E+00  0.22951248095E+04  0.22951248095E+04  0.25500000000E-02 0.  1.
         -2   -1    0    0    0  501 -0.00000000000E+00 -0.00000000000E+00 -0.40505447692E+02  0.40505447772E+02  0.25500000000E-02 0. -1.
    5000001    1    1    2    0    0  0.99573577707E+02  0.25993794930E+03  0.75294598004E+03  0.80643616221E+03  0.77000000000E+02 0.  0.
   -5000001    1    1    2    0    0 -0.99573577707E+02 -0.25993794930E+03  0.15016733818E+04  0.15291940951E+04  0.77000000000E+02 0.  0.
<mgrwt>
<rscale>  0 0.60980344E+03</rscale>
<asrwt>0</asrwt>
<pdfrwt beam="1">  1        2 0.32787498E+00 0.60980344E+03</pdfrwt>
<pdfrwt beam="2">  1       -2 0.57864925E-02 0.60980344E+03</pdfrwt>
<totfact> 0.96130190E+02</totfact>
</mgrwt>
</event>
<event>
 4    1  0.1300812E-003  0.1938295E+03  0.7818608E-02  0.1155052E+00
         -2   -1    0    0    0  501 -0.00000000000E+00  0.00000000000E+00  0.11360327176E+03  0.11360327179E+03  0.25500000000E-02 0. -1.
          2   -1    0    0  501    0  0.00000000000E+00 -0.00000000000E+00 -0.82677838765E+02  0.82677838804E+02  0.25500000000E-02 0.  1.
    5000001    1    1    2    0    0 -0.10950807889E+02 -0.55754243684E+02 -0.61449368162E-01  0.95694616663E+02  0.77000000000E+02 0.  0.
   -5000001    1    1    2    0    0  0.10950807889E+02  0.55754243684E+02  0.30986882360E+02  0.10058649393E+03  0.77000000000E+02 0.  0.
<mgrwt>
<rscale>  0 0.19382954E+03</rscale>
<asrwt>0</asrwt>
<pdfrwt beam="1">  1        2 0.11811120E-01 0.19382954E+03</pdfrwt>
<pdfrwt beam="2">  1       -2 0.16229039E-01 0.19382954E+03</pdfrwt>
<totfact> 0.15027546E+04</totfact>
</mgrwt>
</event>
<event>
 4    1  0.1300812E-003  0.1843957E+03  0.7818608E-02  0.1163615E+00
          2   -1    0    0  501    0  0.00000000000E+00  0.00000000000E+00  0.83207729495E+02  0.83207729534E+02  0.25500000000E-02 0.  1.
         -2   -1    0    0    0  501 -0.00000000000E+00 -0.00000000000E+00 -0.10215931790E+03  0.10215931793E+03  0.25500000000E-02 0. -1.
    5000001    1    1    2    0    0  0.15561498722E+02 -0.44098302451E+02  0.10239356904E+02  0.90667882689E+02  0.77000000000E+02 0.  0.
   -5000001    1    1    2    0    0 -0.15561498722E+02  0.44098302451E+02 -0.29190945310E+02  0.94699164778E+02  0.77000000000E+02 0.  0.
<mgrwt>
<rscale>  0 0.18439571E+03</rscale>
<asrwt>0</asrwt>
<pdfrwt beam="1">  1        2 0.11886818E-01 0.18439571E+03</pdfrwt>
<pdfrwt beam="2">  1       -2 0.14594188E-01 0.18439571E+03</pdfrwt>
<totfact> 0.17691488E+04</totfact>
</mgrwt>
</event>
<event>
 4    1  0.1300812E-003  0.3768648E+03  0.7818608E-02  0.1052099E+00
          2   -1    0    0  501    0  0.00000000000E+00  0.00000000000E+00  0.61103625636E+03  0.61103625637E+03  0.25500000000E-02 0.  1.
         -2   -1    0    0    0  501 -0.00000000000E+00 -0.00000000000E+00 -0.58109109707E+02  0.58109109763E+02  0.25500000000E-02 0. -1.
    5000001    1    1    2    0    0  0.30268025967E+02 -0.13976136615E+03  0.44610492874E+03  0.47475046110E+03  0.77000000000E+02 0.  0.
   -5000001    1    1    2    0    0 -0.30268025967E+02  0.13976136615E+03  0.10682221791E+03  0.19439490503E+03  0.77000000000E+02 0.  0.
<mgrwt>
<rscale>  0 0.37686482E+03</rscale>
<asrwt>0</asrwt>
<pdfrwt beam="1">  1        2 0.87290900E-01 0.37686482E+03</pdfrwt>
<pdfrwt beam="2">  1       -2 0.83013008E-02 0.37686482E+03</pdfrwt>
<totfact> 0.48339610E+03</totfact>
</mgrwt>
</event>
<event>
 4    1  0.1300812E-003  0.2772085E+03  0.7818608E-02  0.1097223E+00
         -2   -1    0    0    0  501 -0.00000000000E+00  0.00000000000E+00  0.77216924965E+02  0.77216925007E+02  0.25500000000E-02 0. -1.
          2   -1    0    0  501    0  0.00000000000E+00 -0.00000000000E+00 -0.24879440876E+03  0.24879440877E+03  0.25500000000E-02 0.  1.
    5000001    1    1    2    0    0 -0.10266534174E+02 -0.96633653601E+02 -0.15865337553E+03  0.20135381372E+03  0.77000000000E+02 0.  0.
   -5000001    1    1    2    0    0  0.10266534174E+02  0.96633653601E+02 -0.12924108258E+02  0.12465752006E+03  0.77000000000E+02 0.  0.
<mgrwt>
<rscale>  0 0.27720851E+03</rscale>
<asrwt>0</asrwt>
<pdfrwt beam="1">  1        2 0.35542058E-01 0.27720851E+03</pdfrwt>
<pdfrwt beam="2">  1       -2 0.11030989E-01 0.27720851E+03</pdfrwt>
<totfact> 0.81764404E+03</totfact>
</mgrwt>
</event>
<event>
 4    1  0.1300812E-003  0.3831258E+03  0.7818608E-02  0.1049784E+00
          2   -1    0    0  501    0  0.00000000000E+00  0.00000000000E+00  0.14276269509E+03  0.14276269511E+03  0.25500000000E-02 0. -1.
         -2   -1    0    0    0  501 -0.00000000000E+00 -0.00000000000E+00 -0.25704440696E+03  0.25704440697E+03  0.25500000000E-02 0.  1.
    5000001    1    1    2    0    0  0.78059787144E+02 -0.15679822499E+03 -0.47332770227E+02  0.19709998698E+03  0.77000000000E+02 0.  0.
   -5000001    1    1    2    0    0 -0.78059787144E+02  0.15679822499E+03 -0.66948941645E+02  0.20270711511E+03  0.77000000000E+02 0.  0.
<mgrwt>
<rscale>  0 0.38312584E+03</rscale>
<asrwt>0</asrwt>
<pdfrwt beam="1">  1        2 0.20394671E-01 0.38312584E+03</pdfrwt>
<pdfrwt beam="2">  1       -2 0.36720630E-01 0.38312584E+03</pdfrwt>
<totfact> 0.19182325E+03</totfact>
</mgrwt>
</event>
<event>
 4    1  0.1300812E-003  0.3757507E+03  0.7818608E-02  0.1052516E+00
         -2   -1    0    0    0  501 -0.00000000000E+00  0.00000000000E+00  0.29441691403E+02  0.29441691513E+02  0.25500000000E-02 0. -1.
          2   -1    0    0  501    0  0.00000000000E+00 -0.00000000000E+00 -0.11988833048E+04  0.11988833048E+04  0.25500000000E-02 0.  1.
    5000001    1    1    2    0    0 -0.48579069257E+02 -0.16261215698E+03 -0.66245904166E+03  0.68817412146E+03  0.77000000000E+02 0.  0.
   -5000001    1    1    2    0    0  0.48579069257E+02  0.16261215698E+03 -0.50698257175E+03  0.54015087487E+03  0.77000000000E+02 0.  0.
<mgrwt>
<rscale>  0 0.37575073E+03</rscale>
<asrwt>0</asrwt>
<pdfrwt beam="1">  1        2 0.17126901E+00 0.37575073E+03</pdfrwt>
<pdfrwt beam="2">  1       -2 0.42059567E-02 0.37575073E+03</pdfrwt>
<totfact> 0.57470520E+03</totfact>
</mgrwt>
</event>
<event>
 4    1  0.1300812E-003  0.3190321E+03  0.7818608E-02  0.1076096E+00
          2   -1    0    0  501    0  0.00000000000E+00  0.00000000000E+00  0.10567795538E+04  0.10567795538E+04  0.25500000000E-02 0.  1.
         -2   -1    0    0    0  501 -0.00000000000E+00 -0.00000000000E+00 -0.24078220310E+02  0.24078220445E+02  0.25500000000E-02 0. -1.
    5000001    1    1    2    0    0  0.39491630122E+02 -0.81242146269E+02  0.87739150914E+03  0.88538394807E+03  0.77000000000E+02 0.  0.
   -5000001    1    1    2    0    0 -0.39491630122E+02  0.81242146269E+02  0.15530982431E+03  0.19547382614E+03  0.77000000000E+02 0.  0.
<mgrwt>
<rscale>  0 0.31903210E+03</rscale>
<asrwt>0</asrwt>
<pdfrwt beam="1">  1        2 0.15096852E+00 0.31903210E+03</pdfrwt>
<pdfrwt beam="2">  1       -2 0.34397455E-02 0.31903210E+03</pdfrwt>
<totfact> 0.93335644E+03</totfact>
</mgrwt>
</event>
<event>
 4    1  0.1300812E-003  0.2169314E+03  0.7818608E-02  0.1136192E+00
         -2   -1    0    0    0  501 -0.00000000000E+00  0.00000000000E+00  0.94059809706E+01  0.94059813163E+01  0.25500000000E-02 0. -1.
          2   -1    0    0  501    0  0.00000000000E+00 -0.00000000000E+00 -0.12507799281E+04  0.12507799281E+04  0.25500000000E-02 0.  1.
    5000001    1    1    2    0    0  0.38619228071E+02  0.62670513660E+02 -0.50209300072E+03  0.51326934394E+03  0.77000000000E+02 0.  0.
   -5000001    1    1    2    0    0 -0.38619228071E+02 -0.62670513660E+02 -0.73928094642E+03  0.74691656549E+03  0.77000000000E+02 0.  0.
<mgrwt>
<rscale>  0 0.21693144E+03</rscale>
<asrwt>0</asrwt>
<pdfrwt beam="1">  1        2 0.17868274E+00 0.21693144E+03</pdfrwt>
<pdfrwt beam="2">  1       -2 0.13437124E-02 0.21693144E+03</pdfrwt>
<totfact> 0.28699296E+04</totfact>
</mgrwt>
</event>
<event>
 4    1  0.1300812E-003  0.2048660E+03  0.7818608E-02  0.1145697E+00
          2   -1    0    0  501    0  0.00000000000E+00  0.00000000000E+00  0.15693152708E+04  0.15693152708E+04  0.25500000000E-02 0.  1.
         -2   -1    0    0    0  501 -0.00000000000E+00 -0.00000000000E+00 -0.66860477053E+01  0.66860481916E+01  0.25500000000E-02 0. -1.
    5000001    1    1    2    0    0  0.36677909485E+02 -0.47179317736E+02  0.10236525342E+04  0.10282823872E+04  0.77000000000E+02 0.  0.
   -5000001    1    1    2    0    0 -0.36677909485E+02  0.47179317736E+02  0.53897668894E+03  0.54771893184E+03  0.77000000000E+02 0.  0.
<mgrwt>
<rscale>  0 0.20486598E+03</rscale>
<asrwt>0</asrwt>
<pdfrwt beam="1">  1        2 0.22418795E+00 0.20486598E+03</pdfrwt>
<pdfrwt beam="2">  1       -2 0.95514948E-03 0.20486598E+03</pdfrwt>
<totfact> 0.32247427E+04</totfact>
</mgrwt>
</event>
<event>
 4    1  0.1300812E-003  0.2390117E+03  0.7818608E-02  0.1120453E+00
          2   -1    0    0  501    0  0.00000000000E+00  0.00000000000E+00  0.36540481857E+02  0.36540481946E+02  0.25500000000E-02 0.  1.
         -2   -1    0    0    0  501 -0.00000000000E+00 -0.00000000000E+00 -0.39084444062E+03  0.39084444062E+03  0.25500000000E-02 0. -1.
    5000001    1    1    2    0    0  0.82063363795E+02  0.33250025820E+02 -0.13666409230E+03  0.18012782689E+03  0.77000000000E+02 0.  0.
   -5000001    1    1    2    0    0 -0.82063363795E+02 -0.33250025820E+02 -0.21763986645E+03  0.24725709568E+03  0.77000000000E+02 0.  0.
<mgrwt>
<rscale>  0 0.23901167E+03</rscale>
<asrwt>0</asrwt>
<pdfrwt beam="1">  1        2 0.52200691E-02 0.23901167E+03</pdfrwt>
<pdfrwt beam="2">  1       -2 0.55834918E-01 0.23901167E+03</pdfrwt>
<totfact> 0.45015585E+03</totfact>
</mgrwt>
</event>
<event>
 4    1  0.1300812E-003  0.1850716E+03  0.7818608E-02  0.1162983E+00
         -2   -1    0    0    0  501 -0.00000000000E+00  0.00000000000E+00  0.10534500322E+02  0.10534500630E+02  0.25500000000E-02 0. -1.
          2   -1    0    0  501    0  0.00000000000E+00 -0.00000000000E+00 -0.81284130454E+03  0.81284130455E+03  0.25500000000E-02 0.  1.
    5000001    1    1    2    0    0  0.21650732848E+02 -0.32358441923E+02 -0.54991459842E+03  0.55664251414E+03  0.77000000000E+02 0.  0.
   -5000001    1    1    2    0    0 -0.21650732848E+02  0.32358441923E+02 -0.25239220580E+03  0.26673329103E+03  0.77000000000E+02 0.  0.
<mgrwt>
<rscale>  0 0.18507163E+03</rscale>
<asrwt>0</asrwt>
<pdfrwt beam="1">  1        2 0.11612015E+00 0.18507163E+03</pdfrwt>
<pdfrwt beam="2">  1       -2 0.15049291E-02 0.18507163E+03</pdfrwt>
<totfact> 0.43246974E+04</totfact>
</mgrwt>
</event>
<event>
 4    1  0.1300812E-003  0.2532486E+03  0.7818608E-02  0.1111269E+00
         -2   -1    0    0    0  501 -0.00000000000E+00  0.00000000000E+00  0.21031136357E+02  0.21031136511E+02  0.25500000000E-02 0. -1.
          2   -1    0    0  501    0  0.00000000000E+00 -0.00000000000E+00 -0.76237988133E+03  0.76237988133E+03  0.25500000000E-02 0.  1.
    5000001    1    1    2    0    0 -0.94454126249E+02 -0.30378620373E+02 -0.42058085429E+03  0.43893245214E+03  0.77000000000E+02 0.  0.
   -5000001    1    1    2    0    0  0.94454126249E+02  0.30378620373E+02 -0.32076789067E+03  0.34447856570E+03  0.77000000000E+02 0.  0.
<mgrwt>
<rscale>  0 0.25324862E+03</rscale>
<asrwt>0</asrwt>
<pdfrwt beam="1">  1        2 0.10891139E+00 0.25324862E+03</pdfrwt>
<pdfrwt beam="2">  1       -2 0.30044485E-02 0.25324862E+03</pdfrwt>
<totfact> 0.17321250E+04</totfact>
</mgrwt>
</event>
<event>
 4    1  0.1300812E-003  0.1791635E+03  0.7818608E-02  0.1168615E+00
          2   -1    0    0  501    0  0.00000000000E+00  0.00000000000E+00  0.24436474584E+03  0.24436474585E+03  0.25500000000E-02 0.  1.
         -2   -1    0    0    0  501 -0.00000000000E+00 -0.00000000000E+00 -0.32839797591E+02  0.32839797690E+02  0.25500000000E-02 0. -1.
    5000001    1    1    2    0    0 -0.25602719863E+02 -0.35462718567E+02  0.12668052781E+03  0.15456409609E+03  0.77000000000E+02 0.  0.
   -5000001    1    1    2    0    0  0.25602719863E+02  0.35462718567E+02  0.84844420437E+02  0.12264044745E+03  0.77000000000E+02 0.  0.
<mgrwt>
<rscale>  0 0.17916349E+03</rscale>
<asrwt>0</asrwt>
<pdfrwt beam="1">  1        2 0.34909250E-01 0.17916349E+03</pdfrwt>
<pdfrwt beam="2">  1       -2 0.46913996E-02 0.17916349E+03</pdfrwt>
<totfact> 0.30457187E+04</totfact>
</mgrwt>
</event>
<event>
 4    1  0.1300812E-003  0.1761121E+03  0.7818608E-02  0.1171620E+00
          2   -1    0    0  501    0  0.00000000000E+00  0.00000000000E+00  0.25805098758E+03  0.25805098759E+03  0.25500000000E-02 0.  1.
         -2   -1    0    0    0  501 -0.00000000000E+00 -0.00000000000E+00 -0.30047809709E+02  0.30047809817E+02  0.25500000000E-02 0. -1.
    5000001    1    1    2    0    0  0.37027789265E+02  0.27247564400E+01  0.79438916002E+02  0.11669628465E+03  0.77000000000E+02 0.  0.
   -5000001    1    1    2    0    0 -0.37027789265E+02 -0.27247564400E+01  0.14856426187E+03  0.17140251276E+03  0.77000000000E+02 0.  0.
<mgrwt>
<rscale>  0 0.17611209E+03</rscale>
<asrwt>0</asrwt>
<pdfrwt beam="1">  1        2 0.36864424E-01 0.17611209E+03</pdfrwt>
<pdfrwt beam="2">  1       -2 0.42925445E-02 0.17611209E+03</pdfrwt>
<totfact> 0.32769213E+04</totfact>
</mgrwt>
</event>
<event>
 4    1  0.1300812E-003  0.2101703E+03  0.7818608E-02  0.1141431E+00
         -2   -1    0    0    0  501 -0.00000000000E+00  0.00000000000E+00  0.97513963166E+02  0.97513963199E+02  0.25500000000E-02 0. -1.
          2   -1    0    0  501    0  0.00000000000E+00 -0.00000000000E+00 -0.11324418335E+03  0.11324418338E+03  0.25500000000E-02 0.  1.
    5000001    1    1    2    0    0  0.16112079394E+02 -0.69165257516E+02 -0.16282465222E+02  0.10600731401E+03  0.77000000000E+02 0.  0.
   -5000001    1    1    2    0    0 -0.16112079394E+02  0.69165257516E+02  0.55224503681E+00  0.10475083257E+03  0.77000000000E+02 0.  0.
<mgrwt>
<rscale>  0 0.21017030E+03</rscale>
<asrwt>0</asrwt>
<pdfrwt beam="1">  1        2 0.16177740E-01 0.21017030E+03</pdfrwt>
<pdfrwt beam="2">  1       -2 0.13930566E-01 0.21017030E+03</pdfrwt>
<totfact> 0.13358057E+04</totfact>
</mgrwt>
</event>
<event>
 4    1  0.1300812E-003  0.2101895E+03  0.7818608E-02  0.1141416E+00
          2   -1    0    0  501    0  0.00000000000E+00  0.00000000000E+00  0.27609913214E+03  0.27609913215E+03  0.25500000000E-02 0.  1.
         -2   -1    0    0    0  501 -0.00000000000E+00 -0.00000000000E+00 -0.40003398271E+02  0.40003398352E+02  0.25500000000E-02 0. -1.
    5000001    1    1    2    0    0  0.54606220940E+02 -0.46181326940E+02  0.11979473904E+03  0.15935599714E+03  0.77000000000E+02 0.  0.
   -5000001    1    1    2    0    0 -0.54606220940E+02  0.46181326940E+02  0.11630099483E+03  0.15674653336E+03  0.77000000000E+02 0.  0.
<mgrwt>
<rscale>  0 0.21018947E+03</rscale>
<asrwt>0</asrwt>
<pdfrwt beam="1">  1        2 0.39442736E-01 0.21018947E+03</pdfrwt>
<pdfrwt beam="2">  1       -2 0.57147708E-02 0.21018947E+03</pdfrwt>
<totfact> 0.20070442E+04</totfact>
</mgrwt>
</event>
<event>
 4    1  0.1300812E-003  0.1794291E+03  0.7818608E-02  0.1168357E+00
         -2   -1    0    0    0  501 -0.00000000000E+00  0.00000000000E+00  0.19233277653E+01  0.19233294558E+01  0.25500000000E-02 0. -1.
          2   -1    0    0  501    0  0.00000000000E+00 -0.00000000000E+00 -0.41847754008E+04  0.41847754008E+04  0.25500000000E-02 0.  1.
    5000001    1    1    2    0    0  0.24042134358E+02 -0.22679891850E+01 -0.11767875943E+04  0.11795512749E+04  0.77000000000E+02 0.  0.
   -5000001    1    1    2    0    0 -0.24042134358E+02  0.22679891850E+01 -0.30060644787E+04  0.30071474553E+04  0.77000000000E+02 0.  0.
<mgrwt>
<rscale>  0 0.17942908E+03</rscale>
<asrwt>0</asrwt>
<pdfrwt beam="1">  1        2 0.59781922E+00 0.17942908E+03</pdfrwt>
<pdfrwt beam="2">  1       -2 0.27476391E-03 0.17942908E+03</pdfrwt>
<totfact> 0.75251044E+03</totfact>
</mgrwt>
</event>
<event>
 4    1  0.1300812E-003  0.1888597E+03  0.7818608E-02  0.1159494E+00
          2   -1    0    0  501    0  0.00000000000E+00  0.00000000000E+00  0.10187771095E+04  0.10187771095E+04  0.25500000000E-02 0.  1.
         -2   -1    0    0    0  501 -0.00000000000E+00 -0.00000000000E+00 -0.87526496641E+01  0.87526500356E+01  0.25500000000E-02 0. -1.
    5000001    1    1    2    0    0  0.30045288156E+02 -0.19359143949E+02  0.27999434768E+03  0.29258046847E+03  0.77000000000E+02 0.  0.
   -5000001    1    1    2    0    0 -0.30045288156E+02  0.19359143949E+02  0.73003011214E+03  0.73494929106E+03  0.77000000000E+02 0.  0.
<mgrwt>
<rscale>  0 0.18885973E+03</rscale>
<asrwt>0</asrwt>
<pdfrwt beam="1">  1        2 0.14553965E+00 0.18885973E+03</pdfrwt>
<pdfrwt beam="2">  1       -2 0.12503780E-02 0.18885973E+03</pdfrwt>
<totfact> 0.42352323E+04</totfact>
</mgrwt>
</event>
<event>
 4    1  0.1300812E-003  0.2658991E+03  0.7818608E-02  0.1103650E+00
          2   -1    0    0  501    0  0.00000000000E+00  0.00000000000E+00  0.10953633944E+04  0.10953633944E+04  0.25500000000E-02 0.  1.
         -2   -1    0    0    0  501 -0.00000000000E+00 -0.00000000000E+00 -0.16136726923E+02  0.16136727124E+02  0.25500000000E-02 0. -1.
    5000001    1    1    2    0    0  0.90297254645E+02  0.24444531958E+02  0.76839634550E+03  0.77789014206E+03  0.77000000000E+02 0.  0.
   -5000001    1    1    2    0    0 -0.90297254645E+02 -0.24444531958E+02  0.31083032199E+03  0.33360997948E+03  0.77000000000E+02 0.  0.
<mgrwt>
<rscale>  0 0.26589908E+03</rscale>
<asrwt>0</asrwt>
<pdfrwt beam="1">  1        2 0.15648047E+00 0.26589908E+03</pdfrwt>
<pdfrwt beam="2">  1       -2 0.23052470E-02 0.26589908E+03</pdfrwt>
<totfact> 0.15998493E+04</totfact>
</mgrwt>
</event>
<event>
 4    1  0.1300812E-003  0.2737838E+03  0.7818608E-02  0.1099133E+00
         -2   -1    0    0    0  501 -0.00000000000E+00  0.00000000000E+00  0.50473391745E+03  0.50473391746E+03  0.25500000000E-02 0. -1.
          2   -1    0    0  501    0  0.00000000000E+00 -0.00000000000E+00 -0.37127266130E+02  0.37127266218E+02  0.25500000000E-02 0.  1.
    5000001    1    1    2    0    0 -0.32405792371E+01 -0.74030385821E+02  0.64479609055E+02  0.12481033356E+03  0.77000000000E+02 0.  0.
   -5000001    1    1    2    0    0  0.32405792371E+01  0.74030385821E+02  0.40312704227E+03  0.41705085012E+03  0.77000000000E+02 0.  0.
<mgrwt>
<rscale>  0 0.27378379E+03</rscale>
<asrwt>0</asrwt>
<pdfrwt beam="1">  1        2 0.53038953E-02 0.27378379E+03</pdfrwt>
<pdfrwt beam="2">  1       -2 0.72104844E-01 0.27378379E+03</pdfrwt>
<totfact> 0.25940574E+03</totfact>
</mgrwt>
</event>
<event>
 4    1  0.1300812E-003  0.2536728E+03  0.7818608E-02  0.1111005E+00
         -2   -1    0    0    0  501 -0.00000000000E+00  0.00000000000E+00  0.20587448743E+02  0.20587448901E+02  0.25500000000E-02 0. -1.
          2   -1    0    0  501    0  0.00000000000E+00 -0.00000000000E+00 -0.78142133182E+03  0.78142133183E+03  0.25500000000E-02 0.  1.
    5000001    1    1    2    0    0 -0.94815296467E+02 -0.77258011505E+01 -0.27513829208E+03  0.30113071616E+03  0.77000000000E+02 0.  0.
   -5000001    1    1    2    0    0  0.94815296467E+02  0.77258011505E+01 -0.48569559100E+03  0.50087806457E+03  0.77000000000E+02 0.  0.
<mgrwt>
<rscale>  0 0.25367279E+03</rscale>
<asrwt>0</asrwt>
<pdfrwt beam="1">  1        2 0.11163160E+00 0.25367279E+03</pdfrwt>
<pdfrwt beam="2">  1       -2 0.29410646E-02 0.25367279E+03</pdfrwt>
<totfact> 0.17350017E+04</totfact>
</mgrwt>
</event>
<event>
 4    1  0.1300812E-003  0.3996505E+03  0.7818608E-02  0.1043901E+00
         -2   -1    0    0    0  501 -0.00000000000E+00  0.00000000000E+00  0.10854996182E+03  0.10854996185E+03  0.25500000000E-02 0. -1.
          2   -1    0    0  501    0  0.00000000000E+00 -0.00000000000E+00 -0.36785025973E+03  0.36785025974E+03  0.25500000000E-02 0.  1.
    5000001    1    1    2    0    0 -0.17231895474E+03 -0.50740035147E+02 -0.17927058605E+03  0.26520806238E+03  0.77000000000E+02 0.  0.
   -5000001    1    1    2    0    0  0.17231895474E+03  0.50740035147E+02 -0.80029711864E+02  0.21119215920E+03  0.77000000000E+02 0.  0.
<mgrwt>
<rscale>  0 0.39965051E+03</rscale>
<asrwt>0</asrwt>
<pdfrwt beam="1">  1        2 0.52550037E-01 0.39965051E+03</pdfrwt>
<pdfrwt beam="2">  1       -2 0.15507138E-01 0.39965051E+03</pdfrwt>
<totfact> 0.30950998E+03</totfact>
</mgrwt>
</event>
<event>
 4    1  0.1300812E-003  0.4369963E+03  0.7818608E-02  0.1031672E+00
         -2   -1    0    0    0  501 -0.00000000000E+00  0.00000000000E+00  0.16301751569E+03  0.16301751571E+03  0.25500000000E-02 0. -1.
          2   -1    0    0  501    0  0.00000000000E+00 -0.00000000000E+00 -0.29286077782E+03  0.29286077784E+03  0.25500000000E-02 0.  1.
    5000001    1    1    2    0    0  0.54425605332E+02 -0.19680700164E+03 -0.76219828187E+02  0.23115709944E+03  0.77000000000E+02 0.  0.
   -5000001    1    1    2    0    0 -0.54425605332E+02  0.19680700164E+03 -0.53623433952E+02  0.22472119410E+03  0.77000000000E+02 0.  0.
<mgrwt>
<rscale>  0 0.43699628E+03</rscale>
<asrwt>0</asrwt>
<pdfrwt beam="1">  1        2 0.41837254E-01 0.43699628E+03</pdfrwt>
<pdfrwt beam="2">  1       -2 0.23288217E-01 0.43699628E+03</pdfrwt>
<totfact> 0.19772318E+03</totfact>
</mgrwt>
</event>
<event>
 4    1  0.1300812E-003  0.2118569E+03  0.7818608E-02  0.1140104E+00
          2   -1    0    0  501    0  0.00000000000E+00  0.00000000000E+00  0.11206312685E+03  0.11206312688E+03  0.25500000000E-02 0.  1.
         -2   -1    0    0    0  501 -0.00000000000E+00 -0.00000000000E+00 -0.10012962649E+03  0.10012962652E+03  0.25500000000E-02 0. -1.
    5000001    1    1    2    0    0  0.24014162192E+02 -0.51246761637E+02  0.51743997226E+02  0.10867084160E+03  0.77000000000E+02 0.  0.
   -5000001    1    1    2    0    0 -0.24014162192E+02  0.51246761637E+02 -0.39810496861E+02  0.10352191181E+03  0.77000000000E+02 0.  0.
<mgrwt>
<rscale>  0 0.21185692E+03</rscale>
<asrwt>0</asrwt>
<pdfrwt beam="1">  1        2 0.16009018E-01 0.21185692E+03</pdfrwt>
<pdfrwt beam="2">  1       -2 0.14304232E-01 0.21185692E+03</pdfrwt>
<totfact> 0.12957127E+04</totfact>
</mgrwt>
</event>
<event>
 4    1  0.1300812E-003  0.2409868E+03  0.7818608E-02  0.1119137E+00
          2   -1    0    0  501    0  0.00000000000E+00  0.00000000000E+00  0.11436132875E+03  0.11436132877E+03  0.25500000000E-02 0.  1.
         -2   -1    0    0    0  501 -0.00000000000E+00 -0.00000000000E+00 -0.12695423578E+03  0.12695423580E+03  0.25500000000E-02 0. -1.
    5000001    1    1    2    0    0  0.26196903232E+01  0.90074770619E+02 -0.27989991487E+02  0.12178984647E+03  0.77000000000E+02 0.  0.
   -5000001    1    1    2    0    0 -0.26196903232E+01 -0.90074770619E+02  0.15397084455E+02  0.11952571811E+03  0.77000000000E+02 0.  0.
<mgrwt>
<rscale>  0 0.24098676E+03</rscale>
<asrwt>0</asrwt>
<pdfrwt beam="1">  1        2 0.16337333E-01 0.24098676E+03</pdfrwt>
<pdfrwt beam="2">  1       -2 0.18136319E-01 0.24098676E+03</pdfrwt>
<totfact> 0.85963170E+03</totfact>
</mgrwt>
</event>
<event>
 4    1  0.1300812E-003  0.2540079E+03  0.7818608E-02  0.1110798E+00
         -2   -1    0    0    0  501 -0.00000000000E+00  0.00000000000E+00  0.65839899404E+02  0.65839899453E+02  0.25500000000E-02 0. -1.
          2   -1    0    0  501    0  0.00000000000E+00 -0.00000000000E+00 -0.24498820611E+03  0.24498820612E+03  0.25500000000E-02 0.  1.
    5000001    1    1    2    0    0  0.25125518251E+02 -0.92818147432E+02 -0.51768148385E+02  0.13362425434E+03  0.77000000000E+02 0.  0.
   -5000001    1    1    2    0    0 -0.25125518251E+02  0.92818147432E+02 -0.12738015832E+03  0.17720385124E+03  0.77000000000E+02 0.  0.
<mgrwt>
<rscale>  0 0.25400786E+03</rscale>
<asrwt>0</asrwt>
<pdfrwt beam="1">  1        2 0.34998315E-01 0.25400786E+03</pdfrwt>
<pdfrwt beam="2">  1       -2 0.94057001E-02 0.25400786E+03</pdfrwt>
<totfact> 0.10671596E+04</totfact>
</mgrwt>
</event>
<event>
 4    1  0.1300812E-003  0.2099720E+03  0.7818608E-02  0.1141588E+00
          2   -1    0    0  501    0  0.00000000000E+00  0.00000000000E+00  0.92305193266E+03  0.92305193266E+03  0.25500000000E-02 0.  1.
         -2   -1    0    0    0  501 -0.00000000000E+00 -0.00000000000E+00 -0.11940888634E+02  0.11940888906E+02  0.25500000000E-02 0. -1.
    5000001    1    1    2    0    0 -0.24746696193E+02 -0.66729514330E+02  0.47904806638E+03  0.49038890379E+03  0.77000000000E+02 0.  0.
   -5000001    1    1    2    0    0  0.24746696193E+02  0.66729514330E+02  0.43206297764E+03  0.44460391777E+03  0.77000000000E+02 0.  0.
<mgrwt>
<rscale>  0 0.20997200E+03</rscale>
<asrwt>0</asrwt>
<pdfrwt beam="1">  1        2 0.13186455E+00 0.20997200E+03</pdfrwt>
<pdfrwt beam="2">  1       -2 0.17058415E-02 0.20997200E+03</pdfrwt>
<totfact> 0.30990905E+04</totfact>
</mgrwt>
</event>
<event>
 4    1  0.1300812E-003  0.1744814E+03  0.7818608E-02  0.1173253E+00
          2   -1    0    0  501    0  0.00000000000E+00  0.00000000000E+00  0.38085389330E+04  0.38085389330E+04  0.25500000000E-02 0.  1.
         -2   -1    0    0    0  501 -0.00000000000E+00 -0.00000000000E+00 -0.19983876628E+01  0.19983892898E+01  0.25500000000E-02 0. -1.
    5000001    1    1    2    0    0 -0.38969171550E+02 -0.12562790134E+02  0.18519583765E+04  0.18540105848E+04  0.77000000000E+02 0.  0.
   -5000001    1    1    2    0    0  0.38969171550E+02  0.12562790134E+02  0.19545821688E+04  0.19565267376E+04  0.77000000000E+02 0.  0.
<mgrwt>
<rscale>  0 0.17448141E+03</rscale>
<asrwt>0</asrwt>
<pdfrwt beam="1">  1        2 0.54407048E+00 0.17448141E+03</pdfrwt>
<pdfrwt beam="2">  1       -2 0.28548748E-03 0.17448141E+03</pdfrwt>
<totfact> 0.12445240E+04</totfact>
</mgrwt>
</event>
<event>
 4    1  0.1300812E-003  0.1972893E+03  0.7818608E-02  0.1152046E+00
         -2   -1    0    0    0  501 -0.00000000000E+00  0.00000000000E+00  0.24597351782E+03  0.24597351783E+03  0.25500000000E-02 0. -1.
          2   -1    0    0  501    0  0.00000000000E+00 -0.00000000000E+00 -0.39560233595E+02  0.39560233677E+02  0.25500000000E-02 0.  1.
    5000001    1    1    2    0    0 -0.17219454437E+02 -0.59122639105E+02  0.10773129147E+03  0.14603775960E+03  0.77000000000E+02 0.  0.
   -5000001    1    1    2    0    0  0.17219454437E+02  0.59122639105E+02  0.98681992749E+02  0.13949599191E+03  0.77000000000E+02 0.  0.
<mgrwt>
<rscale>  0 0.19728933E+03</rscale>
<asrwt>0</asrwt>
<pdfrwt beam="1">  1        2 0.56514618E-02 0.19728933E+03</pdfrwt>
<pdfrwt beam="2">  1       -2 0.35139075E-01 0.19728933E+03</pdfrwt>
<totfact> 0.98665123E+03</totfact>
</mgrwt>
</event>
<event>
 4    1  0.1300812E-003  0.1857692E+03  0.7818608E-02  0.1162334E+00
         -2   -1    0    0    0  501 -0.00000000000E+00  0.00000000000E+00  0.77322946316E+01  0.77322950521E+01  0.25500000000E-02 0. -1.
          2   -1    0    0  501    0  0.00000000000E+00 -0.00000000000E+00 -0.11157811985E+04  0.11157811985E+04  0.25500000000E-02 0.  1.
    5000001    1    1    2    0    0 -0.65529733019E+00  0.44464356471E+02 -0.39162502443E+03  0.40159266449E+03  0.77000000000E+02 0.  0.
   -5000001    1    1    2    0    0  0.65529733019E+00 -0.44464356471E+02 -0.71642387942E+03  0.72192082905E+03  0.77000000000E+02 0.  0.
<mgrwt>
<rscale>  0 0.18576920E+03</rscale>
<asrwt>0</asrwt>
<pdfrwt beam="1">  1        2 0.15939721E+00 0.18576920E+03</pdfrwt>
<pdfrwt beam="2">  1       -2 0.11046143E-02 0.18576920E+03</pdfrwt>
<totfact> 0.44596455E+04</totfact>
</mgrwt>
</event>
<event>
 4    1  0.1300812E-003  0.2503028E+03  0.7818608E-02  0.1113114E+00
          2   -1    0    0  501    0  0.00000000000E+00  0.00000000000E+00  0.10416891801E+04  0.10416891801E+04  0.25500000000E-02 0.  1.
         -2   -1    0    0    0  501 -0.00000000000E+00 -0.00000000000E+00 -0.15036034504E+02  0.15036034720E+02  0.25500000000E-02 0. -1.
    5000001    1    1    2    0    0 -0.11671530109E+02  0.64138592521E+02  0.82596383787E+03  0.83210290538E+03  0.77000000000E+02 0.  0.
   -5000001    1    1    2    0    0  0.11671530109E+02 -0.64138592521E+02  0.20068930772E+03  0.22462230944E+03  0.77000000000E+02 0.  0.
<mgrwt>
<rscale>  0 0.25030281E+03</rscale>
<asrwt>0</asrwt>
<pdfrwt beam="1">  1        2 0.14881272E+00 0.25030281E+03</pdfrwt>
<pdfrwt beam="2">  1       -2 0.21480052E-02 0.25030281E+03</pdfrwt>
<totfact> 0.18999136E+04</totfact>
</mgrwt>
</event>
<event>
 4    1  0.1300812E-003  0.2637919E+03  0.7818608E-02  0.1104886E+00
          2   -1    0    0  501    0  0.00000000000E+00  0.00000000000E+00  0.55035387072E+03  0.55035387073E+03  0.25500000000E-02 0.  1.
         -2   -1    0    0    0  501 -0.00000000000E+00 -0.00000000000E+00 -0.31609732172E+02  0.31609732275E+02  0.25500000000E-02 0. -1.
    5000001    1    1    2    0    0  0.86317240688E+02  0.47307941458E+02  0.35241893886E+03  0.37392086841E+03  0.77000000000E+02 0.  0.
   -5000001    1    1    2    0    0 -0.86317240688E+02 -0.47307941458E+02  0.16632519969E+03  0.20804273459E+03  0.77000000000E+02 0.  0.
<mgrwt>
<rscale>  0 0.26379188E+03</rscale>
<asrwt>0</asrwt>
<pdfrwt beam="1">  1        2 0.78621985E-01 0.26379188E+03</pdfrwt>
<pdfrwt beam="2">  1       -2 0.45156758E-02 0.26379188E+03</pdfrwt>
<totfact> 0.13771490E+04</totfact>
</mgrwt>
</event>
<event>
 4    1  0.1300812E-003  0.2142776E+03  0.7818608E-02  0.1138223E+00
          2   -1    0    0  501    0  0.00000000000E+00  0.00000000000E+00  0.86295046847E+03  0.86295046847E+03  0.25500000000E-02 0.  1.
         -2   -1    0    0    0  501 -0.00000000000E+00 -0.00000000000E+00 -0.13301712674E+02  0.13301712919E+02  0.25500000000E-02 0. -1.
    5000001    1    1    2    0    0 -0.28023790680E+02  0.30720952102E+02  0.67759041943E+03  0.68321803712E+03  0.77000000000E+02 0.  0.
   -5000001    1    1    2    0    0  0.28023790680E+02 -0.30720952102E+02  0.17205833637E+03  0.19303414427E+03  0.77000000000E+02 0.  0.
<mgrwt>
<rscale>  0 0.21427757E+03</rscale>
<asrwt>0</asrwt>
<pdfrwt beam="1">  1        2 0.12327870E+00 0.21427757E+03</pdfrwt>
<pdfrwt beam="2">  1       -2 0.19002437E-02 0.21427757E+03</pdfrwt>
<totfact> 0.28897575E+04</totfact>
</mgrwt>
</event>
<event>
 4    1  0.1300812E-003  0.2301766E+03  0.7818608E-02  0.1126516E+00
          2   -1    0    0  501    0  0.00000000000E+00  0.00000000000E+00  0.31464709757E+04  0.31464709757E+04  0.25500000000E-02 0.  1.
         -2   -1    0    0    0  501 -0.00000000000E+00 -0.00000000000E+00 -0.42095774330E+01  0.42095782053E+01  0.25500000000E-02 0. -1.
    5000001    1    1    2    0    0  0.45003583083E+02  0.21377069389E+02  0.61943711694E+03  0.62618978228E+03  0.77000000000E+02 0.  0.
   -5000001    1    1    2    0    0 -0.45003583083E+02 -0.21377069389E+02  0.25228242813E+04  0.25244907716E+04  0.77000000000E+02 0.  0.
<mgrwt>
<rscale>  0 0.23017658E+03</rscale>
<asrwt>0</asrwt>
<pdfrwt beam="1">  1        2 0.44949550E+00 0.23017658E+03</pdfrwt>
<pdfrwt beam="2">  1       -2 0.60136874E-03 0.23017658E+03</pdfrwt>
<totfact> 0.10311266E+04</totfact>
</mgrwt>
</event>
<event>
 4    1  0.1300812E-003  0.2361395E+03  0.7818608E-02  0.1122392E+00
         -2   -1    0    0    0  501 -0.00000000000E+00  0.00000000000E+00  0.22279750991E+03  0.22279750992E+03  0.25500000000E-02 0. -1.
          2   -1    0    0  501    0  0.00000000000E+00 -0.00000000000E+00 -0.62570130800E+02  0.62570130852E+02  0.25500000000E-02 0.  1.
    5000001    1    1    2    0    0 -0.81292809936E+02 -0.28326191418E+02  0.10972923645E+03  0.15931227009E+03  0.77000000000E+02 0.  0.
   -5000001    1    1    2    0    0  0.81292809936E+02  0.28326191418E+02  0.50498142653E+02  0.12605537069E+03  0.77000000000E+02 0.  0.
<mgrwt>
<rscale>  0 0.23613953E+03</rscale>
<asrwt>0</asrwt>
<pdfrwt beam="1">  1        2 0.89385901E-02 0.23613953E+03</pdfrwt>
<pdfrwt beam="2">  1       -2 0.31828216E-01 0.23613953E+03</pdfrwt>
<totfact> 0.66583238E+03</totfact>
</mgrwt>
</event>
<event>
 4    1  0.1300812E-003  0.3888082E+03  0.7818608E-02  0.1047725E+00
          2   -1    0    0  501    0  0.00000000000E+00  0.00000000000E+00  0.27258847307E+03  0.27258847309E+03  0.25500000000E-02 0.  1.
         -2   -1    0    0    0  501 -0.00000000000E+00 -0.00000000000E+00 -0.13864474002E+03  0.13864474004E+03  0.25500000000E-02 0. -1.
    5000001    1    1    2    0    0  0.57411617250E+02 -0.80908192337E+02  0.22392805658E+03  0.25673917485E+03  0.77000000000E+02 0.  0.
   -5000001    1    1    2    0    0 -0.57411617250E+02  0.80908192337E+02 -0.89984323521E+02  0.15449403827E+03  0.77000000000E+02 0.  0.
<mgrwt>
<rscale>  0 0.38880822E+03</rscale>
<asrwt>0</asrwt>
<pdfrwt beam="1">  1        2 0.38941211E-01 0.38880822E+03</pdfrwt>
<pdfrwt beam="2">  1       -2 0.19806391E-01 0.38880822E+03</pdfrwt>
<totfact> 0.28313925E+03</totfact>
</mgrwt>
</event>
<event>
 4    1  0.1300812E-003  0.2519473E+03  0.7818608E-02  0.1112080E+00
          2   -1    0    0  501    0  0.00000000000E+00  0.00000000000E+00  0.15784189406E+04  0.15784189406E+04  0.25500000000E-02 0.  1.
         -2   -1    0    0    0  501 -0.00000000000E+00 -0.00000000000E+00 -0.10053956545E+02  0.10053956869E+02  0.25500000000E-02 0. -1.
    5000001    1    1    2    0    0  0.60210247806E+02  0.18298910596E+01  0.12850749409E+04  0.12887882783E+04  0.77000000000E+02 0.  0.
   -5000001    1    1    2    0    0 -0.60210247806E+02 -0.18298910596E+01  0.28329004312E+03  0.29968461918E+03  0.77000000000E+02 0.  0.
<mgrwt>
<rscale>  0 0.25194726E+03</rscale>
<asrwt>0</asrwt>
<pdfrwt beam="1">  1        2 0.22548840E+00 0.25194726E+03</pdfrwt>
<pdfrwt beam="2">  1       -2 0.14362797E-02 0.25194726E+03</pdfrwt>
<totfact> 0.17838951E+04</totfact>
</mgrwt>
</event>
<event>
 4    1  0.1300812E-003  0.2420955E+03  0.7818608E-02  0.1118405E+00
          2   -1    0    0  501    0  0.00000000000E+00  0.00000000000E+00  0.21364475990E+04  0.21364475990E+04  0.25500000000E-02 0.  1.
         -2   -1    0    0    0  501 -0.00000000000E+00 -0.00000000000E+00 -0.68583722502E+01  0.68583727243E+01  0.25500000000E-02 0. -1.
    5000001    1    1    2    0    0  0.36524445459E+01 -0.93217418979E+02  0.11050991612E+04  0.11116995923E+04  0.77000000000E+02 0.  0.
   -5000001    1    1    2    0    0 -0.36524445459E+01  0.93217418979E+02  0.10244900655E+04  0.10316063794E+04  0.77000000000E+02 0.  0.
<mgrwt>
<rscale>  0 0.24209546E+03</rscale>
<asrwt>0</asrwt>
<pdfrwt beam="1">  1        2 0.30520764E+00 0.24209546E+03</pdfrwt>
<pdfrwt beam="2">  1       -2 0.97976481E-03 0.24209546E+03</pdfrwt>
<totfact> 0.16579510E+04</totfact>
</mgrwt>
</event>
<event>
 4    1  0.1300812E-003  0.2539054E+03  0.7818608E-02  0.1110861E+00
         -2   -1    0    0    0  501 -0.00000000000E+00  0.00000000000E+00  0.42137969359E+02  0.42137969436E+02  0.25500000000E-02 0.  1.
          2   -1    0    0  501    0  0.00000000000E+00 -0.00000000000E+00 -0.38248128007E+03  0.38248128008E+03  0.25500000000E-02 0. -1.
    5000001    1    1    2    0    0  0.37856717634E+02  0.88823272812E+02 -0.12097834764E+03  0.17287991630E+03  0.77000000000E+02 0.  0.
   -5000001    1    1    2    0    0 -0.37856717634E+02 -0.88823272812E+02 -0.21936496307E+03  0.25173933321E+03  0.77000000000E+02 0.  0.
<mgrwt>
<rscale>  0 0.25390537E+03</rscale>
<asrwt>0</asrwt>
<pdfrwt beam="1">  1        2 0.54640181E-01 0.25390537E+03</pdfrwt>
<pdfrwt beam="2">  1       -2 0.60197101E-02 0.25390537E+03</pdfrwt>
<totfact> 0.13220404E+04</totfact>
</mgrwt>
</event>
<event>
 4    1  0.1300812E-003  0.2757851E+03  0.7818608E-02  0.1098014E+00
          2   -1    0    0  501    0  0.00000000000E+00  0.00000000000E+00  0.89720803718E+03  0.89720803719E+03  0.25500000000E-02 0.  1.
         -2   -1    0    0    0  501 -0.00000000000E+00 -0.00000000000E+00 -0.21192811662E+02  0.21192811816E+02  0.25500000000E-02 0. -1.
    5000001    1    1    2    0    0 -0.47266303664E+02 -0.10131164554E+03  0.35731060895E+03  0.38222771257E+03  0.77000000000E+02 0.  0.
   -5000001    1    1    2    0    0  0.47266303664E+02  0.10131164554E+03  0.51870461657E+03  0.53617313643E+03  0.77000000000E+02 0.  0.
<mgrwt>
<rscale>  0 0.27578514E+03</rscale>
<asrwt>0</asrwt>
<pdfrwt beam="1">  1        2 0.12817257E+00 0.27578514E+03</pdfrwt>
<pdfrwt beam="2">  1       -2 0.30275448E-02 0.27578514E+03</pdfrwt>
<totfact> 0.14018022E+04</totfact>
</mgrwt>
</event>
<event>
 4    1  0.1300812E-003  0.1845662E+03  0.7818608E-02  0.1163456E+00
          2   -1    0    0  501    0  0.00000000000E+00  0.00000000000E+00  0.36395298802E+04  0.36395298802E+04  0.25500000000E-02 0.  1.
         -2   -1    0    0    0  501 -0.00000000000E+00 -0.00000000000E+00 -0.23399082296E+01  0.23399096191E+01  0.25500000000E-02 0. -1.
    5000001    1    1    2    0    0  0.15782311261E+02 -0.48154288075E+02  0.19051727130E+04  0.19074013692E+04  0.77000000000E+02 0.  0.
   -5000001    1    1    2    0    0 -0.15782311261E+02  0.48154288075E+02  0.17320172589E+04  0.17344684206E+04  0.77000000000E+02 0.  0.
<mgrwt>
<rscale>  0 0.18456618E+03</rscale>
<asrwt>0</asrwt>
<pdfrwt beam="1">  1        2 0.51993703E+00 0.18456618E+03</pdfrwt>
<pdfrwt beam="2">  1       -2 0.33427001E-03 0.18456618E+03</pdfrwt>
<totfact> 0.12574376E+04</totfact>
</mgrwt>
</event>
<event>
 4    1  0.1300812E-003  0.3209424E+03  0.7818608E-02  0.1075216E+00
          2   -1    0    0  501    0  0.00000000000E+00  0.00000000000E+00  0.13942251211E+04  0.13942251211E+04  0.25500000000E-02 0.  1.
         -2   -1    0    0    0  501 -0.00000000000E+00 -0.00000000000E+00 -0.18469761095E+02  0.18469761271E+02  0.25500000000E-02 0. -1.
    5000001    1    1    2    0    0 -0.60341784850E+02  0.94220721365E+02  0.31170977571E+03  0.34001567553E+03  0.77000000000E+02 0.  0.
   -5000001    1    1    2    0    0  0.60341784850E+02 -0.94220721365E+02  0.10640455843E+04  0.10726792068E+04  0.77000000000E+02 0.  0.
<mgrwt>
<rscale>  0 0.32094239E+03</rscale>
<asrwt>0</asrwt>
<pdfrwt beam="1">  1        2 0.19917503E+00 0.32094239E+03</pdfrwt>
<pdfrwt beam="2">  1       -2 0.26385371E-02 0.32094239E+03</pdfrwt>
<totfact> 0.90944018E+03</totfact>
</mgrwt>
</event>
<event>
 4    1  0.1300812E-003  0.2141896E+03  0.7818608E-02  0.1138291E+00
          2   -1    0    0  501    0  0.00000000000E+00  0.00000000000E+00  0.55468043585E+03  0.55468043586E+03  0.25500000000E-02 0.  1.
         -2   -1    0    0    0  501 -0.00000000000E+00 -0.00000000000E+00 -0.20677298570E+02  0.20677298727E+02  0.25500000000E-02 0. -1.
    5000001    1    1    2    0    0  0.15164063077E+02 -0.69272047607E+02  0.20623578908E+03  0.23128070842E+03  0.77000000000E+02 0.  0.
   -5000001    1    1    2    0    0 -0.15164063077E+02  0.69272047607E+02  0.32776734820E+03  0.34407702616E+03  0.77000000000E+02 0.  0.
<mgrwt>
<rscale>  0 0.21418957E+03</rscale>
<asrwt>0</asrwt>
<pdfrwt beam="1">  1        2 0.79240073E-01 0.21418957E+03</pdfrwt>
<pdfrwt beam="2">  1       -2 0.29538994E-02 0.21418957E+03</pdfrwt>
<totfact> 0.25438744E+04</totfact>
</mgrwt>
</event>
<event>
 4    1  0.1300812E-003  0.1997410E+03  0.7818608E-02  0.1149958E+00
         -2   -1    0    0    0  501 -0.00000000000E+00  0.00000000000E+00  0.83661965566E+02  0.83661965605E+02  0.25500000000E-02 0. -1.
          2   -1    0    0  501    0  0.00000000000E+00 -0.00000000000E+00 -0.11921921833E+03  0.11921921836E+03  0.25500000000E-02 0.  1.
    5000001    1    1    2    0    0 -0.29232672565E+02 -0.62630191468E+01  0.39240716867E+02  0.91447298562E+02  0.77000000000E+02 0.  0.
   -5000001    1    1    2    0    0  0.29232672565E+02  0.62630191468E+01 -0.74797969631E+02  0.11143388540E+03  0.77000000000E+02 0.  0.
<mgrwt>
<rscale>  0 0.19974097E+03</rscale>
<asrwt>0</asrwt>
<pdfrwt beam="1">  1        2 0.17031317E-01 0.19974097E+03</pdfrwt>
<pdfrwt beam="2">  1       -2 0.11951709E-01 0.19974097E+03</pdfrwt>
<totfact> 0.16066238E+04</totfact>
</mgrwt>
</event>
<event>
 4    1  0.1300812E-003  0.2062275E+03  0.7818608E-02  0.1144589E+00
          2   -1    0    0  501    0  0.00000000000E+00  0.00000000000E+00  0.12426787462E+03  0.12426787464E+03  0.25500000000E-02 0.  1.
         -2   -1    0    0    0  501 -0.00000000000E+00 -0.00000000000E+00 -0.85560670325E+02  0.85560670363E+02  0.25500000000E-02 0. -1.
    5000001    1    1    2    0    0 -0.51514111422E+02  0.42125458282E+02  0.36231961473E+02  0.10802783411E+03  0.77000000000E+02 0.  0.
   -5000001    1    1    2    0    0  0.51514111422E+02 -0.42125458282E+02  0.24752428176E+01  0.10180071089E+03  0.77000000000E+02 0.  0.
<mgrwt>
<rscale>  0 0.20622747E+03</rscale>
<asrwt>0</asrwt>
<pdfrwt beam="1">  1        2 0.17752553E-01 0.20622747E+03</pdfrwt>
<pdfrwt beam="2">  1       -2 0.12222953E-01 0.20622747E+03</pdfrwt>
<totfact> 0.14802995E+04</totfact>
</mgrwt>
</event>
<event>
 4    1  0.1300812E-003  0.3930641E+03  0.7818608E-02  0.1046208E+00
         -2   -1    0    0    0  501 -0.00000000000E+00  0.00000000000E+00  0.99736744405E+02  0.99736744438E+02  0.25500000000E-02 0. -1.
          2   -1    0    0  501    0  0.00000000000E+00 -0.00000000000E+00 -0.38726787665E+03  0.38726787666E+03  0.25500000000E-02 0.  1.
    5000001    1    1    2    0    0  0.17753265462E+02 -0.13322828100E+03  0.61010971743E+01  0.15501992349E+03  0.77000000000E+02 0.  0.
   -5000001    1    1    2    0    0 -0.17753265462E+02  0.13322828100E+03 -0.29363222942E+03  0.33198469761E+03  0.77000000000E+02 0.  0.
<mgrwt>
<rscale>  0 0.39306405E+03</rscale>
<asrwt>0</asrwt>
<pdfrwt beam="1">  1        2 0.55323981E-01 0.39306405E+03</pdfrwt>
<pdfrwt beam="2">  1       -2 0.14248107E-01 0.39306405E+03</pdfrwt>
<totfact> 0.33678610E+03</totfact>
</mgrwt>
</event>
<event>
 4    1  0.1300812E-003  0.2859033E+03  0.7818608E-02  0.1092508E+00
          2   -1    0    0  501    0  0.00000000000E+00  0.00000000000E+00  0.56865381643E+03  0.56865381643E+03  0.25500000000E-02 0.  1.
         -2   -1    0    0    0  501 -0.00000000000E+00 -0.00000000000E+00 -0.35936050137E+02  0.35936050228E+02  0.25500000000E-02 0. -1.
    5000001    1    1    2    0    0 -0.95071171837E+02  0.52530479090E+02  0.15631103996E+03  0.20532929689E+03  0.77000000000E+02 0.  0.
   -5000001    1    1    2    0    0  0.95071171837E+02 -0.52530479090E+02  0.37640672633E+03  0.39926056977E+03  0.77000000000E+02 0.  0.
<mgrwt>
<rscale>  0 0.28590328E+03</rscale>
<asrwt>0</asrwt>
<pdfrwt beam="1">  1        2 0.81236252E-01 0.28590328E+03</pdfrwt>
<pdfrwt beam="2">  1       -2 0.51337219E-02 0.28590328E+03</pdfrwt>
<totfact> 0.10964451E+04</totfact>
</mgrwt>
</event>
<event>
 4    1  0.1300812E-003  0.3239995E+03  0.7818608E-02  0.1073823E+00
         -2   -1    0    0    0  501 -0.00000000000E+00  0.00000000000E+00  0.16826347718E+02  0.16826347912E+02  0.25500000000E-02 0. -1.
          2   -1    0    0  501    0  0.00000000000E+00 -0.00000000000E+00 -0.15596917431E+04  0.15596917431E+04  0.25500000000E-02 0.  1.
    5000001    1    1    2    0    0  0.87499488272E+02  0.11208388349E+03 -0.72376808411E+03  0.74161189106E+03  0.77000000000E+02 0.  0.
   -5000001    1    1    2    0    0 -0.87499488272E+02 -0.11208388349E+03 -0.81909731124E+03  0.83490619992E+03  0.77000000000E+02 0.  0.
<mgrwt>
<rscale>  0 0.32399948E+03</rscale>
<asrwt>0</asrwt>
<pdfrwt beam="1">  1        2 0.22281301E+00 0.32399948E+03</pdfrwt>
<pdfrwt beam="2">  1       -2 0.24037650E-02 0.32399948E+03</pdfrwt>
<totfact> 0.86007178E+03</totfact>
</mgrwt>
</event>
<event>
 4    1  0.1300812E-003  0.1860930E+03  0.7818608E-02  0.1162033E+00
         -2   -1    0    0    0  501 -0.00000000000E+00  0.00000000000E+00  0.33709942336E+01  0.33709951981E+01  0.25500000000E-02 0. -1.
          2   -1    0    0  501    0  0.00000000000E+00 -0.00000000000E+00 -0.25682785727E+04  0.25682785727E+04  0.25500000000E-02 0.  1.
    5000001    1    1    2    0    0  0.19375790350E+02 -0.48472125354E+02 -0.13089826654E+04  0.13122841104E+04  0.77000000000E+02 0.  0.
   -5000001    1    1    2    0    0 -0.19375790350E+02  0.48472125354E+02 -0.12559249130E+04  0.12593654574E+04  0.77000000000E+02 0.  0.
<mgrwt>
<rscale>  0 0.18609303E+03</rscale>
<asrwt>0</asrwt>
<pdfrwt beam="1">  1        2 0.36689569E+00 0.18609303E+03</pdfrwt>
<pdfrwt beam="2">  1       -2 0.48157232E-03 0.18609303E+03</pdfrwt>
<totfact> 0.28013301E+04</totfact>
</mgrwt>
</event>
<event>
 4    1  0.1300812E-003  0.2220111E+03  0.7818608E-02  0.1132393E+00
          2   -1    0    0  501    0  0.00000000000E+00  0.00000000000E+00  0.36299197007E+03  0.36299197008E+03  0.25500000000E-02 0.  1.
         -2   -1    0    0    0  501 -0.00000000000E+00 -0.00000000000E+00 -0.33946280550E+02  0.33946280645E+02  0.25500000000E-02 0. -1.
    5000001    1    1    2    0    0 -0.29025145469E+02  0.74308407180E+02  0.15488981080E+03  0.19048373142E+03  0.77000000000E+02 0.  0.
   -5000001    1    1    2    0    0  0.29025145469E+02 -0.74308407180E+02  0.17415587872E+03  0.20645451930E+03  0.77000000000E+02 0.  0.
<mgrwt>
<rscale>  0 0.22201106E+03</rscale>
<asrwt>0</asrwt>
<pdfrwt beam="1">  1        2 0.51855994E-01 0.22201106E+03</pdfrwt>
<pdfrwt beam="2">  1       -2 0.48494688E-02 0.22201106E+03</pdfrwt>
<totfact> 0.19281255E+04</totfact>
</mgrwt>
</event>
<event>
 4    1  0.1300812E-003  0.2845533E+03  0.7818608E-02  0.1093228E+00
         -2   -1    0    0    0  501 -0.00000000000E+00  0.00000000000E+00  0.16873633961E+02  0.16873634154E+02  0.25500000000E-02 0. -1.
          2   -1    0    0  501    0  0.00000000000E+00 -0.00000000000E+00 -0.11996613429E+04  0.11996613429E+04  0.25500000000E-02 0.  1.
    5000001    1    1    2    0    0 -0.11597284167E+03 -0.23356182106E+02 -0.51510316738E+03  0.53409314196E+03  0.77000000000E+02 0.  0.
   -5000001    1    1    2    0    0  0.11597284167E+03  0.23356182106E+02 -0.66768454154E+03  0.68244183508E+03  0.77000000000E+02 0.  0.
<mgrwt>
<rscale>  0 0.28455331E+03</rscale>
<asrwt>0</asrwt>
<pdfrwt beam="1">  1        2 0.17138014E+00 0.28455331E+03</pdfrwt>
<pdfrwt beam="2">  1       -2 0.24105199E-02 0.28455331E+03</pdfrwt>
<totfact> 0.13145748E+04</totfact>
</mgrwt>
</event>
<event>
 4    1  0.1300812E-003  0.1902434E+03  0.7818608E-02  0.1158242E+00
          2   -1    0    0  501    0  0.00000000000E+00  0.00000000000E+00  0.68796394332E+03  0.68796394332E+03  0.25500000000E-02 0.  1.
         -2   -1    0    0    0  501 -0.00000000000E+00 -0.00000000000E+00 -0.13152049336E+02  0.13152049583E+02  0.25500000000E-02 0. -1.
    5000001    1    1    2    0    0 -0.42506052803E+01 -0.54823179208E+02  0.37341841423E+03  0.38521936700E+03  0.77000000000E+02 0.  0.
   -5000001    1    1    2    0    0  0.42506052803E+01  0.54823179208E+02  0.30139347975E+03  0.31589662591E+03  0.77000000000E+02 0.  0.
<mgrwt>
<rscale>  0 0.19024338E+03</rscale>
<asrwt>0</asrwt>
<pdfrwt beam="1">  1        2 0.98280598E-01 0.19024338E+03</pdfrwt>
<pdfrwt beam="2">  1       -2 0.18788636E-02 0.19024338E+03</pdfrwt>
<totfact> 0.38332026E+04</totfact>
</mgrwt>
</event>
<event>
 4    1  0.1300812E-003  0.3249516E+03  0.7818608E-02  0.1073393E+00
         -2   -1    0    0    0  501 -0.00000000000E+00  0.00000000000E+00  0.10909901789E+02  0.10909902087E+02  0.25500000000E-02 0. -1.
          2   -1    0    0  501    0  0.00000000000E+00 -0.00000000000E+00 -0.24196723245E+04  0.24196723245E+04  0.25500000000E-02 0.  1.
    5000001    1    1    2    0    0 -0.11425295587E+03 -0.75615027884E+02 -0.89615988115E+03  0.90983674522E+03  0.77000000000E+02 0.  0.
   -5000001    1    1    2    0    0  0.11425295587E+03  0.75615027884E+02 -0.15126025416E+04  0.15207454814E+04  0.77000000000E+02 0.  0.
<mgrwt>
<rscale>  0 0.32495161E+03</rscale>
<asrwt>0</asrwt>
<pdfrwt beam="1">  1        2 0.34566713E+00 0.32495161E+03</pdfrwt>
<pdfrwt beam="2">  1       -2 0.15585590E-02 0.32495161E+03</pdfrwt>
<totfact> 0.61320755E+03</totfact>
</mgrwt>
</event>
<event>
 4    1  0.1300812E-003  0.1873310E+03  0.7818608E-02  0.1160891E+00
         -2   -1    0    0    0  501 -0.00000000000E+00  0.00000000000E+00  0.84189949707E+01  0.84189953569E+01  0.25500000000E-02 0. -1.
          2   -1    0    0  501    0  0.00000000000E+00 -0.00000000000E+00 -0.10420749458E+04  0.10420749458E+04  0.25500000000E-02 0.  1.
    5000001    1    1    2    0    0 -0.37072681174E+02  0.21443102786E+02 -0.69504609476E+03  0.70060849566E+03  0.77000000000E+02 0.  0.
   -5000001    1    1    2    0    0  0.37072681174E+02 -0.21443102786E+02 -0.33860985604E+03  0.34988544548E+03  0.77000000000E+02 0.  0.
<mgrwt>
<rscale>  0 0.18733098E+03</rscale>
<asrwt>0</asrwt>
<pdfrwt beam="1">  1        2 0.14886777E+00 0.18733098E+03</pdfrwt>
<pdfrwt beam="2">  1       -2 0.12027143E-02 0.18733098E+03</pdfrwt>
<totfact> 0.43412701E+04</totfact>
</mgrwt>
</event>
<event>
 4    1  0.1300812E-003  0.4942939E+03  0.7818608E-02  0.1015279E+00
          2   -1    0    0  501    0  0.00000000000E+00  0.00000000000E+00  0.24483373993E+04  0.24483373993E+04  0.25500000000E-02 0.  1.
         -2   -1    0    0    0  501 -0.00000000000E+00 -0.00000000000E+00 -0.24948205366E+02  0.24948205497E+02  0.25500000000E-02 0. -1.
    5000001    1    1    2    0    0 -0.19736528760E+03  0.10538129488E+03  0.85455879485E+03  0.88671190807E+03  0.77000000000E+02 0.  0.
   -5000001    1    1    2    0    0  0.19736528760E+03 -0.10538129488E+03  0.15688303991E+04  0.15865736967E+04  0.77000000000E+02 0.  0.
<mgrwt>
<rscale>  0 0.49429394E+03</rscale>
<asrwt>0</asrwt>
<pdfrwt beam="1">  1        2 0.34976248E+00 0.49429394E+03</pdfrwt>
<pdfrwt beam="2">  1       -2 0.35640294E-02 0.49429394E+03</pdfrwt>
<totfact> 0.17099657E+03</totfact>
</mgrwt>
</event>
<event>
 4    1  0.1300812E-003  0.2119930E+03  0.7818608E-02  0.1139997E+00
         -2   -1    0    0    0  501 -0.00000000000E+00  0.00000000000E+00  0.42553080504E+02  0.42553080581E+02  0.25500000000E-02 0.  1.
          2   -1    0    0  501    0  0.00000000000E+00 -0.00000000000E+00 -0.26402922346E+03  0.26402922347E+03  0.25500000000E-02 0. -1.
    5000001    1    1    2    0    0  0.59312837510E+02  0.21669851923E+02 -0.58221994976E+02  0.11535335225E+03  0.77000000000E+02 0.  0.
   -5000001    1    1    2    0    0 -0.59312837510E+02 -0.21669851923E+02 -0.16325414798E+03  0.19122895180E+03  0.77000000000E+02 0.  0.
<mgrwt>
<rscale>  0 0.21199299E+03</rscale>
<asrwt>0</asrwt>
<pdfrwt beam="1">  1        2 0.37718459E-01 0.21199299E+03</pdfrwt>
<pdfrwt beam="2">  1       -2 0.60790117E-02 0.21199299E+03</pdfrwt>
<totfact> 0.19175612E+04</totfact>
</mgrwt>
</event>
<event>
 4    1  0.1300812E-003  0.2356703E+03  0.7818608E-02  0.1122711E+00
          2   -1    0    0  501    0  0.00000000000E+00  0.00000000000E+00  0.21925233494E+04  0.21925233494E+04  0.25500000000E-02 0.  1.
         -2   -1    0    0    0  501 -0.00000000000E+00 -0.00000000000E+00 -0.63329393441E+01  0.63329398575E+01  0.25500000000E-02 0. -1.
    5000001    1    1    2    0    0  0.77583407874E+02 -0.43933756913E+02  0.10688406168E+04  0.10753132680E+04  0.77000000000E+02 0.  0.
   -5000001    1    1    2    0    0 -0.77583407874E+02  0.43933756913E+02  0.11173497932E+04  0.11235430212E+04  0.77000000000E+02 0.  0.
<mgrwt>
<rscale>  0 0.23567026E+03</rscale>
<asrwt>0</asrwt>
<pdfrwt beam="1">  1        2 0.31321678E+00 0.23567026E+03</pdfrwt>
<pdfrwt beam="2">  1       -2 0.90470808E-03 0.23567026E+03</pdfrwt>
<totfact> 0.17459692E+04</totfact>
</mgrwt>
</event>
<event>
 4    1  0.1300812E-003  0.4417282E+03  0.7818608E-02  0.1030218E+00
          2   -1    0    0  501    0  0.00000000000E+00  0.00000000000E+00  0.84984451007E+03  0.84984451007E+03  0.25500000000E-02 0.  1.
         -2   -1    0    0    0  501 -0.00000000000E+00 -0.00000000000E+00 -0.57399850202E+02  0.57399850259E+02  0.25500000000E-02 0. -1.
    5000001    1    1    2    0    0 -0.11881202685E+03 -0.13167373219E+03  0.61549139227E+03  0.64514566063E+03  0.77000000000E+02 0.  0.
   -5000001    1    1    2    0    0  0.11881202685E+03  0.13167373219E+03  0.17695326760E+03  0.26209869970E+03  0.77000000000E+02 0.  0.
<mgrwt>
<rscale>  0 0.44172819E+03</rscale>
<asrwt>0</asrwt>
<pdfrwt beam="1">  1        2 0.12140635E+00 0.44172819E+03</pdfrwt>
<pdfrwt beam="2">  1       -2 0.81999789E-02 0.44172819E+03</pdfrwt>
<totfact> 0.33037560E+03</totfact>
</mgrwt>
</event>
<event>
 4    1  0.1300812E-003  0.2625323E+03  0.7818608E-02  0.1105631E+00
         -2   -1    0    0    0  501 -0.00000000000E+00  0.00000000000E+00  0.19879962029E+02  0.19879962193E+02  0.25500000000E-02 0. -1.
          2   -1    0    0  501    0  0.00000000000E+00 -0.00000000000E+00 -0.86674243042E+03  0.86674243042E+03  0.25500000000E-02 0.  1.
    5000001    1    1    2    0    0 -0.79460756457E+02 -0.63801042955E+02 -0.52571178890E+03  0.54100505532E+03  0.77000000000E+02 0.  0.
   -5000001    1    1    2    0    0  0.79460756457E+02  0.63801042955E+02 -0.32115067949E+03  0.34561733729E+03  0.77000000000E+02 0.  0.
<mgrwt>
<rscale>  0 0.26253233E+03</rscale>
<asrwt>0</asrwt>
<pdfrwt beam="1">  1        2 0.12382032E+00 0.26253233E+03</pdfrwt>
<pdfrwt beam="2">  1       -2 0.28399951E-02 0.26253233E+03</pdfrwt>
<totfact> 0.16081871E+04</totfact>
</mgrwt>
</event>
<event>
 4    1  0.1300812E-003  0.2376541E+03  0.7818608E-02  0.1121366E+00
         -2   -1    0    0    0  501 -0.00000000000E+00  0.00000000000E+00  0.16269448435E+03  0.16269448437E+03  0.25500000000E-02 0. -1.
          2   -1    0    0  501    0  0.00000000000E+00 -0.00000000000E+00 -0.86787600014E+02  0.86787600052E+02  0.25500000000E-02 0.  1.
    5000001    1    1    2    0    0  0.59543349488E+01 -0.90124625687E+02  0.43980399583E+02  0.12657479136E+03  0.77000000000E+02 0.  0.
   -5000001    1    1    2    0    0 -0.59543349488E+01  0.90124625687E+02  0.31926484754E+02  0.12290729307E+03  0.77000000000E+02 0.  0.
<mgrwt>
<rscale>  0 0.23765407E+03</rscale>
<asrwt>0</asrwt>
<pdfrwt beam="1">  1        2 0.12398229E-01 0.23765407E+03</pdfrwt>
<pdfrwt beam="2">  1       -2 0.23242069E-01 0.23765407E+03</pdfrwt>
<totfact> 0.77995340E+03</totfact>
</mgrwt>
</event>
<event>
 4    1  0.1300812E-003  0.2184679E+03  0.7818608E-02  0.1135030E+00
         -2   -1    0    0    0  501 -0.00000000000E+00  0.00000000000E+00  0.11610031065E+03  0.11610031068E+03  0.25500000000E-02 0. -1.
          2   -1    0    0  501    0  0.00000000000E+00 -0.00000000000E+00 -0.10277368059E+03  0.10277368062E+03  0.25500000000E-02 0.  1.
    5000001    1    1    2    0    0 -0.17393298814E+02 -0.20303895984E+02  0.79519057206E+02  0.11387297965E+03  0.77000000000E+02 0.  0.
   -5000001    1    1    2    0    0  0.17393298814E+02  0.20303895984E+02 -0.66192427141E+02  0.10500101165E+03  0.77000000000E+02 0.  0.
<mgrwt>
<rscale>  0 0.21846790E+03</rscale>
<asrwt>0</asrwt>
<pdfrwt beam="1">  1        2 0.14681954E-01 0.21846790E+03</pdfrwt>
<pdfrwt beam="2">  1       -2 0.16585759E-01 0.21846790E+03</pdfrwt>
<totfact> 0.11259507E+04</totfact>
</mgrwt>
</event>
<event>
 4    1  0.1300812E-003  0.3278007E+03  0.7818608E-02  0.1072114E+00
          2   -1    0    0  501    0  0.00000000000E+00  0.00000000000E+00  0.27955645051E+03  0.27955645052E+03  0.25500000000E-02 0.  1.
         -2   -1    0    0    0  501 -0.00000000000E+00 -0.00000000000E+00 -0.96092649316E+02  0.96092649350E+02  0.25500000000E-02 0. -1.
    5000001    1    1    2    0    0  0.38915609673E+02 -0.11523748027E+03  0.18152943763E+03  0.23168089749E+03  0.77000000000E+02 0.  0.
   -5000001    1    1    2    0    0 -0.38915609673E+02  0.11523748027E+03  0.19343635636E+01  0.14396820238E+03  0.77000000000E+02 0.  0.
<mgrwt>
<rscale>  0 0.32780067E+03</rscale>
<asrwt>0</asrwt>
<pdfrwt beam="1">  1        2 0.39936636E-01 0.32780067E+03</pdfrwt>
<pdfrwt beam="2">  1       -2 0.13727521E-01 0.32780067E+03</pdfrwt>
<totfact> 0.50818155E+03</totfact>
</mgrwt>
</event>
<event>
 4    1  0.1300812E-003  0.2031342E+03  0.7818608E-02  0.1147121E+00
          2   -1    0    0  501    0  0.00000000000E+00  0.00000000000E+00  0.29942118520E+03  0.29942118521E+03  0.25500000000E-02 0.  1.
         -2   -1    0    0    0  501 -0.00000000000E+00 -0.00000000000E+00 -0.34452708256E+02  0.34452708350E+02  0.25500000000E-02 0. -1.
    5000001    1    1    2    0    0 -0.55163407534E+02  0.36305696180E+02  0.12414128004E+03  0.16031582116E+03  0.77000000000E+02 0.  0.
   -5000001    1    1    2    0    0  0.55163407534E+02 -0.36305696180E+02  0.14082719691E+03  0.17355807240E+03  0.77000000000E+02 0.  0.
<mgrwt>
<rscale>  0 0.20313415E+03</rscale>
<asrwt>0</asrwt>
<pdfrwt beam="1">  1        2 0.42774458E-01 0.20313415E+03</pdfrwt>
<pdfrwt beam="2">  1       -2 0.49218152E-02 0.20313415E+03</pdfrwt>
<totfact> 0.23023115E+04</totfact>
</mgrwt>
</event>
<event>
 4    1  0.1300812E-003  0.3485839E+03  0.7818608E-02  0.1063198E+00
         -2   -1    0    0    0  501 -0.00000000000E+00  0.00000000000E+00  0.20747296531E+02  0.20747296687E+02  0.25500000000E-02 0. -1.
          2   -1    0    0  501    0  0.00000000000E+00 -0.00000000000E+00 -0.14641751805E+04  0.14641751805E+04  0.25500000000E-02 0.  1.
    5000001    1    1    2    0    0 -0.14910629095E+03  0.47055110677E+02 -0.71598711674E+03  0.73689444345E+03  0.77000000000E+02 0.  0.
   -5000001    1    1    2    0    0  0.14910629095E+03 -0.47055110677E+02 -0.72744076718E+03  0.74802803370E+03  0.77000000000E+02 0.  0.
<mgrwt>
<rscale>  0 0.34858386E+03</rscale>
<asrwt>0</asrwt>
<pdfrwt beam="1">  1        2 0.20916782E+00 0.34858386E+03</pdfrwt>
<pdfrwt beam="2">  1       -2 0.29639004E-02 0.34858386E+03</pdfrwt>
<totfact> 0.70448849E+03</totfact>
</mgrwt>
</event>
<event>
 4    1  0.1300812E-003  0.4642992E+03  0.7818608E-02  0.1023542E+00
         -2   -1    0    0    0  501 -0.00000000000E+00  0.00000000000E+00  0.85693008303E+02  0.85693008341E+02  0.25500000000E-02 0. -1.
          2   -1    0    0  501    0  0.00000000000E+00 -0.00000000000E+00 -0.62891291792E+03  0.62891291792E+03  0.25500000000E-02 0.  1.
    5000001    1    1    2    0    0  0.17524621603E+03  0.97696391799E+02 -0.13647834580E+03  0.25458036074E+03  0.77000000000E+02 0.  0.
   -5000001    1    1    2    0    0 -0.17524621603E+03 -0.97696391799E+02 -0.40674156381E+03  0.46002556552E+03  0.77000000000E+02 0.  0.
<mgrwt>
<rscale>  0 0.46429921E+03</rscale>
<asrwt>0</asrwt>
<pdfrwt beam="1">  1        2 0.89844700E-01 0.46429921E+03</pdfrwt>
<pdfrwt beam="2">  1       -2 0.12241859E-01 0.46429921E+03</pdfrwt>
<totfact> 0.25096555E+03</totfact>
</mgrwt>
</event>
<event>
 4    1  0.1300812E-003  0.1897635E+03  0.7818608E-02  0.1158675E+00
          2   -1    0    0  501    0  0.00000000000E+00  0.00000000000E+00  0.13942788727E+03  0.13942788730E+03  0.25500000000E-02 0.  1.
         -2   -1    0    0    0  501 -0.00000000000E+00 -0.00000000000E+00 -0.64567742581E+02  0.64567742632E+02  0.25500000000E-02 0. -1.
    5000001    1    1    2    0    0  0.54256125792E+01  0.50367132964E+02  0.61641642054E+02  0.11088271908E+03  0.77000000000E+02 0.  0.
   -5000001    1    1    2    0    0 -0.54256125792E+01 -0.50367132964E+02  0.13218502636E+02  0.93112910849E+02  0.77000000000E+02 0.  0.
<mgrwt>
<rscale>  0 0.18976347E+03</rscale>
<asrwt>0</asrwt>
<pdfrwt beam="1">  1        2 0.19918269E-01 0.18976347E+03</pdfrwt>
<pdfrwt beam="2">  1       -2 0.92239633E-02 0.18976347E+03</pdfrwt>
<totfact> 0.20166852E+04</totfact>
</mgrwt>
</event>
<event>
 4    1  0.1300812E-003  0.2400209E+03  0.7818608E-02  0.1119779E+00
          2   -1    0    0  501    0  0.00000000000E+00  0.00000000000E+00  0.81746810368E+02  0.81746810407E+02  0.25500000000E-02 0.  1.
         -2   -1    0    0    0  501 -0.00000000000E+00 -0.00000000000E+00 -0.17618438803E+03  0.17618438805E+03  0.25500000000E-02 0. -1.
    5000001    1    1    2    0    0 -0.19729357880E+02 -0.76977734651E+02 -0.97147477461E+02  0.14724622770E+03  0.77000000000E+02 0.  0.
   -5000001    1    1    2    0    0  0.19729357880E+02  0.76977734651E+02  0.27098997998E+01  0.11068497076E+03  0.77000000000E+02 0.  0.
<mgrwt>
<rscale>  0 0.24002093E+03</rscale>
<asrwt>0</asrwt>
<pdfrwt beam="1">  1        2 0.11678116E-01 0.24002093E+03</pdfrwt>
<pdfrwt beam="2">  1       -2 0.25169198E-01 0.24002093E+03</pdfrwt>
<totfact> 0.72981917E+03</totfact>
</mgrwt>
</event>
<event>
 4    1  0.1300812E-003  0.4273824E+03  0.7818608E-02  0.1034690E+00
          2   -1    0    0  501    0  0.00000000000E+00  0.00000000000E+00  0.20074554639E+04  0.20074554639E+04  0.25500000000E-02 0.  1.
         -2   -1    0    0    0  501 -0.00000000000E+00 -0.00000000000E+00 -0.22747169102E+02  0.22747169245E+02  0.25500000000E-02 0. -1.
    5000001    1    1    2    0    0 -0.31398360100E+01  0.10074001191E+03  0.17540261293E+03  0.21645665892E+03  0.77000000000E+02 0.  0.
   -5000001    1    1    2    0    0  0.31398360100E+01 -0.10074001191E+03  0.18093056818E+04  0.18137459742E+04  0.77000000000E+02 0.  0.
<mgrwt>
<rscale>  0 0.42738240E+03</rscale>
<asrwt>0</asrwt>
<pdfrwt beam="1">  1        2 0.28677936E+00 0.42738240E+03</pdfrwt>
<pdfrwt beam="2">  1       -2 0.32495956E-02 0.42738240E+03</pdfrwt>
<totfact> 0.32794174E+03</totfact>
</mgrwt>
</event>
<event>
 4    1  0.1300812E-003  0.3236483E+03  0.7818608E-02  0.1073982E+00
         -2   -1    0    0    0  501 -0.00000000000E+00  0.00000000000E+00  0.20979373923E+02  0.20979374078E+02  0.25500000000E-02 0. -1.
          2   -1    0    0  501    0  0.00000000000E+00 -0.00000000000E+00 -0.12482283735E+04  0.12482283735E+04  0.25500000000E-02 0.  1.
    5000001    1    1    2    0    0 -0.83593974091E+02  0.10575244571E+03 -0.43449362021E+03  0.46139488324E+03  0.77000000000E+02 0.  0.
   -5000001    1    1    2    0    0  0.83593974091E+02 -0.10575244571E+03 -0.79275537936E+03  0.80781286433E+03  0.77000000000E+02 0.  0.
<mgrwt>
<rscale>  0 0.32364827E+03</rscale>
<asrwt>0</asrwt>
<pdfrwt beam="1">  1        2 0.17831829E+00 0.32364827E+03</pdfrwt>
<pdfrwt beam="2">  1       -2 0.29970542E-02 0.32364827E+03</pdfrwt>
<totfact> 0.89813297E+03</totfact>
</mgrwt>
</event>
<event>
 4    1  0.1300812E-003  0.7307715E+03  0.7818608E-02  0.9666009E-01
         -2   -1    0    0    0  501 -0.00000000000E+00  0.00000000000E+00  0.21625802122E+03  0.21625802123E+03  0.25500000000E-02 0. -1.
          2   -1    0    0  501    0  0.00000000000E+00 -0.00000000000E+00 -0.61734926043E+03  0.61734926043E+03  0.25500000000E-02 0.  1.
    5000001    1    1    2    0    0 -0.19811532698E+03  0.24711335989E+03 -0.38889622409E+03  0.50742878174E+03  0.77000000000E+02 0.  0.
   -5000001    1    1    2    0    0  0.19811532698E+03 -0.24711335989E+03 -0.12195015120E+02  0.32617849993E+03  0.77000000000E+02 0.  0.
<mgrwt>
<rscale>  0 0.73077145E+03</rscale>
<asrwt>0</asrwt>
<pdfrwt beam="1">  1        2 0.88192751E-01 0.73077145E+03</pdfrwt>
<pdfrwt beam="2">  1       -2 0.30894003E-01 0.73077145E+03</pdfrwt>
<totfact> 0.51110924E+02</totfact>
</mgrwt>
</event>
<event>
 4    1  0.1300812E-003  0.2610741E+03  0.7818608E-02  0.1106500E+00
         -2   -1    0    0    0  501 -0.00000000000E+00  0.00000000000E+00  0.62899722562E+01  0.62899727731E+01  0.25500000000E-02 0. -1.
          2   -1    0    0  501    0  0.00000000000E+00 -0.00000000000E+00 -0.27090620919E+04  0.27090620919E+04  0.25500000000E-02 0.  1.
    5000001    1    1    2    0    0  0.37920207841E+02  0.96550865631E+02 -0.11565529235E+04  0.11637455377E+04  0.77000000000E+02 0.  0.
   -5000001    1    1    2    0    0 -0.37920207841E+02 -0.96550865631E+02 -0.15462191962E+04  0.15516065269E+04  0.77000000000E+02 0.  0.
<mgrwt>
<rscale>  0 0.26107414E+03</rscale>
<asrwt>0</asrwt>
<pdfrwt beam="1">  1        2 0.38700813E+00 0.26107414E+03</pdfrwt>
<pdfrwt beam="2">  1       -2 0.89856923E-03 0.26107414E+03</pdfrwt>
<totfact> 0.97912773E+03</totfact>
</mgrwt>
</event>
<event>
 4    1  0.1300812E-003  0.2320926E+03  0.7818608E-02  0.1125175E+00
          2   -1    0    0  501    0  0.00000000000E+00  0.00000000000E+00  0.20013278458E+04  0.20013278458E+04  0.25500000000E-02 0.  1.
         -2   -1    0    0    0  501 -0.00000000000E+00 -0.00000000000E+00 -0.67289068452E+01  0.67289073284E+01  0.25500000000E-02 0. -1.
    5000001    1    1    2    0    0 -0.45718312888E+02  0.19267719533E+02  0.16137382501E+04  0.16163358404E+04  0.77000000000E+02 0.  0.
   -5000001    1    1    2    0    0  0.45718312888E+02 -0.19267719533E+02  0.38086068886E+03  0.39172091272E+03  0.77000000000E+02 0.  0.
<mgrwt>
<rscale>  0 0.23209265E+03</rscale>
<asrwt>0</asrwt>
<pdfrwt beam="1">  1        2 0.28590367E+00 0.23209265E+03</pdfrwt>
<pdfrwt beam="2">  1       -2 0.96127349E-03 0.23209265E+03</pdfrwt>
<totfact> 0.19793186E+04</totfact>
</mgrwt>
</event>
<event>
 4    1  0.1300812E-003  0.3290601E+03  0.7818608E-02  0.1071553E+00
         -2   -1    0    0    0  501 -0.00000000000E+00  0.00000000000E+00  0.13171767019E+02  0.13171767266E+02  0.25500000000E-02 0. -1.
          2   -1    0    0  501    0  0.00000000000E+00 -0.00000000000E+00 -0.20551639676E+04  0.20551639676E+04  0.25500000000E-02 0.  1.
    5000001    1    1    2    0    0  0.66677945752E+02 -0.76542960028E+02 -0.36667993126E+03  0.38818545203E+03  0.77000000000E+02 0.  0.
   -5000001    1    1    2    0    0 -0.66677945752E+02  0.76542960028E+02 -0.16753122693E+04  0.16801502829E+04  0.77000000000E+02 0.  0.
<mgrwt>
<rscale>  0 0.32906012E+03</rscale>
<asrwt>0</asrwt>
<pdfrwt beam="1">  1        2 0.29359465E+00 0.32906012E+03</pdfrwt>
<pdfrwt beam="2">  1       -2 0.18816823E-02 0.32906012E+03</pdfrwt>
<totfact> 0.70318989E+03</totfact>
</mgrwt>
</event>
<event>
 4    1  0.1300812E-003  0.2032473E+03  0.7818608E-02  0.1147028E+00
         -2   -1    0    0    0  501 -0.00000000000E+00  0.00000000000E+00  0.27648804925E+01  0.27648816684E+01  0.25500000000E-02 0. -1.
          2   -1    0    0  501    0  0.00000000000E+00 -0.00000000000E+00 -0.37351949590E+04  0.37351949590E+04  0.25500000000E-02 0.  1.
    5000001    1    1    2    0    0 -0.49279878406E+01 -0.65102494437E+02 -0.16519359762E+04  0.16550178517E+04  0.77000000000E+02 0.  0.
   -5000001    1    1    2    0    0  0.49279878406E+01  0.65102494437E+02 -0.20804941023E+04  0.20829419890E+04  0.77000000000E+02 0.  0.
<mgrwt>
<rscale>  0 0.20324734E+03</rscale>
<asrwt>0</asrwt>
<pdfrwt beam="1">  1        2 0.53359604E+00 0.20324734E+03</pdfrwt>
<pdfrwt beam="2">  1       -2 0.39498541E-03 0.20324734E+03</pdfrwt>
<totfact> 0.86964177E+03</totfact>
</mgrwt>
</event>
<event>
 4    1  0.1300812E-003  0.2110896E+03  0.7818608E-02  0.1140706E+00
          2   -1    0    0  501    0  0.00000000000E+00  0.00000000000E+00  0.10509946707E+04  0.10509946707E+04  0.25500000000E-02 0.  1.
         -2   -1    0    0    0  501 -0.00000000000E+00 -0.00000000000E+00 -0.10599199342E+02  0.10599199649E+02  0.25500000000E-02 0. -1.
    5000001    1    1    2    0    0  0.30491804438E+02  0.59827409053E+02  0.38698471569E+03  0.40024397458E+03  0.77000000000E+02 0.  0.
   -5000001    1    1    2    0    0 -0.30491804438E+02 -0.59827409053E+02  0.65341075562E+03  0.66134989572E+03  0.77000000000E+02 0.  0.
<mgrwt>
<rscale>  0 0.21108958E+03</rscale>
<asrwt>0</asrwt>
<pdfrwt beam="1">  1        2 0.15014211E+00 0.21108958E+03</pdfrwt>
<pdfrwt beam="2">  1       -2 0.15141712E-02 0.21108958E+03</pdfrwt>
<totfact> 0.30997017E+04</totfact>
</mgrwt>
</event>
<event>
 4    1  0.1300812E-003  0.2361504E+03  0.7818608E-02  0.1122384E+00
         -2   -1    0    0    0  501 -0.00000000000E+00  0.00000000000E+00  0.23424050830E+02  0.23424050969E+02  0.25500000000E-02 0. -1.
          2   -1    0    0  501    0  0.00000000000E+00 -0.00000000000E+00 -0.59518988310E+03  0.59518988311E+03  0.25500000000E-02 0.  1.
    5000001    1    1    2    0    0  0.68464651054E+02  0.54878008891E+02 -0.23948211928E+03  0.26642013767E+03  0.77000000000E+02 0.  0.
   -5000001    1    1    2    0    0 -0.68464651054E+02 -0.54878008891E+02 -0.33228371300E+03  0.35219379641E+03  0.77000000000E+02 0.  0.
<mgrwt>
<rscale>  0 0.23615044E+03</rscale>
<asrwt>0</asrwt>
<pdfrwt beam="1">  1        2 0.85027117E-01 0.23615044E+03</pdfrwt>
<pdfrwt beam="2">  1       -2 0.33462934E-02 0.23615044E+03</pdfrwt>
<totfact> 0.19647948E+04</totfact>
</mgrwt>
</event>
<event>
 4    1  0.1300812E-003  0.2242416E+03  0.7818608E-02  0.1130760E+00
         -2   -1    0    0    0  501 -0.00000000000E+00  0.00000000000E+00  0.11934414111E+02  0.11934414383E+02  0.25500000000E-02 0. -1.
          2   -1    0    0  501    0  0.00000000000E+00 -0.00000000000E+00 -0.10533462229E+04  0.10533462229E+04  0.25500000000E-02 0.  1.
    5000001    1    1    2    0    0 -0.79877114660E+02  0.10022584799E+01 -0.59741177324E+03  0.60762750496E+03  0.77000000000E+02 0.  0.
   -5000001    1    1    2    0    0  0.79877114660E+02 -0.10022584799E+01 -0.44400003556E+03  0.45765313235E+03  0.77000000000E+02 0.  0.
<mgrwt>
<rscale>  0 0.22424157E+03</rscale>
<asrwt>0</asrwt>
<pdfrwt beam="1">  1        2 0.15047797E+00 0.22424157E+03</pdfrwt>
<pdfrwt beam="2">  1       -2 0.17049170E-02 0.22424157E+03</pdfrwt>
<totfact> 0.26093725E+04</totfact>
</mgrwt>
</event>
<event>
 4    1  0.1300812E-003  0.3080883E+03  0.7818608E-02  0.1081266E+00
          2   -1    0    0  501    0  0.00000000000E+00  0.00000000000E+00  0.55859402025E+02  0.55859402084E+02  0.25500000000E-02 0.  1.
         -2   -1    0    0    0  501 -0.00000000000E+00 -0.00000000000E+00 -0.42480932298E+03  0.42480932299E+03  0.25500000000E-02 0. -1.
    5000001    1    1    2    0    0 -0.51869853410E+02 -0.79008019438E+02 -0.37555346445E+02  0.12756234897E+03  0.77000000000E+02 0.  0.
   -5000001    1    1    2    0    0  0.51869853410E+02  0.79008019438E+02 -0.33139457451E+03  0.35310637610E+03  0.77000000000E+02 0.  0.
<mgrwt>
<rscale>  0 0.30808827E+03</rscale>
<asrwt>0</asrwt>
<pdfrwt beam="1">  1        2 0.79799149E-02 0.30808827E+03</pdfrwt>
<pdfrwt beam="2">  1       -2 0.60687044E-01 0.30808827E+03</pdfrwt>
<totfact> 0.22073364E+03</totfact>
</mgrwt>
</event>
<event>
 4    1  0.1300812E-003  0.2020133E+03  0.7818608E-02  0.1148051E+00
         -2   -1    0    0    0  501 -0.00000000000E+00  0.00000000000E+00  0.20692132295E+02  0.20692132453E+02  0.25500000000E-02 0. -1.
          2   -1    0    0  501    0  0.00000000000E+00 -0.00000000000E+00 -0.49305446913E+03  0.49305446914E+03  0.25500000000E-02 0.  1.
    5000001    1    1    2    0    0 -0.41096461862E+02  0.45046802154E+02 -0.29610497637E+03  0.31197001553E+03  0.77000000000E+02 0.  0.
   -5000001    1    1    2    0    0  0.41096461862E+02 -0.45046802154E+02 -0.17625736047E+03  0.20177658606E+03  0.77000000000E+02 0.  0.
<mgrwt>
<rscale>  0 0.20201335E+03</rscale>
<asrwt>0</asrwt>
<pdfrwt beam="1">  1        2 0.70436345E-01 0.20201335E+03</pdfrwt>
<pdfrwt beam="2">  1       -2 0.29560192E-02 0.20201335E+03</pdfrwt>
<totfact> 0.28823083E+04</totfact>
</mgrwt>
</event>
<event>
 4    1  0.1300812E-003  0.7128381E+03  0.7818608E-02  0.9695526E-01
         -2   -1    0    0    0  501 -0.00000000000E+00  0.00000000000E+00  0.12889264992E+04  0.12889264992E+04  0.25500000000E-02 0. -1.
          2   -1    0    0  501    0  0.00000000000E+00 -0.00000000000E+00 -0.98558411649E+02  0.98558411682E+02  0.25500000000E-02 0.  1.
    5000001    1    1    2    0    0  0.31182161500E+03 -0.37607906514E+02  0.88687802875E+03  0.94399613987E+03  0.77000000000E+02 0.  0.
   -5000001    1    1    2    0    0 -0.31182161500E+03  0.37607906514E+02  0.30349005875E+03  0.44348877097E+03  0.77000000000E+02 0.  0.
<mgrwt>
<rscale>  0 0.71283813E+03</rscale>
<asrwt>0</asrwt>
<pdfrwt beam="1">  1        2 0.14079774E-01 0.71283813E+03</pdfrwt>
<pdfrwt beam="2">  1       -2 0.18413234E+00 0.71283813E+03</pdfrwt>
<totfact> 0.74849945E+01</totfact>
</mgrwt>
</event>
<event>
 4    1  0.1300812E-003  0.2607331E+03  0.7818608E-02  0.1106704E+00
          2   -1    0    0  501    0  0.00000000000E+00  0.00000000000E+00  0.34992006813E+03  0.34992006814E+03  0.25500000000E-02 0.  1.
         -2   -1    0    0    0  501 -0.00000000000E+00 -0.00000000000E+00 -0.48569474827E+02  0.48569474894E+02  0.25500000000E-02 0. -1.
    5000001    1    1    2    0    0 -0.72625072169E+02  0.67324865774E+02  0.96437525027E+02  0.15822842631E+03  0.77000000000E+02 0.  0.
   -5000001    1    1    2    0    0  0.72625072169E+02 -0.67324865774E+02  0.20491306828E+03  0.24026111673E+03  0.77000000000E+02 0.  0.
<mgrwt>
<rscale>  0 0.26073307E+03</rscale>
<asrwt>0</asrwt>
<pdfrwt beam="1">  1        2 0.49988581E-01 0.26073307E+03</pdfrwt>
<pdfrwt beam="2">  1       -2 0.69384964E-02 0.26073307E+03</pdfrwt>
<totfact> 0.11707353E+04</totfact>
</mgrwt>
</event>
<event>
 4    1  0.1300812E-003  0.2563012E+03  0.7818608E-02  0.1109386E+00
          2   -1    0    0  501    0  0.00000000000E+00  0.00000000000E+00  0.40362236787E+03  0.40362236788E+03  0.25500000000E-02 0.  1.
         -2   -1    0    0    0  501 -0.00000000000E+00 -0.00000000000E+00 -0.40687965076E+02  0.40687965156E+02  0.25500000000E-02 0. -1.
    5000001    1    1    2    0    0 -0.79596365182E+02  0.63364576527E+02  0.20219175758E+03  0.23908399725E+03  0.77000000000E+02 0.  0.
   -5000001    1    1    2    0    0  0.79596365182E+02 -0.63364576527E+02  0.16074264522E+03  0.20522633579E+03  0.77000000000E+02 0.  0.
<mgrwt>
<rscale>  0 0.25630117E+03</rscale>
<asrwt>0</asrwt>
<pdfrwt beam="1">  1        2 0.57660339E-01 0.25630117E+03</pdfrwt>
<pdfrwt beam="2">  1       -2 0.58125663E-02 0.25630117E+03</pdfrwt>
<totfact> 0.13167554E+04</totfact>
</mgrwt>
</event>
<event>
 4    1  0.1300812E-003  0.2388333E+03  0.7818608E-02  0.1120572E+00
          2   -1    0    0  501    0  0.00000000000E+00  0.00000000000E+00  0.23364515849E+03  0.23364515851E+03  0.25500000000E-02 0.  1.
         -2   -1    0    0    0  501 -0.00000000000E+00 -0.00000000000E+00 -0.61034177655E+02  0.61034177708E+02  0.25500000000E-02 0. -1.
    5000001    1    1    2    0    0 -0.50793645662E+02  0.20685269995E+02 -0.37171938637E+01  0.94608098832E+02  0.77000000000E+02 0.  0.
   -5000001    1    1    2    0    0  0.50793645662E+02 -0.20685269995E+02  0.17632817470E+03  0.20007123738E+03  0.77000000000E+02 0.  0.
<mgrwt>
<rscale>  0 0.23883333E+03</rscale>
<asrwt>0</asrwt>
<pdfrwt beam="1">  1        2 0.33377880E-01 0.23883333E+03</pdfrwt>
<pdfrwt beam="2">  1       -2 0.87191683E-02 0.23883333E+03</pdfrwt>
<totfact> 0.12617882E+04</totfact>
</mgrwt>
</event>
<event>
 4    1  0.1300812E-003  0.2305904E+03  0.7818608E-02  0.1126225E+00
         -2   -1    0    0    0  501 -0.00000000000E+00  0.00000000000E+00  0.46536064006E+02  0.46536064076E+02  0.25500000000E-02 0. -1.
          2   -1    0    0  501    0  0.00000000000E+00 -0.00000000000E+00 -0.28564916342E+03  0.28564916343E+03  0.25500000000E-02 0.  1.
    5000001    1    1    2    0    0 -0.88429340826E+01  0.61660449066E+02 -0.20458501381E+03  0.22729768221E+03  0.77000000000E+02 0.  0.
   -5000001    1    1    2    0    0  0.88429340826E+01 -0.61660449066E+02 -0.34528085596E+02  0.10488754529E+03  0.77000000000E+02 0.  0.
<mgrwt>
<rscale>  0 0.23059044E+03</rscale>
<asrwt>0</asrwt>
<pdfrwt beam="1">  1        2 0.40807022E-01 0.23059044E+03</pdfrwt>
<pdfrwt beam="2">  1       -2 0.66480093E-02 0.23059044E+03</pdfrwt>
<totfact> 0.15446345E+04</totfact>
</mgrwt>
</event>
<event>
 4    1  0.1300812E-003  0.2283660E+03  0.7818608E-02  0.1127795E+00
         -2   -1    0    0    0  501 -0.00000000000E+00  0.00000000000E+00  0.12582804320E+03  0.12582804322E+03  0.25500000000E-02 0. -1.
          2   -1    0    0  501    0  0.00000000000E+00 -0.00000000000E+00 -0.10361569930E+03  0.10361569933E+03  0.25500000000E-02 0.  1.
    5000001    1    1    2    0    0 -0.60474428787E+01 -0.83652868836E+02  0.24406992088E+01  0.11388297082E+03  0.77000000000E+02 0.  0.
   -5000001    1    1    2    0    0  0.60474428787E+01  0.83652868836E+02  0.19771644692E+02  0.11556077173E+03  0.77000000000E+02 0.  0.
<mgrwt>
<rscale>  0 0.22836603E+03</rscale>
<asrwt>0</asrwt>
<pdfrwt beam="1">  1        2 0.14802243E-01 0.22836603E+03</pdfrwt>
<pdfrwt beam="2">  1       -2 0.17975435E-01 0.22836603E+03</pdfrwt>
<totfact> 0.97727364E+03</totfact>
</mgrwt>
</event>
<event>
 4    1  0.1300812E-003  0.2301414E+03  0.7818608E-02  0.1126540E+00
         -2   -1    0    0    0  501 -0.00000000000E+00  0.00000000000E+00  0.67109872013E+03  0.67109872014E+03  0.25500000000E-02 0. -1.
          2   -1    0    0  501    0  0.00000000000E+00 -0.00000000000E+00 -0.19730722684E+02  0.19730722849E+02  0.25500000000E-02 0.  1.
    5000001    1    1    2    0    0  0.75029628409E+02 -0.40986915703E+02  0.33078734673E+03  0.35022655689E+03  0.77000000000E+02 0.  0.
   -5000001    1    1    2    0    0 -0.75029628409E+02  0.40986915703E+02  0.32058065072E+03  0.34060288609E+03  0.77000000000E+02 0.  0.
<mgrwt>
<rscale>  0 0.23014137E+03</rscale>
<asrwt>0</asrwt>
<pdfrwt beam="1">  1        2 0.28186750E-02 0.23014137E+03</pdfrwt>
<pdfrwt beam="2">  1       -2 0.95871234E-01 0.23014137E+03</pdfrwt>
<totfact> 0.31913401E+03</totfact>
</mgrwt>
</event>
<event>
 4    1  0.1300812E-003  0.1960244E+03  0.7818608E-02  0.1153137E+00
         -2   -1    0    0    0  501 -0.00000000000E+00  0.00000000000E+00  0.97520645325E+02  0.97520645358E+02  0.25500000000E-02 0. -1.
          2   -1    0    0  501    0  0.00000000000E+00 -0.00000000000E+00 -0.98506216329E+02  0.98506216362E+02  0.25500000000E-02 0.  1.
    5000001    1    1    2    0    0  0.55323958765E+02 -0.45558992710E+01  0.23918445996E+02  0.97890697671E+02  0.77000000000E+02 0.  0.
   -5000001    1    1    2    0    0 -0.55323958765E+02  0.45558992710E+01 -0.24904017001E+02  0.98136164050E+02  0.77000000000E+02 0.  0.
<mgrwt>
<rscale>  0 0.19602438E+03</rscale>
<asrwt>0</asrwt>
<pdfrwt beam="1">  1        2 0.14072317E-01 0.19602438E+03</pdfrwt>
<pdfrwt beam="2">  1       -2 0.13931521E-01 0.19602438E+03</pdfrwt>
<totfact> 0.15665350E+04</totfact>
</mgrwt>
</event>
<event>
 4    1  0.1300812E-003  0.3375960E+03  0.7818608E-02  0.1067824E+00
          2   -1    0    0  501    0  0.00000000000E+00  0.00000000000E+00  0.15384828829E+04  0.15384828829E+04  0.25500000000E-02 0.  1.
         -2   -1    0    0    0  501 -0.00000000000E+00 -0.00000000000E+00 -0.18520035148E+02  0.18520035323E+02  0.25500000000E-02 0. -1.
    5000001    1    1    2    0    0 -0.14822881446E+03  0.14792776250E+02  0.67089046235E+03  0.69152991268E+03  0.77000000000E+02 0.  0.
   -5000001    1    1    2    0    0  0.14822881446E+03 -0.14792776250E+02  0.84907238544E+03  0.86547300558E+03  0.77000000000E+02 0.  0.
<mgrwt>
<rscale>  0 0.33759595E+03</rscale>
<asrwt>0</asrwt>
<pdfrwt beam="1">  1        2 0.21978333E+00 0.33759595E+03</pdfrwt>
<pdfrwt beam="2">  1       -2 0.26457186E-02 0.33759595E+03</pdfrwt>
<totfact> 0.76475943E+03</totfact>
</mgrwt>
</event>
<event>
 4    1  0.1300812E-003  0.4097887E+03  0.7818608E-02  0.1040442E+00
          2   -1    0    0  501    0  0.00000000000E+00  0.00000000000E+00  0.97505392049E+03  0.97505392049E+03  0.25500000000E-02 0.  1.
         -2   -1    0    0    0  501 -0.00000000000E+00 -0.00000000000E+00 -0.43055763042E+02  0.43055763118E+02  0.25500000000E-02 0. -1.
    5000001    1    1    2    0    0 -0.17733845631E+03 -0.60141671609E+02  0.38795564241E+03  0.43761230471E+03  0.77000000000E+02 0.  0.
   -5000001    1    1    2    0    0  0.17733845631E+03  0.60141671609E+02  0.54404251503E+03  0.58049737890E+03  0.77000000000E+02 0.  0.
<mgrwt>
<rscale>  0 0.40978868E+03</rscale>
<asrwt>0</asrwt>
<pdfrwt beam="1">  1        2 0.13929343E+00 0.40978868E+03</pdfrwt>
<pdfrwt beam="2">  1       -2 0.61508226E-02 0.40978868E+03</pdfrwt>
<totfact> 0.43187880E+03</totfact>
</mgrwt>
</event>
<event>
 4    1  0.1300812E-003  0.4432270E+03  0.7818608E-02  0.1029761E+00
          2   -1    0    0  501    0  0.00000000000E+00  0.00000000000E+00  0.59602226496E+03  0.59602226496E+03  0.25500000000E-02 0.  1.
         -2   -1    0    0    0  501 -0.00000000000E+00 -0.00000000000E+00 -0.82400512382E+02  0.82400512422E+02  0.25500000000E-02 0. -1.
    5000001    1    1    2    0    0 -0.20763177879E+03 -0.82250129039E+01  0.26021071113E+03  0.34178534285E+03  0.77000000000E+02 0.  0.
   -5000001    1    1    2    0    0  0.20763177879E+03  0.82250129039E+01  0.25341104144E+03  0.33663743453E+03  0.77000000000E+02 0.  0.
<mgrwt>
<rscale>  0 0.44322698E+03</rscale>
<asrwt>0</asrwt>
<pdfrwt beam="1">  1        2 0.85146038E-01 0.44322698E+03</pdfrwt>
<pdfrwt beam="2">  1       -2 0.11771502E-01 0.44322698E+03</pdfrwt>
<totfact> 0.28480640E+03</totfact>
</mgrwt>
</event>
<event>
 4    1  0.1300812E-003  0.2177806E+03  0.7818608E-02  0.1135549E+00
          2   -1    0    0  501    0  0.00000000000E+00  0.00000000000E+00  0.47731717870E+03  0.47731717871E+03  0.25500000000E-02 0.  1.
         -2   -1    0    0    0  501 -0.00000000000E+00 -0.00000000000E+00 -0.24841132126E+02  0.24841132257E+02  0.25500000000E-02 0. -1.
    5000001    1    1    2    0    0  0.47069900903E+01 -0.38852069729E+02  0.73350164021E+02  0.11331763164E+03  0.77000000000E+02 0.  0.
   -5000001    1    1    2    0    0 -0.47069900903E+01  0.38852069729E+02  0.37912588255E+03  0.38884067933E+03  0.77000000000E+02 0.  0.
<mgrwt>
<rscale>  0 0.21778062E+03</rscale>
<asrwt>0</asrwt>
<pdfrwt beam="1">  1        2 0.68188168E-01 0.21778062E+03</pdfrwt>
<pdfrwt beam="2">  1       -2 0.35487332E-02 0.21778062E+03</pdfrwt>
<totfact> 0.22890861E+04</totfact>
</mgrwt>
</event>
<event>
 4    1  0.1300812E-003  0.2709104E+03  0.7818608E-02  0.1100760E+00
          2   -1    0    0  501    0  0.00000000000E+00  0.00000000000E+00  0.15381723629E+03  0.15381723631E+03  0.25500000000E-02 0.  1.
         -2   -1    0    0    0  501 -0.00000000000E+00 -0.00000000000E+00 -0.11928514073E+03  0.11928514076E+03  0.25500000000E-02 0. -1.
    5000001    1    1    2    0    0 -0.52059589169E+02  0.86598885817E+02 -0.30120058226E+02  0.13055951040E+03  0.77000000000E+02 0.  0.
   -5000001    1    1    2    0    0  0.52059589169E+02 -0.86598885817E+02  0.64652153780E+02  0.14254286667E+03  0.77000000000E+02 0.  0.
<mgrwt>
<rscale>  0 0.27091040E+03</rscale>
<asrwt>0</asrwt>
<pdfrwt beam="1">  1        2 0.21973891E-01 0.27091040E+03</pdfrwt>
<pdfrwt beam="2">  1       -2 0.17040734E-01 0.27091040E+03</pdfrwt>
<totfact> 0.68219475E+03</totfact>
</mgrwt>
</event>
<event>
 4    1  0.1300812E-003  0.3369077E+03  0.7818608E-02  0.1068121E+00
          2   -1    0    0  501    0  0.00000000000E+00  0.00000000000E+00  0.14283355466E+04  0.14283355466E+04  0.25500000000E-02 0.  1.
         -2   -1    0    0    0  501 -0.00000000000E+00 -0.00000000000E+00 -0.19866972383E+02  0.19866972547E+02  0.25500000000E-02 0. -1.
    5000001    1    1    2    0    0  0.89004293258E+02  0.12038819582E+03  0.72878518637E+03  0.74797856239E+03  0.77000000000E+02 0.  0.
   -5000001    1    1    2    0    0 -0.89004293258E+02 -0.12038819582E+03  0.67968338781E+03  0.70022395673E+03  0.77000000000E+02 0.  0.
<mgrwt>
<rscale>  0 0.33690772E+03</rscale>
<asrwt>0</asrwt>
<pdfrwt beam="1">  1        2 0.20404794E+00 0.33690772E+03</pdfrwt>
<pdfrwt beam="2">  1       -2 0.28381388E-02 0.33690772E+03</pdfrwt>
<totfact> 0.78392898E+03</totfact>
</mgrwt>
</event>
<event>
 4    1  0.1300812E-003  0.2616661E+03  0.7818608E-02  0.1106146E+00
          2   -1    0    0  501    0  0.00000000000E+00  0.00000000000E+00  0.41125740198E+03  0.41125740199E+03  0.25500000000E-02 0.  1.
         -2   -1    0    0    0  501 -0.00000000000E+00 -0.00000000000E+00 -0.41621833641E+02  0.41621833719E+02  0.25500000000E-02 0. -1.
    5000001    1    1    2    0    0  0.80828531394E+02 -0.67960061278E+02  0.17436630759E+03  0.21790922568E+03  0.77000000000E+02 0.  0.
   -5000001    1    1    2    0    0 -0.80828531394E+02  0.67960061278E+02  0.19526926076E+03  0.23497001003E+03  0.77000000000E+02 0.  0.
<mgrwt>
<rscale>  0 0.26166610E+03</rscale>
<asrwt>0</asrwt>
<pdfrwt beam="1">  1        2 0.58751054E-01 0.26166610E+03</pdfrwt>
<pdfrwt beam="2">  1       -2 0.59459766E-02 0.26166610E+03</pdfrwt>
<totfact> 0.12475743E+04</totfact>
</mgrwt>
</event>
<event>
 4    1  0.1300812E-003  0.3268730E+03  0.7818608E-02  0.1072529E+00
          2   -1    0    0  501    0  0.00000000000E+00  0.00000000000E+00  0.43642952452E+03  0.43642952452E+03  0.25500000000E-02 0.  1.
         -2   -1    0    0    0  501 -0.00000000000E+00 -0.00000000000E+00 -0.61204600709E+02  0.61204600762E+02  0.25500000000E-02 0. -1.
    5000001    1    1    2    0    0  0.54968745727E+02  0.89422869982E+02  0.33804981028E+03  0.36224948159E+03  0.77000000000E+02 0.  0.
   -5000001    1    1    2    0    0 -0.54968745727E+02 -0.89422869982E+02  0.37175113527E+02  0.13538464369E+03  0.77000000000E+02 0.  0.
<mgrwt>
<rscale>  0 0.32687303E+03</rscale>
<asrwt>0</asrwt>
<pdfrwt beam="1">  1        2 0.62347075E-01 0.32687303E+03</pdfrwt>
<pdfrwt beam="2">  1       -2 0.87435143E-02 0.32687303E+03</pdfrwt>
<totfact> 0.64772449E+03</totfact>
</mgrwt>
</event>
<event>
 4    1  0.1300812E-003  0.3348451E+03  0.7818608E-02  0.1069013E+00
          2   -1    0    0  501    0  0.00000000000E+00  0.00000000000E+00  0.14539892595E+03  0.14539892597E+03  0.25500000000E-02 0.  1.
         -2   -1    0    0    0  501 -0.00000000000E+00 -0.00000000000E+00 -0.19278210275E+03  0.19278210277E+03  0.25500000000E-02 0. -1.
    5000001    1    1    2    0    0  0.14751264281E+03 -0.78319738000E+01 -0.67919508064E+01  0.16672267452E+03  0.77000000000E+02 0.  0.
   -5000001    1    1    2    0    0 -0.14751264281E+03  0.78319738000E+01 -0.40591225992E+02  0.17145835422E+03  0.77000000000E+02 0.  0.
<mgrwt>
<rscale>  0 0.33484510E+03</rscale>
<asrwt>0</asrwt>
<pdfrwt beam="1">  1        2 0.20771275E-01 0.33484510E+03</pdfrwt>
<pdfrwt beam="2">  1       -2 0.27540300E-01 0.33484510E+03</pdfrwt>
<totfact> 0.31856420E+03</totfact>
</mgrwt>
</event>
<event>
 4    1  0.1300812E-003  0.2490658E+03  0.7818608E-02  0.1113897E+00
          2   -1    0    0  501    0  0.00000000000E+00  0.00000000000E+00  0.23651754898E+04  0.23651754898E+04  0.25500000000E-02 0.  1.
         -2   -1    0    0    0  501 -0.00000000000E+00 -0.00000000000E+00 -0.65569949665E+01  0.65569954623E+01  0.25500000000E-02 0. -1.
    5000001    1    1    2    0    0  0.22543876330E+01  0.81564382630E+02  0.16940196864E+04  0.16977306997E+04  0.77000000000E+02 0.  0.
   -5000001    1    1    2    0    0 -0.22543876330E+01 -0.81564382630E+02  0.66459880840E+03  0.67400178553E+03  0.77000000000E+02 0.  0.
<mgrwt>
<rscale>  0 0.24906581E+03</rscale>
<asrwt>0</asrwt>
<pdfrwt beam="1">  1        2 0.33788212E+00 0.24906581E+03</pdfrwt>
<pdfrwt beam="2">  1       -2 0.93671386E-03 0.24906581E+03</pdfrwt>
<totfact> 0.13687722E+04</totfact>
</mgrwt>
</event>
<event>
 4    1  0.1300812E-003  0.2305296E+03  0.7818608E-02  0.1126268E+00
         -2   -1    0    0    0  501 -0.00000000000E+00  0.00000000000E+00  0.25548224534E+02  0.25548224662E+02  0.25500000000E-02 0. -1.
          2   -1    0    0  501    0  0.00000000000E+00 -0.00000000000E+00 -0.52003498629E+03  0.52003498629E+03  0.25500000000E-02 0.  1.
    5000001    1    1    2    0    0 -0.74943016518E+02  0.41683184416E+02 -0.25136097674E+03  0.27652356901E+03  0.77000000000E+02 0.  0.
   -5000001    1    1    2    0    0  0.74943016518E+02 -0.41683184416E+02 -0.24312578501E+03  0.26905964194E+03  0.77000000000E+02 0.  0.
<mgrwt>
<rscale>  0 0.23052957E+03</rscale>
<asrwt>0</asrwt>
<pdfrwt beam="1">  1        2 0.74290706E-01 0.23052957E+03</pdfrwt>
<pdfrwt beam="2">  1       -2 0.36497467E-02 0.23052957E+03</pdfrwt>
<totfact> 0.20051793E+04</totfact>
</mgrwt>
</event>
<event>
 4    1  0.1300812E-003  0.2167972E+03  0.7818608E-02  0.1136294E+00
         -2   -1    0    0    0  501 -0.00000000000E+00  0.00000000000E+00  0.21852856533E+02  0.21852856682E+02  0.25500000000E-02 0. -1.
          2   -1    0    0  501    0  0.00000000000E+00 -0.00000000000E+00 -0.53769881445E+03  0.53769881445E+03  0.25500000000E-02 0.  1.
    5000001    1    1    2    0    0 -0.49677943872E+02  0.43433295539E+02 -0.35677548198E+03  0.37090712289E+03  0.77000000000E+02 0.  0.
   -5000001    1    1    2    0    0  0.49677943872E+02 -0.43433295539E+02 -0.15907047593E+03  0.18864454824E+03  0.77000000000E+02 0.  0.
<mgrwt>
<rscale>  0 0.21679719E+03</rscale>
<asrwt>0</asrwt>
<pdfrwt beam="1">  1        2 0.76814108E-01 0.21679719E+03</pdfrwt>
<pdfrwt beam="2">  1       -2 0.31218370E-02 0.21679719E+03</pdfrwt>
<totfact> 0.24283755E+04</totfact>
</mgrwt>
</event>
<event>
 4    1  0.1300812E-003  0.3451379E+03  0.7818608E-02  0.1064629E+00
          2   -1    0    0  501    0  0.00000000000E+00  0.00000000000E+00  0.55700174002E+03  0.55700174002E+03  0.25500000000E-02 0.  1.
         -2   -1    0    0    0  501 -0.00000000000E+00 -0.00000000000E+00 -0.53464888580E+02  0.53464888641E+02  0.25500000000E-02 0. -1.
    5000001    1    1    2    0    0  0.98132116756E+02 -0.10215905584E+03  0.14295506101E+03  0.21547977747E+03  0.77000000000E+02 0.  0.
   -5000001    1    1    2    0    0 -0.98132116756E+02  0.10215905584E+03  0.36058179043E+03  0.39498685119E+03  0.77000000000E+02 0.  0.
<mgrwt>
<rscale>  0 0.34513786E+03</rscale>
<asrwt>0</asrwt>
<pdfrwt beam="1">  1        2 0.79571678E-01 0.34513786E+03</pdfrwt>
<pdfrwt beam="2">  1       -2 0.76378412E-02 0.34513786E+03</pdfrwt>
<totfact> 0.61161369E+03</totfact>
</mgrwt>
</event>
<event>
 4    1  0.1300812E-003  0.2411462E+03  0.7818608E-02  0.1119032E+00
         -2   -1    0    0    0  501 -0.00000000000E+00  0.00000000000E+00  0.38008214719E+03  0.38008214720E+03  0.25500000000E-02 0. -1.
          2   -1    0    0  501    0  0.00000000000E+00 -0.00000000000E+00 -0.38249294185E+02  0.38249294270E+02  0.25500000000E-02 0.  1.
    5000001    1    1    2    0    0 -0.27638915254E+02 -0.72841886588E+02  0.25832890797E+03  0.28059343323E+03  0.77000000000E+02 0.  0.
   -5000001    1    1    2    0    0  0.27638915254E+02  0.72841886588E+02  0.83503945044E+02  0.13773800825E+03  0.77000000000E+02 0.  0.
<mgrwt>
<rscale>  0 0.24114621E+03</rscale>
<asrwt>0</asrwt>
<pdfrwt beam="1">  1        2 0.54641847E-02 0.24114621E+03</pdfrwt>
<pdfrwt beam="2">  1       -2 0.54297451E-01 0.24114621E+03</pdfrwt>
<totfact> 0.44886878E+03</totfact>
</mgrwt>
</event>
<event>
 4    1  0.1300812E-003  0.2126279E+03  0.7818608E-02  0.1139502E+00
         -2   -1    0    0    0  501 -0.00000000000E+00  0.00000000000E+00  0.12689055205E+02  0.12689055462E+02  0.25500000000E-02 0. -1.
          2   -1    0    0  501    0  0.00000000000E+00 -0.00000000000E+00 -0.89074084646E+03  0.89074084646E+03  0.25500000000E-02 0.  1.
    5000001    1    1    2    0    0  0.55952103482E+02 -0.91175382115E+01 -0.63649092953E+03  0.64363302491E+03  0.77000000000E+02 0.  0.
   -5000001    1    1    2    0    0 -0.55952103482E+02  0.91175382115E+01 -0.24156086173E+03  0.25979687701E+03  0.77000000000E+02 0.  0.
<mgrwt>
<rscale>  0 0.21262794E+03</rscale>
<asrwt>0</asrwt>
<pdfrwt beam="1">  1        2 0.12724865E+00 0.21262794E+03</pdfrwt>
<pdfrwt beam="2">  1       -2 0.18127228E-02 0.21262794E+03</pdfrwt>
<totfact> 0.29719914E+04</totfact>
</mgrwt>
</event>
<event>
 4    1  0.1300812E-003  0.1943073E+03  0.7818608E-02  0.1154633E+00
         -2   -1    0    0    0  501 -0.00000000000E+00  0.00000000000E+00  0.33453333437E+02  0.33453333534E+02  0.25500000000E-02 0. -1.
          2   -1    0    0  501    0  0.00000000000E+00 -0.00000000000E+00 -0.28214914493E+03  0.28214914494E+03  0.25500000000E-02 0.  1.
    5000001    1    1    2    0    0 -0.12914069069E+02  0.40021974871E+02 -0.19212576763E+03  0.21121042172E+03  0.77000000000E+02 0.  0.
   -5000001    1    1    2    0    0  0.12914069069E+02 -0.40021974871E+02 -0.56570043861E+02  0.10439205676E+03  0.77000000000E+02 0.  0.
<mgrwt>
<rscale>  0 0.19430728E+03</rscale>
<asrwt>0</asrwt>
<pdfrwt beam="1">  1        2 0.40307019E-01 0.19430728E+03</pdfrwt>
<pdfrwt beam="2">  1       -2 0.47790478E-02 0.19430728E+03</pdfrwt>
<totfact> 0.25560404E+04</totfact>
</mgrwt>
</event>
<event>
 4    1  0.1300812E-003  0.2171273E+03  0.7818608E-02  0.1136043E+00
         -2   -1    0    0    0  501 -0.00000000000E+00  0.00000000000E+00  0.38899542783E+02  0.38899542866E+02  0.25500000000E-02 0. -1.
          2   -1    0    0  501    0  0.00000000000E+00 -0.00000000000E+00 -0.30298727987E+03  0.30298727988E+03  0.25500000000E-02 0.  1.
    5000001    1    1    2    0    0 -0.63317661927E+02 -0.28955518710E+02 -0.18207323659E+03  0.20958819590E+03  0.77000000000E+02 0.  0.
   -5000001    1    1    2    0    0  0.63317661927E+02  0.28955518710E+02 -0.82014500500E+02  0.13229862686E+03  0.77000000000E+02 0.  0.
<mgrwt>
<rscale>  0 0.21712731E+03</rscale>
<asrwt>0</asrwt>
<pdfrwt beam="1">  1        2 0.43283896E-01 0.21712731E+03</pdfrwt>
<pdfrwt beam="2">  1       -2 0.55570777E-02 0.21712731E+03</pdfrwt>
<totfact> 0.19002334E+04</totfact>
</mgrwt>
</event>
<event>
 4    1  0.1300812E-003  0.1796503E+03  0.7818608E-02  0.1168142E+00
          2   -1    0    0  501    0  0.00000000000E+00  0.00000000000E+00  0.21341017577E+04  0.21341017577E+04  0.25500000000E-02 0.  1.
         -2   -1    0    0    0  501 -0.00000000000E+00 -0.00000000000E+00 -0.37807729697E+01  0.37807738296E+01  0.25500000000E-02 0. -1.
    5000001    1    1    2    0    0 -0.42754609610E+02 -0.53907720158E+01  0.12651901829E+04  0.12682634647E+04  0.77000000000E+02 0.  0.
   -5000001    1    1    2    0    0  0.42754609610E+02  0.53907720158E+01  0.86513080180E+03  0.86961906677E+03  0.77000000000E+02 0.  0.
<mgrwt>
<rscale>  0 0.17965027E+03</rscale>
<asrwt>0</asrwt>
<pdfrwt beam="1">  1        2 0.30487267E+00 0.17965027E+03</pdfrwt>
<pdfrwt beam="2">  1       -2 0.54010874E-03 0.17965027E+03</pdfrwt>
<totfact> 0.38625183E+04</totfact>
</mgrwt>
</event>
<event>
 4    1  0.1300812E-003  0.3675759E+03  0.7818608E-02  0.1055624E+00
         -2   -1    0    0    0  501 -0.00000000000E+00  0.00000000000E+00  0.15454172709E+02  0.15454172919E+02  0.25500000000E-02 0. -1.
          2   -1    0    0  501    0  0.00000000000E+00 -0.00000000000E+00 -0.21856892541E+04  0.21856892541E+04  0.25500000000E-02 0.  1.
    5000001    1    1    2    0    0  0.12836160198E+03  0.94841806133E+02 -0.13770940113E+04  0.13884482652E+04  0.77000000000E+02 0.  0.
   -5000001    1    1    2    0    0 -0.12836160198E+03 -0.94841806133E+02 -0.79314107004E+03  0.81269516182E+03  0.77000000000E+02 0.  0.
<mgrwt>
<rscale>  0 0.36757595E+03</rscale>
<asrwt>0</asrwt>
<pdfrwt beam="1">  1        2 0.31224112E+00 0.36757595E+03</pdfrwt>
<pdfrwt beam="2">  1       -2 0.22077404E-02 0.36757595E+03</pdfrwt>
<totfact> 0.47845065E+03</totfact>
</mgrwt>
</event>
<event>
 4    1  0.1300812E-003  0.2110013E+03  0.7818608E-02  0.1140776E+00
          2   -1    0    0  501    0  0.00000000000E+00  0.00000000000E+00  0.12093901221E+04  0.12093901221E+04  0.25500000000E-02 0.  1.
         -2   -1    0    0    0  501 -0.00000000000E+00 -0.00000000000E+00 -0.92033056511E+01  0.92033060044E+01  0.25500000000E-02 0. -1.
    5000001    1    1    2    0    0 -0.13604169194E+02 -0.67545128982E+02  0.72314491603E+03  0.73048955328E+03  0.77000000000E+02 0.  0.
   -5000001    1    1    2    0    0  0.13604169194E+02  0.67545128982E+02  0.47704190046E+03  0.48810387487E+03  0.77000000000E+02 0.  0.
<mgrwt>
<rscale>  0 0.21100130E+03</rscale>
<asrwt>0</asrwt>
<pdfrwt beam="1">  1        2 0.17276991E+00 0.21100130E+03</pdfrwt>
<pdfrwt beam="2">  1       -2 0.13147588E-02 0.21100130E+03</pdfrwt>
<totfact> 0.31111307E+04</totfact>
</mgrwt>
</event>
<event>
 4    1  0.1300812E-003  0.3072119E+03  0.7818608E-02  0.1081690E+00
          2   -1    0    0  501    0  0.00000000000E+00  0.00000000000E+00  0.89705556943E+03  0.89705556943E+03  0.25500000000E-02 0.  1.
         -2   -1    0    0    0  501 -0.00000000000E+00 -0.00000000000E+00 -0.26302477941E+02  0.26302478064E+02  0.25500000000E-02 0. -1.
    5000001    1    1    2    0    0 -0.52440063640E+02  0.10353368910E+03  0.63008324299E+03  0.64529301728E+03  0.77000000000E+02 0.  0.
   -5000001    1    1    2    0    0  0.52440063640E+02 -0.10353368910E+03  0.24066984850E+03  0.27806503022E+03  0.77000000000E+02 0.  0.
<mgrwt>
<rscale>  0 0.30721188E+03</rscale>
<asrwt>0</asrwt>
<pdfrwt beam="1">  1        2 0.12815078E+00 0.30721188E+03</pdfrwt>
<pdfrwt beam="2">  1       -2 0.37574973E-02 0.30721188E+03</pdfrwt>
<totfact> 0.10185904E+04</totfact>
</mgrwt>
</event>
<event>
 4    1  0.1300812E-003  0.3532496E+03  0.7818608E-02  0.1061289E+00
         -2   -1    0    0    0  501 -0.00000000000E+00  0.00000000000E+00  0.34674354024E+02  0.34674354118E+02  0.25500000000E-02 0. -1.
          2   -1    0    0  501    0  0.00000000000E+00 -0.00000000000E+00 -0.89969432749E+03  0.89969432750E+03  0.25500000000E-02 0.  1.
    5000001    1    1    2    0    0 -0.15514066361E+03  0.15081040157E+02 -0.51494344912E+03  0.54349960356E+03  0.77000000000E+02 0.  0.
   -5000001    1    1    2    0    0  0.15514066361E+03 -0.15081040157E+02 -0.35007652435E+03  0.39086907805E+03  0.77000000000E+02 0.  0.
<mgrwt>
<rscale>  0 0.35324960E+03</rscale>
<asrwt>0</asrwt>
<pdfrwt beam="1">  1        2 0.12852775E+00 0.35324960E+03</pdfrwt>
<pdfrwt beam="2">  1       -2 0.49534797E-02 0.35324960E+03</pdfrwt>
<totfact> 0.66971334E+03</totfact>
</mgrwt>
</event>
<event>
 4    1  0.1300812E-003  0.3593729E+03  0.7818608E-02  0.1058832E+00
         -2   -1    0    0    0  501 -0.00000000000E+00  0.00000000000E+00  0.15572584382E+02  0.15572584591E+02  0.25500000000E-02 0. -1.
          2   -1    0    0  501    0  0.00000000000E+00 -0.00000000000E+00 -0.20733377926E+04  0.20733377926E+04  0.25500000000E-02 0.  1.
    5000001    1    1    2    0    0 -0.71587442571E+02 -0.14565036287E+03 -0.10032555847E+04  0.10192102621E+04  0.77000000000E+02 0.  0.
   -5000001    1    1    2    0    0  0.71587442571E+02  0.14565036287E+03 -0.10545096235E+04  0.10697001151E+04  0.77000000000E+02 0.  0.
<mgrwt>
<rscale>  0 0.35937294E+03</rscale>
<asrwt>0</asrwt>
<pdfrwt beam="1">  1        2 0.29619094E+00 0.35937294E+03</pdfrwt>
<pdfrwt beam="2">  1       -2 0.22246562E-02 0.35937294E+03</pdfrwt>
<totfact> 0.53753403E+03</totfact>
</mgrwt>
</event>
<event>
 4    1  0.1300812E-003  0.4605192E+03  0.7818608E-02  0.1024631E+00
         -2   -1    0    0    0  501 -0.00000000000E+00  0.00000000000E+00  0.13943392503E+04  0.13943392503E+04  0.25500000000E-02 0. -1.
          2   -1    0    0  501    0  0.00000000000E+00 -0.00000000000E+00 -0.38024816571E+02  0.38024816656E+02  0.25500000000E-02 0.  1.
    5000001    1    1    2    0    0  0.17001931311E+03 -0.94599141410E+00  0.10975672250E+04  0.11133239758E+04  0.77000000000E+02 0.  0.
   -5000001    1    1    2    0    0 -0.17001931311E+03  0.94599141410E+00  0.25874720870E+03  0.31904009111E+03  0.77000000000E+02 0.  0.
<mgrwt>
<rscale>  0 0.46051925E+03</rscale>
<asrwt>0</asrwt>
<pdfrwt beam="1">  1        2 0.54321166E-02 0.46051925E+03</pdfrwt>
<pdfrwt beam="2">  1       -2 0.19919132E+00 0.46051925E+03</pdfrwt>
<totfact> 0.20478389E+02</totfact>
</mgrwt>
</event>
<event>
 4    1  0.1300812E-003  0.4894453E+03  0.7818608E-02  0.1016571E+00
          2   -1    0    0  501    0  0.00000000000E+00  0.00000000000E+00  0.64262018897E+03  0.64262018897E+03  0.25500000000E-02 0.  1.
         -2   -1    0    0    0  501 -0.00000000000E+00 -0.00000000000E+00 -0.93195279234E+02  0.93195279268E+02  0.25500000000E-02 0. -1.
    5000001    1    1    2    0    0 -0.22472668063E+03 -0.35402588845E+02  0.34530256046E+03  0.42061655048E+03  0.77000000000E+02 0.  0.
   -5000001    1    1    2    0    0  0.22472668063E+03  0.35402588845E+02  0.20412234928E+03  0.31519891776E+03  0.77000000000E+02 0.  0.
<mgrwt>
<rscale>  0 0.48944527E+03</rscale>
<asrwt>0</asrwt>
<pdfrwt beam="1">  1        2 0.91802882E-01 0.48944527E+03</pdfrwt>
<pdfrwt beam="2">  1       -2 0.13313612E-01 0.48944527E+03</pdfrwt>
<totfact> 0.21313376E+03</totfact>
</mgrwt>
</event>
<event>
 4    1  0.1300812E-003  0.2554282E+03  0.7818608E-02  0.1109922E+00
         -2   -1    0    0    0  501 -0.00000000000E+00  0.00000000000E+00  0.25719747743E+02  0.25719747869E+02  0.25500000000E-02 0. -1.
          2   -1    0    0  501    0  0.00000000000E+00 -0.00000000000E+00 -0.63417756653E+03  0.63417756653E+03  0.25500000000E-02 0.  1.
    5000001    1    1    2    0    0 -0.33594837709E+02  0.96193077996E+02 -0.30528056475E+03  0.33091833523E+03  0.77000000000E+02 0.  0.
   -5000001    1    1    2    0    0  0.33594837709E+02 -0.96193077996E+02 -0.30317725403E+03  0.32897897917E+03  0.77000000000E+02 0.  0.
<mgrwt>
<rscale>  0 0.25542817E+03</rscale>
<asrwt>0</asrwt>
<pdfrwt beam="1">  1        2 0.90596786E-01 0.25542817E+03</pdfrwt>
<pdfrwt beam="2">  1       -2 0.36742501E-02 0.25542817E+03</pdfrwt>
<totfact> 0.15958023E+04</totfact>
</mgrwt>
</event>
<event>
 4    1  0.1300812E-003  0.2202968E+03  0.7818608E-02  0.1133662E+00
          2   -1    0    0  501    0  0.00000000000E+00  0.00000000000E+00  0.86487129330E+02  0.86487129367E+02  0.25500000000E-02 0.  1.
         -2   -1    0    0    0  501 -0.00000000000E+00 -0.00000000000E+00 -0.14028292307E+03  0.14028292309E+03  0.25500000000E-02 0. -1.
    5000001    1    1    2    0    0 -0.27671108246E+01 -0.66691570845E+02 -0.69938533051E+02  0.12359539202E+03  0.77000000000E+02 0.  0.
   -5000001    1    1    2    0    0  0.27671108246E+01  0.66691570845E+02  0.16142739310E+02  0.10317466044E+03  0.77000000000E+02 0.  0.
<mgrwt>
<rscale>  0 0.22029678E+03</rscale>
<asrwt>0</asrwt>
<pdfrwt beam="1">  1        2 0.12355304E-01 0.22029678E+03</pdfrwt>
<pdfrwt beam="2">  1       -2 0.20040417E-01 0.22029678E+03</pdfrwt>
<totfact> 0.10068430E+04</totfact>
</mgrwt>
</event>
<event>
 4    1  0.1300812E-003  0.1137299E+04  0.7818608E-02  0.9169582E-01
          2   -1    0    0  501    0  0.00000000000E+00  0.00000000000E+00  0.23730022031E+03  0.23730022033E+03  0.25500000000E-02 0.  1.
         -2   -1    0    0    0  501 -0.00000000000E+00 -0.00000000000E+00 -0.13626707654E+04  0.13626707654E+04  0.25500000000E-02 0. -1.
    5000001    1    1    2    0    0 -0.55694227502E+03  0.49489131497E+01 -0.68225546684E+03  0.88408750217E+03  0.77000000000E+02 0.  0.
   -5000001    1    1    2    0    0  0.55694227502E+03 -0.49489131497E+01 -0.44311507820E+03  0.71588348352E+03  0.77000000000E+02 0.  0.
<mgrwt>
<rscale>  0 0.11372987E+04</rscale>
<asrwt>0</asrwt>
<pdfrwt beam="1">  1        2 0.33900032E-01 0.11372987E+04</pdfrwt>
<pdfrwt beam="2">  1       -2 0.19466725E+00 0.11372987E+04</pdfrwt>
<totfact> 0.22174060E+01</totfact>
</mgrwt>
</event>
<event>
 4    1  0.1300812E-003  0.2382146E+03  0.7818608E-02  0.1120988E+00
          2   -1    0    0  501    0  0.00000000000E+00  0.00000000000E+00  0.26525631444E+04  0.26525631444E+04  0.25500000000E-02 0.  1.
         -2   -1    0    0    0  501 -0.00000000000E+00 -0.00000000000E+00 -0.53482434690E+01  0.53482440769E+01  0.25500000000E-02 0. -1.
    5000001    1    1    2    0    0  0.78870669300E+02 -0.31710596541E+02  0.96527372033E+03  0.97206404088E+03  0.77000000000E+02 0.  0.
   -5000001    1    1    2    0    0 -0.78870669300E+02  0.31710596541E+02  0.16819411806E+04  0.16858473476E+04  0.77000000000E+02 0.  0.
<mgrwt>
<rscale>  0 0.23821465E+03</rscale>
<asrwt>0</asrwt>
<pdfrwt beam="1">  1        2 0.37893752E+00 0.23821465E+03</pdfrwt>
<pdfrwt beam="2">  1       -2 0.76403497E-03 0.23821465E+03</pdfrwt>
<totfact> 0.13207842E+04</totfact>
</mgrwt>
</event>
<event>
 4    1  0.1300812E-003  0.3722616E+03  0.7818608E-02  0.1053832E+00
         -2   -1    0    0    0  501 -0.00000000000E+00  0.00000000000E+00  0.30676034834E+03  0.30676034835E+03  0.25500000000E-02 0. -1.
          2   -1    0    0  501    0  0.00000000000E+00 -0.00000000000E+00 -0.11293726043E+03  0.11293726046E+03  0.25500000000E-02 0.  1.
    5000001    1    1    2    0    0 -0.54987186272E+02 -0.15743298390E+03  0.62958623844E+02  0.19416880128E+03  0.77000000000E+02 0.  0.
   -5000001    1    1    2    0    0  0.54987186272E+02  0.15743298390E+03  0.13086446407E+03  0.22552880754E+03  0.77000000000E+02 0.  0.
<mgrwt>
<rscale>  0 0.37226159E+03</rscale>
<asrwt>0</asrwt>
<pdfrwt beam="1">  1        2 0.16133895E-01 0.37226159E+03</pdfrwt>
<pdfrwt beam="2">  1       -2 0.43822906E-01 0.37226159E+03</pdfrwt>
<totfact> 0.17947365E+03</totfact>
</mgrwt>
</event>
<event>
 4    1  0.1300812E-003  0.2815635E+03  0.7818608E-02  0.1094838E+00
         -2   -1    0    0    0  501 -0.00000000000E+00  0.00000000000E+00  0.61998496392E+02  0.61998496444E+02  0.25500000000E-02 0. -1.
          2   -1    0    0  501    0  0.00000000000E+00 -0.00000000000E+00 -0.31967707646E+03  0.31967707647E+03  0.25500000000E-02 0.  1.
    5000001    1    1    2    0    0  0.65059556088E+02 -0.24232569352E+02 -0.25794174242E+03  0.27799803190E+03  0.77000000000E+02 0.  0.
   -5000001    1    1    2    0    0 -0.65059556088E+02  0.24232569352E+02  0.26316235848E+00  0.10367754101E+03  0.77000000000E+02 0.  0.
<mgrwt>
<rscale>  0 0.28156348E+03</rscale>
<asrwt>0</asrwt>
<pdfrwt beam="1">  1        2 0.45668153E-01 0.28156348E+03</pdfrwt>
<pdfrwt beam="2">  1       -2 0.88569282E-02 0.28156348E+03</pdfrwt>
<totfact> 0.88468847E+03</totfact>
</mgrwt>
</event>
<event>
 4    1  0.1300812E-003  0.3077448E+03  0.7818608E-02  0.1081432E+00
          2   -1    0    0  501    0  0.00000000000E+00  0.00000000000E+00  0.22634448091E+03  0.22634448093E+03  0.25500000000E-02 0.  1.
         -2   -1    0    0    0  501 -0.00000000000E+00 -0.00000000000E+00 -0.10460475299E+03  0.10460475302E+03  0.25500000000E-02 0. -1.
    5000001    1    1    2    0    0  0.67082885848E+01 -0.12481997580E+03  0.11041637641E+03  0.18370030940E+03  0.77000000000E+02 0.  0.
   -5000001    1    1    2    0    0 -0.67082885848E+01  0.12481997580E+03  0.11323351514E+02  0.14724892456E+03  0.77000000000E+02 0.  0.
<mgrwt>
<rscale>  0 0.30774475E+03</rscale>
<asrwt>0</asrwt>
<pdfrwt beam="1">  1        2 0.32334926E-01 0.30774475E+03</pdfrwt>
<pdfrwt beam="2">  1       -2 0.14943536E-01 0.30774475E+03</pdfrwt>
<totfact> 0.55498137E+03</totfact>
</mgrwt>
</event>
<event>
 4    1  0.1300812E-003  0.3564956E+03  0.7818608E-02  0.1059980E+00
         -2   -1    0    0    0  501 -0.00000000000E+00  0.00000000000E+00  0.12820565923E+02  0.12820566176E+02  0.25500000000E-02 0. -1.
          2   -1    0    0  501    0  0.00000000000E+00 -0.00000000000E+00 -0.24782279364E+04  0.24782279364E+04  0.25500000000E-02 0.  1.
    5000001    1    1    2    0    0  0.15640818036E+03 -0.18725017761E+02 -0.14568673123E+04  0.14673804929E+04  0.77000000000E+02 0.  0.
   -5000001    1    1    2    0    0 -0.15640818036E+03  0.18725017761E+02 -0.10085400582E+04  0.10236680097E+04  0.77000000000E+02 0.  0.
<mgrwt>
<rscale>  0 0.35649564E+03</rscale>
<asrwt>0</asrwt>
<pdfrwt beam="1">  1        2 0.35403226E+00 0.35649564E+03</pdfrwt>
<pdfrwt beam="2">  1       -2 0.18315110E-02 0.35649564E+03</pdfrwt>
<totfact> 0.45142114E+03</totfact>
</mgrwt>
</event>
<event>
 4    1  0.1300812E-003  0.2541079E+03  0.7818608E-02  0.1110736E+00
          2   -1    0    0  501    0  0.00000000000E+00  0.00000000000E+00  0.67701143032E+02  0.67701143080E+02  0.25500000000E-02 0.  1.
         -2   -1    0    0    0  501 -0.00000000000E+00 -0.00000000000E+00 -0.23844062076E+03  0.23844062078E+03  0.25500000000E-02 0. -1.
    5000001    1    1    2    0    0 -0.49258989412E+02 -0.87206149045E+02 -0.69101222396E+02  0.14399770625E+03  0.77000000000E+02 0.  0.
   -5000001    1    1    2    0    0  0.49258989412E+02  0.87206149045E+02 -0.10163825534E+03  0.16214405761E+03  0.77000000000E+02 0.  0.
<mgrwt>
<rscale>  0 0.25410787E+03</rscale>
<asrwt>0</asrwt>
<pdfrwt beam="1">  1        2 0.96715920E-02 0.25410787E+03</pdfrwt>
<pdfrwt beam="2">  1       -2 0.34062945E-01 0.25410787E+03</pdfrwt>
<totfact> 0.53429952E+03</totfact>
</mgrwt>
</event>
<event>
 4    1  0.1300812E-003  0.1782351E+03  0.7818608E-02  0.1169522E+00
         -2   -1    0    0    0  501 -0.00000000000E+00  0.00000000000E+00  0.34525881247E+01  0.34525890664E+01  0.25500000000E-02 0. -1.
          2   -1    0    0  501    0  0.00000000000E+00 -0.00000000000E+00 -0.23002858364E+04  0.23002858364E+04  0.25500000000E-02 0.  1.
    5000001    1    1    2    0    0  0.35003366232E+02  0.23702853335E+02 -0.95415881072E+03  0.95819366361E+03  0.77000000000E+02 0.  0.
   -5000001    1    1    2    0    0 -0.35003366232E+02 -0.23702853335E+02 -0.13426744375E+04  0.13455447618E+04  0.77000000000E+02 0.  0.
<mgrwt>
<rscale>  0 0.17823513E+03</rscale>
<asrwt>0</asrwt>
<pdfrwt beam="1">  1        2 0.32861128E+00 0.17823513E+03</pdfrwt>
<pdfrwt beam="2">  1       -2 0.49322842E-03 0.17823513E+03</pdfrwt>
<totfact> 0.36541632E+04</totfact>
</mgrwt>
</event>
<event>
 4    1  0.1300812E-003  0.2734917E+03  0.7818608E-02  0.1099298E+00
         -2   -1    0    0    0  501 -0.00000000000E+00  0.00000000000E+00  0.94823848991E+01  0.94823852420E+01  0.25500000000E-02 0. -1.
          2   -1    0    0  501    0  0.00000000000E+00 -0.00000000000E+00 -0.19720172596E+04  0.19720172596E+04  0.25500000000E-02 0.  1.
    5000001    1    1    2    0    0 -0.11286853299E+03 -0.47706911387E+01 -0.96031668926E+03  0.96999959222E+03  0.77000000000E+02 0.  0.
   -5000001    1    1    2    0    0  0.11286853299E+03  0.47706911387E+01 -0.10022181854E+04  0.10115000526E+04  0.77000000000E+02 0.  0.
<mgrwt>
<rscale>  0 0.27349170E+03</rscale>
<asrwt>0</asrwt>
<pdfrwt beam="1">  1        2 0.28171649E+00 0.27349170E+03</pdfrwt>
<pdfrwt beam="2">  1       -2 0.13546277E-02 0.27349170E+03</pdfrwt>
<totfact> 0.12483182E+04</totfact>
</mgrwt>
</event>
<event>
 4    1  0.1300812E-003  0.3675916E+03  0.7818608E-02  0.1055618E+00
          2   -1    0    0  501    0  0.00000000000E+00  0.00000000000E+00  0.28094675021E+03  0.28094675022E+03  0.25500000000E-02 0.  1.
         -2   -1    0    0    0  501 -0.00000000000E+00 -0.00000000000E+00 -0.12023946745E+03  0.12023946748E+03  0.25500000000E-02 0. -1.
    5000001    1    1    2    0    0 -0.11550891804E+03  0.11526054835E+03  0.11854584168E+03  0.21589215070E+03  0.77000000000E+02 0.  0.
   -5000001    1    1    2    0    0  0.11550891804E+03 -0.11526054835E+03  0.42161441080E+02  0.18529406700E+03  0.77000000000E+02 0.  0.
<mgrwt>
<rscale>  0 0.36759155E+03</rscale>
<asrwt>0</asrwt>
<pdfrwt beam="1">  1        2 0.40135249E-01 0.36759155E+03</pdfrwt>
<pdfrwt beam="2">  1       -2 0.17177067E-01 0.36759155E+03</pdfrwt>
<totfact> 0.34891228E+03</totfact>
</mgrwt>
</event>
<event>
 4    1  0.1300812E-003  0.2745723E+03  0.7818608E-02  0.1098691E+00
         -2   -1    0    0    0  501 -0.00000000000E+00  0.00000000000E+00  0.98643936349E+01  0.98643939645E+01  0.25500000000E-02 0. -1.
          2   -1    0    0  501    0  0.00000000000E+00 -0.00000000000E+00 -0.19106582601E+04  0.19106582601E+04  0.25500000000E-02 0.  1.
    5000001    1    1    2    0    0  0.82763094921E+02 -0.83501539963E+01 -0.14921523551E+04  0.14964515046E+04  0.77000000000E+02 0.  0.
   -5000001    1    1    2    0    0 -0.82763094921E+02  0.83501539963E+01 -0.40864151137E+03  0.42407114942E+03  0.77000000000E+02 0.  0.
<mgrwt>
<rscale>  0 0.27457229E+03</rscale>
<asrwt>0</asrwt>
<pdfrwt beam="1">  1        2 0.27295094E+00 0.27457229E+03</pdfrwt>
<pdfrwt beam="2">  1       -2 0.14092003E-02 0.27457229E+03</pdfrwt>
<totfact> 0.12625063E+04</totfact>
</mgrwt>
</event>
<event>
 4    1  0.1300812E-003  0.5329534E+03  0.7818608E-02  0.1005518E+00
          2   -1    0    0  501    0  0.00000000000E+00  0.00000000000E+00  0.74902903552E+03  0.74902903552E+03  0.25500000000E-02 0.  1.
         -2   -1    0    0    0  501 -0.00000000000E+00 -0.00000000000E+00 -0.94802502435E+02  0.94802502469E+02  0.25500000000E-02 0. -1.
    5000001    1    1    2    0    0 -0.22129096885E+03 -0.72754916898E+02  0.16243467983E+03  0.29423969148E+03  0.77000000000E+02 0.  0.
   -5000001    1    1    2    0    0  0.22129096885E+03  0.72754916898E+02  0.49179185325E+03  0.54959184651E+03  0.77000000000E+02 0.  0.
<mgrwt>
<rscale>  0 0.53295338E+03</rscale>
<asrwt>0</asrwt>
<pdfrwt beam="1">  1        2 0.10700415E+00 0.53295338E+03</pdfrwt>
<pdfrwt beam="2">  1       -2 0.13543215E-01 0.53295338E+03</pdfrwt>
<totfact> 0.17201712E+03</totfact>
</mgrwt>
</event>
<event>
 4    1  0.1300812E-003  0.3175454E+03  0.7818608E-02  0.1076785E+00
          2   -1    0    0  501    0  0.00000000000E+00  0.00000000000E+00  0.11196768058E+04  0.11196768058E+04  0.25500000000E-02 0.  1.
         -2   -1    0    0    0  501 -0.00000000000E+00 -0.00000000000E+00 -0.22514331408E+02  0.22514331552E+02  0.25500000000E-02 0. -1.
    5000001    1    1    2    0    0  0.12842498444E+03  0.43132480333E+02  0.43910264333E+03  0.46593295534E+03  0.77000000000E+02 0.  0.
   -5000001    1    1    2    0    0 -0.12842498444E+03 -0.43132480333E+02  0.65805983102E+03  0.67625818198E+03  0.77000000000E+02 0.  0.
<mgrwt>
<rscale>  0 0.31754543E+03</rscale>
<asrwt>0</asrwt>
<pdfrwt beam="1">  1        2 0.15995379E+00 0.31754543E+03</pdfrwt>
<pdfrwt beam="2">  1       -2 0.32163339E-02 0.31754543E+03</pdfrwt>
<totfact> 0.95038189E+03</totfact>
</mgrwt>
</event>
<event>
 4    1  0.1300812E-003  0.2132007E+03  0.7818608E-02  0.1139056E+00
         -2   -1    0    0    0  501 -0.00000000000E+00  0.00000000000E+00  0.28649234350E+02  0.28649234464E+02  0.25500000000E-02 0. -1.
          2   -1    0    0  501    0  0.00000000000E+00 -0.00000000000E+00 -0.39664705482E+03  0.39664705483E+03  0.25500000000E-02 0.  1.
    5000001    1    1    2    0    0 -0.51932022698E+02 -0.48282635124E+02 -0.22421743132E+03  0.24744818517E+03  0.77000000000E+02 0.  0.
   -5000001    1    1    2    0    0  0.51932022698E+02  0.48282635124E+02 -0.14378038916E+03  0.17784810413E+03  0.77000000000E+02 0.  0.
<mgrwt>
<rscale>  0 0.21320070E+03</rscale>
<asrwt>0</asrwt>
<pdfrwt beam="1">  1        2 0.56663862E-01 0.21320070E+03</pdfrwt>
<pdfrwt beam="2">  1       -2 0.40927480E-02 0.21320070E+03</pdfrwt>
<totfact> 0.22566538E+04</totfact>
</mgrwt>
</event>
<event>
 4    1  0.1300812E-003  0.5432883E+03  0.7818608E-02  0.1003059E+00
          2   -1    0    0  501    0  0.00000000000E+00  0.00000000000E+00  0.19809500910E+04  0.19809500910E+04  0.25500000000E-02 0.  1.
         -2   -1    0    0    0  501 -0.00000000000E+00 -0.00000000000E+00 -0.37250079727E+02  0.37250079814E+02  0.25500000000E-02 0. -1.
    5000001    1    1    2    0    0 -0.10653496206E+02 -0.22504216380E+03  0.14576792874E+04  0.14769953884E+04  0.77000000000E+02 0.  0.
   -5000001    1    1    2    0    0  0.10653496206E+02  0.22504216380E+03  0.48602072393E+03  0.54120478246E+03  0.77000000000E+02 0.  0.
<mgrwt>
<rscale>  0 0.54328832E+03</rscale>
<asrwt>0</asrwt>
<pdfrwt beam="1">  1        2 0.28299297E+00 0.54328832E+03</pdfrwt>
<pdfrwt beam="2">  1       -2 0.53214381E-02 0.54328832E+03</pdfrwt>
<totfact> 0.15816075E+03</totfact>
</mgrwt>
</event>
<event>
 4    1  0.1300812E-003  0.1936566E+03  0.7818608E-02  0.1155204E+00
          2   -1    0    0  501    0  0.00000000000E+00  0.00000000000E+00  0.47389407107E+02  0.47389407175E+02  0.25500000000E-02 0.  1.
         -2   -1    0    0    0  501 -0.00000000000E+00 -0.00000000000E+00 -0.19784429103E+03  0.19784429104E+03  0.25500000000E-02 0. -1.
    5000001    1    1    2    0    0  0.15410588081E+02 -0.56631986154E+02 -0.77043020490E+02  0.12373073623E+03  0.77000000000E+02 0.  0.
   -5000001    1    1    2    0    0 -0.15410588081E+02  0.56631986154E+02 -0.73411863430E+02  0.12150296199E+03  0.77000000000E+02 0.  0.
<mgrwt>
<rscale>  0 0.19365664E+03</rscale>
<asrwt>0</asrwt>
<pdfrwt beam="1">  1        2 0.67699154E-02 0.19365664E+03</pdfrwt>
<pdfrwt beam="2">  1       -2 0.28263470E-01 0.19365664E+03</pdfrwt>
<totfact> 0.11602437E+04</totfact>
</mgrwt>
</event>
<event>
 4    1  0.1300812E-003  0.3920003E+03  0.7818608E-02  0.1046585E+00
          2   -1    0    0  501    0  0.00000000000E+00  0.00000000000E+00  0.76959274729E+03  0.76959274729E+03  0.25500000000E-02 0.  1.
         -2   -1    0    0    0  501 -0.00000000000E+00 -0.00000000000E+00 -0.49917390839E+02  0.49917390905E+02  0.25500000000E-02 0. -1.
    5000001    1    1    2    0    0 -0.10430819546E+02 -0.78681831626E+02  0.21528058001E+02  0.11265917586E+03  0.77000000000E+02 0.  0.
   -5000001    1    1    2    0    0  0.10430819546E+02  0.78681831626E+02  0.69814729845E+03  0.70685096233E+03  0.77000000000E+02 0.  0.
<mgrwt>
<rscale>  0 0.39200032E+03</rscale>
<asrwt>0</asrwt>
<pdfrwt beam="1">  1        2 0.10994183E+00 0.39200032E+03</pdfrwt>
<pdfrwt beam="2">  1       -2 0.71310550E-02 0.39200032E+03</pdfrwt>
<totfact> 0.46599992E+03</totfact>
</mgrwt>
</event>
<event>
 4    1  0.1300812E-003  0.5117441E+03  0.7818608E-02  0.1010758E+00
          2   -1    0    0  501    0  0.00000000000E+00  0.00000000000E+00  0.53525663443E+03  0.53525663444E+03  0.25500000000E-02 0.  1.
         -2   -1    0    0    0  501 -0.00000000000E+00 -0.00000000000E+00 -0.12231610699E+03  0.12231610702E+03  0.25500000000E-02 0. -1.
    5000001    1    1    2    0    0  0.18878358538E+03  0.15263371613E+03  0.23808179745E+03  0.34863768540E+03  0.77000000000E+02 0.  0.
   -5000001    1    1    2    0    0 -0.18878358538E+03 -0.15263371613E+03  0.17485872999E+03  0.30893505605E+03  0.77000000000E+02 0.  0.
<mgrwt>
<rscale>  0 0.51174411E+03</rscale>
<asrwt>0</asrwt>
<pdfrwt beam="1">  1        2 0.76465235E-01 0.51174411E+03</pdfrwt>
<pdfrwt beam="2">  1       -2 0.17473729E-01 0.51174411E+03</pdfrwt>
<totfact> 0.16701475E+03</totfact>
</mgrwt>
</event>
<event>
 4    1  0.1300812E-003  0.2796520E+03  0.7818608E-02  0.1095879E+00
          2   -1    0    0  501    0  0.00000000000E+00  0.00000000000E+00  0.51986522037E+03  0.51986522038E+03  0.25500000000E-02 0.  1.
         -2   -1    0    0    0  501 -0.00000000000E+00 -0.00000000000E+00 -0.37608419602E+02  0.37608419688E+02  0.25500000000E-02 0. -1.
    5000001    1    1    2    0    0 -0.10299794437E+03 -0.13781685343E+02  0.34705943850E+03  0.37037516824E+03  0.77000000000E+02 0.  0.
   -5000001    1    1    2    0    0  0.10299794437E+03  0.13781685343E+02  0.13519736227E+03  0.18709847183E+03  0.77000000000E+02 0.  0.
<mgrwt>
<rscale>  0 0.27965199E+03</rscale>
<asrwt>0</asrwt>
<pdfrwt beam="1">  1        2 0.74266449E-01 0.27965199E+03</pdfrwt>
<pdfrwt beam="2">  1       -2 0.53726322E-02 0.27965199E+03</pdfrwt>
<totfact> 0.11303250E+04</totfact>
</mgrwt>
</event>
<event>
 4    1  0.1300812E-003  0.2613825E+03  0.7818608E-02  0.1106315E+00
         -2   -1    0    0    0  501 -0.00000000000E+00  0.00000000000E+00  0.19622814221E+02  0.19622814387E+02  0.25500000000E-02 0. -1.
          2   -1    0    0  501    0  0.00000000000E+00 -0.00000000000E+00 -0.87042587763E+03  0.87042587764E+03  0.25500000000E-02 0.  1.
    5000001    1    1    2    0    0  0.82975729861E+02  0.50882168491E+02 -0.56485670971E+03  0.57833041535E+03  0.77000000000E+02 0.  0.
   -5000001    1    1    2    0    0 -0.82975729861E+02 -0.50882168491E+02 -0.28594635370E+03  0.31171827667E+03  0.77000000000E+02 0.  0.
<mgrwt>
<rscale>  0 0.26138252E+03</rscale>
<asrwt>0</asrwt>
<pdfrwt beam="1">  1        2 0.12434653E+00 0.26138252E+03</pdfrwt>
<pdfrwt beam="2">  1       -2 0.28032597E-02 0.26138252E+03</pdfrwt>
<totfact> 0.16303900E+04</totfact>
</mgrwt>
</event>
<event>
 4    1  0.1300812E-003  0.3901536E+03  0.7818608E-02  0.1047243E+00
         -2   -1    0    0    0  501 -0.00000000000E+00  0.00000000000E+00  0.17919818814E+04  0.17919818814E+04  0.25500000000E-02 0. -1.
          2   -1    0    0  501    0  0.00000000000E+00 -0.00000000000E+00 -0.21236240222E+02  0.21236240375E+02  0.25500000000E-02 0.  1.
    5000001    1    1    2    0    0 -0.46529892720E+01 -0.15941159761E+03  0.12655626665E+04  0.12778934113E+04  0.77000000000E+02 0.  0.
   -5000001    1    1    2    0    0  0.46529892720E+01  0.15941159761E+03  0.50518297468E+03  0.53532471049E+03  0.77000000000E+02 0.  0.
<mgrwt>
<rscale>  0 0.39015360E+03</rscale>
<asrwt>0</asrwt>
<pdfrwt beam="1">  1        2 0.30337492E-02 0.39015360E+03</pdfrwt>
<pdfrwt beam="2">  1       -2 0.25599736E+00 0.39015360E+03</pdfrwt>
<totfact> 0.20327336E+02</totfact>
</mgrwt>
</event>
<event>
 4    1  0.1300812E-003  0.1725108E+03  0.7818608E-02  0.1175254E+00
          2   -1    0    0  501    0  0.00000000000E+00  0.00000000000E+00  0.10897857547E+04  0.10897857547E+04  0.25500000000E-02 0.  1.
         -2   -1    0    0    0  501 -0.00000000000E+00 -0.00000000000E+00 -0.68270256765E+01  0.68270261527E+01  0.25500000000E-02 0. -1.
    5000001    1    1    2    0    0  0.35284664141E+02 -0.12612683185E+02  0.47575253825E+03  0.48339793644E+03  0.77000000000E+02 0.  0.
   -5000001    1    1    2    0    0 -0.35284664141E+02  0.12612683185E+02  0.60720619074E+03  0.61321484438E+03  0.77000000000E+02 0.  0.
<mgrwt>
<rscale>  0 0.17251082E+03</rscale>
<asrwt>0</asrwt>
<pdfrwt beam="1">  1        2 0.15568366E+00 0.17251082E+03</pdfrwt>
<pdfrwt beam="2">  1       -2 0.97528955E-03 0.17251082E+03</pdfrwt>
<totfact> 0.54812902E+04</totfact>
</mgrwt>
</event>
<event>
 4    1  0.1300812E-003  0.1623735E+03  0.7818608E-02  0.1186043E+00
          2   -1    0    0  501    0  0.00000000000E+00  0.00000000000E+00  0.59928225567E+03  0.59928225567E+03  0.25500000000E-02 0.  1.
         -2   -1    0    0    0  501 -0.00000000000E+00 -0.00000000000E+00 -0.10998631707E+02  0.10998632003E+02  0.25500000000E-02 0. -1.
    5000001    1    1    2    0    0 -0.15553061688E+02  0.19686308704E+02  0.27260443971E+03  0.28437937518E+03  0.77000000000E+02 0.  0.
   -5000001    1    1    2    0    0  0.15553061688E+02 -0.19686308704E+02  0.31567918425E+03  0.32590151250E+03  0.77000000000E+02 0.  0.
<mgrwt>
<rscale>  0 0.16237346E+03</rscale>
<asrwt>0</asrwt>
<pdfrwt beam="1">  1        2 0.85611747E-01 0.16237346E+03</pdfrwt>
<pdfrwt beam="2">  1       -2 0.15712332E-02 0.16237346E+03</pdfrwt>
<totfact> 0.57374704E+04</totfact>
</mgrwt>
</event>
<event>
 4    1  0.1300812E-003  0.4121623E+03  0.7818608E-02  0.1039648E+00
          2   -1    0    0  501    0  0.00000000000E+00  0.00000000000E+00  0.11172741763E+04  0.11172741763E+04  0.25500000000E-02 0.  1.
         -2   -1    0    0    0  501 -0.00000000000E+00 -0.00000000000E+00 -0.38011651950E+02  0.38011652036E+02  0.25500000000E-02 0. -1.
    5000001    1    1    2    0    0 -0.14940292499E+03  0.91069306951E+02  0.75539914276E+03  0.77921224166E+03  0.77000000000E+02 0.  0.
   -5000001    1    1    2    0    0  0.14940292499E+03 -0.91069306951E+02  0.32386338158E+03  0.37607358667E+03  0.77000000000E+02 0.  0.
<mgrwt>
<rscale>  0 0.41216228E+03</rscale>
<asrwt>0</asrwt>
<pdfrwt beam="1">  1        2 0.15961058E+00 0.41216228E+03</pdfrwt>
<pdfrwt beam="2">  1       -2 0.54302366E-02 0.41216228E+03</pdfrwt>
<totfact> 0.43210777E+03</totfact>
</mgrwt>
</event>
<event>
 4    1  0.1300812E-003  0.4690135E+03  0.7818608E-02  0.1022199E+00
         -2   -1    0    0    0  501 -0.00000000000E+00  0.00000000000E+00  0.14976163106E+04  0.14976163106E+04  0.25500000000E-02 0. -1.
          2   -1    0    0  501    0  0.00000000000E+00 -0.00000000000E+00 -0.36720637765E+02  0.36720637853E+02  0.25500000000E-02 0.  1.
    5000001    1    1    2    0    0 -0.48056134883E+02  0.15305249065E+03  0.23076729074E+03  0.29140521524E+03  0.77000000000E+02 0.  0.
   -5000001    1    1    2    0    0  0.48056134883E+02 -0.15305249065E+03  0.12301283821E+04  0.12429317332E+04  0.77000000000E+02 0.  0.
<mgrwt>
<rscale>  0 0.46901354E+03</rscale>
<asrwt>0</asrwt>
<pdfrwt beam="1">  1        2 0.52458058E-02 0.46901354E+03</pdfrwt>
<pdfrwt beam="2">  1       -2 0.21394517E+00 0.46901354E+03</pdfrwt>
<totfact> 0.17298183E+02</totfact>
</mgrwt>
</event>
<event>
 4    1  0.1300812E-003  0.2811400E+03  0.7818608E-02  0.1095068E+00
         -2   -1    0    0    0  501 -0.00000000000E+00  0.00000000000E+00  0.64748002337E+02  0.64748002388E+02  0.25500000000E-02 0. -1.
          2   -1    0    0  501    0  0.00000000000E+00 -0.00000000000E+00 -0.30518202654E+03  0.30518202655E+03  0.25500000000E-02 0.  1.
    5000001    1    1    2    0    0 -0.41527285407E+02  0.10954498322E+03 -0.13378387659E+03  0.19378272476E+03  0.77000000000E+02 0.  0.
   -5000001    1    1    2    0    0  0.41527285407E+02 -0.10954498322E+03 -0.10665014761E+03  0.17614730417E+03  0.77000000000E+02 0.  0.
<mgrwt>
<rscale>  0 0.28114001E+03</rscale>
<asrwt>0</asrwt>
<pdfrwt beam="1">  1        2 0.43597431E-01 0.28114001E+03</pdfrwt>
<pdfrwt beam="2">  1       -2 0.92497148E-02 0.28114001E+03</pdfrwt>
<totfact> 0.86840184E+03</totfact>
</mgrwt>
</event>
<event>
 4    1  0.1300812E-003  0.1943742E+03  0.7818608E-02  0.1154574E+00
         -2   -1    0    0    0  501 -0.00000000000E+00  0.00000000000E+00  0.13632185167E+03  0.13632185170E+03  0.25500000000E-02 0. -1.
          2   -1    0    0  501    0  0.00000000000E+00 -0.00000000000E+00 -0.69287022606E+02  0.69287022653E+02  0.25500000000E-02 0.  1.
    5000001    1    1    2    0    0 -0.34726166144E+02  0.42512835891E+02  0.57243434407E+02  0.11053985079E+03  0.77000000000E+02 0.  0.
   -5000001    1    1    2    0    0  0.34726166144E+02 -0.42512835891E+02  0.97913946583E+01  0.95069023556E+02  0.77000000000E+02 0.  0.
<mgrwt>
<rscale>  0 0.19437423E+03</rscale>
<asrwt>0</asrwt>
<pdfrwt beam="1">  1        2 0.98981460E-02 0.19437423E+03</pdfrwt>
<pdfrwt beam="2">  1       -2 0.19474550E-01 0.19437423E+03</pdfrwt>
<totfact> 0.13748000E+04</totfact>
</mgrwt>
</event>
<event>
 4    1  0.1300812E-003  0.5958817E+03  0.7818608E-02  0.9913987E-01
         -2   -1    0    0    0  501 -0.00000000000E+00  0.00000000000E+00  0.28750064272E+03  0.28750064273E+03  0.25500000000E-02 0. -1.
          2   -1    0    0  501    0  0.00000000000E+00 -0.00000000000E+00 -0.30876014190E+03  0.30876014191E+03  0.25500000000E-02 0.  1.
    5000001    1    1    2    0    0 -0.13125695961E+02  0.28049410648E+03 -0.73840437040E+02  0.30038415040E+03  0.77000000000E+02 0.  0.
   -5000001    1    1    2    0    0  0.13125695961E+02 -0.28049410648E+03  0.52580937855E+02  0.29587663425E+03  0.77000000000E+02 0.  0.
<mgrwt>
<rscale>  0 0.59588166E+03</rscale>
<asrwt>0</asrwt>
<pdfrwt beam="1">  1        2 0.44108592E-01 0.59588166E+03</pdfrwt>
<pdfrwt beam="2">  1       -2 0.41071521E-01 0.59588166E+03</pdfrwt>
<totfact> 0.65240491E+02</totfact>
</mgrwt>
</event>
<event>
 4    1  0.1300812E-003  0.2539615E+03  0.7818608E-02  0.1110827E+00
         -2   -1    0    0    0  501 -0.00000000000E+00  0.00000000000E+00  0.75216090596E+02  0.75216090639E+02  0.25500000000E-02 0. -1.
          2   -1    0    0  501    0  0.00000000000E+00 -0.00000000000E+00 -0.21437046054E+03  0.21437046055E+03  0.25500000000E-02 0.  1.
    5000001    1    1    2    0    0 -0.54026300752E+02  0.69466079148E+02 -0.13127914136E+02  0.11766783526E+03  0.77000000000E+02 0.  0.
   -5000001    1    1    2    0    0  0.54026300752E+02 -0.69466079148E+02 -0.12602645581E+03  0.17191871593E+03  0.77000000000E+02 0.  0.
<mgrwt>
<rscale>  0 0.25396148E+03</rscale>
<asrwt>0</asrwt>
<pdfrwt beam="1">  1        2 0.30624351E-01 0.25396148E+03</pdfrwt>
<pdfrwt beam="2">  1       -2 0.10745156E-01 0.25396148E+03</pdfrwt>
<totfact> 0.99892971E+03</totfact>
</mgrwt>
</event>
<event>
 4    1  0.1300812E-003  0.4050198E+03  0.7818608E-02  0.1042055E+00
          2   -1    0    0  501    0  0.00000000000E+00  0.00000000000E+00  0.16870933521E+04  0.16870933521E+04  0.25500000000E-02 0.  1.
         -2   -1    0    0    0  501 -0.00000000000E+00 -0.00000000000E+00 -0.24308236740E+02  0.24308236873E+02  0.25500000000E-02 0. -1.
    5000001    1    1    2    0    0  0.97620015768E+02  0.14490971243E+03  0.11165033276E+04  0.11327123081E+04  0.77000000000E+02 0.  0.
   -5000001    1    1    2    0    0 -0.97620015768E+02 -0.14490971243E+03  0.54628178772E+03  0.57868928090E+03  0.77000000000E+02 0.  0.
<mgrwt>
<rscale>  0 0.40501983E+03</rscale>
<asrwt>0</asrwt>
<pdfrwt beam="1">  1        2 0.24101338E+00 0.40501983E+03</pdfrwt>
<pdfrwt beam="2">  1       -2 0.34726046E-02 0.40501983E+03</pdfrwt>
<totfact> 0.42832305E+03</totfact>
</mgrwt>
</event>
<event>
 4    1  0.1300812E-003  0.2366039E+03  0.7818608E-02  0.1122076E+00
         -2   -1    0    0    0  501 -0.00000000000E+00  0.00000000000E+00  0.18788483261E+02  0.18788483434E+02  0.25500000000E-02 0. -1.
          2   -1    0    0  501    0  0.00000000000E+00 -0.00000000000E+00 -0.74489018247E+03  0.74489018248E+03  0.25500000000E-02 0.  1.
    5000001    1    1    2    0    0 -0.10416074733E+02 -0.88044149716E+02 -0.40938668621E+03  0.42589520514E+03  0.77000000000E+02 0.  0.
   -5000001    1    1    2    0    0  0.10416074733E+02  0.88044149716E+02 -0.31671501300E+03  0.33778346077E+03  0.77000000000E+02 0.  0.
<mgrwt>
<rscale>  0 0.23660395E+03</rscale>
<asrwt>0</asrwt>
<pdfrwt beam="1">  1        2 0.10641286E+00 0.23660395E+03</pdfrwt>
<pdfrwt beam="2">  1       -2 0.26840695E-02 0.23660395E+03</pdfrwt>
<totfact> 0.20979574E+04</totfact>
</mgrwt>
</event>
<event>
 4    1  0.1300812E-003  0.3355770E+03  0.7818608E-02  0.1068696E+00
          2   -1    0    0  501    0  0.00000000000E+00  0.00000000000E+00  0.73871717033E+02  0.73871717077E+02  0.25500000000E-02 0.  1.
         -2   -1    0    0    0  501 -0.00000000000E+00 -0.00000000000E+00 -0.38110639901E+03  0.38110639902E+03  0.25500000000E-02 0. -1.
    5000001    1    1    2    0    0  0.14544203906E+02 -0.14101670949E+03 -0.91092114164E+02  0.18526742694E+03  0.77000000000E+02 0.  0.
   -5000001    1    1    2    0    0 -0.14544203906E+02  0.14101670949E+03 -0.21614256781E+03  0.26971068915E+03  0.77000000000E+02 0.  0.
<mgrwt>
<rscale>  0 0.33557702E+03</rscale>
<asrwt>0</asrwt>
<pdfrwt beam="1">  1        2 0.10553103E-01 0.33557702E+03</pdfrwt>
<pdfrwt beam="2">  1       -2 0.54443770E-01 0.33557702E+03</pdfrwt>
<totfact> 0.19450994E+03</totfact>
</mgrwt>
</event>
<event>
 4    1  0.1300812E-003  0.2688723E+03  0.7818608E-02  0.1101927E+00
          2   -1    0    0  501    0  0.00000000000E+00  0.00000000000E+00  0.38790649250E+04  0.38790649250E+04  0.25500000000E-02 0.  1.
         -2   -1    0    0    0  501 -0.00000000000E+00 -0.00000000000E+00 -0.46591340813E+01  0.46591347791E+01  0.25500000000E-02 0. -1.
    5000001    1    1    2    0    0  0.30456109272E+02  0.97999339953E+02  0.13571455881E+04  0.13631964614E+04  0.77000000000E+02 0.  0.
   -5000001    1    1    2    0    0 -0.30456109272E+02 -0.97999339953E+02  0.25172602029E+04  0.25205275984E+04  0.77000000000E+02 0.  0.
<mgrwt>
<rscale>  0 0.26887235E+03</rscale>
<asrwt>0</asrwt>
<pdfrwt beam="1">  1        2 0.55415505E+00 0.26887235E+03</pdfrwt>
<pdfrwt beam="2">  1       -2 0.66558713E-03 0.26887235E+03</pdfrwt>
<totfact> 0.33340601E+03</totfact>
</mgrwt>
</event>
<event>
 4    1  0.1300812E-003  0.1819635E+03  0.7818608E-02  0.1165916E+00
         -2   -1    0    0    0  501 -0.00000000000E+00  0.00000000000E+00  0.94560756960E+01  0.94560760398E+01  0.25500000000E-02 0. -1.
          2   -1    0    0  501    0  0.00000000000E+00 -0.00000000000E+00 -0.87538167286E+03  0.87538167287E+03  0.25500000000E-02 0.  1.
    5000001    1    1    2    0    0 -0.32010220018E+02  0.26965778935E+02 -0.31416219962E+03  0.32615746977E+03  0.77000000000E+02 0.  0.
   -5000001    1    1    2    0    0  0.32010220018E+02 -0.26965778935E+02 -0.55176339755E+03  0.55868027913E+03  0.77000000000E+02 0.  0.
<mgrwt>
<rscale>  0 0.18196346E+03</rscale>
<asrwt>0</asrwt>
<pdfrwt beam="1">  1        2 0.12505447E+00 0.18196346E+03</pdfrwt>
<pdfrwt beam="2">  1       -2 0.13508685E-02 0.18196346E+03</pdfrwt>
<totfact> 0.46039252E+04</totfact>
</mgrwt>
</event>
<event>
 4    1  0.1300812E-003  0.2824394E+03  0.7818608E-02  0.1094364E+00
          2   -1    0    0  501    0  0.00000000000E+00  0.00000000000E+00  0.30230423661E+02  0.30230423768E+02  0.25500000000E-02 0.  1.
         -2   -1    0    0    0  501 -0.00000000000E+00 -0.00000000000E+00 -0.65969989408E+03  0.65969989409E+03  0.25500000000E-02 0. -1.
    5000001    1    1    2    0    0  0.16940800360E+02 -0.11218051818E+03 -0.23216571572E+03  0.26963193233E+03  0.77000000000E+02 0.  0.
   -5000001    1    1    2    0    0 -0.16940800360E+02  0.11218051818E+03 -0.39730375470E+03  0.42029838553E+03  0.77000000000E+02 0.  0.
<mgrwt>
<rscale>  0 0.28243943E+03</rscale>
<asrwt>0</asrwt>
<pdfrwt beam="1">  1        2 0.43186324E-02 0.28243943E+03</pdfrwt>
<pdfrwt beam="2">  1       -2 0.94242833E-01 0.28243943E+03</pdfrwt>
<totfact> 0.18816261E+03</totfact>
</mgrwt>
</event>
<event>
 4    1  0.1300812E-003  0.5791135E+03  0.7818608E-02  0.9949712E-01
          2   -1    0    0  501    0  0.00000000000E+00  0.00000000000E+00  0.37289570843E+02  0.37289570930E+02  0.25500000000E-02 0.  1.
         -2   -1    0    0    0  501 -0.00000000000E+00 -0.00000000000E+00 -0.22484331610E+04  0.22484331610E+04  0.25500000000E-02 0. -1.
    5000001    1    1    2    0    0  0.23745115088E+03  0.20812980648E+02 -0.16788682573E+04  0.16974521656E+04  0.77000000000E+02 0.  0.
   -5000001    1    1    2    0    0 -0.23745115088E+03 -0.20812980648E+02 -0.53227533289E+03  0.58827056634E+03  0.77000000000E+02 0.  0.
<mgrwt>
<rscale>  0 0.57911349E+03</rscale>
<asrwt>0</asrwt>
<pdfrwt beam="1">  1        2 0.53270830E-02 0.57911349E+03</pdfrwt>
<pdfrwt beam="2">  1       -2 0.32120465E+00 0.57911349E+03</pdfrwt>
<totfact> 0.38096436E+01</totfact>
</mgrwt>
</event>
<event>
 4    1  0.1300812E-003  0.1818216E+03  0.7818608E-02  0.1166052E+00
          2   -1    0    0  501    0  0.00000000000E+00  0.00000000000E+00  0.19969758867E+04  0.19969758867E+04  0.25500000000E-02 0.  1.
         -2   -1    0    0    0  501 -0.00000000000E+00 -0.00000000000E+00 -0.41386455371E+01  0.41386463227E+01  0.25500000000E-02 0. -1.
    5000001    1    1    2    0    0 -0.13271582240E+02 -0.30787938087E+02  0.61330123485E+03  0.61902458489E+03  0.77000000000E+02 0.  0.
   -5000001    1    1    2    0    0  0.13271582240E+02  0.30787938087E+02  0.13795360063E+04  0.13820899481E+04  0.77000000000E+02 0.  0.
<mgrwt>
<rscale>  0 0.18182163E+03</rscale>
<asrwt>0</asrwt>
<pdfrwt beam="1">  1        2 0.28528291E+00 0.18182163E+03</pdfrwt>
<pdfrwt beam="2">  1       -2 0.59123382E-03 0.18182163E+03</pdfrwt>
<totfact> 0.39531141E+04</totfact>
</mgrwt>
</event>
<event>
 4    1  0.1300812E-003  0.2458907E+03  0.7818608E-02  0.1115930E+00
         -2   -1    0    0    0  501 -0.00000000000E+00  0.00000000000E+00  0.50942534684E+01  0.50942541067E+01  0.25500000000E-02 0. -1.
          2   -1    0    0  501    0  0.00000000000E+00 -0.00000000000E+00 -0.29671781588E+04  0.29671781588E+04  0.25500000000E-02 0.  1.
    5000001    1    1    2    0    0  0.82063726998E+02 -0.49047683788E+02 -0.13986781254E+04  0.14040547101E+04  0.77000000000E+02 0.  0.
   -5000001    1    1    2    0    0 -0.82063726998E+02  0.49047683788E+02 -0.15634057800E+04  0.15682177028E+04  0.77000000000E+02 0.  0.
<mgrwt>
<rscale>  0 0.24589070E+03</rscale>
<asrwt>0</asrwt>
<pdfrwt beam="1">  1        2 0.42388149E+00 0.24589070E+03</pdfrwt>
<pdfrwt beam="2">  1       -2 0.72775244E-03 0.24589070E+03</pdfrwt>
<totfact> 0.97642910E+03</totfact>
</mgrwt>
</event>
<event>
 4    1  0.1300812E-003  0.2365638E+03  0.7818608E-02  0.1122103E+00
         -2   -1    0    0    0  501 -0.00000000000E+00  0.00000000000E+00  0.32434996994E+02  0.32434997094E+02  0.25500000000E-02 0. -1.
          2   -1    0    0  501    0  0.00000000000E+00 -0.00000000000E+00 -0.43134313875E+03  0.43134313876E+03  0.25500000000E-02 0.  1.
    5000001    1    1    2    0    0  0.55502457343E+02  0.70222823187E+02 -0.18561279786E+03  0.21998381395E+03  0.77000000000E+02 0.  0.
   -5000001    1    1    2    0    0 -0.55502457343E+02 -0.70222823187E+02 -0.21329534389E+03  0.24379432190E+03  0.77000000000E+02 0.  0.
<mgrwt>
<rscale>  0 0.23656385E+03</rscale>
<asrwt>0</asrwt>
<pdfrwt beam="1">  1        2 0.61620445E-01 0.23656385E+03</pdfrwt>
<pdfrwt beam="2">  1       -2 0.46335713E-02 0.23656385E+03</pdfrwt>
<totfact> 0.17219985E+04</totfact>
</mgrwt>
</event>
<event>
 4    1  0.1300812E-003  0.2440978E+03  0.7818608E-02  0.1117093E+00
         -2   -1    0    0    0  501 -0.00000000000E+00  0.00000000000E+00  0.17773400217E+02  0.17773400400E+02  0.25500000000E-02 0. -1.
          2   -1    0    0  501    0  0.00000000000E+00 -0.00000000000E+00 -0.83810288992E+03  0.83810288992E+03  0.25500000000E-02 0.  1.
    5000001    1    1    2    0    0 -0.45191559380E+01  0.84640673957E+02 -0.55819769424E+03  0.56982289557E+03  0.77000000000E+02 0.  0.
   -5000001    1    1    2    0    0  0.45191559380E+01 -0.84640673957E+02 -0.26213179546E+03  0.28605339475E+03  0.77000000000E+02 0.  0.
<mgrwt>
<rscale>  0 0.24409783E+03</rscale>
<asrwt>0</asrwt>
<pdfrwt beam="1">  1        2 0.11972896E+00 0.24409783E+03</pdfrwt>
<pdfrwt beam="2">  1       -2 0.25390577E-02 0.24409783E+03</pdfrwt>
<totfact> 0.19736966E+04</totfact>
</mgrwt>
</event>
<event>
 4    1  0.1300812E-003  0.2130288E+03  0.7818608E-02  0.1139190E+00
          2   -1    0    0  501    0  0.00000000000E+00  0.00000000000E+00  0.73115115465E+03  0.73115115465E+03  0.25500000000E-02 0.  1.
         -2   -1    0    0    0  501 -0.00000000000E+00 -0.00000000000E+00 -0.15517054178E+02  0.15517054388E+02  0.25500000000E-02 0. -1.
    5000001    1    1    2    0    0 -0.70910665573E+02 -0.23447344863E+01  0.28926814012E+03  0.30763432377E+03  0.77000000000E+02 0.  0.
   -5000001    1    1    2    0    0  0.70910665573E+02  0.23447344863E+01  0.42636596035E+03  0.43903388527E+03  0.77000000000E+02 0.  0.
<mgrwt>
<rscale>  0 0.21302875E+03</rscale>
<asrwt>0</asrwt>
<pdfrwt beam="1">  1        2 0.10445019E+00 0.21302875E+03</pdfrwt>
<pdfrwt beam="2">  1       -2 0.22167216E-02 0.21302875E+03</pdfrwt>
<totfact> 0.28247706E+04</totfact>
</mgrwt>
</event>
<event>
 4    1  0.1300812E-003  0.2279145E+03  0.7818608E-02  0.1128116E+00
          2   -1    0    0  501    0  0.00000000000E+00  0.00000000000E+00  0.14972423248E+04  0.14972423248E+04  0.25500000000E-02 0.  1.
         -2   -1    0    0    0  501 -0.00000000000E+00 -0.00000000000E+00 -0.86734511541E+01  0.86734515289E+01  0.25500000000E-02 0. -1.
    5000001    1    1    2    0    0 -0.69205239298E+02 -0.45577102515E+02  0.65305939380E+03  0.66278368210E+03  0.77000000000E+02 0.  0.
   -5000001    1    1    2    0    0  0.69205239298E+02  0.45577102515E+02  0.83550947983E+03  0.84313209422E+03  0.77000000000E+02 0.  0.
<mgrwt>
<rscale>  0 0.22791453E+03</rscale>
<asrwt>0</asrwt>
<pdfrwt beam="1">  1        2 0.21389133E+00 0.22791453E+03</pdfrwt>
<pdfrwt beam="2">  1       -2 0.12390670E-02 0.22791453E+03</pdfrwt>
<totfact> 0.24176737E+04</totfact>
</mgrwt>
</event>
<event>
 4    1  0.1300812E-003  0.2224560E+03  0.7818608E-02  0.1132065E+00
         -2   -1    0    0    0  501 -0.00000000000E+00  0.00000000000E+00  0.52243073702E+02  0.52243073764E+02  0.25500000000E-02 0. -1.
          2   -1    0    0  501    0  0.00000000000E+00 -0.00000000000E+00 -0.23680964777E+03  0.23680964779E+03  0.25500000000E-02 0.  1.
    5000001    1    1    2    0    0 -0.46535147136E+02 -0.63088560675E+02 -0.69891189668E+02  0.13022850994E+03  0.77000000000E+02 0.  0.
   -5000001    1    1    2    0    0  0.46535147136E+02  0.63088560675E+02 -0.11467538440E+03  0.15882421161E+03  0.77000000000E+02 0.  0.
<mgrwt>
<rscale>  0 0.22245596E+03</rscale>
<asrwt>0</asrwt>
<pdfrwt beam="1">  1        2 0.33829949E-01 0.22245596E+03</pdfrwt>
<pdfrwt beam="2">  1       -2 0.74632964E-02 0.22245596E+03</pdfrwt>
<totfact> 0.15778634E+04</totfact>
</mgrwt>
</event>
<event>
 4    1  0.1300812E-003  0.2595249E+03  0.7818608E-02  0.1107429E+00
         -2   -1    0    0    0  501 -0.00000000000E+00  0.00000000000E+00  0.38913583868E+02  0.38913583952E+02  0.25500000000E-02 0. -1.
          2   -1    0    0  501    0  0.00000000000E+00 -0.00000000000E+00 -0.43270975965E+03  0.43270975966E+03  0.25500000000E-02 0.  1.
    5000001    1    1    2    0    0 -0.95317517104E+02 -0.42015384686E+02 -0.21080526058E+03  0.24742388628E+03  0.77000000000E+02 0.  0.
   -5000001    1    1    2    0    0  0.95317517104E+02  0.42015384686E+02 -0.18299091520E+03  0.22419945732E+03  0.77000000000E+02 0.  0.
<mgrwt>
<rscale>  0 0.25952485E+03</rscale>
<asrwt>0</asrwt>
<pdfrwt beam="1">  1        2 0.61815677E-01 0.25952485E+03</pdfrwt>
<pdfrwt beam="2">  1       -2 0.55590837E-02 0.25952485E+03</pdfrwt>
<totfact> 0.13080906E+04</totfact>
</mgrwt>
</event>
<event>
 4    1  0.1300812E-003  0.9321081E+03  0.7818608E-02  0.9386311E-01
         -2   -1    0    0    0  501 -0.00000000000E+00  0.00000000000E+00  0.97451942580E+02  0.97451942614E+02  0.25500000000E-02 0. -1.
          2   -1    0    0  501    0  0.00000000000E+00 -0.00000000000E+00 -0.22288563686E+04  0.22288563686E+04  0.25500000000E-02 0.  1.
    5000001    1    1    2    0    0 -0.25009302731E+03  0.38495490644E+03 -0.10076750668E+04  0.11099886678E+04  0.77000000000E+02 0.  0.
   -5000001    1    1    2    0    0  0.25009302731E+03 -0.38495490644E+03 -0.11237293592E+04  0.12163196434E+04  0.77000000000E+02 0.  0.
<mgrwt>
<rscale>  0 0.93210811E+03</rscale>
<asrwt>0</asrwt>
<pdfrwt beam="1">  1        2 0.31840802E+00 0.93210811E+03</pdfrwt>
<pdfrwt beam="2">  1       -2 0.13921708E-01 0.93210811E+03</pdfrwt>
<totfact> 0.24546796E+02</totfact>
</mgrwt>
</event>
<event>
 4    1  0.1300812E-003  0.2268028E+03  0.7818608E-02  0.1128911E+00
         -2   -1    0    0    0  501 -0.00000000000E+00  0.00000000000E+00  0.74822729667E+01  0.74822734013E+01  0.25500000000E-02 0. -1.
          2   -1    0    0  501    0  0.00000000000E+00 -0.00000000000E+00 -0.17187125556E+04  0.17187125556E+04  0.25500000000E-02 0.  1.
    5000001    1    1    2    0    0  0.25001124715E+02 -0.72969373443E+02 -0.61719641901E+03  0.62674556666E+03  0.77000000000E+02 0.  0.
   -5000001    1    1    2    0    0 -0.25001124715E+02  0.72969373443E+02 -0.10940338636E+04  0.10994492624E+04  0.77000000000E+02 0.  0.
<mgrwt>
<rscale>  0 0.22680279E+03</rscale>
<asrwt>0</asrwt>
<pdfrwt beam="1">  1        2 0.24553011E+00 0.22680279E+03</pdfrwt>
<pdfrwt beam="2">  1       -2 0.10688973E-02 0.22680279E+03</pdfrwt>
<totfact> 0.23266967E+04</totfact>
</mgrwt>
</event>
<event>
 4    1  0.1300812E-003  0.2362251E+03  0.7818608E-02  0.1122333E+00
          2   -1    0    0  501    0  0.00000000000E+00  0.00000000000E+00  0.17247246670E+03  0.17247246672E+03  0.25500000000E-02 0.  1.
         -2   -1    0    0    0  501 -0.00000000000E+00 -0.00000000000E+00 -0.80885831987E+02  0.80885832028E+02  0.25500000000E-02 0. -1.
    5000001    1    1    2    0    0  0.38824627653E+02 -0.67269707518E+02  0.93626349397E+02  0.14397033918E+03  0.77000000000E+02 0.  0.
   -5000001    1    1    2    0    0 -0.38824627653E+02  0.67269707518E+02 -0.20397146866E+01  0.10938795957E+03  0.77000000000E+02 0.  0.
<mgrwt>
<rscale>  0 0.23622514E+03</rscale>
<asrwt>0</asrwt>
<pdfrwt beam="1">  1        2 0.24638924E-01 0.23622514E+03</pdfrwt>
<pdfrwt beam="2">  1       -2 0.11555119E-01 0.23622514E+03</pdfrwt>
<totfact> 0.11264086E+04</totfact>
</mgrwt>
</event>
<event>
 4    1  0.1300812E-003  0.2094017E+03  0.7818608E-02  0.1142041E+00
         -2   -1    0    0    0  501 -0.00000000000E+00  0.00000000000E+00  0.18683680128E+04  0.18683680128E+04  0.25500000000E-02 0. -1.
          2   -1    0    0  501    0  0.00000000000E+00 -0.00000000000E+00 -0.58672970938E+01  0.58672976480E+01  0.25500000000E-02 0.  1.
    5000001    1    1    2    0    0  0.47287044128E+02  0.16050281770E+02  0.48019893244E+03  0.48889026458E+03  0.77000000000E+02 0.  0.
   -5000001    1    1    2    0    0 -0.47287044128E+02 -0.16050281770E+02  0.13823017833E+04  0.13853450459E+04  0.77000000000E+02 0.  0.
<mgrwt>
<rscale>  0 0.20940173E+03</rscale>
<asrwt>0</asrwt>
<pdfrwt beam="1">  1        2 0.83818483E-03 0.20940173E+03</pdfrwt>
<pdfrwt beam="2">  1       -2 0.26690988E+00 0.20940173E+03</pdfrwt>
<totfact> 0.10477190E+03</totfact>
</mgrwt>
</event>
<event>
 4    1  0.1300812E-003  0.3399648E+03  0.7818608E-02  0.1066811E+00
         -2   -1    0    0    0  501 -0.00000000000E+00  0.00000000000E+00  0.20045259234E+02  0.20045259396E+02  0.25500000000E-02 0. -1.
          2   -1    0    0  501    0  0.00000000000E+00 -0.00000000000E+00 -0.14414391558E+04  0.14414391558E+04  0.25500000000E-02 0.  1.
    5000001    1    1    2    0    0 -0.13516242315E+03 -0.68399045925E+02 -0.69260486856E+03  0.71314641840E+03  0.77000000000E+02 0.  0.
   -5000001    1    1    2    0    0  0.13516242315E+03  0.68399045925E+02 -0.72878902798E+03  0.74833799678E+03  0.77000000000E+02 0.  0.
<mgrwt>
<rscale>  0 0.33996483E+03</rscale>
<asrwt>0</asrwt>
<pdfrwt beam="1">  1        2 0.20591981E+00 0.33996483E+03</pdfrwt>
<pdfrwt beam="2">  1       -2 0.28636094E-02 0.33996483E+03</pdfrwt>
<totfact> 0.76170242E+03</totfact>
</mgrwt>
</event>
<event>
 4    1  0.1300812E-003  0.2830600E+03  0.7818608E-02  0.1094029E+00
          2   -1    0    0  501    0  0.00000000000E+00  0.00000000000E+00  0.11336976654E+04  0.11336976654E+04  0.25500000000E-02 0.  1.
         -2   -1    0    0    0  501 -0.00000000000E+00 -0.00000000000E+00 -0.17668497856E+02  0.17668498040E+02  0.25500000000E-02 0. -1.
    5000001    1    1    2    0    0 -0.42134119146E+02  0.11097386393E+03  0.57165908657E+03  0.58890881615E+03  0.77000000000E+02 0.  0.
   -5000001    1    1    2    0    0  0.42134119146E+02 -0.11097386393E+03  0.54437008098E+03  0.56245734731E+03  0.77000000000E+02 0.  0.
<mgrwt>
<rscale>  0 0.28305996E+03</rscale>
<asrwt>0</asrwt>
<pdfrwt beam="1">  1        2 0.16195682E+00 0.28305996E+03</pdfrwt>
<pdfrwt beam="2">  1       -2 0.25240710E-02 0.28305996E+03</pdfrwt>
<totfact> 0.13346988E+04</totfact>
</mgrwt>
</event>
<event>
 4    1  0.1300812E-003  0.1748856E+03  0.7818608E-02  0.1172847E+00
         -2   -1    0    0    0  501 -0.00000000000E+00  0.00000000000E+00  0.10447013590E+03  0.10447013593E+03  0.25500000000E-02 0. -1.
          2   -1    0    0  501    0  0.00000000000E+00 -0.00000000000E+00 -0.73190706589E+02  0.73190706634E+02  0.25500000000E-02 0.  1.
    5000001    1    1    2    0    0 -0.29016639677E+02 -0.29366307828E+02  0.19288036032E+02  0.89472754219E+02  0.77000000000E+02 0.  0.
   -5000001    1    1    2    0    0  0.29016639677E+02  0.29366307828E+02  0.11991393280E+02  0.88188088348E+02  0.77000000000E+02 0.  0.
<mgrwt>
<rscale>  0 0.17488560E+03</rscale>
<asrwt>0</asrwt>
<pdfrwt beam="1">  1        2 0.10455815E-01 0.17488560E+03</pdfrwt>
<pdfrwt beam="2">  1       -2 0.14924305E-01 0.17488560E+03</pdfrwt>
<totfact> 0.19851067E+04</totfact>
</mgrwt>
</event>
<event>
 4    1  0.1300812E-003  0.1924055E+03  0.7818608E-02  0.1156309E+00
         -2   -1    0    0    0  501 -0.00000000000E+00  0.00000000000E+00  0.11373694434E+02  0.11373694720E+02  0.25500000000E-02 0. -1.
          2   -1    0    0  501    0  0.00000000000E+00 -0.00000000000E+00 -0.81371698529E+03  0.81371698529E+03  0.25500000000E-02 0.  1.
    5000001    1    1    2    0    0 -0.52558080712E+02 -0.20142254074E+02 -0.34728466718E+03  0.36014400218E+03  0.77000000000E+02 0.  0.
   -5000001    1    1    2    0    0  0.52558080712E+02  0.20142254074E+02 -0.45505862368E+03  0.46494667783E+03  0.77000000000E+02 0.  0.
<mgrwt>
<rscale>  0 0.19240549E+03</rscale>
<asrwt>0</asrwt>
<pdfrwt beam="1">  1        2 0.11624525E+00 0.19240549E+03</pdfrwt>
<pdfrwt beam="2">  1       -2 0.16248140E-02 0.19240549E+03</pdfrwt>
<totfact> 0.38764913E+04</totfact>
</mgrwt>
</event>
<event>
 4    1  0.1300812E-003  0.2597483E+03  0.7818608E-02  0.1107295E+00
          2   -1    0    0  501    0  0.00000000000E+00  0.00000000000E+00  0.60699696953E+03  0.60699696953E+03  0.25500000000E-02 0.  1.
         -2   -1    0    0    0  501 -0.00000000000E+00 -0.00000000000E+00 -0.27788103617E+02  0.27788103734E+02  0.25500000000E-02 0. -1.
    5000001    1    1    2    0    0  0.74756938250E+02  0.73127965459E+02  0.29305672873E+03  0.32054257971E+03  0.77000000000E+02 0.  0.
   -5000001    1    1    2    0    0 -0.74756938250E+02 -0.73127965459E+02  0.28615213718E+03  0.31424249356E+03  0.77000000000E+02 0.  0.
<mgrwt>
<rscale>  0 0.25974830E+03</rscale>
<asrwt>0</asrwt>
<pdfrwt beam="1">  1        2 0.86713853E-01 0.25974830E+03</pdfrwt>
<pdfrwt beam="2">  1       -2 0.39697291E-02 0.25974830E+03</pdfrwt>
<totfact> 0.14955810E+04</totfact>
</mgrwt>
</event>
<event>
 4    1  0.1300812E-003  0.2864046E+03  0.7818608E-02  0.1092241E+00
          2   -1    0    0  501    0  0.00000000000E+00  0.00000000000E+00  0.15732892173E+04  0.15732892173E+04  0.25500000000E-02 0.  1.
         -2   -1    0    0    0  501 -0.00000000000E+00 -0.00000000000E+00 -0.13034413950E+02  0.13034414200E+02  0.25500000000E-02 0. -1.
    5000001    1    1    2    0    0  0.48450986257E+01  0.82184099088E+02  0.29095191787E+03  0.31202519071E+03  0.77000000000E+02 0.  0.
   -5000001    1    1    2    0    0 -0.48450986257E+01 -0.82184099088E+02  0.12693028854E+04  0.12742984408E+04  0.77000000000E+02 0.  0.
<mgrwt>
<rscale>  0 0.28640463E+03</rscale>
<asrwt>0</asrwt>
<pdfrwt beam="1">  1        2 0.22475545E+00 0.28640463E+03</pdfrwt>
<pdfrwt beam="2">  1       -2 0.18620604E-02 0.28640463E+03</pdfrwt>
<totfact> 0.12317406E+04</totfact>
</mgrwt>
</event>
<event>
 4    1  0.1300812E-003  0.2043754E+03  0.7818608E-02  0.1146099E+00
          2   -1    0    0  501    0  0.00000000000E+00  0.00000000000E+00  0.23272710782E+03  0.23272710784E+03  0.25500000000E-02 0.  1.
         -2   -1    0    0    0  501 -0.00000000000E+00 -0.00000000000E+00 -0.44869418759E+02  0.44869418831E+02  0.25500000000E-02 0. -1.
    5000001    1    1    2    0    0  0.26618168752E+02  0.61561660829E+02  0.99183264884E+02  0.14235408327E+03  0.77000000000E+02 0.  0.
   -5000001    1    1    2    0    0 -0.26618168752E+02 -0.61561660829E+02  0.88674424181E+02  0.13524244340E+03  0.77000000000E+02 0.  0.
<mgrwt>
<rscale>  0 0.20437544E+03</rscale>
<asrwt>0</asrwt>
<pdfrwt beam="1">  1        2 0.33246730E-01 0.20437544E+03</pdfrwt>
<pdfrwt beam="2">  1       -2 0.64099168E-02 0.20437544E+03</pdfrwt>
<totfact> 0.20208662E+04</totfact>
</mgrwt>
</event>
<event>
 4    1  0.1300812E-003  0.2499855E+03  0.7818608E-02  0.1113314E+00
         -2   -1    0    0    0  501 -0.00000000000E+00  0.00000000000E+00  0.21123204396E+02  0.21123204550E+02  0.25500000000E-02 0. -1.
          2   -1    0    0  501    0  0.00000000000E+00 -0.00000000000E+00 -0.73962198498E+03  0.73962198498E+03  0.25500000000E-02 0.  1.
    5000001    1    1    2    0    0  0.89800793869E+02 -0.20072843831E+02 -0.25264828754E+03  0.27969136354E+03  0.77000000000E+02 0.  0.
   -5000001    1    1    2    0    0 -0.89800793869E+02  0.20072843831E+02 -0.46585049304E+03  0.48105382600E+03  0.77000000000E+02 0.  0.
<mgrwt>
<rscale>  0 0.24998549E+03</rscale>
<asrwt>0</asrwt>
<pdfrwt beam="1">  1        2 0.10566027E+00 0.24998549E+03</pdfrwt>
<pdfrwt beam="2">  1       -2 0.30176011E-02 0.24998549E+03</pdfrwt>
<totfact> 0.17839798E+04</totfact>
</mgrwt>
</event>
<event>
 4    1  0.1300812E-003  0.4744262E+03  0.7818608E-02  0.1020678E+00
         -2   -1    0    0    0  501 -0.00000000000E+00  0.00000000000E+00  0.25986957697E+03  0.25986957698E+03  0.25500000000E-02 0. -1.
          2   -1    0    0  501    0  0.00000000000E+00 -0.00000000000E+00 -0.21653193786E+03  0.21653193788E+03  0.25500000000E-02 0.  1.
    5000001    1    1    2    0    0  0.21472699630E+03  0.10704581184E+02  0.86113841006E+02  0.24406323896E+03  0.77000000000E+02 0.  0.
   -5000001    1    1    2    0    0 -0.21472699630E+03 -0.10704581184E+02 -0.42776201897E+02  0.23233827590E+03  0.77000000000E+02 0.  0.
<mgrwt>
<rscale>  0 0.47442623E+03</rscale>
<asrwt>0</asrwt>
<pdfrwt beam="1">  1        2 0.30933134E-01 0.47442623E+03</pdfrwt>
<pdfrwt beam="2">  1       -2 0.37124225E-01 0.47442623E+03</pdfrwt>
<totfact> 0.11745306E+03</totfact>
</mgrwt>
</event>
<event>
 4    1  0.1300812E-003  0.3073801E+03  0.7818608E-02  0.1081608E+00
         -2   -1    0    0    0  501 -0.00000000000E+00  0.00000000000E+00  0.98073280328E+02  0.98073280361E+02  0.25500000000E-02 0. -1.
          2   -1    0    0  501    0  0.00000000000E+00 -0.00000000000E+00 -0.24084681513E+03  0.24084681515E+03  0.25500000000E-02 0.  1.
    5000001    1    1    2    0    0 -0.11973239683E+03  0.48845164704E+02 -0.10572627099E+03  0.18392591265E+03  0.77000000000E+02 0.  0.
   -5000001    1    1    2    0    0  0.11973239683E+03 -0.48845164704E+02 -0.37047263811E+02  0.15499418286E+03  0.77000000000E+02 0.  0.
<mgrwt>
<rscale>  0 0.30738014E+03</rscale>
<asrwt>0</asrwt>
<pdfrwt beam="1">  1        2 0.34406688E-01 0.30738014E+03</pdfrwt>
<pdfrwt beam="2">  1       -2 0.14010469E-01 0.30738014E+03</pdfrwt>
<totfact> 0.57675371E+03</totfact>
</mgrwt>
</event>
<event>
 4    1  0.1300812E-003  0.4402670E+03  0.7818608E-02  0.1030665E+00
         -2   -1    0    0    0  501 -0.00000000000E+00  0.00000000000E+00  0.14793252680E+03  0.14793252682E+03  0.25500000000E-02 0. -1.
          2   -1    0    0  501    0  0.00000000000E+00 -0.00000000000E+00 -0.32757331953E+03  0.32757331954E+03  0.25500000000E-02 0.  1.
    5000001    1    1    2    0    0  0.78129378794E+02 -0.17481277006E+03 -0.71000313309E+01  0.20650209406E+03  0.77000000000E+02 0.  0.
   -5000001    1    1    2    0    0 -0.78129378794E+02  0.17481277006E+03 -0.17254076140E+03  0.26900375230E+03  0.77000000000E+02 0.  0.
<mgrwt>
<rscale>  0 0.44026696E+03</rscale>
<asrwt>0</asrwt>
<pdfrwt beam="1">  1        2 0.46796188E-01 0.44026696E+03</pdfrwt>
<pdfrwt beam="2">  1       -2 0.21133218E-01 0.44026696E+03</pdfrwt>
<totfact> 0.20743014E+03</totfact>
</mgrwt>
</event>
<event>
 4    1  0.1300812E-003  0.1982188E+03  0.7818608E-02  0.1151251E+00
         -2   -1    0    0    0  501 -0.00000000000E+00  0.00000000000E+00  0.15884492513E+04  0.15884492513E+04  0.25500000000E-02 0. -1.
          2   -1    0    0  501    0  0.00000000000E+00 -0.00000000000E+00 -0.61838107198E+01  0.61838112456E+01  0.25500000000E-02 0.  1.
    5000001    1    1    2    0    0  0.11827740962E+02 -0.28174587723E+02  0.12288154736E+04  0.12316047138E+04  0.77000000000E+02 0.  0.
   -5000001    1    1    2    0    0 -0.11827740962E+02  0.28174587723E+02  0.35344996698E+03  0.36302834876E+03  0.77000000000E+02 0.  0.
<mgrwt>
<rscale>  0 0.19821877E+03</rscale>
<asrwt>0</asrwt>
<pdfrwt beam="1">  1        2 0.88340122E-03 0.19821877E+03</pdfrwt>
<pdfrwt beam="2">  1       -2 0.22692141E+00 0.19821877E+03</pdfrwt>
<totfact> 0.16657069E+03</totfact>
</mgrwt>
</event>
<event>
 4    1  0.1300812E-003  0.1899394E+03  0.7818608E-02  0.1158516E+00
         -2   -1    0    0    0  501 -0.00000000000E+00  0.00000000000E+00  0.36027769472E+02  0.36027769562E+02  0.25500000000E-02 0. -1.
          2   -1    0    0  501    0  0.00000000000E+00 -0.00000000000E+00 -0.25034137910E+03  0.25034137911E+03  0.25500000000E-02 0.  1.
    5000001    1    1    2    0    0 -0.53464456973E+02  0.12386648566E+02 -0.93810214770E+02  0.13319622223E+03  0.77000000000E+02 0.  0.
   -5000001    1    1    2    0    0  0.53464456973E+02 -0.12386648566E+02 -0.12050339485E+03  0.15317292644E+03  0.77000000000E+02 0.  0.
<mgrwt>
<rscale>  0 0.18993937E+03</rscale>
<asrwt>0</asrwt>
<pdfrwt beam="1">  1        2 0.35763053E-01 0.18993937E+03</pdfrwt>
<pdfrwt beam="2">  1       -2 0.51468244E-02 0.18993937E+03</pdfrwt>
<totfact> 0.25937047E+04</totfact>
</mgrwt>
</event>
<event>
 4    1  0.1300812E-003  0.3192397E+03  0.7818608E-02  0.1076000E+00
          2   -1    0    0  501    0  0.00000000000E+00  0.00000000000E+00  0.14897012190E+04  0.14897012190E+04  0.25500000000E-02 0.  1.
         -2   -1    0    0    0  501 -0.00000000000E+00 -0.00000000000E+00 -0.17103091397E+02  0.17103091587E+02  0.25500000000E-02 0. -1.
    5000001    1    1    2    0    0 -0.57768343708E+02 -0.11992459076E+03  0.53436302861E+03  0.55605029929E+03  0.77000000000E+02 0.  0.
   -5000001    1    1    2    0    0  0.57768343708E+02  0.11992459076E+03  0.93823509898E+03  0.95075401128E+03  0.77000000000E+02 0.  0.
<mgrwt>
<rscale>  0 0.31923970E+03</rscale>
<asrwt>0</asrwt>
<pdfrwt beam="1">  1        2 0.21281451E+00 0.31923970E+03</pdfrwt>
<pdfrwt beam="2">  1       -2 0.24432982E-02 0.31923970E+03</pdfrwt>
<totfact> 0.91064410E+03</totfact>
</mgrwt>
</event>
<event>
 4    1  0.1300812E-003  0.4457116E+03  0.7818608E-02  0.1029009E+00
         -2   -1    0    0    0  501 -0.00000000000E+00  0.00000000000E+00  0.54065335304E+03  0.54065335305E+03  0.25500000000E-02 0. -1.
          2   -1    0    0  501    0  0.00000000000E+00 -0.00000000000E+00 -0.91860537631E+02  0.91860537667E+02  0.25500000000E-02 0.  1.
    5000001    1    1    2    0    0 -0.12572386190E+03  0.16488765872E+03  0.26303370660E+03  0.34367158780E+03  0.77000000000E+02 0.  0.
   -5000001    1    1    2    0    0  0.12572386190E+03 -0.16488765872E+03  0.18575910881E+03  0.28884230292E+03  0.77000000000E+02 0.  0.
<mgrwt>
<rscale>  0 0.44571160E+03</rscale>
<asrwt>0</asrwt>
<pdfrwt beam="1">  1        2 0.13122934E-01 0.44571160E+03</pdfrwt>
<pdfrwt beam="2">  1       -2 0.77236192E-01 0.44571160E+03</pdfrwt>
<totfact> 0.71034227E+02</totfact>
</mgrwt>
</event>
<event>
 4    1  0.1300812E-003  0.2424044E+03  0.7818608E-02  0.1118201E+00
          2   -1    0    0  501    0  0.00000000000E+00  0.00000000000E+00  0.99353178796E+03  0.99353178797E+03  0.25500000000E-02 0.  1.
         -2   -1    0    0    0  501 -0.00000000000E+00 -0.00000000000E+00 -0.14785611198E+02  0.14785611417E+02  0.25500000000E-02 0. -1.
    5000001    1    1    2    0    0 -0.33861846757E+02 -0.86994075359E+02  0.46104437004E+03  0.47666078605E+03  0.77000000000E+02 0.  0.
   -5000001    1    1    2    0    0  0.33861846757E+02  0.86994075359E+02  0.51770180673E+03  0.53165661333E+03  0.77000000000E+02 0.  0.
<mgrwt>
<rscale>  0 0.24240441E+03</rscale>
<asrwt>0</asrwt>
<pdfrwt beam="1">  1        2 0.14193313E+00 0.24240441E+03</pdfrwt>
<pdfrwt beam="2">  1       -2 0.21122299E-02 0.24240441E+03</pdfrwt>
<totfact> 0.20741999E+04</totfact>
</mgrwt>
</event>
<event>
 4    1  0.1300812E-003  0.2150734E+03  0.7818608E-02  0.1137610E+00
          2   -1    0    0  501    0  0.00000000000E+00  0.00000000000E+00  0.96069098467E+03  0.96069098467E+03  0.25500000000E-02 0.  1.
         -2   -1    0    0    0  501 -0.00000000000E+00 -0.00000000000E+00 -0.12037319326E+02  0.12037319596E+02  0.25500000000E-02 0. -1.
    5000001    1    1    2    0    0 -0.62886702499E+02  0.31773096274E+02  0.35718113258E+03  0.37211776156E+03  0.77000000000E+02 0.  0.
   -5000001    1    1    2    0    0  0.62886702499E+02 -0.31773096274E+02  0.59147253276E+03  0.60061054271E+03  0.77000000000E+02 0.  0.
<mgrwt>
<rscale>  0 0.21507342E+03</rscale>
<asrwt>0</asrwt>
<pdfrwt beam="1">  1        2 0.13724157E+00 0.21507342E+03</pdfrwt>
<pdfrwt beam="2">  1       -2 0.17196170E-02 0.21507342E+03</pdfrwt>
<totfact> 0.29112726E+04</totfact>
</mgrwt>
</event>
<event>
 4    1  0.1300812E-003  0.2741091E+03  0.7818608E-02  0.1098951E+00
          2   -1    0    0  501    0  0.00000000000E+00  0.00000000000E+00  0.88697461496E+03  0.88697461496E+03  0.25500000000E-02 0.  1.
         -2   -1    0    0    0  501 -0.00000000000E+00 -0.00000000000E+00 -0.21177544225E+02  0.21177544379E+02  0.25500000000E-02 0. -1.
    5000001    1    1    2    0    0  0.65987003751E+02  0.87927511821E+02  0.34099869319E+03  0.36646233197E+03  0.77000000000E+02 0.  0.
   -5000001    1    1    2    0    0 -0.65987003751E+02 -0.87927511821E+02  0.52479837755E+03  0.54168982737E+03  0.77000000000E+02 0.  0.
<mgrwt>
<rscale>  0 0.27410906E+03</rscale>
<asrwt>0</asrwt>
<pdfrwt beam="1">  1        2 0.12671066E+00 0.27410906E+03</pdfrwt>
<pdfrwt beam="2">  1       -2 0.30253635E-02 0.27410906E+03</pdfrwt>
<totfact> 0.14239000E+04</totfact>
</mgrwt>
</event>
<event>
 4    1  0.1300812E-003  0.1643016E+03  0.7818608E-02  0.1183924E+00
          2   -1    0    0  501    0  0.00000000000E+00  0.00000000000E+00  0.16662087826E+04  0.16662087826E+04  0.25500000000E-02 0.  1.
         -2   -1    0    0    0  501 -0.00000000000E+00 -0.00000000000E+00 -0.40503666611E+01  0.40503674638E+01  0.25500000000E-02 0. -1.
    5000001    1    1    2    0    0  0.23920790658E+01  0.28521770962E+02  0.82358324714E+03  0.82766996951E+03  0.77000000000E+02 0.  0.
   -5000001    1    1    2    0    0 -0.23920790658E+01 -0.28521770962E+02  0.83857516876E+03  0.84258918052E+03  0.77000000000E+02 0.  0.
<mgrwt>
<rscale>  0 0.16430164E+03</rscale>
<asrwt>0</asrwt>
<pdfrwt beam="1">  1        2 0.23803005E+00 0.16430164E+03</pdfrwt>
<pdfrwt beam="2">  1       -2 0.57862331E-03 0.16430164E+03</pdfrwt>
<totfact> 0.58399909E+04</totfact>
</mgrwt>
</event>
<event>
 4    1  0.1300812E-003  0.3488202E+03  0.7818608E-02  0.1063100E+00
         -2   -1    0    0    0  501 -0.00000000000E+00  0.00000000000E+00  0.10815716141E+03  0.10815716144E+03  0.25500000000E-02 0. -1.
          2   -1    0    0  501    0  0.00000000000E+00 -0.00000000000E+00 -0.28124710728E+03  0.28124710730E+03  0.25500000000E-02 0.  1.
    5000001    1    1    2    0    0 -0.62077080106E+01 -0.73580924353E+02 -0.24057329498E+03  0.26316762400E+03  0.77000000000E+02 0.  0.
   -5000001    1    1    2    0    0  0.62077080106E+01  0.73580924353E+02  0.67483349108E+02  0.12623664474E+03  0.77000000000E+02 0.  0.
<mgrwt>
<rscale>  0 0.34882023E+03</rscale>
<asrwt>0</asrwt>
<pdfrwt beam="1">  1        2 0.40178158E-01 0.34882023E+03</pdfrwt>
<pdfrwt beam="2">  1       -2 0.15451023E-01 0.34882023E+03</pdfrwt>
<totfact> 0.41579386E+03</totfact>
</mgrwt>
</event>
<event>
 4    1  0.1300812E-003  0.1883798E+03  0.7818608E-02  0.1159931E+00
         -2   -1    0    0    0  501 -0.00000000000E+00  0.00000000000E+00  0.29593181041E+01  0.29593192027E+01  0.25500000000E-02 0. -1.
          2   -1    0    0  501    0  0.00000000000E+00 -0.00000000000E+00 -0.29978992261E+04  0.29978992261E+04  0.25500000000E-02 0.  1.
    5000001    1    1    2    0    0 -0.15223251153E+02  0.50689299558E+02 -0.16870192968E+04  0.16896047645E+04  0.77000000000E+02 0.  0.
   -5000001    1    1    2    0    0  0.15223251153E+02 -0.50689299558E+02 -0.13079206112E+04  0.13112537808E+04  0.77000000000E+02 0.  0.
<mgrwt>
<rscale>  0 0.18837982E+03</rscale>
<asrwt>0</asrwt>
<pdfrwt beam="1">  1        2 0.42826937E+00 0.18837982E+03</pdfrwt>
<pdfrwt beam="2">  1       -2 0.42276173E-03 0.18837982E+03</pdfrwt>
<totfact> 0.20409056E+04</totfact>
</mgrwt>
</event>
<event>
 4    1  0.1300812E-003  0.2352772E+03  0.7818608E-02  0.1122980E+00
         -2   -1    0    0    0  501 -0.00000000000E+00  0.00000000000E+00  0.18676304692E+03  0.18676304694E+03  0.25500000000E-02 0. -1.
          2   -1    0    0  501    0  0.00000000000E+00 -0.00000000000E+00 -0.74098358100E+02  0.74098358143E+02  0.25500000000E-02 0.  1.
    5000001    1    1    2    0    0  0.71639106697E+02  0.22055146792E+02  0.10940437921E+03  0.15335223930E+03  0.77000000000E+02 0.  0.
   -5000001    1    1    2    0    0 -0.71639106697E+02 -0.22055146792E+02  0.32603096127E+01  0.10750916578E+03  0.77000000000E+02 0.  0.
<mgrwt>
<rscale>  0 0.23527716E+03</rscale>
<asrwt>0</asrwt>
<pdfrwt beam="1">  1        2 0.10585480E-01 0.23527716E+03</pdfrwt>
<pdfrwt beam="2">  1       -2 0.26680435E-01 0.23527716E+03</pdfrwt>
<totfact> 0.74168447E+03</totfact>
</mgrwt>
</event>
<event>
 4    1  0.1300812E-003  0.2966021E+03  0.7818608E-02  0.1086952E+00
          2   -1    0    0  501    0  0.00000000000E+00  0.00000000000E+00  0.57280540400E+03  0.57280540400E+03  0.25500000000E-02 0.  1.
         -2   -1    0    0    0  501 -0.00000000000E+00 -0.00000000000E+00 -0.38395596112E+02  0.38395596197E+02  0.25500000000E-02 0. -1.
    5000001    1    1    2    0    0 -0.19094333306E+02  0.99256067462E+02  0.10962250530E+03  0.16781672790E+03  0.77000000000E+02 0.  0.
   -5000001    1    1    2    0    0  0.19094333306E+02 -0.99256067462E+02  0.42478730258E+03  0.44338427230E+03  0.77000000000E+02 0.  0.
<mgrwt>
<rscale>  0 0.29660212E+03</rscale>
<asrwt>0</asrwt>
<pdfrwt beam="1">  1        2 0.81829343E-01 0.29660212E+03</pdfrwt>
<pdfrwt beam="2">  1       -2 0.54850852E-02 0.29660212E+03</pdfrwt>
<totfact> 0.98428069E+03</totfact>
</mgrwt>
</event>
<event>
 4    1  0.1300812E-003  0.1744987E+03  0.7818608E-02  0.1173236E+00
          2   -1    0    0  501    0  0.00000000000E+00  0.00000000000E+00  0.48321497402E+03  0.48321497403E+03  0.25500000000E-02 0.  1.
         -2   -1    0    0    0  501 -0.00000000000E+00 -0.00000000000E+00 -0.15753748388E+02  0.15753748594E+02  0.25500000000E-02 0. -1.
    5000001    1    1    2    0    0 -0.54673820614E+01  0.39905157187E+02  0.21137326809E+03  0.22853877636E+03  0.77000000000E+02 0.  0.
   -5000001    1    1    2    0    0  0.54673820614E+01 -0.39905157187E+02  0.25608795755E+03  0.27042994627E+03  0.77000000000E+02 0.  0.
<mgrwt>
<rscale>  0 0.17449868E+03</rscale>
<asrwt>0</asrwt>
<pdfrwt beam="1">  1        2 0.69030720E-01 0.17449868E+03</pdfrwt>
<pdfrwt beam="2">  1       -2 0.22505352E-02 0.17449868E+03</pdfrwt>
<totfact> 0.43453798E+04</totfact>
</mgrwt>
</event>
<event>
 4    1  0.1300812E-003  0.2987732E+03  0.7818608E-02  0.1085855E+00
          2   -1    0    0  501    0  0.00000000000E+00  0.00000000000E+00  0.17025280800E+03  0.17025280801E+03  0.25500000000E-02 0.  1.
         -2   -1    0    0    0  501 -0.00000000000E+00 -0.00000000000E+00 -0.13107777178E+03  0.13107777181E+03  0.25500000000E-02 0. -1.
    5000001    1    1    2    0    0  0.83041737507E+02 -0.64447493208E+02 -0.54099123227E+02  0.14108552258E+03  0.77000000000E+02 0.  0.
   -5000001    1    1    2    0    0 -0.83041737507E+02  0.64447493208E+02  0.93274159442E+02  0.16024505724E+03  0.77000000000E+02 0.  0.
<mgrwt>
<rscale>  0 0.29877322E+03</rscale>
<asrwt>0</asrwt>
<pdfrwt beam="1">  1        2 0.24321830E-01 0.29877322E+03</pdfrwt>
<pdfrwt beam="2">  1       -2 0.18725396E-01 0.29877322E+03</pdfrwt>
<totfact> 0.52078379E+03</totfact>
</mgrwt>
</event>
<event>
 4    1  0.1300812E-003  0.3372901E+03  0.7818608E-02  0.1067956E+00
         -2   -1    0    0    0  501 -0.00000000000E+00  0.00000000000E+00  0.58596856936E+02  0.58596856991E+02  0.25500000000E-02 0. -1.
          2   -1    0    0  501    0  0.00000000000E+00 -0.00000000000E+00 -0.48536988222E+03  0.48536988222E+03  0.25500000000E-02 0.  1.
    5000001    1    1    2    0    0 -0.46409628965E+02  0.12757859576E+03 -0.11034667623E+03  0.19114272341E+03  0.77000000000E+02 0.  0.
   -5000001    1    1    2    0    0  0.46409628965E+02 -0.12757859576E+03 -0.31642634905E+03  0.35282401581E+03  0.77000000000E+02 0.  0.
<mgrwt>
<rscale>  0 0.33729008E+03</rscale>
<asrwt>0</asrwt>
<pdfrwt beam="1">  1        2 0.69338552E-01 0.33729008E+03</pdfrwt>
<pdfrwt beam="2">  1       -2 0.83709798E-02 0.33729008E+03</pdfrwt>
<totfact> 0.61766392E+03</totfact>
</mgrwt>
</event>
<event>
 4    1  0.1300812E-003  0.1764922E+03  0.7818608E-02  0.1171242E+00
         -2   -1    0    0    0  501 -0.00000000000E+00  0.00000000000E+00  0.18928839432E+01  0.18928856608E+01  0.25500000000E-02 0. -1.
          2   -1    0    0  501    0  0.00000000000E+00 -0.00000000000E+00 -0.41140242487E+04  0.41140242487E+04  0.25500000000E-02 0.  1.
    5000001    1    1    2    0    0 -0.37143263874E+02 -0.15640693689E+02 -0.24128953467E+04  0.24144600239E+04  0.77000000000E+02 0.  0.
   -5000001    1    1    2    0    0  0.37143263874E+02  0.15640693689E+02 -0.16992360181E+04  0.17014571104E+04  0.77000000000E+02 0.  0.
<mgrwt>
<rscale>  0 0.17649220E+03</rscale>
<asrwt>0</asrwt>
<pdfrwt beam="1">  1        2 0.58771202E+00 0.17649220E+03</pdfrwt>
<pdfrwt beam="2">  1       -2 0.27041475E-03 0.17649220E+03</pdfrwt>
<totfact> 0.85864629E+03</totfact>
</mgrwt>
</event>
<event>
 4    1  0.1300812E-003  0.1884774E+03  0.7818608E-02  0.1159842E+00
         -2   -1    0    0    0  501 -0.00000000000E+00  0.00000000000E+00  0.14342829896E+02  0.14342830123E+02  0.25500000000E-02 0. -1.
          2   -1    0    0  501    0  0.00000000000E+00 -0.00000000000E+00 -0.61918990597E+03  0.61918990597E+03  0.25500000000E-02 0.  1.
    5000001    1    1    2    0    0 -0.20745759152E+01  0.52967750851E+02 -0.34248519491E+03  0.35501407750E+03  0.77000000000E+02 0.  0.
   -5000001    1    1    2    0    0  0.20745759152E+01 -0.52967750851E+02 -0.26236188117E+03  0.27851865859E+03  0.77000000000E+02 0.  0.
<mgrwt>
<rscale>  0 0.18847743E+03</rscale>
<asrwt>0</asrwt>
<pdfrwt beam="1">  1        2 0.88455684E-01 0.18847743E+03</pdfrwt>
<pdfrwt beam="2">  1       -2 0.20489761E-02 0.18847743E+03</pdfrwt>
<totfact> 0.38106141E+04</totfact>
</mgrwt>
</event>
<event>
 4    1  0.1300812E-003  0.2751908E+03  0.7818608E-02  0.1098345E+00
         -2   -1    0    0    0  501 -0.00000000000E+00  0.00000000000E+00  0.25370979794E+02  0.25370979922E+02  0.25500000000E-02 0. -1.
          2   -1    0    0  501    0  0.00000000000E+00 -0.00000000000E+00 -0.74622613743E+03  0.74622613744E+03  0.25500000000E-02 0.  1.
    5000001    1    1    2    0    0  0.73869944865E+01 -0.11061507959E+03 -0.43530829095E+03  0.45575494697E+03  0.77000000000E+02 0.  0.
   -5000001    1    1    2    0    0 -0.73869944865E+01  0.11061507959E+03 -0.28554686669E+03  0.31584217039E+03  0.77000000000E+02 0.  0.
<mgrwt>
<rscale>  0 0.27519076E+03</rscale>
<asrwt>0</asrwt>
<pdfrwt beam="1">  1        2 0.10660372E+00 0.27519076E+03</pdfrwt>
<pdfrwt beam="2">  1       -2 0.36244262E-02 0.27519076E+03</pdfrwt>
<totfact> 0.13487635E+04</totfact>
</mgrwt>
</event>
<event>
 4    1  0.1300812E-003  0.1740145E+03  0.7818608E-02  0.1173725E+00
          2   -1    0    0  501    0  0.00000000000E+00  0.00000000000E+00  0.67637973202E+03  0.67637973202E+03  0.25500000000E-02 0.  1.
         -2   -1    0    0    0  501 -0.00000000000E+00 -0.00000000000E+00 -0.11192318775E+02  0.11192319065E+02  0.25500000000E-02 0. -1.
    5000001    1    1    2    0    0 -0.57511623045E+01 -0.35309340984E+02  0.40771210793E+03  0.41645886758E+03  0.77000000000E+02 0.  0.
   -5000001    1    1    2    0    0  0.57511623045E+01  0.35309340984E+02  0.25747530531E+03  0.27111318351E+03  0.77000000000E+02 0.  0.
<mgrwt>
<rscale>  0 0.17401446E+03</rscale>
<asrwt>0</asrwt>
<pdfrwt beam="1">  1        2 0.96625650E-01 0.17401446E+03</pdfrwt>
<pdfrwt beam="2">  1       -2 0.15989031E-02 0.17401446E+03</pdfrwt>
<totfact> 0.49050437E+04</totfact>
</mgrwt>
</event>
<event>
 4    1  0.1300812E-003  0.1649724E+03  0.7818608E-02  0.1183195E+00
          2   -1    0    0  501    0  0.00000000000E+00  0.00000000000E+00  0.19521037843E+04  0.19521037843E+04  0.25500000000E-02 0.  1.
         -2   -1    0    0    0  501 -0.00000000000E+00 -0.00000000000E+00 -0.34854551024E+01  0.34854560352E+01  0.25500000000E-02 0. -1.
    5000001    1    1    2    0    0 -0.57069908422E+01 -0.28963188837E+02  0.99659651659E+03  0.10000025265E+04  0.77000000000E+02 0.  0.
   -5000001    1    1    2    0    0  0.57069908422E+01  0.28963188837E+02  0.95202181256E+03  0.95558671383E+03  0.77000000000E+02 0.  0.
<mgrwt>
<rscale>  0 0.16497237E+03</rscale>
<asrwt>0</asrwt>
<pdfrwt beam="1">  1        2 0.27887177E+00 0.16497237E+03</pdfrwt>
<pdfrwt beam="2">  1       -2 0.49792257E-03 0.16497237E+03</pdfrwt>
<totfact> 0.52723257E+04</totfact>
</mgrwt>
</event>
<event>
 4    1  0.1300812E-003  0.3654689E+03  0.7818608E-02  0.1056439E+00
         -2   -1    0    0    0  501 -0.00000000000E+00  0.00000000000E+00  0.22227953177E+02  0.22227953323E+02  0.25500000000E-02 0. -1.
          2   -1    0    0  501    0  0.00000000000E+00 -0.00000000000E+00 -0.15022473760E+04  0.15022473760E+04  0.25500000000E-02 0.  1.
    5000001    1    1    2    0    0  0.82969113079E+02  0.97116288502E+02 -0.29959942069E+03  0.33467037529E+03  0.77000000000E+02 0.  0.
   -5000001    1    1    2    0    0 -0.82969113079E+02 -0.97116288502E+02 -0.11804200021E+04  0.11898049540E+04  0.77000000000E+02 0.  0.
<mgrwt>
<rscale>  0 0.36546893E+03</rscale>
<asrwt>0</asrwt>
<pdfrwt beam="1">  1        2 0.21460670E+00 0.36546893E+03</pdfrwt>
<pdfrwt beam="2">  1       -2 0.31754229E-02 0.36546893E+03</pdfrwt>
<totfact> 0.60767476E+03</totfact>
</mgrwt>
</event>
<event>
 4    1  0.1300812E-003  0.3557206E+03  0.7818608E-02  0.1060291E+00
         -2   -1    0    0    0  501 -0.00000000000E+00  0.00000000000E+00  0.97924517875E+02  0.97924517908E+02  0.25500000000E-02 0. -1.
          2   -1    0    0  501    0  0.00000000000E+00 -0.00000000000E+00 -0.32304768218E+03  0.32304768219E+03  0.25500000000E-02 0.  1.
    5000001    1    1    2    0    0  0.15172579325E+03  0.18007671257E+01 -0.51281480942E+02  0.17771536058E+03  0.77000000000E+02 0.  0.
   -5000001    1    1    2    0    0 -0.15172579325E+03 -0.18007671257E+01 -0.17384168337E+03  0.24325683952E+03  0.77000000000E+02 0.  0.
<mgrwt>
<rscale>  0 0.35572061E+03</rscale>
<asrwt>0</asrwt>
<pdfrwt beam="1">  1        2 0.46149668E-01 0.35572061E+03</pdfrwt>
<pdfrwt beam="2">  1       -2 0.13989217E-01 0.35572061E+03</pdfrwt>
<totfact> 0.42205792E+03</totfact>
</mgrwt>
</event>
<event>
 4    1  0.1300812E-003  0.1724421E+03  0.7818608E-02  0.1175325E+00
         -2   -1    0    0    0  501 -0.00000000000E+00  0.00000000000E+00  0.60431295808E+01  0.60431301188E+01  0.25500000000E-02 0. -1.
          2   -1    0    0  501    0  0.00000000000E+00 -0.00000000000E+00 -0.12301694187E+04  0.12301694187E+04  0.25500000000E-02 0.  1.
    5000001    1    1    2    0    0 -0.38745545032E+02 -0.11945698825E+00 -0.62611484387E+03  0.63202059242E+03  0.77000000000E+02 0.  0.
   -5000001    1    1    2    0    0  0.38745545032E+02  0.11945698825E+00 -0.59801144525E+03  0.60419195640E+03  0.77000000000E+02 0.  0.
<mgrwt>
<rscale>  0 0.17244215E+03</rscale>
<asrwt>0</asrwt>
<pdfrwt beam="1">  1        2 0.17573833E+00 0.17244215E+03</pdfrwt>
<pdfrwt beam="2">  1       -2 0.86330505E-03 0.17244215E+03</pdfrwt>
<totfact> 0.54808310E+04</totfact>
</mgrwt>
</event>
<event>
 4    1  0.1300812E-003  0.2111010E+03  0.7818608E-02  0.1140697E+00
          2   -1    0    0  501    0  0.00000000000E+00  0.00000000000E+00  0.84159889092E+03  0.84159889093E+03  0.25500000000E-02 0.  1.
         -2   -1    0    0    0  501 -0.00000000000E+00 -0.00000000000E+00 -0.13237785894E+02  0.13237786139E+02  0.25500000000E-02 0. -1.
    5000001    1    1    2    0    0  0.38154063518E+02  0.50983606053E+02  0.55191118921E+03  0.56088325116E+03  0.77000000000E+02 0.  0.
   -5000001    1    1    2    0    0 -0.38154063518E+02 -0.50983606053E+02  0.27644991582E+03  0.29395342591E+03  0.77000000000E+02 0.  0.
<mgrwt>
<rscale>  0 0.21110098E+03</rscale>
<asrwt>0</asrwt>
<pdfrwt beam="1">  1        2 0.12022838E+00 0.21110098E+03</pdfrwt>
<pdfrwt beam="2">  1       -2 0.18911128E-02 0.21110098E+03</pdfrwt>
<totfact> 0.30002993E+04</totfact>
</mgrwt>
</event>
<event>
 4    1  0.1300812E-003  0.3420209E+03  0.7818608E-02  0.1065938E+00
          2   -1    0    0  501    0  0.00000000000E+00  0.00000000000E+00  0.54054153075E+03  0.54054153075E+03  0.25500000000E-02 0.  1.
         -2   -1    0    0    0  501 -0.00000000000E+00 -0.00000000000E+00 -0.54102367038E+02  0.54102367098E+02  0.25500000000E-02 0. -1.
    5000001    1    1    2    0    0 -0.37206096823E+02 -0.10704892289E+03  0.42113566015E+03  0.44286342114E+03  0.77000000000E+02 0.  0.
   -5000001    1    1    2    0    0  0.37206096823E+02  0.10704892289E+03  0.65303503558E+02  0.15178047671E+03  0.77000000000E+02 0.  0.
<mgrwt>
<rscale>  0 0.34202091E+03</rscale>
<asrwt>0</asrwt>
<pdfrwt beam="1">  1        2 0.77220216E-01 0.34202091E+03</pdfrwt>
<pdfrwt beam="2">  1       -2 0.77289098E-02 0.34202091E+03</pdfrwt>
<totfact> 0.62095445E+03</totfact>
</mgrwt>
</event>
<event>
 4    1  0.1300812E-003  0.2224529E+03  0.7818608E-02  0.1132067E+00
          2   -1    0    0  501    0  0.00000000000E+00  0.00000000000E+00  0.48176807767E+03  0.48176807768E+03  0.25500000000E-02 0.  1.
         -2   -1    0    0    0  501 -0.00000000000E+00 -0.00000000000E+00 -0.25678997474E+02  0.25678997600E+02  0.25500000000E-02 0. -1.
    5000001    1    1    2    0    0 -0.65417983695E+02 -0.30666685626E+02  0.30779860516E+03  0.32540580747E+03  0.77000000000E+02 0.  0.
   -5000001    1    1    2    0    0  0.65417983695E+02  0.30666685626E+02  0.14829047504E+03  0.18204126781E+03  0.77000000000E+02 0.  0.
<mgrwt>
<rscale>  0 0.22245288E+03</rscale>
<asrwt>0</asrwt>
<pdfrwt beam="1">  1        2 0.68824017E-01 0.22245288E+03</pdfrwt>
<pdfrwt beam="2">  1       -2 0.36684279E-02 0.22245288E+03</pdfrwt>
<totfact> 0.21596390E+04</totfact>
</mgrwt>
</event>
<event>
 4    1  0.1300812E-003  0.6228279E+03  0.7818608E-02  0.9859145E-01
         -2   -1    0    0    0  501 -0.00000000000E+00  0.00000000000E+00  0.63140568375E+03  0.63140568375E+03  0.25500000000E-02 0. -1.
          2   -1    0    0  501    0  0.00000000000E+00 -0.00000000000E+00 -0.15359166634E+03  0.15359166636E+03  0.25500000000E-02 0.  1.
    5000001    1    1    2    0    0  0.17165824984E+03 -0.23664984457E+03  0.33305589339E+03  0.44980543771E+03  0.77000000000E+02 0.  0.
   -5000001    1    1    2    0    0 -0.17165824984E+03  0.23664984457E+03  0.14475812402E+03  0.33519191241E+03  0.77000000000E+02 0.  0.
<mgrwt>
<rscale>  0 0.62282791E+03</rscale>
<asrwt>0</asrwt>
<pdfrwt beam="1">  1        2 0.21941667E-01 0.62282791E+03</pdfrwt>
<pdfrwt beam="2">  1       -2 0.90200811E-01 0.62282791E+03</pdfrwt>
<totfact> 0.27091626E+02</totfact>
</mgrwt>
</event>
<event>
 4    1  0.1300812E-003  0.3749718E+03  0.7818608E-02  0.1052808E+00
         -2   -1    0    0    0  501 -0.00000000000E+00  0.00000000000E+00  0.40374502067E+02  0.40374502147E+02  0.25500000000E-02 0. -1.
          2   -1    0    0  501    0  0.00000000000E+00 -0.00000000000E+00 -0.87062274684E+03  0.87062274685E+03  0.25500000000E-02 0.  1.
    5000001    1    1    2    0    0 -0.12767622246E+03 -0.92877969185E+02 -0.25591388655E+03  0.31040047079E+03  0.77000000000E+02 0.  0.
   -5000001    1    1    2    0    0  0.12767622246E+03  0.92877969185E+02 -0.57433435823E+03  0.60059677820E+03  0.77000000000E+02 0.  0.
<mgrwt>
<rscale>  0 0.37497179E+03</rscale>
<asrwt>0</asrwt>
<pdfrwt beam="1">  1        2 0.12437467E+00 0.37497179E+03</pdfrwt>
<pdfrwt beam="2">  1       -2 0.57677865E-02 0.37497179E+03</pdfrwt>
<totfact> 0.55388425E+03</totfact>
</mgrwt>
</event>
<event>
 4    1  0.1300812E-003  0.2620925E+03  0.7818608E-02  0.1105892E+00
          2   -1    0    0  501    0  0.00000000000E+00  0.00000000000E+00  0.80360178387E+03  0.80360178387E+03  0.25500000000E-02 0.  1.
         -2   -1    0    0    0  501 -0.00000000000E+00 -0.00000000000E+00 -0.21370189719E+02  0.21370189871E+02  0.25500000000E-02 0. -1.
    5000001    1    1    2    0    0 -0.58198493600E+02  0.87106449257E+02  0.44279117668E+03  0.46148415390E+03  0.77000000000E+02 0.  0.
   -5000001    1    1    2    0    0  0.58198493600E+02 -0.87106449257E+02  0.33944041747E+03  0.36348781984E+03  0.77000000000E+02 0.  0.
<mgrwt>
<rscale>  0 0.26209252E+03</rscale>
<asrwt>0</asrwt>
<pdfrwt beam="1">  1        2 0.11480025E+00 0.26209252E+03</pdfrwt>
<pdfrwt beam="2">  1       -2 0.30528845E-02 0.26209252E+03</pdfrwt>
<totfact> 0.15882209E+04</totfact>
</mgrwt>
</event>
<event>
 4    1  0.1300812E-003  0.1931432E+03  0.7818608E-02  0.1155657E+00
          2   -1    0    0  501    0  0.00000000000E+00  0.00000000000E+00  0.77179038298E+03  0.77179038298E+03  0.25500000000E-02 0.  1.
         -2   -1    0    0    0  501 -0.00000000000E+00 -0.00000000000E+00 -0.12083690380E+02  0.12083690649E+02  0.25500000000E-02 0. -1.
    5000001    1    1    2    0    0  0.82710796425E+01 -0.57623578963E+02  0.39146701935E+03  0.40319265227E+03  0.77000000000E+02 0.  0.
   -5000001    1    1    2    0    0 -0.82710796425E+01  0.57623578963E+02  0.36823967325E+03  0.38068142136E+03  0.77000000000E+02 0.  0.
<mgrwt>
<rscale>  0 0.19314322E+03</rscale>
<asrwt>0</asrwt>
<pdfrwt beam="1">  1        2 0.11025581E+00 0.19314322E+03</pdfrwt>
<pdfrwt beam="2">  1       -2 0.17262409E-02 0.19314322E+03</pdfrwt>
<totfact> 0.37875920E+04</totfact>
</mgrwt>
</event>
<event>
 4    1  0.1300812E-003  0.3234167E+03  0.7818608E-02  0.1074088E+00
         -2   -1    0    0    0  501 -0.00000000000E+00  0.00000000000E+00  0.31315701820E+02  0.31315701924E+02  0.25500000000E-02 0. -1.
          2   -1    0    0  501    0  0.00000000000E+00 -0.00000000000E+00 -0.83503114175E+03  0.83503114176E+03  0.25500000000E-02 0.  1.
    5000001    1    1    2    0    0 -0.92366225932E+02 -0.84251556776E+02 -0.22036014642E+03  0.26479697627E+03  0.77000000000E+02 0.  0.
   -5000001    1    1    2    0    0  0.92366225932E+02  0.84251556776E+02 -0.58335529351E+03  0.60154986741E+03  0.77000000000E+02 0.  0.
<mgrwt>
<rscale>  0 0.32341667E+03</rscale>
<asrwt>0</asrwt>
<pdfrwt beam="1">  1        2 0.11929015E+00 0.32341667E+03</pdfrwt>
<pdfrwt beam="2">  1       -2 0.44736722E-02 0.32341667E+03</pdfrwt>
<totfact> 0.85914385E+03</totfact>
</mgrwt>
</event>
<event>
 4    1  0.1300812E-003  0.4561936E+03  0.7818608E-02  0.1025891E+00
          2   -1    0    0  501    0  0.00000000000E+00  0.00000000000E+00  0.45010215955E+03  0.45010215956E+03  0.25500000000E-02 0.  1.
         -2   -1    0    0    0  501 -0.00000000000E+00 -0.00000000000E+00 -0.11559186185E+03  0.11559186188E+03  0.25500000000E-02 0. -1.
    5000001    1    1    2    0    0  0.16331111408E+03  0.92974341536E+02  0.38480498659E+02  0.20669904921E+03  0.77000000000E+02 0.  0.
   -5000001    1    1    2    0    0 -0.16331111408E+03 -0.92974341536E+02  0.29602979904E+03  0.35899497223E+03  0.77000000000E+02 0.  0.
<mgrwt>
<rscale>  0 0.45619358E+03</rscale>
<asrwt>0</asrwt>
<pdfrwt beam="1">  1        2 0.64300309E-01 0.45619358E+03</pdfrwt>
<pdfrwt beam="2">  1       -2 0.16513123E-01 0.45619358E+03</pdfrwt>
<totfact> 0.22335589E+03</totfact>
</mgrwt>
</event>
<event>
 4    1  0.1300812E-003  0.2108203E+03  0.7818608E-02  0.1140918E+00
          2   -1    0    0  501    0  0.00000000000E+00  0.00000000000E+00  0.10923842174E+03  0.10923842177E+03  0.25500000000E-02 0. -1.
         -2   -1    0    0    0  501 -0.00000000000E+00 -0.00000000000E+00 -0.10171606828E+03  0.10171606831E+03  0.25500000000E-02 0.  1.
    5000001    1    1    2    0    0  0.50533832555E+02  0.49136420882E+02  0.18407659269E+02  0.10599951891E+03  0.77000000000E+02 0.  0.
   -5000001    1    1    2    0    0 -0.50533832555E+02 -0.49136420882E+02 -0.10885305812E+02  0.10495497117E+03  0.77000000000E+02 0.  0.
<mgrwt>
<rscale>  0 0.21082033E+03</rscale>
<asrwt>0</asrwt>
<pdfrwt beam="1">  1        2 0.15605489E-01 0.21082033E+03</pdfrwt>
<pdfrwt beam="2">  1       -2 0.14530867E-01 0.21082033E+03</pdfrwt>
<totfact> 0.13007233E+04</totfact>
</mgrwt>
</event>
<event>
 4    1  0.1300812E-003  0.2782502E+03  0.7818608E-02  0.1096649E+00
          2   -1    0    0  501    0  0.00000000000E+00  0.00000000000E+00  0.11776113267E+04  0.11776113267E+04  0.25500000000E-02 0.  1.
         -2   -1    0    0    0  501 -0.00000000000E+00 -0.00000000000E+00 -0.16436484487E+02  0.16436484685E+02  0.25500000000E-02 0. -1.
    5000001    1    1    2    0    0  0.99701006003E+02 -0.49790094306E+02  0.44438111153E+03  0.46456745084E+03  0.77000000000E+02 0.  0.
   -5000001    1    1    2    0    0 -0.99701006003E+02  0.49790094306E+02  0.71679373071E+03  0.72948036058E+03  0.77000000000E+02 0.  0.
<mgrwt>
<rscale>  0 0.27825018E+03</rscale>
<asrwt>0</asrwt>
<pdfrwt beam="1">  1        2 0.16823019E+00 0.27825018E+03</pdfrwt>
<pdfrwt beam="2">  1       -2 0.23480693E-02 0.27825018E+03</pdfrwt>
<totfact> 0.14039377E+04</totfact>
</mgrwt>
</event>
<event>
 4    1  0.1300812E-003  0.2315169E+03  0.7818608E-02  0.1125577E+00
         -2   -1    0    0    0  501 -0.00000000000E+00  0.00000000000E+00  0.13528360799E+02  0.13528361039E+02  0.25500000000E-02 0. -1.
          2   -1    0    0  501    0  0.00000000000E+00 -0.00000000000E+00 -0.99051346663E+03  0.99051346663E+03  0.25500000000E-02 0.  1.
    5000001    1    1    2    0    0 -0.85193203311E+02  0.11955536665E+02 -0.45215472113E+03  0.46666230680E+03  0.77000000000E+02 0.  0.
   -5000001    1    1    2    0    0  0.85193203311E+02 -0.11955536665E+02 -0.52483038471E+03  0.53737952088E+03  0.77000000000E+02 0.  0.
<mgrwt>
<rscale>  0 0.23151694E+03</rscale>
<asrwt>0</asrwt>
<pdfrwt beam="1">  1        2 0.14150188E+00 0.23151694E+03</pdfrwt>
<pdfrwt beam="2">  1       -2 0.19326236E-02 0.23151694E+03</pdfrwt>
<totfact> 0.23669590E+04</totfact>
</mgrwt>
</event>
<event>
 4    1  0.1300812E-003  0.2082605E+03  0.7818608E-02  0.1142951E+00
          2   -1    0    0  501    0  0.00000000000E+00  0.00000000000E+00  0.86509793081E+03  0.86509793081E+03  0.25500000000E-02 0.  1.
         -2   -1    0    0    0  501 -0.00000000000E+00 -0.00000000000E+00 -0.12533962789E+02  0.12533963049E+02  0.25500000000E-02 0. -1.
    5000001    1    1    2    0    0  0.62487910991E+02 -0.31500252433E+02  0.40885550959E+03  0.42188722741E+03  0.77000000000E+02 0.  0.
   -5000001    1    1    2    0    0 -0.62487910991E+02  0.31500252433E+02  0.44370845842E+03  0.45574466645E+03  0.77000000000E+02 0.  0.
<mgrwt>
<rscale>  0 0.20826047E+03</rscale>
<asrwt>0</asrwt>
<pdfrwt beam="1">  1        2 0.12358540E+00 0.20826047E+03</pdfrwt>
<pdfrwt beam="2">  1       -2 0.17905664E-02 0.20826047E+03</pdfrwt>
<totfact> 0.31359059E+04</totfact>
</mgrwt>
</event>
<event>
 4    1  0.1300812E-003  0.1774688E+03  0.7818608E-02  0.1170275E+00
          2   -1    0    0  501    0  0.00000000000E+00  0.00000000000E+00  0.39793859707E+03  0.39793859707E+03  0.25500000000E-02 0.  1.
         -2   -1    0    0    0  501 -0.00000000000E+00 -0.00000000000E+00 -0.19786463425E+02  0.19786463589E+02  0.25500000000E-02 0. -1.
    5000001    1    1    2    0    0  0.30061010338E+02  0.17741458204E+02  0.25251392536E+03  0.26629064231E+03  0.77000000000E+02 0.  0.
   -5000001    1    1    2    0    0 -0.30061010338E+02 -0.17741458204E+02  0.12563820828E+03  0.15143441835E+03  0.77000000000E+02 0.  0.
<mgrwt>
<rscale>  0 0.17746884E+03</rscale>
<asrwt>0</asrwt>
<pdfrwt beam="1">  1        2 0.56848364E-01 0.17746884E+03</pdfrwt>
<pdfrwt beam="2">  1       -2 0.28266380E-02 0.17746884E+03</pdfrwt>
<totfact> 0.38397099E+04</totfact>
</mgrwt>
</event>
<event>
 4    1  0.1300812E-003  0.2537658E+03  0.7818608E-02  0.1110948E+00
          2   -1    0    0  501    0  0.00000000000E+00  0.00000000000E+00  0.12401702709E+03  0.12401702712E+03  0.25500000000E-02 0.  1.
         -2   -1    0    0    0  501 -0.00000000000E+00 -0.00000000000E+00 -0.12981496314E+03  0.12981496317E+03  0.25500000000E-02 0. -1.
    5000001    1    1    2    0    0  0.43357823998E+02  0.75613765385E+02 -0.53636197824E+02  0.12807491610E+03  0.77000000000E+02 0.  0.
   -5000001    1    1    2    0    0 -0.43357823998E+02 -0.75613765385E+02  0.47838261772E+02  0.12575707418E+03  0.77000000000E+02 0.  0.
<mgrwt>
<rscale>  0 0.25376576E+03</rscale>
<asrwt>0</asrwt>
<pdfrwt beam="1">  1        2 0.17716718E-01 0.25376576E+03</pdfrwt>
<pdfrwt beam="2">  1       -2 0.18544995E-01 0.25376576E+03</pdfrwt>
<totfact> 0.75512754E+03</totfact>
</mgrwt>
</event>
<event>
 4    1  0.1300812E-003  0.2373923E+03  0.7818608E-02  0.1121542E+00
         -2   -1    0    0    0  501 -0.00000000000E+00  0.00000000000E+00  0.11387508499E+03  0.11387508502E+03  0.25500000000E-02 0. -1.
          2   -1    0    0  501    0  0.00000000000E+00 -0.00000000000E+00 -0.12372135351E+03  0.12372135354E+03  0.25500000000E-02 0.  1.
    5000001    1    1    2    0    0 -0.30572706754E+02  0.84293451999E+02  0.60271686115E+01  0.11834442619E+03  0.77000000000E+02 0.  0.
   -5000001    1    1    2    0    0  0.30572706754E+02 -0.84293451999E+02 -0.15873437126E+02  0.11925201237E+03  0.77000000000E+02 0.  0.
<mgrwt>
<rscale>  0 0.23739233E+03</rscale>
<asrwt>0</asrwt>
<pdfrwt beam="1">  1        2 0.17674479E-01 0.23739233E+03</pdfrwt>
<pdfrwt beam="2">  1       -2 0.16267869E-01 0.23739233E+03</pdfrwt>
<totfact> 0.94019426E+03</totfact>
</mgrwt>
</event>
<event>
 4    1  0.1300812E-003  0.2557347E+03  0.7818608E-02  0.1109733E+00
         -2   -1    0    0    0  501 -0.00000000000E+00  0.00000000000E+00  0.23875164301E+02  0.23875164437E+02  0.25500000000E-02 0. -1.
          2   -1    0    0  501    0  0.00000000000E+00 -0.00000000000E+00 -0.68481460875E+03  0.68481460875E+03  0.25500000000E-02 0.  1.
    5000001    1    1    2    0    0  0.97101920636E+02 -0.25596188435E+02 -0.27958885013E+03  0.30689228236E+03  0.77000000000E+02 0.  0.
   -5000001    1    1    2    0    0 -0.97101920636E+02  0.25596188435E+02 -0.38135059431E+03  0.40179749083E+03  0.77000000000E+02 0.  0.
<mgrwt>
<rscale>  0 0.25573472E+03</rscale>
<asrwt>0</asrwt>
<pdfrwt beam="1">  1        2 0.97830646E-01 0.25573472E+03</pdfrwt>
<pdfrwt beam="2">  1       -2 0.34107382E-02 0.25573472E+03</pdfrwt>
<totfact> 0.16309852E+04</totfact>
</mgrwt>
</event>
<event>
 4    1  0.1300812E-003  0.4298581E+03  0.7818608E-02  0.1033905E+00
          2   -1    0    0  501    0  0.00000000000E+00  0.00000000000E+00  0.14671206062E+04  0.14671206062E+04  0.25500000000E-02 0.  1.
         -2   -1    0    0    0  501 -0.00000000000E+00 -0.00000000000E+00 -0.31486501891E+02  0.31486501995E+02  0.25500000000E-02 0. -1.
    5000001    1    1    2    0    0  0.87304332473E+02 -0.12831359359E+03  0.27437235285E+03  0.32449285474E+03  0.77000000000E+02 0.  0.
   -5000001    1    1    2    0    0 -0.87304332473E+02  0.12831359359E+03  0.11612617515E+04  0.11741142535E+04  0.77000000000E+02 0.  0.
<mgrwt>
<rscale>  0 0.42985810E+03</rscale>
<asrwt>0</asrwt>
<pdfrwt beam="1">  1        2 0.20958868E+00 0.42985810E+03</pdfrwt>
<pdfrwt beam="2">  1       -2 0.44980713E-02 0.42985810E+03</pdfrwt>
<totfact> 0.37381745E+03</totfact>
</mgrwt>
</event>
<event>
 4    1  0.1300812E-003  0.1744849E+03  0.7818608E-02  0.1173250E+00
         -2   -1    0    0    0  501 -0.00000000000E+00  0.00000000000E+00  0.21554348429E+01  0.21554363513E+01  0.25500000000E-02 0. -1.
          2   -1    0    0  501    0  0.00000000000E+00 -0.00000000000E+00 -0.35311849021E+04  0.35311849021E+04  0.25500000000E-02 0.  1.
    5000001    1    1    2    0    0  0.97534979400E+01 -0.26931337525E+02 -0.23589909550E+04  0.23604210966E+04  0.77000000000E+02 0.  0.
   -5000001    1    1    2    0    0 -0.97534979400E+01  0.26931337525E+02 -0.11700385123E+04  0.11729192419E+04  0.77000000000E+02 0.  0.
<mgrwt>
<rscale>  0 0.17448486E+03</rscale>
<asrwt>0</asrwt>
<pdfrwt beam="1">  1        2 0.50445128E+00 0.17448486E+03</pdfrwt>
<pdfrwt beam="2">  1       -2 0.30792163E-03 0.17448486E+03</pdfrwt>
<totfact> 0.16326218E+04</totfact>
</mgrwt>
</event>
<event>
 4    1  0.1300812E-003  0.3995921E+03  0.7818608E-02  0.1043921E+00
         -2   -1    0    0    0  501 -0.00000000000E+00  0.00000000000E+00  0.93549778486E+02  0.93549778521E+02  0.25500000000E-02 0. -1.
          2   -1    0    0  501    0  0.00000000000E+00 -0.00000000000E+00 -0.42670830423E+03  0.42670830424E+03  0.25500000000E-02 0.  1.
    5000001    1    1    2    0    0 -0.12852100095E+03 -0.68204710376E+02 -0.19163182617E+02  0.16572796315E+03  0.77000000000E+02 0.  0.
   -5000001    1    1    2    0    0  0.12852100095E+03  0.68204710376E+02 -0.31399534313E+03  0.35453011961E+03  0.77000000000E+02 0.  0.
<mgrwt>
<rscale>  0 0.39959213E+03</rscale>
<asrwt>0</asrwt>
<pdfrwt beam="1">  1        2 0.60958328E-01 0.39959213E+03</pdfrwt>
<pdfrwt beam="2">  1       -2 0.13364254E-01 0.39959213E+03</pdfrwt>
<totfact> 0.33668472E+03</totfact>
</mgrwt>
</event>
<event>
 4    1  0.1300812E-003  0.3337979E+03  0.7818608E-02  0.1069469E+00
         -2   -1    0    0    0  501 -0.00000000000E+00  0.00000000000E+00  0.21634638344E+03  0.21634638345E+03  0.25500000000E-02 0. -1.
          2   -1    0    0  501    0  0.00000000000E+00 -0.00000000000E+00 -0.12875303586E+03  0.12875303589E+03  0.25500000000E-02 0.  1.
    5000001    1    1    2    0    0  0.14581267915E+03  0.11903157290E+02  0.20147963783E+02  0.16654717950E+03  0.77000000000E+02 0.  0.
   -5000001    1    1    2    0    0 -0.14581267915E+03 -0.11903157290E+02  0.67445383794E+02  0.17855223984E+03  0.77000000000E+02 0.  0.
<mgrwt>
<rscale>  0 0.33379787E+03</rscale>
<asrwt>0</asrwt>
<pdfrwt beam="1">  1        2 0.18393291E-01 0.33379787E+03</pdfrwt>
<pdfrwt beam="2">  1       -2 0.30906626E-01 0.33379787E+03</pdfrwt>
<totfact> 0.29730214E+03</totfact>
</mgrwt>
</event>
<event>
 4    1  0.1300812E-003  0.3781229E+03  0.7818608E-02  0.1051630E+00
         -2   -1    0    0    0  501 -0.00000000000E+00  0.00000000000E+00  0.29878974433E+02  0.29878974541E+02  0.25500000000E-02 0. -1.
          2   -1    0    0  501    0  0.00000000000E+00 -0.00000000000E+00 -0.11963001889E+04  0.11963001889E+04  0.25500000000E-02 0.  1.
    5000001    1    1    2    0    0 -0.10549911216E+03 -0.38396243324E+02 -0.15778595323E+03  0.20839803551E+03  0.77000000000E+02 0.  0.
   -5000001    1    1    2    0    0  0.10549911216E+03  0.38396243324E+02 -0.10086352612E+04  0.10177811279E+04  0.77000000000E+02 0.  0.
<mgrwt>
<rscale>  0 0.37812285E+03</rscale>
<asrwt>0</asrwt>
<pdfrwt beam="1">  1        2 0.17090000E+00 0.37812285E+03</pdfrwt>
<pdfrwt beam="2">  1       -2 0.42684257E-02 0.37812285E+03</pdfrwt>
<totfact> 0.56384615E+03</totfact>
</mgrwt>
</event>
<event>
 4    1  0.1300812E-003  0.4475958E+03  0.7818608E-02  0.1028441E+00
         -2   -1    0    0    0  501 -0.00000000000E+00  0.00000000000E+00  0.13758078440E+03  0.13758078442E+03  0.25500000000E-02 0. -1.
          2   -1    0    0  501    0  0.00000000000E+00 -0.00000000000E+00 -0.36404437817E+03  0.36404437818E+03  0.25500000000E-02 0.  1.
    5000001    1    1    2    0    0  0.17830649662E+03 -0.47603067589E+02 -0.22584644071E+03  0.30165356547E+03  0.77000000000E+02 0.  0.
   -5000001    1    1    2    0    0 -0.17830649662E+03  0.47603067589E+02 -0.61715306252E+00  0.19997159713E+03  0.77000000000E+02 0.  0.
<mgrwt>
<rscale>  0 0.44759585E+03</rscale>
<asrwt>0</asrwt>
<pdfrwt beam="1">  1        2 0.52006340E-01 0.44759585E+03</pdfrwt>
<pdfrwt beam="2">  1       -2 0.19654398E-01 0.44759585E+03</pdfrwt>
<totfact> 0.20960553E+03</totfact>
</mgrwt>
</event>
<event>
 4    1  0.1300812E-003  0.5545601E+03  0.7818608E-02  0.1000444E+00
         -2   -1    0    0    0  501 -0.00000000000E+00  0.00000000000E+00  0.89301003431E+02  0.89301003468E+02  0.25500000000E-02 0. -1.
          2   -1    0    0  501    0  0.00000000000E+00 -0.00000000000E+00 -0.86095597640E+03  0.86095597641E+03  0.25500000000E-02 0.  1.
    5000001    1    1    2    0    0  0.24960417412E+03 -0.18591237545E+02 -0.22964806514E+03  0.34830318930E+03  0.77000000000E+02 0.  0.
   -5000001    1    1    2    0    0 -0.24960417412E+03  0.18591237545E+02 -0.54200690783E+03  0.60195379057E+03  0.77000000000E+02 0.  0.
<mgrwt>
<rscale>  0 0.55456012E+03</rscale>
<asrwt>0</asrwt>
<pdfrwt beam="1">  1        2 0.12299371E+00 0.55456012E+03</pdfrwt>
<pdfrwt beam="2">  1       -2 0.12757287E-01 0.55456012E+03</pdfrwt>
<totfact> 0.15899817E+03</totfact>
</mgrwt>
</event>
<event>
 4    1  0.1300812E-003  0.3807917E+03  0.7818608E-02  0.1050642E+00
          2   -1    0    0  501    0  0.00000000000E+00  0.00000000000E+00  0.26251101526E+04  0.26251101526E+04  0.25500000000E-02 0.  1.
         -2   -1    0    0    0  501 -0.00000000000E+00 -0.00000000000E+00 -0.13809165345E+02  0.13809165580E+02  0.25500000000E-02 0. -1.
    5000001    1    1    2    0    0  0.17177816142E+03  0.27512349309E+02  0.12533688143E+04  0.12677251479E+04  0.77000000000E+02 0.  0.
   -5000001    1    1    2    0    0 -0.17177816142E+03 -0.27512349309E+02  0.13579321730E+04  0.13711941703E+04  0.77000000000E+02 0.  0.
<mgrwt>
<rscale>  0 0.38079170E+03</rscale>
<asrwt>0</asrwt>
<pdfrwt beam="1">  1        2 0.37501559E+00 0.38079170E+03</pdfrwt>
<pdfrwt beam="2">  1       -2 0.19727387E-02 0.38079170E+03</pdfrwt>
<totfact> 0.34029996E+03</totfact>
</mgrwt>
</event>
<event>
 4    1  0.1300812E-003  0.2593341E+03  0.7818608E-02  0.1107544E+00
          2   -1    0    0  501    0  0.00000000000E+00  0.00000000000E+00  0.25075161321E+04  0.25075161321E+04  0.25500000000E-02 0.  1.
         -2   -1    0    0    0  501 -0.00000000000E+00 -0.00000000000E+00 -0.67052600825E+01  0.67052605673E+01  0.25500000000E-02 0. -1.
    5000001    1    1    2    0    0 -0.94711730491E+02  0.42400131962E+02  0.11457788127E+04  0.11530421375E+04  0.77000000000E+02 0.  0.
   -5000001    1    1    2    0    0  0.94711730491E+02 -0.42400131962E+02  0.13550320593E+04  0.13611792552E+04  0.77000000000E+02 0.  0.
<mgrwt>
<rscale>  0 0.25933414E+03</rscale>
<asrwt>0</asrwt>
<pdfrwt beam="1">  1        2 0.35821631E+00 0.25933414E+03</pdfrwt>
<pdfrwt beam="2">  1       -2 0.95789507E-03 0.25933414E+03</pdfrwt>
<totfact> 0.11273409E+04</totfact>
</mgrwt>
</event>
<event>
 4    1  0.1300812E-003  0.2725367E+03  0.7818608E-02  0.1099837E+00
          2   -1    0    0  501    0  0.00000000000E+00  0.00000000000E+00  0.48451889150E+03  0.48451889150E+03  0.25500000000E-02 0.  1.
         -2   -1    0    0    0  501 -0.00000000000E+00 -0.00000000000E+00 -0.38324731680E+02  0.38324731765E+02  0.25500000000E-02 0. -1.
    5000001    1    1    2    0    0 -0.95158245020E+02 -0.12850957976E+02  0.33528559147E+03  0.35716336117E+03  0.77000000000E+02 0.  0.
   -5000001    1    1    2    0    0  0.95158245020E+02  0.12850957976E+02  0.11090856835E+03  0.16568026210E+03  0.77000000000E+02 0.  0.
<mgrwt>
<rscale>  0 0.27253665E+03</rscale>
<asrwt>0</asrwt>
<pdfrwt beam="1">  1        2 0.69216980E-01 0.27253665E+03</pdfrwt>
<pdfrwt beam="2">  1       -2 0.54749621E-02 0.27253665E+03</pdfrwt>
<totfact> 0.11859286E+04</totfact>
</mgrwt>
</event>
<event>
 4    1  0.1300812E-003  0.2135834E+03  0.7818608E-02  0.1138759E+00
         -2   -1    0    0    0  501 -0.00000000000E+00  0.00000000000E+00  0.15199944431E+03  0.15199944434E+03  0.25500000000E-02 0. -1.
          2   -1    0    0  501    0  0.00000000000E+00 -0.00000000000E+00 -0.75029665725E+02  0.75029665768E+02  0.25500000000E-02 0.  1.
    5000001    1    1    2    0    0  0.16504377687E+02 -0.69060125044E+02  0.16346558217E+02  0.10600898697E+03  0.77000000000E+02 0.  0.
   -5000001    1    1    2    0    0 -0.16504377687E+02  0.69060125044E+02  0.60623220372E+02  0.12102012313E+03  0.77000000000E+02 0.  0.
<mgrwt>
<rscale>  0 0.21358340E+03</rscale>
<asrwt>0</asrwt>
<pdfrwt beam="1">  1        2 0.10718524E-01 0.21358340E+03</pdfrwt>
<pdfrwt beam="2">  1       -2 0.21714206E-01 0.21358340E+03</pdfrwt>
<totfact> 0.10413695E+04</totfact>
</mgrwt>
</event>
<event>
 4    1  0.1300812E-003  0.3486262E+03  0.7818608E-02  0.1063180E+00
         -2   -1    0    0    0  501 -0.00000000000E+00  0.00000000000E+00  0.15102778243E+04  0.15102778243E+04  0.25500000000E-02 0. -1.
          2   -1    0    0  501    0  0.00000000000E+00 -0.00000000000E+00 -0.20118855225E+02  0.20118855387E+02  0.25500000000E-02 0.  1.
    5000001    1    1    2    0    0  0.47585937999E+02 -0.14640061053E+03  0.86597827983E+03  0.88291842285E+03  0.77000000000E+02 0.  0.
   -5000001    1    1    2    0    0 -0.47585937999E+02  0.14640061053E+03  0.62418068924E+03  0.64747825684E+03  0.77000000000E+02 0.  0.
<mgrwt>
<rscale>  0 0.34862622E+03</rscale>
<asrwt>0</asrwt>
<pdfrwt beam="1">  1        2 0.28741225E-02 0.34862622E+03</pdfrwt>
<pdfrwt beam="2">  1       -2 0.21575395E+00 0.34862622E+03</pdfrwt>
<totfact> 0.38294436E+02</totfact>
</mgrwt>
</event>
<event>
 4    1  0.1300812E-003  0.2509328E+03  0.7818608E-02  0.1112717E+00
         -2   -1    0    0    0  501 -0.00000000000E+00  0.00000000000E+00  0.40101873518E+02  0.40101873599E+02  0.25500000000E-02 0. -1.
          2   -1    0    0  501    0  0.00000000000E+00 -0.00000000000E+00 -0.39254572091E+03  0.39254572091E+03  0.25500000000E-02 0.  1.
    5000001    1    1    2    0    0  0.63813708187E+02 -0.72517273511E+02 -0.21407000267E+03  0.24715563993E+03  0.77000000000E+02 0.  0.
   -5000001    1    1    2    0    0 -0.63813708187E+02  0.72517273511E+02 -0.13837384472E+03  0.18549195458E+03  0.77000000000E+02 0.  0.
<mgrwt>
<rscale>  0 0.25093281E+03</rscale>
<asrwt>0</asrwt>
<pdfrwt beam="1">  1        2 0.56077958E-01 0.25093281E+03</pdfrwt>
<pdfrwt beam="2">  1       -2 0.57288393E-02 0.25093281E+03</pdfrwt>
<totfact> 0.13858620E+04</totfact>
</mgrwt>
</event>
<event>
 4    1  0.1300812E-003  0.2155603E+03  0.7818608E-02  0.1137237E+00
         -2   -1    0    0    0  501 -0.00000000000E+00  0.00000000000E+00  0.50786989023E+01  0.50786995425E+01  0.25500000000E-02 0. -1.
          2   -1    0    0  501    0  0.00000000000E+00 -0.00000000000E+00 -0.22873095405E+04  0.22873095405E+04  0.25500000000E-02 0.  1.
    5000001    1    1    2    0    0 -0.19686876549E+02  0.64794703570E+02 -0.78814571870E+03  0.79478839990E+03  0.77000000000E+02 0.  0.
   -5000001    1    1    2    0    0  0.19686876549E+02 -0.64794703570E+02 -0.14940851229E+04  0.14975998402E+04  0.77000000000E+02 0.  0.
<mgrwt>
<rscale>  0 0.21556027E+03</rscale>
<asrwt>0</asrwt>
<pdfrwt beam="1">  1        2 0.32675785E+00 0.21556027E+03</pdfrwt>
<pdfrwt beam="2">  1       -2 0.72552992E-03 0.21556027E+03</pdfrwt>
<totfact> 0.21519941E+04</totfact>
</mgrwt>
</event>
<event>
 4    1  0.1300812E-003  0.2398670E+03  0.7818608E-02  0.1119881E+00
         -2   -1    0    0    0  501 -0.00000000000E+00  0.00000000000E+00  0.14304479668E+02  0.14304479896E+02  0.25500000000E-02 0. -1.
          2   -1    0    0  501    0  0.00000000000E+00 -0.00000000000E+00 -0.10055626088E+04  0.10055626088E+04  0.25500000000E-02 0.  1.
    5000001    1    1    2    0    0 -0.82586409775E+02 -0.15545575770E+02 -0.33694683919E+03  0.35570261800E+03  0.77000000000E+02 0.  0.
   -5000001    1    1    2    0    0  0.82586409775E+02  0.15545575770E+02 -0.65431128992E+03  0.66416447069E+03  0.77000000000E+02 0.  0.
<mgrwt>
<rscale>  0 0.23986705E+03</rscale>
<asrwt>0</asrwt>
<pdfrwt beam="1">  1        2 0.14365176E+00 0.23986705E+03</pdfrwt>
<pdfrwt beam="2">  1       -2 0.20434978E-02 0.23986705E+03</pdfrwt>
<totfact> 0.21411490E+04</totfact>
</mgrwt>
</event>
<event>
 4    1  0.1300812E-003  0.1998025E+03  0.7818608E-02  0.1149906E+00
          2   -1    0    0  501    0  0.00000000000E+00  0.00000000000E+00  0.10826437696E+04  0.10826437696E+04  0.25500000000E-02 0.  1.
         -2   -1    0    0    0  501 -0.00000000000E+00 -0.00000000000E+00 -0.92184175209E+01  0.92184178736E+01  0.25500000000E-02 0. -1.
    5000001    1    1    2    0    0  0.90008310608E+01 -0.42532540944E+02  0.79076161859E+03  0.79569024716E+03  0.77000000000E+02 0.  0.
   -5000001    1    1    2    0    0 -0.90008310608E+01  0.42532540944E+02  0.28266373353E+03  0.29617194035E+03  0.77000000000E+02 0.  0.
<mgrwt>
<rscale>  0 0.19980253E+03</rscale>
<asrwt>0</asrwt>
<pdfrwt beam="1">  1        2 0.15466326E+00 0.19980253E+03</pdfrwt>
<pdfrwt beam="2">  1       -2 0.13169180E-02 0.19980253E+03</pdfrwt>
<totfact> 0.36288588E+04</totfact>
</mgrwt>
</event>
<event>
 4    1  0.1300812E-003  0.3848034E+03  0.7818608E-02  0.1049173E+00
          2   -1    0    0  501    0  0.00000000000E+00  0.00000000000E+00  0.13937211761E+04  0.13937211761E+04  0.25500000000E-02 0.  1.
         -2   -1    0    0    0  501 -0.00000000000E+00 -0.00000000000E+00 -0.26560844221E+02  0.26560844343E+02  0.25500000000E-02 0. -1.
    5000001    1    1    2    0    0  0.10837768246E+03  0.93929129541E+02  0.10621660141E+04  0.10745669104E+04  0.77000000000E+02 0.  0.
   -5000001    1    1    2    0    0 -0.10837768246E+03 -0.93929129541E+02  0.30499431780E+03  0.34571511006E+03  0.77000000000E+02 0.  0.
<mgrwt>
<rscale>  0 0.38480338E+03</rscale>
<asrwt>0</asrwt>
<pdfrwt beam="1">  1        2 0.19910303E+00 0.38480338E+03</pdfrwt>
<pdfrwt beam="2">  1       -2 0.37944062E-02 0.38480338E+03</pdfrwt>
<totfact> 0.52865093E+03</totfact>
</mgrwt>
</event>
<event>
 4    1  0.1300812E-003  0.1751523E+03  0.7818608E-02  0.1172579E+00
         -2   -1    0    0    0  501 -0.00000000000E+00  0.00000000000E+00  0.18431359569E+02  0.18431359745E+02  0.25500000000E-02 0. -1.
          2   -1    0    0  501    0  0.00000000000E+00 -0.00000000000E+00 -0.41611613818E+03  0.41611613819E+03  0.25500000000E-02 0.  1.
    5000001    1    1    2    0    0 -0.74756549429E+01 -0.35423118780E+02 -0.25028307555E+03  0.26435071528E+03  0.77000000000E+02 0.  0.
   -5000001    1    1    2    0    0  0.74756549429E+01  0.35423118780E+02 -0.14740170306E+03  0.17019678266E+03  0.77000000000E+02 0.  0.
<mgrwt>
<rscale>  0 0.17515235E+03</rscale>
<asrwt>0</asrwt>
<pdfrwt beam="1">  1        2 0.59445157E-01 0.17515235E+03</pdfrwt>
<pdfrwt beam="2">  1       -2 0.26330516E-02 0.17515235E+03</pdfrwt>
<totfact> 0.40581009E+04</totfact>
</mgrwt>
</event>
<event>
 4    1  0.1300812E-003  0.3017508E+03  0.7818608E-02  0.1084369E+00
          2   -1    0    0  501    0  0.00000000000E+00  0.00000000000E+00  0.94276477885E+02  0.94276477919E+02  0.25500000000E-02 0. -1.
         -2   -1    0    0    0  501 -0.00000000000E+00 -0.00000000000E+00 -0.24145350035E+03  0.24145350036E+03  0.25500000000E-02 0.  1.
    5000001    1    1    2    0    0 -0.60390124413E+02  0.99844676065E+02 -0.13670832348E+03  0.19553539877E+03  0.77000000000E+02 0.  0.
   -5000001    1    1    2    0    0  0.60390124413E+02 -0.99844676065E+02 -0.10468698987E+02  0.14019457951E+03  0.77000000000E+02 0.  0.
<mgrwt>
<rscale>  0 0.30175080E+03</rscale>
<asrwt>0</asrwt>
<pdfrwt beam="1">  1        2 0.13468068E-01 0.30175080E+03</pdfrwt>
<pdfrwt beam="2">  1       -2 0.34493357E-01 0.30175080E+03</pdfrwt>
<totfact> 0.35006600E+03</totfact>
</mgrwt>
</event>
<event>
 4    1  0.1300812E-003  0.2006361E+03  0.7818608E-02  0.1149203E+00
         -2   -1    0    0    0  501 -0.00000000000E+00  0.00000000000E+00  0.58125164374E+02  0.58125164430E+02  0.25500000000E-02 0. -1.
          2   -1    0    0  501    0  0.00000000000E+00 -0.00000000000E+00 -0.17313854125E+03  0.17313854127E+03  0.25500000000E-02 0.  1.
    5000001    1    1    2    0    0  0.30346531494E+02  0.18176550335E+02  0.43877321041E+01  0.84850168820E+02  0.77000000000E+02 0.  0.
   -5000001    1    1    2    0    0 -0.30346531494E+02 -0.18176550335E+02 -0.11940110898E+03  0.14641353688E+03  0.77000000000E+02 0.  0.
<mgrwt>
<rscale>  0 0.20063605E+03</rscale>
<asrwt>0</asrwt>
<pdfrwt beam="1">  1        2 0.24734077E-01 0.20063605E+03</pdfrwt>
<pdfrwt beam="2">  1       -2 0.83035950E-02 0.20063605E+03</pdfrwt>
<totfact> 0.18711240E+04</totfact>
</mgrwt>
</event>
<event>
 4    1  0.1300812E-003  0.4267225E+03  0.7818608E-02  0.1034900E+00
          2   -1    0    0  501    0  0.00000000000E+00  0.00000000000E+00  0.39917069741E+04  0.39917069741E+04  0.25500000000E-02 0.  1.
         -2   -1    0    0    0  501 -0.00000000000E+00 -0.00000000000E+00 -0.11404397630E+02  0.11404397915E+02  0.25500000000E-02 0. -1.
    5000001    1    1    2    0    0 -0.11815970767E+02 -0.16866774243E+03  0.10060068783E+04  0.10230187015E+04  0.77000000000E+02 0.  0.
   -5000001    1    1    2    0    0  0.11815970767E+02  0.16866774243E+03  0.29742956981E+04  0.29800926705E+04  0.77000000000E+02 0.  0.
<mgrwt>
<rscale>  0 0.42672246E+03</rscale>
<asrwt>0</asrwt>
<pdfrwt beam="1">  1        2 0.57024396E+00 0.42672246E+03</pdfrwt>
<pdfrwt beam="2">  1       -2 0.16291994E-02 0.42672246E+03</pdfrwt>
<totfact> 0.74395067E+02</totfact>
</mgrwt>
</event>
<event>
 4    1  0.1300812E-003  0.2215546E+03  0.7818608E-02  0.1132729E+00
         -2   -1    0    0    0  501 -0.00000000000E+00  0.00000000000E+00  0.17305981116E+03  0.17305981118E+03  0.25500000000E-02 0. -1.
          2   -1    0    0  501    0  0.00000000000E+00 -0.00000000000E+00 -0.70909655720E+02  0.70909655766E+02  0.25500000000E-02 0.  1.
    5000001    1    1    2    0    0  0.14539780928E+02  0.77254292672E+02  0.65133051556E+02  0.12787081516E+03  0.77000000000E+02 0.  0.
   -5000001    1    1    2    0    0 -0.14539780928E+02 -0.77254292672E+02  0.37017103885E+02  0.11609865178E+03  0.77000000000E+02 0.  0.
<mgrwt>
<rscale>  0 0.22155461E+03</rscale>
<asrwt>0</asrwt>
<pdfrwt beam="1">  1        2 0.10129951E-01 0.22155461E+03</pdfrwt>
<pdfrwt beam="2">  1       -2 0.24722830E-01 0.22155461E+03</pdfrwt>
<totfact> 0.89287593E+03</totfact>
</mgrwt>
</event>
<event>
 4    1  0.1300812E-003  0.2325343E+03  0.7818608E-02  0.1124869E+00
         -2   -1    0    0    0  501 -0.00000000000E+00  0.00000000000E+00  0.91987377561E+01  0.91987381095E+01  0.25500000000E-02 0. -1.
          2   -1    0    0  501    0  0.00000000000E+00 -0.00000000000E+00 -0.14695547748E+04  0.14695547748E+04  0.25500000000E-02 0.  1.
    5000001    1    1    2    0    0  0.37305415621E+02 -0.26663947103E+02 -0.12012118334E+04  0.12045503430E+04  0.77000000000E+02 0.  0.
   -5000001    1    1    2    0    0 -0.37305415621E+02  0.26663947103E+02 -0.25914420363E+03  0.27420316991E+03  0.77000000000E+02 0.  0.
<mgrwt>
<rscale>  0 0.23253429E+03</rscale>
<asrwt>0</asrwt>
<pdfrwt beam="1">  1        2 0.20993625E+00 0.23253429E+03</pdfrwt>
<pdfrwt beam="2">  1       -2 0.13141064E-02 0.23253429E+03</pdfrwt>
<totfact> 0.22943817E+04</totfact>
</mgrwt>
</event>
<event>
 4    1  0.1300812E-003  0.7107520E+03  0.7818608E-02  0.9699019E-01
         -2   -1    0    0    0  501 -0.00000000000E+00  0.00000000000E+00  0.72695064142E+02  0.72695064187E+02  0.25500000000E-02 0.  1.
          2   -1    0    0  501    0  0.00000000000E+00 -0.00000000000E+00 -0.17372860022E+04  0.17372860022E+04  0.25500000000E-02 0. -1.
    5000001    1    1    2    0    0 -0.16227948571E+02 -0.31502067533E+03 -0.12001119901E+04  0.12432615014E+04  0.77000000000E+02 0.  0.
   -5000001    1    1    2    0    0  0.16227948571E+02  0.31502067533E+03 -0.46447894799E+03  0.56671956497E+03  0.77000000000E+02 0.  0.
<mgrwt>
<rscale>  0 0.71075205E+03</rscale>
<asrwt>0</asrwt>
<pdfrwt beam="1">  1        2 0.24818369E+00 0.71075205E+03</pdfrwt>
<pdfrwt beam="2">  1       -2 0.10385010E-01 0.71075205E+03</pdfrwt>
<totfact> 0.71936871E+02</totfact>
</mgrwt>
</event>
<event>
 4    1  0.1300812E-003  0.2066560E+03  0.7818608E-02  0.1144242E+00
          2   -1    0    0  501    0  0.00000000000E+00  0.00000000000E+00  0.71752779481E+03  0.71752779482E+03  0.25500000000E-02 0.  1.
         -2   -1    0    0    0  501 -0.00000000000E+00 -0.00000000000E+00 -0.14879812182E+02  0.14879812400E+02  0.25500000000E-02 0. -1.
    5000001    1    1    2    0    0  0.41326658325E+02  0.33574786109E+02  0.50631544349E+03  0.51489755026E+03  0.77000000000E+02 0.  0.
   -5000001    1    1    2    0    0 -0.41326658325E+02 -0.33574786109E+02  0.19633253914E+03  0.21751005695E+03  0.77000000000E+02 0.  0.
<mgrwt>
<rscale>  0 0.20665603E+03</rscale>
<asrwt>0</asrwt>
<pdfrwt beam="1">  1        2 0.10250395E+00 0.20665603E+03</pdfrwt>
<pdfrwt beam="2">  1       -2 0.21256880E-02 0.20665603E+03</pdfrwt>
<totfact> 0.30653001E+04</totfact>
</mgrwt>
</event>
<event>
 4    1  0.1300812E-003  0.1677324E+03  0.7818608E-02  0.1180233E+00
         -2   -1    0    0    0  501 -0.00000000000E+00  0.00000000000E+00  0.21617518375E+01  0.21617533414E+01  0.25500000000E-02 0. -1.
          2   -1    0    0  501    0  0.00000000000E+00 -0.00000000000E+00 -0.32536296616E+04  0.32536296616E+04  0.25500000000E-02 0.  1.
    5000001    1    1    2    0    0  0.20038707970E+02  0.26509250718E+02 -0.16354810757E+04  0.16376298847E+04  0.77000000000E+02 0.  0.
   -5000001    1    1    2    0    0 -0.20038707970E+02 -0.26509250718E+02 -0.16159868340E+04  0.16181615302E+04  0.77000000000E+02 0.  0.
<mgrwt>
<rscale>  0 0.16773243E+03</rscale>
<asrwt>0</asrwt>
<pdfrwt beam="1">  1        2 0.46480110E+00 0.16773243E+03</pdfrwt>
<pdfrwt beam="2">  1       -2 0.30882388E-03 0.16773243E+03</pdfrwt>
<totfact> 0.23213256E+04</totfact>
</mgrwt>
</event>
<event>
 4    1  0.1300812E-003  0.2054702E+03  0.7818608E-02  0.1145204E+00
          2   -1    0    0  501    0  0.00000000000E+00  0.00000000000E+00  0.85468202736E+03  0.85468202736E+03  0.25500000000E-02 0.  1.
         -2   -1    0    0    0  501 -0.00000000000E+00 -0.00000000000E+00 -0.12349039877E+02  0.12349040140E+02  0.25500000000E-02 0. -1.
    5000001    1    1    2    0    0  0.74418922114E+01 -0.65595069767E+02  0.49017023937E+03  0.50055365197E+03  0.77000000000E+02 0.  0.
   -5000001    1    1    2    0    0 -0.74418922114E+01  0.65595069767E+02  0.35216274811E+03  0.36647741553E+03  0.77000000000E+02 0.  0.
<mgrwt>
<rscale>  0 0.20547022E+03</rscale>
<asrwt>0</asrwt>
<pdfrwt beam="1">  1        2 0.12209747E+00 0.20547022E+03</pdfrwt>
<pdfrwt beam="2">  1       -2 0.17641480E-02 0.20547022E+03</pdfrwt>
<totfact> 0.32508731E+04</totfact>
</mgrwt>
</event>
<event>
 4    1  0.1300812E-003  0.2231145E+03  0.7818608E-02  0.1131582E+00
          2   -1    0    0  501    0  0.00000000000E+00  0.00000000000E+00  0.13588994104E+04  0.13588994104E+04  0.25500000000E-02 0.  1.
         -2   -1    0    0    0  501 -0.00000000000E+00 -0.00000000000E+00 -0.91581617659E+01  0.91581621209E+01  0.25500000000E-02 0. -1.
    5000001    1    1    2    0    0 -0.18937274067E+02 -0.68072997431E+02  0.91419843433E+03  0.92015234101E+03  0.77000000000E+02 0.  0.
   -5000001    1    1    2    0    0  0.18937274067E+02  0.68072997431E+02  0.43554281431E+03  0.44790523152E+03  0.77000000000E+02 0.  0.
<mgrwt>
<rscale>  0 0.22311451E+03</rscale>
<asrwt>0</asrwt>
<pdfrwt beam="1">  1        2 0.19412844E+00 0.22311451E+03</pdfrwt>
<pdfrwt beam="2">  1       -2 0.13083092E-02 0.22311451E+03</pdfrwt>
<totfact> 0.26238677E+04</totfact>
</mgrwt>
</event>
<event>
 4    1  0.1300812E-003  0.4757679E+03  0.7818608E-02  0.1020305E+00
         -2   -1    0    0    0  501 -0.00000000000E+00  0.00000000000E+00  0.22976739653E+02  0.22976739795E+02  0.25500000000E-02 0. -1.
          2   -1    0    0  501    0  0.00000000000E+00 -0.00000000000E+00 -0.24628725313E+04  0.24628725313E+04  0.25500000000E-02 0.  1.
    5000001    1    1    2    0    0  0.48140104653E+01 -0.21352150595E+03 -0.84882508003E+03  0.87866240655E+03  0.77000000000E+02 0.  0.
   -5000001    1    1    2    0    0 -0.48140104653E+01  0.21352150595E+03 -0.15910707116E+04  0.16071868645E+04  0.77000000000E+02 0.  0.
<mgrwt>
<rscale>  0 0.47576793E+03</rscale>
<asrwt>0</asrwt>
<pdfrwt beam="1">  1        2 0.35183876E+00 0.47576793E+03</pdfrwt>
<pdfrwt beam="2">  1       -2 0.32823930E-02 0.47576793E+03</pdfrwt>
<totfact> 0.19073803E+03</totfact>
</mgrwt>
</event>
<event>
 4    1  0.1300812E-003  0.3412789E+03  0.7818608E-02  0.1066253E+00
          2   -1    0    0  501    0  0.00000000000E+00  0.00000000000E+00  0.28876285499E+03  0.28876285500E+03  0.25500000000E-02 0.  1.
         -2   -1    0    0    0  501 -0.00000000000E+00 -0.00000000000E+00 -0.10083643398E+03  0.10083643402E+03  0.25500000000E-02 0. -1.
    5000001    1    1    2    0    0 -0.93883888688E+02 -0.10278358376E+03  0.16442939532E+03  0.22878958825E+03  0.77000000000E+02 0.  0.
   -5000001    1    1    2    0    0  0.93883888688E+02  0.10278358376E+03  0.23497025685E+02  0.16080970077E+03  0.77000000000E+02 0.  0.
<mgrwt>
<rscale>  0 0.34127887E+03</rscale>
<asrwt>0</asrwt>
<pdfrwt beam="1">  1        2 0.41251837E-01 0.34127887E+03</pdfrwt>
<pdfrwt beam="2">  1       -2 0.14405205E-01 0.34127887E+03</pdfrwt>
<totfact> 0.45368356E+03</totfact>
</mgrwt>
</event>
<event>
 4    1  0.1300812E-003  0.2509334E+03  0.7818608E-02  0.1112716E+00
          2   -1    0    0  501    0  0.00000000000E+00  0.00000000000E+00  0.56196925464E+03  0.56196925464E+03  0.25500000000E-02 0.  1.
         -2   -1    0    0    0  501 -0.00000000000E+00 -0.00000000000E+00 -0.28012027008E+02  0.28012027124E+02  0.25500000000E-02 0. -1.
    5000001    1    1    2    0    0 -0.89911381934E+02 -0.15014977241E+02  0.17581620675E+03  0.21248492817E+03  0.77000000000E+02 0.  0.
   -5000001    1    1    2    0    0  0.89911381934E+02  0.15014977241E+02  0.35814102088E+03  0.37749635360E+03  0.77000000000E+02 0.  0.
<mgrwt>
<rscale>  0 0.25093344E+03</rscale>
<asrwt>0</asrwt>
<pdfrwt beam="1">  1        2 0.80281318E-01 0.25093344E+03</pdfrwt>
<pdfrwt beam="2">  1       -2 0.40017184E-02 0.25093344E+03</pdfrwt>
<totfact> 0.16097645E+04</totfact>
</mgrwt>
</event>
<event>
 4    1  0.1300812E-003  0.2752576E+03  0.7818608E-02  0.1098308E+00
         -2   -1    0    0    0  501 -0.00000000000E+00  0.00000000000E+00  0.56927633730E+03  0.56927633730E+03  0.25500000000E-02 0. -1.
          2   -1    0    0  501    0  0.00000000000E+00 -0.00000000000E+00 -0.33273273029E+02  0.33273273127E+02  0.25500000000E-02 0.  1.
    5000001    1    1    2    0    0 -0.27570338836E+02  0.99492976541E+02  0.16180017644E+03  0.20680249771E+03  0.77000000000E+02 0.  0.
   -5000001    1    1    2    0    0  0.27570338836E+02 -0.99492976541E+02  0.37420288783E+03  0.39574711272E+03  0.77000000000E+02 0.  0.
<mgrwt>
<rscale>  0 0.27525760E+03</rscale>
<asrwt>0</asrwt>
<pdfrwt beam="1">  1        2 0.47533250E-02 0.27525760E+03</pdfrwt>
<pdfrwt beam="2">  1       -2 0.81325186E-01 0.27525760E+03</pdfrwt>
<totfact> 0.23056378E+03</totfact>
</mgrwt>
</event>
<event>
 4    1  0.1300812E-003  0.1718765E+03  0.7818608E-02  0.1175905E+00
          2   -1    0    0  501    0  0.00000000000E+00  0.00000000000E+00  0.10906121489E+02  0.10906121787E+02  0.25500000000E-02 0.  1.
         -2   -1    0    0    0  501 -0.00000000000E+00 -0.00000000000E+00 -0.67717774751E+03  0.67717774751E+03  0.25500000000E-02 0. -1.
    5000001    1    1    2    0    0 -0.53409382910E+01 -0.35446523526E+02 -0.38554794769E+03  0.39479260583E+03  0.77000000000E+02 0.  0.
   -5000001    1    1    2    0    0  0.53409382910E+01  0.35446523526E+02 -0.28072367833E+03  0.29329126347E+03  0.77000000000E+02 0.  0.
<mgrwt>
<rscale>  0 0.17187650E+03</rscale>
<asrwt>0</asrwt>
<pdfrwt beam="1">  1        2 0.15580178E-02 0.17187650E+03</pdfrwt>
<pdfrwt beam="2">  1       -2 0.96739652E-01 0.17187650E+03</pdfrwt>
<totfact> 0.69085458E+03</totfact>
</mgrwt>
</event>
<event>
 4    1  0.1300812E-003  0.1731081E+03  0.7818608E-02  0.1174645E+00
         -2   -1    0    0    0  501 -0.00000000000E+00  0.00000000000E+00  0.85240593592E+01  0.85240597407E+01  0.25500000000E-02 0. -1.
          2   -1    0    0  501    0  0.00000000000E+00 -0.00000000000E+00 -0.87887693964E+03  0.87887693964E+03  0.25500000000E-02 0.  1.
    5000001    1    1    2    0    0 -0.19725704791E+02 -0.33279809296E+02 -0.39354601676E+03  0.40286985050E+03  0.77000000000E+02 0.  0.
   -5000001    1    1    2    0    0  0.19725704791E+02  0.33279809296E+02 -0.47680686352E+03  0.48453114888E+03  0.77000000000E+02 0.  0.
<mgrwt>
<rscale>  0 0.17310805E+03</rscale>
<asrwt>0</asrwt>
<pdfrwt beam="1">  1        2 0.12555379E+00 0.17310805E+03</pdfrwt>
<pdfrwt beam="2">  1       -2 0.12177234E-02 0.17310805E+03</pdfrwt>
<totfact> 0.52981633E+04</totfact>
</mgrwt>
</event>
<event>
 4    1  0.1300812E-003  0.5290893E+03  0.7818608E-02  0.1006453E+00
         -2   -1    0    0    0  501 -0.00000000000E+00  0.00000000000E+00  0.47358743942E+02  0.47358744011E+02  0.25500000000E-02 0. -1.
          2   -1    0    0  501    0  0.00000000000E+00 -0.00000000000E+00 -0.14777391168E+04  0.14777391168E+04  0.25500000000E-02 0.  1.
    5000001    1    1    2    0    0  0.24978974251E+03 -0.64169781739E+01 -0.59921581018E+03  0.65377724053E+03  0.77000000000E+02 0.  0.
   -5000001    1    1    2    0    0 -0.24978974251E+03  0.64169781739E+01 -0.83116456269E+03  0.87132062029E+03  0.77000000000E+02 0.  0.
<mgrwt>
<rscale>  0 0.52908929E+03</rscale>
<asrwt>0</asrwt>
<pdfrwt beam="1">  1        2 0.21110556E+00 0.52908929E+03</pdfrwt>
<pdfrwt beam="2">  1       -2 0.67655357E-02 0.52908929E+03</pdfrwt>
<totfact> 0.19570409E+03</totfact>
</mgrwt>
</event>
<event>
 4    1  0.1300812E-003  0.3237187E+03  0.7818608E-02  0.1073950E+00
         -2   -1    0    0    0  501 -0.00000000000E+00  0.00000000000E+00  0.96947391696E+02  0.96947391729E+02  0.25500000000E-02 0. -1.
          2   -1    0    0  501    0  0.00000000000E+00 -0.00000000000E+00 -0.27023372263E+03  0.27023372264E+03  0.25500000000E-02 0.  1.
    5000001    1    1    2    0    0  0.13499999547E+03  0.77396060573E+01 -0.13717254844E+03  0.20743723948E+03  0.77000000000E+02 0.  0.
   -5000001    1    1    2    0    0 -0.13499999547E+03 -0.77396060573E+01 -0.36113782497E+02  0.15974387489E+03  0.77000000000E+02 0.  0.
<mgrwt>
<rscale>  0 0.32371873E+03</rscale>
<asrwt>0</asrwt>
<pdfrwt beam="1">  1        2 0.38604817E-01 0.32371873E+03</pdfrwt>
<pdfrwt beam="2">  1       -2 0.13849627E-01 0.32371873E+03</pdfrwt>
<totfact> 0.51942288E+03</totfact>
</mgrwt>
</event>
<event>
 4    1  0.1300812E-003  0.2396604E+03  0.7818608E-02  0.1120019E+00
          2   -1    0    0  501    0  0.00000000000E+00  0.00000000000E+00  0.25716934069E+04  0.25716934069E+04  0.25500000000E-02 0.  1.
         -2   -1    0    0    0  501 -0.00000000000E+00 -0.00000000000E+00 -0.55835894881E+01  0.55835900703E+01  0.25500000000E-02 0. -1.
    5000001    1    1    2    0    0  0.81330277975E+02  0.41638291268E+02  0.11857222262E+04  0.11917275524E+04  0.77000000000E+02 0.  0.
   -5000001    1    1    2    0    0 -0.81330277975E+02 -0.41638291268E+02  0.13803875912E+04  0.13855494446E+04  0.77000000000E+02 0.  0.
<mgrwt>
<rscale>  0 0.23966043E+03</rscale>
<asrwt>0</asrwt>
<pdfrwt beam="1">  1        2 0.36738439E+00 0.23966043E+03</pdfrwt>
<pdfrwt beam="2">  1       -2 0.79765652E-03 0.23966043E+03</pdfrwt>
<totfact> 0.13630150E+04</totfact>
</mgrwt>
</event>
<event>
 4    1  0.1300812E-003  0.1855143E+03  0.7818608E-02  0.1162571E+00
          2   -1    0    0  501    0  0.00000000000E+00  0.00000000000E+00  0.10095649407E+03  0.10095649410E+03  0.25500000000E-02 0.  1.
         -2   -1    0    0    0  501 -0.00000000000E+00 -0.00000000000E+00 -0.85223708579E+02  0.85223708618E+02  0.25500000000E-02 0. -1.
    5000001    1    1    2    0    0  0.31849198018E+02  0.40748659441E+02  0.81166377837E+01  0.93111247814E+02  0.77000000000E+02 0.  0.
   -5000001    1    1    2    0    0 -0.31849198018E+02 -0.40748659441E+02  0.76161477023E+01  0.93068954901E+02  0.77000000000E+02 0.  0.
<mgrwt>
<rscale>  0 0.18551428E+03</rscale>
<asrwt>0</asrwt>
<pdfrwt beam="1">  1        2 0.14422356E-01 0.18551428E+03</pdfrwt>
<pdfrwt beam="2">  1       -2 0.12174815E-01 0.18551428E+03</pdfrwt>
<totfact> 0.18843532E+04</totfact>
</mgrwt>
</event>
<event>
 4    1  0.1300812E-003  0.2168385E+03  0.7818608E-02  0.1136262E+00
          2   -1    0    0  501    0  0.00000000000E+00  0.00000000000E+00  0.19142727923E+04  0.19142727923E+04  0.25500000000E-02 0.  1.
         -2   -1    0    0    0  501 -0.00000000000E+00 -0.00000000000E+00 -0.61405713583E+01  0.61405718877E+01  0.25500000000E-02 0. -1.
    5000001    1    1    2    0    0  0.71463074624E+02  0.62708588784E+01  0.72321487524E+03  0.73083175250E+03  0.77000000000E+02 0.  0.
   -5000001    1    1    2    0    0 -0.71463074624E+02 -0.62708588784E+01  0.11849173458E+04  0.11895816117E+04  0.77000000000E+02 0.  0.
<mgrwt>
<rscale>  0 0.21683846E+03</rscale>
<asrwt>0</asrwt>
<pdfrwt beam="1">  1        2 0.27346756E+00 0.21683846E+03</pdfrwt>
<pdfrwt beam="2">  1       -2 0.87722445E-03 0.21683846E+03</pdfrwt>
<totfact> 0.24822988E+04</totfact>
</mgrwt>
</event>
<event>
 4    1  0.1300812E-003  0.1978699E+03  0.7818608E-02  0.1151549E+00
          2   -1    0    0  501    0  0.00000000000E+00  0.00000000000E+00  0.15584190462E+03  0.15584190464E+03  0.25500000000E-02 0.  1.
         -2   -1    0    0    0  501 -0.00000000000E+00 -0.00000000000E+00 -0.62808035381E+02  0.62808035433E+02  0.25500000000E-02 0. -1.
    5000001    1    1    2    0    0 -0.55069206118E+02  0.28304342293E+02  0.52082830928E+02  0.11169321614E+03  0.77000000000E+02 0.  0.
   -5000001    1    1    2    0    0  0.55069206118E+02 -0.28304342293E+02  0.40951038313E+02  0.10695672393E+03  0.77000000000E+02 0.  0.
<mgrwt>
<rscale>  0 0.19786990E+03</rscale>
<asrwt>0</asrwt>
<pdfrwt beam="1">  1        2 0.22263129E-01 0.19786990E+03</pdfrwt>
<pdfrwt beam="2">  1       -2 0.89725766E-02 0.19786990E+03</pdfrwt>
<totfact> 0.18629170E+04</totfact>
</mgrwt>
</event>
<event>
 4    1  0.1300812E-003  0.2489387E+03  0.7818608E-02  0.1113977E+00
          2   -1    0    0  501    0  0.00000000000E+00  0.00000000000E+00  0.21234365107E+04  0.21234365107E+04  0.25500000000E-02 0.  1.
         -2   -1    0    0    0  501 -0.00000000000E+00 -0.00000000000E+00 -0.72960101741E+01  0.72960106198E+01  0.25500000000E-02 0. -1.
    5000001    1    1    2    0    0  0.47711566259E+02 -0.81805312829E+02  0.12668728815E+04  0.12727389366E+04  0.77000000000E+02 0.  0.
   -5000001    1    1    2    0    0 -0.47711566259E+02  0.81805312829E+02  0.84926761904E+03  0.85799358478E+03  0.77000000000E+02 0.  0.
<mgrwt>
<rscale>  0 0.24893867E+03</rscale>
<asrwt>0</asrwt>
<pdfrwt beam="1">  1        2 0.30334806E+00 0.24893867E+03</pdfrwt>
<pdfrwt beam="2">  1       -2 0.10422873E-02 0.24893867E+03</pdfrwt>
<totfact> 0.15392105E+04</totfact>
</mgrwt>
</event>
<event>
 4    1  0.1300812E-003  0.5277336E+03  0.7818608E-02  0.1006783E+00
          2   -1    0    0  501    0  0.00000000000E+00  0.00000000000E+00  0.37671427481E+03  0.37671427482E+03  0.25500000000E-02 0.  1.
         -2   -1    0    0    0  501 -0.00000000000E+00 -0.00000000000E+00 -0.18482358567E+03  0.18482358569E+03  0.25500000000E-02 0. -1.
    5000001    1    1    2    0    0 -0.18044793016E+03 -0.15765865585E+03  0.11629592684E+02  0.25195625551E+03  0.77000000000E+02 0.  0.
   -5000001    1    1    2    0    0  0.18044793016E+03  0.15765865585E+03  0.18026109645E+03  0.30958160500E+03  0.77000000000E+02 0.  0.
<mgrwt>
<rscale>  0 0.52773358E+03</rscale>
<asrwt>0</asrwt>
<pdfrwt beam="1">  1        2 0.53816326E-01 0.52773358E+03</pdfrwt>
<pdfrwt beam="2">  1       -2 0.26403369E-01 0.52773358E+03</pdfrwt>
<totfact> 0.12000165E+03</totfact>
</mgrwt>
</event>
<event>
 4    1  0.1300812E-003  0.1814053E+03  0.7818608E-02  0.1166450E+00
         -2   -1    0    0    0  501 -0.00000000000E+00  0.00000000000E+00  0.60599031493E+01  0.60599036858E+01  0.25500000000E-02 0. -1.
          2   -1    0    0  501    0  0.00000000000E+00 -0.00000000000E+00 -0.13576078548E+04  0.13576078548E+04  0.25500000000E-02 0.  1.
    5000001    1    1    2    0    0  0.43228301410E+02  0.14975627614E+02 -0.78340897443E+03  0.78851225525E+03  0.77000000000E+02 0.  0.
   -5000001    1    1    2    0    0 -0.43228301410E+02 -0.14975627614E+02 -0.56813897721E+03  0.57515550323E+03  0.77000000000E+02 0.  0.
<mgrwt>
<rscale>  0 0.18140532E+03</rscale>
<asrwt>0</asrwt>
<pdfrwt beam="1">  1        2 0.19394379E+00 0.18140532E+03</pdfrwt>
<pdfrwt beam="2">  1       -2 0.86570136E-03 0.18140532E+03</pdfrwt>
<totfact> 0.47063506E+04</totfact>
</mgrwt>
</event>
<event>
 4    1  0.1300812E-003  0.2905956E+03  0.7818608E-02  0.1090039E+00
          2   -1    0    0  501    0  0.00000000000E+00  0.00000000000E+00  0.22680759788E+03  0.22680759789E+03  0.25500000000E-02 0.  1.
         -2   -1    0    0    0  501 -0.00000000000E+00 -0.00000000000E+00 -0.93080867625E+02  0.93080867660E+02  0.25500000000E-02 0. -1.
    5000001    1    1    2    0    0  0.10857251633E+03 -0.36832079019E+02  0.17170255180E+02  0.13917043870E+03  0.77000000000E+02 0.  0.
   -5000001    1    1    2    0    0 -0.10857251633E+03  0.36832079019E+02  0.11655647507E+03  0.18071802685E+03  0.77000000000E+02 0.  0.
<mgrwt>
<rscale>  0 0.29059558E+03</rscale>
<asrwt>0</asrwt>
<pdfrwt beam="1">  1        2 0.32401085E-01 0.29059558E+03</pdfrwt>
<pdfrwt beam="2">  1       -2 0.13297267E-01 0.29059558E+03</pdfrwt>
<totfact> 0.66962823E+03</totfact>
</mgrwt>
</event>
<event>
 4    1  0.1300812E-003  0.2449950E+03  0.7818608E-02  0.1116509E+00
         -2   -1    0    0    0  501 -0.00000000000E+00  0.00000000000E+00  0.67820063315E+01  0.67820068109E+01  0.25500000000E-02 0. -1.
          2   -1    0    0  501    0  0.00000000000E+00 -0.00000000000E+00 -0.22125666468E+04  0.22125666468E+04  0.25500000000E-02 0.  1.
    5000001    1    1    2    0    0  0.15802352353E+02  0.88757088765E+02 -0.13819703861E+04  0.13870467487E+04  0.77000000000E+02 0.  0.
   -5000001    1    1    2    0    0 -0.15802352353E+02 -0.88757088765E+02 -0.82381425440E+03  0.83230190490E+03  0.77000000000E+02 0.  0.
<mgrwt>
<rscale>  0 0.24499503E+03</rscale>
<asrwt>0</asrwt>
<pdfrwt beam="1">  1        2 0.31608049E+00 0.24499503E+03</pdfrwt>
<pdfrwt beam="2">  1       -2 0.96885950E-03 0.24499503E+03</pdfrwt>
<totfact> 0.15477255E+04</totfact>
</mgrwt>
</event>
<event>
 4    1  0.1300812E-003  0.4076264E+03  0.7818608E-02  0.1041170E+00
         -2   -1    0    0    0  501 -0.00000000000E+00  0.00000000000E+00  0.34962927754E+03  0.34962927755E+03  0.25500000000E-02 0. -1.
          2   -1    0    0  501    0  0.00000000000E+00 -0.00000000000E+00 -0.11881105991E+03  0.11881105993E+03  0.25500000000E-02 0.  1.
    5000001    1    1    2    0    0  0.15774665418E+03  0.22890451368E+02 -0.66961118739E+00  0.17702380645E+03  0.77000000000E+02 0.  0.
   -5000001    1    1    2    0    0 -0.15774665418E+03 -0.22890451368E+02  0.23148782882E+03  0.29141653104E+03  0.77000000000E+02 0.  0.
<mgrwt>
<rscale>  0 0.40762642E+03</rscale>
<asrwt>0</asrwt>
<pdfrwt beam="1">  1        2 0.16973008E-01 0.40762642E+03</pdfrwt>
<pdfrwt beam="2">  1       -2 0.49947040E-01 0.40762642E+03</pdfrwt>
<totfact> 0.13055386E+03</totfact>
</mgrwt>
</event>
<event>
 4    1  0.1300812E-003  0.2967767E+03  0.7818608E-02  0.1086863E+00
          2   -1    0    0  501    0  0.00000000000E+00  0.00000000000E+00  0.39965363912E+04  0.39965363912E+04  0.25500000000E-02 0.  1.
         -2   -1    0    0    0  501 -0.00000000000E+00 -0.00000000000E+00 -0.55095458270E+01  0.55095464171E+01  0.25500000000E-02 0. -1.
    5000001    1    1    2    0    0 -0.22347071999E+02 -0.12230193024E+03  0.16562506343E+04  0.16626942946E+04  0.77000000000E+02 0.  0.
   -5000001    1    1    2    0    0  0.22347071999E+02  0.12230193024E+03  0.23347762111E+04  0.23393516431E+04  0.77000000000E+02 0.  0.
<mgrwt>
<rscale>  0 0.29677669E+03</rscale>
<asrwt>0</asrwt>
<pdfrwt beam="1">  1        2 0.57093270E+00 0.29677669E+03</pdfrwt>
<pdfrwt beam="2">  1       -2 0.78707949E-03 0.29677669E+03</pdfrwt>
<totfact> 0.21903874E+03</totfact>
</mgrwt>
</event>
<event>
 4    1  0.1300812E-003  0.2200628E+03  0.7818608E-02  0.1133836E+00
         -2   -1    0    0    0  501 -0.00000000000E+00  0.00000000000E+00  0.16452440178E+02  0.16452440375E+02  0.25500000000E-02 0. -1.
          2   -1    0    0  501    0  0.00000000000E+00 -0.00000000000E+00 -0.73587295194E+03  0.73587295194E+03  0.25500000000E-02 0.  1.
    5000001    1    1    2    0    0 -0.69465750922E+02  0.22608123734E+02 -0.26055140469E+03  0.28134081165E+03  0.77000000000E+02 0.  0.
   -5000001    1    1    2    0    0  0.69465750922E+02 -0.22608123734E+02 -0.45886910706E+03  0.47098458067E+03  0.77000000000E+02 0.  0.
<mgrwt>
<rscale>  0 0.22006277E+03</rscale>
<asrwt>0</asrwt>
<pdfrwt beam="1">  1        2 0.10512469E+00 0.22006277E+03</pdfrwt>
<pdfrwt beam="2">  1       -2 0.23503491E-02 0.22006277E+03</pdfrwt>
<totfact> 0.25777536E+04</totfact>
</mgrwt>
</event>
<event>
 4    1  0.1300812E-003  0.3342869E+03  0.7818608E-02  0.1069256E+00
          2   -1    0    0  501    0  0.00000000000E+00  0.00000000000E+00  0.38368413160E+03  0.38368413161E+03  0.25500000000E-02 0.  1.
         -2   -1    0    0    0  501 -0.00000000000E+00 -0.00000000000E+00 -0.72812330741E+02  0.72812330786E+02  0.25500000000E-02 0. -1.
    5000001    1    1    2    0    0 -0.90938439348E+02  0.93723721789E+02  0.59319822339E+02  0.16279366419E+03  0.77000000000E+02 0.  0.
   -5000001    1    1    2    0    0  0.90938439348E+02 -0.93723721789E+02  0.25155197852E+03  0.29370279820E+03  0.77000000000E+02 0.  0.
<mgrwt>
<rscale>  0 0.33428692E+03</rscale>
<asrwt>0</asrwt>
<pdfrwt beam="1">  1        2 0.54812020E-01 0.33428692E+03</pdfrwt>
<pdfrwt beam="2">  1       -2 0.10401761E-01 0.33428692E+03</pdfrwt>
<totfact> 0.56587965E+03</totfact>
</mgrwt>
</event>
<event>
 4    1  0.1300812E-003  0.2597123E+03  0.7818608E-02  0.1107316E+00
          2   -1    0    0  501    0  0.00000000000E+00  0.00000000000E+00  0.23420685304E+04  0.23420685304E+04  0.25500000000E-02 0.  1.
         -2   -1    0    0    0  501 -0.00000000000E+00 -0.00000000000E+00 -0.71998853135E+01  0.71998857650E+01  0.25500000000E-02 0. -1.
    5000001    1    1    2    0    0  0.93523506163E+02  0.45857259987E+02  0.10844846995E+04  0.10921930223E+04  0.77000000000E+02 0.  0.
   -5000001    1    1    2    0    0 -0.93523506163E+02 -0.45857259987E+02  0.12503839456E+04  0.12570753938E+04  0.77000000000E+02 0.  0.
<mgrwt>
<rscale>  0 0.25971234E+03</rscale>
<asrwt>0</asrwt>
<pdfrwt beam="1">  1        2 0.33458153E+00 0.25971234E+03</pdfrwt>
<pdfrwt beam="2">  1       -2 0.10285541E-02 0.25971234E+03</pdfrwt>
<totfact> 0.12278343E+04</totfact>
</mgrwt>
</event>
<event>
 4    1  0.1300812E-003  0.1992548E+03  0.7818608E-02  0.1150369E+00
          2   -1    0    0  501    0  0.00000000000E+00  0.00000000000E+00  0.23364669726E+03  0.23364669727E+03  0.25500000000E-02 0.  1.
         -2   -1    0    0    0  501 -0.00000000000E+00 -0.00000000000E+00 -0.42481334223E+02  0.42481334300E+02  0.25500000000E-02 0. -1.
    5000001    1    1    2    0    0 -0.61043116389E+02 -0.80329742351E+01  0.11546462364E+03  0.15182842305E+03  0.77000000000E+02 0.  0.
   -5000001    1    1    2    0    0  0.61043116389E+02  0.80329742351E+01  0.75700739393E+02  0.12429960852E+03  0.77000000000E+02 0.  0.
<mgrwt>
<rscale>  0 0.19925485E+03</rscale>
<asrwt>0</asrwt>
<pdfrwt beam="1">  1        2 0.33378099E-01 0.19925485E+03</pdfrwt>
<pdfrwt beam="2">  1       -2 0.60687621E-02 0.19925485E+03</pdfrwt>
<totfact> 0.21837453E+04</totfact>
</mgrwt>
</event>
<event>
 4    1  0.1300812E-003  0.2442597E+03  0.7818608E-02  0.1116987E+00
          2   -1    0    0  501    0  0.00000000000E+00  0.00000000000E+00  0.17162098092E+04  0.17162098092E+04  0.25500000000E-02 0.  1.
         -2   -1    0    0    0  501 -0.00000000000E+00 -0.00000000000E+00 -0.86910721006E+01  0.86910724747E+01  0.25500000000E-02 0. -1.
    5000001    1    1    2    0    0 -0.47909184045E+02 -0.40286719521E+02  0.13565040144E+04  0.13601288361E+04  0.77000000000E+02 0.  0.
   -5000001    1    1    2    0    0  0.47909184045E+02  0.40286719521E+02  0.35101472260E+03  0.36477204549E+03  0.77000000000E+02 0.  0.
<mgrwt>
<rscale>  0 0.24425973E+03</rscale>
<asrwt>0</asrwt>
<pdfrwt beam="1">  1        2 0.24517328E+00 0.24425973E+03</pdfrwt>
<pdfrwt beam="2">  1       -2 0.12415795E-02 0.24425973E+03</pdfrwt>
<totfact> 0.18833452E+04</totfact>
</mgrwt>
</event>
<event>
 4    1  0.1300812E-003  0.3900305E+03  0.7818608E-02  0.1047287E+00
          2   -1    0    0  501    0  0.00000000000E+00  0.00000000000E+00  0.23878052755E+03  0.23878052756E+03  0.25500000000E-02 0.  1.
         -2   -1    0    0    0  501 -0.00000000000E+00 -0.00000000000E+00 -0.15927153439E+03  0.15927153441E+03  0.25500000000E-02 0. -1.
    5000001    1    1    2    0    0 -0.51289756931E+02 -0.95494062433E+02  0.18534963608E+03  0.22810796287E+03  0.77000000000E+02 0.  0.
   -5000001    1    1    2    0    0  0.51289756931E+02  0.95494062433E+02 -0.10584064293E+03  0.16994409911E+03  0.77000000000E+02 0.  0.
<mgrwt>
<rscale>  0 0.39003047E+03</rscale>
<asrwt>0</asrwt>
<pdfrwt beam="1">  1        2 0.34111504E-01 0.39003047E+03</pdfrwt>
<pdfrwt beam="2">  1       -2 0.22753076E-01 0.39003047E+03</pdfrwt>
<totfact> 0.25724899E+03</totfact>
</mgrwt>
</event>
<event>
 4    1  0.1300812E-003  0.2973090E+03  0.7818608E-02  0.1086594E+00
         -2   -1    0    0    0  501 -0.00000000000E+00  0.00000000000E+00  0.10790285915E+03  0.10790285918E+03  0.25500000000E-02 0. -1.
          2   -1    0    0  501    0  0.00000000000E+00 -0.00000000000E+00 -0.20479674941E+03  0.20479674942E+03  0.25500000000E-02 0.  1.
    5000001    1    1    2    0    0 -0.11995193202E+03  0.19130678073E+02 -0.88872960945E+01  0.14409175157E+03  0.77000000000E+02 0.  0.
   -5000001    1    1    2    0    0  0.11995193202E+03 -0.19130678073E+02 -0.88006594163E+02  0.16860785704E+03  0.77000000000E+02 0.  0.
<mgrwt>
<rscale>  0 0.29730896E+03</rscale>
<asrwt>0</asrwt>
<pdfrwt beam="1">  1        2 0.29256679E-01 0.29730896E+03</pdfrwt>
<pdfrwt beam="2">  1       -2 0.15414694E-01 0.29730896E+03</pdfrwt>
<totfact> 0.58771730E+03</totfact>
</mgrwt>
</event>
<event>
 4    1  0.1300812E-003  0.2248768E+03  0.7818608E-02  0.1130299E+00
         -2   -1    0    0    0  501 -0.00000000000E+00  0.00000000000E+00  0.22721704907E+03  0.22721704909E+03  0.25500000000E-02 0. -1.
          2   -1    0    0  501    0  0.00000000000E+00 -0.00000000000E+00 -0.55640139730E+02  0.55640139789E+02  0.25500000000E-02 0.  1.
    5000001    1    1    2    0    0  0.57715102529E+02  0.44528712983E+02  0.13284464029E+03  0.16997216770E+03  0.77000000000E+02 0.  0.
   -5000001    1    1    2    0    0 -0.57715102529E+02 -0.44528712983E+02  0.38732269057E+02  0.11288502118E+03  0.77000000000E+02 0.  0.
<mgrwt>
<rscale>  0 0.22487675E+03</rscale>
<asrwt>0</asrwt>
<pdfrwt beam="1">  1        2 0.79485917E-02 0.22487675E+03</pdfrwt>
<pdfrwt beam="2">  1       -2 0.32459577E-01 0.22487675E+03</pdfrwt>
<totfact> 0.74279018E+03</totfact>
</mgrwt>
</event>
<event>
 4    1  0.1300812E-003  0.3354212E+03  0.7818608E-02  0.1068763E+00
          2   -1    0    0  501    0  0.00000000000E+00  0.00000000000E+00  0.18804910079E+04  0.18804910079E+04  0.25500000000E-02 0.  1.
         -2   -1    0    0    0  501 -0.00000000000E+00 -0.00000000000E+00 -0.14957185138E+02  0.14957185355E+02  0.25500000000E-02 0. -1.
    5000001    1    1    2    0    0 -0.84284915326E+01  0.14865453108E+03  0.96301045959E+03  0.97749033466E+03  0.77000000000E+02 0.  0.
   -5000001    1    1    2    0    0  0.84284915326E+01 -0.14865453108E+03  0.90252336318E+03  0.91795785860E+03  0.77000000000E+02 0.  0.
<mgrwt>
<rscale>  0 0.33542124E+03</rscale>
<asrwt>0</asrwt>
<pdfrwt beam="1">  1        2 0.26864160E+00 0.33542124E+03</pdfrwt>
<pdfrwt beam="2">  1       -2 0.21367405E-02 0.33542124E+03</pdfrwt>
<totfact> 0.70997478E+03</totfact>
</mgrwt>
</event>
<event>
 4    1  0.1300812E-003  0.2238129E+03  0.7818608E-02  0.1131072E+00
         -2   -1    0    0    0  501 -0.00000000000E+00  0.00000000000E+00  0.14975355949E+02  0.14975356166E+02  0.25500000000E-02 0. -1.
          2   -1    0    0  501    0  0.00000000000E+00 -0.00000000000E+00 -0.83624406648E+03  0.83624406648E+03  0.25500000000E-02 0.  1.
    5000001    1    1    2    0    0  0.55752037605E+02  0.45310248995E+02 -0.26667470974E+03  0.28671538008E+03  0.77000000000E+02 0.  0.
   -5000001    1    1    2    0    0 -0.55752037605E+02 -0.45310248995E+02 -0.55459400080E+03  0.56450404257E+03  0.77000000000E+02 0.  0.
<mgrwt>
<rscale>  0 0.22381289E+03</rscale>
<asrwt>0</asrwt>
<pdfrwt beam="1">  1        2 0.11946341E+00 0.22381289E+03</pdfrwt>
<pdfrwt beam="2">  1       -2 0.21393371E-02 0.22381289E+03</pdfrwt>
<totfact> 0.25343016E+04</totfact>
</mgrwt>
</event>
<event>
 4    1  0.1300812E-003  0.3962744E+03  0.7818608E-02  0.1045077E+00
         -2   -1    0    0    0  501 -0.00000000000E+00  0.00000000000E+00  0.72596869277E+02  0.72596869322E+02  0.25500000000E-02 0. -1.
          2   -1    0    0  501    0  0.00000000000E+00 -0.00000000000E+00 -0.54077183918E+03  0.54077183919E+03  0.25500000000E-02 0.  1.
    5000001    1    1    2    0    0 -0.14592294043E+03  0.28594773005E+02 -0.39802818440E+03  0.43181778700E+03  0.77000000000E+02 0.  0.
   -5000001    1    1    2    0    0  0.14592294043E+03 -0.28594773005E+02 -0.70146785504E+02  0.18155092152E+03  0.77000000000E+02 0.  0.
<mgrwt>
<rscale>  0 0.39627436E+03</rscale>
<asrwt>0</asrwt>
<pdfrwt beam="1">  1        2 0.77253118E-01 0.39627436E+03</pdfrwt>
<pdfrwt beam="2">  1       -2 0.10370982E-01 0.39627436E+03</pdfrwt>
<totfact> 0.39041001E+03</totfact>
</mgrwt>
</event>
<event>
 4    1  0.1300812E-003  0.3017033E+03  0.7818608E-02  0.1084392E+00
         -2   -1    0    0    0  501 -0.00000000000E+00  0.00000000000E+00  0.10717959551E+03  0.10717959554E+03  0.25500000000E-02 0. -1.
          2   -1    0    0  501    0  0.00000000000E+00 -0.00000000000E+00 -0.21231856388E+03  0.21231856390E+03  0.25500000000E-02 0.  1.
    5000001    1    1    2    0    0  0.93013143535E+02  0.88308361034E+02 -0.31996708101E+02  0.15297908624E+03  0.77000000000E+02 0.  0.
   -5000001    1    1    2    0    0 -0.93013143535E+02 -0.88308361034E+02 -0.73142260276E+02  0.16651907319E+03  0.77000000000E+02 0.  0.
<mgrwt>
<rscale>  0 0.30170328E+03</rscale>
<asrwt>0</asrwt>
<pdfrwt beam="1">  1        2 0.30331223E-01 0.30170328E+03</pdfrwt>
<pdfrwt beam="2">  1       -2 0.15311371E-01 0.30170328E+03</pdfrwt>
<totfact> 0.57145267E+03</totfact>
</mgrwt>
</event>
<event>
 4    1  0.1300812E-003  0.2768128E+03  0.7818608E-02  0.1097443E+00
          2   -1    0    0  501    0  0.00000000000E+00  0.00000000000E+00  0.52178353629E+02  0.52178353691E+02  0.25500000000E-02 0. -1.
         -2   -1    0    0    0  501 -0.00000000000E+00 -0.00000000000E+00 -0.36713179070E+03  0.36713179071E+03  0.25500000000E-02 0.  1.
    5000001    1    1    2    0    0  0.10079501891E+03 -0.48143956998E+02 -0.19895665883E+03  0.24081160380E+03  0.77000000000E+02 0.  0.
   -5000001    1    1    2    0    0 -0.10079501891E+03  0.48143956998E+02 -0.11599677824E+03  0.17849854060E+03  0.77000000000E+02 0.  0.
<mgrwt>
<rscale>  0 0.27681281E+03</rscale>
<asrwt>0</asrwt>
<pdfrwt beam="1">  1        2 0.74540507E-02 0.27681281E+03</pdfrwt>
<pdfrwt beam="2">  1       -2 0.52447398E-01 0.27681281E+03</pdfrwt>
<totfact> 0.32370244E+03</totfact>
</mgrwt>
</event>
<event>
 4    1  0.1300812E-003  0.3345416E+03  0.7818608E-02  0.1069145E+00
          2   -1    0    0  501    0  0.00000000000E+00  0.00000000000E+00  0.35414302563E+04  0.35414302563E+04  0.25500000000E-02 0.  1.
         -2   -1    0    0    0  501 -0.00000000000E+00 -0.00000000000E+00 -0.79006279953E+01  0.79006284068E+01  0.25500000000E-02 0. -1.
    5000001    1    1    2    0    0  0.11631787594E+03 -0.83053515127E+02  0.21941577870E+04  0.22001557056E+04  0.77000000000E+02 0.  0.
   -5000001    1    1    2    0    0 -0.11631787594E+03  0.83053515127E+02  0.13393718413E+04  0.13491751791E+04  0.77000000000E+02 0.  0.
<mgrwt>
<rscale>  0 0.33454162E+03</rscale>
<asrwt>0</asrwt>
<pdfrwt beam="1">  1        2 0.50591896E+00 0.33454162E+03</pdfrwt>
<pdfrwt beam="2">  1       -2 0.11286604E-02 0.33454162E+03</pdfrwt>
<totfact> 0.24653460E+03</totfact>
</mgrwt>
</event>
<event>
 4    1  0.1300812E-003  0.3856444E+03  0.7818608E-02  0.1048867E+00
          2   -1    0    0  501    0  0.00000000000E+00  0.00000000000E+00  0.10686134212E+04  0.10686134212E+04  0.25500000000E-02 0.  1.
         -2   -1    0    0    0  501 -0.00000000000E+00 -0.00000000000E+00 -0.34793120293E+02  0.34793120386E+02  0.25500000000E-02 0. -1.
    5000001    1    1    2    0    0  0.11385286653E+03  0.96779678022E+02  0.78717814020E+03  0.80492683251E+03  0.77000000000E+02 0.  0.
   -5000001    1    1    2    0    0 -0.11385286653E+03 -0.96779678022E+02  0.24664216074E+03  0.29847970911E+03  0.77000000000E+02 0.  0.
<mgrwt>
<rscale>  0 0.38564437E+03</rscale>
<asrwt>0</asrwt>
<pdfrwt beam="1">  1        2 0.15265908E+00 0.38564437E+03</pdfrwt>
<pdfrwt beam="2">  1       -2 0.49704453E-02 0.38564437E+03</pdfrwt>
<totfact> 0.52759954E+03</totfact>
</mgrwt>
</event>
<event>
 4    1  0.1300812E-003  0.2203978E+03  0.7818608E-02  0.1133587E+00
          2   -1    0    0  501    0  0.00000000000E+00  0.00000000000E+00  0.17063419169E+04  0.17063419169E+04  0.25500000000E-02 0.  1.
         -2   -1    0    0    0  501 -0.00000000000E+00 -0.00000000000E+00 -0.71168578246E+01  0.71168582814E+01  0.25500000000E-02 0. -1.
    5000001    1    1    2    0    0 -0.70867685195E+02  0.47567717760E+01  0.11155305809E+04  0.11204384555E+04  0.77000000000E+02 0.  0.
   -5000001    1    1    2    0    0  0.70867685195E+02 -0.47567717760E+01  0.58369447819E+03  0.59302031968E+03  0.77000000000E+02 0.  0.
<mgrwt>
<rscale>  0 0.22039776E+03</rscale>
<asrwt>0</asrwt>
<pdfrwt beam="1">  1        2 0.24376324E+00 0.22039776E+03</pdfrwt>
<pdfrwt beam="2">  1       -2 0.10166936E-02 0.22039776E+03</pdfrwt>
<totfact> 0.25332261E+04</totfact>
</mgrwt>
</event>
<event>
 4    1  0.1300812E-003  0.2993440E+03  0.7818608E-02  0.1085569E+00
         -2   -1    0    0    0  501 -0.00000000000E+00  0.00000000000E+00  0.14928361428E+03  0.14928361430E+03  0.25500000000E-02 0. -1.
          2   -1    0    0  501    0  0.00000000000E+00 -0.00000000000E+00 -0.15006137193E+03  0.15006137195E+03  0.25500000000E-02 0.  1.
    5000001    1    1    2    0    0  0.50568412882E+01  0.85899130910E+02 -0.95617723481E+02  0.14991991655E+03  0.77000000000E+02 0.  0.
   -5000001    1    1    2    0    0 -0.50568412882E+01 -0.85899130910E+02  0.94839965831E+02  0.14942506970E+03  0.77000000000E+02 0.  0.
<mgrwt>
<rscale>  0 0.29934398E+03</rscale>
<asrwt>0</asrwt>
<pdfrwt beam="1">  1        2 0.21437339E-01 0.29934398E+03</pdfrwt>
<pdfrwt beam="2">  1       -2 0.21326231E-01 0.29934398E+03</pdfrwt>
<totfact> 0.48072170E+03</totfact>
</mgrwt>
</event>
<event>
 4    1  0.1300812E-003  0.6434977E+03  0.7818608E-02  0.9819057E-01
         -2   -1    0    0    0  501 -0.00000000000E+00  0.00000000000E+00  0.10251618770E+03  0.10251618773E+03  0.25500000000E-02 0. -1.
          2   -1    0    0  501    0  0.00000000000E+00 -0.00000000000E+00 -0.10098143398E+04  0.10098143398E+04  0.25500000000E-02 0.  1.
    5000001    1    1    2    0    0 -0.93502635109E+02  0.11845278673E+03  0.19169251843E+02  0.17050004596E+03  0.77000000000E+02 0.  0.
   -5000001    1    1    2    0    0  0.93502635109E+02 -0.11845278673E+03 -0.92646740398E+03  0.94183048161E+03  0.77000000000E+02 0.  0.
<mgrwt>
<rscale>  0 0.64349768E+03</rscale>
<asrwt>0</asrwt>
<pdfrwt beam="1">  1        2 0.14425919E+00 0.64349768E+03</pdfrwt>
<pdfrwt beam="2">  1       -2 0.14645170E-01 0.64349768E+03</pdfrwt>
<totfact> 0.10152802E+03</totfact>
</mgrwt>
</event>
<event>
 4    1  0.1300812E-003  0.3390292E+03  0.7818608E-02  0.1067210E+00
          2   -1    0    0  501    0  0.00000000000E+00  0.00000000000E+00  0.46886113360E+03  0.46886113360E+03  0.25500000000E-02 0.  1.
         -2   -1    0    0    0  501 -0.00000000000E+00 -0.00000000000E+00 -0.61287234856E+02  0.61287234909E+02  0.25500000000E-02 0. -1.
    5000001    1    1    2    0    0  0.17188203142E+02 -0.95295624984E+02  0.22573503721E+02  0.12575871158E+03  0.77000000000E+02 0.  0.
   -5000001    1    1    2    0    0 -0.17188203142E+02  0.95295624984E+02  0.38500039502E+03  0.40438965693E+03  0.77000000000E+02 0.  0.
<mgrwt>
<rscale>  0 0.33902922E+03</rscale>
<asrwt>0</asrwt>
<pdfrwt beam="1">  1        2 0.66980166E-01 0.33902922E+03</pdfrwt>
<pdfrwt beam="2">  1       -2 0.87553188E-02 0.33902922E+03</pdfrwt>
<totfact> 0.59799014E+03</totfact>
</mgrwt>
</event>
<event>
 4    1  0.1300812E-003  0.3311905E+03  0.7818608E-02  0.1070611E+00
         -2   -1    0    0    0  501 -0.00000000000E+00  0.00000000000E+00  0.22586375612E+02  0.22586375756E+02  0.25500000000E-02 0. -1.
          2   -1    0    0  501    0  0.00000000000E+00 -0.00000000000E+00 -0.12140853990E+04  0.12140853990E+04  0.25500000000E-02 0.  1.
    5000001    1    1    2    0    0 -0.10281962932E+03  0.89435864246E+02 -0.39390033013E+03  0.42385978821E+03  0.77000000000E+02 0.  0.
   -5000001    1    1    2    0    0  0.10281962932E+03 -0.89435864246E+02 -0.79759869322E+03  0.81281198651E+03  0.77000000000E+02 0.  0.
<mgrwt>
<rscale>  0 0.33119051E+03</rscale>
<asrwt>0</asrwt>
<pdfrwt beam="1">  1        2 0.17344073E+00 0.33119051E+03</pdfrwt>
<pdfrwt beam="2">  1       -2 0.32266258E-02 0.33119051E+03</pdfrwt>
<totfact> 0.83952575E+03</totfact>
</mgrwt>
</event>
<event>
 4    1  0.1300812E-003  0.2178929E+03  0.7818608E-02  0.1135464E+00
         -2   -1    0    0    0  501 -0.00000000000E+00  0.00000000000E+00  0.10045467129E+02  0.10045467453E+02  0.25500000000E-02 0. -1.
          2   -1    0    0  501    0  0.00000000000E+00 -0.00000000000E+00 -0.11815609002E+04  0.11815609002E+04  0.25500000000E-02 0.  1.
    5000001    1    1    2    0    0  0.75980547923E+02  0.75155725175E+01 -0.52819156625E+03  0.53920762064E+03  0.77000000000E+02 0.  0.
   -5000001    1    1    2    0    0 -0.75980547923E+02 -0.75155725175E+01 -0.64332386681E+03  0.65239874701E+03  0.77000000000E+02 0.  0.
<mgrwt>
<rscale>  0 0.21789292E+03</rscale>
<asrwt>0</asrwt>
<pdfrwt beam="1">  1        2 0.16879433E+00 0.21789292E+03</pdfrwt>
<pdfrwt beam="2">  1       -2 0.14350675E-02 0.21789292E+03</pdfrwt>
<totfact> 0.28415627E+04</totfact>
</mgrwt>
</event>
<event>
 4    1  0.1300812E-003  0.1930489E+03  0.7818608E-02  0.1155740E+00
          2   -1    0    0  501    0  0.00000000000E+00  0.00000000000E+00  0.40303221877E+02  0.40303221958E+02  0.25500000000E-02 0.  1.
         -2   -1    0    0    0  501 -0.00000000000E+00 -0.00000000000E+00 -0.23117192285E+03  0.23117192286E+03  0.25500000000E-02 0. -1.
    5000001    1    1    2    0    0  0.22625210650E+02  0.46910183233E+02 -0.13198354889E+03  0.16143457692E+03  0.77000000000E+02 0.  0.
   -5000001    1    1    2    0    0 -0.22625210650E+02 -0.46910183233E+02 -0.58885152077E+02  0.11004056790E+03  0.77000000000E+02 0.  0.
<mgrwt>
<rscale>  0 0.19304894E+03</rscale>
<asrwt>0</asrwt>
<pdfrwt beam="1">  1        2 0.57576032E-02 0.19304894E+03</pdfrwt>
<pdfrwt beam="2">  1       -2 0.33024560E-01 0.19304894E+03</pdfrwt>
<totfact> 0.10783468E+04</totfact>
</mgrwt>
</event>
<event>
 4    1  0.1300812E-003  0.2491964E+03  0.7818608E-02  0.1113814E+00
          2   -1    0    0  501    0  0.00000000000E+00  0.00000000000E+00  0.32549532212E+04  0.32549532212E+04  0.25500000000E-02 0.  1.
         -2   -1    0    0    0  501 -0.00000000000E+00 -0.00000000000E+00 -0.47695648732E+01  0.47695655549E+01  0.25500000000E-02 0. -1.
    5000001    1    1    2    0    0 -0.20041612269E+02 -0.90202966314E+02  0.11997158194E+04  0.12057301890E+04  0.77000000000E+02 0.  0.
   -5000001    1    1    2    0    0  0.20041612269E+02  0.90202966314E+02  0.20504678369E+04  0.20539925978E+04  0.77000000000E+02 0.  0.
<mgrwt>
<rscale>  0 0.24919640E+03</rscale>
<asrwt>0</asrwt>
<pdfrwt beam="1">  1        2 0.46499214E+00 0.24919640E+03</pdfrwt>
<pdfrwt beam="2">  1       -2 0.68136819E-03 0.24919640E+03</pdfrwt>
<totfact> 0.75178991E+03</totfact>
</mgrwt>
</event>
<event>
 4    1  0.1300812E-003  0.1976791E+03  0.7818608E-02  0.1151712E+00
          2   -1    0    0  501    0  0.00000000000E+00  0.00000000000E+00  0.25606214880E+03  0.25606214881E+03  0.25500000000E-02 0.  1.
         -2   -1    0    0    0  501 -0.00000000000E+00 -0.00000000000E+00 -0.38151880441E+02  0.38151880527E+02  0.25500000000E-02 0. -1.
    5000001    1    1    2    0    0  0.33526573809E+02  0.31835263286E+02  0.47539838443E+02  0.10161964071E+03  0.77000000000E+02 0.  0.
   -5000001    1    1    2    0    0 -0.33526573809E+02 -0.31835263286E+02  0.17037042991E+03  0.19259438862E+03  0.77000000000E+02 0.  0.
<mgrwt>
<rscale>  0 0.19767906E+03</rscale>
<asrwt>0</asrwt>
<pdfrwt beam="1">  1        2 0.36580307E-01 0.19767906E+03</pdfrwt>
<pdfrwt beam="2">  1       -2 0.54502686E-02 0.19767906E+03</pdfrwt>
<totfact> 0.23283983E+04</totfact>
</mgrwt>
</event>
<event>
 4    1  0.1300812E-003  0.1665467E+03  0.7818608E-02  0.1181498E+00
          2   -1    0    0  501    0  0.00000000000E+00  0.00000000000E+00  0.35741463876E+03  0.35741463877E+03  0.25500000000E-02 0.  1.
         -2   -1    0    0    0  501 -0.00000000000E+00 -0.00000000000E+00 -0.19401702701E+02  0.19401702869E+02  0.25500000000E-02 0. -1.
    5000001    1    1    2    0    0 -0.27456367142E+02  0.15765533127E+02  0.16505613053E+03  0.18486462711E+03  0.77000000000E+02 0.  0.
   -5000001    1    1    2    0    0  0.27456367142E+02 -0.15765533127E+02  0.17295680553E+03  0.19195171453E+03  0.77000000000E+02 0.  0.
<mgrwt>
<rscale>  0 0.16654672E+03</rscale>
<asrwt>0</asrwt>
<pdfrwt beam="1">  1        2 0.51059234E-01 0.16654672E+03</pdfrwt>
<pdfrwt beam="2">  1       -2 0.27716718E-02 0.16654672E+03</pdfrwt>
<totfact> 0.44060630E+04</totfact>
</mgrwt>
</event>
<event>
 4    1  0.1300812E-003  0.2367946E+03  0.7818608E-02  0.1121947E+00
         -2   -1    0    0    0  501 -0.00000000000E+00  0.00000000000E+00  0.17913902151E+02  0.17913902332E+02  0.25500000000E-02 0. -1.
          2   -1    0    0  501    0  0.00000000000E+00 -0.00000000000E+00 -0.78251633260E+03  0.78251633261E+03  0.25500000000E-02 0.  1.
    5000001    1    1    2    0    0 -0.17565441613E+01 -0.70882040738E+02 -0.19526576972E+03  0.22155150636E+03  0.77000000000E+02 0.  0.
   -5000001    1    1    2    0    0  0.17565441613E+01  0.70882040738E+02 -0.56933666073E+03  0.57887872857E+03  0.77000000000E+02 0.  0.
<mgrwt>
<rscale>  0 0.23679460E+03</rscale>
<asrwt>0</asrwt>
<pdfrwt beam="1">  1        2 0.11178803E+00 0.23679460E+03</pdfrwt>
<pdfrwt beam="2">  1       -2 0.25591294E-02 0.23679460E+03</pdfrwt>
<totfact> 0.21204957E+04</totfact>
</mgrwt>
</event>
<event>
 4    1  0.1300812E-003  0.2491495E+03  0.7818608E-02  0.1113843E+00
          2   -1    0    0  501    0  0.00000000000E+00  0.00000000000E+00  0.79529308515E+03  0.79529308516E+03  0.25500000000E-02 0.  1.
         -2   -1    0    0    0  501 -0.00000000000E+00 -0.00000000000E+00 -0.19513400000E+02  0.19513400167E+02  0.25500000000E-02 0. -1.
    5000001    1    1    2    0    0  0.81146054585E+02  0.52875250864E+02  0.34056594663E+03  0.36234602017E+03  0.77000000000E+02 0.  0.
   -5000001    1    1    2    0    0 -0.81146054585E+02 -0.52875250864E+02  0.43521373852E+03  0.45246046515E+03  0.77000000000E+02 0.  0.
<mgrwt>
<rscale>  0 0.24914953E+03</rscale>
<asrwt>0</asrwt>
<pdfrwt beam="1">  1        2 0.11361329E+00 0.24914953E+03</pdfrwt>
<pdfrwt beam="2">  1       -2 0.27876289E-02 0.24914953E+03</pdfrwt>
<totfact> 0.18367008E+04</totfact>
</mgrwt>
</event>
<event>
 4    1  0.1300812E-003  0.1867551E+03  0.7818608E-02  0.1161421E+00
          2   -1    0    0  501    0  0.00000000000E+00  0.00000000000E+00  0.14551781948E+04  0.14551781948E+04  0.25500000000E-02 0.  1.
         -2   -1    0    0    0  501 -0.00000000000E+00 -0.00000000000E+00 -0.59919546996E+01  0.59919552422E+01  0.25500000000E-02 0. -1.
    5000001    1    1    2    0    0  0.19533543715E+02  0.39509759561E+02  0.95240191051E+03  0.95652547252E+03  0.77000000000E+02 0.  0.
   -5000001    1    1    2    0    0 -0.19533543715E+02 -0.39509759561E+02  0.49678432961E+03  0.50464467755E+03  0.77000000000E+02 0.  0.
<mgrwt>
<rscale>  0 0.18675505E+03</rscale>
<asrwt>0</asrwt>
<pdfrwt beam="1">  1        2 0.20788305E+00 0.18675505E+03</pdfrwt>
<pdfrwt beam="2">  1       -2 0.85599172E-03 0.18675505E+03</pdfrwt>
<totfact> 0.42779716E+04</totfact>
</mgrwt>
</event>
<event>
 4    1  0.1300812E-003  0.7966834E+03  0.7818608E-02  0.9564830E-01
         -2   -1    0    0    0  501 -0.00000000000E+00  0.00000000000E+00  0.70127887661E+02  0.70127887708E+02  0.25500000000E-02 0. -1.
          2   -1    0    0  501    0  0.00000000000E+00 -0.00000000000E+00 -0.22626675843E+04  0.22626675843E+04  0.25500000000E-02 0.  1.
    5000001    1    1    2    0    0 -0.82794990310E+02  0.38071770551E+03 -0.11863363351E+04  0.12510491124E+04  0.77000000000E+02 0.  0.
   -5000001    1    1    2    0    0  0.82794990310E+02 -0.38071770551E+03 -0.10062033615E+04  0.10817463595E+04  0.77000000000E+02 0.  0.
<mgrwt>
<rscale>  0 0.79668337E+03</rscale>
<asrwt>0</asrwt>
<pdfrwt beam="1">  1        2 0.32323818E+00 0.79668337E+03</pdfrwt>
<pdfrwt beam="2">  1       -2 0.10018271E-01 0.79668337E+03</pdfrwt>
<totfact> 0.41073128E+02</totfact>
</mgrwt>
</event>
<event>
 4    1  0.1300812E-003  0.3415265E+03  0.7818608E-02  0.1066148E+00
          2   -1    0    0  501    0  0.00000000000E+00  0.00000000000E+00  0.14839913497E+04  0.14839913497E+04  0.25500000000E-02 0.  1.
         -2   -1    0    0    0  501 -0.00000000000E+00 -0.00000000000E+00 -0.19649767882E+02  0.19649768047E+02  0.25500000000E-02 0. -1.
    5000001    1    1    2    0    0  0.96420994292E+02 -0.86715806954E+02  0.10847846591E+04  0.10952184238E+04  0.77000000000E+02 0.  0.
   -5000001    1    1    2    0    0 -0.96420994292E+02  0.86715806954E+02  0.37955692280E+03  0.40842269399E+03  0.77000000000E+02 0.  0.
<mgrwt>
<rscale>  0 0.34152649E+03</rscale>
<asrwt>0</asrwt>
<pdfrwt beam="1">  1        2 0.21199875E+00 0.34152649E+03</pdfrwt>
<pdfrwt beam="2">  1       -2 0.28071100E-02 0.34152649E+03</pdfrwt>
<totfact> 0.74631864E+03</totfact>
</mgrwt>
</event>
<event>
 4    1  0.1300812E-003  0.1961482E+03  0.7818608E-02  0.1153030E+00
          2   -1    0    0  501    0  0.00000000000E+00  0.00000000000E+00  0.13628350115E+04  0.13628350115E+04  0.25500000000E-02 0.  1.
         -2   -1    0    0    0  501 -0.00000000000E+00 -0.00000000000E+00 -0.70577319440E+01  0.70577324047E+01  0.25500000000E-02 0. -1.
    5000001    1    1    2    0    0 -0.48157130681E+02  0.48063169672E+01  0.42153655800E+03  0.43123575878E+03  0.77000000000E+02 0.  0.
   -5000001    1    1    2    0    0  0.48157130681E+02 -0.48063169672E+01  0.93424072154E+03  0.93865698511E+03  0.77000000000E+02 0.  0.
<mgrwt>
<rscale>  0 0.19614815E+03</rscale>
<asrwt>0</asrwt>
<pdfrwt beam="1">  1        2 0.19469073E+00 0.19614815E+03</pdfrwt>
<pdfrwt beam="2">  1       -2 0.10082474E-02 0.19614815E+03</pdfrwt>
<totfact> 0.37775621E+04</totfact>
</mgrwt>
</event>
<event>
 4    1  0.1300812E-003  0.1896686E+03  0.7818608E-02  0.1158761E+00
         -2   -1    0    0    0  501 -0.00000000000E+00  0.00000000000E+00  0.44972427540E+01  0.44972434769E+01  0.25500000000E-02 0. -1.
          2   -1    0    0  501    0  0.00000000000E+00 -0.00000000000E+00 -0.19997908495E+04  0.19997908495E+04  0.25500000000E-02 0.  1.
    5000001    1    1    2    0    0  0.39295752560E+02 -0.37254310032E+02 -0.11192884255E+04  0.11232397871E+04  0.77000000000E+02 0.  0.
   -5000001    1    1    2    0    0 -0.39295752560E+02  0.37254310032E+02 -0.87600518123E+03  0.88104830590E+03  0.77000000000E+02 0.  0.
<mgrwt>
<rscale>  0 0.18966861E+03</rscale>
<asrwt>0</asrwt>
<pdfrwt beam="1">  1        2 0.28568384E+00 0.18966861E+03</pdfrwt>
<pdfrwt beam="2">  1       -2 0.64246458E-03 0.18966861E+03</pdfrwt>
<totfact> 0.35078079E+04</totfact>
</mgrwt>
</event>
<event>
 4    1  0.1300812E-003  0.3022015E+03  0.7818608E-02  0.1084145E+00
         -2   -1    0    0    0  501 -0.00000000000E+00  0.00000000000E+00  0.16826668083E+02  0.16826668276E+02  0.25500000000E-02 0. -1.
          2   -1    0    0  501    0  0.00000000000E+00 -0.00000000000E+00 -0.13568599064E+04  0.13568599064E+04  0.25500000000E-02 0.  1.
    5000001    1    1    2    0    0  0.93705558077E+02  0.81932475694E+02 -0.84062918573E+03  0.85327609253E+03  0.77000000000E+02 0.  0.
   -5000001    1    1    2    0    0 -0.93705558077E+02 -0.81932475694E+02 -0.49940405263E+03  0.52041048219E+03  0.77000000000E+02 0.  0.
<mgrwt>
<rscale>  0 0.30220147E+03</rscale>
<asrwt>0</asrwt>
<pdfrwt beam="1">  1        2 0.19383706E+00 0.30220147E+03</pdfrwt>
<pdfrwt beam="2">  1       -2 0.24038106E-02 0.30220147E+03</pdfrwt>
<totfact> 0.10907563E+04</totfact>
</mgrwt>
</event>
<event>
 4    1  0.1300812E-003  0.2747412E+03  0.7818608E-02  0.1098596E+00
          2   -1    0    0  501    0  0.00000000000E+00  0.00000000000E+00  0.12833836414E+04  0.12833836414E+04  0.25500000000E-02 0.  1.
         -2   -1    0    0    0  501 -0.00000000000E+00 -0.00000000000E+00 -0.14703845512E+02  0.14703845733E+02  0.25500000000E-02 0. -1.
    5000001    1    1    2    0    0 -0.93332735437E+02 -0.56656513848E+02  0.78528967403E+03  0.79657380838E+03  0.77000000000E+02 0.  0.
   -5000001    1    1    2    0    0  0.93332735437E+02  0.56656513848E+02  0.48339012189E+03  0.50151367879E+03  0.77000000000E+02 0.  0.
<mgrwt>
<rscale>  0 0.27474115E+03</rscale>
<asrwt>0</asrwt>
<pdfrwt beam="1">  1        2 0.18334055E+00 0.27474115E+03</pdfrwt>
<pdfrwt beam="2">  1       -2 0.21005490E-02 0.27474115E+03</pdfrwt>
<totfact> 0.14509780E+04</totfact>
</mgrwt>
</event>
<event>
 4    1  0.1300812E-003  0.2482308E+03  0.7818608E-02  0.1114428E+00
         -2   -1    0    0    0  501 -0.00000000000E+00  0.00000000000E+00  0.84813984304E+02  0.84813984342E+02  0.25500000000E-02 0. -1.
          2   -1    0    0  501    0  0.00000000000E+00 -0.00000000000E+00 -0.18162839242E+03  0.18162839244E+03  0.25500000000E-02 0.  1.
    5000001    1    1    2    0    0 -0.32351699015E+02 -0.90976910977E+02 -0.61649111984E+02  0.13803276339E+03  0.77000000000E+02 0.  0.
   -5000001    1    1    2    0    0  0.32351699015E+02  0.90976910977E+02 -0.35165296134E+02  0.12840961339E+03  0.77000000000E+02 0.  0.
<mgrwt>
<rscale>  0 0.24823076E+03</rscale>
<asrwt>0</asrwt>
<pdfrwt beam="1">  1        2 0.25946913E-01 0.24823076E+03</pdfrwt>
<pdfrwt beam="2">  1       -2 0.12116283E-01 0.24823076E+03</pdfrwt>
<totfact> 0.98776879E+03</totfact>
</mgrwt>
</event>
<event>
 4    1  0.1300812E-003  0.4666170E+03  0.7818608E-02  0.1022879E+00
          2   -1    0    0  501    0  0.00000000000E+00  0.00000000000E+00  0.11053004569E+04  0.11053004569E+04  0.25500000000E-02 0.  1.
         -2   -1    0    0    0  501 -0.00000000000E+00 -0.00000000000E+00 -0.49247108170E+02  0.49247108236E+02  0.25500000000E-02 0. -1.
    5000001    1    1    2    0    0 -0.15636051543E+03 -0.95319124238E+02  0.83075636133E+03  0.85417766192E+03  0.77000000000E+02 0.  0.
   -5000001    1    1    2    0    0  0.15636051543E+03  0.95319124238E+02  0.22529698741E+03  0.30036990323E+03  0.77000000000E+02 0.  0.
<mgrwt>
<rscale>  0 0.46661698E+03</rscale>
<asrwt>0</asrwt>
<pdfrwt beam="1">  1        2 0.15790004E+00 0.46661698E+03</pdfrwt>
<pdfrwt beam="2">  1       -2 0.70353021E-02 0.46661698E+03</pdfrwt>
<totfact> 0.29350994E+03</totfact>
</mgrwt>
</event>
<event>
 4    1  0.1300812E-003  0.2215519E+03  0.7818608E-02  0.1132731E+00
         -2   -1    0    0    0  501 -0.00000000000E+00  0.00000000000E+00  0.14262010873E+02  0.14262011101E+02  0.25500000000E-02 0. -1.
          2   -1    0    0  501    0  0.00000000000E+00 -0.00000000000E+00 -0.86041977127E+03  0.86041977128E+03  0.25500000000E-02 0.  1.
    5000001    1    1    2    0    0 -0.53621913451E+02  0.35381043324E+02 -0.60889348515E+03  0.61709594398E+03  0.77000000000E+02 0.  0.
   -5000001    1    1    2    0    0  0.53621913451E+02 -0.35381043324E+02 -0.23726427525E+03  0.25758583839E+03  0.77000000000E+02 0.  0.
<mgrwt>
<rscale>  0 0.22155195E+03</rscale>
<asrwt>0</asrwt>
<pdfrwt beam="1">  1        2 0.12291708E+00 0.22155195E+03</pdfrwt>
<pdfrwt beam="2">  1       -2 0.20374307E-02 0.22155195E+03</pdfrwt>
<totfact> 0.26248629E+04</totfact>
</mgrwt>
</event>
<event>
 4    1  0.1300812E-003  0.1838481E+03  0.7818608E-02  0.1164130E+00
         -2   -1    0    0    0  501 -0.00000000000E+00  0.00000000000E+00  0.17317758519E+02  0.17317758706E+02  0.25500000000E-02 0. -1.
          2   -1    0    0  501    0  0.00000000000E+00 -0.00000000000E+00 -0.48794002533E+03  0.48794002534E+03  0.25500000000E-02 0.  1.
    5000001    1    1    2    0    0  0.41239429446E+02  0.95899798145E+01 -0.30948138940E+03  0.32171476286E+03  0.77000000000E+02 0.  0.
   -5000001    1    1    2    0    0 -0.41239429446E+02 -0.95899798145E+01 -0.16114087741E+03  0.18354302119E+03  0.77000000000E+02 0.  0.
<mgrwt>
<rscale>  0 0.18384806E+03</rscale>
<asrwt>0</asrwt>
<pdfrwt beam="1">  1        2 0.69705709E-01 0.18384806E+03</pdfrwt>
<pdfrwt beam="2">  1       -2 0.24739658E-02 0.18384806E+03</pdfrwt>
<totfact> 0.37604930E+04</totfact>
</mgrwt>
</event>
<event>
 4    1  0.1300812E-003  0.2706953E+03  0.7818608E-02  0.1100882E+00
          2   -1    0    0  501    0  0.00000000000E+00  0.00000000000E+00  0.29483186676E+02  0.29483186786E+02  0.25500000000E-02 0. -1.
         -2   -1    0    0    0  501 -0.00000000000E+00 -0.00000000000E+00 -0.62133656592E+03  0.62133656593E+03  0.25500000000E-02 0.  1.
    5000001    1    1    2    0    0  0.83609874967E+02 -0.66849130110E+02 -0.22258459179E+03  0.25871280967E+03  0.77000000000E+02 0.  0.
   -5000001    1    1    2    0    0 -0.83609874967E+02  0.66849130110E+02 -0.36926878746E+03  0.39210694304E+03  0.77000000000E+02 0.  0.
<mgrwt>
<rscale>  0 0.27069527E+03</rscale>
<asrwt>0</asrwt>
<pdfrwt beam="1">  1        2 0.42118842E-02 0.27069527E+03</pdfrwt>
<pdfrwt beam="2">  1       -2 0.88762359E-01 0.27069527E+03</pdfrwt>
<totfact> 0.22263745E+03</totfact>
</mgrwt>
</event>
<event>
 4    1  0.1300812E-003  0.2468930E+03  0.7818608E-02  0.1115284E+00
          2   -1    0    0  501    0  0.00000000000E+00  0.00000000000E+00  0.17067070369E+04  0.17067070369E+04  0.25500000000E-02 0.  1.
         -2   -1    0    0    0  501 -0.00000000000E+00 -0.00000000000E+00 -0.89289155605E+01  0.89289159246E+01  0.25500000000E-02 0. -1.
    5000001    1    1    2    0    0 -0.45319196221E+02 -0.44769408623E+01  0.14400023121E+04  0.14427784069E+04  0.77000000000E+02 0.  0.
   -5000001    1    1    2    0    0  0.45319196221E+02  0.44769408623E+01  0.25777580932E+03  0.27285754601E+03  0.77000000000E+02 0.  0.
<mgrwt>
<rscale>  0 0.24689304E+03</rscale>
<asrwt>0</asrwt>
<pdfrwt beam="1">  1        2 0.24381514E+00 0.24689304E+03</pdfrwt>
<pdfrwt beam="2">  1       -2 0.12755602E-02 0.24689304E+03</pdfrwt>
<totfact> 0.18311105E+04</totfact>
</mgrwt>
</event>
<event>
 4    1  0.1300812E-003  0.2329989E+03  0.7818608E-02  0.1124547E+00
          2   -1    0    0  501    0  0.00000000000E+00  0.00000000000E+00  0.10691910432E+04  0.10691910432E+04  0.25500000000E-02 0.  1.
         -2   -1    0    0    0  501 -0.00000000000E+00 -0.00000000000E+00 -0.12693821090E+02  0.12693821346E+02  0.25500000000E-02 0. -1.
    5000001    1    1    2    0    0 -0.78230617548E+01 -0.56017847293E+02  0.21871319810E+03  0.23867061514E+03  0.77000000000E+02 0.  0.
   -5000001    1    1    2    0    0  0.78230617548E+01  0.56017847293E+02  0.83778402400E+03  0.84321424939E+03  0.77000000000E+02 0.  0.
<mgrwt>
<rscale>  0 0.23299888E+03</rscale>
<asrwt>0</asrwt>
<pdfrwt beam="1">  1        2 0.15274156E+00 0.23299888E+03</pdfrwt>
<pdfrwt beam="2">  1       -2 0.18134032E-02 0.23299888E+03</pdfrwt>
<totfact> 0.23405345E+04</totfact>
</mgrwt>
</event>
<event>
 4    1  0.1300812E-003  0.3353627E+03  0.7818608E-02  0.1068788E+00
         -2   -1    0    0    0  501 -0.00000000000E+00  0.00000000000E+00  0.10530742003E+02  0.10530742312E+02  0.25500000000E-02 0. -1.
          2   -1    0    0  501    0  0.00000000000E+00 -0.00000000000E+00 -0.26699959482E+04  0.26699959482E+04  0.25500000000E-02 0.  1.
    5000001    1    1    2    0    0  0.81189653681E+02 -0.67943936377E+02 -0.21672706647E+04  0.21712206872E+04  0.77000000000E+02 0.  0.
   -5000001    1    1    2    0    0 -0.81189653681E+02  0.67943936377E+02 -0.49219454150E+03  0.50930600334E+03  0.77000000000E+02 0.  0.
<mgrwt>
<rscale>  0 0.33536272E+03</rscale>
<asrwt>0</asrwt>
<pdfrwt beam="1">  1        2 0.38142756E+00 0.33536272E+03</pdfrwt>
<pdfrwt beam="2">  1       -2 0.15043934E-02 0.33536272E+03</pdfrwt>
<totfact> 0.48276138E+03</totfact>
</mgrwt>
</event>
<event>
 4    1  0.1300812E-003  0.2944417E+03  0.7818608E-02  0.1088053E+00
         -2   -1    0    0    0  501 -0.00000000000E+00  0.00000000000E+00  0.13305344708E+03  0.13305344710E+03  0.25500000000E-02 0. -1.
          2   -1    0    0  501    0  0.00000000000E+00 -0.00000000000E+00 -0.16289677924E+03  0.16289677926E+03  0.25500000000E-02 0.  1.
    5000001    1    1    2    0    0 -0.50646807294E+02  0.90896533280E+01 -0.12995124854E+03  0.15957458408E+03  0.77000000000E+02 0.  0.
   -5000001    1    1    2    0    0  0.50646807294E+02 -0.90896533280E+01  0.10010791638E+03  0.13637564228E+03  0.77000000000E+02 0.  0.
<mgrwt>
<rscale>  0 0.29444170E+03</rscale>
<asrwt>0</asrwt>
<pdfrwt beam="1">  1        2 0.23270968E-01 0.29444170E+03</pdfrwt>
<pdfrwt beam="2">  1       -2 0.19007635E-01 0.29444170E+03</pdfrwt>
<totfact> 0.53332875E+03</totfact>
</mgrwt>
</event>
<event>
 4    1  0.1300812E-003  0.5821156E+03  0.7818608E-02  0.9943221E-01
          2   -1    0    0  501    0  0.00000000000E+00  0.00000000000E+00  0.14936914226E+04  0.14936914226E+04  0.25500000000E-02 0.  1.
         -2   -1    0    0    0  501 -0.00000000000E+00 -0.00000000000E+00 -0.56714954895E+02  0.56714954952E+02  0.25500000000E-02 0. -1.
    5000001    1    1    2    0    0  0.21801167854E+03  0.43797411487E+02  0.11746869449E+04  0.11980257609E+04  0.77000000000E+02 0.  0.
   -5000001    1    1    2    0    0 -0.21801167854E+03 -0.43797411487E+02  0.26228952282E+03  0.35238061668E+03  0.77000000000E+02 0.  0.
<mgrwt>
<rscale>  0 0.58211560E+03</rscale>
<asrwt>0</asrwt>
<pdfrwt beam="1">  1        2 0.21338445E+00 0.58211560E+03</pdfrwt>
<pdfrwt beam="2">  1       -2 0.81021379E-02 0.58211560E+03</pdfrwt>
<totfact> 0.14409615E+03</totfact>
</mgrwt>
</event>
<event>
 4    1  0.1300812E-003  0.2487190E+03  0.7818608E-02  0.1114117E+00
          2   -1    0    0  501    0  0.00000000000E+00  0.00000000000E+00  0.40190752514E+02  0.40190752595E+02  0.25500000000E-02 0.  1.
         -2   -1    0    0    0  501 -0.00000000000E+00 -0.00000000000E+00 -0.38479721773E+03  0.38479721774E+03  0.25500000000E-02 0. -1.
    5000001    1    1    2    0    0  0.89603235936E+02 -0.12954525105E+01 -0.23861057065E+03  0.26626006557E+03  0.77000000000E+02 0.  0.
   -5000001    1    1    2    0    0 -0.89603235936E+02  0.12954525105E+01 -0.10599589456E+03  0.15872790476E+03  0.77000000000E+02 0.  0.
<mgrwt>
<rscale>  0 0.24871904E+03</rscale>
<asrwt>0</asrwt>
<pdfrwt beam="1">  1        2 0.57415363E-02 0.24871904E+03</pdfrwt>
<pdfrwt beam="2">  1       -2 0.54971029E-01 0.24871904E+03</pdfrwt>
<totfact> 0.41088124E+03</totfact>
</mgrwt>
</event>
<event>
 4    1  0.1300812E-003  0.2199707E+03  0.7818608E-02  0.1133905E+00
         -2   -1    0    0    0  501 -0.00000000000E+00  0.00000000000E+00  0.17740574990E+02  0.17740575173E+02  0.25500000000E-02 0. -1.
          2   -1    0    0  501    0  0.00000000000E+00 -0.00000000000E+00 -0.68187059317E+03  0.68187059318E+03  0.25500000000E-02 0.  1.
    5000001    1    1    2    0    0 -0.42869811829E+02  0.43030469695E+02 -0.49039816213E+03  0.50010878767E+03  0.77000000000E+02 0.  0.
   -5000001    1    1    2    0    0  0.42869811829E+02 -0.43030469695E+02 -0.17373185606E+03  0.19950238068E+03  0.77000000000E+02 0.  0.
<mgrwt>
<rscale>  0 0.21997069E+03</rscale>
<asrwt>0</asrwt>
<pdfrwt beam="1">  1        2 0.97410068E-01 0.21997069E+03</pdfrwt>
<pdfrwt beam="2">  1       -2 0.25343683E-02 0.21997069E+03</pdfrwt>
<totfact> 0.25245935E+04</totfact>
</mgrwt>
</event>
<event>
 4    1  0.1300812E-003  0.2589975E+03  0.7818608E-02  0.1107747E+00
         -2   -1    0    0    0  501 -0.00000000000E+00  0.00000000000E+00  0.25831626658E+02  0.25831626784E+02  0.25500000000E-02 0. -1.
          2   -1    0    0  501    0  0.00000000000E+00 -0.00000000000E+00 -0.64920131134E+03  0.64920131135E+03  0.25500000000E-02 0.  1.
    5000001    1    1    2    0    0 -0.51687549509E+02 -0.16567921331E+02 -0.54326466109E+03  0.55137246103E+03  0.77000000000E+02 0.  0.
   -5000001    1    1    2    0    0  0.51687549509E+02  0.16567921331E+02 -0.80105023588E+02  0.12366047710E+03  0.77000000000E+02 0.  0.
<mgrwt>
<rscale>  0 0.25899750E+03</rscale>
<asrwt>0</asrwt>
<pdfrwt beam="1">  1        2 0.92743034E-01 0.25899750E+03</pdfrwt>
<pdfrwt beam="2">  1       -2 0.36902328E-02 0.25899750E+03</pdfrwt>
<totfact> 0.15441279E+04</totfact>
</mgrwt>
</event>
<event>
 4    1  0.1300812E-003  0.1853718E+03  0.7818608E-02  0.1162703E+00
          2   -1    0    0  501    0  0.00000000000E+00  0.00000000000E+00  0.12785407232E+04  0.12785407232E+04  0.25500000000E-02 0.  1.
         -2   -1    0    0    0  501 -0.00000000000E+00 -0.00000000000E+00 -0.67191290667E+01  0.67191295505E+01  0.25500000000E-02 0. -1.
    5000001    1    1    2    0    0  0.35928391021E+01 -0.46588129852E+02  0.48427365963E+03  0.49257825748E+03  0.77000000000E+02 0.  0.
   -5000001    1    1    2    0    0 -0.35928391021E+01  0.46588129852E+02  0.78754793453E+03  0.79268159529E+03  0.77000000000E+02 0.  0.
<mgrwt>
<rscale>  0 0.18537185E+03</rscale>
<asrwt>0</asrwt>
<pdfrwt beam="1">  1        2 0.18264884E+00 0.18537185E+03</pdfrwt>
<pdfrwt beam="2">  1       -2 0.95987476E-03 0.18537185E+03</pdfrwt>
<totfact> 0.44647994E+04</totfact>
</mgrwt>
</event>
<event>
 4    1  0.1300812E-003  0.2470965E+03  0.7818608E-02  0.1115154E+00
         -2   -1    0    0    0  501 -0.00000000000E+00  0.00000000000E+00  0.96675433053E+01  0.96675436416E+01  0.25500000000E-02 0. -1.
          2   -1    0    0  501    0  0.00000000000E+00 -0.00000000000E+00 -0.15789094575E+04  0.15789094575E+04  0.25500000000E-02 0.  1.
    5000001    1    1    2    0    0  0.88573111677E+02 -0.11225485612E+02 -0.10220553978E+04  0.10288330496E+04  0.77000000000E+02 0.  0.
   -5000001    1    1    2    0    0 -0.88573111677E+02  0.11225485612E+02 -0.54718651635E+03  0.55974395156E+03  0.77000000000E+02 0.  0.
<mgrwt>
<rscale>  0 0.24709655E+03</rscale>
<asrwt>0</asrwt>
<pdfrwt beam="1">  1        2 0.22555833E+00 0.24709655E+03</pdfrwt>
<pdfrwt beam="2">  1       -2 0.13810786E-02 0.24709655E+03</pdfrwt>
<totfact> 0.18863267E+04</totfact>
</mgrwt>
</event>
<event>
 4    1  0.1300812E-003  0.3647808E+03  0.7818608E-02  0.1056707E+00
         -2   -1    0    0    0  501 -0.00000000000E+00  0.00000000000E+00  0.32100357350E+02  0.32100357451E+02  0.25500000000E-02 0. -1.
          2   -1    0    0  501    0  0.00000000000E+00 -0.00000000000E+00 -0.10363207587E+04  0.10363207587E+04  0.25500000000E-02 0.  1.
    5000001    1    1    2    0    0  0.46313210716E+02 -0.13286185602E+03 -0.75644068868E+03  0.77325849608E+03  0.77000000000E+02 0.  0.
   -5000001    1    1    2    0    0 -0.46313210716E+02  0.13286185602E+03 -0.24777971263E+03  0.29516262003E+03  0.77000000000E+02 0.  0.
<mgrwt>
<rscale>  0 0.36478085E+03</rscale>
<asrwt>0</asrwt>
<pdfrwt beam="1">  1        2 0.14804580E+00 0.36478085E+03</pdfrwt>
<pdfrwt beam="2">  1       -2 0.45857660E-02 0.36478085E+03</pdfrwt>
<totfact> 0.62266908E+03</totfact>
</mgrwt>
</event>
<event>
 4    1  0.1300812E-003  0.1706846E+03  0.7818608E-02  0.1177136E+00
          2   -1    0    0  501    0  0.00000000000E+00  0.00000000000E+00  0.10138395092E+03  0.10138395095E+03  0.25500000000E-02 0.  1.
         -2   -1    0    0    0  501 -0.00000000000E+00 -0.00000000000E+00 -0.71838865353E+02  0.71838865399E+02  0.25500000000E-02 0. -1.
    5000001    1    1    2    0    0  0.13281700259E+02  0.31094171320E+02  0.28703292126E-01  0.84096681717E+02  0.77000000000E+02 0.  0.
   -5000001    1    1    2    0    0 -0.13281700259E+02 -0.31094171320E+02  0.29516382271E+02  0.89126134631E+02  0.77000000000E+02 0.  0.
<mgrwt>
<rscale>  0 0.17068460E+03</rscale>
<asrwt>0</asrwt>
<pdfrwt beam="1">  1        2 0.14483421E-01 0.17068460E+03</pdfrwt>
<pdfrwt beam="2">  1       -2 0.10262695E-01 0.17068460E+03</pdfrwt>
<totfact> 0.24439891E+04</totfact>
</mgrwt>
</event>
<event>
 4    1  0.1300812E-003  0.2155885E+03  0.7818608E-02  0.1137215E+00
         -2   -1    0    0    0  501 -0.00000000000E+00  0.00000000000E+00  0.43023526022E+02  0.43023526098E+02  0.25500000000E-02 0. -1.
          2   -1    0    0  501    0  0.00000000000E+00 -0.00000000000E+00 -0.27007541533E+03  0.27007541534E+03  0.25500000000E-02 0.  1.
    5000001    1    1    2    0    0 -0.62587014475E+02 -0.31416433330E+02 -0.72797562420E+02  0.12701421873E+03  0.77000000000E+02 0.  0.
   -5000001    1    1    2    0    0  0.62587014475E+02  0.31416433330E+02 -0.15425432689E+03  0.18608472272E+03  0.77000000000E+02 0.  0.
<mgrwt>
<rscale>  0 0.21558847E+03</rscale>
<asrwt>0</asrwt>
<pdfrwt beam="1">  1        2 0.38582201E-01 0.21558847E+03</pdfrwt>
<pdfrwt beam="2">  1       -2 0.61462182E-02 0.21558847E+03</pdfrwt>
<totfact> 0.18423552E+04</totfact>
</mgrwt>
</event>
<event>
 4    1  0.1300812E-003  0.1731633E+03  0.7818608E-02  0.1174589E+00
         -2   -1    0    0    0  501 -0.00000000000E+00  0.00000000000E+00  0.18941655850E+01  0.18941673015E+01  0.25500000000E-02 0. -1.
          2   -1    0    0  501    0  0.00000000000E+00 -0.00000000000E+00 -0.39576167198E+04  0.39576167198E+04  0.25500000000E-02 0.  1.
    5000001    1    1    2    0    0  0.41448538653E+01  0.35370413942E+02 -0.23733389583E+04  0.23748547444E+04  0.77000000000E+02 0.  0.
   -5000001    1    1    2    0    0 -0.41448538653E+01 -0.35370413942E+02 -0.15823835960E+04  0.15846561428E+04  0.77000000000E+02 0.  0.
<mgrwt>
<rscale>  0 0.17316333E+03</rscale>
<asrwt>0</asrwt>
<pdfrwt beam="1">  1        2 0.56536852E+00 0.17316333E+03</pdfrwt>
<pdfrwt beam="2">  1       -2 0.27059774E-03 0.17316333E+03</pdfrwt>
<totfact> 0.10837863E+04</totfact>
</mgrwt>
</event>
<event>
 4    1  0.1300812E-003  0.1930490E+03  0.7818608E-02  0.1155740E+00
         -2   -1    0    0    0  501 -0.00000000000E+00  0.00000000000E+00  0.71048876038E+01  0.71048880614E+01  0.25500000000E-02 0. -1.
          2   -1    0    0  501    0  0.00000000000E+00 -0.00000000000E+00 -0.13113478025E+04  0.13113478025E+04  0.25500000000E-02 0.  1.
    5000001    1    1    2    0    0 -0.19995407151E+02 -0.54647040403E+02 -0.64279778352E+03  0.65000315832E+03  0.77000000000E+02 0.  0.
   -5000001    1    1    2    0    0  0.19995407151E+02  0.54647040403E+02 -0.66144513141E+03  0.66844953228E+03  0.77000000000E+02 0.  0.
<mgrwt>
<rscale>  0 0.19304900E+03</rscale>
<asrwt>0</asrwt>
<pdfrwt beam="1">  1        2 0.18733525E+00 0.19304900E+03</pdfrwt>
<pdfrwt beam="2">  1       -2 0.10149848E-02 0.19304900E+03</pdfrwt>
<totfact> 0.39728759E+04</totfact>
</mgrwt>
</event>
<event>
 4    1  0.1300812E-003  0.6716175E+03  0.7818608E-02  0.9767040E-01
         -2   -1    0    0    0  501 -0.00000000000E+00  0.00000000000E+00  0.16414619602E+03  0.16414619604E+03  0.25500000000E-02 0. -1.
          2   -1    0    0  501    0  0.00000000000E+00 -0.00000000000E+00 -0.68699434852E+03  0.68699434852E+03  0.25500000000E-02 0.  1.
    5000001    1    1    2    0    0  0.26878835562E+03 -0.18483566558E+03 -0.28761476566E+03  0.44165898249E+03  0.77000000000E+02 0.  0.
   -5000001    1    1    2    0    0 -0.26878835562E+03  0.18483566558E+03 -0.23523338684E+03  0.40948156207E+03  0.77000000000E+02 0.  0.
<mgrwt>
<rscale>  0 0.67161748E+03</rscale>
<asrwt>0</asrwt>
<pdfrwt beam="1">  1        2 0.98142048E-01 0.67161748E+03</pdfrwt>
<pdfrwt beam="2">  1       -2 0.23449457E-01 0.67161748E+03</pdfrwt>
<totfact> 0.74353206E+02</totfact>
</mgrwt>
</event>
<event>
 4    1  0.1300812E-003  0.3456460E+03  0.7818608E-02  0.1064416E+00
          2   -1    0    0  501    0  0.00000000000E+00  0.00000000000E+00  0.68045184932E+03  0.68045184932E+03  0.25500000000E-02 0.  1.
         -2   -1    0    0    0  501 -0.00000000000E+00 -0.00000000000E+00 -0.43894060477E+02  0.43894060551E+02  0.25500000000E-02 0. -1.
    5000001    1    1    2    0    0 -0.49640047486E+02 -0.14423042219E+03  0.37261374032E+03  0.40992261279E+03  0.77000000000E+02 0.  0.
   -5000001    1    1    2    0    0  0.49640047486E+02  0.14423042219E+03  0.26394404852E+03  0.31442329709E+03  0.77000000000E+02 0.  0.
<mgrwt>
<rscale>  0 0.34564603E+03</rscale>
<asrwt>0</asrwt>
<pdfrwt beam="1">  1        2 0.97207405E-01 0.34564603E+03</pdfrwt>
<pdfrwt beam="2">  1       -2 0.62705802E-02 0.34564603E+03</pdfrwt>
<totfact> 0.65921899E+03</totfact>
</mgrwt>
</event>
<event>
 4    1  0.1300812E-003  0.4073330E+03  0.7818608E-02  0.1041270E+00
          2   -1    0    0  501    0  0.00000000000E+00  0.00000000000E+00  0.43775070281E+03  0.43775070281E+03  0.25500000000E-02 0.  1.
         -2   -1    0    0    0  501 -0.00000000000E+00 -0.00000000000E+00 -0.94757217695E+02  0.94757217730E+02  0.25500000000E-02 0. -1.
    5000001    1    1    2    0    0 -0.12451236311E+03  0.97561002765E+02  0.37349537434E+02  0.17984845225E+03  0.77000000000E+02 0.  0.
   -5000001    1    1    2    0    0  0.12451236311E+03 -0.97561002765E+02  0.30564394768E+03  0.35265946830E+03  0.77000000000E+02 0.  0.
<mgrwt>
<rscale>  0 0.40733298E+03</rscale>
<asrwt>0</asrwt>
<pdfrwt beam="1">  1        2 0.62535815E-01 0.40733298E+03</pdfrwt>
<pdfrwt beam="2">  1       -2 0.13536745E-01 0.40733298E+03</pdfrwt>
<totfact> 0.32058806E+03</totfact>
</mgrwt>
</event>
<event>
 4    1  0.1300812E-003  0.2000314E+03  0.7818608E-02  0.1149713E+00
         -2   -1    0    0    0  501 -0.00000000000E+00  0.00000000000E+00  0.16097796415E+02  0.16097796616E+02  0.25500000000E-02 0. -1.
          2   -1    0    0  501    0  0.00000000000E+00 -0.00000000000E+00 -0.62139791544E+03  0.62139791544E+03  0.25500000000E-02 0.  1.
    5000001    1    1    2    0    0 -0.20735905296E+02 -0.55961100941E+02 -0.37479938683E+03  0.38725340922E+03  0.77000000000E+02 0.  0.
   -5000001    1    1    2    0    0  0.20735905296E+02  0.55961100941E+02 -0.23050073219E+03  0.25024230283E+03  0.77000000000E+02 0.  0.
<mgrwt>
<rscale>  0 0.20003137E+03</rscale>
<asrwt>0</asrwt>
<pdfrwt beam="1">  1        2 0.88771116E-01 0.20003137E+03</pdfrwt>
<pdfrwt beam="2">  1       -2 0.22996856E-02 0.20003137E+03</pdfrwt>
<totfact> 0.32203482E+04</totfact>
</mgrwt>
</event>
<event>
 4    1  0.1300812E-003  0.4208056E+03  0.7818608E-02  0.1036804E+00
         -2   -1    0    0    0  501 -0.00000000000E+00  0.00000000000E+00  0.16536289503E+02  0.16536289700E+02  0.25500000000E-02 0. -1.
          2   -1    0    0  501    0  0.00000000000E+00 -0.00000000000E+00 -0.26771017703E+04  0.26771017703E+04  0.25500000000E-02 0.  1.
    5000001    1    1    2    0    0  0.16932948003E+03 -0.63720931190E+02 -0.18096213604E+04  0.18202723142E+04  0.77000000000E+02 0.  0.
   -5000001    1    1    2    0    0 -0.16932948003E+03  0.63720931190E+02 -0.85094412041E+03  0.87336574580E+03  0.77000000000E+02 0.  0.
<mgrwt>
<rscale>  0 0.42080556E+03</rscale>
<asrwt>0</asrwt>
<pdfrwt beam="1">  1        2 0.38244283E+00 0.42080556E+03</pdfrwt>
<pdfrwt beam="2">  1       -2 0.23623288E-02 0.42080556E+03</pdfrwt>
<totfact> 0.24404981E+03</totfact>
</mgrwt>
</event>
<event>
 4    1  0.1300812E-003  0.4584429E+03  0.7818608E-02  0.1025234E+00
         -2   -1    0    0    0  501 -0.00000000000E+00  0.00000000000E+00  0.34181652356E+02  0.34181652451E+02  0.25500000000E-02 0. -1.
          2   -1    0    0  501    0  0.00000000000E+00 -0.00000000000E+00 -0.15371542586E+04  0.15371542586E+04  0.25500000000E-02 0.  1.
    5000001    1    1    2    0    0  0.18201200026E+03  0.10264439326E+03 -0.56534689922E+03  0.60762682312E+03  0.77000000000E+02 0.  0.
   -5000001    1    1    2    0    0 -0.18201200026E+03 -0.10264439326E+03 -0.93762570698E+03  0.96370908789E+03  0.77000000000E+02 0.  0.
<mgrwt>
<rscale>  0 0.45844290E+03</rscale>
<asrwt>0</asrwt>
<pdfrwt beam="1">  1        2 0.21959342E+00 0.45844290E+03</pdfrwt>
<pdfrwt beam="2">  1       -2 0.48830942E-02 0.45844290E+03</pdfrwt>
<totfact> 0.30320423E+03</totfact>
</mgrwt>
</event>
<event>
 4    1  0.1300812E-003  0.1993782E+03  0.7818608E-02  0.1150265E+00
          2   -1    0    0  501    0  0.00000000000E+00  0.00000000000E+00  0.28003857242E+04  0.28003857242E+04  0.25500000000E-02 0.  1.
         -2   -1    0    0    0  501 -0.00000000000E+00 -0.00000000000E+00 -0.35487654574E+01  0.35487663736E+01  0.25500000000E-02 0. -1.
    5000001    1    1    2    0    0 -0.36651664386E+02  0.45415605596E+02  0.10530792449E+04  0.10575021597E+04  0.77000000000E+02 0.  0.
   -5000001    1    1    2    0    0  0.36651664386E+02 -0.45415605596E+02  0.17437577139E+04  0.17464323309E+04  0.77000000000E+02 0.  0.
<mgrwt>
<rscale>  0 0.19937817E+03</rscale>
<asrwt>0</asrwt>
<pdfrwt beam="1">  1        2 0.40005590E+00 0.19937817E+03</pdfrwt>
<pdfrwt beam="2">  1       -2 0.50696554E-03 0.19937817E+03</pdfrwt>
<totfact> 0.19949958E+04</totfact>
</mgrwt>
</event>
<event>
 4    1  0.1300812E-003  0.1697802E+03  0.7818608E-02  0.1178077E+00
          2   -1    0    0  501    0  0.00000000000E+00  0.00000000000E+00  0.13034897527E+04  0.13034897527E+04  0.25500000000E-02 0.  1.
         -2   -1    0    0    0  501 -0.00000000000E+00 -0.00000000000E+00 -0.55284889809E+01  0.55284895690E+01  0.25500000000E-02 0. -1.
    5000001    1    1    2    0    0  0.15330448563E+02  0.22209988146E+02  0.82963725345E+03  0.83363977745E+03  0.77000000000E+02 0.  0.
   -5000001    1    1    2    0    0 -0.15330448563E+02 -0.22209988146E+02  0.46832401030E+03  0.47537846486E+03  0.77000000000E+02 0.  0.
<mgrwt>
<rscale>  0 0.16978020E+03</rscale>
<asrwt>0</asrwt>
<pdfrwt beam="1">  1        2 0.18621291E+00 0.16978020E+03</pdfrwt>
<pdfrwt beam="2">  1       -2 0.78978381E-03 0.16978020E+03</pdfrwt>
<totfact> 0.56930934E+04</totfact>
</mgrwt>
</event>
<event>
 4    1  0.1300812E-003  0.2008685E+03  0.7818608E-02  0.1149008E+00
         -2   -1    0    0    0  501 -0.00000000000E+00  0.00000000000E+00  0.87888509397E+01  0.87888513096E+01  0.25500000000E-02 0. -1.
          2   -1    0    0  501    0  0.00000000000E+00 -0.00000000000E+00 -0.11477084347E+04  0.11477084347E+04  0.25500000000E-02 0.  1.
    5000001    1    1    2    0    0 -0.37681194563E+02 -0.49759032840E+02 -0.66268923678E+03  0.67006108551E+03  0.77000000000E+02 0.  0.
   -5000001    1    1    2    0    0  0.37681194563E+02  0.49759032840E+02 -0.47623034699E+03  0.48643620051E+03  0.77000000000E+02 0.  0.
<mgrwt>
<rscale>  0 0.20086850E+03</rscale>
<asrwt>0</asrwt>
<pdfrwt beam="1">  1        2 0.16395825E+00 0.20086850E+03</pdfrwt>
<pdfrwt beam="2">  1       -2 0.12555509E-02 0.20086850E+03</pdfrwt>
<totfact> 0.35801310E+04</totfact>
</mgrwt>
</event>
<event>
 4    1  0.1300812E-003  0.1755531E+03  0.7818608E-02  0.1172178E+00
          2   -1    0    0  501    0  0.00000000000E+00  0.00000000000E+00  0.89350674796E+02  0.89350674833E+02  0.25500000000E-02 0.  1.
         -2   -1    0    0    0  501 -0.00000000000E+00 -0.00000000000E+00 -0.86230155355E+02  0.86230155392E+02  0.25500000000E-02 0. -1.
    5000001    1    1    2    0    0  0.30751992768E+02  0.27989349896E+02 -0.52697141399E+01  0.87669029047E+02  0.77000000000E+02 0.  0.
   -5000001    1    1    2    0    0 -0.30751992768E+02 -0.27989349896E+02  0.83902335815E+01  0.87911801178E+02  0.77000000000E+02 0.  0.
<mgrwt>
<rscale>  0 0.17555310E+03</rscale>
<asrwt>0</asrwt>
<pdfrwt beam="1">  1        2 0.12764382E-01 0.17555310E+03</pdfrwt>
<pdfrwt beam="2">  1       -2 0.12318594E-01 0.17555310E+03</pdfrwt>
<totfact> 0.21286054E+04</totfact>
</mgrwt>
</event>
<event>
 4    1  0.1300812E-003  0.4188270E+03  0.7818608E-02  0.1037449E+00
          2   -1    0    0  501    0  0.00000000000E+00  0.00000000000E+00  0.15341758800E+04  0.15341758800E+04  0.25500000000E-02 0.  1.
         -2   -1    0    0    0  501 -0.00000000000E+00 -0.00000000000E+00 -0.28584740560E+02  0.28584740673E+02  0.25500000000E-02 0. -1.
    5000001    1    1    2    0    0  0.16302838617E+03 -0.10651990488E+03  0.75083972375E+03  0.77949601384E+03  0.77000000000E+02 0.  0.
   -5000001    1    1    2    0    0 -0.16302838617E+03  0.10651990488E+03  0.75475141570E+03  0.78326460684E+03  0.77000000000E+02 0.  0.
<mgrwt>
<rscale>  0 0.41882703E+03</rscale>
<asrwt>0</asrwt>
<pdfrwt beam="1">  1        2 0.21916803E+00 0.41882703E+03</pdfrwt>
<pdfrwt beam="2">  1       -2 0.40835335E-02 0.41882703E+03</pdfrwt>
<totfact> 0.40023187E+03</totfact>
</mgrwt>
</event>
<event>
 4    1  0.1300812E-003  0.1961142E+03  0.7818608E-02  0.1153059E+00
         -2   -1    0    0    0  501 -0.00000000000E+00  0.00000000000E+00  0.10350240876E+02  0.10350241190E+02  0.25500000000E-02 0. -1.
          2   -1    0    0  501    0  0.00000000000E+00 -0.00000000000E+00 -0.92898285452E+03  0.92898285452E+03  0.25500000000E-02 0.  1.
    5000001    1    1    2    0    0  0.48763066207E+02  0.35544688024E+02 -0.49142353932E+03  0.50106621965E+03  0.77000000000E+02 0.  0.
   -5000001    1    1    2    0    0 -0.48763066207E+02 -0.35544688024E+02 -0.42720907432E+03  0.43826687606E+03  0.77000000000E+02 0.  0.
<mgrwt>
<rscale>  0 0.19611422E+03</rscale>
<asrwt>0</asrwt>
<pdfrwt beam="1">  1        2 0.13271178E+00 0.19611422E+03</pdfrwt>
<pdfrwt beam="2">  1       -2 0.14786064E-02 0.19611422E+03</pdfrwt>
<totfact> 0.37654237E+04</totfact>
</mgrwt>
</event>
<event>
 4    1  0.1300812E-003  0.1613512E+03  0.7818608E-02  0.1187180E+00
          2   -1    0    0  501    0  0.00000000000E+00  0.00000000000E+00  0.22817294633E+02  0.22817294775E+02  0.25500000000E-02 0.  1.
         -2   -1    0    0    0  501 -0.00000000000E+00 -0.00000000000E+00 -0.28524653399E+03  0.28524653400E+03  0.25500000000E-02 0. -1.
    5000001    1    1    2    0    0 -0.85358070130E+01  0.22372917011E+02 -0.12648099803E+03  0.14999950093E+03  0.77000000000E+02 0.  0.
   -5000001    1    1    2    0    0  0.85358070130E+01 -0.22372917011E+02 -0.13594824133E+03  0.15806432784E+03  0.77000000000E+02 0.  0.
<mgrwt>
<rscale>  0 0.16135122E+03</rscale>
<asrwt>0</asrwt>
<pdfrwt beam="1">  1        2 0.32596137E-02 0.16135122E+03</pdfrwt>
<pdfrwt beam="2">  1       -2 0.40749503E-01 0.16135122E+03</pdfrwt>
<totfact> 0.15226058E+04</totfact>
</mgrwt>
</event>
<event>
 4    1  0.1300812E-003  0.2540201E+03  0.7818608E-02  0.1110790E+00
          2   -1    0    0  501    0  0.00000000000E+00  0.00000000000E+00  0.94156881181E+02  0.94156881216E+02  0.25500000000E-02 0.  1.
         -2   -1    0    0    0  501 -0.00000000000E+00 -0.00000000000E+00 -0.17132639517E+03  0.17132639518E+03  0.25500000000E-02 0. -1.
    5000001    1    1    2    0    0 -0.68449704031E+02  0.74023929917E+02 -0.44998026730E+02  0.13460581931E+03  0.77000000000E+02 0.  0.
   -5000001    1    1    2    0    0  0.68449704031E+02 -0.74023929917E+02 -0.32171487254E+02  0.13087745709E+03  0.77000000000E+02 0.  0.
<mgrwt>
<rscale>  0 0.25402015E+03</rscale>
<asrwt>0</asrwt>
<pdfrwt beam="1">  1        2 0.13450983E-01 0.25402015E+03</pdfrwt>
<pdfrwt beam="2">  1       -2 0.24475199E-01 0.25402015E+03</pdfrwt>
<totfact> 0.64792345E+03</totfact>
</mgrwt>
</event>
<event>
 4    1  0.1300812E-003  0.3182212E+03  0.7818608E-02  0.1076471E+00
          2   -1    0    0  501    0  0.00000000000E+00  0.00000000000E+00  0.88339520133E+03  0.88339520133E+03  0.25500000000E-02 0.  1.
         -2   -1    0    0    0  501 -0.00000000000E+00 -0.00000000000E+00 -0.28657814336E+02  0.28657814449E+02  0.25500000000E-02 0. -1.
    5000001    1    1    2    0    0 -0.11240508138E+03 -0.54283216254E+02  0.25056027509E+03  0.29032916033E+03  0.77000000000E+02 0.  0.
   -5000001    1    1    2    0    0  0.11240508138E+03  0.54283216254E+02  0.60417711190E+03  0.62172385545E+03  0.77000000000E+02 0.  0.
<mgrwt>
<rscale>  0 0.31822115E+03</rscale>
<asrwt>0</asrwt>
<pdfrwt beam="1">  1        2 0.12619929E+00 0.31822115E+03</pdfrwt>
<pdfrwt beam="2">  1       -2 0.40939743E-02 0.31822115E+03</pdfrwt>
<totfact> 0.91395268E+03</totfact>
</mgrwt>
</event>
<event>
 4    1  0.1300812E-003  0.2021911E+03  0.7818608E-02  0.1147903E+00
         -2   -1    0    0    0  501 -0.00000000000E+00  0.00000000000E+00  0.15870270441E+03  0.15870270443E+03  0.25500000000E-02 0. -1.
          2   -1    0    0  501    0  0.00000000000E+00 -0.00000000000E+00 -0.64399081279E+02  0.64399081330E+02  0.25500000000E-02 0.  1.
    5000001    1    1    2    0    0  0.14815199918E+02 -0.45869897937E+02  0.96099061236E+02  0.13224056585E+03  0.77000000000E+02 0.  0.
   -5000001    1    1    2    0    0 -0.14815199918E+02  0.45869897937E+02 -0.17954381081E+01  0.90861219909E+02  0.77000000000E+02 0.  0.
<mgrwt>
<rscale>  0 0.20219108E+03</rscale>
<asrwt>0</asrwt>
<pdfrwt beam="1">  1        2 0.91998687E-02 0.20219108E+03</pdfrwt>
<pdfrwt beam="2">  1       -2 0.22671815E-01 0.20219108E+03</pdfrwt>
<totfact> 0.11635046E+04</totfact>
</mgrwt>
</event>
<event>
 4    1  0.1300812E-003  0.2047633E+03  0.7818608E-02  0.1145781E+00
          2   -1    0    0  501    0  0.00000000000E+00  0.00000000000E+00  0.10331586595E+04  0.10331586595E+04  0.25500000000E-02 0.  1.
         -2   -1    0    0    0  501 -0.00000000000E+00 -0.00000000000E+00 -0.10145586339E+02  0.10145586660E+02  0.25500000000E-02 0. -1.
    5000001    1    1    2    0    0  0.51499346100E+02  0.41810261385E+02  0.44854044018E+03  0.45991065120E+03  0.77000000000E+02 0.  0.
   -5000001    1    1    2    0    0 -0.51499346100E+02 -0.41810261385E+02  0.57447263299E+03  0.58339359497E+03  0.77000000000E+02 0.  0.
<mgrwt>
<rscale>  0 0.20476328E+03</rscale>
<asrwt>0</asrwt>
<pdfrwt beam="1">  1        2 0.14759404E+00 0.20476328E+03</pdfrwt>
<pdfrwt beam="2">  1       -2 0.14493700E-02 0.20476328E+03</pdfrwt>
<totfact> 0.33748394E+04</totfact>
</mgrwt>
</event>
<event>
 4    1  0.1300812E-003  0.7333293E+03  0.7818608E-02  0.9661873E-01
         -2   -1    0    0    0  501 -0.00000000000E+00  0.00000000000E+00  0.37085360845E+02  0.37085360933E+02  0.25500000000E-02 0. -1.
          2   -1    0    0  501    0  0.00000000000E+00 -0.00000000000E+00 -0.36252301129E+04  0.36252301129E+04  0.25500000000E-02 0.  1.
    5000001    1    1    2    0    0  0.22072014453E+03 -0.18986825812E+03 -0.74952291195E+03  0.80776291892E+03  0.77000000000E+02 0.  0.
   -5000001    1    1    2    0    0 -0.22072014453E+03  0.18986825812E+03 -0.28386218401E+04  0.28545525549E+04  0.77000000000E+02 0.  0.
<mgrwt>
<rscale>  0 0.73332930E+03</rscale>
<asrwt>0</asrwt>
<pdfrwt beam="1">  1        2 0.51788979E+00 0.73332930E+03</pdfrwt>
<pdfrwt beam="2">  1       -2 0.52979110E-02 0.73332930E+03</pdfrwt>
<totfact> 0.20341989E+02</totfact>
</mgrwt>
</event>
<event>
 4    1  0.1300812E-003  0.2095154E+03  0.7818608E-02  0.1141950E+00
          2   -1    0    0  501    0  0.00000000000E+00  0.00000000000E+00  0.14576817187E+03  0.14576817189E+03  0.25500000000E-02 0.  1.
         -2   -1    0    0    0  501 -0.00000000000E+00 -0.00000000000E+00 -0.75285135185E+02  0.75285135228E+02  0.25500000000E-02 0. -1.
    5000001    1    1    2    0    0  0.47481875487E+02 -0.46501441443E+02  0.61687039451E+02  0.11895883066E+03  0.77000000000E+02 0.  0.
   -5000001    1    1    2    0    0 -0.47481875487E+02  0.46501441443E+02  0.87959972340E+01  0.10209447646E+03  0.77000000000E+02 0.  0.
<mgrwt>
<rscale>  0 0.20951541E+03</rscale>
<asrwt>0</asrwt>
<pdfrwt beam="1">  1        2 0.20824024E-01 0.20951541E+03</pdfrwt>
<pdfrwt beam="2">  1       -2 0.10755019E-01 0.20951541E+03</pdfrwt>
<totfact> 0.15150850E+04</totfact>
</mgrwt>
</event>
<event>
 4    1  0.1300812E-003  0.2961436E+03  0.7818608E-02  0.1087184E+00
         -2   -1    0    0    0  501 -0.00000000000E+00  0.00000000000E+00  0.17272140215E+02  0.17272140403E+02  0.25500000000E-02 0. -1.
          2   -1    0    0  501    0  0.00000000000E+00 -0.00000000000E+00 -0.12694000917E+04  0.12694000917E+04  0.25500000000E-02 0.  1.
    5000001    1    1    2    0    0 -0.96316522373E+02  0.17425789842E+02 -0.97407138526E+03  0.98200030256E+03  0.77000000000E+02 0.  0.
   -5000001    1    1    2    0    0  0.96316522373E+02 -0.17425789842E+02 -0.27805656619E+03  0.30467192951E+03  0.77000000000E+02 0.  0.
<mgrwt>
<rscale>  0 0.29614359E+03</rscale>
<asrwt>0</asrwt>
<pdfrwt beam="1">  1        2 0.18134281E+00 0.29614359E+03</pdfrwt>
<pdfrwt beam="2">  1       -2 0.24674494E-02 0.29614359E+03</pdfrwt>
<totfact> 0.11661638E+04</totfact>
</mgrwt>
</event>
<event>
 4    1  0.1300812E-003  0.2774704E+03  0.7818608E-02  0.1097079E+00
         -2   -1    0    0    0  501 -0.00000000000E+00  0.00000000000E+00  0.61143637290E+01  0.61143642607E+01  0.25500000000E-02 0. -1.
          2   -1    0    0  501    0  0.00000000000E+00 -0.00000000000E+00 -0.31479069760E+04  0.31479069760E+04  0.25500000000E-02 0.  1.
    5000001    1    1    2    0    0  0.11128370253E+03 -0.29303168576E+02 -0.16698033807E+04  0.16755342635E+04  0.77000000000E+02 0.  0.
   -5000001    1    1    2    0    0 -0.11128370253E+03  0.29303168576E+02 -0.14719892315E+04  0.14784870767E+04  0.77000000000E+02 0.  0.
<mgrwt>
<rscale>  0 0.27747035E+03</rscale>
<asrwt>0</asrwt>
<pdfrwt beam="1">  1        2 0.44969996E+00 0.27747035E+03</pdfrwt>
<pdfrwt beam="2">  1       -2 0.87348259E-03 0.27747035E+03</pdfrwt>
<totfact> 0.60009256E+03</totfact>
</mgrwt>
</event>
<event>
 4    1  0.1300812E-003  0.3628381E+03  0.7818608E-02  0.1057466E+00
          2   -1    0    0  501    0  0.00000000000E+00  0.00000000000E+00  0.28936442047E+03  0.28936442048E+03  0.25500000000E-02 0.  1.
         -2   -1    0    0    0  501 -0.00000000000E+00 -0.00000000000E+00 -0.11374196658E+03  0.11374196661E+03  0.25500000000E-02 0. -1.
    5000001    1    1    2    0    0  0.46032546700E+02 -0.11993772262E+03  0.20154351585E+03  0.25110324857E+03  0.77000000000E+02 0.  0.
   -5000001    1    1    2    0    0 -0.46032546700E+02  0.11993772262E+03 -0.25921061961E+02  0.15200313851E+03  0.77000000000E+02 0.  0.
<mgrwt>
<rscale>  0 0.36283814E+03</rscale>
<asrwt>0</asrwt>
<pdfrwt beam="1">  1        2 0.41337774E-01 0.36283814E+03</pdfrwt>
<pdfrwt beam="2">  1       -2 0.16248852E-01 0.36283814E+03</pdfrwt>
<totfact> 0.37091403E+03</totfact>
</mgrwt>
</event>
<event>
 4    1  0.1300812E-003  0.2215573E+03  0.7818608E-02  0.1132727E+00
          2   -1    0    0  501    0  0.00000000000E+00  0.00000000000E+00  0.37016312243E+03  0.37016312244E+03  0.25500000000E-02 0.  1.
         -2   -1    0    0    0  501 -0.00000000000E+00 -0.00000000000E+00 -0.33152719530E+02  0.33152719628E+02  0.25500000000E-02 0. -1.
    5000001    1    1    2    0    0  0.58909400821E+02  0.51168324534E+02  0.13947052094E+03  0.17739656466E+03  0.77000000000E+02 0.  0.
   -5000001    1    1    2    0    0 -0.58909400821E+02 -0.51168324534E+02  0.19753988196E+03  0.22591927741E+03  0.77000000000E+02 0.  0.
<mgrwt>
<rscale>  0 0.22155734E+03</rscale>
<asrwt>0</asrwt>
<pdfrwt beam="1">  1        2 0.52880443E-01 0.22155734E+03</pdfrwt>
<pdfrwt beam="2">  1       -2 0.47361031E-02 0.22155734E+03</pdfrwt>
<totfact> 0.19564981E+04</totfact>
</mgrwt>
</event>
<event>
 4    1  0.1300812E-003  0.2123213E+03  0.7818608E-02  0.1139741E+00
         -2   -1    0    0    0  501 -0.00000000000E+00  0.00000000000E+00  0.12421634892E+02  0.12421635154E+02  0.25500000000E-02 0. -1.
          2   -1    0    0  501    0  0.00000000000E+00 -0.00000000000E+00 -0.90729508574E+03  0.90729508575E+03  0.25500000000E-02 0.  1.
    5000001    1    1    2    0    0 -0.99555172713E+01 -0.60504002600E+02 -0.61968685724E+03  0.62745569381E+03  0.77000000000E+02 0.  0.
   -5000001    1    1    2    0    0  0.99555172713E+01  0.60504002600E+02 -0.27518659361E+03  0.29226102709E+03  0.77000000000E+02 0.  0.
<mgrwt>
<rscale>  0 0.21232135E+03</rscale>
<asrwt>0</asrwt>
<pdfrwt beam="1">  1        2 0.12961354E+00 0.21232135E+03</pdfrwt>
<pdfrwt beam="2">  1       -2 0.17745199E-02 0.21232135E+03</pdfrwt>
<totfact> 0.29938804E+04</totfact>
</mgrwt>
</event>
<event>
 4    1  0.1300812E-003  0.2876415E+03  0.7818608E-02  0.1091587E+00
          2   -1    0    0  501    0  0.00000000000E+00  0.00000000000E+00  0.15804475571E+04  0.15804475571E+04  0.25500000000E-02 0.  1.
         -2   -1    0    0    0  501 -0.00000000000E+00 -0.00000000000E+00 -0.13087692609E+02  0.13087692857E+02  0.25500000000E-02 0. -1.
    5000001    1    1    2    0    0  0.11666153448E+03  0.22932723507E+02  0.92157914606E+03  0.93240170843E+03  0.77000000000E+02 0.  0.
   -5000001    1    1    2    0    0 -0.11666153448E+03 -0.22932723507E+02  0.64578071841E+03  0.66113354151E+03  0.77000000000E+02 0.  0.
<mgrwt>
<rscale>  0 0.28764153E+03</rscale>
<asrwt>0</asrwt>
<pdfrwt beam="1">  1        2 0.22577829E+00 0.28764153E+03</pdfrwt>
<pdfrwt beam="2">  1       -2 0.18696699E-02 0.28764153E+03</pdfrwt>
<totfact> 0.12144420E+04</totfact>
</mgrwt>
</event>
<event>
 4    1  0.1300812E-003  0.2209459E+03  0.7818608E-02  0.1133180E+00
          2   -1    0    0  501    0  0.00000000000E+00  0.00000000000E+00  0.20550932973E+04  0.20550932973E+04  0.25500000000E-02 0.  1.
         -2   -1    0    0    0  501 -0.00000000000E+00 -0.00000000000E+00 -0.59385487866E+01  0.59385493341E+01  0.25500000000E-02 0. -1.
    5000001    1    1    2    0    0 -0.79146290512E+02 -0.20292934752E+01  0.99986368500E+03  0.10059446515E+04  0.77000000000E+02 0.  0.
   -5000001    1    1    2    0    0  0.79146290512E+02  0.20292934752E+01  0.10492910635E+04  0.10550871951E+04  0.77000000000E+02 0.  0.
<mgrwt>
<rscale>  0 0.22094590E+03</rscale>
<asrwt>0</asrwt>
<pdfrwt beam="1">  1        2 0.29358492E+00 0.22094590E+03</pdfrwt>
<pdfrwt beam="2">  1       -2 0.84836369E-03 0.22094590E+03</pdfrwt>
<totfact> 0.22287197E+04</totfact>
</mgrwt>
</event>
<event>
 4    1  0.1300812E-003  0.3922501E+03  0.7818608E-02  0.1046497E+00
         -2   -1    0    0    0  501 -0.00000000000E+00  0.00000000000E+00  0.29558540075E+03  0.29558540076E+03  0.25500000000E-02 0. -1.
          2   -1    0    0  501    0  0.00000000000E+00 -0.00000000000E+00 -0.13013170675E+03  0.13013170678E+03  0.25500000000E-02 0.  1.
    5000001    1    1    2    0    0 -0.21291894429E+02 -0.17804267195E+03  0.61472985453E+02  0.20459830337E+03  0.77000000000E+02 0.  0.
   -5000001    1    1    2    0    0  0.21291894429E+02  0.17804267195E+03  0.10398070854E+03  0.22111880416E+03  0.77000000000E+02 0.  0.
<mgrwt>
<rscale>  0 0.39225009E+03</rscale>
<asrwt>0</asrwt>
<pdfrwt beam="1">  1        2 0.18590244E-01 0.39225009E+03</pdfrwt>
<pdfrwt beam="2">  1       -2 0.42226486E-01 0.39225009E+03</pdfrwt>
<totfact> 0.16342718E+03</totfact>
</mgrwt>
</event>
<event>
 4    1  0.1300812E-003  0.1735835E+03  0.7818608E-02  0.1174162E+00
          2   -1    0    0  501    0  0.00000000000E+00  0.00000000000E+00  0.19613932326E+03  0.19613932327E+03  0.25500000000E-02 0.  1.
         -2   -1    0    0    0  501 -0.00000000000E+00 -0.00000000000E+00 -0.38405402311E+02  0.38405402395E+02  0.25500000000E-02 0. -1.
    5000001    1    1    2    0    0  0.35919846418E+02  0.10739165317E+02  0.97891662092E+02  0.13006668500E+03  0.77000000000E+02 0.  0.
   -5000001    1    1    2    0    0 -0.35919846418E+02 -0.10739165317E+02  0.59842258855E+02  0.10447804067E+03  0.77000000000E+02 0.  0.
<mgrwt>
<rscale>  0 0.17358352E+03</rscale>
<asrwt>0</asrwt>
<pdfrwt beam="1">  1        2 0.28019903E-01 0.17358352E+03</pdfrwt>
<pdfrwt beam="2">  1       -2 0.54864861E-02 0.17358352E+03</pdfrwt>
<totfact> 0.30438693E+04</totfact>
</mgrwt>
</event>
<event>
 4    1  0.1300812E-003  0.1943060E+03  0.7818608E-02  0.1154634E+00
         -2   -1    0    0    0  501 -0.00000000000E+00  0.00000000000E+00  0.12222820936E+02  0.12222821202E+02  0.25500000000E-02 0. -1.
          2   -1    0    0  501    0  0.00000000000E+00 -0.00000000000E+00 -0.77221977000E+03  0.77221977001E+03  0.25500000000E-02 0.  1.
    5000001    1    1    2    0    0  0.52632054362E+02 -0.24920652469E+02 -0.33604504030E+03  0.34963758547E+03  0.77000000000E+02 0.  0.
   -5000001    1    1    2    0    0 -0.52632054362E+02  0.24920652469E+02 -0.42395190877E+03  0.43480500574E+03  0.77000000000E+02 0.  0.
<mgrwt>
<rscale>  0 0.19430599E+03</rscale>
<asrwt>0</asrwt>
<pdfrwt beam="1">  1        2 0.11031708E+00 0.19430599E+03</pdfrwt>
<pdfrwt beam="2">  1       -2 0.17461178E-02 0.19430599E+03</pdfrwt>
<totfact> 0.37242201E+04</totfact>
</mgrwt>
</event>
<event>
 4    1  0.1300812E-003  0.2993297E+03  0.7818608E-02  0.1085576E+00
          2   -1    0    0  501    0  0.00000000000E+00  0.00000000000E+00  0.21956277099E+03  0.21956277101E+03  0.25500000000E-02 0.  1.
         -2   -1    0    0    0  501 -0.00000000000E+00 -0.00000000000E+00 -0.10201896634E+03  0.10201896637E+03  0.25500000000E-02 0. -1.
    5000001    1    1    2    0    0 -0.44181161502E+02 -0.11681737608E+03  0.90502091092E+02  0.17238881309E+03  0.77000000000E+02 0.  0.
   -5000001    1    1    2    0    0  0.44181161502E+02  0.11681737608E+03  0.27041713562E+02  0.14919292429E+03  0.77000000000E+02 0.  0.
<mgrwt>
<rscale>  0 0.29932970E+03</rscale>
<asrwt>0</asrwt>
<pdfrwt beam="1">  1        2 0.31366110E-01 0.29932970E+03</pdfrwt>
<pdfrwt beam="2">  1       -2 0.14574138E-01 0.29932970E+03</pdfrwt>
<totfact> 0.59749061E+03</totfact>
</mgrwt>
</event>
<event>
 4    1  0.1300812E-003  0.8576416E+03  0.7818608E-02  0.9480138E-01
         -2   -1    0    0    0  501 -0.00000000000E+00  0.00000000000E+00  0.71851351923E+03  0.71851351924E+03  0.25500000000E-02 0. -1.
          2   -1    0    0  501    0  0.00000000000E+00 -0.00000000000E+00 -0.25592740292E+03  0.25592740293E+03  0.25500000000E-02 0.  1.
    5000001    1    1    2    0    0  0.25411146633E+03 -0.19759677858E+03  0.54108089443E+03  0.63428279068E+03  0.77000000000E+02 0.  0.
   -5000001    1    1    2    0    0 -0.25411146633E+03  0.19759677858E+03 -0.78494778119E+02  0.34015813149E+03  0.77000000000E+02 0.  0.
<mgrwt>
<rscale>  0 0.85764165E+03</rscale>
<asrwt>0</asrwt>
<pdfrwt beam="1">  1        2 0.36561057E-01 0.85764165E+03</pdfrwt>
<pdfrwt beam="2">  1       -2 0.10264479E+00 0.85764165E+03</pdfrwt>
<totfact> 0.11112009E+02</totfact>
</mgrwt>
</event>
<event>
 4    1  0.1300812E-003  0.2493736E+03  0.7818608E-02  0.1113701E+00
          2   -1    0    0  501    0  0.00000000000E+00  0.00000000000E+00  0.19592018037E+04  0.19592018037E+04  0.25500000000E-02 0.  1.
         -2   -1    0    0    0  501 -0.00000000000E+00 -0.00000000000E+00 -0.79352722471E+01  0.79352726568E+01  0.25500000000E-02 0. -1.
    5000001    1    1    2    0    0  0.72041018924E+02  0.42500225590E+02  0.57173759260E+03  0.58293143025E+03  0.77000000000E+02 0.  0.
   -5000001    1    1    2    0    0 -0.72041018924E+02 -0.42500225590E+02  0.13795289389E+04  0.13842056462E+04  0.77000000000E+02 0.  0.
<mgrwt>
<rscale>  0 0.24937362E+03</rscale>
<asrwt>0</asrwt>
<pdfrwt beam="1">  1        2 0.27988616E+00 0.24937362E+03</pdfrwt>
<pdfrwt beam="2">  1       -2 0.11336096E-02 0.24937362E+03</pdfrwt>
<totfact> 0.16375206E+04</totfact>
</mgrwt>
</event>
<event>
 4    1  0.1300812E-003  0.8308556E+03  0.7818608E-02  0.9516398E-01
          2   -1    0    0  501    0  0.00000000000E+00  0.00000000000E+00  0.27688355913E+04  0.27688355913E+04  0.25500000000E-02 0.  1.
         -2   -1    0    0    0  501 -0.00000000000E+00 -0.00000000000E+00 -0.62329545713E+02  0.62329545765E+02  0.25500000000E-02 0. -1.
    5000001    1    1    2    0    0  0.39919120501E+03 -0.70936958745E+02  0.11910605414E+04  0.12605315877E+04  0.77000000000E+02 0.  0.
   -5000001    1    1    2    0    0 -0.39919120501E+03  0.70936958745E+02  0.15154455041E+04  0.15706335493E+04  0.77000000000E+02 0.  0.
<mgrwt>
<rscale>  0 0.83085562E+03</rscale>
<asrwt>0</asrwt>
<pdfrwt beam="1">  1        2 0.39554790E+00 0.83085562E+03</pdfrwt>
<pdfrwt beam="2">  1       -2 0.89042218E-02 0.83085562E+03</pdfrwt>
<totfact> 0.27070738E+02</totfact>
</mgrwt>
</event>
<event>
 4    1  0.1300812E-003  0.1592016E+03  0.7818608E-02  0.1189601E+00
          2   -1    0    0  501    0  0.00000000000E+00  0.00000000000E+00  0.33523927870E+03  0.33523927870E+03  0.25500000000E-02 0.  1.
         -2   -1    0    0    0  501 -0.00000000000E+00 -0.00000000000E+00 -0.18900791358E+02  0.18900791530E+02  0.25500000000E-02 0. -1.
    5000001    1    1    2    0    0 -0.84683960651E+01  0.14826297029E+02  0.13423623593E+03  0.15569168203E+03  0.77000000000E+02 0.  0.
   -5000001    1    1    2    0    0  0.84683960651E+01 -0.14826297029E+02  0.18210225140E+03  0.19844838821E+03  0.77000000000E+02 0.  0.
<mgrwt>
<rscale>  0 0.15920160E+03</rscale>
<asrwt>0</asrwt>
<pdfrwt beam="1">  1        2 0.47891328E-01 0.15920160E+03</pdfrwt>
<pdfrwt beam="2">  1       -2 0.27001129E-02 0.15920160E+03</pdfrwt>
<totfact> 0.48793578E+04</totfact>
</mgrwt>
</event>
<event>
 4    1  0.1300812E-003  0.3618209E+03  0.7818608E-02  0.1057865E+00
          2   -1    0    0  501    0  0.00000000000E+00  0.00000000000E+00  0.19327857682E+04  0.19327857682E+04  0.25500000000E-02 0.  1.
         -2   -1    0    0    0  501 -0.00000000000E+00 -0.00000000000E+00 -0.16933376125E+02  0.16933376317E+02  0.25500000000E-02 0. -1.
    5000001    1    1    2    0    0 -0.10532536323E+03  0.44524233549E+01  0.28302666191E+03  0.31168308835E+03  0.77000000000E+02 0.  0.
   -5000001    1    1    2    0    0  0.10532536323E+03 -0.44524233549E+01  0.16328257302E+04  0.16380360562E+04  0.77000000000E+02 0.  0.
<mgrwt>
<rscale>  0 0.36182089E+03</rscale>
<asrwt>0</asrwt>
<pdfrwt beam="1">  1        2 0.27611211E+00 0.36182089E+03</pdfrwt>
<pdfrwt beam="2">  1       -2 0.24190550E-02 0.36182089E+03</pdfrwt>
<totfact> 0.55653591E+03</totfact>
</mgrwt>
</event>
<event>
 4    1  0.1300812E-003  0.1769737E+03  0.7818608E-02  0.1170764E+00
         -2   -1    0    0    0  501 -0.00000000000E+00  0.00000000000E+00  0.67212445497E+03  0.67212445498E+03  0.25500000000E-02 0. -1.
          2   -1    0    0  501    0  0.00000000000E+00 -0.00000000000E+00 -0.11649518474E+02  0.11649518753E+02  0.25500000000E-02 0.  1.
    5000001    1    1    2    0    0  0.39918398723E+02 -0.13320282506E+02  0.37429348761E+03  0.38444183351E+03  0.77000000000E+02 0.  0.
   -5000001    1    1    2    0    0 -0.39918398723E+02  0.13320282506E+02  0.28618144888E+03  0.29933214022E+03  0.77000000000E+02 0.  0.
<mgrwt>
<rscale>  0 0.17697374E+03</rscale>
<asrwt>0</asrwt>
<pdfrwt beam="1">  1        2 0.16642165E-02 0.17697374E+03</pdfrwt>
<pdfrwt beam="2">  1       -2 0.96017803E-01 0.17697374E+03</pdfrwt>
<totfact> 0.64330398E+03</totfact>
</mgrwt>
</event>
<event>
 4    1  0.1300812E-003  0.4090301E+03  0.7818608E-02  0.1040697E+00
          2   -1    0    0  501    0  0.00000000000E+00  0.00000000000E+00  0.66437749010E+03  0.66437749011E+03  0.25500000000E-02 0.  1.
         -2   -1    0    0    0  501 -0.00000000000E+00 -0.00000000000E+00 -0.62955776904E+02  0.62955776955E+02  0.25500000000E-02 0. -1.
    5000001    1    1    2    0    0 -0.54417499321E+02  0.14342226796E+03  0.49845160022E+03  0.52717569077E+03  0.77000000000E+02 0.  0.
   -5000001    1    1    2    0    0  0.54417499321E+02 -0.14342226796E+03  0.10297011298E+03  0.20015757629E+03  0.77000000000E+02 0.  0.
<mgrwt>
<rscale>  0 0.40903008E+03</rscale>
<asrwt>0</asrwt>
<pdfrwt beam="1">  1        2 0.94911063E-01 0.40903008E+03</pdfrwt>
<pdfrwt beam="2">  1       -2 0.89936831E-02 0.40903008E+03</pdfrwt>
<totfact> 0.38645025E+03</totfact>
</mgrwt>
</event>
<event>
 4    1  0.1300812E-003  0.1767925E+03  0.7818608E-02  0.1170944E+00
         -2   -1    0    0    0  501 -0.00000000000E+00  0.00000000000E+00  0.19101774057E+02  0.19101774227E+02  0.25500000000E-02 0. -1.
          2   -1    0    0  501    0  0.00000000000E+00 -0.00000000000E+00 -0.40906636922E+03  0.40906636922E+03  0.25500000000E-02 0.  1.
    5000001    1    1    2    0    0  0.30353098707E+02  0.26631614003E+02 -0.23360635465E+03  0.24926187514E+03  0.77000000000E+02 0.  0.
   -5000001    1    1    2    0    0 -0.30353098707E+02 -0.26631614003E+02 -0.15635824051E+03  0.17890626831E+03  0.77000000000E+02 0.  0.
<mgrwt>
<rscale>  0 0.17679246E+03</rscale>
<asrwt>0</asrwt>
<pdfrwt beam="1">  1        2 0.58438048E-01 0.17679246E+03</pdfrwt>
<pdfrwt beam="2">  1       -2 0.27288251E-02 0.17679246E+03</pdfrwt>
<totfact> 0.39249680E+04</totfact>
</mgrwt>
</event>
<event>
 4    1  0.1300812E-003  0.1673140E+03  0.7818608E-02  0.1180678E+00
         -2   -1    0    0    0  501 -0.00000000000E+00  0.00000000000E+00  0.18800653152E+03  0.18800653154E+03  0.25500000000E-02 0. -1.
          2   -1    0    0  501    0  0.00000000000E+00 -0.00000000000E+00 -0.37224744860E+02  0.37224744947E+02  0.25500000000E-02 0.  1.
    5000001    1    1    2    0    0 -0.20019283081E+02 -0.20126274528E+02  0.53532629790E+02  0.97982554946E+02  0.77000000000E+02 0.  0.
   -5000001    1    1    2    0    0  0.20019283081E+02  0.20126274528E+02  0.97249156875E+02  0.12724872154E+03  0.77000000000E+02 0.  0.
<mgrwt>
<rscale>  0 0.16731402E+03</rscale>
<asrwt>0</asrwt>
<pdfrwt beam="1">  1        2 0.53178208E-02 0.16731402E+03</pdfrwt>
<pdfrwt beam="2">  1       -2 0.26858076E-01 0.16731402E+03</pdfrwt>
<totfact> 0.17157494E+04</totfact>
</mgrwt>
</event>
<event>
 4    1  0.1300812E-003  0.2078585E+03  0.7818608E-02  0.1143273E+00
         -2   -1    0    0    0  501 -0.00000000000E+00  0.00000000000E+00  0.45162812824E+02  0.45162812896E+02  0.25500000000E-02 0. -1.
          2   -1    0    0  501    0  0.00000000000E+00 -0.00000000000E+00 -0.23916325078E+03  0.23916325079E+03  0.25500000000E-02 0.  1.
    5000001    1    1    2    0    0 -0.33918172907E+02 -0.60312342628E+02 -0.84443677517E+02  0.13359549318E+03  0.77000000000E+02 0.  0.
   -5000001    1    1    2    0    0  0.33918172907E+02  0.60312342628E+02 -0.10955676044E+03  0.15073057050E+03  0.77000000000E+02 0.  0.
<mgrwt>
<rscale>  0 0.20785846E+03</rscale>
<asrwt>0</asrwt>
<pdfrwt beam="1">  1        2 0.34166178E-01 0.20785846E+03</pdfrwt>
<pdfrwt beam="2">  1       -2 0.64518306E-02 0.20785846E+03</pdfrwt>
<totfact> 0.19449331E+04</totfact>
</mgrwt>
</event>
<event>
 4    1  0.1300812E-003  0.3709135E+03  0.7818608E-02  0.1054344E+00
         -2   -1    0    0    0  501 -0.00000000000E+00  0.00000000000E+00  0.96644232898E+02  0.96644232931E+02  0.25500000000E-02 0. -1.
          2   -1    0    0  501    0  0.00000000000E+00 -0.00000000000E+00 -0.35588475854E+03  0.35588475855E+03  0.25500000000E-02 0.  1.
    5000001    1    1    2    0    0 -0.39514402451E+02  0.15653763557E+03 -0.18938711447E+03  0.26050316404E+03  0.77000000000E+02 0.  0.
   -5000001    1    1    2    0    0  0.39514402451E+02 -0.15653763557E+03 -0.69853411171E+02  0.19202582743E+03  0.77000000000E+02 0.  0.
<mgrwt>
<rscale>  0 0.37091352E+03</rscale>
<asrwt>0</asrwt>
<pdfrwt beam="1">  1        2 0.50840679E-01 0.37091352E+03</pdfrwt>
<pdfrwt beam="2">  1       -2 0.13806319E-01 0.37091352E+03</pdfrwt>
<totfact> 0.38862470E+03</totfact>
</mgrwt>
</event>
<event>
 4    1  0.1300812E-003  0.2141529E+03  0.7818608E-02  0.1138319E+00
         -2   -1    0    0    0  501 -0.00000000000E+00  0.00000000000E+00  0.36900046819E+03  0.36900046820E+03  0.25500000000E-02 0. -1.
          2   -1    0    0  501    0  0.00000000000E+00 -0.00000000000E+00 -0.31071427398E+02  0.31071427503E+02  0.25500000000E-02 0.  1.
    5000001    1    1    2    0    0 -0.62911781647E+02  0.20751317491E+02  0.23225797416E+03  0.25349807890E+03  0.77000000000E+02 0.  0.
   -5000001    1    1    2    0    0  0.62911781647E+02 -0.20751317491E+02  0.10567106664E+03  0.14657381680E+03  0.77000000000E+02 0.  0.
<mgrwt>
<rscale>  0 0.21415295E+03</rscale>
<asrwt>0</asrwt>
<pdfrwt beam="1">  1        2 0.44387757E-02 0.21415295E+03</pdfrwt>
<pdfrwt beam="2">  1       -2 0.52714349E-01 0.21415295E+03</pdfrwt>
<totfact> 0.62278588E+03</totfact>
</mgrwt>
</event>
<event>
 4    1  0.1300812E-003  0.2356036E+03  0.7818608E-02  0.1122757E+00
          2   -1    0    0  501    0  0.00000000000E+00  0.00000000000E+00  0.85725533758E+02  0.85725533796E+02  0.25500000000E-02 0.  1.
         -2   -1    0    0    0  501 -0.00000000000E+00 -0.00000000000E+00 -0.16188012874E+03  0.16188012876E+03  0.25500000000E-02 0. -1.
    5000001    1    1    2    0    0  0.44868630189E+02 -0.70328130099E+02 -0.71128051654E+02  0.13396805437E+03  0.77000000000E+02 0.  0.
   -5000001    1    1    2    0    0 -0.44868630189E+02  0.70328130099E+02 -0.50265433313E+01  0.11363760819E+03  0.77000000000E+02 0.  0.
<mgrwt>
<rscale>  0 0.23560357E+03</rscale>
<asrwt>0</asrwt>
<pdfrwt beam="1">  1        2 0.12246505E-01 0.23560357E+03</pdfrwt>
<pdfrwt beam="2">  1       -2 0.23125733E-01 0.23560357E+03</pdfrwt>
<totfact> 0.79826498E+03</totfact>
</mgrwt>
</event>
<event>
 4    1  0.1300812E-003  0.1987656E+03  0.7818608E-02  0.1150785E+00
          2   -1    0    0  501    0  0.00000000000E+00  0.00000000000E+00  0.34964235565E+03  0.34964235566E+03  0.25500000000E-02 0.  1.
         -2   -1    0    0    0  501 -0.00000000000E+00 -0.00000000000E+00 -0.28248708342E+02  0.28248708457E+02  0.25500000000E-02 0. -1.
    5000001    1    1    2    0    0 -0.11532739001E+01  0.49135003292E+02  0.86273919159E+02  0.12564938407E+03  0.77000000000E+02 0.  0.
   -5000001    1    1    2    0    0  0.11532739001E+01 -0.49135003292E+02  0.23511972815E+03  0.25224168005E+03  0.77000000000E+02 0.  0.
<mgrwt>
<rscale>  0 0.19876564E+03</rscale>
<asrwt>0</asrwt>
<pdfrwt beam="1">  1        2 0.49948909E-01 0.19876564E+03</pdfrwt>
<pdfrwt beam="2">  1       -2 0.40355297E-02 0.19876564E+03</pdfrwt>
<totfact> 0.26248481E+04</totfact>
</mgrwt>
</event>
<event>
 4    1  0.1300812E-003  0.2716561E+03  0.7818608E-02  0.1100335E+00
         -2   -1    0    0    0  501 -0.00000000000E+00  0.00000000000E+00  0.11785126252E+02  0.11785126528E+02  0.25500000000E-02 0. -1.
          2   -1    0    0  501    0  0.00000000000E+00 -0.00000000000E+00 -0.15654700751E+04  0.15654700751E+04  0.25500000000E-02 0.  1.
    5000001    1    1    2    0    0  0.10233567015E+03 -0.44935680324E+02 -0.74586940578E+03  0.75811738882E+03  0.77000000000E+02 0.  0.
   -5000001    1    1    2    0    0 -0.10233567015E+03  0.44935680324E+02 -0.80781554305E+03  0.81913781279E+03  0.77000000000E+02 0.  0.
<mgrwt>
<rscale>  0 0.27165613E+03</rscale>
<asrwt>0</asrwt>
<pdfrwt beam="1">  1        2 0.22363845E+00 0.27165613E+03</pdfrwt>
<pdfrwt beam="2">  1       -2 0.16835905E-02 0.27165613E+03</pdfrwt>
<totfact> 0.14389493E+04</totfact>
</mgrwt>
</event>
<event>
 4    1  0.1300812E-003  0.3050663E+03  0.7818608E-02  0.1082735E+00
         -2   -1    0    0    0  501 -0.00000000000E+00  0.00000000000E+00  0.22548692147E+02  0.22548692291E+02  0.25500000000E-02 0. -1.
          2   -1    0    0  501    0  0.00000000000E+00 -0.00000000000E+00 -0.10318272467E+04  0.10318272467E+04  0.25500000000E-02 0.  1.
    5000001    1    1    2    0    0  0.10073473481E+03 -0.71819966886E+02 -0.34884999384E+03  0.37806204867E+03  0.77000000000E+02 0.  0.
   -5000001    1    1    2    0    0 -0.10073473481E+03  0.71819966886E+02 -0.66042856073E+03  0.67631389035E+03  0.77000000000E+02 0.  0.
<mgrwt>
<rscale>  0 0.30506626E+03</rscale>
<asrwt>0</asrwt>
<pdfrwt beam="1">  1        2 0.14740386E+00 0.30506626E+03</pdfrwt>
<pdfrwt beam="2">  1       -2 0.32212424E-02 0.30506626E+03</pdfrwt>
<totfact> 0.10634504E+04</totfact>
</mgrwt>
</event>
<event>
 4    1  0.1300812E-003  0.1878147E+03  0.7818608E-02  0.1160447E+00
         -2   -1    0    0    0  501 -0.00000000000E+00  0.00000000000E+00  0.55680673044E+01  0.55680678883E+01  0.25500000000E-02 0. -1.
          2   -1    0    0  501    0  0.00000000000E+00 -0.00000000000E+00 -0.15837790721E+04  0.15837790721E+04  0.25500000000E-02 0.  1.
    5000001    1    1    2    0    0 -0.37866738246E+02  0.85639385960E+01 -0.47447596732E+03  0.48224856088E+03  0.77000000000E+02 0.  0.
   -5000001    1    1    2    0    0  0.37866738246E+02 -0.85639385960E+01 -0.11037350374E+04  0.11070985791E+04  0.77000000000E+02 0.  0.
<mgrwt>
<rscale>  0 0.18781468E+03</rscale>
<asrwt>0</asrwt>
<pdfrwt beam="1">  1        2 0.22625387E+00 0.18781468E+03</pdfrwt>
<pdfrwt beam="2">  1       -2 0.79543924E-03 0.18781468E+03</pdfrwt>
<totfact> 0.41048204E+04</totfact>
</mgrwt>
</event>
<event>
 4    1  0.1300812E-003  0.1779964E+03  0.7818608E-02  0.1169756E+00
         -2   -1    0    0    0  501 -0.00000000000E+00  0.00000000000E+00  0.28396192830E+01  0.28396204280E+01  0.25500000000E-02 0. -1.
          2   -1    0    0  501    0  0.00000000000E+00 -0.00000000000E+00 -0.27893438484E+04  0.27893438484E+04  0.25500000000E-02 0.  1.
    5000001    1    1    2    0    0 -0.16102968759E+02 -0.40427186422E+02 -0.15485534011E+04  0.15510771416E+04  0.77000000000E+02 0.  0.
   -5000001    1    1    2    0    0  0.16102968759E+02  0.40427186422E+02 -0.12379508280E+04  0.12411063272E+04  0.77000000000E+02 0.  0.
<mgrwt>
<rscale>  0 0.17799636E+03</rscale>
<asrwt>0</asrwt>
<pdfrwt beam="1">  1        2 0.39847594E+00 0.17799636E+03</pdfrwt>
<pdfrwt beam="2">  1       -2 0.40566177E-03 0.17799636E+03</pdfrwt>
<totfact> 0.27664947E+04</totfact>
</mgrwt>
</event>
<event>
 4    1  0.1300812E-003  0.6337189E+03  0.7818608E-02  0.9837818E-01
          2   -1    0    0  501    0  0.00000000000E+00  0.00000000000E+00  0.12453213958E+04  0.12453213958E+04  0.25500000000E-02 0.  1.
         -2   -1    0    0    0  501 -0.00000000000E+00 -0.00000000000E+00 -0.80621686036E+02  0.80621686076E+02  0.25500000000E-02 0. -1.
    5000001    1    1    2    0    0  0.43741672845E+02  0.30399305869E+03  0.60761387343E+03  0.68516328919E+03  0.77000000000E+02 0.  0.
   -5000001    1    1    2    0    0 -0.43741672845E+02 -0.30399305869E+03  0.55708583634E+03  0.64077979269E+03  0.77000000000E+02 0.  0.
<mgrwt>
<rscale>  0 0.63371890E+03</rscale>
<asrwt>0</asrwt>
<pdfrwt beam="1">  1        2 0.17790305E+00 0.63371890E+03</pdfrwt>
<pdfrwt beam="2">  1       -2 0.11517384E-01 0.63371890E+03</pdfrwt>
<totfact> 0.11064358E+03</totfact>
</mgrwt>
</event>
<event>
 4    1  0.1300812E-003  0.2569340E+03  0.7818608E-02  0.1108999E+00
         -2   -1    0    0    0  501 -0.00000000000E+00  0.00000000000E+00  0.35896583421E+02  0.35896583511E+02  0.25500000000E-02 0. -1.
          2   -1    0    0  501    0  0.00000000000E+00 -0.00000000000E+00 -0.45975862357E+03  0.45975862358E+03  0.25500000000E-02 0.  1.
    5000001    1    1    2    0    0  0.99462689586E+02  0.22595710020E+02 -0.18667720817E+03  0.22623167944E+03  0.77000000000E+02 0.  0.
   -5000001    1    1    2    0    0 -0.99462689586E+02 -0.22595710020E+02 -0.23718483198E+03  0.26942352766E+03  0.77000000000E+02 0.  0.
<mgrwt>
<rscale>  0 0.25693395E+03</rscale>
<asrwt>0</asrwt>
<pdfrwt beam="1">  1        2 0.65679800E-01 0.25693395E+03</pdfrwt>
<pdfrwt beam="2">  1       -2 0.51280836E-02 0.25693395E+03</pdfrwt>
<totfact> 0.13839390E+04</totfact>
</mgrwt>
</event>
<event>
 4    1  0.1300812E-003  0.1735019E+03  0.7818608E-02  0.1174244E+00
          2   -1    0    0  501    0  0.00000000000E+00  0.00000000000E+00  0.41550124453E+02  0.41550124531E+02  0.25500000000E-02 0.  1.
         -2   -1    0    0    0  501 -0.00000000000E+00 -0.00000000000E+00 -0.18112397818E+03  0.18112397820E+03  0.25500000000E-02 0. -1.
    5000001    1    1    2    0    0  0.11275344550E+02  0.38272279025E+02 -0.66968355029E+02  0.10957034869E+03  0.77000000000E+02 0.  0.
   -5000001    1    1    2    0    0 -0.11275344550E+02 -0.38272279025E+02 -0.72605498696E+02  0.11310375404E+03  0.77000000000E+02 0.  0.
<mgrwt>
<rscale>  0 0.17350186E+03</rscale>
<asrwt>0</asrwt>
<pdfrwt beam="1">  1        2 0.59357321E-02 0.17350186E+03</pdfrwt>
<pdfrwt beam="2">  1       -2 0.25874854E-01 0.17350186E+03</pdfrwt>
<totfact> 0.15936645E+04</totfact>
</mgrwt>
</event>
<event>
 4    1  0.1300812E-003  0.2346410E+03  0.7818608E-02  0.1123415E+00
         -2   -1    0    0    0  501 -0.00000000000E+00  0.00000000000E+00  0.25146055969E+04  0.25146055969E+04  0.25500000000E-02 0. -1.
          2   -1    0    0  501    0  0.00000000000E+00 -0.00000000000E+00 -0.54736601043E+01  0.54736606983E+01  0.25500000000E-02 0.  1.
    5000001    1    1    2    0    0 -0.21232564043E+02  0.85351819610E+02  0.11475182976E+04  0.11534569772E+04  0.77000000000E+02 0.  0.
   -5000001    1    1    2    0    0  0.21232564043E+02 -0.85351819610E+02  0.13616136392E+04  0.13666222804E+04  0.77000000000E+02 0.  0.
<mgrwt>
<rscale>  0 0.23464098E+03</rscale>
<asrwt>0</asrwt>
<pdfrwt beam="1">  1        2 0.78195054E-03 0.23464098E+03</pdfrwt>
<pdfrwt beam="2">  1       -2 0.35922981E+00 0.23464098E+03</pdfrwt>
<totfact> 0.33122753E+02</totfact>
</mgrwt>
</event>
<event>
 4    1  0.1300812E-003  0.1972907E+03  0.7818608E-02  0.1152045E+00
          2   -1    0    0  501    0  0.00000000000E+00  0.00000000000E+00  0.24404388348E+04  0.24404388348E+04  0.25500000000E-02 0.  1.
         -2   -1    0    0    0  501 -0.00000000000E+00 -0.00000000000E+00 -0.39873573490E+01  0.39873581644E+01  0.25500000000E-02 0. -1.
    5000001    1    1    2    0    0 -0.18049196867E+02 -0.13375450227E+01  0.19485345448E+04  0.19501393373E+04  0.77000000000E+02 0.  0.
   -5000001    1    1    2    0    0  0.18049196867E+02  0.13375450227E+01  0.48791693263E+03  0.49428685566E+03  0.77000000000E+02 0.  0.
<mgrwt>
<rscale>  0 0.19729068E+03</rscale>
<asrwt>0</asrwt>
<pdfrwt beam="1">  1        2 0.34863528E+00 0.19729068E+03</pdfrwt>
<pdfrwt beam="2">  1       -2 0.56962064E-03 0.19729068E+03</pdfrwt>
<totfact> 0.25540827E+04</totfact>
</mgrwt>
</event>
<event>
 4    1  0.1300812E-003  0.2572064E+03  0.7818608E-02  0.1108833E+00
         -2   -1    0    0    0  501 -0.00000000000E+00  0.00000000000E+00  0.99289122864E+01  0.99289126139E+01  0.25500000000E-02 0. -1.
          2   -1    0    0  501    0  0.00000000000E+00 -0.00000000000E+00 -0.16657190018E+04  0.16657190018E+04  0.25500000000E-02 0.  1.
    5000001    1    1    2    0    0  0.23867869201E+02 -0.70613217855E+02 -0.12910361985E+04  0.12954765021E+04  0.77000000000E+02 0.  0.
   -5000001    1    1    2    0    0 -0.23867869201E+02  0.70613217855E+02 -0.36475389105E+03  0.38017141233E+03  0.77000000000E+02 0.  0.
<mgrwt>
<rscale>  0 0.25720636E+03</rscale>
<asrwt>0</asrwt>
<pdfrwt beam="1">  1        2 0.23795968E+00 0.25720636E+03</pdfrwt>
<pdfrwt beam="2">  1       -2 0.14184171E-02 0.25720636E+03</pdfrwt>
<totfact> 0.16456889E+04</totfact>
</mgrwt>
</event>
<event>
 4    1  0.1300812E-003  0.2979571E+03  0.7818608E-02  0.1086266E+00
         -2   -1    0    0    0  501 -0.00000000000E+00  0.00000000000E+00  0.26308034456E+02  0.26308034580E+02  0.25500000000E-02 0. -1.
          2   -1    0    0  501    0  0.00000000000E+00 -0.00000000000E+00 -0.84364362466E+03  0.84364362467E+03  0.25500000000E-02 0.  1.
    5000001    1    1    2    0    0  0.68149286731E+02 -0.40770109578E+02 -0.70004192295E+03  0.70872718376E+03  0.77000000000E+02 0.  0.
   -5000001    1    1    2    0    0 -0.68149286731E+02  0.40770109578E+02 -0.11729366726E+03  0.16122447549E+03  0.77000000000E+02 0.  0.
<mgrwt>
<rscale>  0 0.29795708E+03</rscale>
<asrwt>0</asrwt>
<pdfrwt beam="1">  1        2 0.12052050E+00 0.29795708E+03</pdfrwt>
<pdfrwt beam="2">  1       -2 0.37582912E-02 0.29795708E+03</pdfrwt>
<totfact> 0.11006439E+04</totfact>
</mgrwt>
</event>
<event>
 4    1  0.1300812E-003  0.2104954E+03  0.7818608E-02  0.1141174E+00
         -2   -1    0    0    0  501 -0.00000000000E+00  0.00000000000E+00  0.98518243278E+02  0.98518243311E+02  0.25500000000E-02 0. -1.
          2   -1    0    0  501    0  0.00000000000E+00 -0.00000000000E+00 -0.11243680458E+03  0.11243680461E+03  0.25500000000E-02 0.  1.
    5000001    1    1    2    0    0 -0.33228334343E+02  0.39319849705E+02  0.43128892731E+02  0.10217276629E+03  0.77000000000E+02 0.  0.
   -5000001    1    1    2    0    0  0.33228334343E+02 -0.39319849705E+02 -0.57047454034E+02  0.10878228163E+03  0.77000000000E+02 0.  0.
<mgrwt>
<rscale>  0 0.21049538E+03</rscale>
<asrwt>0</asrwt>
<pdfrwt beam="1">  1        2 0.16062401E-01 0.21049538E+03</pdfrwt>
<pdfrwt beam="2">  1       -2 0.14074035E-01 0.21049538E+03</pdfrwt>
<totfact> 0.13248155E+04</totfact>
</mgrwt>
</event>
<event>
 4    1  0.1300812E-003  0.3993697E+03  0.7818608E-02  0.1043998E+00
          2   -1    0    0  501    0  0.00000000000E+00  0.00000000000E+00  0.20021341827E+04  0.20021341827E+04  0.25500000000E-02 0. -1.
         -2   -1    0    0    0  501 -0.00000000000E+00 -0.00000000000E+00 -0.19915765401E+02  0.19915765565E+02  0.25500000000E-02 0.  1.
    5000001    1    1    2    0    0  0.15766032309E+03 -0.95073380999E+02  0.10266627233E+04  0.10458781347E+04  0.77000000000E+02 0.  0.
   -5000001    1    1    2    0    0 -0.15766032309E+03  0.95073380999E+02  0.95555569400E+03  0.97617181356E+03  0.77000000000E+02 0.  0.
<mgrwt>
<rscale>  0 0.39936968E+03</rscale>
<asrwt>0</asrwt>
<pdfrwt beam="1">  1        2 0.28601894E+00 0.39936968E+03</pdfrwt>
<pdfrwt beam="2">  1       -2 0.28451116E-02 0.39936968E+03</pdfrwt>
<totfact> 0.40336007E+03</totfact>
</mgrwt>
</event>
<event>
 4    1  0.1300812E-003  0.4096213E+03  0.7818608E-02  0.1040498E+00
         -2   -1    0    0    0  501 -0.00000000000E+00  0.00000000000E+00  0.36683504283E+02  0.36683504371E+02  0.25500000000E-02 0. -1.
          2   -1    0    0  501    0  0.00000000000E+00 -0.00000000000E+00 -0.11434952248E+04  0.11434952248E+04  0.25500000000E-02 0.  1.
    5000001    1    1    2    0    0 -0.17989977438E+03 -0.27104148287E+02 -0.39772136987E+03  0.44408315857E+03  0.77000000000E+02 0.  0.
   -5000001    1    1    2    0    0  0.17989977438E+03  0.27104148287E+02 -0.70909035063E+03  0.73609557059E+03  0.77000000000E+02 0.  0.
<mgrwt>
<rscale>  0 0.40962135E+03</rscale>
<asrwt>0</asrwt>
<pdfrwt beam="1">  1        2 0.16335644E+00 0.40962135E+03</pdfrwt>
<pdfrwt beam="2">  1       -2 0.52405013E-02 0.40962135E+03</pdfrwt>
<totfact> 0.44109742E+03</totfact>
</mgrwt>
</event>
<event>
 4    1  0.1300812E-003  0.2314097E+03  0.7818608E-02  0.1125651E+00
         -2   -1    0    0    0  501 -0.00000000000E+00  0.00000000000E+00  0.28696747361E+02  0.28696747475E+02  0.25500000000E-02 0. -1.
          2   -1    0    0  501    0  0.00000000000E+00 -0.00000000000E+00 -0.46652010838E+03  0.46652010838E+03  0.25500000000E-02 0.  1.
    5000001    1    1    2    0    0 -0.16005042127E+02  0.49343866766E+02 -0.36667451924E+03  0.37824619182E+03  0.77000000000E+02 0.  0.
   -5000001    1    1    2    0    0  0.16005042127E+02 -0.49343866766E+02 -0.71148841771E+02  0.11697066404E+03  0.77000000000E+02 0.  0.
<mgrwt>
<rscale>  0 0.23140968E+03</rscale>
<asrwt>0</asrwt>
<pdfrwt beam="1">  1        2 0.66645725E-01 0.23140968E+03</pdfrwt>
<pdfrwt beam="2">  1       -2 0.40995357E-02 0.23140968E+03</pdfrwt>
<totfact> 0.18989534E+04</totfact>
</mgrwt>
</event>
<event>
 4    1  0.1300812E-003  0.1830545E+03  0.7818608E-02  0.1164879E+00
         -2   -1    0    0    0  501 -0.00000000000E+00  0.00000000000E+00  0.48493968019E+02  0.48493968086E+02  0.25500000000E-02 0. -1.
          2   -1    0    0  501    0  0.00000000000E+00 -0.00000000000E+00 -0.17274794046E+03  0.17274794048E+03  0.25500000000E-02 0.  1.
    5000001    1    1    2    0    0 -0.24842293918E+02  0.41175224716E+02 -0.76205865420E+02  0.11852794026E+03  0.77000000000E+02 0.  0.
   -5000001    1    1    2    0    0  0.24842293918E+02 -0.41175224716E+02 -0.48048107024E+02  0.10271396831E+03  0.77000000000E+02 0.  0.
<mgrwt>
<rscale>  0 0.18305445E+03</rscale>
<asrwt>0</asrwt>
<pdfrwt beam="1">  1        2 0.24678277E-01 0.18305445E+03</pdfrwt>
<pdfrwt beam="2">  1       -2 0.69277098E-02 0.18305445E+03</pdfrwt>
<totfact> 0.24646766E+04</totfact>
</mgrwt>
</event>
<event>
 4    1  0.1300812E-003  0.2509373E+03  0.7818608E-02  0.1112714E+00
         -2   -1    0    0    0  501 -0.00000000000E+00  0.00000000000E+00  0.97944539186E+02  0.97944539219E+02  0.25500000000E-02 0. -1.
          2   -1    0    0  501    0  0.00000000000E+00 -0.00000000000E+00 -0.16072747429E+03  0.16072747431E+03  0.25500000000E-02 0.  1.
    5000001    1    1    2    0    0  0.36766154097E+02  0.62942337240E+02  0.37757427920E+02  0.11255270440E+03  0.77000000000E+02 0.  0.
   -5000001    1    1    2    0    0 -0.36766154097E+02 -0.62942337240E+02 -0.10054036303E+03  0.14611930914E+03  0.77000000000E+02 0.  0.
<mgrwt>
<rscale>  0 0.25093727E+03</rscale>
<asrwt>0</asrwt>
<pdfrwt beam="1">  1        2 0.22961068E-01 0.25093727E+03</pdfrwt>
<pdfrwt beam="2">  1       -2 0.13992077E-01 0.25093727E+03</pdfrwt>
<totfact> 0.89670751E+03</totfact>
</mgrwt>
</event>
<event>
 4    1  0.1300812E-003  0.2387956E+03  0.7818608E-02  0.1120598E+00
         -2   -1    0    0    0  501 -0.00000000000E+00  0.00000000000E+00  0.40337364071E+02  0.40337364152E+02  0.25500000000E-02 0. -1.
          2   -1    0    0  501    0  0.00000000000E+00 -0.00000000000E+00 -0.35341504669E+03  0.35341504670E+03  0.25500000000E-02 0.  1.
    5000001    1    1    2    0    0 -0.83191179480E+02  0.32609473743E+02 -0.12601479108E+03  0.17260613457E+03  0.77000000000E+02 0.  0.
   -5000001    1    1    2    0    0  0.83191179480E+02 -0.32609473743E+02 -0.18706289154E+03  0.22114627628E+03  0.77000000000E+02 0.  0.
<mgrwt>
<rscale>  0 0.23879557E+03</rscale>
<asrwt>0</asrwt>
<pdfrwt beam="1">  1        2 0.50487862E-01 0.23879557E+03</pdfrwt>
<pdfrwt beam="2">  1       -2 0.57624808E-02 0.23879557E+03</pdfrwt>
<totfact> 0.15337344E+04</totfact>
</mgrwt>
</event>
<event>
 4    1  0.1300812E-003  0.2444531E+03  0.7818608E-02  0.1116861E+00
         -2   -1    0    0    0  501 -0.00000000000E+00  0.00000000000E+00  0.32392356527E+03  0.32392356528E+03  0.25500000000E-02 0. -1.
          2   -1    0    0  501    0  0.00000000000E+00 -0.00000000000E+00 -0.46119935434E+02  0.46119935504E+02  0.25500000000E-02 0.  1.
    5000001    1    1    2    0    0 -0.93405799170E+02  0.80169159972E+01  0.16142683918E+03  0.20193201497E+03  0.77000000000E+02 0.  0.
   -5000001    1    1    2    0    0  0.93405799170E+02 -0.80169159972E+01  0.11637679066E+03  0.16811148582E+03  0.77000000000E+02 0.  0.
<mgrwt>
<rscale>  0 0.24445314E+03</rscale>
<asrwt>0</asrwt>
<pdfrwt beam="1">  1        2 0.65885622E-02 0.24445314E+03</pdfrwt>
<pdfrwt beam="2">  1       -2 0.46274795E-01 0.24445314E+03</pdfrwt>
<totfact> 0.48421091E+03</totfact>
</mgrwt>
</event>
<event>
 4    1  0.1300812E-003  0.2842991E+03  0.7818608E-02  0.1093364E+00
         -2   -1    0    0    0  501 -0.00000000000E+00  0.00000000000E+00  0.11186535397E+02  0.11186535688E+02  0.25500000000E-02 0. -1.
          2   -1    0    0  501    0  0.00000000000E+00 -0.00000000000E+00 -0.18063222312E+04  0.18063222312E+04  0.25500000000E-02 0.  1.
    5000001    1    1    2    0    0  0.81649783053E+01 -0.11889802369E+03 -0.84254357204E+03  0.85440744244E+03  0.77000000000E+02 0.  0.
   -5000001    1    1    2    0    0 -0.81649783053E+01  0.11889802369E+03 -0.95259212377E+03  0.96310132446E+03  0.77000000000E+02 0.  0.
<mgrwt>
<rscale>  0 0.28429905E+03</rscale>
<asrwt>0</asrwt>
<pdfrwt beam="1">  1        2 0.25804585E+00 0.28429905E+03</pdfrwt>
<pdfrwt beam="2">  1       -2 0.15980777E-02 0.28429905E+03</pdfrwt>
<totfact> 0.11820538E+04</totfact>
</mgrwt>
</event>
<event>
 4    1  0.1300812E-003  0.2635740E+03  0.7818608E-02  0.1105015E+00
         -2   -1    0    0    0  501 -0.00000000000E+00  0.00000000000E+00  0.12468997072E+02  0.12468997333E+02  0.25500000000E-02 0. -1.
          2   -1    0    0  501    0  0.00000000000E+00 -0.00000000000E+00 -0.13928792776E+04  0.13928792776E+04  0.25500000000E-02 0.  1.
    5000001    1    1    2    0    0 -0.43293919789E+02 -0.97255447535E+02 -0.63535598174E+03  0.64879828075E+03  0.77000000000E+02 0.  0.
   -5000001    1    1    2    0    0  0.43293919789E+02  0.97255447535E+02 -0.74505429877E+03  0.75654999418E+03  0.77000000000E+02 0.  0.
<mgrwt>
<rscale>  0 0.26357396E+03</rscale>
<asrwt>0</asrwt>
<pdfrwt beam="1">  1        2 0.19898265E+00 0.26357396E+03</pdfrwt>
<pdfrwt beam="2">  1       -2 0.17812862E-02 0.26357396E+03</pdfrwt>
<totfact> 0.16186511E+04</totfact>
</mgrwt>
</event>
<event>
 4    1  0.1300812E-003  0.2777334E+03  0.7818608E-02  0.1096933E+00
          2   -1    0    0  501    0  0.00000000000E+00  0.00000000000E+00  0.12985257582E+04  0.12985257582E+04  0.25500000000E-02 0.  1.
         -2   -1    0    0    0  501 -0.00000000000E+00 -0.00000000000E+00 -0.14850657100E+02  0.14850657319E+02  0.25500000000E-02 0. -1.
    5000001    1    1    2    0    0  0.91339683826E+02 -0.41438544076E+01  0.30762528164E+03  0.33003397291E+03  0.77000000000E+02 0.  0.
   -5000001    1    1    2    0    0 -0.91339683826E+02  0.41438544076E+01  0.97604981943E+03  0.98334244258E+03  0.77000000000E+02 0.  0.
<mgrwt>
<rscale>  0 0.27773340E+03</rscale>
<asrwt>0</asrwt>
<pdfrwt beam="1">  1        2 0.18550371E+00 0.27773340E+03</pdfrwt>
<pdfrwt beam="2">  1       -2 0.21215221E-02 0.27773340E+03</pdfrwt>
<totfact> 0.14043054E+04</totfact>
</mgrwt>
</event>
<event>
 4    1  0.1300812E-003  0.3243562E+03  0.7818608E-02  0.1073662E+00
          2   -1    0    0  501    0  0.00000000000E+00  0.00000000000E+00  0.82814557046E+03  0.82814557047E+03  0.25500000000E-02 0.  1.
         -2   -1    0    0    0  501 -0.00000000000E+00 -0.00000000000E+00 -0.31759795397E+02  0.31759795499E+02  0.25500000000E-02 0. -1.
    5000001    1    1    2    0    0  0.71639685281E+02  0.11788487851E+03  0.30101426992E+03  0.33995246694E+03  0.77000000000E+02 0.  0.
   -5000001    1    1    2    0    0 -0.71639685281E+02 -0.11788487851E+03  0.49537150515E+03  0.51995289902E+03  0.77000000000E+02 0.  0.
<mgrwt>
<rscale>  0 0.32435619E+03</rscale>
<asrwt>0</asrwt>
<pdfrwt beam="1">  1        2 0.11830653E+00 0.32435619E+03</pdfrwt>
<pdfrwt beam="2">  1       -2 0.45371130E-02 0.32435619E+03</pdfrwt>
<totfact> 0.84988446E+03</totfact>
</mgrwt>
</event>
<event>
 4    1  0.1300812E-003  0.2640956E+03  0.7818608E-02  0.1104707E+00
         -2   -1    0    0    0  501 -0.00000000000E+00  0.00000000000E+00  0.35395575875E+02  0.35395575967E+02  0.25500000000E-02 0. -1.
          2   -1    0    0  501    0  0.00000000000E+00 -0.00000000000E+00 -0.49262156703E+03  0.49262156704E+03  0.25500000000E-02 0.  1.
    5000001    1    1    2    0    0  0.85556816975E+02  0.30975121982E+02 -0.11501600203E+03  0.16564150397E+03  0.77000000000E+02 0.  0.
   -5000001    1    1    2    0    0 -0.85556816975E+02 -0.30975121982E+02 -0.34220998913E+03  0.36237563904E+03  0.77000000000E+02 0.  0.
<mgrwt>
<rscale>  0 0.26409562E+03</rscale>
<asrwt>0</asrwt>
<pdfrwt beam="1">  1        2 0.70374505E-01 0.26409562E+03</pdfrwt>
<pdfrwt beam="2">  1       -2 0.50565112E-02 0.26409562E+03</pdfrwt>
<totfact> 0.13124239E+04</totfact>
</mgrwt>
</event>
<event>
 4    1  0.1300812E-003  0.3563786E+03  0.7818608E-02  0.1060027E+00
          2   -1    0    0  501    0  0.00000000000E+00  0.00000000000E+00  0.39278854333E+03  0.39278854333E+03  0.25500000000E-02 0.  1.
         -2   -1    0    0    0  501 -0.00000000000E+00 -0.00000000000E+00 -0.80835927162E+02  0.80835927203E+02  0.25500000000E-02 0. -1.
    5000001    1    1    2    0    0 -0.15922210150E+03 -0.21696180184E+02  0.15576934933E+03  0.23667592195E+03  0.77000000000E+02 0.  0.
   -5000001    1    1    2    0    0  0.15922210150E+03  0.21696180184E+02  0.15618326683E+03  0.23694854859E+03  0.77000000000E+02 0.  0.
<mgrwt>
<rscale>  0 0.35637860E+03</rscale>
<asrwt>0</asrwt>
<pdfrwt beam="1">  1        2 0.56112649E-01 0.35637860E+03</pdfrwt>
<pdfrwt beam="2">  1       -2 0.11547990E-01 0.35637860E+03</pdfrwt>
<totfact> 0.46688641E+03</totfact>
</mgrwt>
</event>
<event>
 4    1  0.1300812E-003  0.1906348E+03  0.7818608E-02  0.1157890E+00
          2   -1    0    0  501    0  0.00000000000E+00  0.00000000000E+00  0.13207055703E+04  0.13207055703E+04  0.25500000000E-02 0.  1.
         -2   -1    0    0    0  501 -0.00000000000E+00 -0.00000000000E+00 -0.68792078694E+01  0.68792083420E+01  0.25500000000E-02 0. -1.
    5000001    1    1    2    0    0 -0.42413845636E+02  0.36693582441E+02  0.63375828572E+03  0.64087745943E+03  0.77000000000E+02 0.  0.
   -5000001    1    1    2    0    0  0.42413845636E+02 -0.36693582441E+02  0.68006807671E+03  0.68670731920E+03  0.77000000000E+02 0.  0.
<mgrwt>
<rscale>  0 0.19063482E+03</rscale>
<asrwt>0</asrwt>
<pdfrwt beam="1">  1        2 0.18867209E+00 0.19063482E+03</pdfrwt>
<pdfrwt beam="2">  1       -2 0.98274469E-03 0.19063482E+03</pdfrwt>
<totfact> 0.41121295E+04</totfact>
</mgrwt>
</event>
<event>
 4    1  0.1300812E-003  0.1922894E+03  0.7818608E-02  0.1156412E+00
          2   -1    0    0  501    0  0.00000000000E+00  0.00000000000E+00  0.12115275613E+04  0.12115275613E+04  0.25500000000E-02 0.  1.
         -2   -1    0    0    0  501 -0.00000000000E+00 -0.00000000000E+00 -0.76298772526E+01  0.76298776787E+01  0.25500000000E-02 0. -1.
    5000001    1    1    2    0    0  0.54087562791E+02 -0.19497517489E+02  0.62116839735E+03  0.62855771056E+03  0.77000000000E+02 0.  0.
   -5000001    1    1    2    0    0 -0.54087562791E+02  0.19497517489E+02  0.58272928665E+03  0.59059972837E+03  0.77000000000E+02 0.  0.
<mgrwt>
<rscale>  0 0.19228944E+03</rscale>
<asrwt>0</asrwt>
<pdfrwt beam="1">  1        2 0.17307512E+00 0.19228944E+03</pdfrwt>
<pdfrwt beam="2">  1       -2 0.10899841E-02 0.19228944E+03</pdfrwt>
<totfact> 0.40442042E+04</totfact>
</mgrwt>
</event>
<event>
 4    1  0.1300812E-003  0.2568161E+03  0.7818608E-02  0.1109071E+00
          2   -1    0    0  501    0  0.00000000000E+00  0.00000000000E+00  0.21253601050E+04  0.21253601050E+04  0.25500000000E-02 0.  1.
         -2   -1    0    0    0  501 -0.00000000000E+00 -0.00000000000E+00 -0.77580408905E+01  0.77580413095E+01  0.25500000000E-02 0. -1.
    5000001    1    1    2    0    0 -0.79694341834E+02  0.45916668735E+02  0.14394396576E+04  0.14444289724E+04  0.77000000000E+02 0.  0.
   -5000001    1    1    2    0    0  0.79694341834E+02 -0.45916668735E+02  0.67816240654E+03  0.68868917389E+03  0.77000000000E+02 0.  0.
<mgrwt>
<rscale>  0 0.25681613E+03</rscale>
<asrwt>0</asrwt>
<pdfrwt beam="1">  1        2 0.30362262E+00 0.25681613E+03</pdfrwt>
<pdfrwt beam="2">  1       -2 0.11082925E-02 0.25681613E+03</pdfrwt>
<totfact> 0.14059945E+04</totfact>
</mgrwt>
</event>
<event>
 4    1  0.1300812E-003  0.3125487E+03  0.7818608E-02  0.1079131E+00
         -2   -1    0    0    0  501 -0.00000000000E+00  0.00000000000E+00  0.25147366888E+03  0.25147366890E+03  0.25500000000E-02 0.  1.
          2   -1    0    0  501    0  0.00000000000E+00 -0.00000000000E+00 -0.97114216812E+02  0.97114216845E+02  0.25500000000E-02 0. -1.
    5000001    1    1    2    0    0  0.66467277742E+02  0.11229709120E+03  0.34503613599E+02  0.15539638044E+03  0.77000000000E+02 0.  0.
   -5000001    1    1    2    0    0 -0.66467277742E+02 -0.11229709120E+03  0.11985583847E+03  0.19319150530E+03  0.77000000000E+02 0.  0.
<mgrwt>
<rscale>  0 0.31254867E+03</rscale>
<asrwt>0</asrwt>
<pdfrwt beam="1">  1        2 0.13873460E-01 0.31254867E+03</pdfrwt>
<pdfrwt beam="2">  1       -2 0.35924810E-01 0.31254867E+03</pdfrwt>
<totfact> 0.31336379E+03</totfact>
</mgrwt>
</event>
<event>
 4    1  0.1300812E-003  0.2027375E+03  0.7818608E-02  0.1147450E+00
         -2   -1    0    0    0  501 -0.00000000000E+00  0.00000000000E+00  0.14004597593E+03  0.14004597595E+03  0.25500000000E-02 0. -1.
          2   -1    0    0  501    0  0.00000000000E+00 -0.00000000000E+00 -0.73373184627E+02  0.73373184672E+02  0.25500000000E-02 0.  1.
    5000001    1    1    2    0    0  0.43449315577E+02 -0.48205959488E+02  0.45565782463E+02  0.11053007774E+03  0.77000000000E+02 0.  0.
   -5000001    1    1    2    0    0 -0.43449315577E+02  0.48205959488E+02  0.21107008839E+02  0.10288908288E+03  0.77000000000E+02 0.  0.
<mgrwt>
<rscale>  0 0.20273746E+03</rscale>
<asrwt>0</asrwt>
<pdfrwt beam="1">  1        2 0.10481884E-01 0.20273746E+03</pdfrwt>
<pdfrwt beam="2">  1       -2 0.20006568E-01 0.20273746E+03</pdfrwt>
<totfact> 0.12273031E+04</totfact>
</mgrwt>
</event>
<event>
 4    1  0.1300812E-003  0.1969181E+03  0.7818608E-02  0.1152366E+00
          2   -1    0    0  501    0  0.00000000000E+00  0.00000000000E+00  0.14630869074E+04  0.14630869074E+04  0.25500000000E-02 0.  1.
         -2   -1    0    0    0  501 -0.00000000000E+00 -0.00000000000E+00 -0.66258431851E+01  0.66258436757E+01  0.25500000000E-02 0. -1.
    5000001    1    1    2    0    0  0.38344322330E+02 -0.44704242623E+02  0.85673159931E+03  0.86219881096E+03  0.77000000000E+02 0.  0.
   -5000001    1    1    2    0    0 -0.38344322330E+02  0.44704242623E+02  0.59972946491E+03  0.60751394012E+03  0.77000000000E+02 0.  0.
<mgrwt>
<rscale>  0 0.19691810E+03</rscale>
<asrwt>0</asrwt>
<pdfrwt beam="1">  1        2 0.20901239E+00 0.19691810E+03</pdfrwt>
<pdfrwt beam="2">  1       -2 0.94654919E-03 0.19691810E+03</pdfrwt>
<totfact> 0.36814170E+04</totfact>
</mgrwt>
</event>
<event>
 4    1  0.1300812E-003  0.2325810E+03  0.7818608E-02  0.1124836E+00
         -2   -1    0    0    0  501 -0.00000000000E+00  0.00000000000E+00  0.84316276395E+01  0.84316280251E+01  0.25500000000E-02 0. -1.
          2   -1    0    0  501    0  0.00000000000E+00 -0.00000000000E+00 -0.16038986311E+04  0.16038986311E+04  0.25500000000E-02 0.  1.
    5000001    1    1    2    0    0  0.70275423767E+02  0.15301580197E+01 -0.44063390193E+03  0.45280041088E+03  0.77000000000E+02 0.  0.
   -5000001    1    1    2    0    0 -0.70275423767E+02 -0.15301580197E+01 -0.11548331015E+04  0.11595298483E+04  0.77000000000E+02 0.  0.
<mgrwt>
<rscale>  0 0.23258097E+03</rscale>
<asrwt>0</asrwt>
<pdfrwt beam="1">  1        2 0.22912818E+00 0.23258097E+03</pdfrwt>
<pdfrwt beam="2">  1       -2 0.12045193E-02 0.23258097E+03</pdfrwt>
<totfact> 0.22309631E+04</totfact>
</mgrwt>
</event>
<event>
 4    1  0.1300812E-003  0.2785155E+03  0.7818608E-02  0.1096503E+00
         -2   -1    0    0    0  501 -0.00000000000E+00  0.00000000000E+00  0.11560611844E+02  0.11560612126E+02  0.25500000000E-02 0. -1.
          2   -1    0    0  501    0  0.00000000000E+00 -0.00000000000E+00 -0.16774822289E+04  0.16774822289E+04  0.25500000000E-02 0.  1.
    5000001    1    1    2    0    0  0.18478066905E+02 -0.10447987004E+03 -0.11178116903E+04  0.11254729926E+04  0.77000000000E+02 0.  0.
   -5000001    1    1    2    0    0 -0.18478066905E+02  0.10447987004E+03 -0.54810992681E+03  0.56356984844E+03  0.77000000000E+02 0.  0.
<mgrwt>
<rscale>  0 0.27851550E+03</rscale>
<asrwt>0</asrwt>
<pdfrwt beam="1">  1        2 0.23964016E+00 0.27851550E+03</pdfrwt>
<pdfrwt beam="2">  1       -2 0.16515171E-02 0.27851550E+03</pdfrwt>
<totfact> 0.13028915E+04</totfact>
</mgrwt>
</event>
<event>
 4    1  0.1300812E-003  0.8007326E+03  0.7818608E-02  0.9558957E-01
         -2   -1    0    0    0  501 -0.00000000000E+00  0.00000000000E+00  0.36677319401E+03  0.36677319402E+03  0.25500000000E-02 0.  1.
          2   -1    0    0  501    0  0.00000000000E+00 -0.00000000000E+00 -0.43703627963E+03  0.43703627964E+03  0.25500000000E-02 0. -1.
    5000001    1    1    2    0    0 -0.42552791317E+02  0.39053882958E+03 -0.29375862622E+02  0.40140161779E+03  0.77000000000E+02 0.  0.
   -5000001    1    1    2    0    0  0.42552791317E+02 -0.39053882958E+03 -0.40887223006E+02  0.40240785587E+03  0.77000000000E+02 0.  0.
<mgrwt>
<rscale>  0 0.80073264E+03</rscale>
<asrwt>0</asrwt>
<pdfrwt beam="1">  1        2 0.62433754E-01 0.80073264E+03</pdfrwt>
<pdfrwt beam="2">  1       -2 0.52396171E-01 0.80073264E+03</pdfrwt>
<totfact> 0.27081139E+02</totfact>
</mgrwt>
</event>
<event>
 4    1  0.1300812E-003  0.3662780E+03  0.7818608E-02  0.1056125E+00
          2   -1    0    0  501    0  0.00000000000E+00  0.00000000000E+00  0.67827902203E+03  0.67827902203E+03  0.25500000000E-02 0.  1.
         -2   -1    0    0    0  501 -0.00000000000E+00 -0.00000000000E+00 -0.49448518673E+02  0.49448518739E+02  0.25500000000E-02 0. -1.
    5000001    1    1    2    0    0  0.31659220671E+02  0.15074447253E+03  0.43824819633E+03  0.47086801106E+03  0.77000000000E+02 0.  0.
   -5000001    1    1    2    0    0 -0.31659220671E+02 -0.15074447253E+03  0.19058230702E+03  0.25685952971E+03  0.77000000000E+02 0.  0.
<mgrwt>
<rscale>  0 0.36627800E+03</rscale>
<asrwt>0</asrwt>
<pdfrwt beam="1">  1        2 0.96897001E-01 0.36627800E+03</pdfrwt>
<pdfrwt beam="2">  1       -2 0.70640743E-02 0.36627800E+03</pdfrwt>
<totfact> 0.55058124E+03</totfact>
</mgrwt>
</event>
<event>
 4    1  0.1300812E-003  0.1766692E+03  0.7818608E-02  0.1171066E+00
          2   -1    0    0  501    0  0.00000000000E+00  0.00000000000E+00  0.22354288690E+03  0.22354288691E+03  0.25500000000E-02 0.  1.
         -2   -1    0    0    0  501 -0.00000000000E+00 -0.00000000000E+00 -0.34906049914E+02  0.34906050007E+02  0.25500000000E-02 0. -1.
    5000001    1    1    2    0    0 -0.50370224496E+01 -0.68298297277E+01  0.15641805799E+03  0.17454978383E+03  0.77000000000E+02 0.  0.
   -5000001    1    1    2    0    0  0.50370224496E+01  0.68298297277E+01  0.32218778992E+02  0.83899153089E+02  0.77000000000E+02 0.  0.
<mgrwt>
<rscale>  0 0.17666917E+03</rscale>
<asrwt>0</asrwt>
<pdfrwt beam="1">  1        2 0.31934698E-01 0.17666917E+03</pdfrwt>
<pdfrwt beam="2">  1       -2 0.49865786E-02 0.17666917E+03</pdfrwt>
<totfact> 0.30549564E+04</totfact>
</mgrwt>
</event>
<event>
 4    1  0.1300812E-003  0.2026005E+03  0.7818608E-02  0.1147563E+00
          2   -1    0    0  501    0  0.00000000000E+00  0.00000000000E+00  0.21351553743E+03  0.21351553744E+03  0.25500000000E-02 0.  1.
         -2   -1    0    0    0  501 -0.00000000000E+00 -0.00000000000E+00 -0.48060875816E+02  0.48060875883E+02  0.25500000000E-02 0. -1.
    5000001    1    1    2    0    0 -0.65060202279E+01  0.64421814524E+02  0.67437520785E+02  0.12111695874E+03  0.77000000000E+02 0.  0.
   -5000001    1    1    2    0    0  0.65060202279E+01 -0.64421814524E+02  0.98017140828E+02  0.14045945458E+03  0.77000000000E+02 0.  0.
<mgrwt>
<rscale>  0 0.20260053E+03</rscale>
<asrwt>0</asrwt>
<pdfrwt beam="1">  1        2 0.30502219E-01 0.20260053E+03</pdfrwt>
<pdfrwt beam="2">  1       -2 0.68658395E-02 0.20260053E+03</pdfrwt>
<totfact> 0.19956309E+04</totfact>
</mgrwt>
</event>
<event>
 4    1  0.1300812E-003  0.1878857E+03  0.7818608E-02  0.1160382E+00
          2   -1    0    0  501    0  0.00000000000E+00  0.00000000000E+00  0.18165204795E+03  0.18165204797E+03  0.25500000000E-02 0.  1.
         -2   -1    0    0    0  501 -0.00000000000E+00 -0.00000000000E+00 -0.48583339724E+02  0.48583339791E+02  0.25500000000E-02 0. -1.
    5000001    1    1    2    0    0 -0.22046426724E+02  0.39607528961E+02  0.30987966439E+02  0.94573015949E+02  0.77000000000E+02 0.  0.
   -5000001    1    1    2    0    0  0.22046426724E+02 -0.39607528961E+02  0.10208074179E+03  0.13566237181E+03  0.77000000000E+02 0.  0.
<mgrwt>
<rscale>  0 0.18788574E+03</rscale>
<asrwt>0</asrwt>
<pdfrwt beam="1">  1        2 0.25950293E-01 0.18788574E+03</pdfrwt>
<pdfrwt beam="2">  1       -2 0.69404771E-02 0.18788574E+03</pdfrwt>
<totfact> 0.23297250E+04</totfact>
</mgrwt>
</event>
<event>
 4    1  0.1300812E-003  0.3122364E+03  0.7818608E-02  0.1079279E+00
          2   -1    0    0  501    0  0.00000000000E+00  0.00000000000E+00  0.60616509791E+02  0.60616509845E+02  0.25500000000E-02 0.  1.
         -2   -1    0    0    0  501 -0.00000000000E+00 -0.00000000000E+00 -0.40208338086E+03  0.40208338087E+03  0.25500000000E-02 0. -1.
    5000001    1    1    2    0    0 -0.68210391455E+02  0.10135137834E+03 -0.25864249699E+03  0.29622575958E+03  0.77000000000E+02 0.  0.
   -5000001    1    1    2    0    0  0.68210391455E+02 -0.10135137834E+03 -0.82824374084E+02  0.16647413113E+03  0.77000000000E+02 0.  0.
<mgrwt>
<rscale>  0 0.31223639E+03</rscale>
<asrwt>0</asrwt>
<pdfrwt beam="1">  1        2 0.86595016E-02 0.31223639E+03</pdfrwt>
<pdfrwt beam="2">  1       -2 0.57440481E-01 0.31223639E+03</pdfrwt>
<totfact> 0.22299670E+03</totfact>
</mgrwt>
</event>
<event>
 4    1  0.1300812E-003  0.4723130E+03  0.7818608E-02  0.1021269E+00
         -2   -1    0    0    0  501 -0.00000000000E+00  0.00000000000E+00  0.55763973594E+02  0.55763973652E+02  0.25500000000E-02 0. -1.
          2   -1    0    0  501    0  0.00000000000E+00 -0.00000000000E+00 -0.10001059488E+04  0.10001059488E+04  0.25500000000E-02 0.  1.
    5000001    1    1    2    0    0 -0.14597163594E+01  0.20473830907E+03 -0.27320909482E+03  0.34998873620E+03  0.77000000000E+02 0.  0.
   -5000001    1    1    2    0    0  0.14597163594E+01 -0.20473830907E+03 -0.67113288038E+03  0.70588118625E+03  0.77000000000E+02 0.  0.
<mgrwt>
<rscale>  0 0.47231295E+03</rscale>
<asrwt>0</asrwt>
<pdfrwt beam="1">  1        2 0.14287227E+00 0.47231295E+03</pdfrwt>
<pdfrwt beam="2">  1       -2 0.79662826E-02 0.47231295E+03</pdfrwt>
<totfact> 0.27823138E+03</totfact>
</mgrwt>
</event>
<event>
 4    1  0.1300812E-003  0.2726115E+03  0.7818608E-02  0.1099794E+00
         -2   -1    0    0    0  501 -0.00000000000E+00  0.00000000000E+00  0.88547282477E+01  0.88547286149E+01  0.25500000000E-02 0.  1.
          2   -1    0    0  501    0  0.00000000000E+00 -0.00000000000E+00 -0.20982305426E+04  0.20982305426E+04  0.25500000000E-02 0. -1.
    5000001    1    1    2    0    0  0.11082987220E+03  0.10718537636E+02 -0.11674138542E+04  0.11752371057E+04  0.77000000000E+02 0.  0.
   -5000001    1    1    2    0    0 -0.11082987220E+03 -0.10718537636E+02 -0.92196196014E+03  0.93184816551E+03  0.77000000000E+02 0.  0.
<mgrwt>
<rscale>  0 0.27261153E+03</rscale>
<asrwt>0</asrwt>
<pdfrwt beam="1">  1        2 0.29974690E+00 0.27261153E+03</pdfrwt>
<pdfrwt beam="2">  1       -2 0.12649625E-02 0.27261153E+03</pdfrwt>
<totfact> 0.11971812E+04</totfact>
</mgrwt>
</event>
<event>
 4    1  0.1300812E-003  0.4548880E+03  0.7818608E-02  0.1026274E+00
          2   -1    0    0  501    0  0.00000000000E+00  0.00000000000E+00  0.13289307323E+04  0.13289307323E+04  0.25500000000E-02 0.  1.
         -2   -1    0    0    0  501 -0.00000000000E+00 -0.00000000000E+00 -0.38926619010E+02  0.38926619094E+02  0.25500000000E-02 0. -1.
    5000001    1    1    2    0    0  0.17215992347E+03 -0.11979446797E+03  0.51699951960E+03  0.56321155623E+03  0.77000000000E+02 0.  0.
   -5000001    1    1    2    0    0 -0.17215992347E+03  0.11979446797E+03  0.77300459365E+03  0.80464579512E+03  0.77000000000E+02 0.  0.
<mgrwt>
<rscale>  0 0.45488803E+03</rscale>
<asrwt>0</asrwt>
<pdfrwt beam="1">  1        2 0.18984720E+00 0.45488803E+03</pdfrwt>
<pdfrwt beam="2">  1       -2 0.55609469E-02 0.45488803E+03</pdfrwt>
<totfact> 0.31868852E+03</totfact>
</mgrwt>
</event>
<event>
 4    1  0.1300812E-003  0.1690780E+03  0.7818608E-02  0.1178813E+00
          2   -1    0    0  501    0  0.00000000000E+00  0.00000000000E+00  0.81803559541E+03  0.81803559542E+03  0.25500000000E-02 0.  1.
         -2   -1    0    0    0  501 -0.00000000000E+00 -0.00000000000E+00 -0.87365888311E+01  0.87365892032E+01  0.25500000000E-02 0. -1.
    5000001    1    1    2    0    0 -0.65408872365E+01  0.15251609156E+02  0.55476552565E+03  0.56032953093E+03  0.77000000000E+02 0.  0.
   -5000001    1    1    2    0    0  0.65408872365E+01 -0.15251609156E+02  0.25453348093E+03  0.26644265369E+03  0.77000000000E+02 0.  0.
<mgrwt>
<rscale>  0 0.16907798E+03</rscale>
<asrwt>0</asrwt>
<pdfrwt beam="1">  1        2 0.11686225E+00 0.16907798E+03</pdfrwt>
<pdfrwt beam="2">  1       -2 0.12480839E-02 0.16907798E+03</pdfrwt>
<totfact> 0.55794047E+04</totfact>
</mgrwt>
</event>
<event>
 4    1  0.1300812E-003  0.2515663E+03  0.7818608E-02  0.1112319E+00
          2   -1    0    0  501    0  0.00000000000E+00  0.00000000000E+00  0.49240450260E+03  0.49240450260E+03  0.25500000000E-02 0. -1.
         -2   -1    0    0    0  501 -0.00000000000E+00 -0.00000000000E+00 -0.32130910693E+02  0.32130910794E+02  0.25500000000E-02 0.  1.
    5000001    1    1    2    0    0 -0.45596308829E+02 -0.37312637114E+02  0.39721841005E+03  0.40887983754E+03  0.77000000000E+02 0.  0.
   -5000001    1    1    2    0    0  0.45596308829E+02  0.37312637114E+02  0.63055181853E+02  0.11565557585E+03  0.77000000000E+02 0.  0.
<mgrwt>
<rscale>  0 0.25156633E+03</rscale>
<asrwt>0</asrwt>
<pdfrwt beam="1">  1        2 0.70343498E-01 0.25156633E+03</pdfrwt>
<pdfrwt beam="2">  1       -2 0.45901302E-02 0.25156633E+03</pdfrwt>
<totfact> 0.15167373E+04</totfact>
</mgrwt>
</event>
<event>
 4    1  0.1300812E-003  0.2549661E+03  0.7818608E-02  0.1110206E+00
         -2   -1    0    0    0  501 -0.00000000000E+00  0.00000000000E+00  0.69122593578E+01  0.69122598282E+01  0.25500000000E-02 0.  1.
          2   -1    0    0  501    0  0.00000000000E+00 -0.00000000000E+00 -0.23511736010E+04  0.23511736010E+04  0.25500000000E-02 0. -1.
    5000001    1    1    2    0    0 -0.32270880806E+02  0.84117094084E+02 -0.16065038245E+04  0.16108695272E+04  0.77000000000E+02 0.  0.
   -5000001    1    1    2    0    0  0.32270880806E+02 -0.84117094084E+02 -0.73775751714E+03  0.74721633371E+03  0.77000000000E+02 0.  0.
<mgrwt>
<rscale>  0 0.25496605E+03</rscale>
<asrwt>0</asrwt>
<pdfrwt beam="1">  1        2 0.33588143E+00 0.25496605E+03</pdfrwt>
<pdfrwt beam="2">  1       -2 0.98746716E-03 0.25496605E+03</pdfrwt>
<totfact> 0.12888746E+04</totfact>
</mgrwt>
</event>
<event>
 4    1  0.1300812E-003  0.4983449E+03  0.7818608E-02  0.1014212E+00
          2   -1    0    0  501    0  0.00000000000E+00  0.00000000000E+00  0.15973394429E+03  0.15973394431E+03  0.25500000000E-02 0. -1.
         -2   -1    0    0    0  501 -0.00000000000E+00 -0.00000000000E+00 -0.38868947701E+03  0.38868947701E+03  0.25500000000E-02 0.  1.
    5000001    1    1    2    0    0 -0.16744087837E+03  0.16071248043E+03 -0.61781034165E+02  0.25221190555E+03  0.77000000000E+02 0.  0.
   -5000001    1    1    2    0    0  0.16744087837E+03 -0.16071248043E+03 -0.16717449855E+03  0.29621151578E+03  0.77000000000E+02 0.  0.
<mgrwt>
<rscale>  0 0.49834487E+03</rscale>
<asrwt>0</asrwt>
<pdfrwt beam="1">  1        2 0.22819135E-01 0.49834487E+03</pdfrwt>
<pdfrwt beam="2">  1       -2 0.55527068E-01 0.49834487E+03</pdfrwt>
<totfact> 0.74606126E+02</totfact>
</mgrwt>
</event>
<event>
 4    1  0.1300812E-003  0.2060395E+03  0.7818608E-02  0.1144741E+00
          2   -1    0    0  501    0  0.00000000000E+00  0.00000000000E+00  0.21928930860E+04  0.21928930860E+04  0.25500000000E-02 0.  1.
         -2   -1    0    0    0  501 -0.00000000000E+00 -0.00000000000E+00 -0.48397583128E+01  0.48397589846E+01  0.25500000000E-02 0. -1.
    5000001    1    1    2    0    0  0.59365182738E+02  0.26836476077E+02  0.13176817633E+04  0.13215364734E+04  0.77000000000E+02 0.  0.
   -5000001    1    1    2    0    0 -0.59365182738E+02 -0.26836476077E+02  0.87037156443E+03  0.87619637156E+03  0.77000000000E+02 0.  0.
<mgrwt>
<rscale>  0 0.20603954E+03</rscale>
<asrwt>0</asrwt>
<pdfrwt beam="1">  1        2 0.31327061E+00 0.20603954E+03</pdfrwt>
<pdfrwt beam="2">  1       -2 0.69139373E-03 0.20603954E+03</pdfrwt>
<totfact> 0.25585861E+04</totfact>
</mgrwt>
</event>
<event>
 4    1  0.1300812E-003  0.3986639E+03  0.7818608E-02  0.1044243E+00
         -2   -1    0    0    0  501 -0.00000000000E+00  0.00000000000E+00  0.42509927747E+02  0.42509927824E+02  0.25500000000E-02 0. -1.
          2   -1    0    0  501    0  0.00000000000E+00 -0.00000000000E+00 -0.93468132274E+03  0.93468132275E+03  0.25500000000E-02 0.  1.
    5000001    1    1    2    0    0 -0.83385727696E+02 -0.11390687615E+03 -0.15734425086E+03  0.22497593048E+03  0.77000000000E+02 0.  0.
   -5000001    1    1    2    0    0  0.83385727696E+02  0.11390687615E+03 -0.73482714414E+03  0.75221532009E+03  0.77000000000E+02 0.  0.
<mgrwt>
<rscale>  0 0.39866395E+03</rscale>
<asrwt>0</asrwt>
<pdfrwt beam="1">  1        2 0.13352589E+00 0.39866395E+03</pdfrwt>
<pdfrwt beam="2">  1       -2 0.60728474E-02 0.39866395E+03</pdfrwt>
<totfact> 0.46626386E+03</totfact>
</mgrwt>
</event>
<event>
 4    1  0.1300812E-003  0.3170946E+03  0.7818608E-02  0.1076994E+00
          2   -1    0    0  501    0  0.00000000000E+00  0.00000000000E+00  0.22144505762E+04  0.22144505762E+04  0.25500000000E-02 0.  1.
         -2   -1    0    0    0  501 -0.00000000000E+00 -0.00000000000E+00 -0.11351460933E+02  0.11351461220E+02  0.25500000000E-02 0. -1.
    5000001    1    1    2    0    0 -0.89349989102E+02  0.75564027761E+02  0.58027473898E+03  0.59694314264E+03  0.77000000000E+02 0.  0.
   -5000001    1    1    2    0    0  0.89349989102E+02 -0.75564027761E+02  0.16228243763E+04  0.16288588948E+04  0.77000000000E+02 0.  0.
<mgrwt>
<rscale>  0 0.31709462E+03</rscale>
<asrwt>0</asrwt>
<pdfrwt beam="1">  1        2 0.31635055E+00 0.31709462E+03</pdfrwt>
<pdfrwt beam="2">  1       -2 0.16216349E-02 0.31709462E+03</pdfrwt>
<totfact> 0.73102229E+03</totfact>
</mgrwt>
</event>
<event>
 4    1  0.1300812E-003  0.2655109E+03  0.7818608E-02  0.1103877E+00
         -2   -1    0    0    0  501 -0.00000000000E+00  0.00000000000E+00  0.14649808790E+02  0.14649809012E+02  0.25500000000E-02 0. -1.
          2   -1    0    0  501    0  0.00000000000E+00 -0.00000000000E+00 -0.12030194714E+04  0.12030194714E+04  0.25500000000E-02 0.  1.
    5000001    1    1    2    0    0  0.67480243033E+02 -0.82576594658E+02 -0.67654758866E+03  0.68921558086E+03  0.77000000000E+02 0.  0.
   -5000001    1    1    2    0    0 -0.67480243033E+02  0.82576594658E+02 -0.51182207395E+03  0.52845369955E+03  0.77000000000E+02 0.  0.
<mgrwt>
<rscale>  0 0.26551087E+03</rscale>
<asrwt>0</asrwt>
<pdfrwt beam="1">  1        2 0.17185986E+00 0.26551087E+03</pdfrwt>
<pdfrwt beam="2">  1       -2 0.20928306E-02 0.26551087E+03</pdfrwt>
<totfact> 0.16087260E+04</totfact>
</mgrwt>
</event>
<event>
 4    1  0.1300812E-003  0.2379491E+03  0.7818608E-02  0.1121167E+00
          2   -1    0    0  501    0  0.00000000000E+00  0.00000000000E+00  0.28957995495E+02  0.28957995608E+02  0.25500000000E-02 0.  1.
         -2   -1    0    0    0  501 -0.00000000000E+00 -0.00000000000E+00 -0.48880950983E+03  0.48880950983E+03  0.25500000000E-02 0. -1.
    5000001    1    1    2    0    0  0.71109787284E+02  0.48742885169E+02 -0.16863192480E+03  0.20444607300E+03  0.77000000000E+02 0.  0.
   -5000001    1    1    2    0    0 -0.71109787284E+02 -0.48742885169E+02 -0.29121958953E+03  0.31332143244E+03  0.77000000000E+02 0.  0.
<mgrwt>
<rscale>  0 0.23794910E+03</rscale>
<asrwt>0</asrwt>
<pdfrwt beam="1">  1        2 0.41368568E-02 0.23794910E+03</pdfrwt>
<pdfrwt beam="2">  1       -2 0.69829925E-01 0.23794910E+03</pdfrwt>
<totfact> 0.38419054E+03</totfact>
</mgrwt>
</event>
<event>
 4    1  0.1300812E-003  0.3046743E+03  0.7818608E-02  0.1082927E+00
         -2   -1    0    0    0  501 -0.00000000000E+00  0.00000000000E+00  0.96545330421E+02  0.96545330454E+02  0.25500000000E-02 0. -1.
          2   -1    0    0  501    0  0.00000000000E+00 -0.00000000000E+00 -0.24037007156E+03  0.24037007158E+03  0.25500000000E-02 0.  1.
    5000001    1    1    2    0    0 -0.19423427133E+02  0.12228668371E+03 -0.23126895729E+02  0.14763182530E+03  0.77000000000E+02 0.  0.
   -5000001    1    1    2    0    0  0.19423427133E+02 -0.12228668371E+03 -0.12069784541E+03  0.18928357673E+03  0.77000000000E+02 0.  0.
<mgrwt>
<rscale>  0 0.30467430E+03</rscale>
<asrwt>0</asrwt>
<pdfrwt beam="1">  1        2 0.34338582E-01 0.30467430E+03</pdfrwt>
<pdfrwt beam="2">  1       -2 0.13792190E-01 0.30467430E+03</pdfrwt>
<totfact> 0.59293663E+03</totfact>
</mgrwt>
</event>
<event>
 4    1  0.1300812E-003  0.2081420E+03  0.7818608E-02  0.1143046E+00
          2   -1    0    0  501    0  0.00000000000E+00  0.00000000000E+00  0.10639644275E+04  0.10639644275E+04  0.25500000000E-02 0.  1.
         -2   -1    0    0    0  501 -0.00000000000E+00 -0.00000000000E+00 -0.10179635444E+02  0.10179635763E+02  0.25500000000E-02 0. -1.
    5000001    1    1    2    0    0  0.68180425170E+02 -0.11468241886E+02  0.46996634236E+03  0.48122495146E+03  0.77000000000E+02 0.  0.
   -5000001    1    1    2    0    0 -0.68180425170E+02  0.11468241886E+02  0.58381844965E+03  0.59291911177E+03  0.77000000000E+02 0.  0.
<mgrwt>
<rscale>  0 0.20814197E+03</rscale>
<asrwt>0</asrwt>
<pdfrwt beam="1">  1        2 0.15199490E+00 0.20814197E+03</pdfrwt>
<pdfrwt beam="2">  1       -2 0.14542338E-02 0.20814197E+03</pdfrwt>
<totfact> 0.32287695E+04</totfact>
</mgrwt>
</event>
<event>
 4    1  0.1300812E-003  0.1792312E+03  0.7818608E-02  0.1168549E+00
          2   -1    0    0  501    0  0.00000000000E+00  0.00000000000E+00  0.70160536456E+02  0.70160536503E+02  0.25500000000E-02 0.  1.
         -2   -1    0    0    0  501 -0.00000000000E+00 -0.00000000000E+00 -0.11446536671E+03  0.11446536673E+03  0.25500000000E-02 0. -1.
    5000001    1    1    2    0    0  0.34976714484E+02  0.29570753223E+02 -0.24251276072E+02  0.92816617011E+02  0.77000000000E+02 0.  0.
   -5000001    1    1    2    0    0 -0.34976714484E+02 -0.29570753223E+02 -0.20053554178E+02  0.91809286226E+02  0.77000000000E+02 0.  0.
<mgrwt>
<rscale>  0 0.17923115E+03</rscale>
<asrwt>0</asrwt>
<pdfrwt beam="1">  1        2 0.10022934E-01 0.17923115E+03</pdfrwt>
<pdfrwt beam="2">  1       -2 0.16352195E-01 0.17923115E+03</pdfrwt>
<totfact> 0.18025003E+04</totfact>
</mgrwt>
</event>
<event>
 4    1  0.1300812E-003  0.2257425E+03  0.7818608E-02  0.1129673E+00
         -2   -1    0    0    0  501 -0.00000000000E+00  0.00000000000E+00  0.13046050527E+04  0.13046050527E+04  0.25500000000E-02 0. -1.
          2   -1    0    0  501    0  0.00000000000E+00 -0.00000000000E+00 -0.97653412934E+01  0.97653416263E+01  0.25500000000E-02 0.  1.
    5000001    1    1    2    0    0 -0.77440982195E+02 -0.28516817547E+02  0.64291280142E+03  0.65274511476E+03  0.77000000000E+02 0.  0.
   -5000001    1    1    2    0    0  0.77440982195E+02  0.28516817547E+02  0.65192690997E+03  0.66162527955E+03  0.77000000000E+02 0.  0.
<mgrwt>
<rscale>  0 0.22574245E+03</rscale>
<asrwt>0</asrwt>
<pdfrwt beam="1">  1        2 0.13950491E-02 0.22574245E+03</pdfrwt>
<pdfrwt beam="2">  1       -2 0.18637211E+00 0.22574245E+03</pdfrwt>
<totfact> 0.15838325E+03</totfact>
</mgrwt>
</event>
<event>
 4    1  0.1300812E-003  0.5763162E+03  0.7818608E-02  0.9955798E-01
          2   -1    0    0  501    0  0.00000000000E+00  0.00000000000E+00  0.12268344450E+03  0.12268344453E+03  0.25500000000E-02 0.  1.
         -2   -1    0    0    0  501 -0.00000000000E+00 -0.00000000000E+00 -0.67682394819E+03  0.67682394820E+03  0.25500000000E-02 0. -1.
    5000001    1    1    2    0    0 -0.98732469413E+02  0.18515327755E+03 -0.52937174771E+03  0.57462447213E+03  0.77000000000E+02 0.  0.
   -5000001    1    1    2    0    0  0.98732469413E+02 -0.18515327755E+03 -0.24768755982E+02  0.22488292060E+03  0.77000000000E+02 0.  0.
<mgrwt>
<rscale>  0 0.57631621E+03</rscale>
<asrwt>0</asrwt>
<pdfrwt beam="1">  1        2 0.17526207E-01 0.57631621E+03</pdfrwt>
<pdfrwt beam="2">  1       -2 0.96689133E-01 0.57631621E+03</pdfrwt>
<totfact> 0.30059475E+02</totfact>
</mgrwt>
</event>
<event>
 4    1  0.1300812E-003  0.2216638E+03  0.7818608E-02  0.1132649E+00
          2   -1    0    0  501    0  0.00000000000E+00  0.00000000000E+00  0.20483195202E+04  0.20483195202E+04  0.25500000000E-02 0.  1.
         -2   -1    0    0    0  501 -0.00000000000E+00 -0.00000000000E+00 -0.59969701109E+01  0.59969706530E+01  0.25500000000E-02 0. -1.
    5000001    1    1    2    0    0 -0.38822696155E+02  0.62210733288E+02  0.13108917319E+04  0.13151971372E+04  0.77000000000E+02 0.  0.
   -5000001    1    1    2    0    0  0.38822696155E+02 -0.62210733288E+02  0.73143081822E+03  0.73911935363E+03  0.77000000000E+02 0.  0.
<mgrwt>
<rscale>  0 0.22166381E+03</rscale>
<asrwt>0</asrwt>
<pdfrwt beam="1">  1        2 0.29261688E+00 0.22166381E+03</pdfrwt>
<pdfrwt beam="2">  1       -2 0.85671063E-03 0.22166381E+03</pdfrwt>
<totfact> 0.22144008E+04</totfact>
</mgrwt>
</event>
<event>
 4    1  0.1300812E-003  0.4987148E+03  0.7818608E-02  0.1014115E+00
          2   -1    0    0  501    0  0.00000000000E+00  0.00000000000E+00  0.60541157003E+03  0.60541157003E+03  0.25500000000E-02 0.  1.
         -2   -1    0    0    0  501 -0.00000000000E+00 -0.00000000000E+00 -0.10270554520E+03  0.10270554523E+03  0.25500000000E-02 0. -1.
    5000001    1    1    2    0    0 -0.15459395478E+03  0.10586948648E+03  0.45781058691E+03  0.50062677966E+03  0.77000000000E+02 0.  0.
   -5000001    1    1    2    0    0  0.15459395478E+03 -0.10586948648E+03  0.44895437918E+02  0.20749033560E+03  0.77000000000E+02 0.  0.
<mgrwt>
<rscale>  0 0.49871485E+03</rscale>
<asrwt>0</asrwt>
<pdfrwt beam="1">  1        2 0.86487365E-01 0.49871485E+03</pdfrwt>
<pdfrwt beam="2">  1       -2 0.14672221E-01 0.49871485E+03</pdfrwt>
<totfact> 0.19453982E+03</totfact>
</mgrwt>
</event>
<event>
 4    1  0.1300812E-003  0.3990287E+03  0.7818608E-02  0.1044117E+00
          2   -1    0    0  501    0  0.00000000000E+00  0.00000000000E+00  0.80938714608E+03  0.80938714609E+03  0.25500000000E-02 0. -1.
         -2   -1    0    0    0  501 -0.00000000000E+00 -0.00000000000E+00 -0.49180387671E+02  0.49180387737E+02  0.25500000000E-02 0.  1.
    5000001    1    1    2    0    0  0.17164501418E+03 -0.43314833533E+02  0.48851692658E+03  0.52527704429E+03  0.77000000000E+02 0.  0.
   -5000001    1    1    2    0    0 -0.17164501418E+03  0.43314833533E+02  0.27168983183E+03  0.33329048954E+03  0.77000000000E+02 0.  0.
<mgrwt>
<rscale>  0 0.39902869E+03</rscale>
<asrwt>0</asrwt>
<pdfrwt beam="1">  1        2 0.11562673E+00 0.39902869E+03</pdfrwt>
<pdfrwt beam="2">  1       -2 0.70257699E-02 0.39902869E+03</pdfrwt>
<totfact> 0.44794655E+03</totfact>
</mgrwt>
</event>
<event>
 4    1  0.1300812E-003  0.4039380E+03  0.7818608E-02  0.1042425E+00
          2   -1    0    0  501    0  0.00000000000E+00  0.00000000000E+00  0.66236763545E+03  0.66236763546E+03  0.25500000000E-02 0.  1.
         -2   -1    0    0    0  501 -0.00000000000E+00 -0.00000000000E+00 -0.61584333894E+02  0.61584333947E+02  0.25500000000E-02 0. -1.
    5000001    1    1    2    0    0 -0.58301790698E+01  0.15011442535E+03  0.49911281510E+03  0.52688797091E+03  0.77000000000E+02 0.  0.
   -5000001    1    1    2    0    0  0.58301790698E+01 -0.15011442535E+03  0.10167048646E+03  0.19706399850E+03  0.77000000000E+02 0.  0.
<mgrwt>
<rscale>  0 0.40393796E+03</rscale>
<asrwt>0</asrwt>
<pdfrwt beam="1">  1        2 0.94623955E-01 0.40393796E+03</pdfrwt>
<pdfrwt beam="2">  1       -2 0.87977613E-02 0.40393796E+03</pdfrwt>
<totfact> 0.40159113E+03</totfact>
</mgrwt>
</event>
<event>
 4    1  0.1300812E-003  0.2327028E+03  0.7818608E-02  0.1124752E+00
         -2   -1    0    0    0  501 -0.00000000000E+00  0.00000000000E+00  0.10274576375E+02  0.10274576692E+02  0.25500000000E-02 0. -1.
          2   -1    0    0  501    0  0.00000000000E+00 -0.00000000000E+00 -0.13175871580E+04  0.13175871580E+04  0.25500000000E-02 0.  1.
    5000001    1    1    2    0    0  0.49925284601E+02  0.27944133177E+02 -0.10293707114E+04  0.10338309678E+04  0.77000000000E+02 0.  0.
   -5000001    1    1    2    0    0 -0.49925284601E+02 -0.27944133177E+02 -0.27794187026E+03  0.29403076687E+03  0.77000000000E+02 0.  0.
<mgrwt>
<rscale>  0 0.23270282E+03</rscale>
<asrwt>0</asrwt>
<pdfrwt beam="1">  1        2 0.18822663E+00 0.23270282E+03</pdfrwt>
<pdfrwt beam="2">  1       -2 0.14677975E-02 0.23270282E+03</pdfrwt>
<totfact> 0.23370288E+04</totfact>
</mgrwt>
</event>
<event>
 4    1  0.1300812E-003  0.2871067E+03  0.7818608E-02  0.1091870E+00
         -2   -1    0    0    0  501 -0.00000000000E+00  0.00000000000E+00  0.22002496435E+03  0.22002496437E+03  0.25500000000E-02 0. -1.
          2   -1    0    0  501    0  0.00000000000E+00 -0.00000000000E+00 -0.93660126581E+02  0.93660126616E+02  0.25500000000E-02 0.  1.
    5000001    1    1    2    0    0 -0.67212406878E+02  0.98419453852E+02  0.86986213193E+02  0.16643166111E+03  0.77000000000E+02 0.  0.
   -5000001    1    1    2    0    0  0.67212406878E+02 -0.98419453852E+02  0.39378624577E+02  0.14725342987E+03  0.77000000000E+02 0.  0.
<mgrwt>
<rscale>  0 0.28710671E+03</rscale>
<asrwt>0</asrwt>
<pdfrwt beam="1">  1        2 0.13380018E-01 0.28710671E+03</pdfrwt>
<pdfrwt beam="2">  1       -2 0.31432138E-01 0.28710671E+03</pdfrwt>
<totfact> 0.41831088E+03</totfact>
</mgrwt>
</event>
<event>
 4    1  0.1300812E-003  0.2704169E+03  0.7818608E-02  0.1101041E+00
          2   -1    0    0  501    0  0.00000000000E+00  0.00000000000E+00  0.59586704389E+02  0.59586704444E+02  0.25500000000E-02 0.  1.
         -2   -1    0    0    0  501 -0.00000000000E+00 -0.00000000000E+00 -0.30680203418E+03  0.30680203419E+03  0.25500000000E-02 0. -1.
    5000001    1    1    2    0    0  0.20495585902E+02 -0.10645499401E+03 -0.90430860929E+02  0.16080881630E+03  0.77000000000E+02 0.  0.
   -5000001    1    1    2    0    0 -0.20495585902E+02  0.10645499401E+03 -0.15678446886E+03  0.20557992233E+03  0.77000000000E+02 0.  0.
<mgrwt>
<rscale>  0 0.27041688E+03</rscale>
<asrwt>0</asrwt>
<pdfrwt beam="1">  1        2 0.85123865E-02 0.27041688E+03</pdfrwt>
<pdfrwt beam="2">  1       -2 0.43828861E-01 0.27041688E+03</pdfrwt>
<totfact> 0.38968001E+03</totfact>
</mgrwt>
</event>
<event>
 4    1  0.1300812E-003  0.1561092E+03  0.7818608E-02  0.1193161E+00
         -2   -1    0    0    0  501 -0.00000000000E+00  0.00000000000E+00  0.46639123136E+02  0.46639123206E+02  0.25500000000E-02 0. -1.
          2   -1    0    0  501    0  0.00000000000E+00 -0.00000000000E+00 -0.13063116568E+03  0.13063116570E+03  0.25500000000E-02 0.  1.
    5000001    1    1    2    0    0 -0.11527361705E+02  0.38103608031E+01 -0.46555815831E+02  0.90795610604E+02  0.77000000000E+02 0.  0.
   -5000001    1    1    2    0    0  0.11527361705E+02 -0.38103608031E+01 -0.37436226709E+02  0.86474678302E+02  0.77000000000E+02 0.  0.
<mgrwt>
<rscale>  0 0.15610923E+03</rscale>
<asrwt>0</asrwt>
<pdfrwt beam="1">  1        2 0.18661595E-01 0.15610923E+03</pdfrwt>
<pdfrwt beam="2">  1       -2 0.66627319E-02 0.15610923E+03</pdfrwt>
<totfact> 0.35309876E+04</totfact>
</mgrwt>
</event>
<event>
 4    1  0.1300812E-003  0.3902861E+03  0.7818608E-02  0.1047196E+00
          2   -1    0    0  501    0  0.00000000000E+00  0.00000000000E+00  0.16792255845E+03  0.16792255847E+03  0.25500000000E-02 0.  1.
         -2   -1    0    0    0  501 -0.00000000000E+00 -0.00000000000E+00 -0.22677606561E+03  0.22677606562E+03  0.25500000000E-02 0. -1.
    5000001    1    1    2    0    0  0.94149559579E+02 -0.27912940882E+01  0.12487572928E+03  0.17434127066E+03  0.77000000000E+02 0.  0.
   -5000001    1    1    2    0    0 -0.94149559579E+02  0.27912940882E+01 -0.18372923644E+03  0.22035735344E+03  0.77000000000E+02 0.  0.
<mgrwt>
<rscale>  0 0.39028614E+03</rscale>
<asrwt>0</asrwt>
<pdfrwt beam="1">  1        2 0.23988937E-01 0.39028614E+03</pdfrwt>
<pdfrwt beam="2">  1       -2 0.32396581E-01 0.39028614E+03</pdfrwt>
<totfact> 0.20152145E+03</totfact>
</mgrwt>
</event>
<event>
 4    1  0.1300812E-003  0.3518048E+03  0.7818608E-02  0.1061877E+00
          2   -1    0    0  501    0  0.00000000000E+00  0.00000000000E+00  0.19464772149E+04  0.19464772149E+04  0.25500000000E-02 0.  1.
         -2   -1    0    0    0  501 -0.00000000000E+00 -0.00000000000E+00 -0.15896228929E+02  0.15896229134E+02  0.25500000000E-02 0. -1.
    5000001    1    1    2    0    0  0.74243701428E+02  0.63993628160E+02  0.16576242883E+04  0.16623040014E+04  0.77000000000E+02 0.  0.
   -5000001    1    1    2    0    0 -0.74243701428E+02 -0.63993628160E+02  0.27295669766E+03  0.30006944270E+03  0.77000000000E+02 0.  0.
<mgrwt>
<rscale>  0 0.35180476E+03</rscale>
<asrwt>0</asrwt>
<pdfrwt beam="1">  1        2 0.27806820E+00 0.35180476E+03</pdfrwt>
<pdfrwt beam="2">  1       -2 0.22708896E-02 0.35180476E+03</pdfrwt>
<totfact> 0.60199625E+03</totfact>
</mgrwt>
</event>
<event>
 4    1  0.1300812E-003  0.2766764E+03  0.7818608E-02  0.1097518E+00
          2   -1    0    0  501    0  0.00000000000E+00  0.00000000000E+00  0.87306976368E+02  0.87306976405E+02  0.25500000000E-02 0.  1.
         -2   -1    0    0    0  501 -0.00000000000E+00 -0.00000000000E+00 -0.21919739181E+03  0.21919739182E+03  0.25500000000E-02 0. -1.
    5000001    1    1    2    0    0 -0.69645655412E+02  0.73662290633E+02 -0.59616111007E+01  0.12744093215E+03  0.77000000000E+02 0.  0.
   -5000001    1    1    2    0    0  0.69645655412E+02 -0.73662290633E+02 -0.12592880434E+03  0.17906343608E+03  0.77000000000E+02 0.  0.
<mgrwt>
<rscale>  0 0.27667643E+03</rscale>
<asrwt>0</asrwt>
<pdfrwt beam="1">  1        2 0.12472425E-01 0.27667643E+03</pdfrwt>
<pdfrwt beam="2">  1       -2 0.31313913E-01 0.27667643E+03</pdfrwt>
<totfact> 0.45792825E+03</totfact>
</mgrwt>
</event>
<event>
 4    1  0.1300812E-003  0.7656990E+03  0.7818608E-02  0.9611038E-01
         -2   -1    0    0    0  501 -0.00000000000E+00  0.00000000000E+00  0.48619741284E+02  0.48619741351E+02  0.25500000000E-02 0. -1.
          2   -1    0    0  501    0  0.00000000000E+00 -0.00000000000E+00 -0.30146956227E+04  0.30146956227E+04  0.25500000000E-02 0.  1.
    5000001    1    1    2    0    0  0.19958856510E+03 -0.25790552867E+03 -0.74216818032E+03  0.81430551080E+03  0.77000000000E+02 0.  0.
   -5000001    1    1    2    0    0 -0.19958856510E+03  0.25790552867E+03 -0.22239077011E+04  0.22490098533E+04  0.77000000000E+02 0.  0.
<mgrwt>
<rscale>  0 0.76569895E+03</rscale>
<asrwt>0</asrwt>
<pdfrwt beam="1">  1        2 0.43067068E+00 0.76569895E+03</pdfrwt>
<pdfrwt beam="2">  1       -2 0.69456792E-02 0.76569895E+03</pdfrwt>
<totfact> 0.29849048E+02</totfact>
</mgrwt>
</event>
<event>
 4    1  0.1300812E-003  0.3603074E+03  0.7818608E-02  0.1058462E+00
         -2   -1    0    0    0  501 -0.00000000000E+00  0.00000000000E+00  0.82097991545E+03  0.82097991545E+03  0.25500000000E-02 0. -1.
          2   -1    0    0  501    0  0.00000000000E+00 -0.00000000000E+00 -0.39532457975E+02  0.39532458057E+02  0.25500000000E-02 0.  1.
    5000001    1    1    2    0    0  0.34926432946E+02  0.14074569407E+03  0.21365060033E+03  0.26945275122E+03  0.77000000000E+02 0.  0.
   -5000001    1    1    2    0    0 -0.34926432946E+02 -0.14074569407E+03  0.56779685714E+03  0.59105962229E+03  0.77000000000E+02 0.  0.
<mgrwt>
<rscale>  0 0.36030739E+03</rscale>
<asrwt>0</asrwt>
<pdfrwt beam="1">  1        2 0.56474939E-02 0.36030739E+03</pdfrwt>
<pdfrwt beam="2">  1       -2 0.11728285E+00 0.36030739E+03</pdfrwt>
<totfact> 0.79057100E+02</totfact>
</mgrwt>
</event>
<event>
 4    1  0.1300812E-003  0.2510523E+03  0.7818608E-02  0.1112642E+00
          2   -1    0    0  501    0  0.00000000000E+00  0.00000000000E+00  0.60792441619E+03  0.60792441619E+03  0.25500000000E-02 0.  1.
         -2   -1    0    0    0  501 -0.00000000000E+00 -0.00000000000E+00 -0.25919039120E+02  0.25919039245E+02  0.25500000000E-02 0. -1.
    5000001    1    1    2    0    0  0.75671667064E+02 -0.34083457770E+02  0.15410802324E+03  0.19122281798E+03  0.77000000000E+02 0.  0.
   -5000001    1    1    2    0    0 -0.75671667064E+02  0.34083457770E+02  0.42789735383E+03  0.44262063746E+03  0.77000000000E+02 0.  0.
<mgrwt>
<rscale>  0 0.25105232E+03</rscale>
<asrwt>0</asrwt>
<pdfrwt beam="1">  1        2 0.86846337E-01 0.25105232E+03</pdfrwt>
<pdfrwt beam="2">  1       -2 0.37027202E-02 0.25105232E+03</pdfrwt>
<totfact> 0.16544655E+04</totfact>
</mgrwt>
</event>
<event>
 4    1  0.1300812E-003  0.2073901E+03  0.7818608E-02  0.1143650E+00
          2   -1    0    0  501    0  0.00000000000E+00  0.00000000000E+00  0.10582318640E+04  0.10582318640E+04  0.25500000000E-02 0.  1.
         -2   -1    0    0    0  501 -0.00000000000E+00 -0.00000000000E+00 -0.10160971226E+02  0.10160971546E+02  0.25500000000E-02 0. -1.
    5000001    1    1    2    0    0 -0.31966144150E+02 -0.53972605387E+02  0.37045291089E+03  0.38353518182E+03  0.77000000000E+02 0.  0.
   -5000001    1    1    2    0    0  0.31966144150E+02  0.53972605387E+02  0.67761798188E+03  0.68485765373E+03  0.77000000000E+02 0.  0.
<mgrwt>
<rscale>  0 0.20739010E+03</rscale>
<asrwt>0</asrwt>
<pdfrwt beam="1">  1        2 0.15117600E+00 0.20739010E+03</pdfrwt>
<pdfrwt beam="2">  1       -2 0.14515672E-02 0.20739010E+03</pdfrwt>
<totfact> 0.32609459E+04</totfact>
</mgrwt>
</event>
<event>
 4    1  0.1300812E-003  0.4438460E+03  0.7818608E-02  0.1029573E+00
         -2   -1    0    0    0  501 -0.00000000000E+00  0.00000000000E+00  0.75851017276E+02  0.75851017319E+02  0.25500000000E-02 0. -1.
          2   -1    0    0  501    0  0.00000000000E+00 -0.00000000000E+00 -0.64929662967E+03  0.64929662968E+03  0.25500000000E-02 0.  1.
    5000001    1    1    2    0    0  0.18878890195E+03 -0.77486263959E+02 -0.21984861925E+03  0.30968982222E+03  0.77000000000E+02 0.  0.
   -5000001    1    1    2    0    0 -0.18878890195E+03  0.77486263959E+02 -0.35359699315E+03  0.41545782478E+03  0.77000000000E+02 0.  0.
<mgrwt>
<rscale>  0 0.44384596E+03</rscale>
<asrwt>0</asrwt>
<pdfrwt beam="1">  1        2 0.92756658E-01 0.44384596E+03</pdfrwt>
<pdfrwt beam="2">  1       -2 0.10835860E-01 0.44384596E+03</pdfrwt>
<totfact> 0.29471237E+03</totfact>
</mgrwt>
</event>
<event>
 4    1  0.1300812E-003  0.1769035E+03  0.7818608E-02  0.1170834E+00
          2   -1    0    0  501    0  0.00000000000E+00  0.00000000000E+00  0.49020926074E+02  0.49020926140E+02  0.25500000000E-02 0.  1.
         -2   -1    0    0    0  501 -0.00000000000E+00 -0.00000000000E+00 -0.15959951572E+03  0.15959951574E+03  0.25500000000E-02 0. -1.
    5000001    1    1    2    0    0 -0.12870901573E+02 -0.40013249868E+02 -0.68631210197E+02  0.11138205998E+03  0.77000000000E+02 0.  0.
   -5000001    1    1    2    0    0  0.12870901573E+02  0.40013249868E+02 -0.41947379452E+02  0.97238381903E+02  0.77000000000E+02 0.  0.
<mgrwt>
<rscale>  0 0.17690355E+03</rscale>
<asrwt>0</asrwt>
<pdfrwt beam="1">  1        2 0.70029895E-02 0.17690355E+03</pdfrwt>
<pdfrwt beam="2">  1       -2 0.22799931E-01 0.17690355E+03</pdfrwt>
<totfact> 0.16094006E+04</totfact>
</mgrwt>
</event>
<event>
 4    1  0.1300812E-003  0.4256661E+03  0.7818608E-02  0.1035238E+00
         -2   -1    0    0    0  501 -0.00000000000E+00  0.00000000000E+00  0.99662580662E+02  0.99662580694E+02  0.25500000000E-02 0. -1.
          2   -1    0    0  501    0  0.00000000000E+00 -0.00000000000E+00 -0.45451277894E+03  0.45451277895E+03  0.25500000000E-02 0.  1.
    5000001    1    1    2    0    0 -0.12878166412E+03 -0.80894983027E+02 -0.34333557369E+03  0.38332366409E+03  0.77000000000E+02 0.  0.
   -5000001    1    1    2    0    0  0.12878166412E+03  0.80894983027E+02 -0.11514624591E+02  0.17085169555E+03  0.77000000000E+02 0.  0.
<mgrwt>
<rscale>  0 0.42566614E+03</rscale>
<asrwt>0</asrwt>
<pdfrwt beam="1">  1        2 0.64930396E-01 0.42566614E+03</pdfrwt>
<pdfrwt beam="2">  1       -2 0.14237512E-01 0.42566614E+03</pdfrwt>
<totfact> 0.28304057E+03</totfact>
</mgrwt>
</event>
<event>
 4    1  0.1300812E-003  0.2011768E+03  0.7818608E-02  0.1148750E+00
          2   -1    0    0  501    0  0.00000000000E+00  0.00000000000E+00  0.10084513589E+03  0.10084513592E+03  0.25500000000E-02 0.  1.
         -2   -1    0    0    0  501 -0.00000000000E+00 -0.00000000000E+00 -0.10033234824E+03  0.10033234828E+03  0.25500000000E-02 0. -1.
    5000001    1    1    2    0    0 -0.58398177333E+02 -0.34720412114E+01 -0.27431728068E+02  0.10051816697E+03  0.77000000000E+02 0.  0.
   -5000001    1    1    2    0    0  0.58398177333E+02  0.34720412114E+01  0.27944515713E+02  0.10065931723E+03  0.77000000000E+02 0.  0.
<mgrwt>
<rscale>  0 0.20117683E+03</rscale>
<asrwt>0</asrwt>
<pdfrwt beam="1">  1        2 0.14406448E-01 0.20117683E+03</pdfrwt>
<pdfrwt beam="2">  1       -2 0.14333193E-01 0.20117683E+03</pdfrwt>
<totfact> 0.14571202E+04</totfact>
</mgrwt>
</event>
<event>
 4    1  0.1300812E-003  0.2337707E+03  0.7818608E-02  0.1124014E+00
          2   -1    0    0  501    0  0.00000000000E+00  0.00000000000E+00  0.38179394383E+03  0.38179394384E+03  0.25500000000E-02 0.  1.
         -2   -1    0    0    0  501 -0.00000000000E+00 -0.00000000000E+00 -0.35784176308E+02  0.35784176399E+02  0.25500000000E-02 0. -1.
    5000001    1    1    2    0    0 -0.88232558760E+01 -0.80771276421E+02  0.23308668078E+03  0.25857348993E+03  0.77000000000E+02 0.  0.
   -5000001    1    1    2    0    0  0.88232558760E+01  0.80771276421E+02  0.11292308674E+03  0.15900463030E+03  0.77000000000E+02 0.  0.
<mgrwt>
<rscale>  0 0.23377067E+03</rscale>
<asrwt>0</asrwt>
<pdfrwt beam="1">  1        2 0.54541992E-01 0.23377067E+03</pdfrwt>
<pdfrwt beam="2">  1       -2 0.51120252E-02 0.23377067E+03</pdfrwt>
<totfact> 0.16917222E+04</totfact>
</mgrwt>
</event>
<event>
 4    1  0.1300812E-003  0.2623165E+03  0.7818608E-02  0.1105759E+00
         -2   -1    0    0    0  501 -0.00000000000E+00  0.00000000000E+00  0.58983498062E+01  0.58983503574E+01  0.25500000000E-02 0. -1.
          2   -1    0    0  501    0  0.00000000000E+00 -0.00000000000E+00 -0.29164915029E+04  0.29164915029E+04  0.25500000000E-02 0.  1.
    5000001    1    1    2    0    0 -0.60674521752E+02 -0.76816432314E+02 -0.19134660945E+04  0.19175149690E+04  0.77000000000E+02 0.  0.
   -5000001    1    1    2    0    0  0.60674521752E+02  0.76816432314E+02 -0.99712705861E+03  0.10048748842E+04  0.77000000000E+02 0.  0.
<mgrwt>
<rscale>  0 0.26231651E+03</rscale>
<asrwt>0</asrwt>
<pdfrwt beam="1">  1        2 0.41664072E+00 0.26231651E+03</pdfrwt>
<pdfrwt beam="2">  1       -2 0.84262330E-03 0.26231651E+03</pdfrwt>
<totfact> 0.84002084E+03</totfact>
</mgrwt>
</event>
<event>
 4    1  0.1300812E-003  0.5109557E+03  0.7818608E-02  0.1010958E+00
          2   -1    0    0  501    0  0.00000000000E+00  0.00000000000E+00  0.97301310748E+02  0.97301310781E+02  0.25500000000E-02 0.  1.
         -2   -1    0    0    0  501 -0.00000000000E+00 -0.00000000000E+00 -0.67079186369E+03  0.67079186369E+03  0.25500000000E-02 0. -1.
    5000001    1    1    2    0    0  0.97804750920E+02 -0.10020481998E+03 -0.58639037830E+03  0.60777417765E+03  0.77000000000E+02 0.  0.
   -5000001    1    1    2    0    0 -0.97804750920E+02  0.10020481998E+03  0.12899825357E+02  0.16031899683E+03  0.77000000000E+02 0.  0.
<mgrwt>
<rscale>  0 0.51095568E+03</rscale>
<asrwt>0</asrwt>
<pdfrwt beam="1">  1        2 0.13900188E-01 0.51095568E+03</pdfrwt>
<pdfrwt beam="2">  1       -2 0.95827407E-01 0.51095568E+03</pdfrwt>
<totfact> 0.40613619E+02</totfact>
</mgrwt>
</event>
<event>
 4    1  0.1300812E-003  0.3505111E+03  0.7818608E-02  0.1062405E+00
          2   -1    0    0  501    0  0.00000000000E+00  0.00000000000E+00  0.23609375930E+04  0.23609375930E+04  0.25500000000E-02 0.  1.
         -2   -1    0    0    0  501 -0.00000000000E+00 -0.00000000000E+00 -0.13009451508E+02  0.13009451757E+02  0.25500000000E-02 0. -1.
    5000001    1    1    2    0    0 -0.10082089969E+03  0.43116958940E+02  0.19390698152E+04  0.19436935649E+04  0.77000000000E+02 0.  0.
   -5000001    1    1    2    0    0  0.10082089969E+03 -0.43116958940E+02  0.40885832630E+03  0.43025347987E+03  0.77000000000E+02 0.  0.
<mgrwt>
<rscale>  0 0.35051108E+03</rscale>
<asrwt>0</asrwt>
<pdfrwt beam="1">  1        2 0.33727699E+00 0.35051108E+03</pdfrwt>
<pdfrwt beam="2">  1       -2 0.18584920E-02 0.35051108E+03</pdfrwt>
<totfact> 0.50577335E+03</totfact>
</mgrwt>
</event>
<event>
 4    1  0.1300812E-003  0.3243467E+03  0.7818608E-02  0.1073666E+00
          2   -1    0    0  501    0  0.00000000000E+00  0.00000000000E+00  0.17095046491E+03  0.17095046493E+03  0.25500000000E-02 0.  1.
         -2   -1    0    0    0  501 -0.00000000000E+00 -0.00000000000E+00 -0.15384687707E+03  0.15384687709E+03  0.25500000000E-02 0. -1.
    5000001    1    1    2    0    0  0.34073685942E+02  0.12783587010E+03 -0.45077908206E+02  0.15957457055E+03  0.77000000000E+02 0.  0.
   -5000001    1    1    2    0    0 -0.34073685942E+02 -0.12783587010E+03  0.62181496046E+02  0.16522277146E+03  0.77000000000E+02 0.  0.
<mgrwt>
<rscale>  0 0.32434670E+03</rscale>
<asrwt>0</asrwt>
<pdfrwt beam="1">  1        2 0.24421495E-01 0.32434670E+03</pdfrwt>
<pdfrwt beam="2">  1       -2 0.21978125E-01 0.32434670E+03</pdfrwt>
<totfact> 0.39461280E+03</totfact>
</mgrwt>
</event>
<event>
 4    1  0.1300812E-003  0.2773738E+03  0.7818608E-02  0.1097132E+00
          2   -1    0    0  501    0  0.00000000000E+00  0.00000000000E+00  0.11955685269E+04  0.11955685270E+04  0.25500000000E-02 0.  1.
         -2   -1    0    0    0  501 -0.00000000000E+00 -0.00000000000E+00 -0.16087792731E+02  0.16087792934E+02  0.25500000000E-02 0. -1.
    5000001    1    1    2    0    0  0.10741635059E+03 -0.23873970986E+02  0.74086261004E+03  0.75293734521E+03  0.77000000000E+02 0.  0.
   -5000001    1    1    2    0    0 -0.10741635059E+03  0.23873970986E+02  0.43861812418E+03  0.45871897467E+03  0.77000000000E+02 0.  0.
<mgrwt>
<rscale>  0 0.27737382E+03</rscale>
<asrwt>0</asrwt>
<pdfrwt beam="1">  1        2 0.17079546E+00 0.27737382E+03</pdfrwt>
<pdfrwt beam="2">  1       -2 0.22982567E-02 0.27737382E+03</pdfrwt>
<totfact> 0.14166523E+04</totfact>
</mgrwt>
</event>
<event>
 4    1  0.1300812E-003  0.3002602E+03  0.7818608E-02  0.1085111E+00
          2   -1    0    0  501    0  0.00000000000E+00  0.00000000000E+00  0.30990722907E+04  0.30990722907E+04  0.25500000000E-02 0.  1.
         -2   -1    0    0    0  501 -0.00000000000E+00 -0.00000000000E+00 -0.72728350222E+01  0.72728354692E+01  0.25500000000E-02 0. -1.
    5000001    1    1    2    0    0 -0.89101627108E+02  0.87029284631E+02  0.18885292498E+04  0.18941976992E+04  0.77000000000E+02 0.  0.
   -5000001    1    1    2    0    0  0.89101627108E+02 -0.87029284631E+02  0.12032702059E+04  0.12121474269E+04  0.77000000000E+02 0.  0.
<mgrwt>
<rscale>  0 0.30026017E+03</rscale>
<asrwt>0</asrwt>
<pdfrwt beam="1">  1        2 0.44272494E+00 0.30026017E+03</pdfrwt>
<pdfrwt beam="2">  1       -2 0.10389757E-02 0.30026017E+03</pdfrwt>
<totfact> 0.49506819E+03</totfact>
</mgrwt>
</event>
<event>
 4    1  0.1300812E-003  0.2087964E+03  0.7818608E-02  0.1142523E+00
          2   -1    0    0  501    0  0.00000000000E+00  0.00000000000E+00  0.94485776232E+03  0.94485776233E+03  0.25500000000E-02 0.  1.
         -2   -1    0    0    0  501 -0.00000000000E+00 -0.00000000000E+00 -0.11535054981E+02  0.11535055263E+02  0.25500000000E-02 0. -1.
    5000001    1    1    2    0    0  0.41675139239E+01 -0.56534366820E+02  0.27469049769E+03  0.29085627435E+03  0.77000000000E+02 0.  0.
   -5000001    1    1    2    0    0 -0.41675139239E+01  0.56534366820E+02  0.65863220965E+03  0.66553654324E+03  0.77000000000E+02 0.  0.
<mgrwt>
<rscale>  0 0.20879642E+03</rscale>
<asrwt>0</asrwt>
<pdfrwt beam="1">  1        2 0.13497973E+00 0.20879642E+03</pdfrwt>
<pdfrwt beam="2">  1       -2 0.16478644E-02 0.20879642E+03</pdfrwt>
<totfact> 0.31602060E+04</totfact>
</mgrwt>
</event>
<event>
 4    1  0.1300812E-003  0.1877814E+03  0.7818608E-02  0.1160478E+00
         -2   -1    0    0    0  501 -0.00000000000E+00  0.00000000000E+00  0.36974396671E+02  0.36974396759E+02  0.25500000000E-02 0. -1.
          2   -1    0    0  501    0  0.00000000000E+00 -0.00000000000E+00 -0.23842067977E+03  0.23842067978E+03  0.25500000000E-02 0.  1.
    5000001    1    1    2    0    0  0.37059975967E+02  0.15556574356E+02 -0.48437975881E+02  0.99451929754E+02  0.77000000000E+02 0.  0.
   -5000001    1    1    2    0    0 -0.37059975967E+02 -0.15556574356E+02 -0.15300830722E+03  0.17594314679E+03  0.77000000000E+02 0.  0.
<mgrwt>
<rscale>  0 0.18778137E+03</rscale>
<asrwt>0</asrwt>
<pdfrwt beam="1">  1        2 0.34060096E-01 0.18778137E+03</pdfrwt>
<pdfrwt beam="2">  1       -2 0.52820568E-02 0.18778137E+03</pdfrwt>
<totfact> 0.26260624E+04</totfact>
</mgrwt>
</event>
<event>
 4    1  0.1300812E-003  0.3060669E+03  0.7818608E-02  0.1082247E+00
          2   -1    0    0  501    0  0.00000000000E+00  0.00000000000E+00  0.33616866758E+04  0.33616866758E+04  0.25500000000E-02 0.  1.
         -2   -1    0    0    0  501 -0.00000000000E+00 -0.00000000000E+00 -0.69665137666E+01  0.69665142333E+01  0.25500000000E-02 0. -1.
    5000001    1    1    2    0    0 -0.33759606027E+02 -0.11124950470E+03  0.23711978027E+04  0.23752945465E+04  0.77000000000E+02 0.  0.
   -5000001    1    1    2    0    0  0.33759606027E+02  0.11124950470E+03  0.98352235939E+03  0.99335864355E+03  0.77000000000E+02 0.  0.
<mgrwt>
<rscale>  0 0.30606690E+03</rscale>
<asrwt>0</asrwt>
<pdfrwt beam="1">  1        2 0.48024276E+00 0.30606690E+03</pdfrwt>
<pdfrwt beam="2">  1       -2 0.99521254E-03 0.30606690E+03</pdfrwt>
<totfact> 0.37723519E+03</totfact>
</mgrwt>
</event>
<event>
 4    1  0.1300812E-003  0.2816136E+03  0.7818608E-02  0.1094811E+00
         -2   -1    0    0    0  501 -0.00000000000E+00  0.00000000000E+00  0.20633875574E+02  0.20633875731E+02  0.25500000000E-02 0. -1.
          2   -1    0    0  501    0  0.00000000000E+00 -0.00000000000E+00 -0.96087420069E+03  0.96087420069E+03  0.25500000000E-02 0.  1.
    5000001    1    1    2    0    0 -0.34635237566E+02  0.66910679070E+02 -0.78612987102E+03  0.79347703984E+03  0.77000000000E+02 0.  0.
   -5000001    1    1    2    0    0  0.34635237566E+02 -0.66910679070E+02 -0.15411045410E+03  0.18803103658E+03  0.77000000000E+02 0.  0.
<mgrwt>
<rscale>  0 0.28161363E+03</rscale>
<asrwt>0</asrwt>
<pdfrwt beam="1">  1        2 0.13726772E+00 0.28161363E+03</pdfrwt>
<pdfrwt beam="2">  1       -2 0.29476971E-02 0.28161363E+03</pdfrwt>
<totfact> 0.13340866E+04</totfact>
</mgrwt>
</event>
<event>
 4    1  0.1300812E-003  0.2328657E+03  0.7818608E-02  0.1124639E+00
         -2   -1    0    0    0  501 -0.00000000000E+00  0.00000000000E+00  0.19801416717E+02  0.19801416881E+02  0.25500000000E-02 0. -1.
          2   -1    0    0  501    0  0.00000000000E+00 -0.00000000000E+00 -0.68462848323E+03  0.68462848323E+03  0.25500000000E-02 0.  1.
    5000001    1    1    2    0    0  0.55041595574E+02 -0.39009871767E+02 -0.16463200048E+03  0.19386604375E+03  0.77000000000E+02 0.  0.
   -5000001    1    1    2    0    0 -0.55041595574E+02  0.39009871767E+02 -0.50019506603E+03  0.51056385636E+03  0.77000000000E+02 0.  0.
<mgrwt>
<rscale>  0 0.23286575E+03</rscale>
<asrwt>0</asrwt>
<pdfrwt beam="1">  1        2 0.97804054E-01 0.23286575E+03</pdfrwt>
<pdfrwt beam="2">  1       -2 0.28287743E-02 0.23286575E+03</pdfrwt>
<totfact> 0.21438693E+04</totfact>
</mgrwt>
</event>
<event>
 4    1  0.1300812E-003  0.5312830E+03  0.7818608E-02  0.1005921E+00
          2   -1    0    0  501    0  0.00000000000E+00  0.00000000000E+00  0.73046675058E+03  0.73046675058E+03  0.25500000000E-02 0.  1.
         -2   -1    0    0    0  501 -0.00000000000E+00 -0.00000000000E+00 -0.96603189077E+02  0.96603189110E+02  0.25500000000E-02 0. -1.
    5000001    1    1    2    0    0  0.22713078777E+02  0.95084554158E+02 -0.48419912522E+02  0.13353068679E+03  0.77000000000E+02 0.  0.
   -5000001    1    1    2    0    0 -0.22713078777E+02 -0.95084554158E+02  0.68228347402E+03  0.69353925290E+03  0.77000000000E+02 0.  0.
<mgrwt>
<rscale>  0 0.53128304E+03</rscale>
<asrwt>0</asrwt>
<pdfrwt beam="1">  1        2 0.10435240E+00 0.53128304E+03</pdfrwt>
<pdfrwt beam="2">  1       -2 0.13800455E-01 0.53128304E+03</pdfrwt>
<totfact> 0.17198398E+03</totfact>
</mgrwt>
</event>
<event>
 4    1  0.1300812E-003  0.2608539E+03  0.7818608E-02  0.1106631E+00
          2   -1    0    0  501    0  0.00000000000E+00  0.00000000000E+00  0.31440359916E+03  0.31440359917E+03  0.25500000000E-02 0.  1.
         -2   -1    0    0    0  501 -0.00000000000E+00 -0.00000000000E+00 -0.54106229121E+02  0.54106229181E+02  0.25500000000E-02 0. -1.
    5000001    1    1    2    0    0  0.84448802456E+02 -0.41385846079E+01  0.41547538865E+02  0.12167138573E+03  0.77000000000E+02 0.  0.
   -5000001    1    1    2    0    0 -0.84448802456E+02  0.41385846079E+01  0.21874983117E+03  0.24683844262E+03  0.77000000000E+02 0.  0.
<mgrwt>
<rscale>  0 0.26085393E+03</rscale>
<asrwt>0</asrwt>
<pdfrwt beam="1">  1        2 0.44914798E-01 0.26085393E+03</pdfrwt>
<pdfrwt beam="2">  1       -2 0.77294616E-02 0.26085393E+03</pdfrwt>
<totfact> 0.11108652E+04</totfact>
</mgrwt>
</event>
<event>
 4    1  0.1300812E-003  0.2268229E+03  0.7818608E-02  0.1128896E+00
         -2   -1    0    0    0  501 -0.00000000000E+00  0.00000000000E+00  0.92835176688E+03  0.92835176689E+03  0.25500000000E-02 0. -1.
          2   -1    0    0  501    0  0.00000000000E+00 -0.00000000000E+00 -0.13854829045E+02  0.13854829280E+02  0.25500000000E-02 0.  1.
    5000001    1    1    2    0    0  0.70936158535E+02 -0.43438805984E+02  0.44154755341E+03  0.45586413587E+03  0.77000000000E+02 0.  0.
   -5000001    1    1    2    0    0 -0.70936158535E+02  0.43438805984E+02  0.47294938443E+03  0.48634246030E+03  0.77000000000E+02 0.  0.
<mgrwt>
<rscale>  0 0.22682288E+03</rscale>
<asrwt>0</asrwt>
<pdfrwt beam="1">  1        2 0.19792611E-02 0.22682288E+03</pdfrwt>
<pdfrwt beam="2">  1       -2 0.13262169E+00 0.22682288E+03</pdfrwt>
<totfact> 0.23864192E+03</totfact>
</mgrwt>
</event>
<event>
 4    1  0.1300812E-003  0.2057402E+03  0.7818608E-02  0.1144984E+00
         -2   -1    0    0    0  501 -0.00000000000E+00  0.00000000000E+00  0.41599883478E+01  0.41599891294E+01  0.25500000000E-02 0. -1.
          2   -1    0    0  501    0  0.00000000000E+00 -0.00000000000E+00 -0.25438186025E+04  0.25438186025E+04  0.25500000000E-02 0.  1.
    5000001    1    1    2    0    0  0.51880134747E+02  0.38429454460E+02 -0.99712237235E+03  0.10021728378E+04  0.77000000000E+02 0.  0.
   -5000001    1    1    2    0    0 -0.51880134747E+02 -0.38429454460E+02 -0.15425362418E+04  0.15458057538E+04  0.77000000000E+02 0.  0.
<mgrwt>
<rscale>  0 0.20574019E+03</rscale>
<asrwt>0</asrwt>
<pdfrwt beam="1">  1        2 0.36340166E+00 0.20574019E+03</pdfrwt>
<pdfrwt beam="2">  1       -2 0.59428573E-03 0.20574019E+03</pdfrwt>
<totfact> 0.21407080E+04</totfact>
</mgrwt>
</event>
<event>
 4    1  0.1300812E-003  0.1797578E+03  0.7818608E-02  0.1168038E+00
         -2   -1    0    0    0  501 -0.00000000000E+00  0.00000000000E+00  0.18910881172E+03  0.18910881174E+03  0.25500000000E-02 0. -1.
          2   -1    0    0  501    0  0.00000000000E+00 -0.00000000000E+00 -0.42717315531E+02  0.42717315607E+02  0.25500000000E-02 0.  1.
    5000001    1    1    2    0    0 -0.35631360850E+02 -0.26152742944E+02  0.91235335719E+02  0.12730454164E+03  0.77000000000E+02 0.  0.
   -5000001    1    1    2    0    0  0.35631360850E+02  0.26152742944E+02  0.55156160470E+02  0.10452158570E+03  0.77000000000E+02 0.  0.
<mgrwt>
<rscale>  0 0.17975785E+03</rscale>
<asrwt>0</asrwt>
<pdfrwt beam="1">  1        2 0.61024735E-02 0.17975785E+03</pdfrwt>
<pdfrwt beam="2">  1       -2 0.27015545E-01 0.17975785E+03</pdfrwt>
<totfact> 0.14289272E+04</totfact>
</mgrwt>
</event>
<event>
 4    1  0.1300812E-003  0.2154771E+03  0.7818608E-02  0.1137301E+00
          2   -1    0    0  501    0  0.00000000000E+00  0.00000000000E+00  0.56813467858E+02  0.56813467915E+02  0.25500000000E-02 0.  1.
         -2   -1    0    0    0  501 -0.00000000000E+00 -0.00000000000E+00 -0.20431063349E+03  0.20431063351E+03  0.25500000000E-02 0. -1.
    5000001    1    1    2    0    0 -0.23525909123E+02  0.71230560220E+02 -0.65065968026E+02  0.12565763528E+03  0.77000000000E+02 0.  0.
   -5000001    1    1    2    0    0  0.23525909123E+02 -0.71230560220E+02 -0.82431197606E+02  0.13546646614E+03  0.77000000000E+02 0.  0.
<mgrwt>
<rscale>  0 0.21547710E+03</rscale>
<asrwt>0</asrwt>
<pdfrwt beam="1">  1        2 0.81162098E-02 0.21547710E+03</pdfrwt>
<pdfrwt beam="2">  1       -2 0.29187233E-01 0.21547710E+03</pdfrwt>
<totfact> 0.87539536E+03</totfact>
</mgrwt>
</event>
<event>
 4    1  0.1300812E-003  0.3479334E+03  0.7818608E-02  0.1063466E+00
          2   -1    0    0  501    0  0.00000000000E+00  0.00000000000E+00  0.30302311122E+03  0.30302311123E+03  0.25500000000E-02 0.  1.
         -2   -1    0    0    0  501 -0.00000000000E+00 -0.00000000000E+00 -0.99874944060E+02  0.99874944093E+02  0.25500000000E-02 0. -1.
    5000001    1    1    2    0    0  0.93617205867E+01  0.91104609298E+02 -0.44659926212E+02  0.12771531097E+03  0.77000000000E+02 0.  0.
   -5000001    1    1    2    0    0 -0.93617205867E+01 -0.91104609298E+02  0.24780809337E+03  0.27518274435E+03  0.77000000000E+02 0.  0.
<mgrwt>
<rscale>  0 0.34793342E+03</rscale>
<asrwt>0</asrwt>
<pdfrwt beam="1">  1        2 0.43289016E-01 0.34793342E+03</pdfrwt>
<pdfrwt beam="2">  1       -2 0.14267849E-01 0.34793342E+03</pdfrwt>
<totfact> 0.43766098E+03</totfact>
</mgrwt>
</event>
<event>
 4    1  0.1300812E-003  0.2416939E+03  0.7818608E-02  0.1118669E+00
          2   -1    0    0  501    0  0.00000000000E+00  0.00000000000E+00  0.12214859131E+04  0.12214859131E+04  0.25500000000E-02 0.  1.
         -2   -1    0    0    0  501 -0.00000000000E+00 -0.00000000000E+00 -0.11955921945E+02  0.11955922217E+02  0.25500000000E-02 0. -1.
    5000001    1    1    2    0    0  0.64666971263E+02 -0.28701661362E+02  0.29562889839E+03  0.31357781825E+03  0.77000000000E+02 0.  0.
   -5000001    1    1    2    0    0 -0.64666971263E+02  0.28701661362E+02  0.91390109279E+03  0.91986401709E+03  0.77000000000E+02 0.  0.
<mgrwt>
<rscale>  0 0.24169394E+03</rscale>
<asrwt>0</asrwt>
<pdfrwt beam="1">  1        2 0.17449780E+00 0.24169394E+03</pdfrwt>
<pdfrwt beam="2">  1       -2 0.17079907E-02 0.24169394E+03</pdfrwt>
<totfact> 0.21097009E+04</totfact>
</mgrwt>
</event>
<event>
 4    1  0.1300812E-003  0.3001262E+03  0.7818608E-02  0.1085178E+00
          2   -1    0    0  501    0  0.00000000000E+00  0.00000000000E+00  0.10053873679E+04  0.10053873679E+04  0.25500000000E-02 0.  1.
         -2   -1    0    0    0  501 -0.00000000000E+00 -0.00000000000E+00 -0.22398269883E+02  0.22398270028E+02  0.25500000000E-02 0. -1.
    5000001    1    1    2    0    0 -0.87615897582E+02 -0.52090893614E+02  0.22184976321E+03  0.25600063309E+03  0.77000000000E+02 0.  0.
   -5000001    1    1    2    0    0  0.87615897582E+02  0.52090893614E+02  0.76113933482E+03  0.77178500486E+03  0.77000000000E+02 0.  0.
<mgrwt>
<rscale>  0 0.30012622E+03</rscale>
<asrwt>0</asrwt>
<pdfrwt beam="1">  1        2 0.14362678E+00 0.30012622E+03</pdfrwt>
<pdfrwt beam="2">  1       -2 0.31997525E-02 0.30012622E+03</pdfrwt>
<totfact> 0.11126859E+04</totfact>
</mgrwt>
</event>
<event>
 4    1  0.1300812E-003  0.2202364E+03  0.7818608E-02  0.1133707E+00
         -2   -1    0    0    0  501 -0.00000000000E+00  0.00000000000E+00  0.82389169075E+01  0.82389173021E+01  0.25500000000E-02 0. -1.
          2   -1    0    0  501    0  0.00000000000E+00 -0.00000000000E+00 -0.14717970115E+04  0.14717970115E+04  0.25500000000E-02 0.  1.
    5000001    1    1    2    0    0  0.13943760450E+02  0.71468859752E+02 -0.53075726438E+03  0.54123423771E+03  0.77000000000E+02 0.  0.
   -5000001    1    1    2    0    0 -0.13943760450E+02 -0.71468859752E+02 -0.93280083021E+03  0.93880169110E+03  0.77000000000E+02 0.  0.
<mgrwt>
<rscale>  0 0.22023636E+03</rscale>
<asrwt>0</asrwt>
<pdfrwt beam="1">  1        2 0.21025655E+00 0.22023636E+03</pdfrwt>
<pdfrwt beam="2">  1       -2 0.11769891E-02 0.22023636E+03</pdfrwt>
<totfact> 0.26779152E+04</totfact>
</mgrwt>
</event>
<event>
 4    1  0.1300812E-003  0.2829525E+03  0.7818608E-02  0.1094087E+00
         -2   -1    0    0    0  501 -0.00000000000E+00  0.00000000000E+00  0.18945292389E+02  0.18945292560E+02  0.25500000000E-02 0. -1.
          2   -1    0    0  501    0  0.00000000000E+00 -0.00000000000E+00 -0.10564909588E+04  0.10564909588E+04  0.25500000000E-02 0.  1.
    5000001    1    1    2    0    0  0.11199621351E+03  0.31265652322E+02 -0.60918293027E+03  0.62494282569E+03  0.77000000000E+02 0.  0.
   -5000001    1    1    2    0    0 -0.11199621351E+03 -0.31265652322E+02 -0.42836273617E+03  0.45049342570E+03  0.77000000000E+02 0.  0.
<mgrwt>
<rscale>  0 0.28295251E+03</rscale>
<asrwt>0</asrwt>
<pdfrwt beam="1">  1        2 0.15092724E+00 0.28295251E+03</pdfrwt>
<pdfrwt beam="2">  1       -2 0.27064710E-02 0.28295251E+03</pdfrwt>
<totfact> 0.13307406E+04</totfact>
</mgrwt>
</event>
<event>
 4    1  0.1300812E-003  0.1701523E+03  0.7818608E-02  0.1177689E+00
         -2   -1    0    0    0  501 -0.00000000000E+00  0.00000000000E+00  0.54410892657E+01  0.54410898632E+01  0.25500000000E-02 0. -1.
          2   -1    0    0  501    0  0.00000000000E+00 -0.00000000000E+00 -0.13302400905E+04  0.13302400905E+04  0.25500000000E-02 0.  1.
    5000001    1    1    2    0    0  0.13777350534E+02  0.33385478262E+02 -0.67914381196E+03  0.68444848081E+03  0.77000000000E+02 0.  0.
   -5000001    1    1    2    0    0 -0.13777350534E+02 -0.33385478262E+02 -0.64565518931E+03  0.65123269960E+03  0.77000000000E+02 0.  0.
<mgrwt>
<rscale>  0 0.17015235E+03</rscale>
<asrwt>0</asrwt>
<pdfrwt beam="1">  1        2 0.19003409E+00 0.17015235E+03</pdfrwt>
<pdfrwt beam="2">  1       -2 0.77729936E-03 0.17015235E+03</pdfrwt>
<totfact> 0.56435417E+04</totfact>
</mgrwt>
</event>
<event>
 4    1  0.1300812E-003  0.2447742E+03  0.7818608E-02  0.1116653E+00
         -2   -1    0    0    0  501 -0.00000000000E+00  0.00000000000E+00  0.94091839303E+02  0.94091839338E+02  0.25500000000E-02 0. -1.
          2   -1    0    0  501    0  0.00000000000E+00 -0.00000000000E+00 -0.15919124029E+03  0.15919124031E+03  0.25500000000E-02 0.  1.
    5000001    1    1    2    0    0 -0.31574866583E+02  0.61271209265E+02 -0.10039148026E+03  0.14407839045E+03  0.77000000000E+02 0.  0.
   -5000001    1    1    2    0    0  0.31574866583E+02 -0.61271209265E+02  0.35292079275E+02  0.10920468920E+03  0.77000000000E+02 0.  0.
<mgrwt>
<rscale>  0 0.24477415E+03</rscale>
<asrwt>0</asrwt>
<pdfrwt beam="1">  1        2 0.22741606E-01 0.24477415E+03</pdfrwt>
<pdfrwt beam="2">  1       -2 0.13441691E-01 0.24477415E+03</pdfrwt>
<totfact> 0.96669667E+03</totfact>
</mgrwt>
</event>
<event>
 4    1  0.1300812E-003  0.3673930E+03  0.7818608E-02  0.1055694E+00
          2   -1    0    0  501    0  0.00000000000E+00  0.00000000000E+00  0.17373020047E+04  0.17373020047E+04  0.25500000000E-02 0.  1.
         -2   -1    0    0    0  501 -0.00000000000E+00 -0.00000000000E+00 -0.19423454593E+02  0.19423454760E+02  0.25500000000E-02 0. -1.
    5000001    1    1    2    0    0  0.92432660279E+02  0.75882436764E+01  0.15217388446E+04  0.15265056466E+04  0.77000000000E+02 0.  0.
   -5000001    1    1    2    0    0 -0.92432660279E+02 -0.75882436764E+01  0.19613970550E+03  0.23021981279E+03  0.77000000000E+02 0.  0.
<mgrwt>
<rscale>  0 0.36739301E+03</rscale>
<asrwt>0</asrwt>
<pdfrwt beam="1">  1        2 0.24818600E+00 0.36739301E+03</pdfrwt>
<pdfrwt beam="2">  1       -2 0.27747792E-02 0.36739301E+03</pdfrwt>
<totfact> 0.56655728E+03</totfact>
</mgrwt>
</event>
<event>
 4    1  0.1300812E-003  0.3920643E+03  0.7818608E-02  0.1046563E+00
         -2   -1    0    0    0  501 -0.00000000000E+00  0.00000000000E+00  0.26220760551E+02  0.26220760675E+02  0.25500000000E-02 0. -1.
          2   -1    0    0  501    0  0.00000000000E+00 -0.00000000000E+00 -0.14655793323E+04  0.14655793323E+04  0.25500000000E-02 0.  1.
    5000001    1    1    2    0    0 -0.10610710393E+03  0.12345821728E+03 -0.42497180460E+03  0.46155247115E+03  0.77000000000E+02 0.  0.
   -5000001    1    1    2    0    0  0.10610710393E+03 -0.12345821728E+03 -0.10143867671E+04  0.10302476218E+04  0.77000000000E+02 0.  0.
<mgrwt>
<rscale>  0 0.39206431E+03</rscale>
<asrwt>0</asrwt>
<pdfrwt beam="1">  1        2 0.20936842E+00 0.39206431E+03</pdfrwt>
<pdfrwt beam="2">  1       -2 0.37458239E-02 0.39206431E+03</pdfrwt>
<totfact> 0.49478326E+03</totfact>
</mgrwt>
</event>
<event>
 4    1  0.1300812E-003  0.1871778E+03  0.7818608E-02  0.1161032E+00
         -2   -1    0    0    0  501 -0.00000000000E+00  0.00000000000E+00  0.25136260855E+02  0.25136260985E+02  0.25500000000E-02 0. -1.
          2   -1    0    0  501    0  0.00000000000E+00 -0.00000000000E+00 -0.34845609729E+03  0.34845609729E+03  0.25500000000E-02 0.  1.
    5000001    1    1    2    0    0  0.29213249330E+02  0.75128701448E+00 -0.72938873252E+02  0.11001389730E+03  0.77000000000E+02 0.  0.
   -5000001    1    1    2    0    0 -0.29213249330E+02 -0.75128701448E+00 -0.25038096318E+03  0.26357846098E+03  0.77000000000E+02 0.  0.
<mgrwt>
<rscale>  0 0.18717781E+03</rscale>
<asrwt>0</asrwt>
<pdfrwt beam="1">  1        2 0.49779440E-01 0.18717781E+03</pdfrwt>
<pdfrwt beam="2">  1       -2 0.35908946E-02 0.18717781E+03</pdfrwt>
<totfact> 0.31201275E+04</totfact>
</mgrwt>
</event>
<event>
 4    1  0.1300812E-003  0.2877758E+03  0.7818608E-02  0.1091516E+00
         -2   -1    0    0    0  501 -0.00000000000E+00  0.00000000000E+00  0.52776054585E+02  0.52776054646E+02  0.25500000000E-02 0. -1.
          2   -1    0    0  501    0  0.00000000000E+00 -0.00000000000E+00 -0.39229402657E+03  0.39229402657E+03  0.25500000000E-02 0.  1.
    5000001    1    1    2    0    0 -0.11973830655E+03 -0.20794889817E+02 -0.17323157145E+03  0.22518407325E+03  0.77000000000E+02 0.  0.
   -5000001    1    1    2    0    0  0.11973830655E+03  0.20794889817E+02 -0.16628640053E+03  0.21988600797E+03  0.77000000000E+02 0.  0.
<mgrwt>
<rscale>  0 0.28777582E+03</rscale>
<asrwt>0</asrwt>
<pdfrwt beam="1">  1        2 0.56042002E-01 0.28777582E+03</pdfrwt>
<pdfrwt beam="2">  1       -2 0.75394366E-02 0.28777582E+03</pdfrwt>
<totfact> 0.91367283E+03</totfact>
</mgrwt>
</event>
<event>
 4    1  0.1300812E-003  0.2401578E+03  0.7818608E-02  0.1119688E+00
         -2   -1    0    0    0  501 -0.00000000000E+00  0.00000000000E+00  0.39934962152E+02  0.39934962234E+02  0.25500000000E-02 0. -1.
          2   -1    0    0  501    0  0.00000000000E+00 -0.00000000000E+00 -0.36106050040E+03  0.36106050041E+03  0.25500000000E-02 0.  1.
    5000001    1    1    2    0    0  0.62121643328E+02 -0.59587070890E+02 -0.10568468884E+03  0.15655021891E+03  0.77000000000E+02 0.  0.
   -5000001    1    1    2    0    0 -0.62121643328E+02  0.59587070890E+02 -0.21544084941E+03  0.24444524373E+03  0.77000000000E+02 0.  0.
<mgrwt>
<rscale>  0 0.24015776E+03</rscale>
<asrwt>0</asrwt>
<pdfrwt beam="1">  1        2 0.51580070E-01 0.24015776E+03</pdfrwt>
<pdfrwt beam="2">  1       -2 0.57049948E-02 0.24015776E+03</pdfrwt>
<totfact> 0.15224867E+04</totfact>
</mgrwt>
</event>
<event>
 4    1  0.1300812E-003  0.2101517E+03  0.7818608E-02  0.1141446E+00
          2   -1    0    0  501    0  0.00000000000E+00  0.00000000000E+00  0.10239648172E+04  0.10239648172E+04  0.25500000000E-02 0.  1.
         -2   -1    0    0    0  501 -0.00000000000E+00 -0.00000000000E+00 -0.10782528660E+02  0.10782528962E+02  0.25500000000E-02 0. -1.
    5000001    1    1    2    0    0 -0.42047247151E+02 -0.57781682713E+02  0.51785828174E+03  0.52840599336E+03  0.77000000000E+02 0.  0.
   -5000001    1    1    2    0    0  0.42047247151E+02  0.57781682713E+02  0.49532400681E+03  0.50634135282E+03  0.77000000000E+02 0.  0.
<mgrwt>
<rscale>  0 0.21015166E+03</rscale>
<asrwt>0</asrwt>
<pdfrwt beam="1">  1        2 0.14628075E+00 0.21015166E+03</pdfrwt>
<pdfrwt beam="2">  1       -2 0.15403606E-02 0.21015166E+03</pdfrwt>
<totfact> 0.31324224E+04</totfact>
</mgrwt>
</event>
<event>
 4    1  0.1300812E-003  0.2743998E+03  0.7818608E-02  0.1098788E+00
          2   -1    0    0  501    0  0.00000000000E+00  0.00000000000E+00  0.27790143225E+04  0.27790143225E+04  0.25500000000E-02 0.  1.
         -2   -1    0    0    0  501 -0.00000000000E+00 -0.00000000000E+00 -0.67735566616E+01  0.67735571416E+01  0.25500000000E-02 0. -1.
    5000001    1    1    2    0    0 -0.35181330888E+01  0.96183788219E+02  0.19978847296E+04  0.20016833144E+04  0.77000000000E+02 0.  0.
   -5000001    1    1    2    0    0  0.35181330888E+01 -0.96183788219E+02  0.77435603626E+03  0.78410456527E+03  0.77000000000E+02 0.  0.
<mgrwt>
<rscale>  0 0.27439979E+03</rscale>
<asrwt>0</asrwt>
<pdfrwt beam="1">  1        2 0.39700162E+00 0.27439979E+03</pdfrwt>
<pdfrwt beam="2">  1       -2 0.96765203E-03 0.27439979E+03</pdfrwt>
<totfact> 0.80991295E+03</totfact>
</mgrwt>
</event>
<event>
 4    1  0.1300812E-003  0.1769147E+03  0.7818608E-02  0.1170823E+00
          2   -1    0    0  501    0  0.00000000000E+00  0.00000000000E+00  0.34399947216E+02  0.34399947311E+02  0.25500000000E-02 0.  1.
         -2   -1    0    0    0  501 -0.00000000000E+00 -0.00000000000E+00 -0.22746254452E+03  0.22746254454E+03  0.25500000000E-02 0. -1.
    5000001    1    1    2    0    0 -0.23434333513E+02 -0.51073420768E+01 -0.42745219284E+02  0.91276539713E+02  0.77000000000E+02 0.  0.
   -5000001    1    1    2    0    0  0.23434333513E+02  0.51073420768E+01 -0.15031737802E+03  0.17058595213E+03  0.77000000000E+02 0.  0.
<mgrwt>
<rscale>  0 0.17691466E+03</rscale>
<asrwt>0</asrwt>
<pdfrwt beam="1">  1        2 0.49142783E-02 0.17691466E+03</pdfrwt>
<pdfrwt beam="2">  1       -2 0.32494648E-01 0.17691466E+03</pdfrwt>
<totfact> 0.13568124E+04</totfact>
</mgrwt>
</event>
<event>
 4    1  0.1300812E-003  0.2219701E+03  0.7818608E-02  0.1132423E+00
          2   -1    0    0  501    0  0.00000000000E+00  0.00000000000E+00  0.85656657779E+02  0.85656657817E+02  0.25500000000E-02 0.  1.
         -2   -1    0    0    0  501 -0.00000000000E+00 -0.00000000000E+00 -0.14380302751E+03  0.14380302753E+03  0.25500000000E-02 0. -1.
    5000001    1    1    2    0    0  0.55165090783E+02  0.42466263785E+02  0.11521608144E+02  0.10444289471E+03  0.77000000000E+02 0.  0.
   -5000001    1    1    2    0    0 -0.55165090783E+02 -0.42466263785E+02 -0.69667977875E+02  0.12501679064E+03  0.77000000000E+02 0.  0.
<mgrwt>
<rscale>  0 0.22197015E+03</rscale>
<asrwt>0</asrwt>
<pdfrwt beam="1">  1        2 0.12236665E-01 0.22197015E+03</pdfrwt>
<pdfrwt beam="2">  1       -2 0.20543290E-01 0.22197015E+03</pdfrwt>
<totfact> 0.97688586E+03</totfact>
</mgrwt>
</event>
<event>
 4    1  0.1300812E-003  0.2778104E+03  0.7818608E-02  0.1096891E+00
          2   -1    0    0  501    0  0.00000000000E+00  0.00000000000E+00  0.29133652872E+02  0.29133652984E+02  0.25500000000E-02 0.  1.
         -2   -1    0    0    0  501 -0.00000000000E+00 -0.00000000000E+00 -0.66228061381E+03  0.66228061382E+03  0.25500000000E-02 0. -1.
    5000001    1    1    2    0    0  0.75019041272E+02 -0.72494117465E+02 -0.19257232746E+03  0.23215588496E+03  0.77000000000E+02 0.  0.
   -5000001    1    1    2    0    0 -0.75019041272E+02  0.72494117465E+02 -0.44057463348E+03  0.45925838184E+03  0.77000000000E+02 0.  0.
<mgrwt>
<rscale>  0 0.27781039E+03</rscale>
<asrwt>0</asrwt>
<pdfrwt beam="1">  1        2 0.41619508E-02 0.27781039E+03</pdfrwt>
<pdfrwt beam="2">  1       -2 0.94611507E-01 0.27781039E+03</pdfrwt>
<totfact> 0.19583754E+03</totfact>
</mgrwt>
</event>
<event>
 4    1  0.1300812E-003  0.1968932E+03  0.7818608E-02  0.1152387E+00
          2   -1    0    0  501    0  0.00000000000E+00  0.00000000000E+00  0.84261426492E+02  0.84261426531E+02  0.25500000000E-02 0.  1.
         -2   -1    0    0    0  501 -0.00000000000E+00 -0.00000000000E+00 -0.11501983905E+03  0.11501983907E+03  0.25500000000E-02 0. -1.
    5000001    1    1    2    0    0 -0.59323499822E+02 -0.14705304462E+02 -0.10099414483E+02  0.98825714181E+02  0.77000000000E+02 0.  0.
   -5000001    1    1    2    0    0  0.59323499822E+02  0.14705304462E+02 -0.20658998070E+02  0.10045555142E+03  0.77000000000E+02 0.  0.
<mgrwt>
<rscale>  0 0.19689323E+03</rscale>
<asrwt>0</asrwt>
<pdfrwt beam="1">  1        2 0.12037347E-01 0.19689323E+03</pdfrwt>
<pdfrwt beam="2">  1       -2 0.16431406E-01 0.19689323E+03</pdfrwt>
<totfact> 0.14403679E+04</totfact>
</mgrwt>
</event>
<event>
 4    1  0.1300812E-003  0.1675218E+03  0.7818608E-02  0.1180457E+00
         -2   -1    0    0    0  501 -0.00000000000E+00  0.00000000000E+00  0.69873686566E+01  0.69873691219E+01  0.25500000000E-02 0. -1.
          2   -1    0    0  501    0  0.00000000000E+00 -0.00000000000E+00 -0.10040815007E+04  0.10040815007E+04  0.25500000000E-02 0.  1.
    5000001    1    1    2    0    0 -0.40033781558E+01  0.32637401888E+02 -0.51290686980E+03  0.51969576112E+03  0.77000000000E+02 0.  0.
   -5000001    1    1    2    0    0  0.40033781558E+01 -0.32637401888E+02 -0.48418726219E+03  0.49137310865E+03  0.77000000000E+02 0.  0.
<mgrwt>
<rscale>  0 0.16752179E+03</rscale>
<asrwt>0</asrwt>
<pdfrwt beam="1">  1        2 0.14344012E+00 0.16752179E+03</pdfrwt>
<pdfrwt beam="2">  1       -2 0.99819620E-03 0.16752179E+03</pdfrwt>
<totfact> 0.59141339E+04</totfact>
</mgrwt>
</event>
<event>
 4    1  0.1300812E-003  0.3387330E+03  0.7818608E-02  0.1067337E+00
         -2   -1    0    0    0  501 -0.00000000000E+00  0.00000000000E+00  0.37524554504E+03  0.37524554505E+03  0.25500000000E-02 0. -1.
          2   -1    0    0  501    0  0.00000000000E+00 -0.00000000000E+00 -0.76443292631E+02  0.76443292673E+02  0.25500000000E-02 0.  1.
    5000001    1    1    2    0    0 -0.73094051177E+02  0.38618619159E+02  0.31766035453E+03  0.33715165564E+03  0.77000000000E+02 0.  0.
   -5000001    1    1    2    0    0  0.73094051177E+02 -0.38618619159E+02 -0.18858102119E+02  0.11453718208E+03  0.77000000000E+02 0.  0.
<mgrwt>
<rscale>  0 0.33873296E+03</rscale>
<asrwt>0</asrwt>
<pdfrwt beam="1">  1        2 0.10920470E-01 0.33873296E+03</pdfrwt>
<pdfrwt beam="2">  1       -2 0.53606507E-01 0.33873296E+03</pdfrwt>
<totfact> 0.19244000E+03</totfact>
</mgrwt>
</event>
<event>
 4    1  0.1300812E-003  0.2313316E+03  0.7818608E-02  0.1125706E+00
          2   -1    0    0  501    0  0.00000000000E+00  0.00000000000E+00  0.18680128194E+04  0.18680128194E+04  0.25500000000E-02 0.  1.
         -2   -1    0    0    0  501 -0.00000000000E+00 -0.00000000000E+00 -0.71619269491E+01  0.71619274031E+01  0.25500000000E-02 0. -1.
    5000001    1    1    2    0    0 -0.67174449837E+02 -0.14793263837E+01  0.49127917491E+03  0.50179559865E+03  0.77000000000E+02 0.  0.
   -5000001    1    1    2    0    0  0.67174449837E+02  0.14793263837E+01  0.13695717175E+04  0.13733791481E+04  0.77000000000E+02 0.  0.
<mgrwt>
<rscale>  0 0.23133155E+03</rscale>
<asrwt>0</asrwt>
<pdfrwt beam="1">  1        2 0.26685919E+00 0.23133155E+03</pdfrwt>
<pdfrwt beam="2">  1       -2 0.10231316E-02 0.23133155E+03</pdfrwt>
<totfact> 0.20984714E+04</totfact>
</mgrwt>
</event>
<event>
 4    1  0.1300812E-003  0.2329340E+03  0.7818608E-02  0.1124592E+00
          2   -1    0    0  501    0  0.00000000000E+00  0.00000000000E+00  0.24462390275E+04  0.24462390275E+04  0.25500000000E-02 0.  1.
         -2   -1    0    0    0  501 -0.00000000000E+00 -0.00000000000E+00 -0.55450695412E+01  0.55450701275E+01  0.25500000000E-02 0. -1.
    5000001    1    1    2    0    0 -0.73435362037E+02 -0.11346571598E+02  0.17043063103E+04  0.17076622899E+04  0.77000000000E+02 0.  0.
   -5000001    1    1    2    0    0  0.73435362037E+02  0.11346571598E+02  0.73638764767E+03  0.74412180772E+03  0.77000000000E+02 0.  0.
<mgrwt>
<rscale>  0 0.23293404E+03</rscale>
<asrwt>0</asrwt>
<pdfrwt beam="1">  1        2 0.34946243E+00 0.23293404E+03</pdfrwt>
<pdfrwt beam="2">  1       -2 0.79215349E-03 0.23293404E+03</pdfrwt>
<totfact> 0.15882422E+04</totfact>
</mgrwt>
</event>
<event>
 4    1  0.1300812E-003  0.2813647E+03  0.7818608E-02  0.1094946E+00
          2   -1    0    0  501    0  0.00000000000E+00  0.00000000000E+00  0.22976320070E+03  0.22976320071E+03  0.25500000000E-02 0.  1.
         -2   -1    0    0    0  501 -0.00000000000E+00 -0.00000000000E+00 -0.86138806632E+02  0.86138806670E+02  0.25500000000E-02 0. -1.
    5000001    1    1    2    0    0  0.98026904310E+02  0.83993067057E+01 -0.80030092500E+00  0.12493783576E+03  0.77000000000E+02 0.  0.
   -5000001    1    1    2    0    0 -0.98026904310E+02 -0.83993067057E+01  0.14442469499E+03  0.19096417163E+03  0.77000000000E+02 0.  0.
<mgrwt>
<rscale>  0 0.28136473E+03</rscale>
<asrwt>0</asrwt>
<pdfrwt beam="1">  1        2 0.32823314E-01 0.28136473E+03</pdfrwt>
<pdfrwt beam="2">  1       -2 0.12305544E-01 0.28136473E+03</pdfrwt>
<totfact> 0.74804836E+03</totfact>
</mgrwt>
</event>
<event>
 4    1  0.1300812E-003  0.2650755E+03  0.7818608E-02  0.1104132E+00
         -2   -1    0    0    0  501 -0.00000000000E+00  0.00000000000E+00  0.10866197858E+02  0.10866198158E+02  0.25500000000E-02 0. -1.
          2   -1    0    0  501    0  0.00000000000E+00 -0.00000000000E+00 -0.16165961674E+04  0.16165961674E+04  0.25500000000E-02 0.  1.
    5000001    1    1    2    0    0  0.49864341269E+02 -0.39927602944E+02 -0.26915632129E+03  0.28714942329E+03  0.77000000000E+02 0.  0.
   -5000001    1    1    2    0    0 -0.49864341269E+02  0.39927602944E+02 -0.13365736482E+04  0.13403129422E+04  0.77000000000E+02 0.  0.
<mgrwt>
<rscale>  0 0.26507549E+03</rscale>
<asrwt>0</asrwt>
<pdfrwt beam="1">  1        2 0.23094216E+00 0.26507549E+03</pdfrwt>
<pdfrwt beam="2">  1       -2 0.15523150E-02 0.26507549E+03</pdfrwt>
<totfact> 0.15270732E+04</totfact>
</mgrwt>
</event>
<event>
 4    1  0.1300812E-003  0.5326916E+03  0.7818608E-02  0.1005581E+00
          2   -1    0    0  501    0  0.00000000000E+00  0.00000000000E+00  0.25757327149E+03  0.25757327151E+03  0.25500000000E-02 0.  1.
         -2   -1    0    0    0  501 -0.00000000000E+00 -0.00000000000E+00 -0.27541710853E+03  0.27541710854E+03  0.25500000000E-02 0. -1.
    5000001    1    1    2    0    0  0.10805825143E+03  0.22803822302E+03 -0.45453612013E+02  0.26771822445E+03  0.77000000000E+02 0.  0.
   -5000001    1    1    2    0    0 -0.10805825143E+03 -0.22803822302E+03  0.27609774983E+02  0.26527215559E+03  0.77000000000E+02 0.  0.
<mgrwt>
<rscale>  0 0.53269160E+03</rscale>
<asrwt>0</asrwt>
<pdfrwt beam="1">  1        2 0.36796182E-01 0.53269160E+03</pdfrwt>
<pdfrwt beam="2">  1       -2 0.39345301E-01 0.53269160E+03</pdfrwt>
<totfact> 0.86665488E+02</totfact>
</mgrwt>
</event>
<event>
 4    1  0.1300812E-003  0.3330126E+03  0.7818608E-02  0.1069812E+00
         -2   -1    0    0    0  501 -0.00000000000E+00  0.00000000000E+00  0.11002907905E+03  0.11002907908E+03  0.25500000000E-02 0. -1.
          2   -1    0    0  501    0  0.00000000000E+00 -0.00000000000E+00 -0.25197298585E+03  0.25197298587E+03  0.25500000000E-02 0.  1.
    5000001    1    1    2    0    0 -0.12970065779E+03  0.51012363303E+02 -0.12390182887E+03  0.20175526025E+03  0.77000000000E+02 0.  0.
   -5000001    1    1    2    0    0  0.12970065779E+03 -0.51012363303E+02 -0.18042077929E+02  0.16024680470E+03  0.77000000000E+02 0.  0.
<mgrwt>
<rscale>  0 0.33301265E+03</rscale>
<asrwt>0</asrwt>
<pdfrwt beam="1">  1        2 0.35996141E-01 0.33301265E+03</pdfrwt>
<pdfrwt beam="2">  1       -2 0.15718440E-01 0.33301265E+03</pdfrwt>
<totfact> 0.45489350E+03</totfact>
</mgrwt>
</event>
<event>
 4    1  0.1300812E-003  0.3259068E+03  0.7818608E-02  0.1072962E+00
          2   -1    0    0  501    0  0.00000000000E+00  0.00000000000E+00  0.28187875716E+02  0.28187875831E+02  0.25500000000E-02 0.  1.
         -2   -1    0    0    0  501 -0.00000000000E+00 -0.00000000000E+00 -0.94202938924E+03  0.94202938925E+03  0.25500000000E-02 0. -1.
    5000001    1    1    2    0    0  0.31448164193E+02 -0.11790527180E+03 -0.23149123970E+03  0.27277799436E+03  0.77000000000E+02 0.  0.
   -5000001    1    1    2    0    0 -0.31448164193E+02  0.11790527180E+03 -0.68235027383E+03  0.69743927072E+03  0.77000000000E+02 0.  0.
<mgrwt>
<rscale>  0 0.32590678E+03</rscale>
<asrwt>0</asrwt>
<pdfrwt beam="1">  1        2 0.40268400E-02 0.32590678E+03</pdfrwt>
<pdfrwt beam="2">  1       -2 0.13457561E+00 0.32590678E+03</pdfrwt>
<totfact> 0.88310683E+02</totfact>
</mgrwt>
</event>
<event>
 4    1  0.1300812E-003  0.2981613E+03  0.7818608E-02  0.1086163E+00
          2   -1    0    0  501    0  0.00000000000E+00  0.00000000000E+00  0.19064211542E+04  0.19064211542E+04  0.25500000000E-02 0.  1.
         -2   -1    0    0    0  501 -0.00000000000E+00 -0.00000000000E+00 -0.11657988531E+02  0.11657988810E+02  0.25500000000E-02 0. -1.
    5000001    1    1    2    0    0 -0.63811286440E+02  0.10826795319E+03  0.80321774122E+03  0.81662817106E+03  0.77000000000E+02 0.  0.
   -5000001    1    1    2    0    0  0.63811286440E+02 -0.10826795319E+03  0.10915454245E+04  0.11014509720E+04  0.77000000000E+02 0.  0.
<mgrwt>
<rscale>  0 0.29816127E+03</rscale>
<asrwt>0</asrwt>
<pdfrwt beam="1">  1        2 0.27234573E+00 0.29816127E+03</pdfrwt>
<pdfrwt beam="2">  1       -2 0.16654279E-02 0.29816127E+03</pdfrwt>
<totfact> 0.99463534E+03</totfact>
</mgrwt>
</event>
<event>
 4    1  0.1300812E-003  0.3565745E+03  0.7818608E-02  0.1059948E+00
          2   -1    0    0  501    0  0.00000000000E+00  0.00000000000E+00  0.40181239837E+03  0.40181239838E+03  0.25500000000E-02 0.  1.
         -2   -1    0    0    0  501 -0.00000000000E+00 -0.00000000000E+00 -0.79107436171E+02  0.79107436212E+02  0.25500000000E-02 0. -1.
    5000001    1    1    2    0    0  0.13418092849E+03 -0.69978577662E+02  0.88025840731E+02  0.19125655947E+03  0.77000000000E+02 0.  0.
   -5000001    1    1    2    0    0 -0.13418092849E+03  0.69978577662E+02  0.23467912147E+03  0.28966327512E+03  0.77000000000E+02 0.  0.
<mgrwt>
<rscale>  0 0.35657453E+03</rscale>
<asrwt>0</asrwt>
<pdfrwt beam="1">  1        2 0.57401772E-01 0.35657453E+03</pdfrwt>
<pdfrwt beam="2">  1       -2 0.11301062E-01 0.35657453E+03</pdfrwt>
<totfact> 0.47166130E+03</totfact>
</mgrwt>
</event>
<event>
 4    1  0.1300812E-003  0.2252428E+03  0.7818608E-02  0.1130034E+00
         -2   -1    0    0    0  501 -0.00000000000E+00  0.00000000000E+00  0.39994698339E+01  0.39994706468E+01  0.25500000000E-02 0. -1.
          2   -1    0    0  501    0  0.00000000000E+00 -0.00000000000E+00 -0.31713150822E+04  0.31713150822E+04  0.25500000000E-02 0.  1.
    5000001    1    1    2    0    0  0.79108129756E+02 -0.18028665951E+02 -0.17682469808E+04  0.17717814521E+04  0.77000000000E+02 0.  0.
   -5000001    1    1    2    0    0 -0.79108129756E+02  0.18028665951E+02 -0.13990686316E+04  0.14035331007E+04  0.77000000000E+02 0.  0.
<mgrwt>
<rscale>  0 0.22524280E+03</rscale>
<asrwt>0</asrwt>
<pdfrwt beam="1">  1        2 0.45304340E+00 0.22524280E+03</pdfrwt>
<pdfrwt beam="2">  1       -2 0.57135492E-03 0.22524280E+03</pdfrwt>
<totfact> 0.10759497E+04</totfact>
</mgrwt>
</event>
<event>
 4    1  0.1300812E-003  0.3014531E+03  0.7818608E-02  0.1084516E+00
          2   -1    0    0  501    0  0.00000000000E+00  0.00000000000E+00  0.19299932577E+04  0.19299932577E+04  0.25500000000E-02 0.  1.
         -2   -1    0    0    0  501 -0.00000000000E+00 -0.00000000000E+00 -0.11771283571E+02  0.11771283847E+02  0.25500000000E-02 0. -1.
    5000001    1    1    2    0    0  0.97819734225E+02 -0.58898846934E+02  0.13536520224E+04  0.13606397658E+04  0.77000000000E+02 0.  0.
   -5000001    1    1    2    0    0 -0.97819734225E+02  0.58898846934E+02  0.56456995171E+03  0.58112477572E+03  0.77000000000E+02 0.  0.
<mgrwt>
<rscale>  0 0.30145314E+03</rscale>
<asrwt>0</asrwt>
<pdfrwt beam="1">  1        2 0.27571358E+00 0.30145314E+03</pdfrwt>
<pdfrwt beam="2">  1       -2 0.16816104E-02 0.30145314E+03</pdfrwt>
<totfact> 0.95503776E+03</totfact>
</mgrwt>
</event>
<event>
 4    1  0.1300812E-003  0.1577200E+03  0.7818608E-02  0.1191295E+00
         -2   -1    0    0    0  501 -0.00000000000E+00  0.00000000000E+00  0.35633050997E+01  0.35633060121E+01  0.25500000000E-02 0. -1.
          2   -1    0    0  501    0  0.00000000000E+00 -0.00000000000E+00 -0.17452605525E+04  0.17452605525E+04  0.25500000000E-02 0.  1.
    5000001    1    1    2    0    0 -0.15268774025E+02 -0.47314631813E+01 -0.93585816612E+03  0.93915655208E+03  0.77000000000E+02 0.  0.
   -5000001    1    1    2    0    0  0.15268774025E+02  0.47314631813E+01 -0.80583908127E+03  0.80966730643E+03  0.77000000000E+02 0.  0.
<mgrwt>
<rscale>  0 0.15771996E+03</rscale>
<asrwt>0</asrwt>
<pdfrwt beam="1">  1        2 0.24932239E+00 0.15771996E+03</pdfrwt>
<pdfrwt beam="2">  1       -2 0.50904477E-03 0.15771996E+03</pdfrwt>
<totfact> 0.63971104E+04</totfact>
</mgrwt>
</event>
<event>
 4    1  0.1300812E-003  0.2077179E+03  0.7818608E-02  0.1143386E+00
         -2   -1    0    0    0  501 -0.00000000000E+00  0.00000000000E+00  0.43745122989E+02  0.43745123064E+02  0.25500000000E-02 0. -1.
          2   -1    0    0  501    0  0.00000000000E+00 -0.00000000000E+00 -0.24658029901E+03  0.24658029902E+03  0.25500000000E-02 0.  1.
    5000001    1    1    2    0    0 -0.14502790303E+02 -0.28839500112E+02 -0.18775412692E+03  0.20548153170E+03  0.77000000000E+02 0.  0.
   -5000001    1    1    2    0    0  0.14502790303E+02  0.28839500112E+02 -0.15081049092E+02  0.84843890381E+02  0.77000000000E+02 0.  0.
<mgrwt>
<rscale>  0 0.20771794E+03</rscale>
<asrwt>0</asrwt>
<pdfrwt beam="1">  1        2 0.35225756E-01 0.20771794E+03</pdfrwt>
<pdfrwt beam="2">  1       -2 0.62493034E-02 0.20771794E+03</pdfrwt>
<totfact> 0.19759425E+04</totfact>
</mgrwt>
</event>
<event>
 4    1  0.1300812E-003  0.3500450E+03  0.7818608E-02  0.1062597E+00
          2   -1    0    0  501    0  0.00000000000E+00  0.00000000000E+00  0.46245012178E+03  0.46245012178E+03  0.25500000000E-02 0.  1.
         -2   -1    0    0    0  501 -0.00000000000E+00 -0.00000000000E+00 -0.66240401472E+02  0.66240401521E+02  0.25500000000E-02 0. -1.
    5000001    1    1    2    0    0 -0.11192133889E+03 -0.10990121610E+03  0.18306050469E+03  0.25307076437E+03  0.77000000000E+02 0.  0.
   -5000001    1    1    2    0    0  0.11192133889E+03  0.10990121610E+03  0.21314921561E+03  0.27561975894E+03  0.77000000000E+02 0.  0.
<mgrwt>
<rscale>  0 0.35004504E+03</rscale>
<asrwt>0</asrwt>
<pdfrwt beam="1">  1        2 0.66064304E-01 0.35004504E+03</pdfrwt>
<pdfrwt beam="2">  1       -2 0.94629143E-02 0.35004504E+03</pdfrwt>
<totfact> 0.53716203E+03</totfact>
</mgrwt>
</event>
<event>
 4    1  0.1300812E-003  0.2858395E+03  0.7818608E-02  0.1092542E+00
          2   -1    0    0  501    0  0.00000000000E+00  0.00000000000E+00  0.16781837277E+03  0.16781837279E+03  0.25500000000E-02 0.  1.
         -2   -1    0    0    0  501 -0.00000000000E+00 -0.00000000000E+00 -0.12171524938E+03  0.12171524941E+03  0.25500000000E-02 0. -1.
    5000001    1    1    2    0    0  0.66695442819E+02 -0.68962140465E+02  0.96744784373E+02  0.15650115723E+03  0.77000000000E+02 0.  0.
   -5000001    1    1    2    0    0 -0.66695442819E+02  0.68962140465E+02 -0.50641660983E+02  0.13303246498E+03  0.77000000000E+02 0.  0.
<mgrwt>
<rscale>  0 0.28583950E+03</rscale>
<asrwt>0</asrwt>
<pdfrwt beam="1">  1        2 0.23974053E-01 0.28583950E+03</pdfrwt>
<pdfrwt beam="2">  1       -2 0.17387893E-01 0.28583950E+03</pdfrwt>
<totfact> 0.59900233E+03</totfact>
</mgrwt>
</event>
<event>
 4    1  0.1300812E-003  0.2196119E+03  0.7818608E-02  0.1134173E+00
         -2   -1    0    0    0  501 -0.00000000000E+00  0.00000000000E+00  0.42440518228E+02  0.42440518305E+02  0.25500000000E-02 0. -1.
          2   -1    0    0  501    0  0.00000000000E+00 -0.00000000000E+00 -0.28409988873E+03  0.28409988874E+03  0.25500000000E-02 0.  1.
    5000001    1    1    2    0    0  0.69509566483E+02  0.15826109675E+02 -0.72733639639E+02  0.12767626214E+03  0.77000000000E+02 0.  0.
   -5000001    1    1    2    0    0 -0.69509566483E+02 -0.15826109675E+02 -0.16892573087E+03  0.19886414490E+03  0.77000000000E+02 0.  0.
<mgrwt>
<rscale>  0 0.21961190E+03</rscale>
<asrwt>0</asrwt>
<pdfrwt beam="1">  1        2 0.40585697E-01 0.21961190E+03</pdfrwt>
<pdfrwt beam="2">  1       -2 0.60629314E-02 0.21961190E+03</pdfrwt>
<totfact> 0.17839110E+04</totfact>
</mgrwt>
</event>
<event>
 4    1  0.1300812E-003  0.2098525E+03  0.7818608E-02  0.1141683E+00
         -2   -1    0    0    0  501 -0.00000000000E+00  0.00000000000E+00  0.70596603927E+01  0.70596608532E+01  0.25500000000E-02 0. -1.
          2   -1    0    0  501    0  0.00000000000E+00 -0.00000000000E+00 -0.15594964202E+04  0.15594964202E+04  0.25500000000E-02 0.  1.
    5000001    1    1    2    0    0 -0.50518821267E+02  0.75635250776E+00 -0.11515390856E+04  0.11552159924E+04  0.77000000000E+02 0.  0.
   -5000001    1    1    2    0    0  0.50518821267E+02 -0.75635250776E+00 -0.40089767418E+03  0.41134008866E+03  0.77000000000E+02 0.  0.
<mgrwt>
<rscale>  0 0.20985248E+03</rscale>
<asrwt>0</asrwt>
<pdfrwt beam="1">  1        2 0.22278498E+00 0.20985248E+03</pdfrwt>
<pdfrwt beam="2">  1       -2 0.10085239E-02 0.20985248E+03</pdfrwt>
<totfact> 0.30191400E+04</totfact>
</mgrwt>
</event>
<event>
 4    1  0.1300812E-003  0.2226953E+03  0.7818608E-02  0.1131889E+00
          2   -1    0    0  501    0  0.00000000000E+00  0.00000000000E+00  0.63306209264E+02  0.63306209316E+02  0.25500000000E-02 0.  1.
         -2   -1    0    0    0  501 -0.00000000000E+00 -0.00000000000E+00 -0.19584647101E+03  0.19584647103E+03  0.25500000000E-02 0. -1.
    5000001    1    1    2    0    0  0.24758666495E+02 -0.76515631079E+02 -0.64768845875E+02  0.12880852752E+03  0.77000000000E+02 0.  0.
   -5000001    1    1    2    0    0 -0.24758666495E+02  0.76515631079E+02 -0.67771415872E+02  0.13034415282E+03  0.77000000000E+02 0.  0.
<mgrwt>
<rscale>  0 0.22269529E+03</rscale>
<asrwt>0</asrwt>
<pdfrwt beam="1">  1        2 0.90437443E-02 0.22269529E+03</pdfrwt>
<pdfrwt beam="2">  1       -2 0.27978067E-01 0.22269529E+03</pdfrwt>
<totfact> 0.82595843E+03</totfact>
</mgrwt>
</event>
<event>
 4    1  0.1300812E-003  0.1746040E+03  0.7818608E-02  0.1173130E+00
          2   -1    0    0  501    0  0.00000000000E+00  0.00000000000E+00  0.58152954998E+02  0.58152955054E+02  0.25500000000E-02 0.  1.
         -2   -1    0    0    0  501 -0.00000000000E+00 -0.00000000000E+00 -0.13106191879E+03  0.13106191881E+03  0.25500000000E-02 0. -1.
    5000001    1    1    2    0    0 -0.30227696735E+02 -0.27909213087E+02 -0.36461981235E+02  0.94610326606E+02  0.77000000000E+02 0.  0.
   -5000001    1    1    2    0    0  0.30227696735E+02  0.27909213087E+02 -0.36446982554E+02  0.94604547260E+02  0.77000000000E+02 0.  0.
<mgrwt>
<rscale>  0 0.17460398E+03</rscale>
<asrwt>0</asrwt>
<pdfrwt beam="1">  1        2 0.83075650E-02 0.17460398E+03</pdfrwt>
<pdfrwt beam="2">  1       -2 0.18723131E-01 0.17460398E+03</pdfrwt>
<totfact> 0.18120988E+04</totfact>
</mgrwt>
</event>
<event>
 4    1  0.1300812E-003  0.2211258E+03  0.7818608E-02  0.1133046E+00
          2   -1    0    0  501    0  0.00000000000E+00  0.00000000000E+00  0.18558485026E+04  0.18558485026E+04  0.25500000000E-02 0.  1.
         -2   -1    0    0    0  501 -0.00000000000E+00 -0.00000000000E+00 -0.65868285339E+01  0.65868290275E+01  0.25500000000E-02 0. -1.
    5000001    1    1    2    0    0  0.68649693830E+01  0.62459863797E+02  0.13326487572E+04  0.13363495323E+04  0.77000000000E+02 0.  0.
   -5000001    1    1    2    0    0 -0.68649693830E+01 -0.62459863797E+02  0.51661291680E+03  0.52608579927E+03  0.77000000000E+02 0.  0.
<mgrwt>
<rscale>  0 0.22112581E+03</rscale>
<asrwt>0</asrwt>
<pdfrwt beam="1">  1        2 0.26512175E+00 0.22112581E+03</pdfrwt>
<pdfrwt beam="2">  1       -2 0.94097364E-03 0.22112581E+03</pdfrwt>
<totfact> 0.23963654E+04</totfact>
</mgrwt>
</event>
<event>
 4    1  0.1300812E-003  0.2855486E+03  0.7818608E-02  0.1092696E+00
          2   -1    0    0  501    0  0.00000000000E+00  0.00000000000E+00  0.24683131763E+03  0.24683131765E+03  0.25500000000E-02 0.  1.
         -2   -1    0    0    0  501 -0.00000000000E+00 -0.00000000000E+00 -0.82584719893E+02  0.82584719932E+02  0.25500000000E-02 0. -1.
    5000001    1    1    2    0    0  0.11939092411E+03 -0.13098296129E+02  0.88414219123E+02  0.16784466707E+03  0.77000000000E+02 0.  0.
   -5000001    1    1    2    0    0 -0.11939092411E+03  0.13098296129E+02  0.75832378616E+02  0.16157137051E+03  0.77000000000E+02 0.  0.
<mgrwt>
<rscale>  0 0.28554856E+03</rscale>
<asrwt>0</asrwt>
<pdfrwt beam="1">  1        2 0.35261617E-01 0.28554856E+03</pdfrwt>
<pdfrwt beam="2">  1       -2 0.11797817E-01 0.28554856E+03</pdfrwt>
<totfact> 0.74108258E+03</totfact>
</mgrwt>
</event>
<event>
 4    1  0.1300812E-003  0.3013909E+03  0.7818608E-02  0.1084547E+00
          2   -1    0    0  501    0  0.00000000000E+00  0.00000000000E+00  0.39144851794E+03  0.39144851795E+03  0.25500000000E-02 0.  1.
         -2   -1    0    0    0  501 -0.00000000000E+00 -0.00000000000E+00 -0.58013037213E+02  0.58013037269E+02  0.25500000000E-02 0. -1.
    5000001    1    1    2    0    0 -0.88330190720E+02  0.43087907868E+02  0.29256474762E+03  0.31809105921E+03  0.77000000000E+02 0.  0.
   -5000001    1    1    2    0    0  0.88330190720E+02 -0.43087907868E+02  0.40870733105E+02  0.13137049601E+03  0.77000000000E+02 0.  0.
<mgrwt>
<rscale>  0 0.30139089E+03</rscale>
<asrwt>0</asrwt>
<pdfrwt beam="1">  1        2 0.55921216E-01 0.30139089E+03</pdfrwt>
<pdfrwt beam="2">  1       -2 0.82875769E-02 0.30139089E+03</pdfrwt>
<totfact> 0.79121284E+03</totfact>
</mgrwt>
</event>
<event>
 4    1  0.1300812E-003  0.2923918E+03  0.7818608E-02  0.1089107E+00
         -2   -1    0    0    0  501 -0.00000000000E+00  0.00000000000E+00  0.49100158312E+02  0.49100158378E+02  0.25500000000E-02 0. -1.
          2   -1    0    0  501    0  0.00000000000E+00 -0.00000000000E+00 -0.43529892081E+03  0.43529892082E+03  0.25500000000E-02 0.  1.
    5000001    1    1    2    0    0 -0.50171532797E+02  0.92516490150E+02 -0.83611117501E+02  0.15490740015E+03  0.77000000000E+02 0.  0.
   -5000001    1    1    2    0    0  0.50171532797E+02 -0.92516490150E+02 -0.30258764500E+03  0.32949167905E+03  0.77000000000E+02 0.  0.
<mgrwt>
<rscale>  0 0.29239183E+03</rscale>
<asrwt>0</asrwt>
<pdfrwt beam="1">  1        2 0.62185558E-01 0.29239183E+03</pdfrwt>
<pdfrwt beam="2">  1       -2 0.70143086E-02 0.29239183E+03</pdfrwt>
<totfact> 0.91354233E+03</totfact>
</mgrwt>
</event>
<event>
 4    1  0.1300812E-003  0.2081326E+03  0.7818608E-02  0.1143053E+00
         -2   -1    0    0    0  501 -0.00000000000E+00  0.00000000000E+00  0.22473871139E+02  0.22473871284E+02  0.25500000000E-02 0. -1.
          2   -1    0    0  501    0  0.00000000000E+00 -0.00000000000E+00 -0.48188375847E+03  0.48188375848E+03  0.25500000000E-02 0.  1.
    5000001    1    1    2    0    0  0.25623785225E+02 -0.54256319868E+02 -0.14231767511E+03  0.17257939408E+03  0.77000000000E+02 0.  0.
   -5000001    1    1    2    0    0 -0.25623785225E+02  0.54256319868E+02 -0.31709221223E+03  0.33177823568E+03  0.77000000000E+02 0.  0.
<mgrwt>
<rscale>  0 0.20813259E+03</rscale>
<asrwt>0</asrwt>
<pdfrwt beam="1">  1        2 0.68840531E-01 0.20813259E+03</pdfrwt>
<pdfrwt beam="2">  1       -2 0.32105533E-02 0.20813259E+03</pdfrwt>
<totfact> 0.26208622E+04</totfact>
</mgrwt>
</event>
<event>
 4    1  0.1300812E-003  0.1898831E+03  0.7818608E-02  0.1158567E+00
         -2   -1    0    0    0  501 -0.00000000000E+00  0.00000000000E+00  0.63430660071E+01  0.63430665196E+01  0.25500000000E-02 0. -1.
          2   -1    0    0  501    0  0.00000000000E+00 -0.00000000000E+00 -0.14210635280E+04  0.14210635280E+04  0.25500000000E-02 0.  1.
    5000001    1    1    2    0    0  0.20611413515E+02  0.30279611349E+02 -0.10212208279E+04  0.10247744457E+04  0.77000000000E+02 0.  0.
   -5000001    1    1    2    0    0 -0.20611413515E+02 -0.30279611349E+02 -0.39349963408E+03  0.40263214881E+03  0.77000000000E+02 0.  0.
<mgrwt>
<rscale>  0 0.18988312E+03</rscale>
<asrwt>0</asrwt>
<pdfrwt beam="1">  1        2 0.20300887E+00 0.18988312E+03</pdfrwt>
<pdfrwt beam="2">  1       -2 0.90615323E-03 0.18988312E+03</pdfrwt>
<totfact> 0.41056279E+04</totfact>
</mgrwt>
</event>
<event>
 4    1  0.1300812E-003  0.2537163E+03  0.7818608E-02  0.1110978E+00
         -2   -1    0    0    0  501 -0.00000000000E+00  0.00000000000E+00  0.55365410168E+03  0.55365410168E+03  0.25500000000E-02 0. -1.
          2   -1    0    0  501    0  0.00000000000E+00 -0.00000000000E+00 -0.29066877935E+02  0.29066878046E+02  0.25500000000E-02 0.  1.
    5000001    1    1    2    0    0  0.55519228945E+02  0.78161229901E+02  0.19067231537E+03  0.22688431962E+03  0.77000000000E+02 0.  0.
   -5000001    1    1    2    0    0 -0.55519228945E+02 -0.78161229901E+02  0.33391490837E+03  0.35583666011E+03  0.77000000000E+02 0.  0.
<mgrwt>
<rscale>  0 0.25371635E+03</rscale>
<asrwt>0</asrwt>
<pdfrwt beam="1">  1        2 0.41524111E-02 0.25371635E+03</pdfrwt>
<pdfrwt beam="2">  1       -2 0.79093445E-01 0.25371635E+03</pdfrwt>
<totfact> 0.29263822E+03</totfact>
</mgrwt>
</event>
<event>
 4    1  0.1300812E-003  0.4371683E+03  0.7818608E-02  0.1031619E+00
          2   -1    0    0  501    0  0.00000000000E+00  0.00000000000E+00  0.12999480628E+04  0.12999480628E+04  0.25500000000E-02 0.  1.
         -2   -1    0    0    0  501 -0.00000000000E+00 -0.00000000000E+00 -0.36754564964E+02  0.36754565052E+02  0.25500000000E-02 0. -1.
    5000001    1    1    2    0    0 -0.59115639376E+02 -0.16512806939E+03  0.30962743402E+03  0.36408801960E+03  0.77000000000E+02 0.  0.
   -5000001    1    1    2    0    0  0.59115639376E+02  0.16512806939E+03  0.95356606377E+03  0.97261460821E+03  0.77000000000E+02 0.  0.
<mgrwt>
<rscale>  0 0.43716828E+03</rscale>
<asrwt>0</asrwt>
<pdfrwt beam="1">  1        2 0.18570687E+00 0.43716828E+03</pdfrwt>
<pdfrwt beam="2">  1       -2 0.52506521E-02 0.43716828E+03</pdfrwt>
<totfact> 0.36093886E+03</totfact>
</mgrwt>
</event>
<event>
 4    1  0.1300812E-003  0.2800467E+03  0.7818608E-02  0.1095663E+00
          2   -1    0    0  501    0  0.00000000000E+00  0.00000000000E+00  0.79298625520E+02  0.79298625561E+02  0.25500000000E-02 0.  1.
         -2   -1    0    0    0  501 -0.00000000000E+00 -0.00000000000E+00 -0.24724947281E+03  0.24724947282E+03  0.25500000000E-02 0. -1.
    5000001    1    1    2    0    0 -0.10440149595E+02  0.49944530724E+02 -0.20668280277E+03  0.22638514491E+03  0.77000000000E+02 0.  0.
   -5000001    1    1    2    0    0  0.10440149595E+02 -0.49944530724E+02  0.38731955486E+02  0.10016295347E+03  0.77000000000E+02 0.  0.
<mgrwt>
<rscale>  0 0.28004673E+03</rscale>
<asrwt>0</asrwt>
<pdfrwt beam="1">  1        2 0.11328375E-01 0.28004673E+03</pdfrwt>
<pdfrwt beam="2">  1       -2 0.35321353E-01 0.28004673E+03</pdfrwt>
<totfact> 0.41233965E+03</totfact>
</mgrwt>
</event>
<event>
 4    1  0.1300812E-003  0.1933469E+03  0.7818608E-02  0.1155477E+00
          2   -1    0    0  501    0  0.00000000000E+00  0.00000000000E+00  0.13500792891E+04  0.13500792891E+04  0.25500000000E-02 0.  1.
         -2   -1    0    0    0  501 -0.00000000000E+00 -0.00000000000E+00 -0.69223737805E+01  0.69223742502E+01  0.25500000000E-02 0. -1.
    5000001    1    1    2    0    0  0.47142011089E+02 -0.33662552585E+02  0.72649203331E+03  0.73285415406E+03  0.77000000000E+02 0.  0.
   -5000001    1    1    2    0    0 -0.47142011089E+02  0.33662552585E+02  0.61666488201E+03  0.62414750930E+03  0.77000000000E+02 0.  0.
<mgrwt>
<rscale>  0 0.19334688E+03</rscale>
<asrwt>0</asrwt>
<pdfrwt beam="1">  1        2 0.19286842E+00 0.19334688E+03</pdfrwt>
<pdfrwt beam="2">  1       -2 0.98891085E-03 0.19334688E+03</pdfrwt>
<totfact> 0.39395780E+04</totfact>
</mgrwt>
</event>
<event>
 4    1  0.1300812E-003  0.1919913E+03  0.7818608E-02  0.1156677E+00
         -2   -1    0    0    0  501 -0.00000000000E+00  0.00000000000E+00  0.35047948179E+01  0.35047957456E+01  0.25500000000E-02 0. -1.
          2   -1    0    0  501    0  0.00000000000E+00 -0.00000000000E+00 -0.26293012946E+04  0.26293012946E+04  0.25500000000E-02 0.  1.
    5000001    1    1    2    0    0 -0.41260602079E+02 -0.39388287316E+02 -0.13908202430E+04  0.13941175786E+04  0.77000000000E+02 0.  0.
   -5000001    1    1    2    0    0  0.41260602079E+02  0.39388287316E+02 -0.12349762568E+04  0.12386885118E+04  0.77000000000E+02 0.  0.
<mgrwt>
<rscale>  0 0.19199128E+03</rscale>
<asrwt>0</asrwt>
<pdfrwt beam="1">  1        2 0.37561321E+00 0.19199128E+03</pdfrwt>
<pdfrwt beam="2">  1       -2 0.50068672E-03 0.19199128E+03</pdfrwt>
<totfact> 0.24740959E+04</totfact>
</mgrwt>
</event>
<event>
 4    1  0.1300812E-003  0.2388821E+03  0.7818608E-02  0.1120540E+00
          2   -1    0    0  501    0  0.00000000000E+00  0.00000000000E+00  0.23859478670E+03  0.23859478672E+03  0.25500000000E-02 0.  1.
         -2   -1    0    0    0  501 -0.00000000000E+00 -0.00000000000E+00 -0.59792436756E+02  0.59792436810E+02  0.25500000000E-02 0. -1.
    5000001    1    1    2    0    0 -0.70703219407E+02 -0.57742946954E+02  0.91890157181E+02  0.15068508269E+03  0.77000000000E+02 0.  0.
   -5000001    1    1    2    0    0  0.70703219407E+02  0.57742946954E+02  0.86912192767E+02  0.14770214084E+03  0.77000000000E+02 0.  0.
<mgrwt>
<rscale>  0 0.23888209E+03</rscale>
<asrwt>0</asrwt>
<pdfrwt beam="1">  1        2 0.34084970E-01 0.23888209E+03</pdfrwt>
<pdfrwt beam="2">  1       -2 0.85417766E-02 0.23888209E+03</pdfrwt>
<totfact> 0.12737947E+04</totfact>
</mgrwt>
</event>
<event>
 4    1  0.1300812E-003  0.1987117E+03  0.7818608E-02  0.1150830E+00
         -2   -1    0    0    0  501 -0.00000000000E+00  0.00000000000E+00  0.11708398354E+02  0.11708398632E+02  0.25500000000E-02 0. -1.
          2   -1    0    0  501    0  0.00000000000E+00 -0.00000000000E+00 -0.84312033068E+03  0.84312033068E+03  0.25500000000E-02 0.  1.
    5000001    1    1    2    0    0  0.57626053770E+02  0.24832139831E+02 -0.40590418553E+03  0.41788108963E+03  0.77000000000E+02 0.  0.
   -5000001    1    1    2    0    0 -0.57626053770E+02 -0.24832139831E+02 -0.42550774679E+03  0.43694763968E+03  0.77000000000E+02 0.  0.
<mgrwt>
<rscale>  0 0.19871174E+03</rscale>
<asrwt>0</asrwt>
<pdfrwt beam="1">  1        2 0.12044572E+00 0.19871174E+03</pdfrwt>
<pdfrwt beam="2">  1       -2 0.16726289E-02 0.19871174E+03</pdfrwt>
<totfact> 0.35650279E+04</totfact>
</mgrwt>
</event>
<event>
 4    1  0.1300812E-003  0.2804894E+03  0.7818608E-02  0.1095422E+00
          2   -1    0    0  501    0  0.00000000000E+00  0.00000000000E+00  0.10326166201E+04  0.10326166201E+04  0.25500000000E-02 0.  1.
         -2   -1    0    0    0  501 -0.00000000000E+00 -0.00000000000E+00 -0.19047316726E+02  0.19047316896E+02  0.25500000000E-02 0. -1.
    5000001    1    1    2    0    0  0.99885436802E+02 -0.60606306495E+02  0.54222600794E+03  0.55998952540E+03  0.77000000000E+02 0.  0.
   -5000001    1    1    2    0    0 -0.99885436802E+02  0.60606306495E+02  0.47134329548E+03  0.49167441164E+03  0.77000000000E+02 0.  0.
<mgrwt>
<rscale>  0 0.28048940E+03</rscale>
<asrwt>0</asrwt>
<pdfrwt beam="1">  1        2 0.14751669E+00 0.28048940E+03</pdfrwt>
<pdfrwt beam="2">  1       -2 0.27210447E-02 0.28048940E+03</pdfrwt>
<totfact> 0.13623778E+04</totfact>
</mgrwt>
</event>
<event>
 4    1  0.1300812E-003  0.3380454E+03  0.7818608E-02  0.1067631E+00
          2   -1    0    0  501    0  0.00000000000E+00  0.00000000000E+00  0.24070064294E+03  0.24070064295E+03  0.25500000000E-02 0.  1.
         -2   -1    0    0    0  501 -0.00000000000E+00 -0.00000000000E+00 -0.11868963164E+03  0.11868963167E+03  0.25500000000E-02 0. -1.
    5000001    1    1    2    0    0 -0.47848307023E+02  0.13339751986E+03  0.11474743632E+03  0.19794022565E+03  0.77000000000E+02 0.  0.
   -5000001    1    1    2    0    0  0.47848307023E+02 -0.13339751986E+03  0.72635749720E+01  0.16145004896E+03  0.77000000000E+02 0.  0.
<mgrwt>
<rscale>  0 0.33804539E+03</rscale>
<asrwt>0</asrwt>
<pdfrwt beam="1">  1        2 0.34385806E-01 0.33804539E+03</pdfrwt>
<pdfrwt beam="2">  1       -2 0.16955662E-01 0.33804539E+03</pdfrwt>
<totfact> 0.42137521E+03</totfact>
</mgrwt>
</event>
<event>
 4    1  0.1300812E-003  0.2240258E+03  0.7818608E-02  0.1130917E+00
         -2   -1    0    0    0  501 -0.00000000000E+00  0.00000000000E+00  0.32803798311E+02  0.32803798410E+02  0.25500000000E-02 0. -1.
          2   -1    0    0  501    0  0.00000000000E+00 -0.00000000000E+00 -0.38248299457E+03  0.38248299458E+03  0.25500000000E-02 0.  1.
    5000001    1    1    2    0    0  0.52083666668E+02 -0.33171446073E+02 -0.76663858376E+02  0.12497759939E+03  0.77000000000E+02 0.  0.
   -5000001    1    1    2    0    0 -0.52083666668E+02  0.33171446073E+02 -0.27301533788E+03  0.29030919360E+03  0.77000000000E+02 0.  0.
<mgrwt>
<rscale>  0 0.22402585E+03</rscale>
<asrwt>0</asrwt>
<pdfrwt beam="1">  1        2 0.54640425E-01 0.22402585E+03</pdfrwt>
<pdfrwt beam="2">  1       -2 0.46862571E-02 0.22402585E+03</pdfrwt>
<totfact> 0.19206999E+04</totfact>
</mgrwt>
</event>
<event>
 4    1  0.1300812E-003  0.2602340E+03  0.7818608E-02  0.1107003E+00
         -2   -1    0    0    0  501 -0.00000000000E+00  0.00000000000E+00  0.19532144145E+02  0.19532144311E+02  0.25500000000E-02 0. -1.
          2   -1    0    0  501    0  0.00000000000E+00 -0.00000000000E+00 -0.86679854959E+03  0.86679854959E+03  0.25500000000E-02 0.  1.
    5000001    1    1    2    0    0  0.43898462453E+01  0.73339363032E+02 -0.67858700053E+03  0.68688226808E+03  0.77000000000E+02 0.  0.
   -5000001    1    1    2    0    0 -0.43898462453E+01 -0.73339363032E+02 -0.16867940491E+03  0.19944842582E+03  0.77000000000E+02 0.  0.
<mgrwt>
<rscale>  0 0.26023400E+03</rscale>
<asrwt>0</asrwt>
<pdfrwt beam="1">  1        2 0.12382834E+00 0.26023400E+03</pdfrwt>
<pdfrwt beam="2">  1       -2 0.27903069E-02 0.26023400E+03</pdfrwt>
<totfact> 0.16500639E+04</totfact>
</mgrwt>
</event>
<event>
 4    1  0.1300812E-003  0.2672768E+03  0.7818608E-02  0.1102848E+00
          2   -1    0    0  501    0  0.00000000000E+00  0.00000000000E+00  0.18749983207E+04  0.18749983207E+04  0.25500000000E-02 0.  1.
         -2   -1    0    0    0  501 -0.00000000000E+00 -0.00000000000E+00 -0.95249285450E+01  0.95249288864E+01  0.25500000000E-02 0. -1.
    5000001    1    1    2    0    0  0.36234428998E+02 -0.68247889914E+02  0.38842742959E+03  0.40345455305E+03  0.77000000000E+02 0.  0.
   -5000001    1    1    2    0    0 -0.36234428998E+02  0.68247889914E+02  0.14770459626E+04  0.14810686966E+04  0.77000000000E+02 0.  0.
<mgrwt>
<rscale>  0 0.26727683E+03</rscale>
<asrwt>0</asrwt>
<pdfrwt beam="1">  1        2 0.26785702E+00 0.26727683E+03</pdfrwt>
<pdfrwt beam="2">  1       -2 0.13607035E-02 0.26727683E+03</pdfrwt>
<totfact> 0.13821907E+04</totfact>
</mgrwt>
</event>
<event>
 4    1  0.1300812E-003  0.2170186E+03  0.7818608E-02  0.1136126E+00
          2   -1    0    0  501    0  0.00000000000E+00  0.00000000000E+00  0.24258440097E+03  0.24258440098E+03  0.25500000000E-02 0.  1.
         -2   -1    0    0    0  501 -0.00000000000E+00 -0.00000000000E+00 -0.48536780556E+02  0.48536780623E+02  0.25500000000E-02 0. -1.
    5000001    1    1    2    0    0  0.45604749431E+02  0.59165482990E+02  0.11885778832E+03  0.16011408867E+03  0.77000000000E+02 0.  0.
   -5000001    1    1    2    0    0 -0.45604749431E+02 -0.59165482990E+02  0.75189832096E+02  0.13100709293E+03  0.77000000000E+02 0.  0.
<mgrwt>
<rscale>  0 0.21701858E+03</rscale>
<asrwt>0</asrwt>
<pdfrwt beam="1">  1        2 0.34654915E-01 0.21701858E+03</pdfrwt>
<pdfrwt beam="2">  1       -2 0.69338258E-02 0.21701858E+03</pdfrwt>
<totfact> 0.17195772E+04</totfact>
</mgrwt>
</event>
<event>
 4    1  0.1300812E-003  0.2130089E+03  0.7818608E-02  0.1139205E+00
         -2   -1    0    0    0  501 -0.00000000000E+00  0.00000000000E+00  0.27101894238E+02  0.27101894358E+02  0.25500000000E-02 0. -1.
          2   -1    0    0  501    0  0.00000000000E+00 -0.00000000000E+00 -0.41853878252E+03  0.41853878252E+03  0.25500000000E-02 0.  1.
    5000001    1    1    2    0    0 -0.25093358271E+02  0.67116601116E+02 -0.16071809590E+03  0.19207712286E+03  0.77000000000E+02 0.  0.
   -5000001    1    1    2    0    0  0.25093358271E+02 -0.67116601116E+02 -0.23071879237E+03  0.25356355402E+03  0.77000000000E+02 0.  0.
<mgrwt>
<rscale>  0 0.21300886E+03</rscale>
<asrwt>0</asrwt>
<pdfrwt beam="1">  1        2 0.59791251E-01 0.21300886E+03</pdfrwt>
<pdfrwt beam="2">  1       -2 0.38716994E-02 0.21300886E+03</pdfrwt>
<totfact> 0.23143194E+04</totfact>
</mgrwt>
</event>
<event>
 4    1  0.1300812E-003  0.2211465E+03  0.7818608E-02  0.1133031E+00
          2   -1    0    0  501    0  0.00000000000E+00  0.00000000000E+00  0.34143045820E+04  0.34143045820E+04  0.25500000000E-02 0.  1.
         -2   -1    0    0    0  501 -0.00000000000E+00 -0.00000000000E+00 -0.35809467129E+01  0.35809476209E+01  0.25500000000E-02 0. -1.
    5000001    1    1    2    0    0 -0.40449465899E+02 -0.65418254782E+02  0.14033947768E+04  0.14076084707E+04  0.77000000000E+02 0.  0.
   -5000001    1    1    2    0    0  0.40449465899E+02  0.65418254782E+02  0.20073288586E+04  0.20102770590E+04  0.77000000000E+02 0.  0.
<mgrwt>
<rscale>  0 0.22114651E+03</rscale>
<asrwt>0</asrwt>
<pdfrwt beam="1">  1        2 0.48775567E+00 0.22114651E+03</pdfrwt>
<pdfrwt beam="2">  1       -2 0.51156611E-03 0.22114651E+03</pdfrwt>
<totfact> 0.92515578E+03</totfact>
</mgrwt>
</event>
<event>
 4    1  0.1300812E-003  0.2065195E+03  0.7818608E-02  0.1144352E+00
          2   -1    0    0  501    0  0.00000000000E+00  0.00000000000E+00  0.18180946347E+03  0.18180946349E+03  0.25500000000E-02 0.  1.
         -2   -1    0    0    0  501 -0.00000000000E+00 -0.00000000000E+00 -0.58646990105E+02  0.58646990161E+02  0.25500000000E-02 0. -1.
    5000001    1    1    2    0    0  0.35012448246E+02  0.38730465500E+02  0.94113217074E+01  0.93506649316E+02  0.77000000000E+02 0.  0.
   -5000001    1    1    2    0    0 -0.35012448246E+02 -0.38730465500E+02  0.11375115166E+03  0.14694980433E+03  0.77000000000E+02 0.  0.
<mgrwt>
<rscale>  0 0.20651952E+03</rscale>
<asrwt>0</asrwt>
<pdfrwt beam="1">  1        2 0.25972781E-01 0.20651952E+03</pdfrwt>
<pdfrwt beam="2">  1       -2 0.83781413E-02 0.20651952E+03</pdfrwt>
<totfact> 0.17514620E+04</totfact>
</mgrwt>
</event>
<event>
 4    1  0.1300812E-003  0.2561672E+03  0.7818608E-02  0.1109468E+00
         -2   -1    0    0    0  501 -0.00000000000E+00  0.00000000000E+00  0.55169146664E+02  0.55169146723E+02  0.25500000000E-02 0. -1.
          2   -1    0    0  501    0  0.00000000000E+00 -0.00000000000E+00 -0.29736553114E+03  0.29736553115E+03  0.25500000000E-02 0.  1.
    5000001    1    1    2    0    0  0.11525866531E+02  0.10076479053E+03 -0.14006836147E+03  0.18930011753E+03  0.77000000000E+02 0.  0.
   -5000001    1    1    2    0    0 -0.11525866531E+02 -0.10076479053E+03 -0.10212802300E+03  0.16323456035E+03  0.77000000000E+02 0.  0.
<mgrwt>
<rscale>  0 0.25616715E+03</rscale>
<asrwt>0</asrwt>
<pdfrwt beam="1">  1        2 0.42480789E-01 0.25616715E+03</pdfrwt>
<pdfrwt beam="2">  1       -2 0.78813069E-02 0.25616715E+03</pdfrwt>
<totfact> 0.11431574E+04</totfact>
</mgrwt>
</event>
<event>
 4    1  0.1300812E-003  0.2013139E+03  0.7818608E-02  0.1148635E+00
         -2   -1    0    0    0  501 -0.00000000000E+00  0.00000000000E+00  0.31471828376E+02  0.31471828479E+02  0.25500000000E-02 0. -1.
          2   -1    0    0  501    0  0.00000000000E+00 -0.00000000000E+00 -0.32193305173E+03  0.32193305174E+03  0.25500000000E-02 0.  1.
    5000001    1    1    2    0    0  0.54511720309E+02  0.34821393043E+02 -0.13762612889E+03  0.17045236407E+03  0.77000000000E+02 0.  0.
   -5000001    1    1    2    0    0 -0.54511720309E+02 -0.34821393043E+02 -0.15283509447E+03  0.18295251615E+03  0.77000000000E+02 0.  0.
<mgrwt>
<rscale>  0 0.20131390E+03</rscale>
<asrwt>0</asrwt>
<pdfrwt beam="1">  1        2 0.45990434E-01 0.20131390E+03</pdfrwt>
<pdfrwt beam="2">  1       -2 0.44959757E-02 0.20131390E+03</pdfrwt>
<totfact> 0.24403954E+04</totfact>
</mgrwt>
</event>
<event>
 4    1  0.1300812E-003  0.2293588E+03  0.7818608E-02  0.1127092E+00
         -2   -1    0    0    0  501 -0.00000000000E+00  0.00000000000E+00  0.19043763597E+03  0.19043763598E+03  0.25500000000E-02 0. -1.
          2   -1    0    0  501    0  0.00000000000E+00 -0.00000000000E+00 -0.69058641606E+02  0.69058641653E+02  0.25500000000E-02 0.  1.
    5000001    1    1    2    0    0 -0.60827237691E+02  0.52107456038E+02  0.92834460517E+02  0.14478389717E+03  0.77000000000E+02 0.  0.
   -5000001    1    1    2    0    0  0.60827237691E+02 -0.52107456038E+02  0.28544533842E+02  0.11471238047E+03  0.77000000000E+02 0.  0.
<mgrwt>
<rscale>  0 0.22935880E+03</rscale>
<asrwt>0</asrwt>
<pdfrwt beam="1">  1        2 0.98655200E-02 0.22935880E+03</pdfrwt>
<pdfrwt beam="2">  1       -2 0.27205377E-01 0.22935880E+03</pdfrwt>
<totfact> 0.78049635E+03</totfact>
</mgrwt>
</event>
<event>
 4    1  0.1300812E-003  0.2945280E+03  0.7818608E-02  0.1088008E+00
         -2   -1    0    0    0  501 -0.00000000000E+00  0.00000000000E+00  0.86293102216E+01  0.86293105983E+01  0.25500000000E-02 0. -1.
          2   -1    0    0  501    0  0.00000000000E+00 -0.00000000000E+00 -0.25131419835E+04  0.25131419835E+04  0.25500000000E-02 0.  1.
    5000001    1    1    2    0    0  0.12235741196E+03 -0.18499620028E+01 -0.14918298776E+04  0.14988195830E+04  0.77000000000E+02 0.  0.
   -5000001    1    1    2    0    0 -0.12235741196E+03  0.18499620028E+01 -0.10126827956E+04  0.10229517111E+04  0.77000000000E+02 0.  0.
<mgrwt>
<rscale>  0 0.29452798E+03</rscale>
<asrwt>0</asrwt>
<pdfrwt beam="1">  1        2 0.35901981E+00 0.29452798E+03</pdfrwt>
<pdfrwt beam="2">  1       -2 0.12327602E-02 0.29452798E+03</pdfrwt>
<totfact> 0.77657703E+03</totfact>
</mgrwt>
</event>
<event>
 4    1  0.1300812E-003  0.2410855E+03  0.7818608E-02  0.1119072E+00
          2   -1    0    0  501    0  0.00000000000E+00  0.00000000000E+00  0.29215823621E+02  0.29215823732E+02  0.25500000000E-02 0.  1.
         -2   -1    0    0    0  501 -0.00000000000E+00 -0.00000000000E+00 -0.49735220524E+03  0.49735220524E+03  0.25500000000E-02 0. -1.
    5000001    1    1    2    0    0 -0.32425996891E+02  0.36764263906E+02 -0.62108509608E+02  0.11040617438E+03  0.77000000000E+02 0.  0.
   -5000001    1    1    2    0    0  0.32425996891E+02 -0.36764263906E+02 -0.40602787201E+03  0.41616185460E+03  0.77000000000E+02 0.  0.
<mgrwt>
<rscale>  0 0.24108550E+03</rscale>
<asrwt>0</asrwt>
<pdfrwt beam="1">  1        2 0.41736894E-02 0.24108550E+03</pdfrwt>
<pdfrwt beam="2">  1       -2 0.71050310E-01 0.24108550E+03</pdfrwt>
<totfact> 0.36606697E+03</totfact>
</mgrwt>
</event>
<event>
 4    1  0.1300812E-003  0.1848863E+03  0.7818608E-02  0.1163156E+00
          2   -1    0    0  501    0  0.00000000000E+00  0.00000000000E+00  0.11567642660E+04  0.11567642660E+04  0.25500000000E-02 0.  1.
         -2   -1    0    0    0  501 -0.00000000000E+00 -0.00000000000E+00 -0.73876198306E+01  0.73876202707E+01  0.25500000000E-02 0. -1.
    5000001    1    1    2    0    0  0.35140680474E+02 -0.29810570994E+02  0.43485351290E+03  0.44401589527E+03  0.77000000000E+02 0.  0.
   -5000001    1    1    2    0    0 -0.35140680474E+02  0.29810570994E+02  0.71452313322E+03  0.72013599096E+03  0.77000000000E+02 0.  0.
<mgrwt>
<rscale>  0 0.18488629E+03</rscale>
<asrwt>0</asrwt>
<pdfrwt beam="1">  1        2 0.16525202E+00 0.18488629E+03</pdfrwt>
<pdfrwt beam="2">  1       -2 0.10553744E-02 0.18488629E+03</pdfrwt>
<totfact> 0.45210098E+04</totfact>
</mgrwt>
</event>
<event>
 4    1  0.1300812E-003  0.2739270E+03  0.7818608E-02  0.1099053E+00
         -2   -1    0    0    0  501 -0.00000000000E+00  0.00000000000E+00  0.59009722144E+02  0.59009722200E+02  0.25500000000E-02 0. -1.
          2   -1    0    0  501    0  0.00000000000E+00 -0.00000000000E+00 -0.31789683096E+03  0.31789683097E+03  0.25500000000E-02 0.  1.
    5000001    1    1    2    0    0  0.94785113034E+02  0.61989567573E+02 -0.13185813391E+03  0.19011178716E+03  0.77000000000E+02 0.  0.
   -5000001    1    1    2    0    0 -0.94785113034E+02 -0.61989567573E+02 -0.12702897490E+03  0.18679476600E+03  0.77000000000E+02 0.  0.
<mgrwt>
<rscale>  0 0.27392702E+03</rscale>
<asrwt>0</asrwt>
<pdfrwt beam="1">  1        2 0.45413832E-01 0.27392702E+03</pdfrwt>
<pdfrwt beam="2">  1       -2 0.84299604E-02 0.27392702E+03</pdfrwt>
<totfact> 0.96074219E+03</totfact>
</mgrwt>
</event>
<event>
 4    1  0.1300812E-003  0.2011712E+03  0.7818608E-02  0.1148755E+00
          2   -1    0    0  501    0  0.00000000000E+00  0.00000000000E+00  0.11263676494E+04  0.11263676494E+04  0.25500000000E-02 0.  1.
         -2   -1    0    0    0  501 -0.00000000000E+00 -0.00000000000E+00 -0.89823831676E+01  0.89823835295E+01  0.25500000000E-02 0. -1.
    5000001    1    1    2    0    0  0.88994759093E+01 -0.49808057202E+02  0.33094834711E+03  0.34353435300E+03  0.77000000000E+02 0.  0.
   -5000001    1    1    2    0    0 -0.88994759093E+01  0.49808057202E+02  0.78643691908E+03  0.79181567989E+03  0.77000000000E+02 0.  0.
<mgrwt>
<rscale>  0 0.20117123E+03</rscale>
<asrwt>0</asrwt>
<pdfrwt beam="1">  1        2 0.16090967E+00 0.20117123E+03</pdfrwt>
<pdfrwt beam="2">  1       -2 0.12831976E-02 0.20117123E+03</pdfrwt>
<totfact> 0.35642457E+04</totfact>
</mgrwt>
</event>
<event>
 4    1  0.1300812E-003  0.3081450E+03  0.7818608E-02  0.1081238E+00
         -2   -1    0    0    0  501 -0.00000000000E+00  0.00000000000E+00  0.18752376994E+02  0.18752377168E+02  0.25500000000E-02 0. -1.
          2   -1    0    0  501    0  0.00000000000E+00 -0.00000000000E+00 -0.12658843665E+04  0.12658843665E+04  0.25500000000E-02 0.  1.
    5000001    1    1    2    0    0  0.97308756386E+02 -0.84354854917E+02 -0.47767676163E+03  0.50068835039E+03  0.77000000000E+02 0.  0.
   -5000001    1    1    2    0    0 -0.97308756386E+02  0.84354854917E+02 -0.76945522789E+03  0.78394839329E+03  0.77000000000E+02 0.  0.
<mgrwt>
<rscale>  0 0.30814504E+03</rscale>
<asrwt>0</asrwt>
<pdfrwt beam="1">  1        2 0.18084057E+00 0.30814504E+03</pdfrwt>
<pdfrwt beam="2">  1       -2 0.26789118E-02 0.30814504E+03</pdfrwt>
<totfact> 0.10376621E+04</totfact>
</mgrwt>
</event>
<event>
 4    1  0.1300812E-003  0.1924957E+03  0.7818608E-02  0.1156229E+00
         -2   -1    0    0    0  501 -0.00000000000E+00  0.00000000000E+00  0.24037159686E+02  0.24037159821E+02  0.25500000000E-02 0. -1.
          2   -1    0    0  501    0  0.00000000000E+00 -0.00000000000E+00 -0.38538866932E+03  0.38538866933E+03  0.25500000000E-02 0.  1.
    5000001    1    1    2    0    0 -0.49957447082E+01 -0.52118243573E+02 -0.12886490279E+03  0.15898563441E+03  0.77000000000E+02 0.  0.
   -5000001    1    1    2    0    0  0.49957447082E+01  0.52118243573E+02 -0.23248660685E+03  0.25044019474E+03  0.77000000000E+02 0.  0.
<mgrwt>
<rscale>  0 0.19249570E+03</rscale>
<asrwt>0</asrwt>
<pdfrwt beam="1">  1        2 0.55055520E-01 0.19249570E+03</pdfrwt>
<pdfrwt beam="2">  1       -2 0.34338802E-02 0.19249570E+03</pdfrwt>
<totfact> 0.30011211E+04</totfact>
</mgrwt>
</event>
<event>
 4    1  0.1300812E-003  0.1724500E+03  0.7818608E-02  0.1175317E+00
          2   -1    0    0  501    0  0.00000000000E+00  0.00000000000E+00  0.30951621855E+03  0.30951621856E+03  0.25500000000E-02 0.  1.
         -2   -1    0    0    0  501 -0.00000000000E+00 -0.00000000000E+00 -0.24020541738E+02  0.24020541873E+02  0.25500000000E-02 0. -1.
    5000001    1    1    2    0    0 -0.37784643667E+02  0.88227134591E+01  0.14367075600E+03  0.16755836505E+03  0.77000000000E+02 0.  0.
   -5000001    1    1    2    0    0  0.37784643667E+02 -0.88227134591E+01  0.14182492082E+03  0.16597839538E+03  0.77000000000E+02 0.  0.
<mgrwt>
<rscale>  0 0.17244996E+03</rscale>
<asrwt>0</asrwt>
<pdfrwt beam="1">  1        2 0.44216604E-01 0.17244996E+03</pdfrwt>
<pdfrwt beam="2">  1       -2 0.34315058E-02 0.17244996E+03</pdfrwt>
<totfact> 0.37591436E+04</totfact>
</mgrwt>
</event>
<event>
 4    1  0.1300812E-003  0.2150214E+03  0.7818608E-02  0.1137650E+00
          2   -1    0    0  501    0  0.00000000000E+00  0.00000000000E+00  0.95645782360E+03  0.95645782360E+03  0.25500000000E-02 0.  1.
         -2   -1    0    0    0  501 -0.00000000000E+00 -0.00000000000E+00 -0.12084749794E+02  0.12084750063E+02  0.25500000000E-02 0. -1.
    5000001    1    1    2    0    0 -0.25222660069E+01 -0.73158995990E+02  0.54633190661E+03  0.55656639559E+03  0.77000000000E+02 0.  0.
   -5000001    1    1    2    0    0  0.25222660069E+01  0.73158995990E+02  0.39804116719E+03  0.41197617808E+03  0.77000000000E+02 0.  0.
<mgrwt>
<rscale>  0 0.21502143E+03</rscale>
<asrwt>0</asrwt>
<pdfrwt beam="1">  1        2 0.13663685E+00 0.21502143E+03</pdfrwt>
<pdfrwt beam="2">  1       -2 0.17263926E-02 0.21502143E+03</pdfrwt>
<totfact> 0.29115173E+04</totfact>
</mgrwt>
</event>
<event>
 4    1  0.1300812E-003  0.2341473E+03  0.7818608E-02  0.1123754E+00
          2   -1    0    0  501    0  0.00000000000E+00  0.00000000000E+00  0.20113450967E+04  0.20113450967E+04  0.25500000000E-02 0.  1.
         -2   -1    0    0    0  501 -0.00000000000E+00 -0.00000000000E+00 -0.68144626853E+01  0.68144631624E+01  0.25500000000E-02 0. -1.
    5000001    1    1    2    0    0 -0.29097264700E+02  0.78581964619E+02  0.76536136493E+03  0.77377567479E+03  0.77000000000E+02 0.  0.
   -5000001    1    1    2    0    0  0.29097264700E+02 -0.78581964619E+02  0.12391692691E+04  0.12443838851E+04  0.77000000000E+02 0.  0.
<mgrwt>
<rscale>  0 0.23414727E+03</rscale>
<asrwt>0</asrwt>
<pdfrwt beam="1">  1        2 0.28733516E+00 0.23414727E+03</pdfrwt>
<pdfrwt beam="2">  1       -2 0.97349422E-03 0.23414727E+03</pdfrwt>
<totfact> 0.19224653E+04</totfact>
</mgrwt>
</event>
<event>
 4    1  0.1300812E-003  0.2172881E+03  0.7818608E-02  0.1135921E+00
          2   -1    0    0  501    0  0.00000000000E+00  0.00000000000E+00  0.64893850302E+03  0.64893850302E+03  0.25500000000E-02 0.  1.
         -2   -1    0    0    0  501 -0.00000000000E+00 -0.00000000000E+00 -0.18188974975E+02  0.18188975154E+02  0.25500000000E-02 0. -1.
    5000001    1    1    2    0    0  0.69886255169E+02  0.30054543229E+02  0.34403875103E+03  0.36066470085E+03  0.77000000000E+02 0.  0.
   -5000001    1    1    2    0    0 -0.69886255169E+02 -0.30054543229E+02  0.28671077701E+03  0.30646277732E+03  0.77000000000E+02 0.  0.
<mgrwt>
<rscale>  0 0.21728807E+03</rscale>
<asrwt>0</asrwt>
<pdfrwt beam="1">  1        2 0.92705504E-01 0.21728807E+03</pdfrwt>
<pdfrwt beam="2">  1       -2 0.25984249E-02 0.21728807E+03</pdfrwt>
<totfact> 0.25754139E+04</totfact>
</mgrwt>
</event>
<event>
 4    1  0.1300812E-003  0.2831637E+03  0.7818608E-02  0.1093973E+00
         -2   -1    0    0    0  501 -0.00000000000E+00  0.00000000000E+00  0.33626114133E+02  0.33626114230E+02  0.25500000000E-02 0. -1.
          2   -1    0    0  501    0  0.00000000000E+00 -0.00000000000E+00 -0.59612656961E+03  0.59612656962E+03  0.25500000000E-02 0.  1.
    5000001    1    1    2    0    0 -0.11107489329E+03  0.34849210720E+02 -0.33408203146E+03  0.36206615852E+03  0.77000000000E+02 0.  0.
   -5000001    1    1    2    0    0  0.11107489329E+03 -0.34849210720E+02 -0.22841842402E+03  0.26768652532E+03  0.77000000000E+02 0.  0.
<mgrwt>
<rscale>  0 0.28316370E+03</rscale>
<asrwt>0</asrwt>
<pdfrwt beam="1">  1        2 0.85160932E-01 0.28316370E+03</pdfrwt>
<pdfrwt beam="2">  1       -2 0.48037310E-02 0.28316370E+03</pdfrwt>
<totfact> 0.11492352E+04</totfact>
</mgrwt>
</event>
<event>
 4    1  0.1300812E-003  0.2939283E+03  0.7818608E-02  0.1088316E+00
         -2   -1    0    0    0  501 -0.00000000000E+00  0.00000000000E+00  0.10909709456E+03  0.10909709459E+03  0.25500000000E-02 0. -1.
          2   -1    0    0  501    0  0.00000000000E+00 -0.00000000000E+00 -0.19797462757E+03  0.19797462758E+03  0.25500000000E-02 0.  1.
    5000001    1    1    2    0    0  0.76546518319E+02  0.87188573141E+00  0.59032097559E+02  0.12358769435E+03  0.77000000000E+02 0.  0.
   -5000001    1    1    2    0    0 -0.76546518319E+02 -0.87188573141E+00 -0.14790963057E+03  0.18348402782E+03  0.77000000000E+02 0.  0.
<mgrwt>
<rscale>  0 0.29392827E+03</rscale>
<asrwt>0</asrwt>
<pdfrwt beam="1">  1        2 0.28282090E-01 0.29392827E+03</pdfrwt>
<pdfrwt beam="2">  1       -2 0.15585299E-01 0.29392827E+03</pdfrwt>
<totfact> 0.59882903E+03</totfact>
</mgrwt>
</event>
<event>
 4    1  0.1300812E-003  0.2388263E+03  0.7818608E-02  0.1120577E+00
          2   -1    0    0  501    0  0.00000000000E+00  0.00000000000E+00  0.11061465210E+02  0.11061465504E+02  0.25500000000E-02 0.  1.
         -2   -1    0    0    0  501 -0.00000000000E+00 -0.00000000000E+00 -0.12891145702E+04  0.12891145702E+04  0.25500000000E-02 0. -1.
    5000001    1    1    2    0    0  0.53846312691E+02 -0.31728570405E+02 -0.27691221429E+03  0.29413517640E+03  0.77000000000E+02 0.  0.
   -5000001    1    1    2    0    0 -0.53846312691E+02  0.31728570405E+02 -0.10011408907E+04  0.10060408593E+04  0.77000000000E+02 0.  0.
<mgrwt>
<rscale>  0 0.23882626E+03</rscale>
<asrwt>0</asrwt>
<pdfrwt beam="1">  1        2 0.15802102E-02 0.23882626E+03</pdfrwt>
<pdfrwt beam="2">  1       -2 0.18415913E+00 0.23882626E+03</pdfrwt>
<totfact> 0.13804967E+03</totfact>
</mgrwt>
</event>
<event>
 4    1  0.1300812E-003  0.2961052E+03  0.7818608E-02  0.1087204E+00
          2   -1    0    0  501    0  0.00000000000E+00  0.00000000000E+00  0.16436567991E+04  0.16436567991E+04  0.25500000000E-02 0.  1.
         -2   -1    0    0    0  501 -0.00000000000E+00 -0.00000000000E+00 -0.13335854737E+02  0.13335854981E+02  0.25500000000E-02 0. -1.
    5000001    1    1    2    0    0 -0.11583036191E+03  0.44463525824E+02  0.67844364425E+03  0.69398015554E+03  0.77000000000E+02 0.  0.
   -5000001    1    1    2    0    0  0.11583036191E+03 -0.44463525824E+02  0.95187730007E+03  0.96301249849E+03  0.77000000000E+02 0.  0.
<mgrwt>
<rscale>  0 0.29610517E+03</rscale>
<asrwt>0</asrwt>
<pdfrwt beam="1">  1        2 0.23480796E+00 0.29610517E+03</pdfrwt>
<pdfrwt beam="2">  1       -2 0.19051234E-02 0.29610517E+03</pdfrwt>
<totfact> 0.10993394E+04</totfact>
</mgrwt>
</event>
<event>
 4    1  0.1300812E-003  0.1909846E+03  0.7818608E-02  0.1157576E+00
         -2   -1    0    0    0  501 -0.00000000000E+00  0.00000000000E+00  0.73652686969E+01  0.73652691384E+01  0.25500000000E-02 0. -1.
          2   -1    0    0  501    0  0.00000000000E+00 -0.00000000000E+00 -0.12380785731E+04  0.12380785731E+04  0.25500000000E-02 0.  1.
    5000001    1    1    2    0    0  0.39785771283E+02 -0.27602663813E+02 -0.80491617956E+03  0.81003942544E+03  0.77000000000E+02 0.  0.
   -5000001    1    1    2    0    0 -0.39785771283E+02  0.27602663813E+02 -0.42579712479E+03  0.43540441675E+03  0.77000000000E+02 0.  0.
<mgrwt>
<rscale>  0 0.19098462E+03</rscale>
<asrwt>0</asrwt>
<pdfrwt beam="1">  1        2 0.17686823E+00 0.19098462E+03</pdfrwt>
<pdfrwt beam="2">  1       -2 0.10521821E-02 0.19098462E+03</pdfrwt>
<totfact> 0.41172865E+04</totfact>
</mgrwt>
</event>
<event>
 4    1  0.1300812E-003  0.2414886E+03  0.7818608E-02  0.1118805E+00
          2   -1    0    0  501    0  0.00000000000E+00  0.00000000000E+00  0.14995616391E+04  0.14995616391E+04  0.25500000000E-02 0.  1.
         -2   -1    0    0    0  501 -0.00000000000E+00 -0.00000000000E+00 -0.97222985778E+01  0.97222989122E+01  0.25500000000E-02 0. -1.
    5000001    1    1    2    0    0 -0.64992282452E+02  0.31846723504E+02  0.11099906198E+04  0.11150095904E+04  0.77000000000E+02 0.  0.
   -5000001    1    1    2    0    0  0.64992282452E+02 -0.31846723504E+02  0.37984872077E+03  0.39427434769E+03  0.77000000000E+02 0.  0.
<mgrwt>
<rscale>  0 0.24148860E+03</rscale>
<asrwt>0</asrwt>
<pdfrwt beam="1">  1        2 0.21422335E+00 0.24148860E+03</pdfrwt>
<pdfrwt beam="2">  1       -2 0.13888982E-02 0.24148860E+03</pdfrwt>
<totfact> 0.20479333E+04</totfact>
</mgrwt>
</event>
<event>
 4    1  0.1300812E-003  0.7931569E+03  0.7818608E-02  0.9569975E-01
          2   -1    0    0  501    0  0.00000000000E+00  0.00000000000E+00  0.32954304305E+03  0.32954304306E+03  0.25500000000E-02 0.  1.
         -2   -1    0    0    0  501 -0.00000000000E+00 -0.00000000000E+00 -0.47725014564E+03  0.47725014565E+03  0.25500000000E-02 0. -1.
    5000001    1    1    2    0    0  0.24493644345E+03 -0.49678990947E+01 -0.38125261033E+03  0.45967498761E+03  0.77000000000E+02 0.  0.
   -5000001    1    1    2    0    0 -0.24493644345E+03  0.49678990947E+01  0.23354550774E+03  0.34711820110E+03  0.77000000000E+02 0.  0.
<mgrwt>
<rscale>  0 0.79315690E+03</rscale>
<asrwt>0</asrwt>
<pdfrwt beam="1">  1        2 0.47077578E-01 0.79315690E+03</pdfrwt>
<pdfrwt beam="2">  1       -2 0.68178592E-01 0.79315690E+03</pdfrwt>
<totfact> 0.21304859E+02</totfact>
</mgrwt>
</event>
<event>
 4    1  0.1300812E-003  0.2066335E+03  0.7818608E-02  0.1144260E+00
          2   -1    0    0  501    0  0.00000000000E+00  0.00000000000E+00  0.24028389416E+03  0.24028389417E+03  0.25500000000E-02 0.  1.
         -2   -1    0    0    0  501 -0.00000000000E+00 -0.00000000000E+00 -0.44423933968E+02  0.44423934041E+02  0.25500000000E-02 0. -1.
    5000001    1    1    2    0    0  0.51542474153E+02  0.10968791711E+02  0.15906033090E+03  0.18440751042E+03  0.77000000000E+02 0.  0.
   -5000001    1    1    2    0    0 -0.51542474153E+02 -0.10968791711E+02  0.36799629290E+02  0.10030031779E+03  0.77000000000E+02 0.  0.
<mgrwt>
<rscale>  0 0.20663355E+03</rscale>
<asrwt>0</asrwt>
<pdfrwt beam="1">  1        2 0.34326270E-01 0.20663355E+03</pdfrwt>
<pdfrwt beam="2">  1       -2 0.63462763E-02 0.20663355E+03</pdfrwt>
<totfact> 0.19838392E+04</totfact>
</mgrwt>
</event>
<event>
 4    1  0.1300812E-003  0.3849924E+03  0.7818608E-02  0.1049104E+00
          2   -1    0    0  501    0  0.00000000000E+00  0.00000000000E+00  0.11220885893E+04  0.11220885893E+04  0.25500000000E-02 0.  1.
         -2   -1    0    0    0  501 -0.00000000000E+00 -0.00000000000E+00 -0.33023050830E+02  0.33023050928E+02  0.25500000000E-02 0. -1.
    5000001    1    1    2    0    0 -0.12584779821E+03  0.29534199791E+02  0.90477277582E+03  0.91719829543E+03  0.77000000000E+02 0.  0.
   -5000001    1    1    2    0    0  0.12584779821E+03 -0.29534199791E+02  0.18429276266E+03  0.23791334481E+03  0.77000000000E+02 0.  0.
<mgrwt>
<rscale>  0 0.38499241E+03</rscale>
<asrwt>0</asrwt>
<pdfrwt beam="1">  1        2 0.16029839E+00 0.38499241E+03</pdfrwt>
<pdfrwt beam="2">  1       -2 0.47175782E-02 0.38499241E+03</pdfrwt>
<totfact> 0.53259541E+03</totfact>
</mgrwt>
</event>
<event>
 4    1  0.1300812E-003  0.2213863E+03  0.7818608E-02  0.1132854E+00
          2   -1    0    0  501    0  0.00000000000E+00  0.00000000000E+00  0.12029794620E+04  0.12029794620E+04  0.25500000000E-02 0.  1.
         -2   -1    0    0    0  501 -0.00000000000E+00 -0.00000000000E+00 -0.10185518790E+02  0.10185519109E+02  0.25500000000E-02 0. -1.
    5000001    1    1    2    0    0  0.60807731111E+02  0.38061096800E+02  0.78445610143E+03  0.79148379789E+03  0.77000000000E+02 0.  0.
   -5000001    1    1    2    0    0 -0.60807731111E+02 -0.38061096800E+02  0.40833784177E+03  0.42168118321E+03  0.77000000000E+02 0.  0.
<mgrwt>
<rscale>  0 0.22138627E+03</rscale>
<asrwt>0</asrwt>
<pdfrwt beam="1">  1        2 0.17185433E+00 0.22138627E+03</pdfrwt>
<pdfrwt beam="2">  1       -2 0.14550731E-02 0.22138627E+03</pdfrwt>
<totfact> 0.27142777E+04</totfact>
</mgrwt>
</event>
<event>
 4    1  0.1300812E-003  0.2642851E+03  0.7818608E-02  0.1104596E+00
         -2   -1    0    0    0  501 -0.00000000000E+00  0.00000000000E+00  0.56825647875E+01  0.56825653597E+01  0.25500000000E-02 0. -1.
          2   -1    0    0  501    0  0.00000000000E+00 -0.00000000000E+00 -0.30728469240E+04  0.30728469240E+04  0.25500000000E-02 0.  1.
    5000001    1    1    2    0    0  0.82703032925E+02  0.67598593543E+02 -0.14042410871E+04  0.14104011459E+04  0.77000000000E+02 0.  0.
   -5000001    1    1    2    0    0 -0.82703032925E+02 -0.67598593543E+02 -0.16629232721E+04  0.16681283435E+04  0.77000000000E+02 0.  0.
<mgrwt>
<rscale>  0 0.26428509E+03</rscale>
<asrwt>0</asrwt>
<pdfrwt beam="1">  1        2 0.43897707E+00 0.26428509E+03</pdfrwt>
<pdfrwt beam="2">  1       -2 0.81179698E-03 0.26428509E+03</pdfrwt>
<totfact> 0.73279302E+03</totfact>
</mgrwt>
</event>
<event>
 4    1  0.1300812E-003  0.3084656E+03  0.7818608E-02  0.1081084E+00
          2   -1    0    0  501    0  0.00000000000E+00  0.00000000000E+00  0.20819623559E+02  0.20819623715E+02  0.25500000000E-02 0.  1.
         -2   -1    0    0    0  501 -0.00000000000E+00 -0.00000000000E+00 -0.11425641868E+04  0.11425641868E+04  0.25500000000E-02 0. -1.
    5000001    1    1    2    0    0  0.16336166290E+02 -0.10910248897E+03 -0.27641541782E+03  0.30741617823E+03  0.77000000000E+02 0.  0.
   -5000001    1    1    2    0    0 -0.16336166290E+02  0.10910248897E+03 -0.84532914544E+03  0.85596763231E+03  0.77000000000E+02 0.  0.
<mgrwt>
<rscale>  0 0.30846560E+03</rscale>
<asrwt>0</asrwt>
<pdfrwt beam="1">  1        2 0.29742327E-02 0.30846560E+03</pdfrwt>
<pdfrwt beam="2">  1       -2 0.16322342E+00 0.30846560E+03</pdfrwt>
<totfact> 0.80792224E+02</totfact>
</mgrwt>
</event>
<event>
 4    1  0.1300812E-003  0.2065667E+03  0.7818608E-02  0.1144314E+00
          2   -1    0    0  501    0  0.00000000000E+00  0.00000000000E+00  0.32864525928E+04  0.32864525928E+04  0.25500000000E-02 0.  1.
         -2   -1    0    0    0  501 -0.00000000000E+00 -0.00000000000E+00 -0.32458842974E+01  0.32458852991E+01  0.25500000000E-02 0. -1.
    5000001    1    1    2    0    0 -0.66941537924E+02 -0.10110535452E+02  0.18399100925E+04  0.18427646461E+04  0.77000000000E+02 0.  0.
   -5000001    1    1    2    0    0  0.66941537924E+02  0.10110535452E+02  0.14432966160E+04  0.14469338320E+04  0.77000000000E+02 0.  0.
<mgrwt>
<rscale>  0 0.20656666E+03</rscale>
<asrwt>0</asrwt>
<pdfrwt beam="1">  1        2 0.46949288E+00 0.20656666E+03</pdfrwt>
<pdfrwt beam="2">  1       -2 0.46369818E-03 0.20656666E+03</pdfrwt>
<totfact> 0.12545830E+04</totfact>
</mgrwt>
</event>
<event>
 4    1  0.1300812E-003  0.2250230E+03  0.7818608E-02  0.1130193E+00
          2   -1    0    0  501    0  0.00000000000E+00  0.00000000000E+00  0.16932485355E+04  0.16932485355E+04  0.25500000000E-02 0.  1.
         -2   -1    0    0    0  501 -0.00000000000E+00 -0.00000000000E+00 -0.74760636921E+01  0.74760641270E+01  0.25500000000E-02 0. -1.
    5000001    1    1    2    0    0  0.24037134714E+02 -0.78358580731E+02  0.81672281943E+03  0.82442890220E+03  0.77000000000E+02 0.  0.
   -5000001    1    1    2    0    0 -0.24037134714E+02  0.78358580731E+02  0.86904965242E+03  0.87629569746E+03  0.77000000000E+02 0.  0.
<mgrwt>
<rscale>  0 0.22502297E+03</rscale>
<asrwt>0</asrwt>
<pdfrwt beam="1">  1        2 0.24189264E+00 0.22502297E+03</pdfrwt>
<pdfrwt beam="2">  1       -2 0.10680092E-02 0.22502297E+03</pdfrwt>
<totfact> 0.23964600E+04</totfact>
</mgrwt>
</event>
<event>
 4    1  0.1300812E-003  0.2559609E+03  0.7818608E-02  0.1109595E+00
          2   -1    0    0  501    0  0.00000000000E+00  0.00000000000E+00  0.16588627652E+03  0.16588627654E+03  0.25500000000E-02 0.  1.
         -2   -1    0    0    0  501 -0.00000000000E+00 -0.00000000000E+00 -0.98736325506E+02  0.98736325539E+02  0.25500000000E-02 0. -1.
    5000001    1    1    2    0    0 -0.47417271149E+02 -0.71102307404E+02 -0.24412889942E+02  0.11759644942E+03  0.77000000000E+02 0.  0.
   -5000001    1    1    2    0    0  0.47417271149E+02  0.71102307404E+02  0.91562840960E+02  0.14702615266E+03  0.77000000000E+02 0.  0.
<mgrwt>
<rscale>  0 0.25596095E+03</rscale>
<asrwt>0</asrwt>
<pdfrwt beam="1">  1        2 0.23698039E-01 0.25596095E+03</pdfrwt>
<pdfrwt beam="2">  1       -2 0.14105189E-01 0.25596095E+03</pdfrwt>
<totfact> 0.85488995E+03</totfact>
</mgrwt>
</event>
<event>
 4    1  0.1300812E-003  0.2459255E+03  0.7818608E-02  0.1115907E+00
          2   -1    0    0  501    0  0.00000000000E+00  0.00000000000E+00  0.16964779196E+04  0.16964779196E+04  0.25500000000E-02 0.  1.
         -2   -1    0    0    0  501 -0.00000000000E+00 -0.00000000000E+00 -0.89124853710E+01  0.89124857358E+01  0.25500000000E-02 0. -1.
    5000001    1    1    2    0    0 -0.33076835233E+02  0.71341611840E+02  0.12240566580E+04  0.12289944689E+04  0.77000000000E+02 0.  0.
   -5000001    1    1    2    0    0  0.33076835233E+02 -0.71341611840E+02  0.46350877632E+03  0.47639593652E+03  0.77000000000E+02 0.  0.
<mgrwt>
<rscale>  0 0.24592548E+03</rscale>
<asrwt>0</asrwt>
<pdfrwt beam="1">  1        2 0.24235377E+00 0.24592548E+03</pdfrwt>
<pdfrwt beam="2">  1       -2 0.12732134E-02 0.24592548E+03</pdfrwt>
<totfact> 0.18571208E+04</totfact>
</mgrwt>
</event>
<event>
 4    1  0.1300812E-003  0.2900151E+03  0.7818608E-02  0.1090341E+00
         -2   -1    0    0    0  501 -0.00000000000E+00  0.00000000000E+00  0.36197808991E+02  0.36197809081E+02  0.25500000000E-02 0. -1.
          2   -1    0    0  501    0  0.00000000000E+00 -0.00000000000E+00 -0.58089665013E+03  0.58089665014E+03  0.25500000000E-02 0.  1.
    5000001    1    1    2    0    0  0.13328806262E+02 -0.12164068089E+03 -0.29605065270E+03  0.32946790631E+03  0.77000000000E+02 0.  0.
   -5000001    1    1    2    0    0 -0.13328806262E+02  0.12164068089E+03 -0.24864818845E+03  0.28762655291E+03  0.77000000000E+02 0.  0.
<mgrwt>
<rscale>  0 0.29001508E+03</rscale>
<asrwt>0</asrwt>
<pdfrwt beam="1">  1        2 0.82985230E-01 0.29001508E+03</pdfrwt>
<pdfrwt beam="2">  1       -2 0.51711159E-02 0.29001508E+03</pdfrwt>
<totfact> 0.10590760E+04</totfact>
</mgrwt>
</event>
<event>
 4    1  0.1300812E-003  0.8512059E+03  0.7818608E-02  0.9488720E-01
          2   -1    0    0  501    0  0.00000000000E+00  0.00000000000E+00  0.64423658981E+03  0.64423658982E+03  0.25500000000E-02 0.  1.
         -2   -1    0    0    0  501 -0.00000000000E+00 -0.00000000000E+00 -0.28116667393E+03  0.28116667394E+03  0.25500000000E-02 0. -1.
    5000001    1    1    2    0    0  0.39432825471E+03 -0.10859315505E+03  0.84773314129E+02  0.42473846138E+03  0.77000000000E+02 0.  0.
   -5000001    1    1    2    0    0 -0.39432825471E+03  0.10859315505E+03  0.27829660175E+03  0.50066480238E+03  0.77000000000E+02 0.  0.
<mgrwt>
<rscale>  0 0.85120587E+03</rscale>
<asrwt>0</asrwt>
<pdfrwt beam="1">  1        2 0.92033798E-01 0.85120587E+03</pdfrwt>
<pdfrwt beam="2">  1       -2 0.40166668E-01 0.85120587E+03</pdfrwt>
<totfact> 0.29321405E+02</totfact>
</mgrwt>
</event>
<event>
 4    1  0.1300812E-003  0.2970981E+03  0.7818608E-02  0.1086700E+00
          2   -1    0    0  501    0  0.00000000000E+00  0.00000000000E+00  0.69809424139E+03  0.69809424140E+03  0.25500000000E-02 0.  1.
         -2   -1    0    0    0  501 -0.00000000000E+00 -0.00000000000E+00 -0.31610091269E+02  0.31610091372E+02  0.25500000000E-02 0. -1.
    5000001    1    1    2    0    0  0.16728213002E+02 -0.10004178170E+03  0.14539203955E+03  0.19327709735E+03  0.77000000000E+02 0.  0.
   -5000001    1    1    2    0    0 -0.16728213002E+02  0.10004178170E+03  0.52109211057E+03  0.53642723541E+03  0.77000000000E+02 0.  0.
<mgrwt>
<rscale>  0 0.29709812E+03</rscale>
<asrwt>0</asrwt>
<pdfrwt beam="1">  1        2 0.99727764E-01 0.29709812E+03</pdfrwt>
<pdfrwt beam="2">  1       -2 0.45157266E-02 0.29709812E+03</pdfrwt>
<totfact> 0.10521309E+04</totfact>
</mgrwt>
</event>
<event>
 4    1  0.1300812E-003  0.2917556E+03  0.7818608E-02  0.1089436E+00
          2   -1    0    0  501    0  0.00000000000E+00  0.00000000000E+00  0.15846766200E+04  0.15846766200E+04  0.25500000000E-02 0.  1.
         -2   -1    0    0    0  501 -0.00000000000E+00 -0.00000000000E+00 -0.13428813535E+02  0.13428813777E+02  0.25500000000E-02 0. -1.
    5000001    1    1    2    0    0  0.25541919506E+02 -0.96048994777E+02  0.11908710400E+04  0.11974893039E+04  0.77000000000E+02 0.  0.
   -5000001    1    1    2    0    0 -0.25541919506E+02  0.96048994777E+02  0.38037676642E+03  0.40061612983E+03  0.77000000000E+02 0.  0.
<mgrwt>
<rscale>  0 0.29175556E+03</rscale>
<asrwt>0</asrwt>
<pdfrwt beam="1">  1        2 0.22638238E+00 0.29175556E+03</pdfrwt>
<pdfrwt beam="2">  1       -2 0.19184019E-02 0.29175556E+03</pdfrwt>
<totfact> 0.11640223E+04</totfact>
</mgrwt>
</event>
<event>
 4    1  0.1300812E-003  0.2120352E+03  0.7818608E-02  0.1139964E+00
          2   -1    0    0  501    0  0.00000000000E+00  0.00000000000E+00  0.65422626240E+03  0.65422626241E+03  0.25500000000E-02 0.  1.
         -2   -1    0    0    0  501 -0.00000000000E+00 -0.00000000000E+00 -0.17180193977E+02  0.17180194166E+02  0.25500000000E-02 0. -1.
    5000001    1    1    2    0    0  0.31173304241E+02 -0.62988867542E+02  0.37954358559E+03  0.39360094727E+03  0.77000000000E+02 0.  0.
   -5000001    1    1    2    0    0 -0.31173304241E+02  0.62988867542E+02  0.25750248284E+03  0.27780550930E+03  0.77000000000E+02 0.  0.
<mgrwt>
<rscale>  0 0.21203522E+03</rscale>
<asrwt>0</asrwt>
<pdfrwt beam="1">  1        2 0.93460872E-01 0.21203522E+03</pdfrwt>
<pdfrwt beam="2">  1       -2 0.24543140E-02 0.21203522E+03</pdfrwt>
<totfact> 0.27704286E+04</totfact>
</mgrwt>
</event>
<event>
 4    1  0.1300812E-003  0.2579253E+03  0.7818608E-02  0.1108396E+00
          2   -1    0    0  501    0  0.00000000000E+00  0.00000000000E+00  0.13651446847E+04  0.13651446847E+04  0.25500000000E-02 0.  1.
         -2   -1    0    0    0  501 -0.00000000000E+00 -0.00000000000E+00 -0.12182860381E+02  0.12182860648E+02  0.25500000000E-02 0. -1.
    5000001    1    1    2    0    0  0.22333171749E+02  0.62736076336E+02  0.25371478610E+03  0.27337662395E+03  0.77000000000E+02 0.  0.
   -5000001    1    1    2    0    0 -0.22333171749E+02 -0.62736076336E+02  0.10992470382E+04  0.11039509214E+04  0.77000000000E+02 0.  0.
<mgrwt>
<rscale>  0 0.25792532E+03</rscale>
<asrwt>0</asrwt>
<pdfrwt beam="1">  1        2 0.19502075E+00 0.25792532E+03</pdfrwt>
<pdfrwt beam="2">  1       -2 0.17404079E-02 0.25792532E+03</pdfrwt>
<totfact> 0.17293529E+04</totfact>
</mgrwt>
</event>
<event>
 4    1  0.1300812E-003  0.2888277E+03  0.7818608E-02  0.1090963E+00
          2   -1    0    0  501    0  0.00000000000E+00  0.00000000000E+00  0.16357011889E+04  0.16357011889E+04  0.25500000000E-02 0.  1.
         -2   -1    0    0    0  501 -0.00000000000E+00 -0.00000000000E+00 -0.12750104491E+02  0.12750104746E+02  0.25500000000E-02 0. -1.
    5000001    1    1    2    0    0 -0.94025793389E+02  0.73087538786E+02  0.65582776911E+03  0.67098561899E+03  0.77000000000E+02 0.  0.
   -5000001    1    1    2    0    0  0.94025793389E+02 -0.73087538786E+02  0.96712331527E+03  0.97746567464E+03  0.77000000000E+02 0.  0.
<mgrwt>
<rscale>  0 0.28882771E+03</rscale>
<asrwt>0</asrwt>
<pdfrwt beam="1">  1        2 0.23367156E+00 0.28882771E+03</pdfrwt>
<pdfrwt beam="2">  1       -2 0.18214438E-02 0.28882771E+03</pdfrwt>
<totfact> 0.11845613E+04</totfact>
</mgrwt>
</event>
<event>
 4    1  0.1300812E-003  0.2404828E+03  0.7818608E-02  0.1119472E+00
         -2   -1    0    0    0  501 -0.00000000000E+00  0.00000000000E+00  0.45316159808E+02  0.45316159879E+02  0.25500000000E-02 0. -1.
          2   -1    0    0  501    0  0.00000000000E+00 -0.00000000000E+00 -0.31904729677E+03  0.31904729678E+03  0.25500000000E-02 0.  1.
    5000001    1    1    2    0    0 -0.64954456563E+02  0.60846007454E+02 -0.99515767301E+02  0.15412237343E+03  0.77000000000E+02 0.  0.
   -5000001    1    1    2    0    0  0.64954456563E+02 -0.60846007454E+02 -0.17421536966E+03  0.21024108322E+03  0.77000000000E+02 0.  0.
<mgrwt>
<rscale>  0 0.24048283E+03</rscale>
<asrwt>0</asrwt>
<pdfrwt beam="1">  1        2 0.45578184E-01 0.24048283E+03</pdfrwt>
<pdfrwt beam="2">  1       -2 0.64737373E-02 0.24048283E+03</pdfrwt>
<totfact> 0.14326264E+04</totfact>
</mgrwt>
</event>
<event>
 4    1  0.1300812E-003  0.1983399E+03  0.7818608E-02  0.1151147E+00
          2   -1    0    0  501    0  0.00000000000E+00  0.00000000000E+00  0.15872116171E+04  0.15872116171E+04  0.25500000000E-02 0.  1.
         -2   -1    0    0    0  501 -0.00000000000E+00 -0.00000000000E+00 -0.61961999338E+01  0.61962004585E+01  0.25500000000E-02 0. -1.
    5000001    1    1    2    0    0  0.45929451636E+02 -0.39908428278E+02  0.67590848139E+03  0.68299595342E+03  0.77000000000E+02 0.  0.
   -5000001    1    1    2    0    0 -0.45929451636E+02  0.39908428278E+02  0.90510693581E+03  0.91041186418E+03  0.77000000000E+02 0.  0.
<mgrwt>
<rscale>  0 0.19833992E+03</rscale>
<asrwt>0</asrwt>
<pdfrwt beam="1">  1        2 0.22674472E+00 0.19833992E+03</pdfrwt>
<pdfrwt beam="2">  1       -2 0.88517066E-03 0.19833992E+03</pdfrwt>
<totfact> 0.35189432E+04</totfact>
</mgrwt>
</event>
<event>
 4    1  0.1300812E-003  0.2944366E+03  0.7818608E-02  0.1088055E+00
          2   -1    0    0  501    0  0.00000000000E+00  0.00000000000E+00  0.81848924767E+03  0.81848924768E+03  0.25500000000E-02 0.  1.
         -2   -1    0    0    0  501 -0.00000000000E+00 -0.00000000000E+00 -0.26479557690E+02  0.26479557813E+02  0.25500000000E-02 0. -1.
    5000001    1    1    2    0    0 -0.12422681640E+03 -0.49249958989E+01  0.34733045722E+03  0.37686072230E+03  0.77000000000E+02 0.  0.
   -5000001    1    1    2    0    0  0.12422681640E+03  0.49249958989E+01  0.44467923276E+03  0.46810808319E+03  0.77000000000E+02 0.  0.
<mgrwt>
<rscale>  0 0.29443664E+03</rscale>
<asrwt>0</asrwt>
<pdfrwt beam="1">  1        2 0.11692701E+00 0.29443664E+03</pdfrwt>
<pdfrwt beam="2">  1       -2 0.37827949E-02 0.29443664E+03</pdfrwt>
<totfact> 0.11318360E+04</totfact>
</mgrwt>
</event>
<event>
 4    1  0.1300812E-003  0.3436076E+03  0.7818608E-02  0.1065270E+00
          2   -1    0    0  501    0  0.00000000000E+00  0.00000000000E+00  0.11063504556E+04  0.11063504556E+04  0.25500000000E-02 0.  1.
         -2   -1    0    0    0  501 -0.00000000000E+00 -0.00000000000E+00 -0.26679197703E+02  0.26679197825E+02  0.25500000000E-02 0. -1.
    5000001    1    1    2    0    0  0.79482052179E+02  0.12301614530E+03  0.69227546643E+03  0.71177573016E+03  0.77000000000E+02 0.  0.
   -5000001    1    1    2    0    0 -0.79482052179E+02 -0.12301614530E+03  0.38739579145E+03  0.42125392326E+03  0.77000000000E+02 0.  0.
<mgrwt>
<rscale>  0 0.34360758E+03</rscale>
<asrwt>0</asrwt>
<pdfrwt beam="1">  1        2 0.15805006E+00 0.34360758E+03</pdfrwt>
<pdfrwt beam="2">  1       -2 0.38113141E-02 0.34360758E+03</pdfrwt>
<totfact> 0.75046735E+03</totfact>
</mgrwt>
</event>
<event>
 4    1  0.1300812E-003  0.2890113E+03  0.7818608E-02  0.1090866E+00
          2   -1    0    0  501    0  0.00000000000E+00  0.00000000000E+00  0.12314752493E+04  0.12314752493E+04  0.25500000000E-02 0.  1.
         -2   -1    0    0    0  501 -0.00000000000E+00 -0.00000000000E+00 -0.16956800071E+02  0.16956800263E+02  0.25500000000E-02 0. -1.
    5000001    1    1    2    0    0 -0.11146077252E+03  0.43526268402E+02  0.49842080841E+03  0.51833419925E+03  0.77000000000E+02 0.  0.
   -5000001    1    1    2    0    0  0.11146077252E+03 -0.43526268402E+02  0.71609764078E+03  0.73009785028E+03  0.77000000000E+02 0.  0.
<mgrwt>
<rscale>  0 0.28901128E+03</rscale>
<asrwt>0</asrwt>
<pdfrwt beam="1">  1        2 0.17592506E+00 0.28901128E+03</pdfrwt>
<pdfrwt beam="2">  1       -2 0.24223997E-02 0.28901128E+03</pdfrwt>
<totfact> 0.12549385E+04</totfact>
</mgrwt>
</event>
<event>
 4    1  0.1300812E-003  0.2341590E+03  0.7818608E-02  0.1123746E+00
          2   -1    0    0  501    0  0.00000000000E+00  0.00000000000E+00  0.28738884092E+04  0.28738884092E+04  0.25500000000E-02 0.  1.
         -2   -1    0    0    0  501 -0.00000000000E+00 -0.00000000000E+00 -0.47697078416E+01  0.47697085233E+01  0.25500000000E-02 0. -1.
    5000001    1    1    2    0    0 -0.77218999966E+02  0.32427925935E+02  0.17744202066E+04  0.17780636698E+04  0.77000000000E+02 0.  0.
   -5000001    1    1    2    0    0  0.77218999966E+02 -0.32427925935E+02  0.10946984948E+04  0.11005944479E+04  0.77000000000E+02 0.  0.
<mgrwt>
<rscale>  0 0.23415900E+03</rscale>
<asrwt>0</asrwt>
<pdfrwt beam="1">  1        2 0.41055634E+00 0.23415900E+03</pdfrwt>
<pdfrwt beam="2">  1       -2 0.68138547E-03 0.23415900E+03</pdfrwt>
<totfact> 0.12003886E+04</totfact>
</mgrwt>
</event>
<event>
 4    1  0.1300812E-003  0.1769782E+03  0.7818608E-02  0.1170760E+00
         -2   -1    0    0    0  501 -0.00000000000E+00  0.00000000000E+00  0.22450056628E+01  0.22450071111E+01  0.25500000000E-02 0. -1.
          2   -1    0    0  501    0  0.00000000000E+00 -0.00000000000E+00 -0.34878825500E+04  0.34878825500E+04  0.25500000000E-02 0.  1.
    5000001    1    1    2    0    0  0.32971530117E+01 -0.43155445245E+02 -0.16383645009E+04  0.16407438866E+04  0.77000000000E+02 0.  0.
   -5000001    1    1    2    0    0 -0.32971530117E+01  0.43155445245E+02 -0.18472730435E+04  0.18493836705E+04  0.77000000000E+02 0.  0.
<mgrwt>
<rscale>  0 0.17697817E+03</rscale>
<asrwt>0</asrwt>
<pdfrwt beam="1">  1        2 0.49826547E+00 0.17697817E+03</pdfrwt>
<pdfrwt beam="2">  1       -2 0.32071743E-03 0.17697817E+03</pdfrwt>
<totfact> 0.16319588E+04</totfact>
</mgrwt>
</event>
<event>
 4    1  0.1300812E-003  0.1978547E+03  0.7818608E-02  0.1151562E+00
          2   -1    0    0  501    0  0.00000000000E+00  0.00000000000E+00  0.25255450463E+04  0.25255450463E+04  0.25500000000E-02 0.  1.
         -2   -1    0    0    0  501 -0.00000000000E+00 -0.00000000000E+00 -0.38750519567E+01  0.38750527958E+01  0.25500000000E-02 0. -1.
    5000001    1    1    2    0    0 -0.22148534269E+02  0.53724423702E+02  0.98052835216E+03  0.98526225984E+03  0.77000000000E+02 0.  0.
   -5000001    1    1    2    0    0  0.22148534269E+02 -0.53724423702E+02  0.15411416422E+04  0.15441578393E+04  0.77000000000E+02 0.  0.
<mgrwt>
<rscale>  0 0.19785469E+03</rscale>
<asrwt>0</asrwt>
<pdfrwt beam="1">  1        2 0.36079240E+00 0.19785469E+03</pdfrwt>
<pdfrwt beam="2">  1       -2 0.55357853E-03 0.19785469E+03</pdfrwt>
<totfact> 0.24161013E+04</totfact>
</mgrwt>
</event>
<event>
 4    1  0.1300812E-003  0.2260896E+03  0.7818608E-02  0.1129423E+00
         -2   -1    0    0    0  501 -0.00000000000E+00  0.00000000000E+00  0.27456954850E+03  0.27456954851E+03  0.25500000000E-02 0. -1.
          2   -1    0    0  501    0  0.00000000000E+00 -0.00000000000E+00 -0.46542417900E+02  0.46542417969E+02  0.25500000000E-02 0.  1.
    5000001    1    1    2    0    0  0.68698990137E+02  0.20213475046E+02  0.17295107269E+03  0.20240852098E+03  0.77000000000E+02 0.  0.
   -5000001    1    1    2    0    0 -0.68698990137E+02 -0.20213475046E+02  0.55076057906E+02  0.11870344550E+03  0.77000000000E+02 0.  0.
<mgrwt>
<rscale>  0 0.22608963E+03</rscale>
<asrwt>0</asrwt>
<pdfrwt beam="1">  1        2 0.66489168E-02 0.22608963E+03</pdfrwt>
<pdfrwt beam="2">  1       -2 0.39224221E-01 0.22608963E+03</pdfrwt>
<totfact> 0.65573459E+03</totfact>
</mgrwt>
</event>
<event>
 4    1  0.1300812E-003  0.2051121E+03  0.7818608E-02  0.1145496E+00
         -2   -1    0    0    0  501 -0.00000000000E+00  0.00000000000E+00  0.29980363460E+02  0.29980363568E+02  0.25500000000E-02 0. -1.
          2   -1    0    0  501    0  0.00000000000E+00 -0.00000000000E+00 -0.35082124277E+03  0.35082124278E+03  0.25500000000E-02 0.  1.
    5000001    1    1    2    0    0 -0.17922254382E+02 -0.63851594529E+02 -0.18604592197E+03  0.21199131682E+03  0.77000000000E+02 0.  0.
   -5000001    1    1    2    0    0  0.17922254382E+02  0.63851594529E+02 -0.13479495734E+03  0.16881028953E+03  0.77000000000E+02 0.  0.
<mgrwt>
<rscale>  0 0.20511215E+03</rscale>
<asrwt>0</asrwt>
<pdfrwt beam="1">  1        2 0.50117318E-01 0.20511215E+03</pdfrwt>
<pdfrwt beam="2">  1       -2 0.42829093E-02 0.20511215E+03</pdfrwt>
<totfact> 0.23980388E+04</totfact>
</mgrwt>
</event>
<event>
 4    1  0.1300812E-003  0.2021120E+03  0.7818608E-02  0.1147969E+00
          2   -1    0    0  501    0  0.00000000000E+00  0.00000000000E+00  0.47992436181E+03  0.47992436182E+03  0.25500000000E-02 0.  1.
         -2   -1    0    0    0  501 -0.00000000000E+00 -0.00000000000E+00 -0.21279012096E+02  0.21279012248E+02  0.25500000000E-02 0. -1.
    5000001    1    1    2    0    0  0.45524875231E+02  0.40259301745E+02  0.28955705465E+03  0.30572146398E+03  0.77000000000E+02 0.  0.
   -5000001    1    1    2    0    0 -0.45524875231E+02 -0.40259301745E+02  0.16908829506E+03  0.19548191008E+03  0.77000000000E+02 0.  0.
<mgrwt>
<rscale>  0 0.20211201E+03</rscale>
<asrwt>0</asrwt>
<pdfrwt beam="1">  1        2 0.68560610E-01 0.20211201E+03</pdfrwt>
<pdfrwt beam="2">  1       -2 0.30398595E-02 0.20211201E+03</pdfrwt>
<totfact> 0.28483830E+04</totfact>
</mgrwt>
</event>
<event>
 4    1  0.1300812E-003  0.2059050E+03  0.7818608E-02  0.1144850E+00
          2   -1    0    0  501    0  0.00000000000E+00  0.00000000000E+00  0.24973177191E+04  0.24973177191E+04  0.25500000000E-02 0.  1.
         -2   -1    0    0    0  501 -0.00000000000E+00 -0.00000000000E+00 -0.42442415344E+01  0.42442423004E+01  0.25500000000E-02 0. -1.
    5000001    1    1    2    0    0 -0.37665643045E+02  0.56601532635E+02  0.13305207073E+04  0.13344799687E+04  0.77000000000E+02 0.  0.
   -5000001    1    1    2    0    0  0.37665643045E+02 -0.56601532635E+02  0.11625527702E+04  0.11670819927E+04  0.77000000000E+02 0.  0.
<mgrwt>
<rscale>  0 0.20590503E+03</rscale>
<asrwt>0</asrwt>
<pdfrwt beam="1">  1        2 0.35675999E+00 0.20590503E+03</pdfrwt>
<pdfrwt beam="2">  1       -2 0.60631973E-03 0.20590503E+03</pdfrwt>
<totfact> 0.21933212E+04</totfact>
</mgrwt>
</event>
<event>
 4    1  0.1300812E-003  0.2769297E+03  0.7818608E-02  0.1097378E+00
         -2   -1    0    0    0  501 -0.00000000000E+00  0.00000000000E+00  0.13160275738E+03  0.13160275740E+03  0.25500000000E-02 0. -1.
          2   -1    0    0  501    0  0.00000000000E+00 -0.00000000000E+00 -0.14568471738E+03  0.14568471740E+03  0.25500000000E-02 0.  1.
    5000001    1    1    2    0    0 -0.88130322956E+02  0.65302437778E+02  0.27819924110E+02  0.13687333700E+03  0.77000000000E+02 0.  0.
   -5000001    1    1    2    0    0  0.88130322956E+02 -0.65302437778E+02 -0.41901884110E+02  0.14041413781E+03  0.77000000000E+02 0.  0.
<mgrwt>
<rscale>  0 0.27692967E+03</rscale>
<asrwt>0</asrwt>
<pdfrwt beam="1">  1        2 0.20812102E-01 0.27692967E+03</pdfrwt>
<pdfrwt beam="2">  1       -2 0.18800394E-01 0.27692967E+03</pdfrwt>
<totfact> 0.61538330E+03</totfact>
</mgrwt>
</event>
<event>
 4    1  0.1300812E-003  0.2885318E+03  0.7818608E-02  0.1091118E+00
         -2   -1    0    0    0  501 -0.00000000000E+00  0.00000000000E+00  0.25364031664E+03  0.25364031665E+03  0.25500000000E-02 0. -1.
          2   -1    0    0  501    0  0.00000000000E+00 -0.00000000000E+00 -0.82055772811E+02  0.82055772851E+02  0.25500000000E-02 0.  1.
    5000001    1    1    2    0    0  0.12186021555E+02 -0.83784236226E+02  0.18798747842E+03  0.22008314202E+03  0.77000000000E+02 0.  0.
   -5000001    1    1    2    0    0 -0.12186021555E+02  0.83784236226E+02 -0.16402934590E+02  0.11561294748E+03  0.77000000000E+02 0.  0.
<mgrwt>
<rscale>  0 0.28853182E+03</rscale>
<asrwt>0</asrwt>
<pdfrwt beam="1">  1        2 0.11722253E-01 0.28853182E+03</pdfrwt>
<pdfrwt beam="2">  1       -2 0.36234331E-01 0.28853182E+03</pdfrwt>
<totfact> 0.37734286E+03</totfact>
</mgrwt>
</event>
<event>
 4    1  0.1300812E-003  0.1656096E+03  0.7818608E-02  0.1182505E+00
         -2   -1    0    0    0  501 -0.00000000000E+00  0.00000000000E+00  0.43105817381E+01  0.43105824924E+01  0.25500000000E-02 0. -1.
          2   -1    0    0  501    0  0.00000000000E+00 -0.00000000000E+00 -0.15906514143E+04  0.15906514143E+04  0.25500000000E-02 0.  1.
    5000001    1    1    2    0    0 -0.75629530936E+01 -0.25588140445E+02 -0.93461039376E+03  0.93815645780E+03  0.77000000000E+02 0.  0.
   -5000001    1    1    2    0    0  0.75629530936E+01  0.25588140445E+02 -0.65173043884E+03  0.65680553903E+03  0.77000000000E+02 0.  0.
<mgrwt>
<rscale>  0 0.16560958E+03</rscale>
<asrwt>0</asrwt>
<pdfrwt beam="1">  1        2 0.22723554E+00 0.16560958E+03</pdfrwt>
<pdfrwt beam="2">  1       -2 0.61579846E-03 0.16560958E+03</pdfrwt>
<totfact> 0.58201996E+04</totfact>
</mgrwt>
</event>
<event>
 4    1  0.1300812E-003  0.6117835E+03  0.7818608E-02  0.9881256E-01
          2   -1    0    0  501    0  0.00000000000E+00  0.00000000000E+00  0.14865020665E+04  0.14865020665E+04  0.25500000000E-02 0.  1.
         -2   -1    0    0    0  501 -0.00000000000E+00 -0.00000000000E+00 -0.62946280939E+02  0.62946280991E+02  0.25500000000E-02 0. -1.
    5000001    1    1    2    0    0 -0.24496657667E+03  0.16103864110E+03  0.60739271846E+03  0.67882028700E+03  0.77000000000E+02 0.  0.
   -5000001    1    1    2    0    0  0.24496657667E+03 -0.16103864110E+03  0.81616306714E+03  0.87062806053E+03  0.77000000000E+02 0.  0.
<mgrwt>
<rscale>  0 0.61178355E+03</rscale>
<asrwt>0</asrwt>
<pdfrwt beam="1">  1        2 0.21235748E+00 0.61178355E+03</pdfrwt>
<pdfrwt beam="2">  1       -2 0.89923241E-02 0.61178355E+03</pdfrwt>
<totfact> 0.12287700E+03</totfact>
</mgrwt>
</event>
<event>
 4    1  0.1300812E-003  0.2345241E+03  0.7818608E-02  0.1123495E+00
         -2   -1    0    0    0  501 -0.00000000000E+00  0.00000000000E+00  0.71119368623E+02  0.71119368669E+02  0.25500000000E-02 0. -1.
          2   -1    0    0  501    0  0.00000000000E+00 -0.00000000000E+00 -0.19334236203E+03  0.19334236204E+03  0.25500000000E-02 0.  1.
    5000001    1    1    2    0    0  0.37413711469E+02  0.60880582698E+01  0.28991673104E+02  0.90589002471E+02  0.77000000000E+02 0.  0.
   -5000001    1    1    2    0    0 -0.37413711469E+02 -0.60880582698E+01 -0.15121466651E+03  0.17387272824E+03  0.77000000000E+02 0.  0.
<mgrwt>
<rscale>  0 0.23452409E+03</rscale>
<asrwt>0</asrwt>
<pdfrwt beam="1">  1        2 0.27620337E-01 0.23452409E+03</pdfrwt>
<pdfrwt beam="2">  1       -2 0.10159910E-01 0.23452409E+03</pdfrwt>
<totfact> 0.12181143E+04</totfact>
</mgrwt>
</event>
<event>
 4    1  0.1300812E-003  0.2304199E+03  0.7818608E-02  0.1126345E+00
          2   -1    0    0  501    0  0.00000000000E+00  0.00000000000E+00  0.27091795046E+03  0.27091795048E+03  0.25500000000E-02 0.  1.
         -2   -1    0    0    0  501 -0.00000000000E+00 -0.00000000000E+00 -0.48993903523E+02  0.48993903590E+02  0.25500000000E-02 0. -1.
    5000001    1    1    2    0    0 -0.76095733968E+02  0.31824166151E+02  0.78669282611E+02  0.13755433220E+03  0.77000000000E+02 0.  0.
   -5000001    1    1    2    0    0  0.76095733968E+02 -0.31824166151E+02  0.14325476433E+03  0.18235752187E+03  0.77000000000E+02 0.  0.
<mgrwt>
<rscale>  0 0.23041986E+03</rscale>
<asrwt>0</asrwt>
<pdfrwt beam="1">  1        2 0.38702563E-01 0.23041986E+03</pdfrwt>
<pdfrwt beam="2">  1       -2 0.69991293E-02 0.23041986E+03</pdfrwt>
<totfact> 0.15102918E+04</totfact>
</mgrwt>
</event>
<event>
 4    1  0.1300812E-003  0.4150622E+03  0.7818608E-02  0.1038685E+00
         -2   -1    0    0    0  501 -0.00000000000E+00  0.00000000000E+00  0.43772622952E+02  0.43772623026E+02  0.25500000000E-02 0. -1.
          2   -1    0    0  501    0  0.00000000000E+00 -0.00000000000E+00 -0.98392901097E+03  0.98392901097E+03  0.25500000000E-02 0.  1.
    5000001    1    1    2    0    0  0.10604105851E+03  0.15247732595E+03 -0.59744552420E+03  0.63036830139E+03  0.77000000000E+02 0.  0.
   -5000001    1    1    2    0    0 -0.10604105851E+03 -0.15247732595E+03 -0.34271086382E+03  0.39733333260E+03  0.77000000000E+02 0.  0.
<mgrwt>
<rscale>  0 0.41506218E+03</rscale>
<asrwt>0</asrwt>
<pdfrwt beam="1">  1        2 0.14056127E+00 0.41506218E+03</pdfrwt>
<pdfrwt beam="2">  1       -2 0.62532325E-02 0.41506218E+03</pdfrwt>
<totfact> 0.41579897E+03</totfact>
</mgrwt>
</event>
<event>
 4    1  0.1300812E-003  0.2052025E+03  0.7818608E-02  0.1145422E+00
          2   -1    0    0  501    0  0.00000000000E+00  0.00000000000E+00  0.37900854054E+02  0.37900854140E+02  0.25500000000E-02 0.  1.
         -2   -1    0    0    0  501 -0.00000000000E+00 -0.00000000000E+00 -0.27775150283E+03  0.27775150284E+03  0.25500000000E-02 0. -1.
    5000001    1    1    2    0    0 -0.87055468499E+01 -0.66703689123E+02 -0.10679599334E+03  0.14784976456E+03  0.77000000000E+02 0.  0.
   -5000001    1    1    2    0    0  0.87055468499E+01  0.66703689123E+02 -0.13305465544E+03  0.16780259242E+03  0.77000000000E+02 0.  0.
<mgrwt>
<rscale>  0 0.20520253E+03</rscale>
<asrwt>0</asrwt>
<pdfrwt beam="1">  1        2 0.54144079E-02 0.20520253E+03</pdfrwt>
<pdfrwt beam="2">  1       -2 0.39678785E-01 0.20520253E+03</pdfrwt>
<totfact> 0.83272455E+03</totfact>
</mgrwt>
</event>
<event>
 4    1  0.1300812E-003  0.3541764E+03  0.7818608E-02  0.1060914E+00
         -2   -1    0    0    0  501 -0.00000000000E+00  0.00000000000E+00  0.23053421885E+02  0.23053422026E+02  0.25500000000E-02 0. -1.
          2   -1    0    0  501    0  0.00000000000E+00 -0.00000000000E+00 -0.13603287449E+04  0.13603287449E+04  0.25500000000E-02 0.  1.
    5000001    1    1    2    0    0  0.29577948465E+02 -0.15421431956E+03 -0.77732603874E+03  0.79675697794E+03  0.77000000000E+02 0.  0.
   -5000001    1    1    2    0    0 -0.29577948465E+02  0.15421431956E+03 -0.55994928425E+03  0.58662518896E+03  0.77000000000E+02 0.  0.
<mgrwt>
<rscale>  0 0.35417641E+03</rscale>
<asrwt>0</asrwt>
<pdfrwt beam="1">  1        2 0.19433263E+00 0.35417641E+03</pdfrwt>
<pdfrwt beam="2">  1       -2 0.32933469E-02 0.35417641E+03</pdfrwt>
<totfact> 0.68094637E+03</totfact>
</mgrwt>
</event>
<event>
 4    1  0.1300812E-003  0.4487851E+03  0.7818608E-02  0.1028085E+00
         -2   -1    0    0    0  501 -0.00000000000E+00  0.00000000000E+00  0.65386477467E+02  0.65386477517E+02  0.25500000000E-02 0. -1.
          2   -1    0    0  501    0  0.00000000000E+00 -0.00000000000E+00 -0.77006766006E+03  0.77006766006E+03  0.25500000000E-02 0.  1.
    5000001    1    1    2    0    0 -0.14589391809E+03 -0.67815865027E+02 -0.60581095025E+03  0.63152191911E+03  0.77000000000E+02 0.  0.
   -5000001    1    1    2    0    0  0.14589391809E+03  0.67815865027E+02 -0.98870232344E+02  0.20393221846E+03  0.77000000000E+02 0.  0.
<mgrwt>
<rscale>  0 0.44878508E+03</rscale>
<asrwt>0</asrwt>
<pdfrwt beam="1">  1        2 0.11000966E+00 0.44878508E+03</pdfrwt>
<pdfrwt beam="2">  1       -2 0.93409258E-02 0.44878508E+03</pdfrwt>
<totfact> 0.30427562E+03</totfact>
</mgrwt>
</event>
<event>
 4    1  0.1300812E-003  0.4344714E+03  0.7818608E-02  0.1032457E+00
         -2   -1    0    0    0  501 -0.00000000000E+00  0.00000000000E+00  0.22774040180E+02  0.22774040323E+02  0.25500000000E-02 0. -1.
          2   -1    0    0  501    0  0.00000000000E+00 -0.00000000000E+00 -0.20721556825E+04  0.20721556825E+04  0.25500000000E-02 0.  1.
    5000001    1    1    2    0    0  0.18006086655E+03  0.24415878648E+02 -0.58688121613E+03  0.61917413758E+03  0.77000000000E+02 0.  0.
   -5000001    1    1    2    0    0 -0.18006086655E+03 -0.24415878648E+02 -0.14625004262E+04  0.14757555853E+04  0.77000000000E+02 0.  0.
<mgrwt>
<rscale>  0 0.43447143E+03</rscale>
<asrwt>0</asrwt>
<pdfrwt beam="1">  1        2 0.29602212E+00 0.43447143E+03</pdfrwt>
<pdfrwt beam="2">  1       -2 0.32534356E-02 0.43447143E+03</pdfrwt>
<totfact> 0.30397038E+03</totfact>
</mgrwt>
</event>
<event>
 4    1  0.1300812E-003  0.3312174E+03  0.7818608E-02  0.1070599E+00
          2   -1    0    0  501    0  0.00000000000E+00  0.00000000000E+00  0.42818693621E+04  0.42818693621E+04  0.25500000000E-02 0.  1.
         -2   -1    0    0    0  501 -0.00000000000E+00 -0.00000000000E+00 -0.64052018022E+01  0.64052023098E+01  0.25500000000E-02 0. -1.
    5000001    1    1    2    0    0  0.67886563742E+02 -0.86043966097E+02  0.87680443828E+03  0.88697642168E+03  0.77000000000E+02 0.  0.
   -5000001    1    1    2    0    0 -0.67886563742E+02  0.86043966097E+02  0.33986597220E+04  0.34012981427E+04  0.77000000000E+02 0.  0.
<mgrwt>
<rscale>  0 0.33121738E+03</rscale>
<asrwt>0</asrwt>
<pdfrwt beam="1">  1        2 0.61169558E+00 0.33121738E+03</pdfrwt>
<pdfrwt beam="2">  1       -2 0.91502893E-03 0.33121738E+03</pdfrwt>
<totfact> 0.11184384E+03</totfact>
</mgrwt>
</event>
<event>
 4    1  0.1300812E-003  0.3098463E+03  0.7818608E-02  0.1080420E+00
          2   -1    0    0  501    0  0.00000000000E+00  0.00000000000E+00  0.15063111395E+04  0.15063111395E+04  0.25500000000E-02 0.  1.
         -2   -1    0    0    0  501 -0.00000000000E+00 -0.00000000000E+00 -0.15933744805E+02  0.15933745009E+02  0.25500000000E-02 0. -1.
    5000001    1    1    2    0    0 -0.55075450862E+01 -0.94955230555E+02  0.27845382992E+03  0.30415845256E+03  0.77000000000E+02 0.  0.
   -5000001    1    1    2    0    0  0.55075450862E+01  0.94955230555E+02  0.12119235647E+04  0.12180864319E+04  0.77000000000E+02 0.  0.
<mgrwt>
<rscale>  0 0.30984627E+03</rscale>
<asrwt>0</asrwt>
<pdfrwt beam="1">  1        2 0.21518722E+00 0.30984627E+03</pdfrwt>
<pdfrwt beam="2">  1       -2 0.22762502E-02 0.30984627E+03</pdfrwt>
<totfact> 0.99148002E+03</totfact>
</mgrwt>
</event>
<event>
 4    1  0.1300812E-003  0.1996868E+03  0.7818608E-02  0.1150003E+00
          2   -1    0    0  501    0  0.00000000000E+00  0.00000000000E+00  0.15358301005E+04  0.15358301005E+04  0.25500000000E-02 0.  1.
         -2   -1    0    0    0  501 -0.00000000000E+00 -0.00000000000E+00 -0.64907627703E+01  0.64907632712E+01  0.25500000000E-02 0. -1.
    5000001    1    1    2    0    0 -0.35859182606E+02  0.43520156705E+02  0.53818953758E+03  0.54658655616E+03  0.77000000000E+02 0.  0.
   -5000001    1    1    2    0    0  0.35859182606E+02 -0.43520156705E+02  0.99114980016E+03  0.99573430762E+03  0.77000000000E+02 0.  0.
<mgrwt>
<rscale>  0 0.19968685E+03</rscale>
<asrwt>0</asrwt>
<pdfrwt beam="1">  1        2 0.21940437E+00 0.19968685E+03</pdfrwt>
<pdfrwt beam="2">  1       -2 0.92725156E-03 0.19968685E+03</pdfrwt>
<totfact> 0.34911743E+04</totfact>
</mgrwt>
</event>
<event>
 4    1  0.1300812E-003  0.3080025E+03  0.7818608E-02  0.1081307E+00
          2   -1    0    0  501    0  0.00000000000E+00  0.00000000000E+00  0.64018007328E+03  0.64018007329E+03  0.25500000000E-02 0.  1.
         -2   -1    0    0    0  501 -0.00000000000E+00 -0.00000000000E+00 -0.37046418852E+02  0.37046418940E+02  0.25500000000E-02 0. -1.
    5000001    1    1    2    0    0  0.67992669246E+02  0.11265360194E+03  0.34941430318E+03  0.38122590727E+03  0.77000000000E+02 0.  0.
   -5000001    1    1    2    0    0 -0.67992669246E+02 -0.11265360194E+03  0.25371935124E+03  0.29600058496E+03  0.77000000000E+02 0.  0.
<mgrwt>
<rscale>  0 0.30800246E+03</rscale>
<asrwt>0</asrwt>
<pdfrwt beam="1">  1        2 0.91454296E-01 0.30800246E+03</pdfrwt>
<pdfrwt beam="2">  1       -2 0.52923456E-02 0.30800246E+03</pdfrwt>
<totfact> 0.91615905E+03</totfact>
</mgrwt>
</event>
<event>
 4    1  0.1300812E-003  0.2885618E+03  0.7818608E-02  0.1091102E+00
          2   -1    0    0  501    0  0.00000000000E+00  0.00000000000E+00  0.17590129715E+04  0.17590129715E+04  0.25500000000E-02 0.  1.
         -2   -1    0    0    0  501 -0.00000000000E+00 -0.00000000000E+00 -0.11834466546E+02  0.11834466821E+02  0.25500000000E-02 0. -1.
    5000001    1    1    2    0    0  0.11449293322E+02 -0.11796477747E+03  0.10515783097E+04  0.10610337961E+04  0.77000000000E+02 0.  0.
   -5000001    1    1    2    0    0 -0.11449293322E+02  0.11796477747E+03  0.69560019517E+03  0.70981364213E+03  0.77000000000E+02 0.  0.
<mgrwt>
<rscale>  0 0.28856182E+03</rscale>
<asrwt>0</asrwt>
<pdfrwt beam="1">  1        2 0.25128747E+00 0.28856182E+03</pdfrwt>
<pdfrwt beam="2">  1       -2 0.16906387E-02 0.28856182E+03</pdfrwt>
<totfact> 0.11485164E+04</totfact>
</mgrwt>
</event>
<event>
 4    1  0.1300812E-003  0.2102940E+03  0.7818608E-02  0.1141333E+00
         -2   -1    0    0    0  501 -0.00000000000E+00  0.00000000000E+00  0.91076742051E+01  0.91076745621E+01  0.25500000000E-02 0. -1.
          2   -1    0    0  501    0  0.00000000000E+00 -0.00000000000E+00 -0.12139089390E+04  0.12139089390E+04  0.25500000000E-02 0.  1.
    5000001    1    1    2    0    0  0.30771167178E+02  0.61868312905E+02 -0.49323570477E+03  0.50396925832E+03  0.77000000000E+02 0.  0.
   -5000001    1    1    2    0    0 -0.30771167178E+02 -0.61868312905E+02 -0.71156556000E+03  0.71904735522E+03  0.77000000000E+02 0.  0.
<mgrwt>
<rscale>  0 0.21029396E+03</rscale>
<asrwt>0</asrwt>
<pdfrwt beam="1">  1        2 0.17341546E+00 0.21029396E+03</pdfrwt>
<pdfrwt beam="2">  1       -2 0.13010971E-02 0.21029396E+03</pdfrwt>
<totfact> 0.31403936E+04</totfact>
</mgrwt>
</event>
<event>
 4    1  0.1300812E-003  0.3943386E+03  0.7818608E-02  0.1045758E+00
          2   -1    0    0  501    0  0.00000000000E+00  0.00000000000E+00  0.64502615845E+03  0.64502615845E+03  0.25500000000E-02 0.  1.
         -2   -1    0    0    0  501 -0.00000000000E+00 -0.00000000000E+00 -0.60270014882E+02  0.60270014936E+02  0.25500000000E-02 0. -1.
    5000001    1    1    2    0    0  0.17945465390E+03  0.22497116812E+02  0.26486436159E+03  0.32983666126E+03  0.77000000000E+02 0.  0.
   -5000001    1    1    2    0    0 -0.17945465390E+03 -0.22497116812E+02  0.31989178198E+03  0.37545951213E+03  0.77000000000E+02 0.  0.
<mgrwt>
<rscale>  0 0.39433862E+03</rscale>
<asrwt>0</asrwt>
<pdfrwt beam="1">  1        2 0.92146596E-01 0.39433862E+03</pdfrwt>
<pdfrwt beam="2">  1       -2 0.86100019E-02 0.39433862E+03</pdfrwt>
<totfact> 0.42864707E+03</totfact>
</mgrwt>
</event>
<event>
 4    1  0.1300812E-003  0.1791825E+03  0.7818608E-02  0.1168597E+00
          2   -1    0    0  501    0  0.00000000000E+00  0.00000000000E+00  0.27223646815E+03  0.27223646816E+03  0.25500000000E-02 0.  1.
         -2   -1    0    0    0  501 -0.00000000000E+00 -0.00000000000E+00 -0.29483901000E+02  0.29483901110E+02  0.25500000000E-02 0. -1.
    5000001    1    1    2    0    0  0.39815849549E+02 -0.22509504149E+02  0.11738673632E+03  0.14765034886E+03  0.77000000000E+02 0.  0.
   -5000001    1    1    2    0    0 -0.39815849549E+02  0.22509504149E+02  0.12536583083E+03  0.15407002042E+03  0.77000000000E+02 0.  0.
<mgrwt>
<rscale>  0 0.17918251E+03</rscale>
<asrwt>0</asrwt>
<pdfrwt beam="1">  1        2 0.38890925E-01 0.17918251E+03</pdfrwt>
<pdfrwt beam="2">  1       -2 0.42119858E-02 0.17918251E+03</pdfrwt>
<totfact> 0.31881859E+04</totfact>
</mgrwt>
</event>
<event>
 4    1  0.1300812E-003  0.2470393E+03  0.7818608E-02  0.1115190E+00
          2   -1    0    0  501    0  0.00000000000E+00  0.00000000000E+00  0.10115045458E+04  0.10115045458E+04  0.25500000000E-02 0.  1.
         -2   -1    0    0    0  501 -0.00000000000E+00 -0.00000000000E+00 -0.15083569324E+02  0.15083569539E+02  0.25500000000E-02 0. -1.
    5000001    1    1    2    0    0 -0.80386505070E+02 -0.14552173365E+02  0.28411437483E+03  0.30548933521E+03  0.77000000000E+02 0.  0.
   -5000001    1    1    2    0    0  0.80386505070E+02  0.14552173365E+02  0.71230660165E+03  0.72109878012E+03  0.77000000000E+02 0.  0.
<mgrwt>
<rscale>  0 0.24703926E+03</rscale>
<asrwt>0</asrwt>
<pdfrwt beam="1">  1        2 0.14450069E+00 0.24703926E+03</pdfrwt>
<pdfrwt beam="2">  1       -2 0.21547951E-02 0.24703926E+03</pdfrwt>
<totfact> 0.19677347E+04</totfact>
</mgrwt>
</event>
<event>
 4    1  0.1300812E-003  0.2014546E+03  0.7818608E-02  0.1148518E+00
          2   -1    0    0  501    0  0.00000000000E+00  0.00000000000E+00  0.98118720900E+03  0.98118720901E+03  0.25500000000E-02 0.  1.
         -2   -1    0    0    0  501 -0.00000000000E+00 -0.00000000000E+00 -0.10340519840E+02  0.10340520155E+02  0.25500000000E-02 0. -1.
    5000001    1    1    2    0    0  0.27436758843E+02 -0.43075025987E+02  0.68283479463E+03  0.68905775546E+03  0.77000000000E+02 0.  0.
   -5000001    1    1    2    0    0 -0.27436758843E+02  0.43075025987E+02  0.28801189453E+03  0.30246997370E+03  0.77000000000E+02 0.  0.
<mgrwt>
<rscale>  0 0.20145457E+03</rscale>
<asrwt>0</asrwt>
<pdfrwt beam="1">  1        2 0.14016947E+00 0.20145457E+03</pdfrwt>
<pdfrwt beam="2">  1       -2 0.14772186E-02 0.20145457E+03</pdfrwt>
<totfact> 0.35157186E+04</totfact>
</mgrwt>
</event>
<event>
 4    1  0.1300812E-003  0.2441008E+03  0.7818608E-02  0.1117091E+00
          2   -1    0    0  501    0  0.00000000000E+00  0.00000000000E+00  0.21302915714E+04  0.21302915714E+04  0.25500000000E-02 0.  1.
         -2   -1    0    0    0  501 -0.00000000000E+00 -0.00000000000E+00 -0.69926113826E+01  0.69926118476E+01  0.25500000000E-02 0. -1.
    5000001    1    1    2    0    0 -0.68105623706E+02  0.52632844088E+02  0.14073305644E+04  0.14120612273E+04  0.77000000000E+02 0.  0.
   -5000001    1    1    2    0    0  0.68105623706E+02 -0.52632844088E+02  0.71596839562E+03  0.72522295591E+03  0.77000000000E+02 0.  0.
<mgrwt>
<rscale>  0 0.24410081E+03</rscale>
<asrwt>0</asrwt>
<pdfrwt beam="1">  1        2 0.30432796E+00 0.24410081E+03</pdfrwt>
<pdfrwt beam="2">  1       -2 0.99894256E-03 0.24410081E+03</pdfrwt>
<totfact> 0.16235760E+04</totfact>
</mgrwt>
</event>
<event>
 4    1  0.1300812E-003  0.1680179E+03  0.7818608E-02  0.1179931E+00
         -2   -1    0    0    0  501 -0.00000000000E+00  0.00000000000E+00  0.70235704679E+02  0.70235704725E+02  0.25500000000E-02 0. -1.
          2   -1    0    0  501    0  0.00000000000E+00 -0.00000000000E+00 -0.10048315031E+03  0.10048315034E+03  0.25500000000E-02 0.  1.
    5000001    1    1    2    0    0  0.25414660944E+01  0.23619750097E+02  0.90100066903E+01  0.81083487006E+02  0.77000000000E+02 0.  0.
   -5000001    1    1    2    0    0 -0.25414660944E+01 -0.23619750097E+02 -0.39257452320E+02  0.89635368060E+02  0.77000000000E+02 0.  0.
<mgrwt>
<rscale>  0 0.16801791E+03</rscale>
<asrwt>0</asrwt>
<pdfrwt beam="1">  1        2 0.14354736E-01 0.16801791E+03</pdfrwt>
<pdfrwt beam="2">  1       -2 0.10033672E-01 0.16801791E+03</pdfrwt>
<totfact> 0.25557961E+04</totfact>
</mgrwt>
</event>
<event>
 4    1  0.1300812E-003  0.2330114E+03  0.7818608E-02  0.1124538E+00
          2   -1    0    0  501    0  0.00000000000E+00  0.00000000000E+00  0.48476174658E+03  0.48476174659E+03  0.25500000000E-02 0.  1.
         -2   -1    0    0    0  501 -0.00000000000E+00 -0.00000000000E+00 -0.28000517515E+02  0.28000517631E+02  0.25500000000E-02 0. -1.
    5000001    1    1    2    0    0 -0.87392151394E+02  0.10095688425E+01  0.22291337948E+03  0.25151099798E+03  0.77000000000E+02 0.  0.
   -5000001    1    1    2    0    0  0.87392151394E+02 -0.10095688425E+01  0.23384784959E+03  0.26125126624E+03  0.77000000000E+02 0.  0.
<mgrwt>
<rscale>  0 0.23301141E+03</rscale>
<asrwt>0</asrwt>
<pdfrwt beam="1">  1        2 0.69251679E-01 0.23301141E+03</pdfrwt>
<pdfrwt beam="2">  1       -2 0.40000739E-02 0.23301141E+03</pdfrwt>
<totfact> 0.18900797E+04</totfact>
</mgrwt>
</event>
<event>
 4    1  0.1300812E-003  0.1755010E+03  0.7818608E-02  0.1172230E+00
          2   -1    0    0  501    0  0.00000000000E+00  0.00000000000E+00  0.21550514929E+04  0.21550514929E+04  0.25500000000E-02 0.  1.
         -2   -1    0    0    0  501 -0.00000000000E+00 -0.00000000000E+00 -0.35730700490E+01  0.35730709590E+01  0.25500000000E-02 0. -1.
    5000001    1    1    2    0    0 -0.20584787694E+02  0.34233307129E+02  0.91279694921E+03  0.91690944116E+03  0.77000000000E+02 0.  0.
   -5000001    1    1    2    0    0  0.20584787694E+02 -0.34233307129E+02  0.12386814736E+04  0.12417151227E+04  0.77000000000E+02 0.  0.
<mgrwt>
<rscale>  0 0.17550101E+03</rscale>
<asrwt>0</asrwt>
<pdfrwt beam="1">  1        2 0.30786470E+00 0.17550101E+03</pdfrwt>
<pdfrwt beam="2">  1       -2 0.51043831E-03 0.17550101E+03</pdfrwt>
<totfact> 0.40850835E+04</totfact>
</mgrwt>
</event>
<event>
 4    1  0.1300812E-003  0.1866226E+03  0.7818608E-02  0.1161543E+00
         -2   -1    0    0    0  501 -0.00000000000E+00  0.00000000000E+00  0.19503704709E+03  0.19503704710E+03  0.25500000000E-02 0. -1.
          2   -1    0    0  501    0  0.00000000000E+00 -0.00000000000E+00 -0.44642772017E+02  0.44642772090E+02  0.25500000000E-02 0.  1.
    5000001    1    1    2    0    0 -0.17451546035E+02 -0.13446646147E+02  0.13669130358E+03  0.15842626432E+03  0.77000000000E+02 0.  0.
   -5000001    1    1    2    0    0  0.17451546035E+02  0.13446646147E+02  0.13702971486E+02  0.81253554871E+02  0.77000000000E+02 0.  0.
<mgrwt>
<rscale>  0 0.18662255E+03</rscale>
<asrwt>0</asrwt>
<pdfrwt beam="1">  1        2 0.63775389E-02 0.18662255E+03</pdfrwt>
<pdfrwt beam="2">  1       -2 0.27862435E-01 0.18662255E+03</pdfrwt>
<totfact> 0.12816028E+04</totfact>
</mgrwt>
</event>
<event>
 4    1  0.1300812E-003  0.4180271E+03  0.7818608E-02  0.1037710E+00
          2   -1    0    0  501    0  0.00000000000E+00  0.00000000000E+00  0.29246829158E+04  0.29246829158E+04  0.25500000000E-02 0.  1.
         -2   -1    0    0    0  501 -0.00000000000E+00 -0.00000000000E+00 -0.14937230777E+02  0.14937230995E+02  0.25500000000E-02 0. -1.
    5000001    1    1    2    0    0 -0.16230728195E+03 -0.95726323840E+02  0.17884716326E+04  0.18000186009E+04  0.77000000000E+02 0.  0.
   -5000001    1    1    2    0    0  0.16230728195E+03  0.95726323840E+02  0.11212740524E+04  0.11396015459E+04  0.77000000000E+02 0.  0.
<mgrwt>
<rscale>  0 0.41802710E+03</rscale>
<asrwt>0</asrwt>
<pdfrwt beam="1">  1        2 0.41781179E+00 0.41802710E+03</pdfrwt>
<pdfrwt beam="2">  1       -2 0.21338904E-02 0.41802710E+03</pdfrwt>
<totfact> 0.21082555E+03</totfact>
</mgrwt>
</event>
<event>
 4    1  0.1300812E-003  0.8797025E+03  0.7818608E-02  0.9451316E-01
         -2   -1    0    0    0  501 -0.00000000000E+00  0.00000000000E+00  0.88155346884E+02  0.88155346920E+02  0.25500000000E-02 0. -1.
          2   -1    0    0  501    0  0.00000000000E+00 -0.00000000000E+00 -0.21946383339E+04  0.21946383339E+04  0.25500000000E-02 0.  1.
    5000001    1    1    2    0    0  0.13655233471E+03 -0.33191382367E+03 -0.42438877836E+03  0.56111332337E+03  0.77000000000E+02 0.  0.
   -5000001    1    1    2    0    0 -0.13655233471E+03  0.33191382367E+03 -0.16820942087E+04  0.17216803575E+04  0.77000000000E+02 0.  0.
<mgrwt>
<rscale>  0 0.87970246E+03</rscale>
<asrwt>0</asrwt>
<pdfrwt beam="1">  1        2 0.31351973E+00 0.87970246E+03</pdfrwt>
<pdfrwt beam="2">  1       -2 0.12593622E-01 0.87970246E+03</pdfrwt>
<totfact> 0.30338767E+02</totfact>
</mgrwt>
</event>
<event>
 4    1  0.1300812E-003  0.3783570E+03  0.7818608E-02  0.1051543E+00
          2   -1    0    0  501    0  0.00000000000E+00  0.00000000000E+00  0.19358982486E+04  0.19358982486E+04  0.25500000000E-02 0.  1.
         -2   -1    0    0    0  501 -0.00000000000E+00 -0.00000000000E+00 -0.18486766514E+02  0.18486766689E+02  0.25500000000E-02 0. -1.
    5000001    1    1    2    0    0 -0.66540101275E+02 -0.14950665831E+03  0.12453615176E+04  0.12584252602E+04  0.77000000000E+02 0.  0.
   -5000001    1    1    2    0    0  0.66540101275E+02  0.14950665831E+03  0.67204996445E+03  0.69595975507E+03  0.77000000000E+02 0.  0.
<mgrwt>
<rscale>  0 0.37835697E+03</rscale>
<asrwt>0</asrwt>
<pdfrwt beam="1">  1        2 0.27655678E+00 0.37835697E+03</pdfrwt>
<pdfrwt beam="2">  1       -2 0.26409677E-02 0.37835697E+03</pdfrwt>
<totfact> 0.48642619E+03</totfact>
</mgrwt>
</event>
<event>
 4    1  0.1300812E-003  0.2051858E+03  0.7818608E-02  0.1145436E+00
         -2   -1    0    0    0  501 -0.00000000000E+00  0.00000000000E+00  0.99447733221E+01  0.99447736491E+01  0.25500000000E-02 0. -1.
          2   -1    0    0  501    0  0.00000000000E+00 -0.00000000000E+00 -0.10583758392E+04  0.10583758392E+04  0.25500000000E-02 0.  1.
    5000001    1    1    2    0    0  0.57376330073E+02  0.36108086194E+02 -0.52064285801E+03  0.53065414607E+03  0.77000000000E+02 0.  0.
   -5000001    1    1    2    0    0 -0.57376330073E+02 -0.36108086194E+02 -0.52778820789E+03  0.53766646681E+03  0.77000000000E+02 0.  0.
<mgrwt>
<rscale>  0 0.20518585E+03</rscale>
<asrwt>0</asrwt>
<pdfrwt beam="1">  1        2 0.15119648E+00 0.20518585E+03</pdfrwt>
<pdfrwt beam="2">  1       -2 0.14206826E-02 0.20518585E+03</pdfrwt>
<totfact> 0.33613311E+04</totfact>
</mgrwt>
</event>
<event>
 4    1  0.1300812E-003  0.4467797E+03  0.7818608E-02  0.1028687E+00
          2   -1    0    0  501    0  0.00000000000E+00  0.00000000000E+00  0.34417400462E+04  0.34417400462E+04  0.25500000000E-02 0.  1.
         -2   -1    0    0    0  501 -0.00000000000E+00 -0.00000000000E+00 -0.14499356489E+02  0.14499356713E+02  0.25500000000E-02 0. -1.
    5000001    1    1    2    0    0 -0.19425048629E+03  0.69770767555E+02  0.20002458430E+04  0.20123403400E+04  0.77000000000E+02 0.  0.
   -5000001    1    1    2    0    0  0.19425048629E+03 -0.69770767555E+02  0.14269948467E+04  0.14438990630E+04  0.77000000000E+02 0.  0.
<mgrwt>
<rscale>  0 0.44677966E+03</rscale>
<asrwt>0</asrwt>
<pdfrwt beam="1">  1        2 0.49167708E+00 0.44677966E+03</pdfrwt>
<pdfrwt beam="2">  1       -2 0.20713370E-02 0.44677966E+03</pdfrwt>
<totfact> 0.11349174E+03</totfact>
</mgrwt>
</event>
<event>
 4    1  0.1300812E-003  0.3590254E+03  0.7818608E-02  0.1058970E+00
         -2   -1    0    0    0  501 -0.00000000000E+00  0.00000000000E+00  0.22699275728E+02  0.22699275871E+02  0.25500000000E-02 0. -1.
          2   -1    0    0  501    0  0.00000000000E+00 -0.00000000000E+00 -0.14196402606E+04  0.14196402606E+04  0.25500000000E-02 0.  1.
    5000001    1    1    2    0    0  0.15271384594E+03  0.30764159740E+02 -0.87937969184E+03  0.89638473587E+03  0.77000000000E+02 0.  0.
   -5000001    1    1    2    0    0 -0.15271384594E+03 -0.30764159740E+02 -0.51756129307E+03  0.54595480065E+03  0.77000000000E+02 0.  0.
<mgrwt>
<rscale>  0 0.35902538E+03</rscale>
<asrwt>0</asrwt>
<pdfrwt beam="1">  1        2 0.20280570E+00 0.35902538E+03</pdfrwt>
<pdfrwt beam="2">  1       -2 0.32427546E-02 0.35902538E+03</pdfrwt>
<totfact> 0.64920643E+03</totfact>
</mgrwt>
</event>
<event>
 4    1  0.1300812E-003  0.2941417E+03  0.7818608E-02  0.1088206E+00
          2   -1    0    0  501    0  0.00000000000E+00  0.00000000000E+00  0.77043625294E+02  0.77043625336E+02  0.25500000000E-02 0.  1.
         -2   -1    0    0    0  501 -0.00000000000E+00 -0.00000000000E+00 -0.28074791192E+03  0.28074791193E+03  0.25500000000E-02 0. -1.
    5000001    1    1    2    0    0 -0.11885318950E+03  0.24107653887E+02 -0.14019410049E+03  0.20072529846E+03  0.77000000000E+02 0.  0.
   -5000001    1    1    2    0    0  0.11885318950E+03 -0.24107653887E+02 -0.63510186134E+02  0.15706623880E+03  0.77000000000E+02 0.  0.
<mgrwt>
<rscale>  0 0.29414171E+03</rscale>
<asrwt>0</asrwt>
<pdfrwt beam="1">  1        2 0.11006232E-01 0.29414171E+03</pdfrwt>
<pdfrwt beam="2">  1       -2 0.40106844E-01 0.29414171E+03</pdfrwt>
<totfact> 0.33650200E+03</totfact>
</mgrwt>
</event>
<event>
 4    1  0.1300812E-003  0.1803769E+03  0.7818608E-02  0.1167439E+00
          2   -1    0    0  501    0  0.00000000000E+00  0.00000000000E+00  0.61717625950E+03  0.61717625950E+03  0.25500000000E-02 0.  1.
         -2   -1    0    0    0  501 -0.00000000000E+00 -0.00000000000E+00 -0.13179311356E+02  0.13179311603E+02  0.25500000000E-02 0. -1.
    5000001    1    1    2    0    0 -0.15051665827E+02 -0.26619789833E+02  0.42652761124E+03  0.43449967664E+03  0.77000000000E+02 0.  0.
   -5000001    1    1    2    0    0  0.15051665827E+02  0.26619789833E+02  0.17746933691E+03  0.19585589446E+03  0.77000000000E+02 0.  0.
<mgrwt>
<rscale>  0 0.18037692E+03</rscale>
<asrwt>0</asrwt>
<pdfrwt beam="1">  1        2 0.88168023E-01 0.18037692E+03</pdfrwt>
<pdfrwt beam="2">  1       -2 0.18827591E-02 0.18037692E+03</pdfrwt>
<totfact> 0.43106501E+04</totfact>
</mgrwt>
</event>
<event>
 4    1  0.1300812E-003  0.1750343E+03  0.7818608E-02  0.1172697E+00
          2   -1    0    0  501    0  0.00000000000E+00  0.00000000000E+00  0.11296803009E+04  0.11296803009E+04  0.25500000000E-02 0.  1.
         -2   -1    0    0    0  501 -0.00000000000E+00 -0.00000000000E+00 -0.67800150947E+01  0.67800155743E+01  0.25500000000E-02 0. -1.
    5000001    1    1    2    0    0 -0.18657980619E+00  0.41584288951E+02  0.55508235353E+03  0.56193834813E+03  0.77000000000E+02 0.  0.
   -5000001    1    1    2    0    0  0.18657980619E+00 -0.41584288951E+02  0.56781793229E+03  0.57452196837E+03  0.77000000000E+02 0.  0.
<mgrwt>
<rscale>  0 0.17503428E+03</rscale>
<asrwt>0</asrwt>
<pdfrwt beam="1">  1        2 0.16138276E+00 0.17503428E+03</pdfrwt>
<pdfrwt beam="2">  1       -2 0.96857448E-03 0.17503428E+03</pdfrwt>
<totfact> 0.52687410E+04</totfact>
</mgrwt>
</event>
<event>
 4    1  0.1300812E-003  0.1842013E+03  0.7818608E-02  0.1163798E+00
         -2   -1    0    0    0  501 -0.00000000000E+00  0.00000000000E+00  0.60502119553E+01  0.60502124927E+01  0.25500000000E-02 0. -1.
          2   -1    0    0  501    0  0.00000000000E+00 -0.00000000000E+00 -0.14020219567E+04  0.14020219567E+04  0.25500000000E-02 0.  1.
    5000001    1    1    2    0    0 -0.46475550762E+02  0.15064631235E+02 -0.79665546328E+03  0.80185774742E+03  0.77000000000E+02 0.  0.
   -5000001    1    1    2    0    0  0.46475550762E+02 -0.15064631235E+02 -0.59931628151E+03  0.60621442181E+03  0.77000000000E+02 0.  0.
<mgrwt>
<rscale>  0 0.18420131E+03</rscale>
<asrwt>0</asrwt>
<pdfrwt beam="1">  1        2 0.20028864E+00 0.18420131E+03</pdfrwt>
<pdfrwt beam="2">  1       -2 0.86431693E-03 0.18420131E+03</pdfrwt>
<totfact> 0.44830334E+04</totfact>
</mgrwt>
</event>
<event>
 4    1  0.1300812E-003  0.2150171E+03  0.7818608E-02  0.1137653E+00
          2   -1    0    0  501    0  0.00000000000E+00  0.00000000000E+00  0.24952862560E+04  0.24952862560E+04  0.25500000000E-02 0.  1.
         -2   -1    0    0    0  501 -0.00000000000E+00 -0.00000000000E+00 -0.46319700881E+01  0.46319707900E+01  0.25500000000E-02 0. -1.
    5000001    1    1    2    0    0  0.74485039877E+02 -0.21956575425E+01  0.13468521295E+04  0.13511078791E+04  0.77000000000E+02 0.  0.
   -5000001    1    1    2    0    0 -0.74485039877E+02  0.21956575425E+01  0.11438021564E+04  0.11488103477E+04  0.77000000000E+02 0.  0.
<mgrwt>
<rscale>  0 0.21501714E+03</rscale>
<asrwt>0</asrwt>
<pdfrwt beam="1">  1        2 0.35646775E+00 0.21501714E+03</pdfrwt>
<pdfrwt beam="2">  1       -2 0.66171324E-03 0.21501714E+03</pdfrwt>
<totfact> 0.19419655E+04</totfact>
</mgrwt>
</event>
<event>
 4    1  0.1300812E-003  0.3811509E+03  0.7818608E-02  0.1050509E+00
          2   -1    0    0  501    0  0.00000000000E+00  0.00000000000E+00  0.31001736331E+04  0.31001736331E+04  0.25500000000E-02 0. -1.
         -2   -1    0    0    0  501 -0.00000000000E+00 -0.00000000000E+00 -0.11715151995E+02  0.11715152272E+02  0.25500000000E-02 0.  1.
    5000001    1    1    2    0    0  0.89764583639E+02  0.11572960074E+03  0.23161472892E+04  0.23220504487E+04  0.77000000000E+02 0.  0.
   -5000001    1    1    2    0    0 -0.89764583639E+02 -0.11572960074E+03  0.77231119193E+03  0.78983833672E+03  0.77000000000E+02 0.  0.
<mgrwt>
<rscale>  0 0.38115092E+03</rscale>
<asrwt>0</asrwt>
<pdfrwt beam="1">  1        2 0.44288184E+00 0.38115092E+03</pdfrwt>
<pdfrwt beam="2">  1       -2 0.16735936E-02 0.38115092E+03</pdfrwt>
<totfact> 0.24411259E+03</totfact>
</mgrwt>
</event>
<event>
 4    1  0.1300812E-003  0.2033724E+03  0.7818608E-02  0.1146924E+00
         -2   -1    0    0    0  501 -0.00000000000E+00  0.00000000000E+00  0.15554698268E+03  0.15554698270E+03  0.25500000000E-02 0. -1.
          2   -1    0    0  501    0  0.00000000000E+00 -0.00000000000E+00 -0.66475650257E+02  0.66475650306E+02  0.25500000000E-02 0.  1.
    5000001    1    1    2    0    0 -0.58990956842E+02 -0.13925908997E+02  0.74177465876E+02  0.12290305275E+03  0.77000000000E+02 0.  0.
   -5000001    1    1    2    0    0  0.58990956842E+02  0.13925908997E+02  0.14893866547E+02  0.99119580262E+02  0.77000000000E+02 0.  0.
<mgrwt>
<rscale>  0 0.20337243E+03</rscale>
<asrwt>0</asrwt>
<pdfrwt beam="1">  1        2 0.94965215E-02 0.20337243E+03</pdfrwt>
<pdfrwt beam="2">  1       -2 0.22220998E-01 0.20337243E+03</pdfrwt>
<totfact> 0.11584260E+04</totfact>
</mgrwt>
</event>
<event>
 4    1  0.1300812E-003  0.1895337E+03  0.7818608E-02  0.1158883E+00
          2   -1    0    0  501    0  0.00000000000E+00  0.00000000000E+00  0.33226487613E+02  0.33226487711E+02  0.25500000000E-02 0.  1.
         -2   -1    0    0    0  501 -0.00000000000E+00 -0.00000000000E+00 -0.27028904724E+03  0.27028904725E+03  0.25500000000E-02 0. -1.
    5000001    1    1    2    0    0 -0.31036346378E+02  0.45153775572E+02 -0.12981362095E+03  0.16056990512E+03  0.77000000000E+02 0.  0.
   -5000001    1    1    2    0    0  0.31036346378E+02 -0.45153775572E+02 -0.10724893867E+03  0.14294562984E+03  0.77000000000E+02 0.  0.
<mgrwt>
<rscale>  0 0.18953370E+03</rscale>
<asrwt>0</asrwt>
<pdfrwt beam="1">  1        2 0.47466413E-02 0.18953370E+03</pdfrwt>
<pdfrwt beam="2">  1       -2 0.38612720E-01 0.18953370E+03</pdfrwt>
<totfact> 0.10364689E+04</totfact>
</mgrwt>
</event>
<event>
 4    1  0.1300812E-003  0.8932676E+03  0.7818608E-02  0.9434037E-01
         -2   -1    0    0    0  501 -0.00000000000E+00  0.00000000000E+00  0.11962838864E+03  0.11962838867E+03  0.25500000000E-02 0. -1.
          2   -1    0    0  501    0  0.00000000000E+00 -0.00000000000E+00 -0.16675118367E+04  0.16675118367E+04  0.25500000000E-02 0.  1.
    5000001    1    1    2    0    0 -0.86042877879E+02 -0.21608732870E+03 -0.26813586802E+02  0.24646516771E+03  0.77000000000E+02 0.  0.
   -5000001    1    1    2    0    0  0.86042877879E+02  0.21608732870E+03 -0.15210698612E+04  0.15406750576E+04  0.77000000000E+02 0.  0.
<mgrwt>
<rscale>  0 0.89326761E+03</rscale>
<asrwt>0</asrwt>
<pdfrwt beam="1">  1        2 0.23821596E+00 0.89326761E+03</pdfrwt>
<pdfrwt beam="2">  1       -2 0.17089771E-01 0.89326761E+03</pdfrwt>
<totfact> 0.33604234E+02</totfact>
</mgrwt>
</event>
<event>
 4    1  0.1300812E-003  0.1767830E+03  0.7818608E-02  0.1170953E+00
          2   -1    0    0  501    0  0.00000000000E+00  0.00000000000E+00  0.20159080018E+03  0.20159080020E+03  0.25500000000E-02 0.  1.
         -2   -1    0    0    0  501 -0.00000000000E+00 -0.00000000000E+00 -0.38757006008E+02  0.38757006092E+02  0.25500000000E-02 0. -1.
    5000001    1    1    2    0    0  0.35876674852E+02 -0.20390104487E+02  0.99716231797E+02  0.13257156197E+03  0.77000000000E+02 0.  0.
   -5000001    1    1    2    0    0 -0.35876674852E+02  0.20390104487E+02  0.63117562380E+02  0.10777624432E+03  0.77000000000E+02 0.  0.
<mgrwt>
<rscale>  0 0.17678298E+03</rscale>
<asrwt>0</asrwt>
<pdfrwt beam="1">  1        2 0.28798686E-01 0.17678298E+03</pdfrwt>
<pdfrwt beam="2">  1       -2 0.55367151E-02 0.17678298E+03</pdfrwt>
<totfact> 0.29183281E+04</totfact>
</mgrwt>
</event>
<event>
 4    1  0.1300812E-003  0.2170853E+03  0.7818608E-02  0.1136075E+00
          2   -1    0    0  501    0  0.00000000000E+00  0.00000000000E+00  0.16526733537E+04  0.16526733537E+04  0.25500000000E-02 0.  1.
         -2   -1    0    0    0  501 -0.00000000000E+00 -0.00000000000E+00 -0.71287556440E+01  0.71287561000E+01  0.25500000000E-02 0. -1.
    5000001    1    1    2    0    0  0.34383112403E+02 -0.49482123263E+02  0.11831691180E+04  0.11872021061E+04  0.77000000000E+02 0.  0.
   -5000001    1    1    2    0    0 -0.34383112403E+02  0.49482123263E+02  0.46237548005E+03  0.47260000370E+03  0.77000000000E+02 0.  0.
<mgrwt>
<rscale>  0 0.21708528E+03</rscale>
<asrwt>0</asrwt>
<pdfrwt beam="1">  1        2 0.23609615E+00 0.21708528E+03</pdfrwt>
<pdfrwt beam="2">  1       -2 0.10183939E-02 0.21708528E+03</pdfrwt>
<totfact> 0.26828573E+04</totfact>
</mgrwt>
</event>
<event>
 4    1  0.1300812E-003  0.5940528E+03  0.7818608E-02  0.9917822E-01
          2   -1    0    0  501    0  0.00000000000E+00  0.00000000000E+00  0.85607146708E+03  0.85607146709E+03  0.25500000000E-02 0.  1.
         -2   -1    0    0    0  501 -0.00000000000E+00 -0.00000000000E+00 -0.10305762904E+03  0.10305762907E+03  0.25500000000E-02 0. -1.
    5000001    1    1    2    0    0  0.68208221202E+02 -0.19824952288E+03  0.60366044261E+02  0.23136182498E+03  0.77000000000E+02 0.  0.
   -5000001    1    1    2    0    0 -0.68208221202E+02  0.19824952288E+03  0.69264779378E+03  0.72776727117E+03  0.77000000000E+02 0.  0.
<mgrwt>
<rscale>  0 0.59405285E+03</rscale>
<asrwt>0</asrwt>
<pdfrwt beam="1">  1        2 0.12229593E+00 0.59405285E+03</pdfrwt>
<pdfrwt beam="2">  1       -2 0.14722518E-01 0.59405285E+03</pdfrwt>
<totfact> 0.12610334E+03</totfact>
</mgrwt>
</event>
<event>
 4    1  0.1300812E-003  0.2803619E+03  0.7818608E-02  0.1095491E+00
         -2   -1    0    0    0  501 -0.00000000000E+00  0.00000000000E+00  0.11563376424E+02  0.11563376705E+02  0.25500000000E-02 0. -1.
          2   -1    0    0  501    0  0.00000000000E+00 -0.00000000000E+00 -0.16993906072E+04  0.16993906072E+04  0.25500000000E-02 0.  1.
    5000001    1    1    2    0    0 -0.49414858028E+02 -0.94529732245E+02 -0.54845426551E+03  0.56401132952E+03  0.77000000000E+02 0.  0.
   -5000001    1    1    2    0    0  0.49414858028E+02  0.94529732245E+02 -0.11393729653E+04  0.11469426544E+04  0.77000000000E+02 0.  0.
<mgrwt>
<rscale>  0 0.28036186E+03</rscale>
<asrwt>0</asrwt>
<pdfrwt beam="1">  1        2 0.24276993E+00 0.28036186E+03</pdfrwt>
<pdfrwt beam="2">  1       -2 0.16519120E-02 0.28036186E+03</pdfrwt>
<totfact> 0.12705835E+04</totfact>
</mgrwt>
</event>
<event>
 4    1  0.1300812E-003  0.2040274E+03  0.7818608E-02  0.1146385E+00
         -2   -1    0    0    0  501 -0.00000000000E+00  0.00000000000E+00  0.10293371677E+02  0.10293371993E+02  0.25500000000E-02 0. -1.
          2   -1    0    0  501    0  0.00000000000E+00 -0.00000000000E+00 -0.10110193039E+04  0.10110193040E+04  0.25500000000E-02 0.  1.
    5000001    1    1    2    0    0  0.47179966674E+02 -0.44452081212E+02 -0.41722197300E+03  0.42919122957E+03  0.77000000000E+02 0.  0.
   -5000001    1    1    2    0    0 -0.47179966674E+02  0.44452081212E+02 -0.58350395927E+03  0.59212144638E+03  0.77000000000E+02 0.  0.
<mgrwt>
<rscale>  0 0.20402743E+03</rscale>
<asrwt>0</asrwt>
<pdfrwt beam="1">  1        2 0.14443127E+00 0.20402743E+03</pdfrwt>
<pdfrwt beam="2">  1       -2 0.14704823E-02 0.20402743E+03</pdfrwt>
<totfact> 0.34026587E+04</totfact>
</mgrwt>
</event>
<event>
 4    1  0.1300812E-003  0.2966853E+03  0.7818608E-02  0.1086909E+00
          2   -1    0    0  501    0  0.00000000000E+00  0.00000000000E+00  0.78344504098E+03  0.78344504098E+03  0.25500000000E-02 0.  1.
         -2   -1    0    0    0  501 -0.00000000000E+00 -0.00000000000E+00 -0.28088175581E+02  0.28088175697E+02  0.25500000000E-02 0. -1.
    5000001    1    1    2    0    0  0.54237132654E+02  0.12766829233E+02  0.68921697927E+03  0.69573968048E+03  0.77000000000E+02 0.  0.
   -5000001    1    1    2    0    0 -0.54237132654E+02 -0.12766829233E+02  0.66139886126E+02  0.11579353619E+03  0.77000000000E+02 0.  0.
<mgrwt>
<rscale>  0 0.29668530E+03</rscale>
<asrwt>0</asrwt>
<pdfrwt beam="1">  1        2 0.11192072E+00 0.29668530E+03</pdfrwt>
<pdfrwt beam="2">  1       -2 0.40125967E-02 0.29668530E+03</pdfrwt>
<totfact> 0.10938240E+04</totfact>
</mgrwt>
</event>
<event>
 4    1  0.1300812E-003  0.1716838E+03  0.7818608E-02  0.1176103E+00
         -2   -1    0    0    0  501 -0.00000000000E+00  0.00000000000E+00  0.90301955002E+02  0.90301955038E+02  0.25500000000E-02 0. -1.
          2   -1    0    0  501    0  0.00000000000E+00 -0.00000000000E+00 -0.81602149703E+02  0.81602149743E+02  0.25500000000E-02 0.  1.
    5000001    1    1    2    0    0  0.59049874066E+01 -0.35120490145E+01 -0.33015941130E+02  0.84061023865E+02  0.77000000000E+02 0.  0.
   -5000001    1    1    2    0    0 -0.59049874066E+01  0.35120490145E+01  0.41715746430E+02  0.87843080916E+02  0.77000000000E+02 0.  0.
<mgrwt>
<rscale>  0 0.17168382E+03</rscale>
<asrwt>0</asrwt>
<pdfrwt beam="1">  1        2 0.11657450E-01 0.17168382E+03</pdfrwt>
<pdfrwt beam="2">  1       -2 0.12900279E-01 0.17168382E+03</pdfrwt>
<totfact> 0.22001561E+04</totfact>
</mgrwt>
</event>
<event>
 4    1  0.1300812E-003  0.1960445E+03  0.7818608E-02  0.1153120E+00
          2   -1    0    0  501    0  0.00000000000E+00  0.00000000000E+00  0.34792620838E+03  0.34792620839E+03  0.25500000000E-02 0.  1.
         -2   -1    0    0    0  501 -0.00000000000E+00 -0.00000000000E+00 -0.27616080427E+02  0.27616080545E+02  0.25500000000E-02 0. -1.
    5000001    1    1    2    0    0 -0.13864692771E+02 -0.42940378592E+02  0.23780773402E+03  0.25400319718E+03  0.77000000000E+02 0.  0.
   -5000001    1    1    2    0    0  0.13864692771E+02  0.42940378592E+02  0.82502393937E+02  0.12153909176E+03  0.77000000000E+02 0.  0.
<mgrwt>
<rscale>  0 0.19604447E+03</rscale>
<asrwt>0</asrwt>
<pdfrwt beam="1">  1        2 0.49703738E-01 0.19604447E+03</pdfrwt>
<pdfrwt beam="2">  1       -2 0.39451548E-02 0.19604447E+03</pdfrwt>
<totfact> 0.27266502E+04</totfact>
</mgrwt>
</event>
<event>
 4    1  0.1300812E-003  0.2587813E+03  0.7818608E-02  0.1107878E+00
         -2   -1    0    0    0  501 -0.00000000000E+00  0.00000000000E+00  0.13015716877E+02  0.13015717127E+02  0.25500000000E-02 0. -1.
          2   -1    0    0  501    0  0.00000000000E+00 -0.00000000000E+00 -0.12862862916E+04  0.12862862916E+04  0.25500000000E-02 0.  1.
    5000001    1    1    2    0    0  0.45732550298E+02 -0.34909860409E+02 -0.20173652387E+03  0.22346541024E+03  0.77000000000E+02 0.  0.
   -5000001    1    1    2    0    0 -0.45732550298E+02  0.34909860409E+02 -0.10715340508E+04  0.10758365985E+04  0.77000000000E+02 0.  0.
<mgrwt>
<rscale>  0 0.25878128E+03</rscale>
<asrwt>0</asrwt>
<pdfrwt beam="1">  1        2 0.18375510E+00 0.25878128E+03</pdfrwt>
<pdfrwt beam="2">  1       -2 0.18593890E-02 0.25878128E+03</pdfrwt>
<totfact> 0.17259446E+04</totfact>
</mgrwt>
</event>
<event>
 4    1  0.1300812E-003  0.1758154E+03  0.7818608E-02  0.1171915E+00
          2   -1    0    0  501    0  0.00000000000E+00  0.00000000000E+00  0.22598549273E+03  0.22598549274E+03  0.25500000000E-02 0.  1.
         -2   -1    0    0    0  501 -0.00000000000E+00 -0.00000000000E+00 -0.34195842497E+02  0.34195842592E+02  0.25500000000E-02 0. -1.
    5000001    1    1    2    0    0  0.18378073627E+02 -0.38209638042E+02  0.97399846274E+02  0.13120007654E+03  0.77000000000E+02 0.  0.
   -5000001    1    1    2    0    0 -0.18378073627E+02  0.38209638042E+02  0.94389803957E+02  0.12898125880E+03  0.77000000000E+02 0.  0.
<mgrwt>
<rscale>  0 0.17581541E+03</rscale>
<asrwt>0</asrwt>
<pdfrwt beam="1">  1        2 0.32283640E-01 0.17581541E+03</pdfrwt>
<pdfrwt beam="2">  1       -2 0.48851206E-02 0.17581541E+03</pdfrwt>
<totfact> 0.31128464E+04</totfact>
</mgrwt>
</event>
<event>
 4    1  0.1300812E-003  0.2084562E+03  0.7818608E-02  0.1142794E+00
         -2   -1    0    0    0  501 -0.00000000000E+00  0.00000000000E+00  0.83736635900E+01  0.83736639783E+01  0.25500000000E-02 0. -1.
          2   -1    0    0  501    0  0.00000000000E+00 -0.00000000000E+00 -0.12973410523E+04  0.12973410523E+04  0.25500000000E-02 0.  1.
    5000001    1    1    2    0    0  0.42744820304E+02  0.28435938300E+02 -0.94480195969E+03  0.94932368836E+03  0.77000000000E+02 0.  0.
   -5000001    1    1    2    0    0 -0.42744820304E+02 -0.28435938300E+02 -0.34416542905E+03  0.35639102795E+03  0.77000000000E+02 0.  0.
<mgrwt>
<rscale>  0 0.20845621E+03</rscale>
<asrwt>0</asrwt>
<pdfrwt beam="1">  1        2 0.18533431E+00 0.20845621E+03</pdfrwt>
<pdfrwt beam="2">  1       -2 0.11962385E-02 0.20845621E+03</pdfrwt>
<totfact> 0.32027938E+04</totfact>
</mgrwt>
</event>
<event>
 4    1  0.1300812E-003  0.2411362E+03  0.7818608E-02  0.1119038E+00
         -2   -1    0    0    0  501 -0.00000000000E+00  0.00000000000E+00  0.66407585803E+01  0.66407590699E+01  0.25500000000E-02 0. -1.
          2   -1    0    0  501    0  0.00000000000E+00 -0.00000000000E+00 -0.21890066592E+04  0.21890066592E+04  0.25500000000E-02 0.  1.
    5000001    1    1    2    0    0 -0.50666460935E+02  0.76860811425E+02 -0.98617774187E+03  0.99345367942E+03  0.77000000000E+02 0.  0.
   -5000001    1    1    2    0    0  0.50666460935E+02 -0.76860811425E+02 -0.11961881588E+04  0.12021937389E+04  0.77000000000E+02 0.  0.
<mgrwt>
<rscale>  0 0.24113619E+03</rscale>
<asrwt>0</asrwt>
<pdfrwt beam="1">  1        2 0.31271478E+00 0.24113619E+03</pdfrwt>
<pdfrwt beam="2">  1       -2 0.94868123E-03 0.24113619E+03</pdfrwt>
<totfact> 0.16376650E+04</totfact>
</mgrwt>
</event>
<event>
 4    1  0.1300812E-003  0.2907048E+03  0.7818608E-02  0.1089982E+00
          2   -1    0    0  501    0  0.00000000000E+00  0.00000000000E+00  0.26764949566E+04  0.26764949566E+04  0.25500000000E-02 0.  1.
         -2   -1    0    0    0  501 -0.00000000000E+00 -0.00000000000E+00 -0.78936541065E+01  0.78936545184E+01  0.25500000000E-02 0. -1.
    5000001    1    1    2    0    0  0.83602990062E+02 -0.75401983678E+02  0.87044081957E+03  0.88106250599E+03  0.77000000000E+02 0.  0.
   -5000001    1    1    2    0    0 -0.83602990062E+02  0.75401983678E+02  0.17981604830E+04  0.18033261052E+04  0.77000000000E+02 0.  0.
<mgrwt>
<rscale>  0 0.29070484E+03</rscale>
<asrwt>0</asrwt>
<pdfrwt beam="1">  1        2 0.38235654E+00 0.29070484E+03</pdfrwt>
<pdfrwt beam="2">  1       -2 0.11276645E-02 0.29070484E+03</pdfrwt>
<totfact> 0.73142120E+03</totfact>
</mgrwt>
</event>
<event>
 4    1  0.1300812E-003  0.2756485E+03  0.7818608E-02  0.1098090E+00
         -2   -1    0    0    0  501 -0.00000000000E+00  0.00000000000E+00  0.10181794037E+02  0.10181794357E+02  0.25500000000E-02 0. -1.
          2   -1    0    0  501    0  0.00000000000E+00 -0.00000000000E+00 -0.18656368576E+04  0.18656368576E+04  0.25500000000E-02 0.  1.
    5000001    1    1    2    0    0 -0.11171985780E+03 -0.13539847243E+02 -0.10641485904E+04  0.10728494193E+04  0.77000000000E+02 0.  0.
   -5000001    1    1    2    0    0  0.11171985780E+03  0.13539847243E+02 -0.79130647316E+03  0.80296923263E+03  0.77000000000E+02 0.  0.
<mgrwt>
<rscale>  0 0.27564855E+03</rscale>
<asrwt>0</asrwt>
<pdfrwt beam="1">  1        2 0.26651933E+00 0.27564855E+03</pdfrwt>
<pdfrwt beam="2">  1       -2 0.14545432E-02 0.27564855E+03</pdfrwt>
<totfact> 0.12680882E+04</totfact>
</mgrwt>
</event>
<event>
 4    1  0.1300812E-003  0.2101208E+03  0.7818608E-02  0.1141470E+00
         -2   -1    0    0    0  501 -0.00000000000E+00  0.00000000000E+00  0.93121051378E+01  0.93121054870E+01  0.25500000000E-02 0. -1.
          2   -1    0    0  501    0  0.00000000000E+00 -0.00000000000E+00 -0.11853052439E+04  0.11853052439E+04  0.25500000000E-02 0.  1.
    5000001    1    1    2    0    0  0.29195497399E+02  0.52197702397E+02 -0.36548732356E+03  0.37826837151E+03  0.77000000000E+02 0.  0.
   -5000001    1    1    2    0    0 -0.29195497399E+02 -0.52197702397E+02 -0.81050581522E+03  0.81634897789E+03  0.77000000000E+02 0.  0.
<mgrwt>
<rscale>  0 0.21012080E+03</rscale>
<asrwt>0</asrwt>
<pdfrwt beam="1">  1        2 0.16932922E+00 0.21012080E+03</pdfrwt>
<pdfrwt beam="2">  1       -2 0.13303015E-02 0.21012080E+03</pdfrwt>
<totfact> 0.31503887E+04</totfact>
</mgrwt>
</event>
<event>
 4    1  0.1300812E-003  0.5024606E+03  0.7818608E-02  0.1013139E+00
          2   -1    0    0  501    0  0.00000000000E+00  0.00000000000E+00  0.21711028424E+03  0.21711028425E+03  0.25500000000E-02 0.  1.
         -2   -1    0    0    0  501 -0.00000000000E+00 -0.00000000000E+00 -0.29071250977E+03  0.29071250978E+03  0.25500000000E-02 0. -1.
    5000001    1    1    2    0    0  0.19885040455E+03  0.92039694064E+01  0.97132839132E+02  0.23449943471E+03  0.77000000000E+02 0.  0.
   -5000001    1    1    2    0    0 -0.19885040455E+03 -0.92039694064E+01 -0.17073506466E+03  0.27332335932E+03  0.77000000000E+02 0.  0.
<mgrwt>
<rscale>  0 0.50246065E+03</rscale>
<asrwt>0</asrwt>
<pdfrwt beam="1">  1        2 0.31015755E-01 0.50246065E+03</pdfrwt>
<pdfrwt beam="2">  1       -2 0.41530358E-01 0.50246065E+03</pdfrwt>
<totfact> 0.94358515E+02</totfact>
</mgrwt>
</event>
<event>
 4    1  0.1300812E-003  0.2703310E+03  0.7818608E-02  0.1101090E+00
          2   -1    0    0  501    0  0.00000000000E+00  0.00000000000E+00  0.63793660685E+03  0.63793660686E+03  0.25500000000E-02 0.  1.
         -2   -1    0    0    0  501 -0.00000000000E+00 -0.00000000000E+00 -0.28638756155E+02  0.28638756268E+02  0.25500000000E-02 0. -1.
    5000001    1    1    2    0    0 -0.97783590870E+02 -0.20232578050E+02  0.42468235790E+03  0.44300687689E+03  0.77000000000E+02 0.  0.
   -5000001    1    1    2    0    0  0.97783590870E+02  0.20232578050E+02  0.18461549280E+03  0.22356848624E+03  0.77000000000E+02 0.  0.
<mgrwt>
<rscale>  0 0.27033099E+03</rscale>
<asrwt>0</asrwt>
<pdfrwt beam="1">  1        2 0.91133791E-01 0.27033099E+03</pdfrwt>
<pdfrwt beam="2">  1       -2 0.40912513E-02 0.27033099E+03</pdfrwt>
<totfact> 0.13523770E+04</totfact>
</mgrwt>
</event>
<event>
 4    1  0.1300812E-003  0.2743275E+03  0.7818608E-02  0.1098828E+00
         -2   -1    0    0    0  501 -0.00000000000E+00  0.00000000000E+00  0.88479929995E+02  0.88479930031E+02  0.25500000000E-02 0. -1.
          2   -1    0    0  501    0  0.00000000000E+00 -0.00000000000E+00 -0.21263462473E+03  0.21263462474E+03  0.25500000000E-02 0.  1.
    5000001    1    1    2    0    0 -0.60970625760E+02 -0.89393644705E+02 -0.99722864170E+02  0.16607916955E+03  0.77000000000E+02 0.  0.
   -5000001    1    1    2    0    0  0.60970625760E+02  0.89393644705E+02 -0.24431830565E+02  0.13503538523E+03  0.77000000000E+02 0.  0.
<mgrwt>
<rscale>  0 0.27432752E+03</rscale>
<asrwt>0</asrwt>
<pdfrwt beam="1">  1        2 0.30376375E-01 0.27432752E+03</pdfrwt>
<pdfrwt beam="2">  1       -2 0.12639990E-01 0.27432752E+03</pdfrwt>
<totfact> 0.77874415E+03</totfact>
</mgrwt>
</event>
<event>
 4    1  0.1300812E-003  0.3927238E+03  0.7818608E-02  0.1046329E+00
         -2   -1    0    0    0  501 -0.00000000000E+00  0.00000000000E+00  0.68289976022E+02  0.68289976070E+02  0.25500000000E-02 0. -1.
          2   -1    0    0  501    0  0.00000000000E+00 -0.00000000000E+00 -0.56462171748E+03  0.56462171749E+03  0.25500000000E-02 0.  1.
    5000001    1    1    2    0    0 -0.14469313769E+03  0.95387114901E+01 -0.74577492205E+02  0.18032718446E+03  0.77000000000E+02 0.  0.
   -5000001    1    1    2    0    0  0.14469313769E+03 -0.95387114901E+01 -0.42175424925E+03  0.45258450910E+03  0.77000000000E+02 0.  0.
<mgrwt>
<rscale>  0 0.39272384E+03</rscale>
<asrwt>0</asrwt>
<pdfrwt beam="1">  1        2 0.80660242E-01 0.39272384E+03</pdfrwt>
<pdfrwt beam="2">  1       -2 0.97557112E-02 0.39272384E+03</pdfrwt>
<totfact> 0.40993316E+03</totfact>
</mgrwt>
</event>
<event>
 4    1  0.1300812E-003  0.2706945E+03  0.7818608E-02  0.1100883E+00
          2   -1    0    0  501    0  0.00000000000E+00  0.00000000000E+00  0.13147524338E+04  0.13147524338E+04  0.25500000000E-02 0.  1.
         -2   -1    0    0    0  501 -0.00000000000E+00 -0.00000000000E+00 -0.13933328838E+02  0.13933329071E+02  0.25500000000E-02 0. -1.
    5000001    1    1    2    0    0 -0.10512959290E+03 -0.27995900939E+02  0.53489165573E+03  0.55124775296E+03  0.77000000000E+02 0.  0.
   -5000001    1    1    2    0    0  0.10512959290E+03  0.27995900939E+02  0.76592744918E+03  0.77743800986E+03  0.77000000000E+02 0.  0.
<mgrwt>
<rscale>  0 0.27069450E+03</rscale>
<asrwt>0</asrwt>
<pdfrwt beam="1">  1        2 0.18782164E+00 0.27069450E+03</pdfrwt>
<pdfrwt beam="2">  1       -2 0.19904770E-02 0.27069450E+03</pdfrwt>
<totfact> 0.15112087E+04</totfact>
</mgrwt>
</event>
<event>
 4    1  0.1300812E-003  0.2338969E+03  0.7818608E-02  0.1123927E+00
         -2   -1    0    0    0  501 -0.00000000000E+00  0.00000000000E+00  0.69993556957E+03  0.69993556957E+03  0.25500000000E-02 0. -1.
          2   -1    0    0  501    0  0.00000000000E+00 -0.00000000000E+00 -0.19540277365E+02  0.19540277531E+02  0.25500000000E-02 0.  1.
    5000001    1    1    2    0    0 -0.49089430871E+02 -0.72183333700E+02  0.30543305190E+03  0.32686167576E+03  0.77000000000E+02 0.  0.
   -5000001    1    1    2    0    0  0.49089430871E+02  0.72183333700E+02  0.37496224030E+03  0.39261417134E+03  0.77000000000E+02 0.  0.
<mgrwt>
<rscale>  0 0.23389686E+03</rscale>
<asrwt>0</asrwt>
<pdfrwt beam="1">  1        2 0.27914680E-02 0.23389686E+03</pdfrwt>
<pdfrwt beam="2">  1       -2 0.99990801E-01 0.23389686E+03</pdfrwt>
<totfact> 0.29374040E+03</totfact>
</mgrwt>
</event>
<event>
 4    1  0.1300812E-003  0.3692275E+03  0.7818608E-02  0.1054989E+00
         -2   -1    0    0    0  501 -0.00000000000E+00  0.00000000000E+00  0.39094738421E+02  0.39094738504E+02  0.25500000000E-02 0. -1.
          2   -1    0    0  501    0  0.00000000000E+00 -0.00000000000E+00 -0.87178556346E+03  0.87178556347E+03  0.25500000000E-02 0.  1.
    5000001    1    1    2    0    0 -0.13262881155E+03 -0.10183755896E+03 -0.38216727385E+03  0.42419584542E+03  0.77000000000E+02 0.  0.
   -5000001    1    1    2    0    0  0.13262881155E+03  0.10183755896E+03 -0.45052355119E+03  0.48668445655E+03  0.77000000000E+02 0.  0.
<mgrwt>
<rscale>  0 0.36922746E+03</rscale>
<asrwt>0</asrwt>
<pdfrwt beam="1">  1        2 0.12454078E+00 0.36922746E+03</pdfrwt>
<pdfrwt beam="2">  1       -2 0.55849632E-02 0.36922746E+03</pdfrwt>
<totfact> 0.58091879E+03</totfact>
</mgrwt>
</event>
<event>
 4    1  0.1300812E-003  0.2715361E+03  0.7818608E-02  0.1100404E+00
          2   -1    0    0  501    0  0.00000000000E+00  0.00000000000E+00  0.42843436658E+03  0.42843436659E+03  0.25500000000E-02 0.  1.
         -2   -1    0    0    0  501 -0.00000000000E+00 -0.00000000000E+00 -0.43024003759E+02  0.43024003835E+02  0.25500000000E-02 0. -1.
    5000001    1    1    2    0    0  0.86086852166E+02  0.70609880692E+02  0.17472328040E+03  0.22102924259E+03  0.77000000000E+02 0.  0.
   -5000001    1    1    2    0    0 -0.86086852166E+02 -0.70609880692E+02  0.21068708242E+03  0.25042912783E+03  0.77000000000E+02 0.  0.
<mgrwt>
<rscale>  0 0.27153609E+03</rscale>
<asrwt>0</asrwt>
<pdfrwt beam="1">  1        2 0.61204914E-01 0.27153609E+03</pdfrwt>
<pdfrwt beam="2">  1       -2 0.61462858E-02 0.27153609E+03</pdfrwt>
<totfact> 0.11362727E+04</totfact>
</mgrwt>
</event>
<event>
 4    1  0.1300812E-003  0.3895734E+03  0.7818608E-02  0.1047451E+00
         -2   -1    0    0    0  501 -0.00000000000E+00  0.00000000000E+00  0.53190928871E+03  0.53190928872E+03  0.25500000000E-02 0. -1.
          2   -1    0    0  501    0  0.00000000000E+00 -0.00000000000E+00 -0.71331445160E+02  0.71331445206E+02  0.25500000000E-02 0.  1.
    5000001    1    1    2    0    0 -0.11384165905E+03 -0.12697017640E+03  0.14644974620E+03  0.23760866397E+03  0.77000000000E+02 0.  0.
   -5000001    1    1    2    0    0  0.11384165905E+03  0.12697017640E+03  0.31412809735E+03  0.36563206995E+03  0.77000000000E+02 0.  0.
<mgrwt>
<rscale>  0 0.38957340E+03</rscale>
<asrwt>0</asrwt>
<pdfrwt beam="1">  1        2 0.10190206E-01 0.38957340E+03</pdfrwt>
<pdfrwt beam="2">  1       -2 0.75987045E-01 0.38957340E+03</pdfrwt>
<totfact> 0.10061243E+03</totfact>
</mgrwt>
</event>
<event>
 4    1  0.1300812E-003  0.3263964E+03  0.7818608E-02  0.1072743E+00
          2   -1    0    0  501    0  0.00000000000E+00  0.00000000000E+00  0.20519948891E+02  0.20519949049E+02  0.25500000000E-02 0.  1.
         -2   -1    0    0    0  501 -0.00000000000E+00 -0.00000000000E+00 -0.12979393900E+04  0.12979393900E+04  0.25500000000E-02 0. -1.
    5000001    1    1    2    0    0  0.10322571757E+03 -0.91169288044E+02 -0.47034384003E+03  0.49610454111E+03  0.77000000000E+02 0.  0.
   -5000001    1    1    2    0    0 -0.10322571757E+03  0.91169288044E+02 -0.80707560112E+03  0.82235479799E+03  0.77000000000E+02 0.  0.
<mgrwt>
<rscale>  0 0.32639639E+03</rscale>
<asrwt>0</asrwt>
<pdfrwt beam="1">  1        2 0.29314221E-02 0.32639639E+03</pdfrwt>
<pdfrwt beam="2">  1       -2 0.18541986E+00 0.32639639E+03</pdfrwt>
<totfact> 0.58132388E+02</totfact>
</mgrwt>
</event>
<event>
 4    1  0.1300812E-003  0.3419832E+03  0.7818608E-02  0.1065954E+00
         -2   -1    0    0    0  501 -0.00000000000E+00  0.00000000000E+00  0.16080069393E+02  0.16080069595E+02  0.25500000000E-02 0. -1.
          2   -1    0    0  501    0  0.00000000000E+00 -0.00000000000E+00 -0.18182831985E+04  0.18182831985E+04  0.25500000000E-02 0.  1.
    5000001    1    1    2    0    0  0.74208866496E+01 -0.13245161398E+03 -0.49575893587E+03  0.51894549049E+03  0.77000000000E+02 0.  0.
   -5000001    1    1    2    0    0 -0.74208866496E+01  0.13245161398E+03 -0.13064441933E+04  0.13154177776E+04  0.77000000000E+02 0.  0.
<mgrwt>
<rscale>  0 0.34198316E+03</rscale>
<asrwt>0</asrwt>
<pdfrwt beam="1">  1        2 0.25975461E+00 0.34198316E+03</pdfrwt>
<pdfrwt beam="2">  1       -2 0.22971540E-02 0.34198316E+03</pdfrwt>
<totfact> 0.68438650E+03</totfact>
</mgrwt>
</event>
<event>
 4    1  0.1300812E-003  0.3249455E+03  0.7818608E-02  0.1073395E+00
         -2   -1    0    0    0  501 -0.00000000000E+00  0.00000000000E+00  0.27771197440E+03  0.27771197441E+03  0.25500000000E-02 0. -1.
          2   -1    0    0  501    0  0.00000000000E+00 -0.00000000000E+00 -0.95053114918E+02  0.95053114952E+02  0.25500000000E-02 0.  1.
    5000001    1    1    2    0    0  0.14277754389E+03 -0.27642758813E+01  0.81373546125E+02  0.18150405579E+03  0.77000000000E+02 0.  0.
   -5000001    1    1    2    0    0 -0.14277754389E+03  0.27642758813E+01  0.10128531336E+03  0.19126103357E+03  0.77000000000E+02 0.  0.
<mgrwt>
<rscale>  0 0.32494546E+03</rscale>
<asrwt>0</asrwt>
<pdfrwt beam="1">  1        2 0.13579017E-01 0.32494546E+03</pdfrwt>
<pdfrwt beam="2">  1       -2 0.39673138E-01 0.32494546E+03</pdfrwt>
<totfact> 0.26667295E+03</totfact>
</mgrwt>
</event>
<event>
 4    1  0.1300812E-003  0.3064372E+03  0.7818608E-02  0.1082066E+00
          2   -1    0    0  501    0  0.00000000000E+00  0.00000000000E+00  0.16970090737E+03  0.16970090739E+03  0.25500000000E-02 0.  1.
         -2   -1    0    0    0  501 -0.00000000000E+00 -0.00000000000E+00 -0.13833710469E+03  0.13833710471E+03  0.25500000000E-02 0. -1.
    5000001    1    1    2    0    0  0.48580517465E+02 -0.12323389886E+03  0.15157938843E+02  0.15396565726E+03  0.77000000000E+02 0.  0.
   -5000001    1    1    2    0    0 -0.48580517465E+02  0.12323389886E+03  0.16205863842E+02  0.15407235485E+03  0.77000000000E+02 0.  0.
<mgrwt>
<rscale>  0 0.30643715E+03</rscale>
<asrwt>0</asrwt>
<pdfrwt beam="1">  1        2 0.24242987E-01 0.30643715E+03</pdfrwt>
<pdfrwt beam="2">  1       -2 0.19762444E-01 0.30643715E+03</pdfrwt>
<totfact> 0.47715469E+03</totfact>
</mgrwt>
</event>
<event>
 4    1  0.1300812E-003  0.2070521E+03  0.7818608E-02  0.1143922E+00
         -2   -1    0    0    0  501 -0.00000000000E+00  0.00000000000E+00  0.69491183323E+01  0.69491188002E+01  0.25500000000E-02 0. -1.
          2   -1    0    0  501    0  0.00000000000E+00 -0.00000000000E+00 -0.15423018894E+04  0.15423018894E+04  0.25500000000E-02 0.  1.
    5000001    1    1    2    0    0 -0.30993242621E+01  0.63676274779E+02 -0.96905852000E+03  0.97420105161E+03  0.77000000000E+02 0.  0.
   -5000001    1    1    2    0    0  0.30993242621E+01 -0.63676274779E+02 -0.56629425109E+03  0.57504995661E+03  0.77000000000E+02 0.  0.
<mgrwt>
<rscale>  0 0.20705206E+03</rscale>
<asrwt>0</asrwt>
<pdfrwt beam="1">  1        2 0.22032862E+00 0.20705206E+03</pdfrwt>
<pdfrwt beam="2">  1       -2 0.99273221E-03 0.20705206E+03</pdfrwt>
<totfact> 0.31475800E+04</totfact>
</mgrwt>
</event>
<event>
 4    1  0.1300812E-003  0.1952647E+03  0.7818608E-02  0.1153797E+00
          2   -1    0    0  501    0  0.00000000000E+00  0.00000000000E+00  0.73550633996E+03  0.73550633997E+03  0.25500000000E-02 0.  1.
         -2   -1    0    0    0  501 -0.00000000000E+00 -0.00000000000E+00 -0.12959884862E+02  0.12959885113E+02  0.25500000000E-02 0. -1.
    5000001    1    1    2    0    0 -0.49884314306E+02  0.33044959004E+02  0.37952106552E+03  0.39184901851E+03  0.77000000000E+02 0.  0.
   -5000001    1    1    2    0    0  0.49884314306E+02 -0.33044959004E+02  0.34302538958E+03  0.35661720657E+03  0.77000000000E+02 0.  0.
<mgrwt>
<rscale>  0 0.19526472E+03</rscale>
<asrwt>0</asrwt>
<pdfrwt beam="1">  1        2 0.10507237E+00 0.19526472E+03</pdfrwt>
<pdfrwt beam="2">  1       -2 0.18514115E-02 0.19526472E+03</pdfrwt>
<totfact> 0.36270316E+04</totfact>
</mgrwt>
</event>
<event>
 4    1  0.1300812E-003  0.2351477E+03  0.7818608E-02  0.1123068E+00
          2   -1    0    0  501    0  0.00000000000E+00  0.00000000000E+00  0.48750746858E+01  0.48750753528E+01  0.25500000000E-02 0.  1.
         -2   -1    0    0    0  501 -0.00000000000E+00 -0.00000000000E+00 -0.28355695431E+04  0.28355695431E+04  0.25500000000E-02 0. -1.
    5000001    1    1    2    0    0 -0.25074596987E+02 -0.67797144938E+02 -0.20394476445E+04  0.20421804237E+04  0.77000000000E+02 0.  0.
   -5000001    1    1    2    0    0  0.25074596987E+02  0.67797144938E+02 -0.79124682389E+03  0.79826419473E+03  0.77000000000E+02 0.  0.
<mgrwt>
<rscale>  0 0.23514773E+03</rscale>
<asrwt>0</asrwt>
<pdfrwt beam="1">  1        2 0.69644111E-03 0.23514773E+03</pdfrwt>
<pdfrwt beam="2">  1       -2 0.40508031E+00 0.23514773E+03</pdfrwt>
<totfact> 0.20167318E+02</totfact>
</mgrwt>
</event>
<event>
 4    1  0.1300812E-003  0.1633626E+03  0.7818608E-02  0.1184952E+00
         -2   -1    0    0    0  501 -0.00000000000E+00  0.00000000000E+00  0.13715765667E+02  0.13715765904E+02  0.25500000000E-02 0. -1.
          2   -1    0    0  501    0  0.00000000000E+00 -0.00000000000E+00 -0.48643550034E+03  0.48643550035E+03  0.25500000000E-02 0.  1.
    5000001    1    1    2    0    0 -0.20865569836E+01 -0.23721240427E+02 -0.27695172398E+03  0.28844116971E+03  0.77000000000E+02 0.  0.
   -5000001    1    1    2    0    0  0.20865569836E+01  0.23721240427E+02 -0.19576801069E+03  0.21171009654E+03  0.77000000000E+02 0.  0.
<mgrwt>
<rscale>  0 0.16336261E+03</rscale>
<asrwt>0</asrwt>
<pdfrwt beam="1">  1        2 0.69490775E-01 0.16336261E+03</pdfrwt>
<pdfrwt beam="2">  1       -2 0.19593954E-02 0.16336261E+03</pdfrwt>
<totfact> 0.52468135E+04</totfact>
</mgrwt>
</event>
<event>
 4    1  0.1300812E-003  0.2112379E+03  0.7818608E-02  0.1140589E+00
          2   -1    0    0  501    0  0.00000000000E+00  0.00000000000E+00  0.12359948656E+03  0.12359948659E+03  0.25500000000E-02 0.  1.
         -2   -1    0    0    0  501 -0.00000000000E+00 -0.00000000000E+00 -0.90254138692E+02  0.90254138728E+02  0.25500000000E-02 0. -1.
    5000001    1    1    2    0    0  0.70181274316E+02 -0.13191003273E+02  0.28079463581E+02  0.10870542814E+03  0.77000000000E+02 0.  0.
   -5000001    1    1    2    0    0 -0.70181274316E+02  0.13191003273E+02  0.52658842881E+01  0.10514819718E+03  0.77000000000E+02 0.  0.
<mgrwt>
<rscale>  0 0.21123792E+03</rscale>
<asrwt>0</asrwt>
<pdfrwt beam="1">  1        2 0.17657070E-01 0.21123792E+03</pdfrwt>
<pdfrwt beam="2">  1       -2 0.12893448E-01 0.21123792E+03</pdfrwt>
<totfact> 0.13687294E+04</totfact>
</mgrwt>
</event>
<event>
 4    1  0.1300812E-003  0.1783055E+03  0.7818608E-02  0.1169453E+00
         -2   -1    0    0    0  501 -0.00000000000E+00  0.00000000000E+00  0.43949800524E+02  0.43949800598E+02  0.25500000000E-02 0. -1.
          2   -1    0    0  501    0  0.00000000000E+00 -0.00000000000E+00 -0.18084751901E+03  0.18084751903E+03  0.25500000000E-02 0.  1.
    5000001    1    1    2    0    0 -0.27009906488E+02 -0.35794177818E+02 -0.64783114690E+02  0.11016628415E+03  0.77000000000E+02 0.  0.
   -5000001    1    1    2    0    0  0.27009906488E+02  0.35794177818E+02 -0.72114603796E+02  0.11463103548E+03  0.77000000000E+02 0.  0.
<mgrwt>
<rscale>  0 0.17830550E+03</rscale>
<asrwt>0</asrwt>
<pdfrwt beam="1">  1        2 0.25835359E-01 0.17830550E+03</pdfrwt>
<pdfrwt beam="2">  1       -2 0.62785430E-02 0.17830550E+03</pdfrwt>
<totfact> 0.27176072E+04</totfact>
</mgrwt>
</event>
<event>
 4    1  0.1300812E-003  0.2156694E+03  0.7818608E-02  0.1137153E+00
         -2   -1    0    0    0  501 -0.00000000000E+00  0.00000000000E+00  0.18801227987E+03  0.18801227988E+03  0.25500000000E-02 0. -1.
          2   -1    0    0  501    0  0.00000000000E+00 -0.00000000000E+00 -0.61848756404E+02  0.61848756457E+02  0.25500000000E-02 0.  1.
    5000001    1    1    2    0    0  0.22925976266E+02  0.51844473054E+02  0.53187708455E+01  0.95763975989E+02  0.77000000000E+02 0.  0.
   -5000001    1    1    2    0    0 -0.22925976266E+02 -0.51844473054E+02  0.12084475262E+03  0.15409706035E+03  0.77000000000E+02 0.  0.
<mgrwt>
<rscale>  0 0.21566943E+03</rscale>
<asrwt>0</asrwt>
<pdfrwt beam="1">  1        2 0.88355367E-02 0.21566943E+03</pdfrwt>
<pdfrwt beam="2">  1       -2 0.26858897E-01 0.21566943E+03</pdfrwt>
<totfact> 0.91289153E+03</totfact>
</mgrwt>
</event>
<event>
 4    1  0.1300812E-003  0.3347111E+03  0.7818608E-02  0.1069071E+00
          2   -1    0    0  501    0  0.00000000000E+00  0.00000000000E+00  0.11504682478E+02  0.11504682760E+02  0.25500000000E-02 0.  1.
         -2   -1    0    0    0  501 -0.00000000000E+00 -0.00000000000E+00 -0.24344768407E+04  0.24344768407E+04  0.25500000000E-02 0. -1.
    5000001    1    1    2    0    0 -0.30612143876E+02  0.13380290207E+03 -0.16273576532E+04  0.16349502291E+04  0.77000000000E+02 0.  0.
   -5000001    1    1    2    0    0  0.30612143876E+02 -0.13380290207E+03 -0.79561450499E+03  0.81103129441E+03  0.77000000000E+02 0.  0.
<mgrwt>
<rscale>  0 0.33471112E+03</rscale>
<asrwt>0</asrwt>
<pdfrwt beam="1">  1        2 0.16435276E-02 0.33471112E+03</pdfrwt>
<pdfrwt beam="2">  1       -2 0.34778208E+00 0.33471112E+03</pdfrwt>
<totfact> 0.13635452E+02</totfact>
</mgrwt>
</event>
<event>
 4    1  0.1300812E-003  0.2532830E+03  0.7818608E-02  0.1111247E+00
          2   -1    0    0  501    0  0.00000000000E+00  0.00000000000E+00  0.10898281516E+04  0.10898281516E+04  0.25500000000E-02 0.  1.
         -2   -1    0    0    0  501 -0.00000000000E+00 -0.00000000000E+00 -0.14716146468E+02  0.14716146689E+02  0.25500000000E-02 0. -1.
    5000001    1    1    2    0    0  0.16247139092E+02 -0.93353512480E+02  0.68416450269E+03  0.69497403877E+03  0.77000000000E+02 0.  0.
   -5000001    1    1    2    0    0 -0.16247139092E+02  0.93353512480E+02  0.39094750244E+03  0.40957025952E+03  0.77000000000E+02 0.  0.
<mgrwt>
<rscale>  0 0.25328301E+03</rscale>
<asrwt>0</asrwt>
<pdfrwt beam="1">  1        2 0.15568974E+00 0.25328301E+03</pdfrwt>
<pdfrwt beam="2">  1       -2 0.21023066E-02 0.25328301E+03</pdfrwt>
<totfact> 0.18418704E+04</totfact>
</mgrwt>
</event>
<event>
 4    1  0.1300812E-003  0.3465109E+03  0.7818608E-02  0.1064056E+00
         -2   -1    0    0    0  501 -0.00000000000E+00  0.00000000000E+00  0.41150178806E+02  0.41150178885E+02  0.25500000000E-02 0. -1.
          2   -1    0    0  501    0  0.00000000000E+00 -0.00000000000E+00 -0.72946106013E+03  0.72946106013E+03  0.25500000000E-02 0.  1.
    5000001    1    1    2    0    0  0.20078359458E+02 -0.14476700701E+03 -0.22800341852E+03  0.28155849427E+03  0.77000000000E+02 0.  0.
   -5000001    1    1    2    0    0 -0.20078359458E+02  0.14476700701E+03 -0.46030746280E+03  0.48905274475E+03  0.77000000000E+02 0.  0.
<mgrwt>
<rscale>  0 0.34651091E+03</rscale>
<asrwt>0</asrwt>
<pdfrwt beam="1">  1        2 0.10420871E+00 0.34651091E+03</pdfrwt>
<pdfrwt beam="2">  1       -2 0.58785974E-02 0.34651091E+03</pdfrwt>
<totfact> 0.67004904E+03</totfact>
</mgrwt>
</event>
<event>
 4    1  0.1300812E-003  0.3229086E+03  0.7818608E-02  0.1074318E+00
         -2   -1    0    0    0  501 -0.00000000000E+00  0.00000000000E+00  0.29841958788E+02  0.29841958897E+02  0.25500000000E-02 0. -1.
          2   -1    0    0  501    0  0.00000000000E+00 -0.00000000000E+00 -0.87351819756E+03  0.87351819756E+03  0.25500000000E-02 0.  1.
    5000001    1    1    2    0    0 -0.13750184787E+03 -0.22819788826E+01 -0.32386202632E+03  0.36017714765E+03  0.77000000000E+02 0.  0.
   -5000001    1    1    2    0    0  0.13750184787E+03  0.22819788826E+01 -0.51981421245E+03  0.54318300882E+03  0.77000000000E+02 0.  0.
<mgrwt>
<rscale>  0 0.32290862E+03</rscale>
<asrwt>0</asrwt>
<pdfrwt beam="1">  1        2 0.12478830E+00 0.32290862E+03</pdfrwt>
<pdfrwt beam="2">  1       -2 0.42631375E-02 0.32290862E+03</pdfrwt>
<totfact> 0.87257144E+03</totfact>
</mgrwt>
</event>
<event>
 4    1  0.1300812E-003  0.2129896E+03  0.7818608E-02  0.1139220E+00
         -2   -1    0    0    0  501 -0.00000000000E+00  0.00000000000E+00  0.18920673001E+02  0.18920673173E+02  0.25500000000E-02 0. -1.
          2   -1    0    0  501    0  0.00000000000E+00 -0.00000000000E+00 -0.59940492418E+03  0.59940492418E+03  0.25500000000E-02 0.  1.
    5000001    1    1    2    0    0  0.60591059988E+02  0.29419686947E+02 -0.20435072668E+03  0.22852792832E+03  0.77000000000E+02 0.  0.
   -5000001    1    1    2    0    0 -0.60591059988E+02 -0.29419686947E+02 -0.37613352450E+03  0.38979766903E+03  0.77000000000E+02 0.  0.
<mgrwt>
<rscale>  0 0.21298962E+03</rscale>
<asrwt>0</asrwt>
<pdfrwt beam="1">  1        2 0.85629264E-01 0.21298962E+03</pdfrwt>
<pdfrwt beam="2">  1       -2 0.27029537E-02 0.21298962E+03</pdfrwt>
<totfact> 0.26572122E+04</totfact>
</mgrwt>
</event>
<event>
 4    1  0.1300812E-003  0.3203339E+03  0.7818608E-02  0.1075496E+00
         -2   -1    0    0    0  501 -0.00000000000E+00  0.00000000000E+00  0.19111925572E+03  0.19111925574E+03  0.25500000000E-02 0. -1.
          2   -1    0    0  501    0  0.00000000000E+00 -0.00000000000E+00 -0.13422745485E+03  0.13422745487E+03  0.25500000000E-02 0.  1.
    5000001    1    1    2    0    0  0.18975004232E+02 -0.97785391643E+02 -0.72110594232E+02  0.14508952893E+03  0.77000000000E+02 0.  0.
   -5000001    1    1    2    0    0 -0.18975004232E+02  0.97785391643E+02  0.12900239511E+03  0.18025718168E+03  0.77000000000E+02 0.  0.
<mgrwt>
<rscale>  0 0.32033390E+03</rscale>
<asrwt>0</asrwt>
<pdfrwt beam="1">  1        2 0.19175351E-01 0.32033390E+03</pdfrwt>
<pdfrwt beam="2">  1       -2 0.27302751E-01 0.32033390E+03</pdfrwt>
<totfact> 0.35434857E+03</totfact>
</mgrwt>
</event>
<event>
 4    1  0.1300812E-003  0.3428769E+03  0.7818608E-02  0.1065577E+00
         -2   -1    0    0    0  501 -0.00000000000E+00  0.00000000000E+00  0.36100234637E+02  0.36100234727E+02  0.25500000000E-02 0. -1.
          2   -1    0    0  501    0  0.00000000000E+00 -0.00000000000E+00 -0.81415367604E+03  0.81415367604E+03  0.25500000000E-02 0.  1.
    5000001    1    1    2    0    0  0.13047675904E+03  0.72798516466E+02 -0.47269186235E+03  0.50168755754E+03  0.77000000000E+02 0.  0.
   -5000001    1    1    2    0    0 -0.13047675904E+03 -0.72798516466E+02 -0.30536157905E+03  0.34856635323E+03  0.77000000000E+02 0.  0.
<mgrwt>
<rscale>  0 0.34287688E+03</rscale>
<asrwt>0</asrwt>
<pdfrwt beam="1">  1        2 0.11630766E+00 0.34287688E+03</pdfrwt>
<pdfrwt beam="2">  1       -2 0.51571769E-02 0.34287688E+03</pdfrwt>
<totfact> 0.71528182E+03</totfact>
</mgrwt>
</event>
<event>
 4    1  0.1300812E-003  0.1943788E+03  0.7818608E-02  0.1154570E+00
          2   -1    0    0  501    0  0.00000000000E+00  0.00000000000E+00  0.90279824259E+03  0.90279824259E+03  0.25500000000E-02 0.  1.
         -2   -1    0    0    0  501 -0.00000000000E+00 -0.00000000000E+00 -0.10462785293E+02  0.10462785603E+02  0.25500000000E-02 0. -1.
    5000001    1    1    2    0    0  0.15531848093E+02  0.50215849808E+02  0.31716260826E+03  0.33058129099E+03  0.77000000000E+02 0.  0.
   -5000001    1    1    2    0    0 -0.15531848093E+02 -0.50215849808E+02  0.57517284903E+03  0.58267973720E+03  0.77000000000E+02 0.  0.
<mgrwt>
<rscale>  0 0.19437885E+03</rscale>
<asrwt>0</asrwt>
<pdfrwt beam="1">  1        2 0.12897120E+00 0.19437885E+03</pdfrwt>
<pdfrwt beam="2">  1       -2 0.14946834E-02 0.19437885E+03</pdfrwt>
<totfact> 0.38436028E+04</totfact>
</mgrwt>
</event>
<event>
 4    1  0.1300812E-003  0.4589157E+03  0.7818608E-02  0.1025096E+00
          2   -1    0    0  501    0  0.00000000000E+00  0.00000000000E+00  0.30250527492E+04  0.30250527492E+04  0.25500000000E-02 0. -1.
         -2   -1    0    0    0  501 -0.00000000000E+00 -0.00000000000E+00 -0.17404950918E+02  0.17404951105E+02  0.25500000000E-02 0.  1.
    5000001    1    1    2    0    0 -0.42634832024E+02  0.19521131645E+03  0.20503878433E+04  0.20615393508E+04  0.77000000000E+02 0.  0.
   -5000001    1    1    2    0    0  0.42634832024E+02 -0.19521131645E+03  0.95725995494E+03  0.98091834946E+03  0.77000000000E+02 0.  0.
<mgrwt>
<rscale>  0 0.45891566E+03</rscale>
<asrwt>0</asrwt>
<pdfrwt beam="1">  1        2 0.43215036E+00 0.45891566E+03</pdfrwt>
<pdfrwt beam="2">  1       -2 0.24864217E-02 0.45891566E+03</pdfrwt>
<totfact> 0.14762946E+03</totfact>
</mgrwt>
</event>
<event>
 4    1  0.1300812E-003  0.2821470E+03  0.7818608E-02  0.1094522E+00
         -2   -1    0    0    0  501 -0.00000000000E+00  0.00000000000E+00  0.84887547462E+02  0.84887547501E+02  0.25500000000E-02 0. -1.
          2   -1    0    0  501    0  0.00000000000E+00 -0.00000000000E+00 -0.23444812463E+03  0.23444812465E+03  0.25500000000E-02 0.  1.
    5000001    1    1    2    0    0 -0.47752516702E+02  0.47751314080E+02  0.35023786074E+02  0.10824119566E+03  0.77000000000E+02 0.  0.
   -5000001    1    1    2    0    0  0.47752516702E+02 -0.47751314080E+02 -0.18458436325E+03  0.21109447649E+03  0.77000000000E+02 0.  0.
<mgrwt>
<rscale>  0 0.28214696E+03</rscale>
<asrwt>0</asrwt>
<pdfrwt beam="1">  1        2 0.33492589E-01 0.28214696E+03</pdfrwt>
<pdfrwt beam="2">  1       -2 0.12126793E-01 0.28214696E+03</pdfrwt>
<totfact> 0.74937862E+03</totfact>
</mgrwt>
</event>
<event>
 4    1  0.1300812E-003  0.2553720E+03  0.7818608E-02  0.1109956E+00
         -2   -1    0    0    0  501 -0.00000000000E+00  0.00000000000E+00  0.27025233838E+02  0.27025233958E+02  0.25500000000E-02 0. -1.
          2   -1    0    0  501    0  0.00000000000E+00 -0.00000000000E+00 -0.60327728628E+03  0.60327728628E+03  0.25500000000E-02 0.  1.
    5000001    1    1    2    0    0  0.67724063880E+02  0.71933911179E+02 -0.34926870570E+03  0.37105075823E+03  0.77000000000E+02 0.  0.
   -5000001    1    1    2    0    0 -0.67724063880E+02 -0.71933911179E+02 -0.22698334674E+03  0.25925176201E+03  0.77000000000E+02 0.  0.
<mgrwt>
<rscale>  0 0.25537196E+03</rscale>
<asrwt>0</asrwt>
<pdfrwt beam="1">  1        2 0.86182461E-01 0.25537196E+03</pdfrwt>
<pdfrwt beam="2">  1       -2 0.38607481E-02 0.25537196E+03</pdfrwt>
<totfact> 0.15690640E+04</totfact>
</mgrwt>
</event>
<event>
 4    1  0.1300812E-003  0.2710826E+03  0.7818608E-02  0.1100662E+00
          2   -1    0    0  501    0  0.00000000000E+00  0.00000000000E+00  0.55102217494E+03  0.55102217495E+03  0.25500000000E-02 0.  1.
         -2   -1    0    0    0  501 -0.00000000000E+00 -0.00000000000E+00 -0.33340664431E+02  0.33340664529E+02  0.25500000000E-02 0. -1.
    5000001    1    1    2    0    0  0.15743042212E+02  0.39558243092E+02  0.36590430110E+02  0.95291959526E+02  0.77000000000E+02 0.  0.
   -5000001    1    1    2    0    0 -0.15743042212E+02 -0.39558243092E+02  0.48109108040E+03  0.48907087995E+03  0.77000000000E+02 0.  0.
<mgrwt>
<rscale>  0 0.27108261E+03</rscale>
<asrwt>0</asrwt>
<pdfrwt beam="1">  1        2 0.78717443E-01 0.27108261E+03</pdfrwt>
<pdfrwt beam="2">  1       -2 0.47629527E-02 0.27108261E+03</pdfrwt>
<totfact> 0.12702676E+04</totfact>
</mgrwt>
</event>
<event>
 4    1  0.1300812E-003  0.3362916E+03  0.7818608E-02  0.1068386E+00
         -2   -1    0    0    0  501 -0.00000000000E+00  0.00000000000E+00  0.16426827127E+03  0.16426827129E+03  0.25500000000E-02 0. -1.
          2   -1    0    0  501    0  0.00000000000E+00 -0.00000000000E+00 -0.17211487985E+03  0.17211487987E+03  0.25500000000E-02 0.  1.
    5000001    1    1    2    0    0  0.15759236247E+02 -0.14264616052E+03  0.37893972480E+02  0.16721612898E+03  0.77000000000E+02 0.  0.
   -5000001    1    1    2    0    0 -0.15759236247E+02  0.14264616052E+03 -0.45740581058E+02  0.16916702218E+03  0.77000000000E+02 0.  0.
<mgrwt>
<rscale>  0 0.33629162E+03</rscale>
<asrwt>0</asrwt>
<pdfrwt beam="1">  1        2 0.24587840E-01 0.33629162E+03</pdfrwt>
<pdfrwt beam="2">  1       -2 0.23466896E-01 0.33629162E+03</pdfrwt>
<totfact> 0.34956526E+03</totfact>
</mgrwt>
</event>
<event>
 4    1  0.1300812E-003  0.2780302E+03  0.7818608E-02  0.1096770E+00
          2   -1    0    0  501    0  0.00000000000E+00  0.00000000000E+00  0.86228591685E+03  0.86228591685E+03  0.25500000000E-02 0.  1.
         -2   -1    0    0    0  501 -0.00000000000E+00 -0.00000000000E+00 -0.22411585077E+02  0.22411585222E+02  0.25500000000E-02 0. -1.
    5000001    1    1    2    0    0 -0.10575494167E+03 -0.44429802456E+02  0.46903514486E+03  0.48895918249E+03  0.77000000000E+02 0.  0.
   -5000001    1    1    2    0    0  0.10575494167E+03  0.44429802456E+02  0.37083918691E+03  0.39573831958E+03  0.77000000000E+02 0.  0.
<mgrwt>
<rscale>  0 0.27803017E+03</rscale>
<asrwt>0</asrwt>
<pdfrwt beam="1">  1        2 0.12318371E+00 0.27803017E+03</pdfrwt>
<pdfrwt beam="2">  1       -2 0.32016547E-02 0.27803017E+03</pdfrwt>
<totfact> 0.13576081E+04</totfact>
</mgrwt>
</event>
<event>
 4    1  0.1300812E-003  0.2164133E+03  0.7818608E-02  0.1136586E+00
         -2   -1    0    0    0  501 -0.00000000000E+00  0.00000000000E+00  0.56419774391E+02  0.56419774449E+02  0.25500000000E-02 0. -1.
          2   -1    0    0  501    0  0.00000000000E+00 -0.00000000000E+00 -0.20752784213E+03  0.20752784215E+03  0.25500000000E-02 0.  1.
    5000001    1    1    2    0    0 -0.27151558491E+02  0.57777409392E+02 -0.12590397858E+03  0.16079878105E+03  0.77000000000E+02 0.  0.
   -5000001    1    1    2    0    0  0.27151558491E+02 -0.57777409392E+02 -0.25204089161E+02  0.10314883555E+03  0.77000000000E+02 0.  0.
<mgrwt>
<rscale>  0 0.21641325E+03</rscale>
<asrwt>0</asrwt>
<pdfrwt beam="1">  1        2 0.29646834E-01 0.21641325E+03</pdfrwt>
<pdfrwt beam="2">  1       -2 0.80599679E-02 0.21641325E+03</pdfrwt>
<totfact> 0.16135834E+04</totfact>
</mgrwt>
</event>
<event>
 4    1  0.1300812E-003  0.4572002E+03  0.7818608E-02  0.1025596E+00
         -2   -1    0    0    0  501 -0.00000000000E+00  0.00000000000E+00  0.29516713286E+02  0.29516713396E+02  0.25500000000E-02 0.  1.
          2   -1    0    0  501    0  0.00000000000E+00 -0.00000000000E+00 -0.17704549940E+04  0.17704549940E+04  0.25500000000E-02 0. -1.
    5000001    1    1    2    0    0 -0.43349369117E+02 -0.20272764037E+03 -0.10983821095E+04  0.11204239923E+04  0.77000000000E+02 0.  0.
   -5000001    1    1    2    0    0  0.43349369117E+02  0.20272764037E+03 -0.64255617118E+03  0.67954771510E+03  0.77000000000E+02 0.  0.
<mgrwt>
<rscale>  0 0.45720023E+03</rscale>
<asrwt>0</asrwt>
<pdfrwt beam="1">  1        2 0.25292207E+00 0.45720023E+03</pdfrwt>
<pdfrwt beam="2">  1       -2 0.42166745E-02 0.45720023E+03</pdfrwt>
<totfact> 0.28937615E+03</totfact>
</mgrwt>
</event>
<event>
 4    1  0.1300812E-003  0.3233385E+03  0.7818608E-02  0.1074123E+00
         -2   -1    0    0    0  501 -0.00000000000E+00  0.00000000000E+00  0.59401820260E+02  0.59401820315E+02  0.25500000000E-02 0. -1.
          2   -1    0    0  501    0  0.00000000000E+00 -0.00000000000E+00 -0.44000236501E+03  0.44000236502E+03  0.25500000000E-02 0.  1.
    5000001    1    1    2    0    0 -0.13742541997E+03  0.36346288383E+02 -0.18864923253E+03  0.24844381994E+03  0.77000000000E+02 0.  0.
   -5000001    1    1    2    0    0  0.13742541997E+03 -0.36346288383E+02 -0.19195131222E+03  0.25096036539E+03  0.77000000000E+02 0.  0.
<mgrwt>
<rscale>  0 0.32333847E+03</rscale>
<asrwt>0</asrwt>
<pdfrwt beam="1">  1        2 0.62857479E-01 0.32333847E+03</pdfrwt>
<pdfrwt beam="2">  1       -2 0.84859745E-02 0.32333847E+03</pdfrwt>
<totfact> 0.67273411E+03</totfact>
</mgrwt>
</event>
<event>
 4    1  0.1300812E-003  0.2883054E+03  0.7818608E-02  0.1091237E+00
         -2   -1    0    0    0  501 -0.00000000000E+00  0.00000000000E+00  0.76099216396E+01  0.76099220668E+01  0.25500000000E-02 0. -1.
          2   -1    0    0  501    0  0.00000000000E+00 -0.00000000000E+00 -0.27306451146E+04  0.27306451146E+04  0.25500000000E-02 0.  1.
    5000001    1    1    2    0    0  0.81114912201E+02  0.90549831063E+02 -0.14421619353E+04  0.14493236176E+04  0.77000000000E+02 0.  0.
   -5000001    1    1    2    0    0 -0.81114912201E+02 -0.90549831063E+02 -0.12808732577E+04  0.12889314191E+04  0.77000000000E+02 0.  0.
<mgrwt>
<rscale>  0 0.28830537E+03</rscale>
<asrwt>0</asrwt>
<pdfrwt beam="1">  1        2 0.39009153E+00 0.28830537E+03</pdfrwt>
<pdfrwt beam="2">  1       -2 0.10871334E-02 0.28830537E+03</pdfrwt>
<totfact> 0.72391952E+03</totfact>
</mgrwt>
</event>
<event>
 4    1  0.1300812E-003  0.2124081E+03  0.7818608E-02  0.1139673E+00
         -2   -1    0    0    0  501 -0.00000000000E+00  0.00000000000E+00  0.68916005662E+01  0.68916010380E+01  0.25500000000E-02 0. -1.
          2   -1    0    0  501    0  0.00000000000E+00 -0.00000000000E+00 -0.16366727703E+04  0.16366727703E+04  0.25500000000E-02 0.  1.
    5000001    1    1    2    0    0 -0.59486852320E+02  0.40242693412E+02 -0.92214605265E+03  0.92813819143E+03  0.77000000000E+02 0.  0.
   -5000001    1    1    2    0    0  0.59486852320E+02 -0.40242693412E+02 -0.70763511713E+03  0.71542617996E+03  0.77000000000E+02 0.  0.
<mgrwt>
<rscale>  0 0.21240805E+03</rscale>
<asrwt>0</asrwt>
<pdfrwt beam="1">  1        2 0.23381015E+00 0.21240805E+03</pdfrwt>
<pdfrwt beam="2">  1       -2 0.98451545E-03 0.21240805E+03</pdfrwt>
<totfact> 0.28654427E+04</totfact>
</mgrwt>
</event>
<event>
 4    1  0.1300812E-003  0.2349279E+03  0.7818608E-02  0.1123219E+00
         -2   -1    0    0    0  501 -0.00000000000E+00  0.00000000000E+00  0.33076251384E+02  0.33076251482E+02  0.25500000000E-02 0. -1.
          2   -1    0    0  501    0  0.00000000000E+00 -0.00000000000E+00 -0.41715057148E+03  0.41715057148E+03  0.25500000000E-02 0.  1.
    5000001    1    1    2    0    0 -0.57322467852E+02  0.51655670300E+02 -0.27589356524E+03  0.29664866920E+03  0.77000000000E+02 0.  0.
   -5000001    1    1    2    0    0  0.57322467852E+02 -0.51655670300E+02 -0.10818075485E+03  0.15357815377E+03  0.77000000000E+02 0.  0.
<mgrwt>
<rscale>  0 0.23492788E+03</rscale>
<asrwt>0</asrwt>
<pdfrwt beam="1">  1        2 0.59592936E-01 0.23492788E+03</pdfrwt>
<pdfrwt beam="2">  1       -2 0.47251790E-02 0.23492788E+03</pdfrwt>
<totfact> 0.17327304E+04</totfact>
</mgrwt>
</event>
<event>
 4    1  0.1300812E-003  0.1625652E+03  0.7818608E-02  0.1185831E+00
         -2   -1    0    0    0  501 -0.00000000000E+00  0.00000000000E+00  0.16708911148E+03  0.16708911150E+03  0.25500000000E-02 0. -1.
          2   -1    0    0  501    0  0.00000000000E+00 -0.00000000000E+00 -0.39540957942E+02  0.39540958025E+02  0.25500000000E-02 0.  1.
    5000001    1    1    2    0    0  0.16211098827E+02  0.12030440182E+02  0.84672563842E+02  0.11621520677E+03  0.77000000000E+02 0.  0.
   -5000001    1    1    2    0    0 -0.16211098827E+02 -0.12030440182E+02  0.42875589699E+02  0.90414862762E+02  0.77000000000E+02 0.  0.
<mgrwt>
<rscale>  0 0.16256523E+03</rscale>
<asrwt>0</asrwt>
<pdfrwt beam="1">  1        2 0.56487084E-02 0.16256523E+03</pdfrwt>
<pdfrwt beam="2">  1       -2 0.23869873E-01 0.16256523E+03</pdfrwt>
<totfact> 0.19456780E+04</totfact>
</mgrwt>
</event>
<event>
 4    1  0.1300812E-003  0.2372138E+03  0.7818608E-02  0.1121663E+00
          2   -1    0    0  501    0  0.00000000000E+00  0.00000000000E+00  0.44503450909E+02  0.44503450982E+02  0.25500000000E-02 0.  1.
         -2   -1    0    0    0  501 -0.00000000000E+00 -0.00000000000E+00 -0.31610118770E+03  0.31610118771E+03  0.25500000000E-02 0. -1.
    5000001    1    1    2    0    0 -0.63146986292E+02 -0.13816730304E+02 -0.23146257665E+03  0.25235365720E+03  0.77000000000E+02 0.  0.
   -5000001    1    1    2    0    0  0.63146986292E+02  0.13816730304E+02 -0.40135160140E+02  0.10825098149E+03  0.77000000000E+02 0.  0.
<mgrwt>
<rscale>  0 0.23721377E+03</rscale>
<asrwt>0</asrwt>
<pdfrwt beam="1">  1        2 0.63576360E-02 0.23721377E+03</pdfrwt>
<pdfrwt beam="2">  1       -2 0.45157311E-01 0.23721377E+03</pdfrwt>
<totfact> 0.53116863E+03</totfact>
</mgrwt>
</event>
<event>
 4    1  0.1300812E-003  0.2483687E+03  0.7818608E-02  0.1114340E+00
         -2   -1    0    0    0  501 -0.00000000000E+00  0.00000000000E+00  0.10702041251E+02  0.10702041554E+02  0.25500000000E-02 0. -1.
          2   -1    0    0  501    0  0.00000000000E+00 -0.00000000000E+00 -0.14410102442E+04  0.14410102442E+04  0.25500000000E-02 0.  1.
    5000001    1    1    2    0    0 -0.15440273611E+02  0.82703105576E+02 -0.42794287417E+03  0.44287956520E+03  0.77000000000E+02 0.  0.
   -5000001    1    1    2    0    0  0.15440273611E+02 -0.82703105576E+02 -0.10023653288E+04  0.10088327206E+04  0.77000000000E+02 0.  0.
<mgrwt>
<rscale>  0 0.24836869E+03</rscale>
<asrwt>0</asrwt>
<pdfrwt beam="1">  1        2 0.20585848E+00 0.24836869E+03</pdfrwt>
<pdfrwt beam="2">  1       -2 0.15288640E-02 0.24836869E+03</pdfrwt>
<totfact> 0.19082397E+04</totfact>
</mgrwt>
</event>
<event>
 4    1  0.1300812E-003  0.2648227E+03  0.7818608E-02  0.1104280E+00
         -2   -1    0    0    0  501 -0.00000000000E+00  0.00000000000E+00  0.56553594413E+02  0.56553594470E+02  0.25500000000E-02 0. -1.
          2   -1    0    0  501    0  0.00000000000E+00 -0.00000000000E+00 -0.31002036722E+03  0.31002036723E+03  0.25500000000E-02 0.  1.
    5000001    1    1    2    0    0  0.20102881395E+02  0.10109105597E+03 -0.17007173075E+03  0.21325318529E+03  0.77000000000E+02 0.  0.
   -5000001    1    1    2    0    0 -0.20102881395E+02 -0.10109105597E+03 -0.83395042064E+02  0.15332077641E+03  0.77000000000E+02 0.  0.
<mgrwt>
<rscale>  0 0.26482270E+03</rscale>
<asrwt>0</asrwt>
<pdfrwt beam="1">  1        2 0.44288623E-01 0.26482270E+03</pdfrwt>
<pdfrwt beam="2">  1       -2 0.80790851E-02 0.26482270E+03</pdfrwt>
<totfact> 0.10533050E+04</totfact>
</mgrwt>
</event>
<event>
 4    1  0.1300812E-003  0.2463112E+03  0.7818608E-02  0.1115658E+00
         -2   -1    0    0    0  501 -0.00000000000E+00  0.00000000000E+00  0.25199554446E+02  0.25199554575E+02  0.25500000000E-02 0. -1.
          2   -1    0    0  501    0  0.00000000000E+00 -0.00000000000E+00 -0.60188767971E+03  0.60188767971E+03  0.25500000000E-02 0.  1.
    5000001    1    1    2    0    0 -0.54604678808E+02  0.77977861151E+02 -0.25456066816E+03  0.28247539990E+03  0.77000000000E+02 0.  0.
   -5000001    1    1    2    0    0  0.54604678808E+02 -0.77977861151E+02 -0.32212745710E+03  0.34461183438E+03  0.77000000000E+02 0.  0.
<mgrwt>
<rscale>  0 0.24631120E+03</rscale>
<asrwt>0</asrwt>
<pdfrwt beam="1">  1        2 0.85983945E-01 0.24631120E+03</pdfrwt>
<pdfrwt beam="2">  1       -2 0.35999367E-02 0.24631120E+03</pdfrwt>
<totfact> 0.17436344E+04</totfact>
</mgrwt>
</event>
<event>
 4    1  0.1300812E-003  0.3007919E+03  0.7818608E-02  0.1084845E+00
         -2   -1    0    0    0  501 -0.00000000000E+00  0.00000000000E+00  0.20650498840E+02  0.20650498998E+02  0.25500000000E-02 0. -1.
          2   -1    0    0  501    0  0.00000000000E+00 -0.00000000000E+00 -0.10953217411E+04  0.10953217411E+04  0.25500000000E-02 0.  1.
    5000001    1    1    2    0    0 -0.65516778556E+02  0.62472175568E+02 -0.19538626728E+03  0.22869196408E+03  0.77000000000E+02 0.  0.
   -5000001    1    1    2    0    0  0.65516778556E+02 -0.62472175568E+02 -0.87928497499E+03  0.88728027604E+03  0.77000000000E+02 0.  0.
<mgrwt>
<rscale>  0 0.30079189E+03</rscale>
<asrwt>0</asrwt>
<pdfrwt beam="1">  1        2 0.15647450E+00 0.30079189E+03</pdfrwt>
<pdfrwt beam="2">  1       -2 0.29500720E-02 0.30079189E+03</pdfrwt>
<totfact> 0.11145246E+04</totfact>
</mgrwt>
</event>
<event>
 4    1  0.1300812E-003  0.2498238E+03  0.7818608E-02  0.1113416E+00
         -2   -1    0    0    0  501 -0.00000000000E+00  0.00000000000E+00  0.14664557516E+02  0.14664557738E+02  0.25500000000E-02 0. -1.
          2   -1    0    0  501    0  0.00000000000E+00 -0.00000000000E+00 -0.10639923384E+04  0.10639923384E+04  0.25500000000E-02 0.  1.
    5000001    1    1    2    0    0  0.68796898775E+01  0.79965214624E+02 -0.27919330074E+03  0.30053230252E+03  0.77000000000E+02 0.  0.
   -5000001    1    1    2    0    0 -0.68796898775E+01 -0.79965214624E+02 -0.77013448011E+03  0.77812459358E+03  0.77000000000E+02 0.  0.
<mgrwt>
<rscale>  0 0.24982375E+03</rscale>
<asrwt>0</asrwt>
<pdfrwt beam="1">  1        2 0.15199886E+00 0.24982375E+03</pdfrwt>
<pdfrwt beam="2">  1       -2 0.20949375E-02 0.24982375E+03</pdfrwt>
<totfact> 0.19137466E+04</totfact>
</mgrwt>
</event>
<event>
 4    1  0.1300812E-003  0.2000459E+03  0.7818608E-02  0.1149700E+00
         -2   -1    0    0    0  501 -0.00000000000E+00  0.00000000000E+00  0.25061064351E+02  0.25061064481E+02  0.25500000000E-02 0. -1.
          2   -1    0    0  501    0  0.00000000000E+00 -0.00000000000E+00 -0.39920835479E+03  0.39920835480E+03  0.25500000000E-02 0.  1.
    5000001    1    1    2    0    0 -0.35087714015E+01 -0.61284089792E+02 -0.14988078705E+03  0.17933572278E+03  0.77000000000E+02 0.  0.
   -5000001    1    1    2    0    0  0.35087714015E+01  0.61284089792E+02 -0.22426650339E+03  0.24493369650E+03  0.77000000000E+02 0.  0.
<mgrwt>
<rscale>  0 0.20004586E+03</rscale>
<asrwt>0</asrwt>
<pdfrwt beam="1">  1        2 0.57029761E-01 0.20004586E+03</pdfrwt>
<pdfrwt beam="2">  1       -2 0.35801523E-02 0.20004586E+03</pdfrwt>
<totfact> 0.27241591E+04</totfact>
</mgrwt>
</event>
<event>
 4    1  0.1300812E-003  0.6516765E+03  0.7818608E-02  0.9803638E-01
          2   -1    0    0  501    0  0.00000000000E+00  0.00000000000E+00  0.54191429163E+03  0.54191429163E+03  0.25500000000E-02 0.  1.
         -2   -1    0    0    0  501 -0.00000000000E+00 -0.00000000000E+00 -0.19591764906E+03  0.19591764907E+03  0.25500000000E-02 0. -1.
    5000001    1    1    2    0    0 -0.24197529742E+03  0.18993009322E+03  0.88150172795E+02  0.32912754038E+03  0.77000000000E+02 0.  0.
   -5000001    1    1    2    0    0  0.24197529742E+03 -0.18993009322E+03  0.25784646977E+03  0.40870440033E+03  0.77000000000E+02 0.  0.
<mgrwt>
<rscale>  0 0.65167653E+03</rscale>
<asrwt>0</asrwt>
<pdfrwt beam="1">  1        2 0.77416327E-01 0.65167653E+03</pdfrwt>
<pdfrwt beam="2">  1       -2 0.27988236E-01 0.65167653E+03</pdfrwt>
<totfact> 0.71604267E+02</totfact>
</mgrwt>
</event>
<event>
 4    1  0.1300812E-003  0.2577213E+03  0.7818608E-02  0.1108520E+00
          2   -1    0    0  501    0  0.00000000000E+00  0.00000000000E+00  0.67944468299E+03  0.67944468300E+03  0.25500000000E-02 0.  1.
         -2   -1    0    0    0  501 -0.00000000000E+00 -0.00000000000E+00 -0.24439169764E+02  0.24439169897E+02  0.25500000000E-02 0. -1.
    5000001    1    1    2    0    0 -0.29957157907E+02 -0.74220299693E+02  0.50597210604E+03  0.51801820073E+03  0.77000000000E+02 0.  0.
   -5000001    1    1    2    0    0  0.29957157907E+02  0.74220299693E+02  0.14903340719E+03  0.18586565216E+03  0.77000000000E+02 0.  0.
<mgrwt>
<rscale>  0 0.25772128E+03</rscale>
<asrwt>0</asrwt>
<pdfrwt beam="1">  1        2 0.97063538E-01 0.25772128E+03</pdfrwt>
<pdfrwt beam="2">  1       -2 0.34913096E-02 0.25772128E+03</pdfrwt>
<totfact> 0.15903365E+04</totfact>
</mgrwt>
</event>
<event>
 4    1  0.1300812E-003  0.1980845E+03  0.7818608E-02  0.1151365E+00
          2   -1    0    0  501    0  0.00000000000E+00  0.00000000000E+00  0.22262605920E+02  0.22262606066E+02  0.25500000000E-02 0.  1.
         -2   -1    0    0    0  501 -0.00000000000E+00 -0.00000000000E+00 -0.44062082852E+03  0.44062082852E+03  0.25500000000E-02 0. -1.
    5000001    1    1    2    0    0 -0.88395669270E+01 -0.56252957500E+02 -0.15016237172E+03  0.17810185583E+03  0.77000000000E+02 0.  0.
   -5000001    1    1    2    0    0  0.88395669270E+01  0.56252957500E+02 -0.26819585088E+03  0.28478157876E+03  0.77000000000E+02 0.  0.
<mgrwt>
<rscale>  0 0.19808451E+03</rscale>
<asrwt>0</asrwt>
<pdfrwt beam="1">  1        2 0.31803726E-02 0.19808451E+03</pdfrwt>
<pdfrwt beam="2">  1       -2 0.62945827E-01 0.19808451E+03</pdfrwt>
<totfact> 0.67349664E+03</totfact>
</mgrwt>
</event>
<event>
 4    1  0.1300812E-003  0.1861554E+03  0.7818608E-02  0.1161975E+00
          2   -1    0    0  501    0  0.00000000000E+00  0.00000000000E+00  0.12555444781E+04  0.12555444781E+04  0.25500000000E-02 0.  1.
         -2   -1    0    0    0  501 -0.00000000000E+00 -0.00000000000E+00 -0.69001588690E+01  0.69001593402E+01  0.25500000000E-02 0. -1.
    5000001    1    1    2    0    0  0.23355196388E+02  0.28173198598E+02  0.87763936011E+03  0.88177040137E+03  0.77000000000E+02 0.  0.
   -5000001    1    1    2    0    0 -0.23355196388E+02 -0.28173198598E+02  0.37100495913E+03  0.38067423608E+03  0.77000000000E+02 0.  0.
<mgrwt>
<rscale>  0 0.18615538E+03</rscale>
<asrwt>0</asrwt>
<pdfrwt beam="1">  1        2 0.17936370E+00 0.18615538E+03</pdfrwt>
<pdfrwt beam="2">  1       -2 0.98573588E-03 0.18615538E+03</pdfrwt>
<totfact> 0.44195508E+04</totfact>
</mgrwt>
</event>
<event>
 4    1  0.1300812E-003  0.4559816E+03  0.7818608E-02  0.1025953E+00
          2   -1    0    0  501    0  0.00000000000E+00  0.00000000000E+00  0.48247320635E+02  0.48247320702E+02  0.25500000000E-02 0.  1.
         -2   -1    0    0    0  501 -0.00000000000E+00 -0.00000000000E+00 -0.10773615009E+04  0.10773615009E+04  0.25500000000E-02 0. -1.
    5000001    1    1    2    0    0  0.14104098079E+03 -0.12937021270E+03 -0.27494849320E+03  0.34373664935E+03  0.77000000000E+02 0.  0.
   -5000001    1    1    2    0    0 -0.14104098079E+03  0.12937021270E+03 -0.75416568703E+03  0.78187217222E+03  0.77000000000E+02 0.  0.
<mgrwt>
<rscale>  0 0.45598160E+03</rscale>
<asrwt>0</asrwt>
<pdfrwt beam="1">  1        2 0.68924750E-02 0.45598160E+03</pdfrwt>
<pdfrwt beam="2">  1       -2 0.15390877E+00 0.45598160E+03</pdfrwt>
<totfact> 0.30635935E+02</totfact>
</mgrwt>
</event>
<event>
 4    1  0.1300812E-003  0.1968417E+03  0.7818608E-02  0.1152431E+00
         -2   -1    0    0    0  501 -0.00000000000E+00  0.00000000000E+00  0.33696593087E+01  0.33696602735E+01  0.25500000000E-02 0. -1.
          2   -1    0    0  501    0  0.00000000000E+00 -0.00000000000E+00 -0.28746697038E+04  0.28746697038E+04  0.25500000000E-02 0.  1.
    5000001    1    1    2    0    0 -0.45482471916E+02 -0.30919201508E+02 -0.18315027896E+04  0.18339455065E+04  0.77000000000E+02 0.  0.
   -5000001    1    1    2    0    0  0.45482471916E+02  0.30919201508E+02 -0.10397972548E+04  0.10440938576E+04  0.77000000000E+02 0.  0.
<mgrwt>
<rscale>  0 0.19684165E+03</rscale>
<asrwt>0</asrwt>
<pdfrwt beam="1">  1        2 0.41066553E+00 0.19684165E+03</pdfrwt>
<pdfrwt beam="2">  1       -2 0.48138181E-03 0.19684165E+03</pdfrwt>
<totfact> 0.19672392E+04</totfact>
</mgrwt>
</event>
<event>
 4    1  0.1300812E-003  0.3261909E+03  0.7818608E-02  0.1072835E+00
          2   -1    0    0  501    0  0.00000000000E+00  0.00000000000E+00  0.11102915292E+03  0.11102915295E+03  0.25500000000E-02 0.  1.
         -2   -1    0    0    0  501 -0.00000000000E+00 -0.00000000000E+00 -0.23957785135E+03  0.23957785136E+03  0.25500000000E-02 0. -1.
    5000001    1    1    2    0    0 -0.34340500535E+01  0.13086918836E+03 -0.38988066110E+00  0.15188050951E+03  0.77000000000E+02 0.  0.
   -5000001    1    1    2    0    0  0.34340500535E+01 -0.13086918836E+03 -0.12815881777E+03  0.19872649480E+03  0.77000000000E+02 0.  0.
<mgrwt>
<rscale>  0 0.32619090E+03</rscale>
<asrwt>0</asrwt>
<pdfrwt beam="1">  1        2 0.15861308E-01 0.32619090E+03</pdfrwt>
<pdfrwt beam="2">  1       -2 0.34225407E-01 0.32619090E+03</pdfrwt>
<totfact> 0.29279565E+03</totfact>
</mgrwt>
</event>
<event>
 4    1  0.1300812E-003  0.5141522E+03  0.7818608E-02  0.1010150E+00
          2   -1    0    0  501    0  0.00000000000E+00  0.00000000000E+00  0.35612996364E+03  0.35612996365E+03  0.25500000000E-02 0.  1.
         -2   -1    0    0    0  501 -0.00000000000E+00 -0.00000000000E+00 -0.18557304653E+03  0.18557304654E+03  0.25500000000E-02 0. -1.
    5000001    1    1    2    0    0 -0.20679118969E+03 -0.10979296131E+03  0.82727746076E+01  0.24660602038E+03  0.77000000000E+02 0.  0.
   -5000001    1    1    2    0    0  0.20679118969E+03  0.10979296131E+03  0.16228414251E+03  0.29509698982E+03  0.77000000000E+02 0.  0.
<mgrwt>
<rscale>  0 0.51415220E+03</rscale>
<asrwt>0</asrwt>
<pdfrwt beam="1">  1        2 0.50875709E-01 0.51415220E+03</pdfrwt>
<pdfrwt beam="2">  1       -2 0.26510435E-01 0.51415220E+03</pdfrwt>
<totfact> 0.12674040E+03</totfact>
</mgrwt>
</event>
<event>
 4    1  0.1300812E-003  0.4653236E+03  0.7818608E-02  0.1023248E+00
          2   -1    0    0  501    0  0.00000000000E+00  0.00000000000E+00  0.33570879858E+03  0.33570879859E+03  0.25500000000E-02 0.  1.
         -2   -1    0    0    0  501 -0.00000000000E+00 -0.00000000000E+00 -0.16124542676E+03  0.16124542678E+03  0.25500000000E-02 0. -1.
    5000001    1    1    2    0    0 -0.21294368115E+03  0.38039258330E+02  0.12734141395E+03  0.26255824539E+03  0.77000000000E+02 0.  0.
   -5000001    1    1    2    0    0  0.21294368115E+03 -0.38039258330E+02  0.47121957877E+02  0.23439597998E+03  0.77000000000E+02 0.  0.
<mgrwt>
<rscale>  0 0.46532358E+03</rscale>
<asrwt>0</asrwt>
<pdfrwt beam="1">  1        2 0.47958399E-01 0.46532358E+03</pdfrwt>
<pdfrwt beam="2">  1       -2 0.23035062E-01 0.46532358E+03</pdfrwt>
<totfact> 0.17370276E+03</totfact>
</mgrwt>
</event>
<event>
 4    1  0.1300812E-003  0.2430968E+03  0.7818608E-02  0.1117747E+00
         -2   -1    0    0    0  501 -0.00000000000E+00  0.00000000000E+00  0.34790299916E+02  0.34790300009E+02  0.25500000000E-02 0. -1.
          2   -1    0    0  501    0  0.00000000000E+00 -0.00000000000E+00 -0.42465884116E+03  0.42465884116E+03  0.25500000000E-02 0.  1.
    5000001    1    1    2    0    0  0.40302168143E+02  0.73796253371E+02 -0.11531101631E+03  0.16215974301E+03  0.77000000000E+02 0.  0.
   -5000001    1    1    2    0    0 -0.40302168143E+02 -0.73796253371E+02 -0.27455752493E+03  0.29728939817E+03  0.77000000000E+02 0.  0.
<mgrwt>
<rscale>  0 0.24309676E+03</rscale>
<asrwt>0</asrwt>
<pdfrwt beam="1">  1        2 0.60665546E-01 0.24309676E+03</pdfrwt>
<pdfrwt beam="2">  1       -2 0.49700431E-02 0.24309676E+03</pdfrwt>
<totfact> 0.15775565E+04</totfact>
</mgrwt>
</event>
<event>
 4    1  0.1300812E-003  0.1969342E+03  0.7818608E-02  0.1152352E+00
          2   -1    0    0  501    0  0.00000000000E+00  0.00000000000E+00  0.15629169558E+04  0.15629169558E+04  0.25500000000E-02 0.  1.
         -2   -1    0    0    0  501 -0.00000000000E+00 -0.00000000000E+00 -0.62036384368E+01  0.62036389609E+01  0.25500000000E-02 0. -1.
    5000001    1    1    2    0    0  0.14502505327E+02  0.56921508150E+02  0.63663134186E+03  0.64395562439E+03  0.77000000000E+02 0.  0.
   -5000001    1    1    2    0    0 -0.14502505327E+02 -0.56921508150E+02  0.92008197548E+03  0.92516497034E+03  0.77000000000E+02 0.  0.
<mgrwt>
<rscale>  0 0.19693422E+03</rscale>
<asrwt>0</asrwt>
<pdfrwt beam="1">  1        2 0.22327396E+00 0.19693422E+03</pdfrwt>
<pdfrwt beam="2">  1       -2 0.88623367E-03 0.19693422E+03</pdfrwt>
<totfact> 0.36096392E+04</totfact>
</mgrwt>
</event>
<event>
 4    1  0.1300812E-003  0.2880638E+03  0.7818608E-02  0.1091364E+00
         -2   -1    0    0    0  501 -0.00000000000E+00  0.00000000000E+00  0.77563399577E+02  0.77563399619E+02  0.25500000000E-02 0. -1.
          2   -1    0    0  501    0  0.00000000000E+00 -0.00000000000E+00 -0.26746109671E+03  0.26746109673E+03  0.25500000000E-02 0.  1.
    5000001    1    1    2    0    0  0.21282516502E+02  0.11775797185E+03 -0.12163194219E+03  0.18719833013E+03  0.77000000000E+02 0.  0.
   -5000001    1    1    2    0    0 -0.21282516502E+02 -0.11775797185E+03 -0.68265754943E+02  0.15782616621E+03  0.77000000000E+02 0.  0.
<mgrwt>
<rscale>  0 0.28806383E+03</rscale>
<asrwt>0</asrwt>
<pdfrwt beam="1">  1        2 0.38208728E-01 0.28806383E+03</pdfrwt>
<pdfrwt beam="2">  1       -2 0.11080486E-01 0.28806383E+03</pdfrwt>
<totfact> 0.75168685E+03</totfact>
</mgrwt>
</event>
<event>
 4    1  0.1300812E-003  0.1654149E+03  0.7818608E-02  0.1182716E+00
          2   -1    0    0  501    0  0.00000000000E+00  0.00000000000E+00  0.34722733177E+02  0.34722733271E+02  0.25500000000E-02 0.  1.
         -2   -1    0    0    0  501 -0.00000000000E+00 -0.00000000000E+00 -0.19700412894E+03  0.19700412896E+03  0.25500000000E-02 0. -1.
    5000001    1    1    2    0    0 -0.10098479155E+02 -0.26857143000E+02 -0.67981613464E+02  0.10664794972E+03  0.77000000000E+02 0.  0.
   -5000001    1    1    2    0    0  0.10098479155E+02  0.26857143000E+02 -0.94299782301E+02  0.12507891250E+03  0.77000000000E+02 0.  0.
<mgrwt>
<rscale>  0 0.16541489E+03</rscale>
<asrwt>0</asrwt>
<pdfrwt beam="1">  1        2 0.49603906E-02 0.16541489E+03</pdfrwt>
<pdfrwt beam="2">  1       -2 0.28143446E-01 0.16541489E+03</pdfrwt>
<totfact> 0.17275637E+04</totfact>
</mgrwt>
</event>
<event>
 4    1  0.1300812E-003  0.2718917E+03  0.7818608E-02  0.1100202E+00
         -2   -1    0    0    0  501 -0.00000000000E+00  0.00000000000E+00  0.24418371862E+02  0.24418371995E+02  0.25500000000E-02 0. -1.
          2   -1    0    0  501    0  0.00000000000E+00 -0.00000000000E+00 -0.75685920061E+03  0.75685920061E+03  0.25500000000E-02 0.  1.
    5000001    1    1    2    0    0  0.92165971367E+02 -0.57367702934E+02 -0.44578283503E+03  0.46522785345E+03  0.77000000000E+02 0.  0.
   -5000001    1    1    2    0    0 -0.92165971367E+02  0.57367702934E+02 -0.28665799371E+03  0.31604971915E+03  0.77000000000E+02 0.  0.
<mgrwt>
<rscale>  0 0.27189167E+03</rscale>
<asrwt>0</asrwt>
<pdfrwt beam="1">  1        2 0.10812273E+00 0.27189167E+03</pdfrwt>
<pdfrwt beam="2">  1       -2 0.34883393E-02 0.27189167E+03</pdfrwt>
<totfact> 0.14032883E+04</totfact>
</mgrwt>
</event>
<event>
 4    1  0.1300812E-003  0.4611463E+03  0.7818608E-02  0.1024449E+00
         -2   -1    0    0    0  501 -0.00000000000E+00  0.00000000000E+00  0.35520011041E+03  0.35520011042E+03  0.25500000000E-02 0. -1.
          2   -1    0    0  501    0  0.00000000000E+00 -0.00000000000E+00 -0.14967328602E+03  0.14967328604E+03  0.25500000000E-02 0.  1.
    5000001    1    1    2    0    0 -0.10203509814E+03  0.94867036077E+02 -0.79858962597E+02  0.17809371043E+03  0.77000000000E+02 0.  0.
   -5000001    1    1    2    0    0  0.10203509814E+03 -0.94867036077E+02  0.28538578699E+03  0.32677968603E+03  0.77000000000E+02 0.  0.
<mgrwt>
<rscale>  0 0.46114626E+03</rscale>
<asrwt>0</asrwt>
<pdfrwt beam="1">  1        2 0.21381898E-01 0.46114626E+03</pdfrwt>
<pdfrwt beam="2">  1       -2 0.50742873E-01 0.46114626E+03</pdfrwt>
<totfact> 0.96642352E+02</totfact>
</mgrwt>
</event>
<event>
 4    1  0.1300812E-003  0.2672164E+03  0.7818608E-02  0.1102883E+00
         -2   -1    0    0    0  501 -0.00000000000E+00  0.00000000000E+00  0.43513387228E+02  0.43513387302E+02  0.25500000000E-02 0. -1.
          2   -1    0    0  501    0  0.00000000000E+00 -0.00000000000E+00 -0.41024497565E+03  0.41024497566E+03  0.25500000000E-02 0.  1.
    5000001    1    1    2    0    0  0.96242953566E+02 -0.50692610502E+02 -0.19944859703E+03  0.23987744731E+03  0.77000000000E+02 0.  0.
   -5000001    1    1    2    0    0 -0.96242953566E+02  0.50692610502E+02 -0.16728299139E+03  0.21388091565E+03  0.77000000000E+02 0.  0.
<mgrwt>
<rscale>  0 0.26721638E+03</rscale>
<asrwt>0</asrwt>
<pdfrwt beam="1">  1        2 0.58606423E-01 0.26721638E+03</pdfrwt>
<pdfrwt beam="2">  1       -2 0.62161984E-02 0.26721638E+03</pdfrwt>
<totfact> 0.11696131E+04</totfact>
</mgrwt>
</event>
<event>
 4    1  0.1300812E-003  0.3196242E+03  0.7818608E-02  0.1075822E+00
         -2   -1    0    0    0  501 -0.00000000000E+00  0.00000000000E+00  0.28797638291E+02  0.28797638404E+02  0.25500000000E-02 0. -1.
          2   -1    0    0  501    0  0.00000000000E+00 -0.00000000000E+00 -0.88687491348E+03  0.88687491348E+03  0.25500000000E-02 0.  1.
    5000001    1    1    2    0    0  0.11353711512E+03 -0.38123488354E+02 -0.22112878528E+03  0.26300383372E+03  0.77000000000E+02 0.  0.
   -5000001    1    1    2    0    0 -0.11353711512E+03  0.38123488354E+02 -0.63694848991E+03  0.65266871817E+03  0.77000000000E+02 0.  0.
<mgrwt>
<rscale>  0 0.31962417E+03</rscale>
<asrwt>0</asrwt>
<pdfrwt beam="1">  1        2 0.12669640E+00 0.31962417E+03</pdfrwt>
<pdfrwt beam="2">  1       -2 0.41139489E-02 0.31962417E+03</pdfrwt>
<totfact> 0.90275909E+03</totfact>
</mgrwt>
</event>
<event>
 4    1  0.1300812E-003  0.2582130E+03  0.7818608E-02  0.1108222E+00
          2   -1    0    0  501    0  0.00000000000E+00  0.00000000000E+00  0.96467178042E+03  0.96467178043E+03  0.25500000000E-02 0.  1.
         -2   -1    0    0    0  501 -0.00000000000E+00 -0.00000000000E+00 -0.17278915432E+02  0.17278915620E+02  0.25500000000E-02 0. -1.
    5000001    1    1    2    0    0 -0.29336233970E+02  0.82130086579E+02  0.26081996781E+03  0.28559065348E+03  0.77000000000E+02 0.  0.
   -5000001    1    1    2    0    0  0.29336233970E+02 -0.82130086579E+02  0.68657289718E+03  0.69636004257E+03  0.77000000000E+02 0.  0.
<mgrwt>
<rscale>  0 0.25821295E+03</rscale>
<asrwt>0</asrwt>
<pdfrwt beam="1">  1        2 0.13781030E+00 0.25821295E+03</pdfrwt>
<pdfrwt beam="2">  1       -2 0.24684156E-02 0.25821295E+03</pdfrwt>
<totfact> 0.17203452E+04</totfact>
</mgrwt>
</event>
<event>
 4    1  0.1300812E-003  0.2055646E+03  0.7818608E-02  0.1145127E+00
          2   -1    0    0  501    0  0.00000000000E+00  0.00000000000E+00  0.21206542526E+04  0.21206542526E+04  0.25500000000E-02 0.  1.
         -2   -1    0    0    0  501 -0.00000000000E+00 -0.00000000000E+00 -0.49815772329E+01  0.49815778855E+01  0.25500000000E-02 0. -1.
    5000001    1    1    2    0    0  0.26059134834E+02 -0.42455590299E+02  0.15377110267E+04  0.15404433638E+04  0.77000000000E+02 0.  0.
   -5000001    1    1    2    0    0 -0.26059134834E+02  0.42455590299E+02  0.57796164870E+03  0.58519246665E+03  0.77000000000E+02 0.  0.
<mgrwt>
<rscale>  0 0.20556462E+03</rscale>
<asrwt>0</asrwt>
<pdfrwt beam="1">  1        2 0.30295000E+00 0.20556462E+03</pdfrwt>
<pdfrwt beam="2">  1       -2 0.71165536E-03 0.20556462E+03</pdfrwt>
<totfact> 0.26599648E+04</totfact>
</mgrwt>
</event>
<event>
 4    1  0.1300812E-003  0.3465166E+03  0.7818608E-02  0.1064054E+00
          2   -1    0    0  501    0  0.00000000000E+00  0.00000000000E+00  0.88504918481E+01  0.88504922155E+01  0.25500000000E-02 0.  1.
         -2   -1    0    0    0  501 -0.00000000000E+00 -0.00000000000E+00 -0.33917250416E+04  0.33917250416E+04  0.25500000000E-02 0. -1.
    5000001    1    1    2    0    0  0.55409052761E+02 -0.14029809354E+03 -0.13327750190E+04  0.13434924524E+04  0.77000000000E+02 0.  0.
   -5000001    1    1    2    0    0 -0.55409052761E+02  0.14029809354E+03 -0.20500995307E+04  0.20570830815E+04  0.77000000000E+02 0.  0.
<mgrwt>
<rscale>  0 0.34651658E+03</rscale>
<asrwt>0</asrwt>
<pdfrwt beam="1">  1        2 0.12643582E-02 0.34651658E+03</pdfrwt>
<pdfrwt beam="2">  1       -2 0.48453132E+00 0.34651658E+03</pdfrwt>
<totfact> 0.26042744E+01</totfact>
</mgrwt>
</event>
<event>
 4    1  0.1300812E-003  0.1808663E+03  0.7818608E-02  0.1166967E+00
          2   -1    0    0  501    0  0.00000000000E+00  0.00000000000E+00  0.10450707629E+04  0.10450707629E+04  0.25500000000E-02 0.  1.
         -2   -1    0    0    0  501 -0.00000000000E+00 -0.00000000000E+00 -0.78254559471E+01  0.78254563626E+01  0.25500000000E-02 0. -1.
    5000001    1    1    2    0    0  0.29668565099E+02  0.30473762219E+02  0.39647275563E+03  0.40611392477E+03  0.77000000000E+02 0.  0.
   -5000001    1    1    2    0    0 -0.29668565099E+02 -0.30473762219E+02  0.64077255135E+03  0.64678229452E+03  0.77000000000E+02 0.  0.
<mgrwt>
<rscale>  0 0.18086631E+03</rscale>
<asrwt>0</asrwt>
<pdfrwt beam="1">  1        2 0.14929570E+00 0.18086631E+03</pdfrwt>
<pdfrwt beam="2">  1       -2 0.11179232E-02 0.18086631E+03</pdfrwt>
<totfact> 0.47916384E+04</totfact>
</mgrwt>
</event>
<event>
 4    1  0.1300812E-003  0.3368054E+03  0.7818608E-02  0.1068165E+00
         -2   -1    0    0    0  501 -0.00000000000E+00  0.00000000000E+00  0.35213847811E+02  0.35213847903E+02  0.25500000000E-02 0. -1.
          2   -1    0    0  501    0  0.00000000000E+00 -0.00000000000E+00 -0.80534976396E+03  0.80534976396E+03  0.25500000000E-02 0.  1.
    5000001    1    1    2    0    0  0.10982504137E+02  0.12172824140E+03 -0.60108742821E+03  0.61820180888E+03  0.77000000000E+02 0.  0.
   -5000001    1    1    2    0    0 -0.10982504137E+02 -0.12172824140E+03 -0.16904848794E+03  0.22236180299E+03  0.77000000000E+02 0.  0.
<mgrwt>
<rscale>  0 0.33680537E+03</rscale>
<asrwt>0</asrwt>
<pdfrwt beam="1">  1        2 0.11504996E+00 0.33680537E+03</pdfrwt>
<pdfrwt beam="2">  1       -2 0.50305502E-02 0.33680537E+03</pdfrwt>
<totfact> 0.75287381E+03</totfact>
</mgrwt>
</event>
<event>
 4    1  0.1300812E-003  0.2692612E+03  0.7818608E-02  0.1101703E+00
         -2   -1    0    0    0  501 -0.00000000000E+00  0.00000000000E+00  0.10344651014E+03  0.10344651017E+03  0.25500000000E-02 0. -1.
          2   -1    0    0  501    0  0.00000000000E+00 -0.00000000000E+00 -0.17521519535E+03  0.17521519536E+03  0.25500000000E-02 0.  1.
    5000001    1    1    2    0    0 -0.61665303463E+02  0.46641623829E+01  0.58808912158E+02  0.11494282149E+03  0.77000000000E+02 0.  0.
   -5000001    1    1    2    0    0  0.61665303463E+02 -0.46641623829E+01 -0.13057759736E+03  0.16371888405E+03  0.77000000000E+02 0.  0.
<mgrwt>
<rscale>  0 0.26926122E+03</rscale>
<asrwt>0</asrwt>
<pdfrwt beam="1">  1        2 0.25030742E-01 0.26926122E+03</pdfrwt>
<pdfrwt beam="2">  1       -2 0.14778073E-01 0.26926122E+03</pdfrwt>
<totfact> 0.74647166E+03</totfact>
</mgrwt>
</event>
<event>
 4    1  0.1300812E-003  0.2051170E+03  0.7818608E-02  0.1145492E+00
         -2   -1    0    0    0  501 -0.00000000000E+00  0.00000000000E+00  0.18739384337E+02  0.18739384511E+02  0.25500000000E-02 0. -1.
          2   -1    0    0  501    0  0.00000000000E+00 -0.00000000000E+00 -0.56129095640E+03  0.56129095641E+03  0.25500000000E-02 0.  1.
    5000001    1    1    2    0    0  0.65211404165E+02  0.98085163857E+01 -0.22742088711E+03  0.24899396402E+03  0.77000000000E+02 0.  0.
   -5000001    1    1    2    0    0 -0.65211404165E+02 -0.98085163857E+01 -0.31513068496E+03  0.33103637690E+03  0.77000000000E+02 0.  0.
<mgrwt>
<rscale>  0 0.20511701E+03</rscale>
<asrwt>0</asrwt>
<pdfrwt beam="1">  1        2 0.80184412E-01 0.20511701E+03</pdfrwt>
<pdfrwt beam="2">  1       -2 0.26770553E-02 0.20511701E+03</pdfrwt>
<totfact> 0.28942476E+04</totfact>
</mgrwt>
</event>
<event>
 4    1  0.1300812E-003  0.2099359E+03  0.7818608E-02  0.1141617E+00
         -2   -1    0    0    0  501 -0.00000000000E+00  0.00000000000E+00  0.29454797444E+01  0.29454808482E+01  0.25500000000E-02 0. -1.
          2   -1    0    0  501    0  0.00000000000E+00 -0.00000000000E+00 -0.37407369279E+04  0.37407369279E+04  0.25500000000E-02 0.  1.
    5000001    1    1    2    0    0 -0.41260161638E+01 -0.60051452026E+02 -0.11861026263E+04  0.11901225319E+04  0.77000000000E+02 0.  0.
   -5000001    1    1    2    0    0  0.41260161638E+01  0.60051452026E+02 -0.25516888219E+04  0.25535598768E+04  0.77000000000E+02 0.  0.
<mgrwt>
<rscale>  0 0.20993587E+03</rscale>
<asrwt>0</asrwt>
<pdfrwt beam="1">  1        2 0.53438795E+00 0.20993587E+03</pdfrwt>
<pdfrwt beam="2">  1       -2 0.42078529E-03 0.20993587E+03</pdfrwt>
<totfact> 0.78833172E+03</totfact>
</mgrwt>
</event>
<event>
 4    1  0.1300812E-003  0.1726021E+03  0.7818608E-02  0.1175161E+00
          2   -1    0    0  501    0  0.00000000000E+00  0.00000000000E+00  0.66506525094E+03  0.66506525095E+03  0.25500000000E-02 0.  1.
         -2   -1    0    0    0  501 -0.00000000000E+00 -0.00000000000E+00 -0.11198712650E+02  0.11198712941E+02  0.25500000000E-02 0. -1.
    5000001    1    1    2    0    0 -0.34532142774E+02  0.16808748723E+02  0.35288479494E+03  0.36322400997E+03  0.77000000000E+02 0.  0.
   -5000001    1    1    2    0    0  0.34532142774E+02 -0.16808748723E+02  0.30098174335E+03  0.31303995392E+03  0.77000000000E+02 0.  0.
<mgrwt>
<rscale>  0 0.17260214E+03</rscale>
<asrwt>0</asrwt>
<pdfrwt beam="1">  1        2 0.95009299E-01 0.17260214E+03</pdfrwt>
<pdfrwt beam="2">  1       -2 0.15998165E-02 0.17260214E+03</pdfrwt>
<totfact> 0.49938011E+04</totfact>
</mgrwt>
</event>
<event>
 4    1  0.1300812E-003  0.3444573E+03  0.7818608E-02  0.1064913E+00
         -2   -1    0    0    0  501 -0.00000000000E+00  0.00000000000E+00  0.17087694948E+03  0.17087694950E+03  0.25500000000E-02 0. -1.
          2   -1    0    0  501    0  0.00000000000E+00 -0.00000000000E+00 -0.17359103545E+03  0.17359103547E+03  0.25500000000E-02 0.  1.
    5000001    1    1    2    0    0  0.10705141349E+03 -0.11068256949E+03 -0.61603454076E+01  0.17227183802E+03  0.77000000000E+02 0.  0.
   -5000001    1    1    2    0    0 -0.10705141349E+03  0.11068256949E+03  0.34462594323E+01  0.17219614695E+03  0.77000000000E+02 0.  0.
<mgrwt>
<rscale>  0 0.34445729E+03</rscale>
<asrwt>0</asrwt>
<pdfrwt beam="1">  1        2 0.24798719E-01 0.34445729E+03</pdfrwt>
<pdfrwt beam="2">  1       -2 0.24410993E-01 0.34445729E+03</pdfrwt>
<totfact> 0.32315935E+03</totfact>
</mgrwt>
</event>
<event>
 4    1  0.1300812E-003  0.1908561E+03  0.7818608E-02  0.1157691E+00
         -2   -1    0    0    0  501 -0.00000000000E+00  0.00000000000E+00  0.91298975337E+01  0.91298978898E+01  0.25500000000E-02 0. -1.
          2   -1    0    0  501    0  0.00000000000E+00 -0.00000000000E+00 -0.99743873211E+03  0.99743873212E+03  0.25500000000E-02 0.  1.
    5000001    1    1    2    0    0 -0.72510997685E+01  0.15279534095E+02 -0.77774822594E+03  0.78173355151E+03  0.77000000000E+02 0.  0.
   -5000001    1    1    2    0    0  0.72510997685E+01 -0.15279534095E+02 -0.21056060864E+03  0.22483507850E+03  0.77000000000E+02 0.  0.
<mgrwt>
<rscale>  0 0.19085611E+03</rscale>
<asrwt>0</asrwt>
<pdfrwt beam="1">  1        2 0.14249118E+00 0.19085611E+03</pdfrwt>
<pdfrwt beam="2">  1       -2 0.13042717E-02 0.19085611E+03</pdfrwt>
<totfact> 0.41031663E+04</totfact>
</mgrwt>
</event>
<event>
 4    1  0.1300812E-003  0.2189284E+03  0.7818608E-02  0.1134684E+00
         -2   -1    0    0    0  501 -0.00000000000E+00  0.00000000000E+00  0.18166488801E+02  0.18166488980E+02  0.25500000000E-02 0. -1.
          2   -1    0    0  501    0  0.00000000000E+00 -0.00000000000E+00 -0.65958875859E+03  0.65958875860E+03  0.25500000000E-02 0.  1.
    5000001    1    1    2    0    0  0.55773296122E+02 -0.19038774673E+02 -0.16345634483E+03  0.19005291938E+03  0.77000000000E+02 0.  0.
   -5000001    1    1    2    0    0 -0.55773296122E+02  0.19038774673E+02 -0.47796592496E+03  0.48770232819E+03  0.77000000000E+02 0.  0.
<mgrwt>
<rscale>  0 0.21892841E+03</rscale>
<asrwt>0</asrwt>
<pdfrwt beam="1">  1        2 0.94226950E-01 0.21892841E+03</pdfrwt>
<pdfrwt beam="2">  1       -2 0.25952131E-02 0.21892841E+03</pdfrwt>
<totfact> 0.25332339E+04</totfact>
</mgrwt>
</event>
<event>
 4    1  0.1300812E-003  0.2867979E+03  0.7818608E-02  0.1092033E+00
         -2   -1    0    0    0  501 -0.00000000000E+00  0.00000000000E+00  0.16160909498E+02  0.16160909699E+02  0.25500000000E-02 0. -1.
          2   -1    0    0  501    0  0.00000000000E+00 -0.00000000000E+00 -0.12724069367E+04  0.12724069367E+04  0.25500000000E-02 0.  1.
    5000001    1    1    2    0    0 -0.43219004711E+02 -0.10678721654E+03 -0.79398896363E+03  0.80598937111E+03  0.77000000000E+02 0.  0.
   -5000001    1    1    2    0    0  0.43219004711E+02  0.10678721654E+03 -0.46225706353E+03  0.48257847525E+03  0.77000000000E+02 0.  0.
<mgrwt>
<rscale>  0 0.28679786E+03</rscale>
<asrwt>0</asrwt>
<pdfrwt beam="1">  1        2 0.18177236E+00 0.28679786E+03</pdfrwt>
<pdfrwt beam="2">  1       -2 0.23087022E-02 0.28679786E+03</pdfrwt>
<totfact> 0.12809045E+04</totfact>
</mgrwt>
</event>
<event>
 4    1  0.1300812E-003  0.1667273E+03  0.7818608E-02  0.1181304E+00
         -2   -1    0    0    0  501 -0.00000000000E+00  0.00000000000E+00  0.60863155864E+01  0.60863161206E+01  0.25500000000E-02 0. -1.
          2   -1    0    0  501    0  0.00000000000E+00 -0.00000000000E+00 -0.11418234244E+04  0.11418234244E+04  0.25500000000E-02 0.  1.
    5000001    1    1    2    0    0  0.54379716112E+01 -0.19696359496E+02 -0.73693306263E+03  0.74122658945E+03  0.77000000000E+02 0.  0.
   -5000001    1    1    2    0    0 -0.54379716112E+01  0.19696359496E+02 -0.39880404614E+03  0.40668315103E+03  0.77000000000E+02 0.  0.
<mgrwt>
<rscale>  0 0.16672730E+03</rscale>
<asrwt>0</asrwt>
<pdfrwt beam="1">  1        2 0.16311750E+00 0.16672730E+03</pdfrwt>
<pdfrwt beam="2">  1       -2 0.86947442E-03 0.16672730E+03</pdfrwt>
<totfact> 0.60325738E+04</totfact>
</mgrwt>
</event>
<event>
 4    1  0.1300812E-003  0.1726012E+03  0.7818608E-02  0.1175162E+00
          2   -1    0    0  501    0  0.00000000000E+00  0.00000000000E+00  0.91543646258E+03  0.91543646258E+03  0.25500000000E-02 0.  1.
         -2   -1    0    0    0  501 -0.00000000000E+00 -0.00000000000E+00 -0.81357842788E+01  0.81357846784E+01  0.25500000000E-02 0. -1.
    5000001    1    1    2    0    0 -0.20925559854E+01 -0.23042253535E+02  0.62145634931E+03  0.62663571422E+03  0.77000000000E+02 0.  0.
   -5000001    1    1    2    0    0  0.20925559854E+01  0.23042253535E+02  0.28584432900E+03  0.29693653305E+03  0.77000000000E+02 0.  0.
<mgrwt>
<rscale>  0 0.17260120E+03</rscale>
<asrwt>0</asrwt>
<pdfrwt beam="1">  1        2 0.13077658E+00 0.17260120E+03</pdfrwt>
<pdfrwt beam="2">  1       -2 0.11622555E-02 0.17260120E+03</pdfrwt>
<totfact> 0.53781873E+04</totfact>
</mgrwt>
</event>
<event>
 4    1  0.1300812E-003  0.2909483E+03  0.7818608E-02  0.1089855E+00
         -2   -1    0    0    0  501 -0.00000000000E+00  0.00000000000E+00  0.84494463485E+02  0.84494463523E+02  0.25500000000E-02 0. -1.
          2   -1    0    0  501    0  0.00000000000E+00 -0.00000000000E+00 -0.25046290873E+03  0.25046290875E+03  0.25500000000E-02 0.  1.
    5000001    1    1    2    0    0  0.67482583196E+02 -0.89018869943E+02 -0.14341687009E+03  0.19742253384E+03  0.77000000000E+02 0.  0.
   -5000001    1    1    2    0    0 -0.67482583196E+02  0.89018869943E+02 -0.22551575161E+02  0.13753483843E+03  0.77000000000E+02 0.  0.
<mgrwt>
<rscale>  0 0.29094831E+03</rscale>
<asrwt>0</asrwt>
<pdfrwt beam="1">  1        2 0.35780415E-01 0.29094831E+03</pdfrwt>
<pdfrwt beam="2">  1       -2 0.12070638E-01 0.29094831E+03</pdfrwt>
<totfact> 0.70344150E+03</totfact>
</mgrwt>
</event>
<event>
 4    1  0.1300812E-003  0.1890478E+03  0.7818608E-02  0.1159323E+00
          2   -1    0    0  501    0  0.00000000000E+00  0.00000000000E+00  0.31491080121E+04  0.31491080121E+04  0.25500000000E-02 0.  1.
         -2   -1    0    0    0  501 -0.00000000000E+00 -0.00000000000E+00 -0.28372362286E+01  0.28372373745E+01  0.25500000000E-02 0. -1.
    5000001    1    1    2    0    0  0.25983247146E+01 -0.49447395087E+02  0.19655542012E+04  0.19676849631E+04  0.77000000000E+02 0.  0.
   -5000001    1    1    2    0    0 -0.25983247146E+01  0.49447395087E+02  0.11807165747E+04  0.11842602864E+04  0.77000000000E+02 0.  0.
<mgrwt>
<rscale>  0 0.18904777E+03</rscale>
<asrwt>0</asrwt>
<pdfrwt beam="1">  1        2 0.44987523E+00 0.18904777E+03</pdfrwt>
<pdfrwt beam="2">  1       -2 0.40531715E-03 0.18904777E+03</pdfrwt>
<totfact> 0.18023250E+04</totfact>
</mgrwt>
</event>
<event>
 4    1  0.1300812E-003  0.3080527E+03  0.7818608E-02  0.1081283E+00
          2   -1    0    0  501    0  0.00000000000E+00  0.00000000000E+00  0.10314810577E+04  0.10314810577E+04  0.25500000000E-02 0.  1.
         -2   -1    0    0    0  501 -0.00000000000E+00 -0.00000000000E+00 -0.23000053525E+02  0.23000053666E+02  0.25500000000E-02 0. -1.
    5000001    1    1    2    0    0 -0.71951534618E+02  0.98593110775E+02  0.31998303864E+03  0.35102103904E+03  0.77000000000E+02 0.  0.
   -5000001    1    1    2    0    0  0.71951534618E+02 -0.98593110775E+02  0.68849796554E+03  0.70346007234E+03  0.77000000000E+02 0.  0.
<mgrwt>
<rscale>  0 0.30805272E+03</rscale>
<asrwt>0</asrwt>
<pdfrwt beam="1">  1        2 0.14735447E+00 0.30805272E+03</pdfrwt>
<pdfrwt beam="2">  1       -2 0.32857212E-02 0.30805272E+03</pdfrwt>
<totfact> 0.10331350E+04</totfact>
</mgrwt>
</event>
<event>
 4    1  0.1300812E-003  0.2700039E+03  0.7818608E-02  0.1101277E+00
          2   -1    0    0  501    0  0.00000000000E+00  0.00000000000E+00  0.14500405609E+03  0.14500405611E+03  0.25500000000E-02 0.  1.
         -2   -1    0    0    0  501 -0.00000000000E+00 -0.00000000000E+00 -0.12568977817E+03  0.12568977819E+03  0.25500000000E-02 0. -1.
    5000001    1    1    2    0    0 -0.65016502621E+02  0.30035166976E+00 -0.80401633668E+02  0.12892113295E+03  0.77000000000E+02 0.  0.
   -5000001    1    1    2    0    0  0.65016502621E+02 -0.30035166976E+00  0.99715911589E+02  0.14177270135E+03  0.77000000000E+02 0.  0.
<mgrwt>
<rscale>  0 0.27000391E+03</rscale>
<asrwt>0</asrwt>
<pdfrwt beam="1">  1        2 0.20714865E-01 0.27000391E+03</pdfrwt>
<pdfrwt beam="2">  1       -2 0.17955683E-01 0.27000391E+03</pdfrwt>
<totfact> 0.66801770E+03</totfact>
</mgrwt>
</event>
<event>
 4    1  0.1300812E-003  0.1799143E+03  0.7818608E-02  0.1167886E+00
         -2   -1    0    0    0  501 -0.00000000000E+00  0.00000000000E+00  0.64415651673E+02  0.64415651723E+02  0.25500000000E-02 0.  1.
          2   -1    0    0  501    0  0.00000000000E+00 -0.00000000000E+00 -0.12562614011E+03  0.12562614014E+03  0.25500000000E-02 0. -1.
    5000001    1    1    2    0    0  0.58572581892E+01  0.44260066326E+02 -0.16831735611E+02  0.90584591782E+02  0.77000000000E+02 0.  0.
   -5000001    1    1    2    0    0 -0.58572581892E+01 -0.44260066326E+02 -0.44378752827E+02  0.99457200077E+02  0.77000000000E+02 0.  0.
<mgrwt>
<rscale>  0 0.17991431E+03</rscale>
<asrwt>0</asrwt>
<pdfrwt beam="1">  1        2 0.17946591E-01 0.17991431E+03</pdfrwt>
<pdfrwt beam="2">  1       -2 0.92022359E-02 0.17991431E+03</pdfrwt>
<totfact> 0.22705054E+04</totfact>
</mgrwt>
</event>
<event>
 4    1  0.1300812E-003  0.1777002E+03  0.7818608E-02  0.1170048E+00
         -2   -1    0    0    0  501 -0.00000000000E+00  0.00000000000E+00  0.57856447429E+01  0.57856453048E+01  0.25500000000E-02 0. -1.
          2   -1    0    0  501    0  0.00000000000E+00 -0.00000000000E+00 -0.13644695205E+04  0.13644695205E+04  0.25500000000E-02 0.  1.
    5000001    1    1    2    0    0 -0.42061942891E+02 -0.12812483220E+02 -0.63574241284E+03  0.64189623947E+03  0.77000000000E+02 0.  0.
   -5000001    1    1    2    0    0  0.42061942891E+02  0.12812483220E+02 -0.72294146293E+03  0.72835892634E+03  0.77000000000E+02 0.  0.
<mgrwt>
<rscale>  0 0.17770016E+03</rscale>
<asrwt>0</asrwt>
<pdfrwt beam="1">  1        2 0.19492401E+00 0.17770016E+03</pdfrwt>
<pdfrwt beam="2">  1       -2 0.82652159E-03 0.17770016E+03</pdfrwt>
<totfact> 0.49813774E+04</totfact>
</mgrwt>
</event>
<event>
 4    1  0.1300812E-003  0.1692052E+03  0.7818608E-02  0.1178679E+00
          2   -1    0    0  501    0  0.00000000000E+00  0.00000000000E+00  0.30682315212E+03  0.30682315213E+03  0.25500000000E-02 0.  1.
         -2   -1    0    0    0  501 -0.00000000000E+00 -0.00000000000E+00 -0.23328100613E+02  0.23328100752E+02  0.25500000000E-02 0. -1.
    5000001    1    1    2    0    0  0.31712508239E+02 -0.14481785680E+02  0.13465955568E+03  0.15898931169E+03  0.77000000000E+02 0.  0.
   -5000001    1    1    2    0    0 -0.31712508239E+02  0.14481785680E+02  0.14883549583E+03  0.17116194119E+03  0.77000000000E+02 0.  0.
<mgrwt>
<rscale>  0 0.16920522E+03</rscale>
<asrwt>0</asrwt>
<pdfrwt beam="1">  1        2 0.43831878E-01 0.16920522E+03</pdfrwt>
<pdfrwt beam="2">  1       -2 0.33325859E-02 0.16920522E+03</pdfrwt>
<totfact> 0.39551739E+04</totfact>
</mgrwt>
</event>
<event>
 4    1  0.1300812E-003  0.2746776E+03  0.7818608E-02  0.1098632E+00
         -2   -1    0    0    0  501 -0.00000000000E+00  0.00000000000E+00  0.50948191925E+02  0.50948191989E+02  0.25500000000E-02 0.  1.
          2   -1    0    0  501    0  0.00000000000E+00 -0.00000000000E+00 -0.37021820550E+03  0.37021820551E+03  0.25500000000E-02 0. -1.
    5000001    1    1    2    0    0  0.82897080056E+02 -0.76350184914E+02 -0.13629683515E+03  0.19289143032E+03  0.77000000000E+02 0.  0.
   -5000001    1    1    2    0    0 -0.82897080056E+02  0.76350184914E+02 -0.18297317842E+03  0.22827496718E+03  0.77000000000E+02 0.  0.
<mgrwt>
<rscale>  0 0.27467762E+03</rscale>
<asrwt>0</asrwt>
<pdfrwt beam="1">  1        2 0.52888314E-01 0.27467762E+03</pdfrwt>
<pdfrwt beam="2">  1       -2 0.72783133E-02 0.27467762E+03</pdfrwt>
<totfact> 0.10255491E+04</totfact>
</mgrwt>
</event>
<event>
 4    1  0.1300812E-003  0.2854514E+03  0.7818608E-02  0.1092748E+00
          2   -1    0    0  501    0  0.00000000000E+00  0.00000000000E+00  0.39258986028E+03  0.39258986029E+03  0.25500000000E-02 0.  1.
         -2   -1    0    0    0  501 -0.00000000000E+00 -0.00000000000E+00 -0.51887818802E+02  0.51887818864E+02  0.25500000000E-02 0. -1.
    5000001    1    1    2    0    0 -0.39725440263E+02  0.64483053693E+02  0.25068457161E+02  0.11087651853E+03  0.77000000000E+02 0.  0.
   -5000001    1    1    2    0    0  0.39725440263E+02 -0.64483053693E+02  0.31563358432E+03  0.33360116062E+03  0.77000000000E+02 0.  0.
<mgrwt>
<rscale>  0 0.28545144E+03</rscale>
<asrwt>0</asrwt>
<pdfrwt beam="1">  1        2 0.56084261E-01 0.28545144E+03</pdfrwt>
<pdfrwt beam="2">  1       -2 0.74125462E-02 0.28545144E+03</pdfrwt>
<totfact> 0.93707994E+03</totfact>
</mgrwt>
</event>
<event>
 4    1  0.1300812E-003  0.2853675E+03  0.7818608E-02  0.1092793E+00
          2   -1    0    0  501    0  0.00000000000E+00  0.00000000000E+00  0.20529396154E+04  0.20529396154E+04  0.25500000000E-02 0.  1.
         -2   -1    0    0    0  501 -0.00000000000E+00 -0.00000000000E+00 -0.99168277283E+01  0.99168280562E+01  0.25500000000E-02 0. -1.
    5000001    1    1    2    0    0 -0.95410719651E+02  0.72919836772E+02  0.99965607242E+03  0.10097830317E+04  0.77000000000E+02 0.  0.
   -5000001    1    1    2    0    0  0.95410719651E+02 -0.72919836772E+02  0.10433667153E+04  0.10530734118E+04  0.77000000000E+02 0.  0.
<mgrwt>
<rscale>  0 0.28536747E+03</rscale>
<asrwt>0</asrwt>
<pdfrwt beam="1">  1        2 0.29327751E+00 0.28536747E+03</pdfrwt>
<pdfrwt beam="2">  1       -2 0.14166877E-02 0.28536747E+03</pdfrwt>
<totfact> 0.10684312E+04</totfact>
</mgrwt>
</event>
<event>
 4    1  0.1300812E-003  0.1738458E+03  0.7818608E-02  0.1173896E+00
         -2   -1    0    0    0  501 -0.00000000000E+00  0.00000000000E+00  0.22215968550E+02  0.22215968697E+02  0.25500000000E-02 0. -1.
          2   -1    0    0  501    0  0.00000000000E+00 -0.00000000000E+00 -0.34009724541E+03  0.34009724542E+03  0.25500000000E-02 0.  1.
    5000001    1    1    2    0    0  0.29326836343E+02 -0.25018660966E+02 -0.18365229492E+03  0.20283777300E+03  0.77000000000E+02 0.  0.
   -5000001    1    1    2    0    0 -0.29326836343E+02  0.25018660966E+02 -0.13422898194E+03  0.15947544112E+03  0.77000000000E+02 0.  0.
<mgrwt>
<rscale>  0 0.17384579E+03</rscale>
<asrwt>0</asrwt>
<pdfrwt beam="1">  1        2 0.48585318E-01 0.17384579E+03</pdfrwt>
<pdfrwt beam="2">  1       -2 0.31737100E-02 0.17384579E+03</pdfrwt>
<totfact> 0.38200507E+04</totfact>
</mgrwt>
</event>
<event>
 4    1  0.1300812E-003  0.2749459E+03  0.7818608E-02  0.1098482E+00
          2   -1    0    0  501    0  0.00000000000E+00  0.00000000000E+00  0.12890578710E+03  0.12890578712E+03  0.25500000000E-02 0.  1.
         -2   -1    0    0    0  501 -0.00000000000E+00 -0.00000000000E+00 -0.14660944409E+03  0.14660944411E+03  0.25500000000E-02 0. -1.
    5000001    1    1    2    0    0 -0.87269719493E+02  0.68744540542E+02 -0.33963452470E+02  0.13937120183E+03  0.77000000000E+02 0.  0.
   -5000001    1    1    2    0    0  0.87269719493E+02 -0.68744540542E+02  0.16259795474E+02  0.13614402941E+03  0.77000000000E+02 0.  0.
<mgrwt>
<rscale>  0 0.27494585E+03</rscale>
<asrwt>0</asrwt>
<pdfrwt beam="1">  1        2 0.18415113E-01 0.27494585E+03</pdfrwt>
<pdfrwt beam="2">  1       -2 0.20944206E-01 0.27494585E+03</pdfrwt>
<totfact> 0.58869291E+03</totfact>
</mgrwt>
</event>
<event>
 4    1  0.1300812E-003  0.1854270E+03  0.7818608E-02  0.1162652E+00
          2   -1    0    0  501    0  0.00000000000E+00  0.00000000000E+00  0.59883117444E+02  0.59883117498E+02  0.25500000000E-02 0.  1.
         -2   -1    0    0    0  501 -0.00000000000E+00 -0.00000000000E+00 -0.14354289181E+03  0.14354289183E+03  0.25500000000E-02 0. -1.
    5000001    1    1    2    0    0  0.41625746111E+01 -0.51198337215E+02 -0.47655626199E+02  0.10410886355E+03  0.77000000000E+02 0.  0.
   -5000001    1    1    2    0    0 -0.41625746111E+01  0.51198337215E+02 -0.36004148167E+02  0.99317145782E+02  0.77000000000E+02 0.  0.
<mgrwt>
<rscale>  0 0.18542703E+03</rscale>
<asrwt>0</asrwt>
<pdfrwt beam="1">  1        2 0.85547311E-02 0.18542703E+03</pdfrwt>
<pdfrwt beam="2">  1       -2 0.20506127E-01 0.18542703E+03</pdfrwt>
<totfact> 0.15045702E+04</totfact>
</mgrwt>
</event>
<event>
 4    1  0.1300812E-003  0.2649402E+03  0.7818608E-02  0.1104211E+00
          2   -1    0    0  501    0  0.00000000000E+00  0.00000000000E+00  0.18009917037E+03  0.18009917039E+03  0.25500000000E-02 0.  1.
         -2   -1    0    0    0  501 -0.00000000000E+00 -0.00000000000E+00 -0.97437056481E+02  0.97437056514E+02  0.25500000000E-02 0. -1.
    5000001    1    1    2    0    0  0.67434804570E+02  0.37875915835E+02  0.11998258016E+03  0.16219388832E+03  0.77000000000E+02 0.  0.
   -5000001    1    1    2    0    0 -0.67434804570E+02 -0.37875915835E+02 -0.37320466264E+02  0.11534233858E+03  0.77000000000E+02 0.  0.
<mgrwt>
<rscale>  0 0.26494024E+03</rscale>
<asrwt>0</asrwt>
<pdfrwt beam="1">  1        2 0.25728453E-01 0.26494024E+03</pdfrwt>
<pdfrwt beam="2">  1       -2 0.13919579E-01 0.26494024E+03</pdfrwt>
<totfact> 0.79819981E+03</totfact>
</mgrwt>
</event>
<event>
 4    1  0.1300812E-003  0.2082637E+03  0.7818608E-02  0.1142948E+00
          2   -1    0    0  501    0  0.00000000000E+00  0.00000000000E+00  0.28828730236E+03  0.28828730237E+03  0.25500000000E-02 0.  1.
         -2   -1    0    0    0  501 -0.00000000000E+00 -0.00000000000E+00 -0.37613304095E+02  0.37613304182E+02  0.25500000000E-02 0. -1.
    5000001    1    1    2    0    0  0.67606262103E+02  0.15690155427E+02  0.14080052547E+03  0.17484443264E+03  0.77000000000E+02 0.  0.
   -5000001    1    1    2    0    0 -0.67606262103E+02 -0.15690155427E+02  0.10987347279E+03  0.15105617391E+03  0.77000000000E+02 0.  0.
<mgrwt>
<rscale>  0 0.20826366E+03</rscale>
<asrwt>0</asrwt>
<pdfrwt beam="1">  1        2 0.41183899E-01 0.20826366E+03</pdfrwt>
<pdfrwt beam="2">  1       -2 0.53733294E-02 0.20826366E+03</pdfrwt>
<totfact> 0.21030491E+04</totfact>
</mgrwt>
</event>
<event>
 4    1  0.1300812E-003  0.2412026E+03  0.7818608E-02  0.1118994E+00
          2   -1    0    0  501    0  0.00000000000E+00  0.00000000000E+00  0.18544737387E+02  0.18544737563E+02  0.25500000000E-02 0.  1.
         -2   -1    0    0    0  501 -0.00000000000E+00 -0.00000000000E+00 -0.78430177010E+03  0.78430177010E+03  0.25500000000E-02 0. -1.
    5000001    1    1    2    0    0  0.74909492719E+02  0.29921442901E+02 -0.53573479125E+03  0.54721795603E+03  0.77000000000E+02 0.  0.
   -5000001    1    1    2    0    0 -0.74909492719E+02 -0.29921442901E+02 -0.23002224146E+03  0.25562855163E+03  0.77000000000E+02 0.  0.
<mgrwt>
<rscale>  0 0.24120257E+03</rscale>
<asrwt>0</asrwt>
<pdfrwt beam="1">  1        2 0.26492487E-02 0.24120257E+03</pdfrwt>
<pdfrwt beam="2">  1       -2 0.11204309E+00 0.24120257E+03</pdfrwt>
<totfact> 0.24171346E+03</totfact>
</mgrwt>
</event>
<event>
 4    1  0.1300812E-003  0.2618563E+03  0.7818608E-02  0.1106033E+00
         -2   -1    0    0    0  501 -0.00000000000E+00  0.00000000000E+00  0.56334341329E+03  0.56334341330E+03  0.25500000000E-02 0. -1.
          2   -1    0    0  501    0  0.00000000000E+00 -0.00000000000E+00 -0.30429351712E+02  0.30429351819E+02  0.25500000000E-02 0.  1.
    5000001    1    1    2    0    0  0.65600724370E+02 -0.46701427183E+02  0.11052761922E+03  0.15693894656E+03  0.77000000000E+02 0.  0.
   -5000001    1    1    2    0    0 -0.65600724370E+02  0.46701427183E+02  0.42238644236E+03  0.43683381855E+03  0.77000000000E+02 0.  0.
<mgrwt>
<rscale>  0 0.26185626E+03</rscale>
<asrwt>0</asrwt>
<pdfrwt beam="1">  1        2 0.43470500E-02 0.26185626E+03</pdfrwt>
<pdfrwt beam="2">  1       -2 0.80477635E-01 0.26185626E+03</pdfrwt>
<totfact> 0.26528169E+03</totfact>
</mgrwt>
</event>
<event>
 4    1  0.1300812E-003  0.2638694E+03  0.7818608E-02  0.1104840E+00
          2   -1    0    0  501    0  0.00000000000E+00  0.00000000000E+00  0.42868506242E+02  0.42868506318E+02  0.25500000000E-02 0.  1.
         -2   -1    0    0    0  501 -0.00000000000E+00 -0.00000000000E+00 -0.40605034069E+03  0.40605034070E+03  0.25500000000E-02 0. -1.
    5000001    1    1    2    0    0  0.54842030210E+02 -0.45504388292E+02 -0.45493192173E+02  0.11435439723E+03  0.77000000000E+02 0.  0.
   -5000001    1    1    2    0    0 -0.54842030210E+02  0.45504388292E+02 -0.31768864228E+03  0.33456444979E+03  0.77000000000E+02 0.  0.
<mgrwt>
<rscale>  0 0.26386945E+03</rscale>
<asrwt>0</asrwt>
<pdfrwt beam="1">  1        2 0.61240726E-02 0.26386945E+03</pdfrwt>
<pdfrwt beam="2">  1       -2 0.58007189E-01 0.26386945E+03</pdfrwt>
<totfact> 0.33924600E+03</totfact>
</mgrwt>
</event>
<event>
 4    1  0.1300812E-003  0.4035021E+03  0.7818608E-02  0.1042574E+00
         -2   -1    0    0    0  501 -0.00000000000E+00  0.00000000000E+00  0.98073970499E+02  0.98073970532E+02  0.25500000000E-02 0. -1.
          2   -1    0    0  501    0  0.00000000000E+00 -0.00000000000E+00 -0.41502840747E+03  0.41502840747E+03  0.25500000000E-02 0.  1.
    5000001    1    1    2    0    0  0.12030191019E+03 -0.36111596971E+02  0.16794113941E+02  0.14828229596E+03  0.77000000000E+02 0.  0.
   -5000001    1    1    2    0    0 -0.12030191019E+03  0.36111596971E+02 -0.33374855091E+03  0.36482008205E+03  0.77000000000E+02 0.  0.
<mgrwt>
<rscale>  0 0.40350209E+03</rscale>
<asrwt>0</asrwt>
<pdfrwt beam="1">  1        2 0.59289772E-01 0.40350209E+03</pdfrwt>
<pdfrwt beam="2">  1       -2 0.14010567E-01 0.40350209E+03</pdfrwt>
<totfact> 0.32112952E+03</totfact>
</mgrwt>
</event>
<event>
 4    1  0.1300812E-003  0.3242389E+03  0.7818608E-02  0.1073715E+00
         -2   -1    0    0    0  501 -0.00000000000E+00  0.00000000000E+00  0.61484734421E+03  0.61484734422E+03  0.25500000000E-02 0. -1.
          2   -1    0    0  501    0  0.00000000000E+00 -0.00000000000E+00 -0.42746721873E+02  0.42746721949E+02  0.25500000000E-02 0.  1.
    5000001    1    1    2    0    0 -0.13540339148E+03  0.35371603325E+02  0.34227266589E+03  0.37770995031E+03  0.77000000000E+02 0.  0.
   -5000001    1    1    2    0    0  0.13540339148E+03 -0.35371603325E+02  0.22982795645E+03  0.27988411586E+03  0.77000000000E+02 0.  0.
<mgrwt>
<rscale>  0 0.32423885E+03</rscale>
<asrwt>0</asrwt>
<pdfrwt beam="1">  1        2 0.61066749E-02 0.32423885E+03</pdfrwt>
<pdfrwt beam="2">  1       -2 0.87835330E-01 0.32423885E+03</pdfrwt>
<totfact> 0.14009924E+03</totfact>
</mgrwt>
</event>
<event>
 4    1  0.1300812E-003  0.3813431E+03  0.7818608E-02  0.1050438E+00
         -2   -1    0    0    0  501 -0.00000000000E+00  0.00000000000E+00  0.20573723733E+04  0.20573723733E+04  0.25500000000E-02 0. -1.
          2   -1    0    0  501    0  0.00000000000E+00 -0.00000000000E+00 -0.17670907133E+02  0.17670907317E+02  0.25500000000E-02 0.  1.
    5000001    1    1    2    0    0  0.15146476943E+03 -0.48093380965E+02  0.14111816725E+04  0.14221874920E+04  0.77000000000E+02 0.  0.
   -5000001    1    1    2    0    0 -0.15146476943E+03  0.48093380965E+02  0.62851979370E+03  0.65285578862E+03  0.77000000000E+02 0.  0.
<mgrwt>
<rscale>  0 0.38134308E+03</rscale>
<asrwt>0</asrwt>
<pdfrwt beam="1">  1        2 0.25244157E-02 0.38134308E+03</pdfrwt>
<pdfrwt beam="2">  1       -2 0.29391029E+00 0.38134308E+03</pdfrwt>
<totfact> 0.15668974E+02</totfact>
</mgrwt>
</event>
<event>
 4    1  0.1300812E-003  0.1917795E+03  0.7818608E-02  0.1156866E+00
         -2   -1    0    0    0  501 -0.00000000000E+00  0.00000000000E+00  0.55607357640E+01  0.55607363486E+01  0.25500000000E-02 0. -1.
          2   -1    0    0  501    0  0.00000000000E+00 -0.00000000000E+00 -0.16535301627E+04  0.16535301627E+04  0.25500000000E-02 0.  1.
    5000001    1    1    2    0    0 -0.40788270179E+02  0.35931718879E+02 -0.67140407874E+03  0.67798761666E+03  0.77000000000E+02 0.  0.
   -5000001    1    1    2    0    0  0.40788270179E+02 -0.35931718879E+02 -0.97656534822E+03  0.98110328241E+03  0.77000000000E+02 0.  0.
<mgrwt>
<rscale>  0 0.19177951E+03</rscale>
<asrwt>0</asrwt>
<pdfrwt beam="1">  1        2 0.23621828E+00 0.19177951E+03</pdfrwt>
<pdfrwt beam="2">  1       -2 0.79439192E-03 0.19177951E+03</pdfrwt>
<totfact> 0.38063455E+04</totfact>
</mgrwt>
</event>
<event>
 4    1  0.1300812E-003  0.2190900E+03  0.7818608E-02  0.1134563E+00
         -2   -1    0    0    0  501 -0.00000000000E+00  0.00000000000E+00  0.46179225139E+01  0.46179232180E+01  0.25500000000E-02 0. -1.
          2   -1    0    0  501    0  0.00000000000E+00 -0.00000000000E+00 -0.25985942878E+04  0.25985942878E+04  0.25500000000E-02 0.  1.
    5000001    1    1    2    0    0 -0.10789931554E+02 -0.74174394079E+02 -0.15498373970E+04  0.15535582449E+04  0.77000000000E+02 0.  0.
   -5000001    1    1    2    0    0  0.10789931554E+02  0.74174394079E+02 -0.10441389684E+04  0.10496539661E+04  0.77000000000E+02 0.  0.
<mgrwt>
<rscale>  0 0.21909001E+03</rscale>
<asrwt>0</asrwt>
<pdfrwt beam="1">  1        2 0.37122682E+00 0.21909001E+03</pdfrwt>
<pdfrwt beam="2">  1       -2 0.65970493E-03 0.21909001E+03</pdfrwt>
<totfact> 0.17337930E+04</totfact>
</mgrwt>
</event>
<event>
 4    1  0.1300812E-003  0.1728100E+03  0.7818608E-02  0.1174949E+00
          2   -1    0    0  501    0  0.00000000000E+00  0.00000000000E+00  0.15918883421E+02  0.15918883625E+02  0.25500000000E-02 0.  1.
         -2   -1    0    0    0  501 -0.00000000000E+00 -0.00000000000E+00 -0.46899176031E+03  0.46899176032E+03  0.25500000000E-02 0. -1.
    5000001    1    1    2    0    0  0.37660713655E+02 -0.63993549648E+01 -0.25124612440E+03  0.26554264464E+03  0.77000000000E+02 0.  0.
   -5000001    1    1    2    0    0 -0.37660713655E+02  0.63993549648E+01 -0.20182675250E+03  0.21936799931E+03  0.77000000000E+02 0.  0.
<mgrwt>
<rscale>  0 0.17281001E+03</rscale>
<asrwt>0</asrwt>
<pdfrwt beam="1">  1        2 0.22741265E-02 0.17281001E+03</pdfrwt>
<pdfrwt beam="2">  1       -2 0.66998814E-01 0.17281001E+03</pdfrwt>
<totfact> 0.92185050E+03</totfact>
</mgrwt>
</event>
<event>
 4    1  0.1300812E-003  0.2316199E+03  0.7818608E-02  0.1125505E+00
         -2   -1    0    0    0  501 -0.00000000000E+00  0.00000000000E+00  0.21038462613E+02  0.21038462767E+02  0.25500000000E-02 0. -1.
          2   -1    0    0  501    0  0.00000000000E+00 -0.00000000000E+00 -0.63749642507E+03  0.63749642508E+03  0.25500000000E-02 0.  1.
    5000001    1    1    2    0    0 -0.78925839458E+02 -0.13327644792E+02 -0.40149323219E+03  0.41657259841E+03  0.77000000000E+02 0.  0.
   -5000001    1    1    2    0    0  0.78925839458E+02  0.13327644792E+02 -0.21496473027E+03  0.24196228944E+03  0.77000000000E+02 0.  0.
<mgrwt>
<rscale>  0 0.23161990E+03</rscale>
<asrwt>0</asrwt>
<pdfrwt beam="1">  1        2 0.91070906E-01 0.23161990E+03</pdfrwt>
<pdfrwt beam="2">  1       -2 0.30054951E-02 0.23161990E+03</pdfrwt>
<totfact> 0.21284780E+04</totfact>
</mgrwt>
</event>
<event>
 4    1  0.1300812E-003  0.2504198E+03  0.7818608E-02  0.1113040E+00
          2   -1    0    0  501    0  0.00000000000E+00  0.00000000000E+00  0.90395099771E+02  0.90395099807E+02  0.25500000000E-02 0.  1.
         -2   -1    0    0    0  501 -0.00000000000E+00 -0.00000000000E+00 -0.17343322578E+03  0.17343322580E+03  0.25500000000E-02 0. -1.
    5000001    1    1    2    0    0  0.55249929608E+02  0.72664262432E+02 -0.18763288731E+01  0.11943688863E+03  0.77000000000E+02 0.  0.
   -5000001    1    1    2    0    0 -0.55249929608E+02 -0.72664262432E+02 -0.81161797139E+02  0.14439143697E+03  0.77000000000E+02 0.  0.
<mgrwt>
<rscale>  0 0.25041976E+03</rscale>
<asrwt>0</asrwt>
<pdfrwt beam="1">  1        2 0.12913586E-01 0.25041976E+03</pdfrwt>
<pdfrwt beam="2">  1       -2 0.24776175E-01 0.25041976E+03</pdfrwt>
<totfact> 0.66557617E+03</totfact>
</mgrwt>
</event>
<event>
 4    1  0.1300812E-003  0.2726097E+03  0.7818608E-02  0.1099795E+00
         -2   -1    0    0    0  501 -0.00000000000E+00  0.00000000000E+00  0.12867957893E+02  0.12867958145E+02  0.25500000000E-02 0. -1.
          2   -1    0    0  501    0  0.00000000000E+00 -0.00000000000E+00 -0.14438198149E+04  0.14438198149E+04  0.25500000000E-02 0.  1.
    5000001    1    1    2    0    0 -0.24450216537E+02  0.97444842188E+02 -0.44528842836E+03  0.46292990267E+03  0.77000000000E+02 0.  0.
   -5000001    1    1    2    0    0  0.24450216537E+02 -0.97444842188E+02 -0.98566342862E+03  0.99375787034E+03  0.77000000000E+02 0.  0.
<mgrwt>
<rscale>  0 0.27260970E+03</rscale>
<asrwt>0</asrwt>
<pdfrwt beam="1">  1        2 0.20625987E+00 0.27260970E+03</pdfrwt>
<pdfrwt beam="2">  1       -2 0.18382806E-02 0.27260970E+03</pdfrwt>
<totfact> 0.14571070E+04</totfact>
</mgrwt>
</event>
<event>
 4    1  0.1300812E-003  0.3485700E+03  0.7818608E-02  0.1063204E+00
         -2   -1    0    0    0  501 -0.00000000000E+00  0.00000000000E+00  0.50938978978E+02  0.50938979042E+02  0.25500000000E-02 0. -1.
          2   -1    0    0  501    0  0.00000000000E+00 -0.00000000000E+00 -0.59630668898E+03  0.59630668898E+03  0.25500000000E-02 0.  1.
    5000001    1    1    2    0    0  0.49071566394E+02  0.14374154136E+03 -0.34157823602E+03  0.38167308087E+03  0.77000000000E+02 0.  0.
   -5000001    1    1    2    0    0 -0.49071566394E+02 -0.14374154136E+03 -0.20378947398E+03  0.26557258715E+03  0.77000000000E+02 0.  0.
<mgrwt>
<rscale>  0 0.34856996E+03</rscale>
<asrwt>0</asrwt>
<pdfrwt beam="1">  1        2 0.85186666E-01 0.34856996E+03</pdfrwt>
<pdfrwt beam="2">  1       -2 0.72769974E-02 0.34856996E+03</pdfrwt>
<totfact> 0.61040006E+03</totfact>
</mgrwt>
</event>
<event>
 4    1  0.1300812E-003  0.2127132E+03  0.7818608E-02  0.1139435E+00
         -2   -1    0    0    0  501 -0.00000000000E+00  0.00000000000E+00  0.75516343991E+03  0.75516343992E+03  0.25500000000E-02 0. -1.
          2   -1    0    0  501    0  0.00000000000E+00 -0.00000000000E+00 -0.14979182443E+02  0.14979182660E+02  0.25500000000E-02 0.  1.
    5000001    1    1    2    0    0  0.26864152984E+01 -0.72312910259E+02  0.32629116282E+03  0.34297419254E+03  0.77000000000E+02 0.  0.
   -5000001    1    1    2    0    0 -0.26864152984E+01  0.72312910259E+02  0.41389309466E+03  0.42716843004E+03  0.77000000000E+02 0.  0.
<mgrwt>
<rscale>  0 0.21271324E+03</rscale>
<asrwt>0</asrwt>
<pdfrwt beam="1">  1        2 0.21398837E-02 0.21271324E+03</pdfrwt>
<pdfrwt beam="2">  1       -2 0.10788047E+00 0.21271324E+03</pdfrwt>
<totfact> 0.35183968E+03</totfact>
</mgrwt>
</event>
<event>
 4    1  0.1300812E-003  0.8756257E+03  0.7818608E-02  0.9456574E-01
         -2   -1    0    0    0  501 -0.00000000000E+00  0.00000000000E+00  0.16247999787E+03  0.16247999789E+03  0.25500000000E-02 0. -1.
          2   -1    0    0  501    0  0.00000000000E+00 -0.00000000000E+00 -0.11797150967E+04  0.11797150967E+04  0.25500000000E-02 0.  1.
    5000001    1    1    2    0    0  0.38914606564E+02 -0.42920880892E+03 -0.50238015657E+03  0.66637029493E+03  0.77000000000E+02 0.  0.
   -5000001    1    1    2    0    0 -0.38914606564E+02  0.42920880892E+03 -0.51485494221E+03  0.67582479961E+03  0.77000000000E+02 0.  0.
<mgrwt>
<rscale>  0 0.87562573E+03</rscale>
<asrwt>0</asrwt>
<pdfrwt beam="1">  1        2 0.16853072E+00 0.87562573E+03</pdfrwt>
<pdfrwt beam="2">  1       -2 0.23211429E-01 0.87562573E+03</pdfrwt>
<totfact> 0.35999944E+02</totfact>
</mgrwt>
</event>
<event>
 4    1  0.1300812E-003  0.2793167E+03  0.7818608E-02  0.1096063E+00
          2   -1    0    0  501    0  0.00000000000E+00  0.00000000000E+00  0.63831202728E+02  0.63831202779E+02  0.25500000000E-02 0.  1.
         -2   -1    0    0    0  501 -0.00000000000E+00 -0.00000000000E+00 -0.30556302973E+03  0.30556302974E+03  0.25500000000E-02 0. -1.
    5000001    1    1    2    0    0 -0.67399434517E+01 -0.10462226439E+03 -0.53636835666E+02  0.14070236382E+03  0.77000000000E+02 0.  0.
   -5000001    1    1    2    0    0  0.67399434517E+01  0.10462226439E+03 -0.18809499133E+03  0.22869186870E+03  0.77000000000E+02 0.  0.
<mgrwt>
<rscale>  0 0.27931671E+03</rscale>
<asrwt>0</asrwt>
<pdfrwt beam="1">  1        2 0.91187435E-02 0.27931671E+03</pdfrwt>
<pdfrwt beam="2">  1       -2 0.43651860E-01 0.27931671E+03</pdfrwt>
<totfact> 0.36056963E+03</totfact>
</mgrwt>
</event>
<event>
 4    1  0.1300812E-003  0.2610901E+03  0.7818608E-02  0.1106490E+00
          2   -1    0    0  501    0  0.00000000000E+00  0.00000000000E+00  0.35856383092E+03  0.35856383092E+03  0.25500000000E-02 0.  1.
         -2   -1    0    0    0  501 -0.00000000000E+00 -0.00000000000E+00 -0.47528514864E+02  0.47528514933E+02  0.25500000000E-02 0. -1.
    5000001    1    1    2    0    0 -0.67431209248E+02 -0.42967855045E+02  0.26237302220E+03  0.28488911409E+03  0.77000000000E+02 0.  0.
   -5000001    1    1    2    0    0  0.67431209248E+02  0.42967855045E+02  0.48662293848E+02  0.12120323177E+03  0.77000000000E+02 0.  0.
<mgrwt>
<rscale>  0 0.26109007E+03</rscale>
<asrwt>0</asrwt>
<pdfrwt beam="1">  1        2 0.51223403E-01 0.26109007E+03</pdfrwt>
<pdfrwt beam="2">  1       -2 0.67897881E-02 0.26109007E+03</pdfrwt>
<totfact> 0.11793085E+04</totfact>
</mgrwt>
</event>
<event>
 4    1  0.1300812E-003  0.2279312E+03  0.7818608E-02  0.1128104E+00
         -2   -1    0    0    0  501 -0.00000000000E+00  0.00000000000E+00  0.29670337605E+02  0.29670337715E+02  0.25500000000E-02 0. -1.
          2   -1    0    0  501    0  0.00000000000E+00 -0.00000000000E+00 -0.43774875988E+03  0.43774875989E+03  0.25500000000E-02 0.  1.
    5000001    1    1    2    0    0 -0.34866212064E+02 -0.76388494976E+02 -0.19813168776E+03  0.22855200853E+03  0.77000000000E+02 0.  0.
   -5000001    1    1    2    0    0  0.34866212064E+02  0.76388494976E+02 -0.20994673451E+03  0.23886708907E+03  0.77000000000E+02 0.  0.
<mgrwt>
<rscale>  0 0.22793116E+03</rscale>
<asrwt>0</asrwt>
<pdfrwt beam="1">  1        2 0.62535533E-01 0.22793116E+03</pdfrwt>
<pdfrwt beam="2">  1       -2 0.42386199E-02 0.22793116E+03</pdfrwt>
<totfact> 0.19337394E+04</totfact>
</mgrwt>
</event>
<event>
 4    1  0.1300812E-003  0.3321736E+03  0.7818608E-02  0.1070179E+00
          2   -1    0    0  501    0  0.00000000000E+00  0.00000000000E+00  0.48793669634E+03  0.48793669635E+03  0.25500000000E-02 0.  1.
         -2   -1    0    0    0  501 -0.00000000000E+00 -0.00000000000E+00 -0.56533606453E+02  0.56533606511E+02  0.25500000000E-02 0. -1.
    5000001    1    1    2    0    0 -0.10061630947E+03  0.10704058077E+03  0.20155441430E+03  0.26102587915E+03  0.77000000000E+02 0.  0.
   -5000001    1    1    2    0    0  0.10061630947E+03 -0.10704058077E+03  0.22984867559E+03  0.28344442371E+03  0.77000000000E+02 0.  0.
<mgrwt>
<rscale>  0 0.33217358E+03</rscale>
<asrwt>0</asrwt>
<pdfrwt beam="1">  1        2 0.69705241E-01 0.33217358E+03</pdfrwt>
<pdfrwt beam="2">  1       -2 0.80762297E-02 0.33217358E+03</pdfrwt>
<totfact> 0.64938842E+03</totfact>
</mgrwt>
</event>
<event>
 4    1  0.1300812E-003  0.3151384E+03  0.7818608E-02  0.1077909E+00
          2   -1    0    0  501    0  0.00000000000E+00  0.00000000000E+00  0.10285795878E+04  0.10285795878E+04  0.25500000000E-02 0.  1.
         -2   -1    0    0    0  501 -0.00000000000E+00 -0.00000000000E+00 -0.24138196050E+02  0.24138196185E+02  0.25500000000E-02 0. -1.
    5000001    1    1    2    0    0  0.24535344923E+02 -0.11308778210E+03  0.75014350901E+03  0.76291225820E+03  0.77000000000E+02 0.  0.
   -5000001    1    1    2    0    0 -0.24535344923E+02  0.11308778210E+03  0.25429788276E+03  0.28980552580E+03  0.77000000000E+02 0.  0.
<mgrwt>
<rscale>  0 0.31513842E+03</rscale>
<asrwt>0</asrwt>
<pdfrwt beam="1">  1        2 0.14693991E+00 0.31513842E+03</pdfrwt>
<pdfrwt beam="2">  1       -2 0.34483144E-02 0.31513842E+03</pdfrwt>
<totfact> 0.96533365E+03</totfact>
</mgrwt>
</event>
<event>
 4    1  0.1300812E-003  0.2790049E+03  0.7818608E-02  0.1096234E+00
         -2   -1    0    0    0  501 -0.00000000000E+00  0.00000000000E+00  0.34326974167E+02  0.34326974262E+02  0.25500000000E-02 0. -1.
          2   -1    0    0  501    0  0.00000000000E+00 -0.00000000000E+00 -0.56692838242E+03  0.56692838243E+03  0.25500000000E-02 0.  1.
    5000001    1    1    2    0    0 -0.84810329573E+02  0.62951443283E+02 -0.37135022052E+03  0.39368218463E+03  0.77000000000E+02 0.  0.
   -5000001    1    1    2    0    0  0.84810329573E+02 -0.62951443283E+02 -0.16125118773E+03  0.20757317206E+03  0.77000000000E+02 0.  0.
<mgrwt>
<rscale>  0 0.27900492E+03</rscale>
<asrwt>0</asrwt>
<pdfrwt beam="1">  1        2 0.80989763E-01 0.27900492E+03</pdfrwt>
<pdfrwt beam="2">  1       -2 0.49038538E-02 0.27900492E+03</pdfrwt>
<totfact> 0.11784514E+04</totfact>
</mgrwt>
</event>
<event>
 4    1  0.1300812E-003  0.2177780E+03  0.7818608E-02  0.1135551E+00
          2   -1    0    0  501    0  0.00000000000E+00  0.00000000000E+00  0.12831164801E+03  0.12831164804E+03  0.25500000000E-02 0.  1.
         -2   -1    0    0    0  501 -0.00000000000E+00 -0.00000000000E+00 -0.92406340243E+02  0.92406340278E+02  0.25500000000E-02 0. -1.
    5000001    1    1    2    0    0  0.21054884737E+02  0.68739614119E+02 -0.99759799641E+01  0.10581570251E+03  0.77000000000E+02 0.  0.
   -5000001    1    1    2    0    0 -0.21054884737E+02 -0.68739614119E+02  0.45881287736E+02  0.11490228581E+03  0.77000000000E+02 0.  0.
<mgrwt>
<rscale>  0 0.21777796E+03</rscale>
<asrwt>0</asrwt>
<pdfrwt beam="1">  1        2 0.18330235E-01 0.21777796E+03</pdfrwt>
<pdfrwt beam="2">  1       -2 0.13200906E-01 0.21777796E+03</pdfrwt>
<totfact> 0.12641919E+04</totfact>
</mgrwt>
</event>
<event>
 4    1  0.1300812E-003  0.2975438E+03  0.7818608E-02  0.1086475E+00
         -2   -1    0    0    0  501 -0.00000000000E+00  0.00000000000E+00  0.14419765946E+02  0.14419766172E+02  0.25500000000E-02 0. -1.
          2   -1    0    0  501    0  0.00000000000E+00 -0.00000000000E+00 -0.15349124443E+04  0.15349124443E+04  0.25500000000E-02 0.  1.
    5000001    1    1    2    0    0  0.12172572293E+03 -0.20788259312E+02 -0.92114193941E+03  0.93256676752E+03  0.77000000000E+02 0.  0.
   -5000001    1    1    2    0    0 -0.12172572293E+03  0.20788259312E+02 -0.59935073897E+03  0.61676544297E+03  0.77000000000E+02 0.  0.
<mgrwt>
<rscale>  0 0.29754380E+03</rscale>
<asrwt>0</asrwt>
<pdfrwt beam="1">  1        2 0.21927310E+00 0.29754380E+03</pdfrwt>
<pdfrwt beam="2">  1       -2 0.20599676E-02 0.29754380E+03</pdfrwt>
<totfact> 0.11106124E+04</totfact>
</mgrwt>
</event>
<event>
 4    1  0.1300812E-003  0.3501433E+03  0.7818608E-02  0.1062556E+00
         -2   -1    0    0    0  501 -0.00000000000E+00  0.00000000000E+00  0.32814028964E+02  0.32814029063E+02  0.25500000000E-02 0. -1.
          2   -1    0    0  501    0  0.00000000000E+00 -0.00000000000E+00 -0.93405416256E+03  0.93405416256E+03  0.25500000000E-02 0.  1.
    5000001    1    1    2    0    0  0.31204541750E+02  0.13390017544E+03 -0.23999402884E+03  0.28710470962E+03  0.77000000000E+02 0.  0.
   -5000001    1    1    2    0    0 -0.31204541750E+02 -0.13390017544E+03 -0.66124610476E+03  0.67976348200E+03  0.77000000000E+02 0.  0.
<mgrwt>
<rscale>  0 0.35014329E+03</rscale>
<asrwt>0</asrwt>
<pdfrwt beam="1">  1        2 0.13343629E+00 0.35014329E+03</pdfrwt>
<pdfrwt beam="2">  1       -2 0.46877190E-02 0.35014329E+03</pdfrwt>
<totfact> 0.69326634E+03</totfact>
</mgrwt>
</event>
<event>
 4    1  0.1300812E-003  0.3826695E+03  0.7818608E-02  0.1049951E+00
         -2   -1    0    0    0  501 -0.00000000000E+00  0.00000000000E+00  0.21199328548E+03  0.21199328549E+03  0.25500000000E-02 0. -1.
          2   -1    0    0  501    0  0.00000000000E+00 -0.00000000000E+00 -0.17268940400E+03  0.17268940402E+03  0.25500000000E-02 0.  1.
    5000001    1    1    2    0    0 -0.16404234093E+03 -0.61085577663E+02  0.25902101764E+02  0.19297993753E+03  0.77000000000E+02 0.  0.
   -5000001    1    1    2    0    0  0.16404234093E+03  0.61085577663E+02  0.13401779716E+02  0.19170275197E+03  0.77000000000E+02 0.  0.
<mgrwt>
<rscale>  0 0.38266954E+03</rscale>
<asrwt>0</asrwt>
<pdfrwt beam="1">  1        2 0.24669915E-01 0.38266954E+03</pdfrwt>
<pdfrwt beam="2">  1       -2 0.30284755E-01 0.38266954E+03</pdfrwt>
<totfact> 0.22099191E+03</totfact>
</mgrwt>
</event>
<event>
 4    1  0.1300812E-003  0.2301255E+03  0.7818608E-02  0.1126551E+00
         -2   -1    0    0    0  501 -0.00000000000E+00  0.00000000000E+00  0.22854894946E+02  0.22854895089E+02  0.25500000000E-02 0. -1.
          2   -1    0    0  501    0  0.00000000000E+00 -0.00000000000E+00 -0.57928207547E+03  0.57928207547E+03  0.25500000000E-02 0.  1.
    5000001    1    1    2    0    0 -0.36385843218E+02 -0.46843408804E+02 -0.11708372171E+03  0.15217040588E+03  0.77000000000E+02 0.  0.
   -5000001    1    1    2    0    0  0.36385843218E+02  0.46843408804E+02 -0.43934345881E+03  0.44996656469E+03  0.77000000000E+02 0.  0.
<mgrwt>
<rscale>  0 0.23012545E+03</rscale>
<asrwt>0</asrwt>
<pdfrwt beam="1">  1        2 0.82754574E-01 0.23012545E+03</pdfrwt>
<pdfrwt beam="2">  1       -2 0.32649853E-02 0.23012545E+03</pdfrwt>
<totfact> 0.20982613E+04</totfact>
</mgrwt>
</event>
<event>
 4    1  0.1300812E-003  0.1633720E+03  0.7818608E-02  0.1184941E+00
          2   -1    0    0  501    0  0.00000000000E+00  0.00000000000E+00  0.12078281165E+04  0.12078281165E+04  0.25500000000E-02 0.  1.
         -2   -1    0    0    0  501 -0.00000000000E+00 -0.00000000000E+00 -0.55244664592E+01  0.55244670477E+01  0.25500000000E-02 0. -1.
    5000001    1    1    2    0    0  0.15579317827E+02 -0.22379167267E+02  0.59927286426E+03  0.60481444105E+03  0.77000000000E+02 0.  0.
   -5000001    1    1    2    0    0 -0.15579317827E+02  0.22379167267E+02  0.60303078582E+03  0.60853814254E+03  0.77000000000E+02 0.  0.
<mgrwt>
<rscale>  0 0.16337205E+03</rscale>
<asrwt>0</asrwt>
<pdfrwt beam="1">  1        2 0.17254681E+00 0.16337205E+03</pdfrwt>
<pdfrwt beam="2">  1       -2 0.78920982E-03 0.16337205E+03</pdfrwt>
<totfact> 0.63745478E+04</totfact>
</mgrwt>
</event>
<event>
 4    1  0.1300812E-003  0.2216321E+03  0.7818608E-02  0.1132672E+00
          2   -1    0    0  501    0  0.00000000000E+00  0.00000000000E+00  0.23613196592E+04  0.23613196592E+04  0.25500000000E-02 0.  1.
         -2   -1    0    0    0  501 -0.00000000000E+00 -0.00000000000E+00 -0.52005667216E+01  0.52005673468E+01  0.25500000000E-02 0. -1.
    5000001    1    1    2    0    0  0.69547783205E+02  0.36728505184E+02  0.10407675071E+04  0.10465714887E+04  0.77000000000E+02 0.  0.
   -5000001    1    1    2    0    0 -0.69547783205E+02 -0.36728505184E+02  0.13153515854E+04  0.13199487379E+04  0.77000000000E+02 0.  0.
<mgrwt>
<rscale>  0 0.22163214E+03</rscale>
<asrwt>0</asrwt>
<pdfrwt beam="1">  1        2 0.33733176E+00 0.22163214E+03</pdfrwt>
<pdfrwt beam="2">  1       -2 0.74293730E-03 0.22163214E+03</pdfrwt>
<totfact> 0.19154001E+04</totfact>
</mgrwt>
</event>
<event>
 4    1  0.1300812E-003  0.2656266E+03  0.7818608E-02  0.1103809E+00
         -2   -1    0    0    0  501 -0.00000000000E+00  0.00000000000E+00  0.23198631558E+02  0.23198631698E+02  0.25500000000E-02 0. -1.
          2   -1    0    0  501    0  0.00000000000E+00 -0.00000000000E+00 -0.76036274966E+03  0.76036274967E+03  0.25500000000E-02 0.  1.
    5000001    1    1    2    0    0  0.40707283617E+02 -0.49923989230E+01 -0.73177927152E+02  0.11386841533E+03  0.77000000000E+02 0.  0.
   -5000001    1    1    2    0    0 -0.40707283617E+02  0.49923989230E+01 -0.66398619095E+03  0.66969296604E+03  0.77000000000E+02 0.  0.
<mgrwt>
<rscale>  0 0.26562662E+03</rscale>
<asrwt>0</asrwt>
<pdfrwt beam="1">  1        2 0.10862323E+00 0.26562662E+03</pdfrwt>
<pdfrwt beam="2">  1       -2 0.33140907E-02 0.26562662E+03</pdfrwt>
<totfact> 0.15049273E+04</totfact>
</mgrwt>
</event>
<event>
 4    1  0.1300812E-003  0.2377611E+03  0.7818608E-02  0.1121293E+00
         -2   -1    0    0    0  501 -0.00000000000E+00  0.00000000000E+00  0.35435465637E+03  0.35435465638E+03  0.25500000000E-02 0. -1.
          2   -1    0    0  501    0  0.00000000000E+00 -0.00000000000E+00 -0.39882593873E+02  0.39882593955E+02  0.25500000000E-02 0.  1.
    5000001    1    1    2    0    0 -0.31082927016E+02  0.53970948867E+02  0.48195385038E+02  0.11013994195E+03  0.77000000000E+02 0.  0.
   -5000001    1    1    2    0    0  0.31082927016E+02 -0.53970948867E+02  0.26627667746E+03  0.28409730838E+03  0.77000000000E+02 0.  0.
<mgrwt>
<rscale>  0 0.23776108E+03</rscale>
<asrwt>0</asrwt>
<pdfrwt beam="1">  1        2 0.56975137E-02 0.23776108E+03</pdfrwt>
<pdfrwt beam="2">  1       -2 0.50622092E-01 0.23776108E+03</pdfrwt>
<totfact> 0.48897315E+03</totfact>
</mgrwt>
</event>
<event>
 4    1  0.1300812E-003  0.1859113E+03  0.7818608E-02  0.1162202E+00
         -2   -1    0    0    0  501 -0.00000000000E+00  0.00000000000E+00  0.10972944429E+02  0.10972944726E+02  0.25500000000E-02 0. -1.
          2   -1    0    0  501    0  0.00000000000E+00 -0.00000000000E+00 -0.78746018998E+03  0.78746018998E+03  0.25500000000E-02 0.  1.
    5000001    1    1    2    0    0  0.50922946330E+02  0.10075380701E+02 -0.40600170197E+03  0.41648654451E+03  0.77000000000E+02 0.  0.
   -5000001    1    1    2    0    0 -0.50922946330E+02 -0.10075380701E+02 -0.37048554358E+03  0.38194659020E+03  0.77000000000E+02 0.  0.
<mgrwt>
<rscale>  0 0.18591134E+03</rscale>
<asrwt>0</asrwt>
<pdfrwt beam="1">  1        2 0.11249428E+00 0.18591134E+03</pdfrwt>
<pdfrwt beam="2">  1       -2 0.15675640E-02 0.18591134E+03</pdfrwt>
<totfact> 0.42391547E+04</totfact>
</mgrwt>
</event>
<event>
 4    1  0.1300812E-003  0.3496795E+03  0.7818608E-02  0.1062747E+00
         -2   -1    0    0    0  501 -0.00000000000E+00  0.00000000000E+00  0.87666175523E+02  0.87666175560E+02  0.25500000000E-02 0. -1.
          2   -1    0    0  501    0  0.00000000000E+00 -0.00000000000E+00 -0.34869700591E+03  0.34869700592E+03  0.25500000000E-02 0.  1.
    5000001    1    1    2    0    0 -0.64298598857E+02 -0.10967689279E+03 -0.24540717147E+03  0.28690941155E+03  0.77000000000E+02 0.  0.
   -5000001    1    1    2    0    0  0.64298598857E+02  0.10967689279E+03 -0.15623658918E+02  0.14945376993E+03  0.77000000000E+02 0.  0.
<mgrwt>
<rscale>  0 0.34967947E+03</rscale>
<asrwt>0</asrwt>
<pdfrwt beam="1">  1        2 0.49813857E-01 0.34967947E+03</pdfrwt>
<pdfrwt beam="2">  1       -2 0.12523740E-01 0.34967947E+03</pdfrwt>
<totfact> 0.46562861E+03</totfact>
</mgrwt>
</event>
<event>
 4    1  0.1300812E-003  0.3632537E+03  0.7818608E-02  0.1057303E+00
         -2   -1    0    0    0  501 -0.00000000000E+00  0.00000000000E+00  0.15786073876E+02  0.15786074082E+02  0.25500000000E-02 0. -1.
          2   -1    0    0  501    0  0.00000000000E+00 -0.00000000000E+00 -0.20897100778E+04  0.20897100778E+04  0.25500000000E-02 0.  1.
    5000001    1    1    2    0    0 -0.82326127422E+02  0.75743724868E+02 -0.17359914674E+04  0.17412955171E+04  0.77000000000E+02 0.  0.
   -5000001    1    1    2    0    0  0.82326127422E+02 -0.75743724868E+02 -0.33793253660E+03  0.36420063482E+03  0.77000000000E+02 0.  0.
<mgrwt>
<rscale>  0 0.36325373E+03</rscale>
<asrwt>0</asrwt>
<pdfrwt beam="1">  1        2 0.29852984E+00 0.36325373E+03</pdfrwt>
<pdfrwt beam="2">  1       -2 0.22551548E-02 0.36325373E+03</pdfrwt>
<totfact> 0.51704239E+03</totfact>
</mgrwt>
</event>
<event>
 4    1  0.1300812E-003  0.2090283E+03  0.7818608E-02  0.1142338E+00
         -2   -1    0    0    0  501 -0.00000000000E+00  0.00000000000E+00  0.91578635248E+01  0.91578638798E+01  0.25500000000E-02 0. -1.
          2   -1    0    0  501    0  0.00000000000E+00 -0.00000000000E+00 -0.11927682207E+04  0.11927682207E+04  0.25500000000E-02 0.  1.
    5000001    1    1    2    0    0  0.57450731493E+02  0.32725282960E+02 -0.73528949868E+03  0.74226085547E+03  0.77000000000E+02 0.  0.
   -5000001    1    1    2    0    0 -0.57450731493E+02 -0.32725282960E+02 -0.44832085853E+03  0.45966522914E+03  0.77000000000E+02 0.  0.
<mgrwt>
<rscale>  0 0.20902831E+03</rscale>
<asrwt>0</asrwt>
<pdfrwt beam="1">  1        2 0.17039536E+00 0.20902831E+03</pdfrwt>
<pdfrwt beam="2">  1       -2 0.13082670E-02 0.20902831E+03</pdfrwt>
<totfact> 0.31967691E+04</totfact>
</mgrwt>
</event>
<event>
 4    1  0.1300812E-003  0.1919630E+03  0.7818608E-02  0.1156703E+00
         -2   -1    0    0    0  501 -0.00000000000E+00  0.00000000000E+00  0.15589833459E+04  0.15589833459E+04  0.25500000000E-02 0. -1.
          2   -1    0    0  501    0  0.00000000000E+00 -0.00000000000E+00 -0.59092686426E+01  0.59092691928E+01  0.25500000000E-02 0.  1.
    5000001    1    1    2    0    0 -0.58957175263E+01  0.42690142845E+02  0.10844045445E+04  0.10879887058E+04  0.77000000000E+02 0.  0.
   -5000001    1    1    2    0    0  0.58957175263E+01 -0.42690142845E+02  0.46866953278E+03  0.47690390933E+03  0.77000000000E+02 0.  0.
<mgrwt>
<rscale>  0 0.19196304E+03</rscale>
<asrwt>0</asrwt>
<pdfrwt beam="1">  1        2 0.84418230E-03 0.19196304E+03</pdfrwt>
<pdfrwt beam="2">  1       -2 0.22271164E+00 0.19196304E+03</pdfrwt>
<totfact> 0.18775560E+03</totfact>
</mgrwt>
</event>
<event>
 4    1  0.1300812E-003  0.1740891E+03  0.7818608E-02  0.1173649E+00
          2   -1    0    0  501    0  0.00000000000E+00  0.00000000000E+00  0.10875706050E+02  0.10875706348E+02  0.25500000000E-02 0.  1.
         -2   -1    0    0    0  501 -0.00000000000E+00 -0.00000000000E+00 -0.69666759396E+03  0.69666759396E+03  0.25500000000E-02 0. -1.
    5000001    1    1    2    0    0 -0.37686170292E+02  0.14424209397E+02 -0.32497314440E+03  0.33639983625E+03  0.77000000000E+02 0.  0.
   -5000001    1    1    2    0    0  0.37686170292E+02 -0.14424209397E+02 -0.36081874350E+03  0.37114346405E+03  0.77000000000E+02 0.  0.
<mgrwt>
<rscale>  0 0.17408908E+03</rscale>
<asrwt>0</asrwt>
<pdfrwt beam="1">  1        2 0.15536728E-02 0.17408908E+03</pdfrwt>
<pdfrwt beam="2">  1       -2 0.99523914E-01 0.17408908E+03</pdfrwt>
<totfact> 0.65047616E+03</totfact>
</mgrwt>
</event>
<event>
 4    1  0.1300812E-003  0.3720589E+03  0.7818608E-02  0.1053908E+00
          2   -1    0    0  501    0  0.00000000000E+00  0.00000000000E+00  0.14213024427E+04  0.14213024427E+04  0.25500000000E-02 0.  1.
         -2   -1    0    0    0  501 -0.00000000000E+00 -0.00000000000E+00 -0.24348768310E+02  0.24348768443E+02  0.25500000000E-02 0. -1.
    5000001    1    1    2    0    0 -0.89774480763E+02  0.64240373904E+02  0.19949557150E+03  0.24065279155E+03  0.77000000000E+02 0.  0.
   -5000001    1    1    2    0    0  0.89774480763E+02 -0.64240373904E+02  0.11974581029E+04  0.12049984196E+04  0.77000000000E+02 0.  0.
<mgrwt>
<rscale>  0 0.37205894E+03</rscale>
<asrwt>0</asrwt>
<pdfrwt beam="1">  1        2 0.20304321E+00 0.37205894E+03</pdfrwt>
<pdfrwt beam="2">  1       -2 0.34783954E-02 0.37205894E+03</pdfrwt>
<totfact> 0.58316451E+03</totfact>
</mgrwt>
</event>
<event>
 4    1  0.1300812E-003  0.3570863E+03  0.7818608E-02  0.1059744E+00
          2   -1    0    0  501    0  0.00000000000E+00  0.00000000000E+00  0.12886002528E+04  0.12886002528E+04  0.25500000000E-02 0.  1.
         -2   -1    0    0    0  501 -0.00000000000E+00 -0.00000000000E+00 -0.24738205924E+02  0.24738206055E+02  0.25500000000E-02 0. -1.
    5000001    1    1    2    0    0 -0.13200922807E+03  0.65387942807E+02  0.39225414583E+03  0.42602151857E+03  0.77000000000E+02 0.  0.
   -5000001    1    1    2    0    0  0.13200922807E+03 -0.65387942807E+02  0.87160790100E+03  0.88731694024E+03  0.77000000000E+02 0.  0.
<mgrwt>
<rscale>  0 0.35708631E+03</rscale>
<asrwt>0</asrwt>
<pdfrwt beam="1">  1        2 0.18408579E+00 0.35708631E+03</pdfrwt>
<pdfrwt beam="2">  1       -2 0.35340287E-02 0.35708631E+03</pdfrwt>
<totfact> 0.66832882E+03</totfact>
</mgrwt>
</event>
<event>
 4    1  0.1300812E-003  0.4309786E+03  0.7818608E-02  0.1033551E+00
         -2   -1    0    0    0  501 -0.00000000000E+00  0.00000000000E+00  0.13401353998E+03  0.13401354001E+03  0.25500000000E-02 0. -1.
          2   -1    0    0  501    0  0.00000000000E+00 -0.00000000000E+00 -0.34649952772E+03  0.34649952773E+03  0.25500000000E-02 0.  1.
    5000001    1    1    2    0    0  0.12954629910E+03 -0.13602460291E+03 -0.25676368214E+02  0.20462945070E+03  0.77000000000E+02 0.  0.
   -5000001    1    1    2    0    0 -0.12954629910E+03  0.13602460291E+03 -0.18680961953E+03  0.27588361705E+03  0.77000000000E+02 0.  0.
<mgrwt>
<rscale>  0 0.43097855E+03</rscale>
<asrwt>0</asrwt>
<pdfrwt beam="1">  1        2 0.49499932E-01 0.43097855E+03</pdfrwt>
<pdfrwt beam="2">  1       -2 0.19144791E-01 0.43097855E+03</pdfrwt>
<totfact> 0.23140420E+03</totfact>
</mgrwt>
</event>
<event>
 4    1  0.1300812E-003  0.5130878E+03  0.7818608E-02  0.1010418E+00
          2   -1    0    0  501    0  0.00000000000E+00  0.00000000000E+00  0.25364885139E+03  0.25364885141E+03  0.25500000000E-02 0.  1.
         -2   -1    0    0    0  501 -0.00000000000E+00 -0.00000000000E+00 -0.25947194982E+03  0.25947194984E+03  0.25500000000E-02 0. -1.
    5000001    1    1    2    0    0  0.22489864881E+03  0.66099528244E+02 -0.73181372766E+02  0.25735785046E+03  0.77000000000E+02 0.  0.
   -5000001    1    1    2    0    0 -0.22489864881E+03 -0.66099528244E+02  0.67358274336E+02  0.25576295078E+03  0.77000000000E+02 0.  0.
<mgrwt>
<rscale>  0 0.51308776E+03</rscale>
<asrwt>0</asrwt>
<pdfrwt beam="1">  1        2 0.36235550E-01 0.51308776E+03</pdfrwt>
<pdfrwt beam="2">  1       -2 0.37067421E-01 0.51308776E+03</pdfrwt>
<totfact> 0.98846868E+02</totfact>
</mgrwt>
</event>
<event>
 4    1  0.1300812E-003  0.2593822E+03  0.7818608E-02  0.1107515E+00
          2   -1    0    0  501    0  0.00000000000E+00  0.00000000000E+00  0.20431816012E+04  0.20431816012E+04  0.25500000000E-02 0.  1.
         -2   -1    0    0    0  501 -0.00000000000E+00 -0.00000000000E+00 -0.82321528182E+01  0.82321532132E+01  0.25500000000E-02 0. -1.
    5000001    1    1    2    0    0  0.81443079763E+02  0.46011269422E+02  0.13834048927E+04  0.13887001509E+04  0.77000000000E+02 0.  0.
   -5000001    1    1    2    0    0 -0.81443079763E+02 -0.46011269422E+02  0.65154455577E+03  0.66271360353E+03  0.77000000000E+02 0.  0.
<mgrwt>
<rscale>  0 0.25938222E+03</rscale>
<asrwt>0</asrwt>
<pdfrwt beam="1">  1        2 0.29188348E+00 0.25938222E+03</pdfrwt>
<pdfrwt beam="2">  1       -2 0.11760203E-02 0.25938222E+03</pdfrwt>
<totfact> 0.14146081E+04</totfact>
</mgrwt>
</event>
<event>
 4    1  0.1300812E-003  0.2092282E+03  0.7818608E-02  0.1142179E+00
         -2   -1    0    0    0  501 -0.00000000000E+00  0.00000000000E+00  0.30835203044E+02  0.30835203149E+02  0.25500000000E-02 0. -1.
          2   -1    0    0  501    0  0.00000000000E+00 -0.00000000000E+00 -0.35492260082E+03  0.35492260083E+03  0.25500000000E-02 0.  1.
    5000001    1    1    2    0    0  0.55090301477E+01  0.69076640406E+02 -0.18896316968E+03  0.21549480541E+03  0.77000000000E+02 0.  0.
   -5000001    1    1    2    0    0 -0.55090301477E+01 -0.69076640406E+02 -0.13512422810E+03  0.17026299857E+03  0.77000000000E+02 0.  0.
<mgrwt>
<rscale>  0 0.20922821E+03</rscale>
<asrwt>0</asrwt>
<pdfrwt beam="1">  1        2 0.50703226E-01 0.20922821E+03</pdfrwt>
<pdfrwt beam="2">  1       -2 0.44050292E-02 0.20922821E+03</pdfrwt>
<totfact> 0.22737533E+04</totfact>
</mgrwt>
</event>
<event>
 4    1  0.1300812E-003  0.2321253E+03  0.7818608E-02  0.1125153E+00
         -2   -1    0    0    0  501 -0.00000000000E+00  0.00000000000E+00  0.63063594628E+01  0.63063599784E+01  0.25500000000E-02 0. -1.
          2   -1    0    0  501    0  0.00000000000E+00 -0.00000000000E+00 -0.21360236933E+04  0.21360236933E+04  0.25500000000E-02 0.  1.
    5000001    1    1    2    0    0  0.35303762157E+00  0.58652468086E+02 -0.47380815301E+03  0.48359425401E+03  0.77000000000E+02 0.  0.
   -5000001    1    1    2    0    0 -0.35303762157E+00 -0.58652468086E+02 -0.16559091809E+04  0.16587357993E+04  0.77000000000E+02 0.  0.
<mgrwt>
<rscale>  0 0.23212526E+03</rscale>
<asrwt>0</asrwt>
<pdfrwt beam="1">  1        2 0.30514578E+00 0.23212526E+03</pdfrwt>
<pdfrwt beam="2">  1       -2 0.90090990E-03 0.23212526E+03</pdfrwt>
<totfact> 0.18703782E+04</totfact>
</mgrwt>
</event>
<event>
 4    1  0.1300812E-003  0.1996692E+03  0.7818608E-02  0.1150018E+00
         -2   -1    0    0    0  501 -0.00000000000E+00  0.00000000000E+00  0.33677464824E+01  0.33677474478E+01  0.25500000000E-02 0. -1.
          2   -1    0    0  501    0  0.00000000000E+00 -0.00000000000E+00 -0.29595302047E+04  0.29595302047E+04  0.25500000000E-02 0.  1.
    5000001    1    1    2    0    0  0.56674579142E+02  0.27595644562E+02 -0.15971836225E+04  0.16002806165E+04  0.77000000000E+02 0.  0.
   -5000001    1    1    2    0    0 -0.56674579142E+02 -0.27595644562E+02 -0.13589788358E+04  0.13626173357E+04  0.77000000000E+02 0.  0.
<mgrwt>
<rscale>  0 0.19966922E+03</rscale>
<asrwt>0</asrwt>
<pdfrwt beam="1">  1        2 0.42278836E+00 0.19966922E+03</pdfrwt>
<pdfrwt beam="2">  1       -2 0.48110861E-03 0.19966922E+03</pdfrwt>
<totfact> 0.17799918E+04</totfact>
</mgrwt>
</event>
<event>
 4    1  0.1300812E-003  0.2003345E+03  0.7818608E-02  0.1149457E+00
         -2   -1    0    0    0  501 -0.00000000000E+00  0.00000000000E+00  0.75473473038E+01  0.75473477346E+01  0.25500000000E-02 0. -1.
          2   -1    0    0  501    0  0.00000000000E+00 -0.00000000000E+00 -0.13294047027E+04  0.13294047027E+04  0.25500000000E-02 0.  1.
    5000001    1    1    2    0    0  0.12811564771E+02  0.56051635142E+02 -0.47234109349E+03  0.48201766627E+03  0.77000000000E+02 0.  0.
   -5000001    1    1    2    0    0 -0.12811564771E+02 -0.56051635142E+02 -0.84951626193E+03  0.85493438419E+03  0.77000000000E+02 0.  0.
<mgrwt>
<rscale>  0 0.20033451E+03</rscale>
<asrwt>0</asrwt>
<pdfrwt beam="1">  1        2 0.18991481E+00 0.20033451E+03</pdfrwt>
<pdfrwt beam="2">  1       -2 0.10781934E-02 0.20033451E+03</pdfrwt>
<totfact> 0.35727251E+04</totfact>
</mgrwt>
</event>
<event>
 4    1  0.1300812E-003  0.3243223E+03  0.7818608E-02  0.1073677E+00
         -2   -1    0    0    0  501 -0.00000000000E+00  0.00000000000E+00  0.20597480945E+03  0.20597480947E+03  0.25500000000E-02 0. -1.
          2   -1    0    0  501    0  0.00000000000E+00 -0.00000000000E+00 -0.12766722509E+03  0.12766722512E+03  0.25500000000E-02 0.  1.
    5000001    1    1    2    0    0  0.13960108874E+03 -0.29625660795E+02  0.40227141717E+02  0.16707293822E+03  0.77000000000E+02 0.  0.
   -5000001    1    1    2    0    0 -0.13960108874E+03  0.29625660795E+02  0.38080442640E+02  0.16656909637E+03  0.77000000000E+02 0.  0.
<mgrwt>
<rscale>  0 0.32432226E+03</rscale>
<asrwt>0</asrwt>
<pdfrwt beam="1">  1        2 0.18238175E-01 0.32432226E+03</pdfrwt>
<pdfrwt beam="2">  1       -2 0.29424973E-01 0.32432226E+03</pdfrwt>
<totfact> 0.32817087E+03</totfact>
</mgrwt>
</event>
<event>
 4    1  0.1300812E-003  0.2153315E+03  0.7818608E-02  0.1137412E+00
         -2   -1    0    0    0  501 -0.00000000000E+00  0.00000000000E+00  0.10423795965E+03  0.10423795968E+03  0.25500000000E-02 0. -1.
          2   -1    0    0  501    0  0.00000000000E+00 -0.00000000000E+00 -0.11120624926E+03  0.11120624928E+03  0.25500000000E-02 0.  1.
    5000001    1    1    2    0    0  0.47204763894E+02  0.58227568237E+02  0.31656184477E+01  0.10750702571E+03  0.77000000000E+02 0.  0.
   -5000001    1    1    2    0    0 -0.47204763894E+02 -0.58227568237E+02 -0.10133908050E+02  0.10793718326E+03  0.77000000000E+02 0.  0.
<mgrwt>
<rscale>  0 0.21533149E+03</rscale>
<asrwt>0</asrwt>
<pdfrwt beam="1">  1        2 0.15886607E-01 0.21533149E+03</pdfrwt>
<pdfrwt beam="2">  1       -2 0.14891137E-01 0.21533149E+03</pdfrwt>
<totfact> 0.12252381E+04</totfact>
</mgrwt>
</event>
<event>
 4    1  0.1300812E-003  0.2866322E+03  0.7818608E-02  0.1092121E+00
          2   -1    0    0  501    0  0.00000000000E+00  0.00000000000E+00  0.56429478543E+03  0.56429478544E+03  0.25500000000E-02 0.  1.
         -2   -1    0    0    0  501 -0.00000000000E+00 -0.00000000000E+00 -0.36398538455E+02  0.36398538544E+02  0.25500000000E-02 0. -1.
    5000001    1    1    2    0    0 -0.23336221967E+02  0.96038045335E+02  0.11811102444E+03  0.17218333108E+03  0.77000000000E+02 0.  0.
   -5000001    1    1    2    0    0  0.23336221967E+02 -0.96038045335E+02  0.40978522253E+03  0.42850999290E+03  0.77000000000E+02 0.  0.
<mgrwt>
<rscale>  0 0.28663221E+03</rscale>
<asrwt>0</asrwt>
<pdfrwt beam="1">  1        2 0.80613538E-01 0.28663221E+03</pdfrwt>
<pdfrwt beam="2">  1       -2 0.51997914E-02 0.28663221E+03</pdfrwt>
<totfact> 0.10847938E+04</totfact>
</mgrwt>
</event>
<event>
 4    1  0.1300812E-003  0.2726647E+03  0.7818608E-02  0.1099764E+00
         -2   -1    0    0    0  501 -0.00000000000E+00  0.00000000000E+00  0.45268037326E+02  0.45268037398E+02  0.25500000000E-02 0. -1.
          2   -1    0    0  501    0  0.00000000000E+00 -0.00000000000E+00 -0.41058795430E+03  0.41058795431E+03  0.25500000000E-02 0.  1.
    5000001    1    1    2    0    0 -0.52540311546E+02 -0.73822835699E+02 -0.29415173149E+03  0.31727675071E+03  0.77000000000E+02 0.  0.
   -5000001    1    1    2    0    0  0.52540311546E+02  0.73822835699E+02 -0.71168185489E+02  0.13857924099E+03  0.77000000000E+02 0.  0.
<mgrwt>
<rscale>  0 0.27266471E+03</rscale>
<asrwt>0</asrwt>
<pdfrwt beam="1">  1        2 0.58655420E-01 0.27266471E+03</pdfrwt>
<pdfrwt beam="2">  1       -2 0.64668627E-02 0.27266471E+03</pdfrwt>
<totfact> 0.11005975E+04</totfact>
</mgrwt>
</event>
<event>
 4    1  0.1300812E-003  0.1644740E+03  0.7818608E-02  0.1183736E+00
          2   -1    0    0  501    0  0.00000000000E+00  0.00000000000E+00  0.19191163763E+04  0.19191163763E+04  0.25500000000E-02 0.  1.
         -2   -1    0    0    0  501 -0.00000000000E+00 -0.00000000000E+00 -0.35239758598E+01  0.35239767825E+01  0.25500000000E-02 0. -1.
    5000001    1    1    2    0    0 -0.85227474849E+01  0.25309632050E+02  0.10862258473E+04  0.10892790304E+04  0.77000000000E+02 0.  0.
   -5000001    1    1    2    0    0  0.85227474849E+01 -0.25309632050E+02  0.82936655315E+03  0.83336132271E+03  0.77000000000E+02 0.  0.
<mgrwt>
<rscale>  0 0.16447396E+03</rscale>
<asrwt>0</asrwt>
<pdfrwt beam="1">  1        2 0.27415906E+00 0.16447396E+03</pdfrwt>
<pdfrwt beam="2">  1       -2 0.50342596E-03 0.16447396E+03</pdfrwt>
<totfact> 0.53813867E+04</totfact>
</mgrwt>
</event>
<event>
 4    1  0.1300812E-003  0.3574272E+03  0.7818608E-02  0.1059607E+00
         -2   -1    0    0    0  501 -0.00000000000E+00  0.00000000000E+00  0.31017662805E+03  0.31017662806E+03  0.25500000000E-02 0. -1.
          2   -1    0    0  501    0  0.00000000000E+00 -0.00000000000E+00 -0.10296891265E+03  0.10296891268E+03  0.25500000000E-02 0.  1.
    5000001    1    1    2    0    0 -0.13242037430E+02  0.14371040774E+03  0.18680780893E+03  0.24830261845E+03  0.77000000000E+02 0.  0.
   -5000001    1    1    2    0    0  0.13242037430E+02 -0.14371040774E+03  0.20399906469E+02  0.16484292230E+03  0.77000000000E+02 0.  0.
<mgrwt>
<rscale>  0 0.35742720E+03</rscale>
<asrwt>0</asrwt>
<pdfrwt beam="1">  1        2 0.14709845E-01 0.35742720E+03</pdfrwt>
<pdfrwt beam="2">  1       -2 0.44310946E-01 0.35742720E+03</pdfrwt>
<totfact> 0.19594141E+03</totfact>
</mgrwt>
</event>
<event>
 4    1  0.1300812E-003  0.2445029E+03  0.7818608E-02  0.1116829E+00
         -2   -1    0    0    0  501 -0.00000000000E+00  0.00000000000E+00  0.22279593023E+02  0.22279593169E+02  0.25500000000E-02 0. -1.
          2   -1    0    0  501    0  0.00000000000E+00 -0.00000000000E+00 -0.67081218728E+03  0.67081218728E+03  0.25500000000E-02 0.  1.
    5000001    1    1    2    0    0  0.92111697028E+02  0.98855500918E+01 -0.26520289927E+03  0.29127970511E+03  0.77000000000E+02 0.  0.
   -5000001    1    1    2    0    0 -0.92111697028E+02 -0.98855500918E+01 -0.38332969499E+03  0.40181207534E+03  0.77000000000E+02 0.  0.
<mgrwt>
<rscale>  0 0.24450295E+03</rscale>
<asrwt>0</asrwt>
<pdfrwt beam="1">  1        2 0.95830300E-01 0.24450295E+03</pdfrwt>
<pdfrwt beam="2">  1       -2 0.31827994E-02 0.24450295E+03</pdfrwt>
<totfact> 0.18481682E+04</totfact>
</mgrwt>
</event>
<event>
 4    1  0.1300812E-003  0.2520457E+03  0.7818608E-02  0.1112019E+00
          2   -1    0    0  501    0  0.00000000000E+00  0.00000000000E+00  0.11117306030E+04  0.11117306030E+04  0.25500000000E-02 0.  1.
         -2   -1    0    0    0  501 -0.00000000000E+00 -0.00000000000E+00 -0.14285615019E+02  0.14285615246E+02  0.25500000000E-02 0. -1.
    5000001    1    1    2    0    0  0.96442379533E+00 -0.99756245781E+02  0.54551072193E+03  0.55987783170E+03  0.77000000000E+02 0.  0.
   -5000001    1    1    2    0    0 -0.96442379533E+00  0.99756245781E+02  0.55193426602E+03  0.56613838653E+03  0.77000000000E+02 0.  0.
<mgrwt>
<rscale>  0 0.25204567E+03</rscale>
<asrwt>0</asrwt>
<pdfrwt beam="1">  1        2 0.15881869E+00 0.25204567E+03</pdfrwt>
<pdfrwt beam="2">  1       -2 0.20408017E-02 0.25204567E+03</pdfrwt>
<totfact> 0.18699041E+04</totfact>
</mgrwt>
</event>
<event>
 4    1  0.1300812E-003  0.1790485E+03  0.7818608E-02  0.1168727E+00
          2   -1    0    0  501    0  0.00000000000E+00  0.00000000000E+00  0.19340743725E+03  0.19340743727E+03  0.25500000000E-02 0.  1.
         -2   -1    0    0    0  501 -0.00000000000E+00 -0.00000000000E+00 -0.41438878787E+02  0.41438878865E+02  0.25500000000E-02 0. -1.
    5000001    1    1    2    0    0  0.28325739253E+02  0.35822286074E+02  0.75904752631E+02  0.11737169657E+03  0.77000000000E+02 0.  0.
   -5000001    1    1    2    0    0 -0.28325739253E+02 -0.35822286074E+02  0.76063805836E+02  0.11747461957E+03  0.77000000000E+02 0.  0.
<mgrwt>
<rscale>  0 0.17904846E+03</rscale>
<asrwt>0</asrwt>
<pdfrwt beam="1">  1        2 0.27629634E-01 0.17904846E+03</pdfrwt>
<pdfrwt beam="2">  1       -2 0.59198398E-02 0.17904846E+03</pdfrwt>
<totfact> 0.27617819E+04</totfact>
</mgrwt>
</event>
<event>
 4    1  0.1300812E-003  0.1749167E+03  0.7818608E-02  0.1172815E+00
         -2   -1    0    0    0  501 -0.00000000000E+00  0.00000000000E+00  0.32547558173E+02  0.32547558273E+02  0.25500000000E-02 0. -1.
          2   -1    0    0  501    0  0.00000000000E+00 -0.00000000000E+00 -0.23500875402E+03  0.23500875403E+03  0.25500000000E-02 0.  1.
    5000001    1    1    2    0    0  0.20545801355E+02 -0.15957255812E+02 -0.15063517360E+03  0.17116284495E+03  0.77000000000E+02 0.  0.
   -5000001    1    1    2    0    0 -0.20545801355E+02  0.15957255812E+02 -0.51826022243E+02  0.96393467351E+02  0.77000000000E+02 0.  0.
<mgrwt>
<rscale>  0 0.17491668E+03</rscale>
<asrwt>0</asrwt>
<pdfrwt beam="1">  1        2 0.33572678E-01 0.17491668E+03</pdfrwt>
<pdfrwt beam="2">  1       -2 0.46496513E-02 0.17491668E+03</pdfrwt>
<totfact> 0.32125920E+04</totfact>
</mgrwt>
</event>
<event>
 4    1  0.1300812E-003  0.2397196E+03  0.7818608E-02  0.1119980E+00
          2   -1    0    0  501    0  0.00000000000E+00  0.00000000000E+00  0.44101016867E+03  0.44101016868E+03  0.25500000000E-02 0.  1.
         -2   -1    0    0    0  501 -0.00000000000E+00 -0.00000000000E+00 -0.32576046589E+02  0.32576046689E+02  0.25500000000E-02 0. -1.
    5000001    1    1    2    0    0  0.25279021793E+02 -0.83401506622E+02  0.26156101418E+03  0.28624815176E+03  0.77000000000E+02 0.  0.
   -5000001    1    1    2    0    0 -0.25279021793E+02  0.83401506622E+02  0.14687310790E+03  0.18733806360E+03  0.77000000000E+02 0.  0.
<mgrwt>
<rscale>  0 0.23971957E+03</rscale>
<asrwt>0</asrwt>
<pdfrwt beam="1">  1        2 0.63001447E-01 0.23971957E+03</pdfrwt>
<pdfrwt beam="2">  1       -2 0.46537213E-02 0.23971957E+03</pdfrwt>
<totfact> 0.16713791E+04</totfact>
</mgrwt>
</event>
<event>
 4    1  0.1300812E-003  0.1941836E+03  0.7818608E-02  0.1154741E+00
          2   -1    0    0  501    0  0.00000000000E+00  0.00000000000E+00  0.65916913148E+03  0.65916913149E+03  0.25500000000E-02 0.  1.
         -2   -1    0    0    0  501 -0.00000000000E+00 -0.00000000000E+00 -0.14301066240E+02  0.14301066468E+02  0.25500000000E-02 0. -1.
    5000001    1    1    2    0    0 -0.26857487279E+02  0.48573594013E+02  0.39326567546E+03  0.40455853737E+03  0.77000000000E+02 0.  0.
   -5000001    1    1    2    0    0  0.26857487279E+02 -0.48573594013E+02  0.25160238978E+03  0.26891166059E+03  0.77000000000E+02 0.  0.
<mgrwt>
<rscale>  0 0.19418364E+03</rscale>
<asrwt>0</asrwt>
<pdfrwt beam="1">  1        2 0.94167046E-01 0.19418364E+03</pdfrwt>
<pdfrwt beam="2">  1       -2 0.20430089E-02 0.19418364E+03</pdfrwt>
<totfact> 0.35707593E+04</totfact>
</mgrwt>
</event>
<event>
 4    1  0.1300812E-003  0.1932524E+03  0.7818608E-02  0.1155560E+00
          2   -1    0    0  501    0  0.00000000000E+00  0.00000000000E+00  0.54031756063E+02  0.54031756123E+02  0.25500000000E-02 0.  1.
         -2   -1    0    0    0  501 -0.00000000000E+00 -0.00000000000E+00 -0.17279887241E+03  0.17279887243E+03  0.25500000000E-02 0. -1.
    5000001    1    1    2    0    0 -0.39477922349E+02  0.36631976658E+02 -0.32948867409E+02  0.99574273436E+02  0.77000000000E+02 0.  0.
   -5000001    1    1    2    0    0  0.39477922349E+02 -0.36631976658E+02 -0.85818248939E+02  0.12725635512E+03  0.77000000000E+02 0.  0.
<mgrwt>
<rscale>  0 0.19325244E+03</rscale>
<asrwt>0</asrwt>
<pdfrwt beam="1">  1        2 0.77188224E-02 0.19325244E+03</pdfrwt>
<pdfrwt beam="2">  1       -2 0.24685553E-01 0.19325244E+03</pdfrwt>
<totfact> 0.12470513E+04</totfact>
</mgrwt>
</event>
<event>
 4    1  0.1300812E-003  0.2927255E+03  0.7818608E-02  0.1088935E+00
         -2   -1    0    0    0  501 -0.00000000000E+00  0.00000000000E+00  0.56932096334E+02  0.56932096391E+02  0.25500000000E-02 0. -1.
          2   -1    0    0  501    0  0.00000000000E+00 -0.00000000000E+00 -0.37627368654E+03  0.37627368655E+03  0.25500000000E-02 0.  1.
    5000001    1    1    2    0    0 -0.11182541621E+02  0.11200964540E+03 -0.23828479999E+03  0.27455392150E+03  0.77000000000E+02 0.  0.
   -5000001    1    1    2    0    0  0.11182541621E+02 -0.11200964540E+03 -0.81056790214E+02  0.15865186145E+03  0.77000000000E+02 0.  0.
<mgrwt>
<rscale>  0 0.29272547E+03</rscale>
<asrwt>0</asrwt>
<pdfrwt beam="1">  1        2 0.53753382E-01 0.29272547E+03</pdfrwt>
<pdfrwt beam="2">  1       -2 0.81331569E-02 0.29272547E+03</pdfrwt>
<totfact> 0.84965997E+03</totfact>
</mgrwt>
</event>
<event>
 4    1  0.1300812E-003  0.2506063E+03  0.7818608E-02  0.1112922E+00
         -2   -1    0    0    0  501 -0.00000000000E+00  0.00000000000E+00  0.93758063590E+01  0.93758067058E+01  0.25500000000E-02 0. -1.
          2   -1    0    0  501    0  0.00000000000E+00 -0.00000000000E+00 -0.16746158331E+04  0.16746158331E+04  0.25500000000E-02 0.  1.
    5000001    1    1    2    0    0 -0.82384607128E+02  0.32528130981E+01 -0.46616252750E+03  0.47961891781E+03  0.77000000000E+02 0.  0.
   -5000001    1    1    2    0    0  0.82384607128E+02 -0.32528130981E+01 -0.11990774993E+04  0.12043727220E+04  0.77000000000E+02 0.  0.
<mgrwt>
<rscale>  0 0.25060626E+03</rscale>
<asrwt>0</asrwt>
<pdfrwt beam="1">  1        2 0.23923064E+00 0.25060626E+03</pdfrwt>
<pdfrwt beam="2">  1       -2 0.13394020E-02 0.25060626E+03</pdfrwt>
<totfact> 0.17695343E+04</totfact>
</mgrwt>
</event>
<event>
 4    1  0.1300812E-003  0.2469600E+03  0.7818608E-02  0.1115241E+00
          2   -1    0    0  501    0  0.00000000000E+00  0.00000000000E+00  0.14055618006E+04  0.14055618006E+04  0.25500000000E-02 0.  1.
         -2   -1    0    0    0  501 -0.00000000000E+00 -0.00000000000E+00 -0.10847844770E+02  0.10847845070E+02  0.25500000000E-02 0. -1.
    5000001    1    1    2    0    0 -0.17871437560E+02  0.54301425849E+02  0.11434752679E+04  0.11474897479E+04  0.77000000000E+02 0.  0.
   -5000001    1    1    2    0    0  0.17871437560E+02 -0.54301425849E+02  0.25123868791E+03  0.26891989780E+03  0.77000000000E+02 0.  0.
<mgrwt>
<rscale>  0 0.24696005E+03</rscale>
<asrwt>0</asrwt>
<pdfrwt beam="1">  1        2 0.20079454E+00 0.24696005E+03</pdfrwt>
<pdfrwt beam="2">  1       -2 0.15496922E-02 0.24696005E+03</pdfrwt>
<totfact> 0.19500053E+04</totfact>
</mgrwt>
</event>
<event>
 4    1  0.1300812E-003  0.1875591E+03  0.7818608E-02  0.1160681E+00
          2   -1    0    0  501    0  0.00000000000E+00  0.00000000000E+00  0.16723194559E+04  0.16723194559E+04  0.25500000000E-02 0.  1.
         -2   -1    0    0    0  501 -0.00000000000E+00 -0.00000000000E+00 -0.52589252795E+01  0.52589258978E+01  0.25500000000E-02 0. -1.
    5000001    1    1    2    0    0 -0.38388598221E+02  0.37072796748E+02  0.79608502432E+03  0.80157871896E+03  0.77000000000E+02 0.  0.
   -5000001    1    1    2    0    0  0.38388598221E+02 -0.37072796748E+02  0.87097550633E+03  0.87599966287E+03  0.77000000000E+02 0.  0.
<mgrwt>
<rscale>  0 0.18755910E+03</rscale>
<asrwt>0</asrwt>
<pdfrwt beam="1">  1        2 0.23890303E+00 0.18755910E+03</pdfrwt>
<pdfrwt beam="2">  1       -2 0.75127428E-03 0.18755910E+03</pdfrwt>
<totfact> 0.40317661E+04</totfact>
</mgrwt>
</event>
<event>
 4    1  0.1300812E-003  0.3261715E+03  0.7818608E-02  0.1072844E+00
          2   -1    0    0  501    0  0.00000000000E+00  0.00000000000E+00  0.12304926651E+03  0.12304926653E+03  0.25500000000E-02 0.  1.
         -2   -1    0    0    0  501 -0.00000000000E+00 -0.00000000000E+00 -0.21614888751E+03  0.21614888753E+03  0.25500000000E-02 0. -1.
    5000001    1    1    2    0    0 -0.11578115877E+03  0.59836213369E+02  0.16555776811E+02  0.15227850440E+03  0.77000000000E+02 0.  0.
   -5000001    1    1    2    0    0  0.11578115877E+03 -0.59836213369E+02 -0.10965539782E+03  0.18691964966E+03  0.77000000000E+02 0.  0.
<mgrwt>
<rscale>  0 0.32617150E+03</rscale>
<asrwt>0</asrwt>
<pdfrwt beam="1">  1        2 0.17578467E-01 0.32617150E+03</pdfrwt>
<pdfrwt beam="2">  1       -2 0.30878412E-01 0.32617150E+03</pdfrwt>
<totfact> 0.31378162E+03</totfact>
</mgrwt>
</event>
<event>
 4    1  0.1300812E-003  0.4493415E+03  0.7818608E-02  0.1027919E+00
         -2   -1    0    0    0  501 -0.00000000000E+00  0.00000000000E+00  0.20963990740E+03  0.20963990742E+03  0.25500000000E-02 0. -1.
          2   -1    0    0  501    0  0.00000000000E+00 -0.00000000000E+00 -0.24077927313E+03  0.24077927314E+03  0.25500000000E-02 0.  1.
    5000001    1    1    2    0    0  0.15692430491E+03  0.13204683938E+03 -0.65552478772E+02  0.22866511044E+03  0.77000000000E+02 0.  0.
   -5000001    1    1    2    0    0 -0.15692430491E+03 -0.13204683938E+03  0.34413113047E+02  0.22175407011E+03  0.77000000000E+02 0.  0.
<mgrwt>
<rscale>  0 0.44934149E+03</rscale>
<asrwt>0</asrwt>
<pdfrwt beam="1">  1        2 0.34397039E-01 0.44934149E+03</pdfrwt>
<pdfrwt beam="2">  1       -2 0.29948558E-01 0.44934149E+03</pdfrwt>
<totfact> 0.15596956E+03</totfact>
</mgrwt>
</event>
<event>
 4    1  0.1300812E-003  0.5236097E+03  0.7818608E-02  0.1007794E+00
         -2   -1    0    0    0  501 -0.00000000000E+00  0.00000000000E+00  0.16023234034E+03  0.16023234036E+03  0.25500000000E-02 0. -1.
          2   -1    0    0  501    0  0.00000000000E+00 -0.00000000000E+00 -0.42776492202E+03  0.42776492202E+03  0.25500000000E-02 0.  1.
    5000001    1    1    2    0    0 -0.35141363397E+02  0.23601679206E+03 -0.21835448213E+03  0.33248537024E+03  0.77000000000E+02 0.  0.
   -5000001    1    1    2    0    0  0.35141363397E+02 -0.23601679206E+03 -0.49178099543E+02  0.25551189215E+03  0.77000000000E+02 0.  0.
<mgrwt>
<rscale>  0 0.52360968E+03</rscale>
<asrwt>0</asrwt>
<pdfrwt beam="1">  1        2 0.61109274E-01 0.52360968E+03</pdfrwt>
<pdfrwt beam="2">  1       -2 0.22890334E-01 0.52360968E+03</pdfrwt>
<totfact> 0.13452852E+03</totfact>
</mgrwt>
</event>
<event>
 4    1  0.1300812E-003  0.2253222E+03  0.7818608E-02  0.1129976E+00
         -2   -1    0    0    0  501 -0.00000000000E+00  0.00000000000E+00  0.25419965086E+03  0.25419965088E+03  0.25500000000E-02 0. -1.
          2   -1    0    0  501    0  0.00000000000E+00 -0.00000000000E+00 -0.49931317978E+02  0.49931318043E+02  0.25500000000E-02 0.  1.
    5000001    1    1    2    0    0  0.21986588642E+00  0.63610837052E+02  0.17249199094E+03  0.19932103218E+03  0.77000000000E+02 0.  0.
   -5000001    1    1    2    0    0 -0.21986588642E+00 -0.63610837052E+02  0.31776341944E+02  0.10480993674E+03  0.77000000000E+02 0.  0.
<mgrwt>
<rscale>  0 0.22532220E+03</rscale>
<asrwt>0</asrwt>
<pdfrwt beam="1">  1        2 0.71330454E-02 0.22532220E+03</pdfrwt>
<pdfrwt beam="2">  1       -2 0.36314236E-01 0.22532220E+03</pdfrwt>
<totfact> 0.69266074E+03</totfact>
</mgrwt>
</event>
<event>
 4    1  0.1300812E-003  0.2336771E+03  0.7818608E-02  0.1124078E+00
         -2   -1    0    0    0  501 -0.00000000000E+00  0.00000000000E+00  0.59378826108E+01  0.59378831584E+01  0.25500000000E-02 0. -1.
          2   -1    0    0  501    0  0.00000000000E+00 -0.00000000000E+00 -0.22990094896E+04  0.22990094896E+04  0.25500000000E-02 0.  1.
    5000001    1    1    2    0    0 -0.32864525054E+02  0.73490751707E+02 -0.79901567394E+03  0.80674408259E+03  0.77000000000E+02 0.  0.
   -5000001    1    1    2    0    0  0.32864525054E+02 -0.73490751707E+02 -0.14940559330E+04  0.14982032902E+04  0.77000000000E+02 0.  0.
<mgrwt>
<rscale>  0 0.23367712E+03</rscale>
<asrwt>0</asrwt>
<pdfrwt beam="1">  1        2 0.32842936E+00 0.23367712E+03</pdfrwt>
<pdfrwt beam="2">  1       -2 0.84827046E-03 0.23367712E+03</pdfrwt>
<totfact> 0.16998157E+04</totfact>
</mgrwt>
</event>
<event>
 4    1  0.1300812E-003  0.2540153E+03  0.7818608E-02  0.1110793E+00
         -2   -1    0    0    0  501 -0.00000000000E+00  0.00000000000E+00  0.58837353938E+01  0.58837359464E+01  0.25500000000E-02 0. -1.
          2   -1    0    0  501    0  0.00000000000E+00 -0.00000000000E+00 -0.27416150932E+04  0.27416150932E+04  0.25500000000E-02 0.  1.
    5000001    1    1    2    0    0 -0.56487082026E+02  0.77215860534E+02 -0.10175688143E+04  0.10249528630E+04  0.77000000000E+02 0.  0.
   -5000001    1    1    2    0    0  0.56487082026E+02 -0.77215860534E+02 -0.17181625436E+04  0.17225459662E+04  0.77000000000E+02 0.  0.
<mgrwt>
<rscale>  0 0.25401526E+03</rscale>
<asrwt>0</asrwt>
<pdfrwt beam="1">  1        2 0.39165848E+00 0.25401526E+03</pdfrwt>
<pdfrwt beam="2">  1       -2 0.84053542E-03 0.25401526E+03</pdfrwt>
<totfact> 0.10378551E+04</totfact>
</mgrwt>
</event>
<event>
 4    1  0.1300812E-003  0.3793326E+03  0.7818608E-02  0.1051181E+00
          2   -1    0    0  501    0  0.00000000000E+00  0.00000000000E+00  0.23842579408E+03  0.23842579409E+03  0.25500000000E-02 0.  1.
         -2   -1    0    0    0  501 -0.00000000000E+00 -0.00000000000E+00 -0.15087844936E+03  0.15087844939E+03  0.25500000000E-02 0. -1.
    5000001    1    1    2    0    0  0.33134545333E+02  0.14910118344E+03  0.12787446912E+03  0.21356483993E+03  0.77000000000E+02 0.  0.
   -5000001    1    1    2    0    0 -0.33134545333E+02 -0.14910118344E+03 -0.40327124406E+02  0.17573940356E+03  0.77000000000E+02 0.  0.
<mgrwt>
<rscale>  0 0.37933265E+03</rscale>
<asrwt>0</asrwt>
<pdfrwt beam="1">  1        2 0.34060828E-01 0.37933265E+03</pdfrwt>
<pdfrwt beam="2">  1       -2 0.21554064E-01 0.37933265E+03</pdfrwt>
<totfact> 0.28309825E+03</totfact>
</mgrwt>
</event>
<event>
 4    1  0.1300812E-003  0.2577311E+03  0.7818608E-02  0.1108514E+00
         -2   -1    0    0    0  501 -0.00000000000E+00  0.00000000000E+00  0.27267469580E+02  0.27267469699E+02  0.25500000000E-02 0. -1.
          2   -1    0    0  501    0  0.00000000000E+00 -0.00000000000E+00 -0.60901595740E+03  0.60901595741E+03  0.25500000000E-02 0.  1.
    5000001    1    1    2    0    0 -0.17389037267E+00  0.10257335125E+03 -0.26003893820E+03  0.28994925763E+03  0.77000000000E+02 0.  0.
   -5000001    1    1    2    0    0  0.17389037267E+00 -0.10257335125E+03 -0.32170954963E+03  0.34633416948E+03  0.77000000000E+02 0.  0.
<mgrwt>
<rscale>  0 0.25773105E+03</rscale>
<asrwt>0</asrwt>
<pdfrwt beam="1">  1        2 0.87002271E-01 0.25773105E+03</pdfrwt>
<pdfrwt beam="2">  1       -2 0.38953532E-02 0.25773105E+03</pdfrwt>
<totfact> 0.15322464E+04</totfact>
</mgrwt>
</event>
<event>
 4    1  0.1300812E-003  0.1985118E+03  0.7818608E-02  0.1151001E+00
          2   -1    0    0  501    0  0.00000000000E+00  0.00000000000E+00  0.81916560025E+03  0.81916560026E+03  0.25500000000E-02 0.  1.
         -2   -1    0    0    0  501 -0.00000000000E+00 -0.00000000000E+00 -0.12026541466E+02  0.12026541737E+02  0.25500000000E-02 0. -1.
    5000001    1    1    2    0    0 -0.58659552522E+02 -0.63575484613E+01  0.49153565200E+03  0.50101662518E+03  0.77000000000E+02 0.  0.
   -5000001    1    1    2    0    0  0.58659552522E+02  0.63575484613E+01  0.31560340679E+03  0.33017551681E+03  0.77000000000E+02 0.  0.
<mgrwt>
<rscale>  0 0.19851175E+03</rscale>
<asrwt>0</asrwt>
<pdfrwt beam="1">  1        2 0.11702371E+00 0.19851175E+03</pdfrwt>
<pdfrwt beam="2">  1       -2 0.17180765E-02 0.19851175E+03</pdfrwt>
<totfact> 0.35533420E+04</totfact>
</mgrwt>
</event>
<event>
 4    1  0.1300812E-003  0.1898524E+03  0.7818608E-02  0.1158594E+00
         -2   -1    0    0    0  501 -0.00000000000E+00  0.00000000000E+00  0.11686180378E+03  0.11686180381E+03  0.25500000000E-02 0. -1.
          2   -1    0    0  501    0  0.00000000000E+00 -0.00000000000E+00 -0.77108065253E+02  0.77108065296E+02  0.25500000000E-02 0.  1.
    5000001    1    1    2    0    0  0.55000826584E+02  0.74886709219E+01  0.18953679023E+02  0.96795728550E+02  0.77000000000E+02 0.  0.
   -5000001    1    1    2    0    0 -0.55000826584E+02 -0.74886709219E+01  0.20800059505E+02  0.97174140554E+02  0.77000000000E+02 0.  0.
<mgrwt>
<rscale>  0 0.18985244E+03</rscale>
<asrwt>0</asrwt>
<pdfrwt beam="1">  1        2 0.11015438E-01 0.18985244E+03</pdfrwt>
<pdfrwt beam="2">  1       -2 0.16694543E-01 0.18985244E+03</pdfrwt>
<totfact> 0.15583355E+04</totfact>
</mgrwt>
</event>
<event>
 4    1  0.1300812E-003  0.2674038E+03  0.7818608E-02  0.1102775E+00
         -2   -1    0    0    0  501 -0.00000000000E+00  0.00000000000E+00  0.18493879729E+02  0.18493879905E+02  0.25500000000E-02 0. -1.
          2   -1    0    0  501    0  0.00000000000E+00 -0.00000000000E+00 -0.96660088080E+03  0.96660088080E+03  0.25500000000E-02 0.  1.
    5000001    1    1    2    0    0 -0.43884379066E+02  0.99572566096E+02 -0.51210074094E+03  0.52916604532E+03  0.77000000000E+02 0.  0.
   -5000001    1    1    2    0    0  0.43884379066E+02 -0.99572566096E+02 -0.43600626012E+03  0.45592871538E+03  0.77000000000E+02 0.  0.
<mgrwt>
<rscale>  0 0.26740382E+03</rscale>
<asrwt>0</asrwt>
<pdfrwt beam="1">  1        2 0.13808581E+00 0.26740382E+03</pdfrwt>
<pdfrwt beam="2">  1       -2 0.26419834E-02 0.26740382E+03</pdfrwt>
<totfact> 0.15540155E+04</totfact>
</mgrwt>
</event>
<event>
 4    1  0.1300812E-003  0.2802653E+03  0.7818608E-02  0.1095544E+00
          2   -1    0    0  501    0  0.00000000000E+00  0.00000000000E+00  0.54305645948E+03  0.54305645949E+03  0.25500000000E-02 0.  1.
         -2   -1    0    0    0  501 -0.00000000000E+00 -0.00000000000E+00 -0.36160427989E+02  0.36160428079E+02  0.25500000000E-02 0. -1.
    5000001    1    1    2    0    0  0.67451918385E+02 -0.94331458155E+02  0.22012590480E+03  0.26044692215E+03  0.77000000000E+02 0.  0.
   -5000001    1    1    2    0    0 -0.67451918385E+02  0.94331458155E+02  0.28677012669E+03  0.31876996542E+03  0.77000000000E+02 0.  0.
<mgrwt>
<rscale>  0 0.28026526E+03</rscale>
<asrwt>0</asrwt>
<pdfrwt beam="1">  1        2 0.77579494E-01 0.28026526E+03</pdfrwt>
<pdfrwt beam="2">  1       -2 0.51657754E-02 0.28026526E+03</pdfrwt>
<totfact> 0.11430333E+04</totfact>
</mgrwt>
</event>
<event>
 4    1  0.1300812E-003  0.3755715E+03  0.7818608E-02  0.1052583E+00
         -2   -1    0    0    0  501 -0.00000000000E+00  0.00000000000E+00  0.39232414217E+02  0.39232414300E+02  0.25500000000E-02 0. -1.
          2   -1    0    0  501    0  0.00000000000E+00 -0.00000000000E+00 -0.89883530701E+03  0.89883530701E+03  0.25500000000E-02 0.  1.
    5000001    1    1    2    0    0 -0.19821818461E+02 -0.80326842968E+02 -0.80436745197E+03  0.81226923121E+03  0.77000000000E+02 0.  0.
   -5000001    1    1    2    0    0  0.19821818461E+02  0.80326842968E+02 -0.55235440822E+02  0.12579849010E+03  0.77000000000E+02 0.  0.
<mgrwt>
<rscale>  0 0.37557145E+03</rscale>
<asrwt>0</asrwt>
<pdfrwt beam="1">  1        2 0.12840503E+00 0.37557145E+03</pdfrwt>
<pdfrwt beam="2">  1       -2 0.56046312E-02 0.37557145E+03</pdfrwt>
<totfact> 0.55539003E+03</totfact>
</mgrwt>
</event>
<event>
 4    1  0.1300812E-003  0.2394395E+03  0.7818608E-02  0.1120167E+00
          2   -1    0    0  501    0  0.00000000000E+00  0.00000000000E+00  0.29182098402E+03  0.29182098403E+03  0.25500000000E-02 0.  1.
         -2   -1    0    0    0  501 -0.00000000000E+00 -0.00000000000E+00 -0.49115099323E+02  0.49115099389E+02  0.25500000000E-02 0. -1.
    5000001    1    1    2    0    0  0.79019200921E+02  0.45584208624E+02  0.13423601739E+03  0.17963925672E+03  0.77000000000E+02 0.  0.
   -5000001    1    1    2    0    0 -0.79019200921E+02 -0.45584208624E+02  0.10846986731E+03  0.16129682670E+03  0.77000000000E+02 0.  0.
<mgrwt>
<rscale>  0 0.23943948E+03</rscale>
<asrwt>0</asrwt>
<pdfrwt beam="1">  1        2 0.41688711E-01 0.23943948E+03</pdfrwt>
<pdfrwt beam="2">  1       -2 0.70164429E-02 0.23943948E+03</pdfrwt>
<totfact> 0.13921570E+04</totfact>
</mgrwt>
</event>
<event>
 4    1  0.1300812E-003  0.5586593E+03  0.7818608E-02  0.9995093E-01
         -2   -1    0    0    0  501 -0.00000000000E+00  0.00000000000E+00  0.83337647706E+02  0.83337647745E+02  0.25500000000E-02 0. -1.
          2   -1    0    0  501    0  0.00000000000E+00 -0.00000000000E+00 -0.93625224766E+03  0.93625224767E+03  0.25500000000E-02 0.  1.
    5000001    1    1    2    0    0 -0.13730627615E+03 -0.20460423016E+03 -0.23176329890E+03  0.34692813548E+03  0.77000000000E+02 0.  0.
   -5000001    1    1    2    0    0  0.13730627615E+03  0.20460423016E+03 -0.62115130106E+03  0.67266175993E+03  0.77000000000E+02 0.  0.
<mgrwt>
<rscale>  0 0.55865932E+03</rscale>
<asrwt>0</asrwt>
<pdfrwt beam="1">  1        2 0.13375031E+00 0.55865932E+03</pdfrwt>
<pdfrwt beam="2">  1       -2 0.11905379E-01 0.55865932E+03</pdfrwt>
<totfact> 0.15932439E+03</totfact>
</mgrwt>
</event>
<event>
 4    1  0.1300812E-003  0.2494207E+03  0.7818608E-02  0.1113671E+00
          2   -1    0    0  501    0  0.00000000000E+00  0.00000000000E+00  0.23734585463E+03  0.23734585465E+03  0.25500000000E-02 0.  1.
         -2   -1    0    0    0  501 -0.00000000000E+00 -0.00000000000E+00 -0.65527479643E+02  0.65527479693E+02  0.25500000000E-02 0. -1.
    5000001    1    1    2    0    0 -0.75581986378E+02  0.56929847834E+02  0.54476893897E+02  0.13360530007E+03  0.77000000000E+02 0.  0.
   -5000001    1    1    2    0    0  0.75581986378E+02 -0.56929847834E+02  0.11734148109E+03  0.16926803427E+03  0.77000000000E+02 0.  0.
<mgrwt>
<rscale>  0 0.24942073E+03</rscale>
<asrwt>0</asrwt>
<pdfrwt beam="1">  1        2 0.33906551E-01 0.24942073E+03</pdfrwt>
<pdfrwt beam="2">  1       -2 0.93610685E-02 0.24942073E+03</pdfrwt>
<totfact> 0.11118041E+04</totfact>
</mgrwt>
</event>
<event>
 4    1  0.1300812E-003  0.4609470E+03  0.7818608E-02  0.1024507E+00
          2   -1    0    0  501    0  0.00000000000E+00  0.00000000000E+00  0.22899060221E+03  0.22899060222E+03  0.25500000000E-02 0.  1.
         -2   -1    0    0    0  501 -0.00000000000E+00 -0.00000000000E+00 -0.23196601033E+03  0.23196601035E+03  0.25500000000E-02 0. -1.
    5000001    1    1    2    0    0  0.14967994661E+03  0.15542877444E+03 -0.26525119720E+02  0.23063991917E+03  0.77000000000E+02 0.  0.
   -5000001    1    1    2    0    0 -0.14967994661E+03 -0.15542877444E+03  0.23549711593E+02  0.23031669340E+03  0.77000000000E+02 0.  0.
<mgrwt>
<rscale>  0 0.46094701E+03</rscale>
<asrwt>0</asrwt>
<pdfrwt beam="1">  1        2 0.32712943E-01 0.46094701E+03</pdfrwt>
<pdfrwt beam="2">  1       -2 0.33138001E-01 0.46094701E+03</pdfrwt>
<totfact> 0.13673129E+03</totfact>
</mgrwt>
</event>
<event>
 4    1  0.1300812E-003  0.1793631E+03  0.7818608E-02  0.1168421E+00
          2   -1    0    0  501    0  0.00000000000E+00  0.00000000000E+00  0.63117177230E+02  0.63117177281E+02  0.25500000000E-02 0.  1.
         -2   -1    0    0    0  501 -0.00000000000E+00 -0.00000000000E+00 -0.12742620352E+03  0.12742620355E+03  0.25500000000E-02 0. -1.
    5000001    1    1    2    0    0 -0.34429679257E+02  0.99672545369E+01 -0.62742204767E+02  0.10559513831E+03  0.77000000000E+02 0.  0.
   -5000001    1    1    2    0    0  0.34429679257E+02 -0.99672545369E+01 -0.15668215265E+01  0.84948242515E+02  0.77000000000E+02 0.  0.
<mgrwt>
<rscale>  0 0.17936312E+03</rscale>
<asrwt>0</asrwt>
<pdfrwt beam="1">  1        2 0.90167397E-02 0.17936312E+03</pdfrwt>
<pdfrwt beam="2">  1       -2 0.18203743E-01 0.17936312E+03</pdfrwt>
<totfact> 0.17186377E+04</totfact>
</mgrwt>
</event>
<event>
 4    1  0.1300812E-003  0.3305022E+03  0.7818608E-02  0.1070915E+00
          2   -1    0    0  501    0  0.00000000000E+00  0.00000000000E+00  0.21922137166E+04  0.21922137166E+04  0.25500000000E-02 0.  1.
         -2   -1    0    0    0  501 -0.00000000000E+00 -0.00000000000E+00 -0.12456782555E+02  0.12456782816E+02  0.25500000000E-02 0. -1.
    5000001    1    1    2    0    0 -0.11376824665E+03  0.83434808124E+02  0.13460137540E+04  0.13555761163E+04  0.77000000000E+02 0.  0.
   -5000001    1    1    2    0    0  0.11376824665E+03 -0.83434808124E+02  0.83374318007E+03  0.84909438313E+03  0.77000000000E+02 0.  0.
<mgrwt>
<rscale>  0 0.33050222E+03</rscale>
<asrwt>0</asrwt>
<pdfrwt beam="1">  1        2 0.31317310E+00 0.33050222E+03</pdfrwt>
<pdfrwt beam="2">  1       -2 0.17795420E-02 0.33050222E+03</pdfrwt>
<totfact> 0.65383149E+03</totfact>
</mgrwt>
</event>
<event>
 4    1  0.1300812E-003  0.2917012E+03  0.7818608E-02  0.1089464E+00
         -2   -1    0    0    0  501 -0.00000000000E+00  0.00000000000E+00  0.21076168625E+02  0.21076168779E+02  0.25500000000E-02 0. -1.
          2   -1    0    0  501    0  0.00000000000E+00 -0.00000000000E+00 -0.10093106572E+04  0.10093106572E+04  0.25500000000E-02 0.  1.
    5000001    1    1    2    0    0 -0.39711456172E+02  0.60252465586E+02 -0.13848899907E+03  0.17411364744E+03  0.77000000000E+02 0.  0.
   -5000001    1    1    2    0    0  0.39711456172E+02 -0.60252465586E+02 -0.84974548952E+03  0.85627317856E+03  0.77000000000E+02 0.  0.
<mgrwt>
<rscale>  0 0.29170123E+03</rscale>
<asrwt>0</asrwt>
<pdfrwt beam="1">  1        2 0.14418721E+00 0.29170123E+03</pdfrwt>
<pdfrwt beam="2">  1       -2 0.30108819E-02 0.29170123E+03</pdfrwt>
<totfact> 0.12109266E+04</totfact>
</mgrwt>
</event>
<event>
 4    1  0.1300812E-003  0.3242848E+03  0.7818608E-02  0.1073694E+00
          2   -1    0    0  501    0  0.00000000000E+00  0.00000000000E+00  0.11731839709E+03  0.11731839712E+03  0.25500000000E-02 0.  1.
         -2   -1    0    0    0  501 -0.00000000000E+00 -0.00000000000E+00 -0.22409239443E+03  0.22409239444E+03  0.25500000000E-02 0. -1.
    5000001    1    1    2    0    0  0.12651117817E+03  0.65104941274E+02 -0.41978244991E+02  0.16713738251E+03  0.77000000000E+02 0.  0.
   -5000001    1    1    2    0    0 -0.12651117817E+03 -0.65104941274E+02 -0.64795752349E+02  0.17427340905E+03  0.77000000000E+02 0.  0.
<mgrwt>
<rscale>  0 0.32428482E+03</rscale>
<asrwt>0</asrwt>
<pdfrwt beam="1">  1        2 0.16759771E-01 0.32428482E+03</pdfrwt>
<pdfrwt beam="2">  1       -2 0.32013199E-01 0.32428482E+03</pdfrwt>
<totfact> 0.31049277E+03</totfact>
</mgrwt>
</event>
<event>
 4    1  0.1300812E-003  0.1962389E+03  0.7818608E-02  0.1152952E+00
         -2   -1    0    0    0  501 -0.00000000000E+00  0.00000000000E+00  0.10446411334E+02  0.10446411645E+02  0.25500000000E-02 0. -1.
          2   -1    0    0  501    0  0.00000000000E+00 -0.00000000000E+00 -0.92160171983E+03  0.92160171983E+03  0.25500000000E-02 0.  1.
    5000001    1    1    2    0    0  0.43835631916E+02 -0.21272325529E+02 -0.62842215599E+03  0.63499407919E+03  0.77000000000E+02 0.  0.
   -5000001    1    1    2    0    0 -0.43835631916E+02  0.21272325529E+02 -0.28273315250E+03  0.29705405229E+03  0.77000000000E+02 0.  0.
<mgrwt>
<rscale>  0 0.19623894E+03</rscale>
<asrwt>0</asrwt>
<pdfrwt beam="1">  1        2 0.13165734E+00 0.19623894E+03</pdfrwt>
<pdfrwt beam="2">  1       -2 0.14923451E-02 0.19623894E+03</pdfrwt>
<totfact> 0.37540304E+04</totfact>
</mgrwt>
</event>
<event>
 4    1  0.1300812E-003  0.2368271E+03  0.7818608E-02  0.1121925E+00
         -2   -1    0    0    0  501 -0.00000000000E+00  0.00000000000E+00  0.74530114346E+02  0.74530114390E+02  0.25500000000E-02 0. -1.
          2   -1    0    0  501    0  0.00000000000E+00 -0.00000000000E+00 -0.18813554879E+03  0.18813554881E+03  0.25500000000E-02 0.  1.
    5000001    1    1    2    0    0 -0.55619193410E+02  0.52013468000E+02 -0.36829412008E+01  0.10835801578E+03  0.77000000000E+02 0.  0.
   -5000001    1    1    2    0    0  0.55619193410E+02 -0.52013468000E+02 -0.10992249324E+03  0.15430764741E+03  0.77000000000E+02 0.  0.
<mgrwt>
<rscale>  0 0.23682706E+03</rscale>
<asrwt>0</asrwt>
<pdfrwt beam="1">  1        2 0.26876507E-01 0.23682706E+03</pdfrwt>
<pdfrwt beam="2">  1       -2 0.10647159E-01 0.23682706E+03</pdfrwt>
<totfact> 0.11658821E+04</totfact>
</mgrwt>
</event>
<event>
 4    1  0.1300812E-003  0.2175910E+03  0.7818608E-02  0.1135692E+00
         -2   -1    0    0    0  501 -0.00000000000E+00  0.00000000000E+00  0.67014710991E+02  0.67014711039E+02  0.25500000000E-02 0. -1.
          2   -1    0    0  501    0  0.00000000000E+00 -0.00000000000E+00 -0.17662483090E+03  0.17662483092E+03  0.25500000000E-02 0.  1.
    5000001    1    1    2    0    0 -0.58443397812E+02  0.16028188321E+02 -0.18705819032E+01  0.98005268457E+02  0.77000000000E+02 0.  0.
   -5000001    1    1    2    0    0  0.58443397812E+02 -0.16028188321E+02 -0.10773953801E+03  0.14563427350E+03  0.77000000000E+02 0.  0.
<mgrwt>
<rscale>  0 0.21759101E+03</rscale>
<asrwt>0</asrwt>
<pdfrwt beam="1">  1        2 0.25232118E-01 0.21759101E+03</pdfrwt>
<pdfrwt beam="2">  1       -2 0.95735303E-02 0.21759101E+03</pdfrwt>
<totfact> 0.14723665E+04</totfact>
</mgrwt>
</event>
<event>
 4    1  0.1300812E-003  0.4599402E+03  0.7818608E-02  0.1024799E+00
         -2   -1    0    0    0  501 -0.00000000000E+00  0.00000000000E+00  0.85081278464E+02  0.85081278502E+02  0.25500000000E-02 0. -1.
          2   -1    0    0  501    0  0.00000000000E+00 -0.00000000000E+00 -0.62159667296E+03  0.62159667296E+03  0.25500000000E-02 0.  1.
    5000001    1    1    2    0    0 -0.10954253372E+03 -0.10544503169E+03 -0.50548484347E+03  0.53344366935E+03  0.77000000000E+02 0.  0.
   -5000001    1    1    2    0    0  0.10954253372E+03  0.10544503169E+03 -0.31030551027E+02  0.17323428211E+03  0.77000000000E+02 0.  0.
<mgrwt>
<rscale>  0 0.45994017E+03</rscale>
<asrwt>0</asrwt>
<pdfrwt beam="1">  1        2 0.88799522E-01 0.45994017E+03</pdfrwt>
<pdfrwt beam="2">  1       -2 0.12154469E-01 0.45994017E+03</pdfrwt>
<totfact> 0.25742916E+03</totfact>
</mgrwt>
</event>
<event>
 4    1  0.1300812E-003  0.1707620E+03  0.7818608E-02  0.1177056E+00
         -2   -1    0    0    0  501 -0.00000000000E+00  0.00000000000E+00  0.71762738911E+02  0.71762738957E+02  0.25500000000E-02 0. -1.
          2   -1    0    0  501    0  0.00000000000E+00 -0.00000000000E+00 -0.10158356011E+03  0.10158356014E+03  0.25500000000E-02 0.  1.
    5000001    1    1    2    0    0  0.20209150661E+02  0.15758062657E+02  0.12027737250E+02  0.82038971059E+02  0.77000000000E+02 0.  0.
   -5000001    1    1    2    0    0 -0.20209150661E+02 -0.15758062657E+02 -0.41848558445E+02  0.91307328036E+02  0.77000000000E+02 0.  0.
<mgrwt>
<rscale>  0 0.17076199E+03</rscale>
<asrwt>0</asrwt>
<pdfrwt beam="1">  1        2 0.14511937E-01 0.17076199E+03</pdfrwt>
<pdfrwt beam="2">  1       -2 0.10251820E-01 0.17076199E+03</pdfrwt>
<totfact> 0.24425115E+04</totfact>
</mgrwt>
</event>
<event>
 4    1  0.1300812E-003  0.3116683E+03  0.7818608E-02  0.1079549E+00
          2   -1    0    0  501    0  0.00000000000E+00  0.00000000000E+00  0.85586891584E+03  0.85586891585E+03  0.25500000000E-02 0.  1.
         -2   -1    0    0    0  501 -0.00000000000E+00 -0.00000000000E+00 -0.28373825394E+02  0.28373825509E+02  0.25500000000E-02 0. -1.
    5000001    1    1    2    0    0  0.11643868914E+03  0.47707754260E+02  0.27128876454E+03  0.30880510344E+03  0.77000000000E+02 0.  0.
   -5000001    1    1    2    0    0 -0.11643868914E+03 -0.47707754260E+02  0.55620632591E+03  0.57543763792E+03  0.77000000000E+02 0.  0.
<mgrwt>
<rscale>  0 0.31166825E+03</rscale>
<asrwt>0</asrwt>
<pdfrwt beam="1">  1        2 0.12226701E+00 0.31166825E+03</pdfrwt>
<pdfrwt beam="2">  1       -2 0.40534031E-02 0.31166825E+03</pdfrwt>
<totfact> 0.96573251E+03</totfact>
</mgrwt>
</event>
<event>
 4    1  0.1300812E-003  0.8363619E+03  0.7818608E-02  0.9508827E-01
          2   -1    0    0  501    0  0.00000000000E+00  0.00000000000E+00  0.21164029437E+04  0.21164029437E+04  0.25500000000E-02 0.  1.
         -2   -1    0    0    0  501 -0.00000000000E+00 -0.00000000000E+00 -0.82628542723E+02  0.82628542762E+02  0.25500000000E-02 0. -1.
    5000001    1    1    2    0    0  0.15867939133E+03 -0.33993765513E+03  0.14584934097E+04  0.15079352721E+04  0.77000000000E+02 0.  0.
   -5000001    1    1    2    0    0 -0.15867939133E+03  0.33993765513E+03  0.57528099118E+03  0.69109621430E+03  0.77000000000E+02 0.  0.
<mgrwt>
<rscale>  0 0.83636186E+03</rscale>
<asrwt>0</asrwt>
<pdfrwt beam="1">  1        2 0.30234329E+00 0.83636186E+03</pdfrwt>
<pdfrwt beam="2">  1       -2 0.11804077E-01 0.83636186E+03</pdfrwt>
<totfact> 0.37135849E+02</totfact>
</mgrwt>
</event>
<event>
 4    1  0.1300812E-003  0.2235686E+03  0.7818608E-02  0.1131250E+00
         -2   -1    0    0    0  501 -0.00000000000E+00  0.00000000000E+00  0.13560567313E+03  0.13560567315E+03  0.25500000000E-02 0. -1.
          2   -1    0    0  501    0  0.00000000000E+00 -0.00000000000E+00 -0.92147506986E+02  0.92147507021E+02  0.25500000000E-02 0.  1.
    5000001    1    1    2    0    0 -0.15851224373E+02  0.79097210170E+02  0.13897885683E+02  0.11238229931E+03  0.77000000000E+02 0.  0.
   -5000001    1    1    2    0    0  0.15851224373E+02 -0.79097210170E+02  0.29560280456E+02  0.11537088086E+03  0.77000000000E+02 0.  0.
<mgrwt>
<rscale>  0 0.22356856E+03</rscale>
<asrwt>0</asrwt>
<pdfrwt beam="1">  1        2 0.13163930E-01 0.22356856E+03</pdfrwt>
<pdfrwt beam="2">  1       -2 0.19372239E-01 0.22356856E+03</pdfrwt>
<totfact> 0.98912790E+03</totfact>
</mgrwt>
</event>
<event>
 4    1  0.1300812E-003  0.3223921E+03  0.7818608E-02  0.1074554E+00
         -2   -1    0    0    0  501 -0.00000000000E+00  0.00000000000E+00  0.75797056358E+02  0.75797056401E+02  0.25500000000E-02 0. -1.
          2   -1    0    0  501    0  0.00000000000E+00 -0.00000000000E+00 -0.34281234850E+03  0.34281234851E+03  0.25500000000E-02 0.  1.
    5000001    1    1    2    0    0 -0.10324619577E+03  0.96147971881E+02 -0.14946099612E+03  0.21948074813E+03  0.77000000000E+02 0.  0.
   -5000001    1    1    2    0    0  0.10324619577E+03 -0.96147971881E+02 -0.11755429602E+03  0.19912865678E+03  0.77000000000E+02 0.  0.
<mgrwt>
<rscale>  0 0.32239210E+03</rscale>
<asrwt>0</asrwt>
<pdfrwt beam="1">  1        2 0.48973192E-01 0.32239210E+03</pdfrwt>
<pdfrwt beam="2">  1       -2 0.10828151E-01 0.32239210E+03</pdfrwt>
<totfact> 0.59883956E+03</totfact>
</mgrwt>
</event>
<event>
 4    1  0.1300812E-003  0.2307336E+03  0.7818608E-02  0.1126124E+00
         -2   -1    0    0    0  501 -0.00000000000E+00  0.00000000000E+00  0.80877700483E+01  0.80877704503E+01  0.25500000000E-02 0. -1.
          2   -1    0    0  501    0  0.00000000000E+00 -0.00000000000E+00 -0.16456328524E+04  0.16456328524E+04  0.25500000000E-02 0.  1.
    5000001    1    1    2    0    0 -0.80124957872E+01 -0.85417650800E+02 -0.85092558839E+03  0.85869885998E+03  0.77000000000E+02 0.  0.
   -5000001    1    1    2    0    0  0.80124957872E+01  0.85417650800E+02 -0.78661949393E+03  0.79502176284E+03  0.77000000000E+02 0.  0.
<mgrwt>
<rscale>  0 0.23073362E+03</rscale>
<asrwt>0</asrwt>
<pdfrwt beam="1">  1        2 0.23509019E+00 0.23073362E+03</pdfrwt>
<pdfrwt beam="2">  1       -2 0.11553968E-02 0.23073362E+03</pdfrwt>
<totfact> 0.22592607E+04</totfact>
</mgrwt>
</event>
<event>
 4    1  0.1300812E-003  0.3225315E+03  0.7818608E-02  0.1074490E+00
         -2   -1    0    0    0  501 -0.00000000000E+00  0.00000000000E+00  0.87288999248E+01  0.87289002973E+01  0.25500000000E-02 0. -1.
          2   -1    0    0  501    0  0.00000000000E+00 -0.00000000000E+00 -0.29793729521E+04  0.29793729521E+04  0.25500000000E-02 0.  1.
    5000001    1    1    2    0    0  0.12734630647E+03 -0.37944710130E+02 -0.10294954754E+04  0.10408875139E+04  0.77000000000E+02 0.  0.
   -5000001    1    1    2    0    0 -0.12734630647E+03  0.37944710130E+02 -0.19411485768E+04  0.19472143385E+04  0.77000000000E+02 0.  0.
<mgrwt>
<rscale>  0 0.32253154E+03</rscale>
<asrwt>0</asrwt>
<pdfrwt beam="1">  1        2 0.42562406E+00 0.32253154E+03</pdfrwt>
<pdfrwt beam="2">  1       -2 0.12469876E-02 0.32253154E+03</pdfrwt>
<totfact> 0.43901694E+03</totfact>
</mgrwt>
</event>
<event>
 4    1  0.1300812E-003  0.6767208E+03  0.7818608E-02  0.9757892E-01
          2   -1    0    0  501    0  0.00000000000E+00  0.00000000000E+00  0.12001102629E+04  0.12001102629E+04  0.25500000000E-02 0.  1.
         -2   -1    0    0    0  501 -0.00000000000E+00 -0.00000000000E+00 -0.95397697871E+02  0.95397697906E+02  0.25500000000E-02 0. -1.
    5000001    1    1    2    0    0 -0.37632461294E+02 -0.23717350746E+03  0.12048705305E+03  0.27948811198E+03  0.77000000000E+02 0.  0.
   -5000001    1    1    2    0    0  0.37632461294E+02  0.23717350746E+03  0.98422551194E+03  0.10160198488E+04  0.77000000000E+02 0.  0.
<mgrwt>
<rscale>  0 0.67672079E+03</rscale>
<asrwt>0</asrwt>
<pdfrwt beam="1">  1        2 0.17144433E+00 0.67672079E+03</pdfrwt>
<pdfrwt beam="2">  1       -2 0.13628242E-01 0.67672079E+03</pdfrwt>
<totfact> 0.88612921E+02</totfact>
</mgrwt>
</event>
<event>
 4    1  0.1300812E-003  0.2042527E+03  0.7818608E-02  0.1146200E+00
         -2   -1    0    0    0  501 -0.00000000000E+00  0.00000000000E+00  0.72062192034E+01  0.72062196546E+01  0.25500000000E-02 0. -1.
          2   -1    0    0  501    0  0.00000000000E+00 -0.00000000000E+00 -0.14473313703E+04  0.14473313703E+04  0.25500000000E-02 0.  1.
    5000001    1    1    2    0    0 -0.56244230296E+02 -0.26446350694E+02 -0.54019391777E+03  0.54918238473E+03  0.77000000000E+02 0.  0.
   -5000001    1    1    2    0    0  0.56244230296E+02  0.26446350694E+02 -0.89993123330E+03  0.90535520519E+03  0.77000000000E+02 0.  0.
<mgrwt>
<rscale>  0 0.20425266E+03</rscale>
<asrwt>0</asrwt>
<pdfrwt beam="1">  1        2 0.20676144E+00 0.20425266E+03</pdfrwt>
<pdfrwt beam="2">  1       -2 0.10294608E-02 0.20425266E+03</pdfrwt>
<totfact> 0.33293872E+04</totfact>
</mgrwt>
</event>
<event>
 4    1  0.1300812E-003  0.2179669E+03  0.7818608E-02  0.1135408E+00
         -2   -1    0    0    0  501 -0.00000000000E+00  0.00000000000E+00  0.14705454511E+03  0.14705454513E+03  0.25500000000E-02 0. -1.
          2   -1    0    0  501    0  0.00000000000E+00 -0.00000000000E+00 -0.80768620192E+02  0.80768620232E+02  0.25500000000E-02 0.  1.
    5000001    1    1    2    0    0 -0.20305402972E+02  0.74223884713E+02  0.38563837494E+02  0.11548880471E+03  0.77000000000E+02 0.  0.
   -5000001    1    1    2    0    0  0.20305402972E+02 -0.74223884713E+02  0.27722087422E+02  0.11233436065E+03  0.77000000000E+02 0.  0.
<mgrwt>
<rscale>  0 0.21796690E+03</rscale>
<asrwt>0</asrwt>
<pdfrwt beam="1">  1        2 0.11538374E-01 0.21796690E+03</pdfrwt>
<pdfrwt beam="2">  1       -2 0.21007792E-01 0.21796690E+03</pdfrwt>
<totfact> 0.10085733E+04</totfact>
</mgrwt>
</event>
<event>
 4    1  0.1300812E-003  0.1931034E+03  0.7818608E-02  0.1155692E+00
          2   -1    0    0  501    0  0.00000000000E+00  0.00000000000E+00  0.28829367252E+04  0.28829367252E+04  0.25500000000E-02 0.  1.
         -2   -1    0    0    0  501 -0.00000000000E+00 -0.00000000000E+00 -0.32335866052E+01  0.32335876107E+01  0.25500000000E-02 0. -1.
    5000001    1    1    2    0    0 -0.39266847990E+02 -0.33226564487E+02  0.18484440695E+04  0.18507621047E+04  0.77000000000E+02 0.  0.
   -5000001    1    1    2    0    0  0.39266847990E+02  0.33226564487E+02  0.10312590691E+04  0.10354082082E+04  0.77000000000E+02 0.  0.
<mgrwt>
<rscale>  0 0.19310336E+03</rscale>
<asrwt>0</asrwt>
<pdfrwt beam="1">  1        2 0.41184816E+00 0.19310336E+03</pdfrwt>
<pdfrwt beam="2">  1       -2 0.46194096E-03 0.19310336E+03</pdfrwt>
<totfact> 0.20649044E+04</totfact>
</mgrwt>
</event>
<event>
 4    1  0.1300812E-003  0.2781528E+03  0.7818608E-02  0.1096702E+00
         -2   -1    0    0    0  501 -0.00000000000E+00  0.00000000000E+00  0.78032842631E+01  0.78032846797E+01  0.25500000000E-02 0. -1.
          2   -1    0    0  501    0  0.00000000000E+00 -0.00000000000E+00 -0.24787310577E+04  0.24787310577E+04  0.25500000000E-02 0.  1.
    5000001    1    1    2    0    0 -0.54476395914E+02 -0.99512328055E+02 -0.14437478987E+04  0.14502439023E+04  0.77000000000E+02 0.  0.
   -5000001    1    1    2    0    0  0.54476395914E+02  0.99512328055E+02 -0.10271798747E+04  0.10362904401E+04  0.77000000000E+02 0.  0.
<mgrwt>
<rscale>  0 0.27815279E+03</rscale>
<asrwt>0</asrwt>
<pdfrwt beam="1">  1        2 0.35410393E+00 0.27815279E+03</pdfrwt>
<pdfrwt beam="2">  1       -2 0.11147565E-02 0.27815279E+03</pdfrwt>
<totfact> 0.93537475E+03</totfact>
</mgrwt>
</event>
