<event>
 4    1  0.3584860E-005  0.6571455E+03  0.7818608E-02  0.9793463E-01
         -2   -1    0    0    0  501 -0.00000000000E+00  0.00000000000E+00  0.12564548951E+03  0.12564548953E+03  0.25500000000E-02 0. -1.
          2   -1    0    0  501    0  0.00000000000E+00 -0.00000000000E+00 -0.85924331784E+03  0.85924331784E+03  0.25500000000E-02 0.  1.
    5000001    1    1    2    0    0  0.23817613062E+03 -0.12836367207E+03 -0.49685228047E+03  0.58931510256E+03  0.16500000000E+03 0.  0.
   -5000001    1    1    2    0    0 -0.23817613062E+03  0.12836367207E+03 -0.23674554787E+03  0.39557370481E+03  0.16500000000E+03 0.  0.
<mgrwt>
<rscale>  0 0.65714549E+03</rscale>
<asrwt>0</asrwt>
<pdfrwt beam="1">  1        2 0.12274904E+00 0.65714549E+03</pdfrwt>
<pdfrwt beam="2">  1       -2 0.17949356E-01 0.65714549E+03</pdfrwt>
<totfact> 0.89482952E+02</totfact>
</mgrwt>
</event>
<event>
 4    1  0.3584860E-005  0.4089453E+03  0.7818608E-02  0.1040726E+00
         -2   -1    0    0    0  501 -0.00000000000E+00  0.00000000000E+00  0.24764417683E+02  0.24764417815E+02  0.25500000000E-02 0. -1.
          2   -1    0    0  501    0  0.00000000000E+00 -0.00000000000E+00 -0.16882713202E+04  0.16882713202E+04  0.25500000000E-02 0.  1.
    5000001    1    1    2    0    0 -0.12003114318E+03  0.13228006294E+02 -0.83705331804E+03  0.86166450126E+03  0.16500000000E+03 0.  0.
   -5000001    1    1    2    0    0  0.12003114318E+03 -0.13228006294E+02 -0.82645358443E+03  0.85137123671E+03  0.16500000000E+03 0.  0.
<mgrwt>
<rscale>  0 0.40894526E+03</rscale>
<asrwt>0</asrwt>
<pdfrwt beam="1">  1        2 0.24118154E+00 0.40894526E+03</pdfrwt>
<pdfrwt beam="2">  1       -2 0.35377750E-02 0.40894526E+03</pdfrwt>
<totfact> 0.41586632E+03</totfact>
</mgrwt>
</event>
<event>
 4    1  0.3584860E-005  0.3959932E+03  0.7818608E-02  0.1045176E+00
          2   -1    0    0  501    0  0.00000000000E+00  0.00000000000E+00  0.28650991857E+03  0.28650991858E+03  0.25500000000E-02 0.  1.
         -2   -1    0    0    0  501 -0.00000000000E+00 -0.00000000000E+00 -0.13682827253E+03  0.13682827256E+03  0.25500000000E-02 0. -1.
    5000001    1    1    2    0    0  0.10888037874E+03  0.66063801896E+01  0.84347359231E+02  0.21503036563E+03  0.16500000000E+03 0.  0.
   -5000001    1    1    2    0    0 -0.10888037874E+03 -0.66063801896E+01  0.65334286811E+02  0.20830782551E+03  0.16500000000E+03 0.  0.
<mgrwt>
<rscale>  0 0.39599322E+03</rscale>
<asrwt>0</asrwt>
<pdfrwt beam="1">  1        2 0.40929988E-01 0.39599322E+03</pdfrwt>
<pdfrwt beam="2">  1       -2 0.19546896E-01 0.39599322E+03</pdfrwt>
<totfact> 0.27440791E+03</totfact>
</mgrwt>
</event>
<event>
 4    1  0.3584860E-005  0.5400395E+03  0.7818608E-02  0.1003826E+00
         -2   -1    0    0    0  501 -0.00000000000E+00  0.00000000000E+00  0.26113621020E+03  0.26113621022E+03  0.25500000000E-02 0. -1.
          2   -1    0    0  501    0  0.00000000000E+00 -0.00000000000E+00 -0.27920554669E+03  0.27920554670E+03  0.25500000000E-02 0.  1.
    5000001    1    1    2    0    0 -0.12506043893E+03 -0.15790495535E+03  0.62500725610E+02  0.26777869410E+03  0.16500000000E+03 0.  0.
   -5000001    1    1    2    0    0  0.12506043893E+03  0.15790495535E+03 -0.80570062098E+02  0.27256306283E+03  0.16500000000E+03 0.  0.
<mgrwt>
<rscale>  0 0.54003955E+03</rscale>
<asrwt>0</asrwt>
<pdfrwt beam="1">  1        2 0.39886506E-01 0.54003955E+03</pdfrwt>
<pdfrwt beam="2">  1       -2 0.37305173E-01 0.54003955E+03</pdfrwt>
<totfact> 0.87817364E+02</totfact>
</mgrwt>
</event>
<event>
 4    1  0.3584860E-005  0.4327972E+03  0.7818608E-02  0.1032980E+00
          2   -1    0    0  501    0  0.00000000000E+00  0.00000000000E+00  0.45606254672E+03  0.45606254673E+03  0.25500000000E-02 0.  1.
         -2   -1    0    0    0  501 -0.00000000000E+00 -0.00000000000E+00 -0.10267966958E+03  0.10267966962E+03  0.25500000000E-02 0. -1.
    5000001    1    1    2    0    0  0.23693083793E+02  0.13429984858E+03  0.13575342688E+03  0.25347939652E+03  0.16500000000E+03 0.  0.
   -5000001    1    1    2    0    0 -0.23693083793E+02 -0.13429984858E+03  0.21762945026E+03  0.30526281983E+03  0.16500000000E+03 0.  0.
<mgrwt>
<rscale>  0 0.43279719E+03</rscale>
<asrwt>0</asrwt>
<pdfrwt beam="1">  1        2 0.65151794E-01 0.43279719E+03</pdfrwt>
<pdfrwt beam="2">  1       -2 0.14668524E-01 0.43279719E+03</pdfrwt>
<totfact> 0.26837697E+03</totfact>
</mgrwt>
</event>
<event>
 4    1  0.3584860E-005  0.6603371E+03  0.7818608E-02  0.9787573E-01
          2   -1    0    0  501    0  0.00000000000E+00  0.00000000000E+00  0.13372645155E+04  0.13372645155E+04  0.25500000000E-02 0.  1.
         -2   -1    0    0    0  501 -0.00000000000E+00 -0.00000000000E+00 -0.81518098907E+02  0.81518098947E+02  0.25500000000E-02 0. -1.
    5000001    1    1    2    0    0  0.19574204212E+03  0.19096108126E+03  0.80770224321E+03  0.86855569499E+03  0.16500000000E+03 0.  0.
   -5000001    1    1    2    0    0 -0.19574204212E+03 -0.19096108126E+03  0.44804417343E+03  0.55022691951E+03  0.16500000000E+03 0.  0.
<mgrwt>
<rscale>  0 0.66033707E+03</rscale>
<asrwt>0</asrwt>
<pdfrwt beam="1">  1        2 0.19103778E+00 0.66033707E+03</pdfrwt>
<pdfrwt beam="2">  1       -2 0.11645443E-01 0.66033707E+03</pdfrwt>
<totfact> 0.96685670E+02</totfact>
</mgrwt>
</event>
<event>
 4    1  0.3584860E-005  0.5534129E+03  0.7818608E-02  0.1000707E+00
          2   -1    0    0  501    0  0.00000000000E+00  0.00000000000E+00  0.48253788887E+03  0.48253788887E+03  0.25500000000E-02 0.  1.
         -2   -1    0    0    0  501 -0.00000000000E+00 -0.00000000000E+00 -0.15867451636E+03  0.15867451638E+03  0.25500000000E-02 0. -1.
    5000001    1    1    2    0    0 -0.18912578069E+03 -0.11079313171E+03  0.12019150213E+03  0.29952408274E+03  0.16500000000E+03 0.  0.
   -5000001    1    1    2    0    0  0.18912578069E+03  0.11079313171E+03  0.20367187038E+03  0.34168832251E+03  0.16500000000E+03 0.  0.
<mgrwt>
<rscale>  0 0.55341292E+03</rscale>
<asrwt>0</asrwt>
<pdfrwt beam="1">  1        2 0.68933984E-01 0.55341292E+03</pdfrwt>
<pdfrwt beam="2">  1       -2 0.22667788E-01 0.55341292E+03</pdfrwt>
<totfact> 0.11958516E+03</totfact>
</mgrwt>
</event>
<event>
 4    1  0.3584860E-005  0.4110301E+03  0.7818608E-02  0.1040026E+00
          2   -1    0    0  501    0  0.00000000000E+00  0.00000000000E+00  0.96857106697E+03  0.96857106697E+03  0.25500000000E-02 0.  1.
         -2   -1    0    0    0  501 -0.00000000000E+00 -0.00000000000E+00 -0.43606962583E+02  0.43606962657E+02  0.25500000000E-02 0. -1.
    5000001    1    1    2    0    0 -0.63935900467E+02 -0.10088681799E+03  0.39524556701E+03  0.44464593516E+03  0.16500000000E+03 0.  0.
   -5000001    1    1    2    0    0  0.63935900467E+02  0.10088681799E+03  0.52971853738E+03  0.56753209447E+03  0.16500000000E+03 0.  0.
<mgrwt>
<rscale>  0 0.41103013E+03</rscale>
<asrwt>0</asrwt>
<pdfrwt beam="1">  1        2 0.13836730E+00 0.41103013E+03</pdfrwt>
<pdfrwt beam="2">  1       -2 0.62295658E-02 0.41103013E+03</pdfrwt>
<totfact> 0.42730811E+03</totfact>
</mgrwt>
</event>
<event>
 4    1  0.3584860E-005  0.3843977E+03  0.7818608E-02  0.1049320E+00
         -2   -1    0    0    0  501 -0.00000000000E+00  0.00000000000E+00  0.19871607909E+03  0.19871607911E+03  0.25500000000E-02 0. -1.
          2   -1    0    0  501    0  0.00000000000E+00 -0.00000000000E+00 -0.18589533786E+03  0.18589533788E+03  0.25500000000E-02 0.  1.
    5000001    1    1    2    0    0  0.24775434121E+02 -0.83546287913E+02  0.52496685113E+02  0.19384196220E+03  0.16500000000E+03 0.  0.
   -5000001    1    1    2    0    0 -0.24775434121E+02  0.83546287913E+02 -0.39675943881E+02  0.19076945479E+03  0.16500000000E+03 0.  0.
<mgrwt>
<rscale>  0 0.38439767E+03</rscale>
<asrwt>0</asrwt>
<pdfrwt beam="1">  1        2 0.26556477E-01 0.38439767E+03</pdfrwt>
<pdfrwt beam="2">  1       -2 0.28388011E-01 0.38439767E+03</pdfrwt>
<totfact> 0.22885861E+03</totfact>
</mgrwt>
</event>
<event>
 4    1  0.3584860E-005  0.5220542E+03  0.7818608E-02  0.1008178E+00
         -2   -1    0    0    0  501 -0.00000000000E+00  0.00000000000E+00  0.14584183744E+03  0.14584183746E+03  0.25500000000E-02 0. -1.
          2   -1    0    0  501    0  0.00000000000E+00 -0.00000000000E+00 -0.46718526589E+03  0.46718526590E+03  0.25500000000E-02 0.  1.
    5000001    1    1    2    0    0 -0.63985368990E+02  0.17133627149E+03 -0.26209341922E+03  0.35967791949E+03  0.16500000000E+03 0.  0.
   -5000001    1    1    2    0    0  0.63985368990E+02 -0.17133627149E+03 -0.59250009229E+02  0.25334918387E+03  0.16500000000E+03 0.  0.
<mgrwt>
<rscale>  0 0.52205424E+03</rscale>
<asrwt>0</asrwt>
<pdfrwt beam="1">  1        2 0.66740752E-01 0.52205424E+03</pdfrwt>
<pdfrwt beam="2">  1       -2 0.20834548E-01 0.52205424E+03</pdfrwt>
<totfact> 0.14382912E+03</totfact>
</mgrwt>
</event>
<event>
 4    1  0.3584860E-005  0.5293190E+03  0.7818608E-02  0.1006397E+00
          2   -1    0    0  501    0  0.00000000000E+00  0.00000000000E+00  0.38305571751E+03  0.38305571752E+03  0.25500000000E-02 0.  1.
         -2   -1    0    0    0  501 -0.00000000000E+00 -0.00000000000E+00 -0.18285757418E+03  0.18285757420E+03  0.25500000000E-02 0. -1.
    5000001    1    1    2    0    0  0.52624549369E+02  0.14438166195E+03  0.24825905370E+03  0.33536989318E+03  0.16500000000E+03 0.  0.
   -5000001    1    1    2    0    0 -0.52624549369E+02 -0.14438166195E+03 -0.48060910376E+02  0.23054339854E+03  0.16500000000E+03 0.  0.
<mgrwt>
<rscale>  0 0.52931896E+03</rscale>
<asrwt>0</asrwt>
<pdfrwt beam="1">  1        2 0.54722246E-01 0.52931896E+03</pdfrwt>
<pdfrwt beam="2">  1       -2 0.26122510E-01 0.52931896E+03</pdfrwt>
<totfact> 0.12010313E+03</totfact>
</mgrwt>
</event>
<event>
 4    1  0.3584860E-005  0.6512706E+03  0.7818608E-02  0.9804398E-01
         -2   -1    0    0    0  501 -0.00000000000E+00  0.00000000000E+00  0.12211371909E+04  0.12211371909E+04  0.25500000000E-02 0.  1.
          2   -1    0    0  501    0  0.00000000000E+00 -0.00000000000E+00 -0.86835734910E+02  0.86835734948E+02  0.25500000000E-02 0. -1.
    5000001    1    1    2    0    0  0.27907203323E+03 -0.23446090112E+02  0.60642528616E+03  0.68804618055E+03  0.16500000000E+03 0.  0.
   -5000001    1    1    2    0    0 -0.27907203323E+03  0.23446090112E+02  0.52787616986E+03  0.61992674533E+03  0.16500000000E+03 0.  0.
<mgrwt>
<rscale>  0 0.65127059E+03</rscale>
<asrwt>0</asrwt>
<pdfrwt beam="1">  1        2 0.12405106E-01 0.65127059E+03</pdfrwt>
<pdfrwt beam="2">  1       -2 0.17444815E+00 0.65127059E+03</pdfrwt>
<totfact> 0.10228420E+02</totfact>
</mgrwt>
</event>
<event>
 4    1  0.3584860E-005  0.4286652E+03  0.7818608E-02  0.1034282E+00
         -2   -1    0    0    0  501 -0.00000000000E+00  0.00000000000E+00  0.29279549949E+02  0.29279550060E+02  0.25500000000E-02 0. -1.
          2   -1    0    0  501    0  0.00000000000E+00 -0.00000000000E+00 -0.15689606922E+04  0.15689606922E+04  0.25500000000E-02 0.  1.
    5000001    1    1    2    0    0 -0.11706173194E+03 -0.11621991428E+02 -0.10301612205E+04  0.10499026907E+04  0.16500000000E+03 0.  0.
   -5000001    1    1    2    0    0  0.11706173194E+03  0.11621991428E+02 -0.50951992180E+03  0.54833755159E+03  0.16500000000E+03 0.  0.
<mgrwt>
<rscale>  0 0.42866520E+03</rscale>
<asrwt>0</asrwt>
<pdfrwt beam="1">  1        2 0.22413719E+00 0.42866520E+03</pdfrwt>
<pdfrwt beam="2">  1       -2 0.41827938E-02 0.42866520E+03</pdfrwt>
<totfact> 0.37037749E+03</totfact>
</mgrwt>
</event>
<event>
 4    1  0.3584860E-005  0.6248386E+03  0.7818608E-02  0.9855173E-01
         -2   -1    0    0    0  501 -0.00000000000E+00  0.00000000000E+00  0.13129509843E+03  0.13129509845E+03  0.25500000000E-02 0. -1.
          2   -1    0    0  501    0  0.00000000000E+00 -0.00000000000E+00 -0.74340804456E+03  0.74340804456E+03  0.25500000000E-02 0.  1.
    5000001    1    1    2    0    0 -0.16249273427E+03  0.13310575586E+03 -0.53290633838E+03  0.59609998861E+03  0.16500000000E+03 0.  0.
   -5000001    1    1    2    0    0  0.16249273427E+03 -0.13310575586E+03 -0.79206607752E+02  0.27860315441E+03  0.16500000000E+03 0.  0.
<mgrwt>
<rscale>  0 0.62483864E+03</rscale>
<asrwt>0</asrwt>
<pdfrwt beam="1">  1        2 0.10620115E+00 0.62483864E+03</pdfrwt>
<pdfrwt beam="2">  1       -2 0.18756443E-01 0.62483864E+03</pdfrwt>
<totfact> 0.99921664E+02</totfact>
</mgrwt>
</event>
<event>
 4    1  0.3584860E-005  0.7471743E+03  0.7818608E-02  0.9639794E-01
          2   -1    0    0  501    0  0.00000000000E+00  0.00000000000E+00  0.18273623050E+04  0.18273623050E+04  0.25500000000E-02 0.  1.
         -2   -1    0    0    0  501 -0.00000000000E+00 -0.00000000000E+00 -0.76376412003E+02  0.76376412045E+02  0.25500000000E-02 0. -1.
    5000001    1    1    2    0    0  0.32795464641E+03 -0.22653070468E+02  0.10420839915E+04  0.11050934155E+04  0.16500000000E+03 0.  0.
   -5000001    1    1    2    0    0 -0.32795464641E+03  0.22653070468E+02  0.70890190157E+03  0.79864530159E+03  0.16500000000E+03 0.  0.
<mgrwt>
<rscale>  0 0.74717435E+03</rscale>
<asrwt>0</asrwt>
<pdfrwt beam="1">  1        2 0.26105178E+00 0.74717435E+03</pdfrwt>
<pdfrwt beam="2">  1       -2 0.10910915E-01 0.74717435E+03</pdfrwt>
<totfact> 0.59585450E+02</totfact>
</mgrwt>
</event>
<event>
 4    1  0.3584860E-005  0.5325459E+03  0.7818608E-02  0.1005617E+00
         -2   -1    0    0    0  501 -0.00000000000E+00  0.00000000000E+00  0.36279312610E+03  0.36279312611E+03  0.25500000000E-02 0.  1.
          2   -1    0    0  501    0  0.00000000000E+00 -0.00000000000E+00 -0.19543168909E+03  0.19543168911E+03  0.25500000000E-02 0. -1.
    5000001    1    1    2    0    0 -0.13102249390E+03  0.16273986631E+03  0.88933900982E+02  0.28068736476E+03  0.16500000000E+03 0.  0.
   -5000001    1    1    2    0    0  0.13102249390E+03 -0.16273986631E+03  0.78427536027E+02  0.27753745045E+03  0.16500000000E+03 0.  0.
<mgrwt>
<rscale>  0 0.53254586E+03</rscale>
<asrwt>0</asrwt>
<pdfrwt beam="1">  1        2 0.27918813E-01 0.53254586E+03</pdfrwt>
<pdfrwt beam="2">  1       -2 0.51827589E-01 0.53254586E+03</pdfrwt>
<totfact> 0.68294792E+02</totfact>
</mgrwt>
</event>
<event>
 4    1  0.3584860E-005  0.3674546E+03  0.7818608E-02  0.1055671E+00
         -2   -1    0    0    0  501 -0.00000000000E+00  0.00000000000E+00  0.25142526994E+02  0.25142527123E+02  0.25500000000E-02 0. -1.
          2   -1    0    0  501    0  0.00000000000E+00 -0.00000000000E+00 -0.13425748260E+04  0.13425748260E+04  0.25500000000E-02 0.  1.
    5000001    1    1    2    0    0  0.75665181251E+02  0.37514324146E+01 -0.55400349336E+03  0.58299585209E+03  0.16500000000E+03 0.  0.
   -5000001    1    1    2    0    0 -0.75665181251E+02 -0.37514324146E+01 -0.76342880569E+03  0.78472150108E+03  0.16500000000E+03 0.  0.
<mgrwt>
<rscale>  0 0.36745462E+03</rscale>
<asrwt>0</asrwt>
<pdfrwt beam="1">  1        2 0.19179636E+00 0.36745462E+03</pdfrwt>
<pdfrwt beam="2">  1       -2 0.35917904E-02 0.36745462E+03</pdfrwt>
<totfact> 0.61076619E+03</totfact>
</mgrwt>
</event>
<event>
 4    1  0.3584860E-005  0.5485066E+03  0.7818608E-02  0.1001840E+00
          2   -1    0    0  501    0  0.00000000000E+00  0.00000000000E+00  0.16036203793E+04  0.16036203793E+04  0.25500000000E-02 0.  1.
         -2   -1    0    0    0  501 -0.00000000000E+00 -0.00000000000E+00 -0.46903165745E+02  0.46903165815E+02  0.25500000000E-02 0. -1.
    5000001    1    1    2    0    0  0.17557709964E+03  0.12246903205E+03  0.91833588171E+03  0.95728353865E+03  0.16500000000E+03 0.  0.
   -5000001    1    1    2    0    0 -0.17557709964E+03 -0.12246903205E+03  0.63838133188E+03  0.69324000651E+03  0.16500000000E+03 0.  0.
<mgrwt>
<rscale>  0 0.54850660E+03</rscale>
<asrwt>0</asrwt>
<pdfrwt beam="1">  1        2 0.22908864E+00 0.54850660E+03</pdfrwt>
<pdfrwt beam="2">  1       -2 0.67004519E-02 0.54850660E+03</pdfrwt>
<totfact> 0.17099787E+03</totfact>
</mgrwt>
</event>
<event>
 4    1  0.3584860E-005  0.6266988E+03  0.7818608E-02  0.9851512E-01
         -2   -1    0    0    0  501 -0.00000000000E+00  0.00000000000E+00  0.75447932477E+02  0.75447932520E+02  0.25500000000E-02 0.  1.
          2   -1    0    0  501    0  0.00000000000E+00 -0.00000000000E+00 -0.13013987539E+04  0.13013987539E+04  0.25500000000E-02 0. -1.
    5000001    1    1    2    0    0 -0.20359484653E+03 -0.16885247043E+03 -0.68247884074E+03  0.75030952704E+03  0.16500000000E+03 0.  0.
   -5000001    1    1    2    0    0  0.20359484653E+03  0.16885247043E+03 -0.54347198069E+03  0.62653715940E+03  0.16500000000E+03 0.  0.
<mgrwt>
<rscale>  0 0.62669880E+03</rscale>
<asrwt>0</asrwt>
<pdfrwt beam="1">  1        2 0.18591409E+00 0.62669880E+03</pdfrwt>
<pdfrwt beam="2">  1       -2 0.10778277E-01 0.62669880E+03</pdfrwt>
<totfact> 0.11492140E+03</totfact>
</mgrwt>
</event>
<event>
 4    1  0.3584860E-005  0.5497310E+03  0.7818608E-02  0.1001556E+00
         -2   -1    0    0    0  501 -0.00000000000E+00  0.00000000000E+00  0.95766683176E+02  0.95766683210E+02  0.25500000000E-02 0. -1.
          2   -1    0    0  501    0  0.00000000000E+00 -0.00000000000E+00 -0.78890745877E+03  0.78890745877E+03  0.25500000000E-02 0.  1.
    5000001    1    1    2    0    0 -0.24689495647E+02  0.21019748916E+03 -0.25090929756E+03  0.36738675976E+03  0.16500000000E+03 0.  0.
   -5000001    1    1    2    0    0  0.24689495647E+02 -0.21019748916E+03 -0.44223147803E+03  0.51728738222E+03  0.16500000000E+03 0.  0.
<mgrwt>
<rscale>  0 0.54973103E+03</rscale>
<asrwt>0</asrwt>
<pdfrwt beam="1">  1        2 0.11270106E+00 0.54973103E+03</pdfrwt>
<pdfrwt beam="2">  1       -2 0.13680955E-01 0.54973103E+03</pdfrwt>
<totfact> 0.15846781E+03</totfact>
</mgrwt>
</event>
<event>
 4    1  0.3584860E-005  0.5960802E+03  0.7818608E-02  0.9913572E-01
          2   -1    0    0  501    0  0.00000000000E+00  0.00000000000E+00  0.41417320313E+03  0.41417320314E+03  0.25500000000E-02 0.  1.
         -2   -1    0    0    0  501 -0.00000000000E+00 -0.00000000000E+00 -0.21447039255E+03  0.21447039257E+03  0.25500000000E-02 0. -1.
    5000001    1    1    2    0    0 -0.13113405934E+03  0.99827363140E+02  0.29557322841E+03  0.37649724740E+03  0.16500000000E+03 0.  0.
   -5000001    1    1    2    0    0  0.13113405934E+03 -0.99827363140E+02 -0.95870417829E+02  0.25214634831E+03  0.16500000000E+03 0.  0.
<mgrwt>
<rscale>  0 0.59608016E+03</rscale>
<asrwt>0</asrwt>
<pdfrwt beam="1">  1        2 0.59167601E-01 0.59608016E+03</pdfrwt>
<pdfrwt beam="2">  1       -2 0.30638627E-01 0.59608016E+03</pdfrwt>
<totfact> 0.82256414E+02</totfact>
</mgrwt>
</event>
<event>
 4    1  0.3584860E-005  0.4324617E+03  0.7818608E-02  0.1033085E+00
          2   -1    0    0  501    0  0.00000000000E+00  0.00000000000E+00  0.26827762175E+03  0.26827762177E+03  0.25500000000E-02 0.  1.
         -2   -1    0    0    0  501 -0.00000000000E+00 -0.00000000000E+00 -0.17428131434E+03  0.17428131436E+03  0.25500000000E-02 0. -1.
    5000001    1    1    2    0    0 -0.77515259059E+00 -0.10459860045E+03  0.14184056374E+03  0.24142330790E+03  0.16500000000E+03 0.  0.
   -5000001    1    1    2    0    0  0.77515259059E+00  0.10459860045E+03 -0.47844256324E+02  0.20113562822E+03  0.16500000000E+03 0.  0.
<mgrwt>
<rscale>  0 0.43246168E+03</rscale>
<asrwt>0</asrwt>
<pdfrwt beam="1">  1        2 0.38325374E-01 0.43246168E+03</pdfrwt>
<pdfrwt beam="2">  1       -2 0.24897331E-01 0.43246168E+03</pdfrwt>
<totfact> 0.19330592E+03</totfact>
</mgrwt>
</event>
<event>
 4    1  0.3584860E-005  0.1097878E+04  0.7818608E-02  0.9207263E-01
         -2   -1    0    0    0  501 -0.00000000000E+00  0.00000000000E+00  0.19154055480E+03  0.19154055482E+03  0.25500000000E-02 0. -1.
          2   -1    0    0  501    0  0.00000000000E+00 -0.00000000000E+00 -0.15732112800E+04  0.15732112800E+04  0.25500000000E-02 0.  1.
    5000001    1    1    2    0    0  0.46938568698E+03 -0.81758657822E+02 -0.10396915854E+04  0.11555046491E+04  0.16500000000E+03 0.  0.
   -5000001    1    1    2    0    0 -0.46938568698E+03  0.81758657822E+02 -0.34197913979E+03  0.60924718573E+03  0.16500000000E+03 0.  0.
<mgrwt>
<rscale>  0 0.10978775E+04</rscale>
<asrwt>0</asrwt>
<pdfrwt beam="1">  1        2 0.22474446E+00 0.10978775E+04</pdfrwt>
<pdfrwt beam="2">  1       -2 0.27362937E-01 0.10978775E+04</pdfrwt>
<totfact> 0.16118867E+02</totfact>
</mgrwt>
</event>
<event>
 4    1  0.3584860E-005  0.5442418E+03  0.7818608E-02  0.1002836E+00
         -2   -1    0    0    0  501 -0.00000000000E+00  0.00000000000E+00  0.14635692046E+04  0.14635692046E+04  0.25500000000E-02 0. -1.
          2   -1    0    0  501    0  0.00000000000E+00 -0.00000000000E+00 -0.50595345298E+02  0.50595345362E+02  0.25500000000E-02 0.  1.
    5000001    1    1    2    0    0  0.55034394333E+02 -0.16029616295E+03  0.33217455292E+03  0.40778496542E+03  0.16500000000E+03 0.  0.
   -5000001    1    1    2    0    0 -0.55034394333E+02  0.16029616295E+03  0.10807993064E+04  0.11063795845E+04  0.16500000000E+03 0.  0.
<mgrwt>
<rscale>  0 0.54424182E+03</rscale>
<asrwt>0</asrwt>
<pdfrwt beam="1">  1        2 0.72279076E-02 0.54424182E+03</pdfrwt>
<pdfrwt beam="2">  1       -2 0.20908128E+00 0.54424182E+03</pdfrwt>
<totfact> 0.12096987E+02</totfact>
</mgrwt>
</event>
<event>
 4    1  0.3584860E-005  0.5993878E+03  0.7818608E-02  0.9906677E-01
          2   -1    0    0  501    0  0.00000000000E+00  0.00000000000E+00  0.20268582362E+04  0.20268582362E+04  0.25500000000E-02 0.  1.
         -2   -1    0    0    0  501 -0.00000000000E+00 -0.00000000000E+00 -0.44313137879E+02  0.44313137952E+02  0.25500000000E-02 0. -1.
    5000001    1    1    2    0    0 -0.23897753418E+03 -0.59844391588E+02  0.11418868120E+04  0.11797551036E+04  0.16500000000E+03 0.  0.
   -5000001    1    1    2    0    0  0.23897753418E+03  0.59844391588E+02  0.84065828634E+03  0.89141627057E+03  0.16500000000E+03 0.  0.
<mgrwt>
<rscale>  0 0.59938785E+03</rscale>
<asrwt>0</asrwt>
<pdfrwt beam="1">  1        2 0.28955116E+00 0.59938785E+03</pdfrwt>
<pdfrwt beam="2">  1       -2 0.63304485E-02 0.59938785E+03</pdfrwt>
<totfact> 0.11404686E+03</totfact>
</mgrwt>
</event>
<event>
 4    1  0.3584860E-005  0.5092212E+03  0.7818608E-02  0.1011400E+00
         -2   -1    0    0    0  501 -0.00000000000E+00  0.00000000000E+00  0.78794691626E+03  0.78794691626E+03  0.25500000000E-02 0. -1.
          2   -1    0    0  501    0  0.00000000000E+00 -0.00000000000E+00 -0.82272759081E+02  0.82272759120E+02  0.25500000000E-02 0.  1.
    5000001    1    1    2    0    0 -0.16029008810E+03 -0.99534806592E+02  0.42929063062E+03  0.49710716712E+03  0.16500000000E+03 0.  0.
   -5000001    1    1    2    0    0  0.16029008810E+03  0.99534806592E+02  0.27638352656E+03  0.37311250826E+03  0.16500000000E+03 0.  0.
<mgrwt>
<rscale>  0 0.50922124E+03</rscale>
<asrwt>0</asrwt>
<pdfrwt beam="1">  1        2 0.11753252E-01 0.50922124E+03</pdfrwt>
<pdfrwt beam="2">  1       -2 0.11256384E+00 0.50922124E+03</pdfrwt>
<totfact> 0.34073166E+02</totfact>
</mgrwt>
</event>
<event>
 4    1  0.3584860E-005  0.3909065E+03  0.7818608E-02  0.1046975E+00
         -2   -1    0    0    0  501 -0.00000000000E+00  0.00000000000E+00  0.11593021499E+02  0.11593021779E+02  0.25500000000E-02 0. -1.
          2   -1    0    0  501    0  0.00000000000E+00 -0.00000000000E+00 -0.32952551810E+04  0.32952551810E+04  0.25500000000E-02 0.  1.
    5000001    1    1    2    0    0 -0.65093350928E+02 -0.76766891799E+02 -0.18879795373E+04  0.18978466833E+04  0.16500000000E+03 0.  0.
   -5000001    1    1    2    0    0  0.65093350928E+02  0.76766891799E+02 -0.13956826222E+04  0.14090015195E+04  0.16500000000E+03 0.  0.
<mgrwt>
<rscale>  0 0.39090646E+03</rscale>
<asrwt>0</asrwt>
<pdfrwt beam="1">  1        2 0.47075014E+00 0.39090646E+03</pdfrwt>
<pdfrwt beam="2">  1       -2 0.16561481E-02 0.39090646E+03</pdfrwt>
<totfact> 0.19315288E+03</totfact>
</mgrwt>
</event>
<event>
 4    1  0.3584860E-005  0.4245817E+03  0.7818608E-02  0.1035585E+00
          2   -1    0    0  501    0  0.00000000000E+00  0.00000000000E+00  0.30965837301E+03  0.30965837303E+03  0.25500000000E-02 0.  1.
         -2   -1    0    0    0  501 -0.00000000000E+00 -0.00000000000E+00 -0.14553909389E+03  0.14553909391E+03  0.25500000000E-02 0. -1.
    5000001    1    1    2    0    0 -0.28541447922E+02  0.11087995439E+03  0.15582052769E+03  0.25419287044E+03  0.16500000000E+03 0.  0.
   -5000001    1    1    2    0    0  0.28541447922E+02 -0.11087995439E+03  0.82987514382E+01  0.20100459649E+03  0.16500000000E+03 0.  0.
<mgrwt>
<rscale>  0 0.42458167E+03</rscale>
<asrwt>0</asrwt>
<pdfrwt beam="1">  1        2 0.44236910E-01 0.42458167E+03</pdfrwt>
<pdfrwt beam="2">  1       -2 0.20791299E-01 0.42458167E+03</pdfrwt>
<totfact> 0.22682929E+03</totfact>
</mgrwt>
</event>
<event>
 4    1  0.3584860E-005  0.4857171E+03  0.7818608E-02  0.1017576E+00
         -2   -1    0    0    0  501 -0.00000000000E+00  0.00000000000E+00  0.10377763832E+03  0.10377763835E+03  0.25500000000E-02 0. -1.
          2   -1    0    0  501    0  0.00000000000E+00 -0.00000000000E+00 -0.56833327947E+03  0.56833327948E+03  0.25500000000E-02 0.  1.
    5000001    1    1    2    0    0 -0.16890101409E+03 -0.21010497123E+02 -0.15923612743E+03  0.28556984755E+03  0.16500000000E+03 0.  0.
   -5000001    1    1    2    0    0  0.16890101409E+03  0.21010497123E+02 -0.30531951372E+03  0.38654107028E+03  0.16500000000E+03 0.  0.
<mgrwt>
<rscale>  0 0.48571714E+03</rscale>
<asrwt>0</asrwt>
<pdfrwt beam="1">  1        2 0.81190467E-01 0.48571714E+03</pdfrwt>
<pdfrwt beam="2">  1       -2 0.14825377E-01 0.48571714E+03</pdfrwt>
<totfact> 0.20574468E+03</totfact>
</mgrwt>
</event>
<event>
 4    1  0.3584860E-005  0.4191415E+03  0.7818608E-02  0.1037346E+00
          2   -1    0    0  501    0  0.00000000000E+00  0.00000000000E+00  0.19096217568E+04  0.19096217568E+04  0.25500000000E-02 0.  1.
         -2   -1    0    0    0  501 -0.00000000000E+00 -0.00000000000E+00 -0.22999261007E+02  0.22999261148E+02  0.25500000000E-02 0. -1.
    5000001    1    1    2    0    0 -0.69209832392E+00 -0.12637577377E+03  0.10673414941E+04  0.10873886979E+04  0.16500000000E+03 0.  0.
   -5000001    1    1    2    0    0  0.69209832392E+00  0.12637577377E+03  0.81928100166E+03  0.84523232006E+03  0.16500000000E+03 0.  0.
<mgrwt>
<rscale>  0 0.41914145E+03</rscale>
<asrwt>0</asrwt>
<pdfrwt beam="1">  1        2 0.27280328E+00 0.41914145E+03</pdfrwt>
<pdfrwt beam="2">  1       -2 0.32856066E-02 0.41914145E+03</pdfrwt>
<totfact> 0.36071618E+03</totfact>
</mgrwt>
</event>
<event>
 4    1  0.3584860E-005  0.5619072E+03  0.7818608E-02  0.9987749E-01
         -2   -1    0    0    0  501 -0.00000000000E+00  0.00000000000E+00  0.17019880254E+03  0.17019880256E+03  0.25500000000E-02 0. -1.
          2   -1    0    0  501    0  0.00000000000E+00 -0.00000000000E+00 -0.46378067686E+03  0.46378067687E+03  0.25500000000E-02 0.  1.
    5000001    1    1    2    0    0  0.10906043226E+03 -0.11357781316E+03  0.38312474879E+02  0.23127244379E+03  0.16500000000E+03 0.  0.
   -5000001    1    1    2    0    0 -0.10906043226E+03  0.11357781316E+03 -0.33189434920E+03  0.40270703564E+03  0.16500000000E+03 0.  0.
<mgrwt>
<rscale>  0 0.56190717E+03</rscale>
<asrwt>0</asrwt>
<pdfrwt beam="1">  1        2 0.66254382E-01 0.56190717E+03</pdfrwt>
<pdfrwt beam="2">  1       -2 0.24314115E-01 0.56190717E+03</pdfrwt>
<totfact> 0.11039733E+03</totfact>
</mgrwt>
</event>
<event>
 4    1  0.3584860E-005  0.4007077E+03  0.7818608E-02  0.1043535E+00
          2   -1    0    0  501    0  0.00000000000E+00  0.00000000000E+00  0.13718867686E+04  0.13718867686E+04  0.25500000000E-02 0.  1.
         -2   -1    0    0    0  501 -0.00000000000E+00 -0.00000000000E+00 -0.29260187589E+02  0.29260187700E+02  0.25500000000E-02 0. -1.
    5000001    1    1    2    0    0  0.81504593433E+02 -0.74698484216E+02  0.57921029097E+03  0.61231725719E+03  0.16500000000E+03 0.  0.
   -5000001    1    1    2    0    0 -0.81504593433E+02  0.74698484216E+02  0.76341629009E+03  0.78882969915E+03  0.16500000000E+03 0.  0.
<mgrwt>
<rscale>  0 0.40070770E+03</rscale>
<asrwt>0</asrwt>
<pdfrwt beam="1">  1        2 0.19598385E+00 0.40070770E+03</pdfrwt>
<pdfrwt beam="2">  1       -2 0.41800264E-02 0.40070770E+03</pdfrwt>
<totfact> 0.46868142E+03</totfact>
</mgrwt>
</event>
<event>
 4    1  0.3584860E-005  0.3642990E+03  0.7818608E-02  0.1056895E+00
         -2   -1    0    0    0  501 -0.00000000000E+00  0.00000000000E+00  0.44824422233E+02  0.44824422305E+02  0.25500000000E-02 0. -1.
          2   -1    0    0  501    0  0.00000000000E+00 -0.00000000000E+00 -0.74018659968E+03  0.74018659969E+03  0.25500000000E-02 0.  1.
    5000001    1    1    2    0    0  0.47081450208E+01  0.60395312624E+02 -0.45065686407E+03  0.48372137595E+03  0.16500000000E+03 0.  0.
   -5000001    1    1    2    0    0 -0.47081450208E+01 -0.60395312624E+02 -0.24470531338E+03  0.30128964604E+03  0.16500000000E+03 0.  0.
<mgrwt>
<rscale>  0 0.36429898E+03</rscale>
<asrwt>0</asrwt>
<pdfrwt beam="1">  1        2 0.10574094E+00 0.36429898E+03</pdfrwt>
<pdfrwt beam="2">  1       -2 0.64034893E-02 0.36429898E+03</pdfrwt>
<totfact> 0.57733899E+03</totfact>
</mgrwt>
</event>
<event>
 4    1  0.3584860E-005  0.3785556E+03  0.7818608E-02  0.1051469E+00
         -2   -1    0    0    0  501 -0.00000000000E+00  0.00000000000E+00  0.98597182809E+01  0.98597186106E+01  0.25500000000E-02 0. -1.
          2   -1    0    0  501    0  0.00000000000E+00 -0.00000000000E+00 -0.36335808167E+04  0.36335808167E+04  0.25500000000E-02 0.  1.
    5000001    1    1    2    0    0  0.27015008400E+02 -0.88693194001E+02 -0.17907950943E+04  0.18007688256E+04  0.16500000000E+03 0.  0.
   -5000001    1    1    2    0    0 -0.27015008400E+02  0.88693194001E+02 -0.18329260041E+04  0.18426717097E+04  0.16500000000E+03 0.  0.
<mgrwt>
<rscale>  0 0.37855559E+03</rscale>
<asrwt>0</asrwt>
<pdfrwt beam="1">  1        2 0.51908212E+00 0.37855559E+03</pdfrwt>
<pdfrwt beam="2">  1       -2 0.14085335E-02 0.37855559E+03</pdfrwt>
<totfact> 0.15612891E+03</totfact>
</mgrwt>
</event>
<event>
 4    1  0.3584860E-005  0.5112724E+03  0.7818608E-02  0.1010878E+00
         -2   -1    0    0    0  501 -0.00000000000E+00  0.00000000000E+00  0.42912482681E+02  0.42912482756E+02  0.25500000000E-02 0. -1.
          2   -1    0    0  501    0  0.00000000000E+00 -0.00000000000E+00 -0.15228636787E+04  0.15228636787E+04  0.25500000000E-02 0.  1.
    5000001    1    1    2    0    0 -0.91749127729E+02  0.14748647481E+03 -0.10131180544E+04  0.10410587663E+04  0.16500000000E+03 0.  0.
   -5000001    1    1    2    0    0  0.91749127729E+02 -0.14748647481E+03 -0.46683314162E+03  0.52471739518E+03  0.16500000000E+03 0.  0.
<mgrwt>
<rscale>  0 0.51127238E+03</rscale>
<asrwt>0</asrwt>
<pdfrwt beam="1">  1        2 0.21755192E+00 0.51127238E+03</pdfrwt>
<pdfrwt beam="2">  1       -2 0.61303556E-02 0.51127238E+03</pdfrwt>
<totfact> 0.21652189E+03</totfact>
</mgrwt>
</event>
<event>
 4    1  0.3584860E-005  0.3943579E+03  0.7818608E-02  0.1045751E+00
         -2   -1    0    0    0  501 -0.00000000000E+00  0.00000000000E+00  0.10355971868E+03  0.10355971871E+03  0.25500000000E-02 0. -1.
          2   -1    0    0  501    0  0.00000000000E+00 -0.00000000000E+00 -0.37543118228E+03  0.37543118229E+03  0.25500000000E-02 0.  1.
    5000001    1    1    2    0    0  0.36587963129E+02  0.93378162938E+02 -0.18446522928E+03  0.26704041113E+03  0.16500000000E+03 0.  0.
   -5000001    1    1    2    0    0 -0.36587963129E+02 -0.93378162938E+02 -0.87406234319E+02  0.21195048987E+03  0.16500000000E+03 0.  0.
<mgrwt>
<rscale>  0 0.39435795E+03</rscale>
<asrwt>0</asrwt>
<pdfrwt beam="1">  1        2 0.53633025E-01 0.39435795E+03</pdfrwt>
<pdfrwt beam="2">  1       -2 0.14794246E-01 0.39435795E+03</pdfrwt>
<totfact> 0.32733737E+03</totfact>
</mgrwt>
</event>
<event>
 4    1  0.3584860E-005  0.3671521E+03  0.7818608E-02  0.1055787E+00
          2   -1    0    0  501    0  0.00000000000E+00  0.00000000000E+00  0.10496016523E+04  0.10496016523E+04  0.25500000000E-02 0.  1.
         -2   -1    0    0    0  501 -0.00000000000E+00 -0.00000000000E+00 -0.32107581046E+02  0.32107581147E+02  0.25500000000E-02 0. -1.
    5000001    1    1    2    0    0 -0.48083240631E+02 -0.55222493974E+02  0.60706627818E+03  0.63333718348E+03  0.16500000000E+03 0.  0.
   -5000001    1    1    2    0    0  0.48083240631E+02  0.55222493974E+02  0.41042779308E+03  0.44837204998E+03  0.16500000000E+03 0.  0.
<mgrwt>
<rscale>  0 0.36715212E+03</rscale>
<asrwt>0</asrwt>
<pdfrwt beam="1">  1        2 0.14994313E+00 0.36715212E+03</pdfrwt>
<pdfrwt beam="2">  1       -2 0.45867963E-02 0.36715212E+03</pdfrwt>
<totfact> 0.61148857E+03</totfact>
</mgrwt>
</event>
<event>
 4    1  0.3584860E-005  0.4459814E+03  0.7818608E-02  0.1028927E+00
          2   -1    0    0  501    0  0.00000000000E+00  0.00000000000E+00  0.54539158057E+03  0.54539158058E+03  0.25500000000E-02 0.  1.
         -2   -1    0    0    0  501 -0.00000000000E+00 -0.00000000000E+00 -0.91172767975E+02  0.91172768011E+02  0.25500000000E-02 0. -1.
    5000001    1    1    2    0    0  0.65058944774E+02 -0.12212056105E+03  0.14445011605E+03  0.25930085568E+03  0.16500000000E+03 0.  0.
   -5000001    1    1    2    0    0 -0.65058944774E+02  0.12212056105E+03  0.30976869654E+03  0.37726349291E+03  0.16500000000E+03 0.  0.
<mgrwt>
<rscale>  0 0.44598143E+03</rscale>
<asrwt>0</asrwt>
<pdfrwt beam="1">  1        2 0.77913084E-01 0.44598143E+03</pdfrwt>
<pdfrwt beam="2">  1       -2 0.13024681E-01 0.44598143E+03</pdfrwt>
<totfact> 0.26727910E+03</totfact>
</mgrwt>
</event>
<event>
 4    1  0.3584860E-005  0.5395609E+03  0.7818608E-02  0.1003939E+00
          2   -1    0    0  501    0  0.00000000000E+00  0.00000000000E+00  0.10388587371E+04  0.10388587371E+04  0.25500000000E-02 0.  1.
         -2   -1    0    0    0  501 -0.00000000000E+00 -0.00000000000E+00 -0.70059088800E+02  0.70059088846E+02  0.25500000000E-02 0. -1.
    5000001    1    1    2    0    0 -0.20614137326E+03  0.31383376271E+02  0.39072777931E+03  0.47262287249E+03  0.16500000000E+03 0.  0.
   -5000001    1    1    2    0    0  0.20614137326E+03 -0.31383376271E+02  0.57807186898E+03  0.63629495345E+03  0.16500000000E+03 0.  0.
<mgrwt>
<rscale>  0 0.53956092E+03</rscale>
<asrwt>0</asrwt>
<pdfrwt beam="1">  1        2 0.14840838E+00 0.53956092E+03</pdfrwt>
<pdfrwt beam="2">  1       -2 0.10008442E-01 0.53956092E+03</pdfrwt>
<totfact> 0.18299462E+03</totfact>
</mgrwt>
</event>
<event>
 4    1  0.3584860E-005  0.4491417E+03  0.7818608E-02  0.1027978E+00
          2   -1    0    0  501    0  0.00000000000E+00  0.00000000000E+00  0.40288941743E+03  0.40288941744E+03  0.25500000000E-02 0.  1.
         -2   -1    0    0    0  501 -0.00000000000E+00 -0.00000000000E+00 -0.12517592938E+03  0.12517592941E+03  0.25500000000E-02 0. -1.
    5000001    1    1    2    0    0  0.31009681139E+02  0.14837252138E+03  0.12098532424E+03  0.25463396102E+03  0.16500000000E+03 0.  0.
   -5000001    1    1    2    0    0 -0.31009681139E+02 -0.14837252138E+03  0.15672816381E+03  0.27343138583E+03  0.16500000000E+03 0.  0.
<mgrwt>
<rscale>  0 0.44914166E+03</rscale>
<asrwt>0</asrwt>
<pdfrwt beam="1">  1        2 0.57555631E-01 0.44914166E+03</pdfrwt>
<pdfrwt beam="2">  1       -2 0.17882276E-01 0.44914166E+03</pdfrwt>
<totfact> 0.22051120E+03</totfact>
</mgrwt>
</event>
<event>
 4    1  0.3584860E-005  0.7611122E+03  0.7818608E-02  0.9618077E-01
          2   -1    0    0  501    0  0.00000000000E+00  0.00000000000E+00  0.29691506172E+03  0.29691506174E+03  0.25500000000E-02 0.  1.
         -2   -1    0    0    0  501 -0.00000000000E+00 -0.00000000000E+00 -0.48775882064E+03  0.48775882064E+03  0.25500000000E-02 0. -1.
    5000001    1    1    2    0    0 -0.80853126692E+02 -0.33323341245E+03 -0.99572050473E+02  0.39334632133E+03  0.16500000000E+03 0.  0.
   -5000001    1    1    2    0    0  0.80853126692E+02  0.33323341245E+03 -0.91271708439E+02  0.39132756104E+03  0.16500000000E+03 0.  0.
<mgrwt>
<rscale>  0 0.76111219E+03</rscale>
<asrwt>0</asrwt>
<pdfrwt beam="1">  1        2 0.42416438E-01 0.76111219E+03</pdfrwt>
<pdfrwt beam="2">  1       -2 0.69679831E-01 0.76111219E+03</pdfrwt>
<totfact> 0.22838855E+02</totfact>
</mgrwt>
</event>
<event>
 4    1  0.3584860E-005  0.6172812E+03  0.7818608E-02  0.9870188E-01
         -2   -1    0    0    0  501 -0.00000000000E+00  0.00000000000E+00  0.86824575274E+02  0.86824575311E+02  0.25500000000E-02 0. -1.
          2   -1    0    0  501    0  0.00000000000E+00 -0.00000000000E+00 -0.10971436867E+04  0.10971436867E+04  0.25500000000E-02 0.  1.
    5000001    1    1    2    0    0  0.19303309836E+03  0.11043017172E+03 -0.24373291082E+03  0.36890016496E+03  0.16500000000E+03 0.  0.
   -5000001    1    1    2    0    0 -0.19303309836E+03 -0.11043017172E+03 -0.76658620064E+03  0.81506809710E+03  0.16500000000E+03 0.  0.
<mgrwt>
<rscale>  0 0.61728125E+03</rscale>
<asrwt>0</asrwt>
<pdfrwt beam="1">  1        2 0.15673480E+00 0.61728125E+03</pdfrwt>
<pdfrwt beam="2">  1       -2 0.12403511E-01 0.61728125E+03</pdfrwt>
<totfact> 0.11890023E+03</totfact>
</mgrwt>
</event>
<event>
 4    1  0.3584860E-005  0.5629936E+03  0.7818608E-02  0.9985304E-01
         -2   -1    0    0    0  501 -0.00000000000E+00  0.00000000000E+00  0.14077910346E+03  0.14077910349E+03  0.25500000000E-02 0. -1.
          2   -1    0    0  501    0  0.00000000000E+00 -0.00000000000E+00 -0.56287089279E+03  0.56287089280E+03  0.25500000000E-02 0.  1.
    5000001    1    1    2    0    0  0.83213322405E+02  0.18309555341E+03 -0.34546591670E+03  0.43245825036E+03  0.16500000000E+03 0.  0.
   -5000001    1    1    2    0    0 -0.83213322405E+02 -0.18309555341E+03 -0.76625872635E+02  0.27119174593E+03  0.16500000000E+03 0.  0.
<mgrwt>
<rscale>  0 0.56299364E+03</rscale>
<asrwt>0</asrwt>
<pdfrwt beam="1">  1        2 0.80410126E-01 0.56299364E+03</pdfrwt>
<pdfrwt beam="2">  1       -2 0.20111301E-01 0.56299364E+03</pdfrwt>
<totfact> 0.12369588E+03</totfact>
</mgrwt>
</event>
<event>
 4    1  0.3584860E-005  0.4151093E+03  0.7818608E-02  0.1038670E+00
         -2   -1    0    0    0  501 -0.00000000000E+00  0.00000000000E+00  0.26748318035E+03  0.26748318036E+03  0.25500000000E-02 0. -1.
          2   -1    0    0  501    0  0.00000000000E+00 -0.00000000000E+00 -0.16105284088E+03  0.16105284090E+03  0.25500000000E-02 0.  1.
    5000001    1    1    2    0    0  0.99792605610E+02 -0.44779507801E+02 -0.11173359236E+02  0.19827660581E+03  0.16500000000E+03 0.  0.
   -5000001    1    1    2    0    0 -0.99792605610E+02  0.44779507801E+02  0.11760369871E+03  0.23025941545E+03  0.16500000000E+03 0.  0.
<mgrwt>
<rscale>  0 0.41510927E+03</rscale>
<asrwt>0</asrwt>
<pdfrwt beam="1">  1        2 0.23007549E-01 0.41510927E+03</pdfrwt>
<pdfrwt beam="2">  1       -2 0.38211883E-01 0.41510927E+03</pdfrwt>
<totfact> 0.15502032E+03</totfact>
</mgrwt>
</event>
<event>
 4    1  0.3584860E-005  0.7412662E+03  0.7818608E-02  0.9649153E-01
          2   -1    0    0  501    0  0.00000000000E+00  0.00000000000E+00  0.10070635028E+04  0.10070635028E+04  0.25500000000E-02 0.  1.
         -2   -1    0    0    0  501 -0.00000000000E+00 -0.00000000000E+00 -0.13640538815E+03  0.13640538817E+03  0.25500000000E-02 0. -1.
    5000001    1    1    2    0    0  0.11269900183E+03  0.16345730485E+03  0.25091696664E+02  0.25937222049E+03  0.16500000000E+03 0.  0.
   -5000001    1    1    2    0    0 -0.11269900183E+03 -0.16345730485E+03  0.84556641804E+03  0.88409667052E+03  0.16500000000E+03 0.  0.
<mgrwt>
<rscale>  0 0.74126618E+03</rscale>
<asrwt>0</asrwt>
<pdfrwt beam="1">  1        2 0.14386621E+00 0.74126618E+03</pdfrwt>
<pdfrwt beam="2">  1       -2 0.19486484E-01 0.74126618E+03</pdfrwt>
<totfact> 0.62332019E+02</totfact>
</mgrwt>
</event>
<event>
 4    1  0.3584860E-005  0.1018253E+04  0.7818608E-02  0.9288749E-01
         -2   -1    0    0    0  501 -0.00000000000E+00  0.00000000000E+00  0.10716989224E+04  0.10716989224E+04  0.25500000000E-02 0. -1.
          2   -1    0    0  501    0  0.00000000000E+00 -0.00000000000E+00 -0.24186818705E+03  0.24186818706E+03  0.25500000000E-02 0.  1.
    5000001    1    1    2    0    0 -0.39093859228E+03 -0.11151434256E+03  0.74812146739E+03  0.86728263069E+03  0.16500000000E+03 0.  0.
   -5000001    1    1    2    0    0  0.39093859228E+03  0.11151434256E+03  0.81709267964E+02  0.44628447878E+03  0.16500000000E+03 0.  0.
<mgrwt>
<rscale>  0 0.10182532E+04</rscale>
<asrwt>0</asrwt>
<pdfrwt beam="1">  1        2 0.34552598E-01 0.10182532E+04</pdfrwt>
<pdfrwt beam="2">  1       -2 0.15309985E+00 0.10182532E+04</pdfrwt>
<totfact> 0.42943929E+01</totfact>
</mgrwt>
</event>
<event>
 4    1  0.3584860E-005  0.4907033E+03  0.7818608E-02  0.1016234E+00
          2   -1    0    0  501    0  0.00000000000E+00  0.00000000000E+00  0.27184836437E+03  0.27184836439E+03  0.25500000000E-02 0.  1.
         -2   -1    0    0    0  501 -0.00000000000E+00 -0.00000000000E+00 -0.22143758115E+03  0.22143758117E+03  0.25500000000E-02 0. -1.
    5000001    1    1    2    0    0  0.41772426553E+02  0.14372106013E+03 -0.78154841579E+02  0.23608019402E+03  0.16500000000E+03 0.  0.
   -5000001    1    1    2    0    0 -0.41772426553E+02 -0.14372106013E+03  0.12856562480E+03  0.25720575154E+03  0.16500000000E+03 0.  0.
<mgrwt>
<rscale>  0 0.49070335E+03</rscale>
<asrwt>0</asrwt>
<pdfrwt beam="1">  1        2 0.38835481E-01 0.49070335E+03</pdfrwt>
<pdfrwt beam="2">  1       -2 0.31633940E-01 0.49070335E+03</pdfrwt>
<totfact> 0.12338650E+03</totfact>
</mgrwt>
</event>
<event>
 4    1  0.3584860E-005  0.1825126E+04  0.7818608E-02  0.8693051E-01
         -2   -1    0    0    0  501 -0.00000000000E+00  0.00000000000E+00  0.63094048556E+03  0.63094048556E+03  0.25500000000E-02 0. -1.
          2   -1    0    0  501    0  0.00000000000E+00 -0.00000000000E+00 -0.13198890656E+04  0.13198890656E+04  0.25500000000E-02 0.  1.
    5000001    1    1    2    0    0 -0.11528742287E+03 -0.80653744410E+03 -0.74690577170E+03  0.11175361607E+04  0.16500000000E+03 0.  0.
   -5000001    1    1    2    0    0  0.11528742287E+03  0.80653744410E+03  0.57957191646E+02  0.83329339051E+03  0.16500000000E+03 0.  0.
<mgrwt>
<rscale>  0 0.18251262E+04</rscale>
<asrwt>0</asrwt>
<pdfrwt beam="1">  1        2 0.18855558E+00 0.18251262E+04</pdfrwt>
<pdfrwt beam="2">  1       -2 0.90134355E-01 0.18251262E+04</pdfrwt>
<totfact> 0.18223078E+01</totfact>
</mgrwt>
</event>
<event>
 4    1  0.3584860E-005  0.7409151E+03  0.7818608E-02  0.9649712E-01
         -2   -1    0    0    0  501 -0.00000000000E+00  0.00000000000E+00  0.59328558726E+02  0.59328558781E+02  0.25500000000E-02 0. -1.
          2   -1    0    0  501    0  0.00000000000E+00 -0.00000000000E+00 -0.23131998012E+04  0.23131998012E+04  0.25500000000E-02 0.  1.
    5000001    1    1    2    0    0 -0.32569852299E+03 -0.33968493394E+02 -0.95808663763E+03  0.10258598304E+04  0.16500000000E+03 0.  0.
   -5000001    1    1    2    0    0  0.32569852299E+03  0.33968493394E+02 -0.12957846048E+04  0.13466685296E+04  0.16500000000E+03 0.  0.
<mgrwt>
<rscale>  0 0.74091514E+03</rscale>
<asrwt>0</asrwt>
<pdfrwt beam="1">  1        2 0.33045706E+00 0.74091514E+03</pdfrwt>
<pdfrwt beam="2">  1       -2 0.84755098E-02 0.74091514E+03</pdfrwt>
<totfact> 0.50942212E+02</totfact>
</mgrwt>
</event>
<event>
 4    1  0.3584860E-005  0.4830907E+03  0.7818608E-02  0.1018289E+00
          2   -1    0    0  501    0  0.00000000000E+00  0.00000000000E+00  0.21474976759E+04  0.21474976759E+04  0.25500000000E-02 0.  1.
         -2   -1    0    0    0  501 -0.00000000000E+00 -0.00000000000E+00 -0.27168432345E+02  0.27168432465E+02  0.25500000000E-02 0. -1.
    5000001    1    1    2    0    0 -0.10931131336E+02 -0.14579624334E+03  0.15045019298E+04  0.15205680159E+04  0.16500000000E+03 0.  0.
   -5000001    1    1    2    0    0  0.10931131336E+02  0.14579624334E+03  0.61582731380E+03  0.65409809251E+03  0.16500000000E+03 0.  0.
<mgrwt>
<rscale>  0 0.48309066E+03</rscale>
<asrwt>0</asrwt>
<pdfrwt beam="1">  1        2 0.30678540E+00 0.48309066E+03</pdfrwt>
<pdfrwt beam="2">  1       -2 0.38812044E-02 0.48309066E+03</pdfrwt>
<totfact> 0.21285215E+03</totfact>
</mgrwt>
</event>
<event>
 4    1  0.3584860E-005  0.5341731E+03  0.7818608E-02  0.1005225E+00
          2   -1    0    0  501    0  0.00000000000E+00  0.00000000000E+00  0.59743924340E+03  0.59743924341E+03  0.25500000000E-02 0.  1.
         -2   -1    0    0    0  501 -0.00000000000E+00 -0.00000000000E+00 -0.11940163961E+03  0.11940163964E+03  0.25500000000E-02 0. -1.
    5000001    1    1    2    0    0  0.19042110173E+03 -0.33116507047E+02  0.12873807589E+03  0.28487785313E+03  0.16500000000E+03 0.  0.
   -5000001    1    1    2    0    0 -0.19042110173E+03  0.33116507047E+02  0.34929952790E+03  0.43196302991E+03  0.16500000000E+03 0.  0.
<mgrwt>
<rscale>  0 0.53417310E+03</rscale>
<asrwt>0</asrwt>
<pdfrwt beam="1">  1        2 0.85348465E-01 0.53417310E+03</pdfrwt>
<pdfrwt beam="2">  1       -2 0.17057377E-01 0.53417310E+03</pdfrwt>
<totfact> 0.15324442E+03</totfact>
</mgrwt>
</event>
<event>
 4    1  0.3584860E-005  0.6570298E+03  0.7818608E-02  0.9793677E-01
         -2   -1    0    0    0  501 -0.00000000000E+00  0.00000000000E+00  0.75371842302E+02  0.75371842345E+02  0.25500000000E-02 0. -1.
          2   -1    0    0  501    0  0.00000000000E+00 -0.00000000000E+00 -0.14318617177E+04  0.14318617177E+04  0.25500000000E-02 0.  1.
    5000001    1    1    2    0    0 -0.16800872515E+03  0.19592064132E+03 -0.40598899486E+03  0.50859010349E+03  0.16500000000E+03 0.  0.
   -5000001    1    1    2    0    0  0.16800872515E+03 -0.19592064132E+03 -0.95050088056E+03  0.99864345658E+03  0.16500000000E+03 0.  0.
<mgrwt>
<rscale>  0 0.65702985E+03</rscale>
<asrwt>0</asrwt>
<pdfrwt beam="1">  1        2 0.20455166E+00 0.65702985E+03</pdfrwt>
<pdfrwt beam="2">  1       -2 0.10767407E-01 0.65702985E+03</pdfrwt>
<totfact> 0.97869004E+02</totfact>
</mgrwt>
</event>
<event>
 4    1  0.3584860E-005  0.4253648E+03  0.7818608E-02  0.1035334E+00
          2   -1    0    0  501    0  0.00000000000E+00  0.00000000000E+00  0.10784734563E+04  0.10784734563E+04  0.25500000000E-02 0.  1.
         -2   -1    0    0    0  501 -0.00000000000E+00 -0.00000000000E+00 -0.41942425575E+02  0.41942425652E+02  0.25500000000E-02 0. -1.
    5000001    1    1    2    0    0 -0.50064781974E+02 -0.39797514543E+02  0.20751383977E+03  0.27272205312E+03  0.16500000000E+03 0.  0.
   -5000001    1    1    2    0    0  0.50064781974E+02  0.39797514543E+02  0.82901719090E+03  0.84769382879E+03  0.16500000000E+03 0.  0.
<mgrwt>
<rscale>  0 0.42536475E+03</rscale>
<asrwt>0</asrwt>
<pdfrwt beam="1">  1        2 0.15406765E+00 0.42536475E+03</pdfrwt>
<pdfrwt beam="2">  1       -2 0.59917746E-02 0.42536475E+03</pdfrwt>
<totfact> 0.39068934E+03</totfact>
</mgrwt>
</event>
<event>
 4    1  0.3584860E-005  0.3854650E+03  0.7818608E-02  0.1048932E+00
         -2   -1    0    0    0  501 -0.00000000000E+00  0.00000000000E+00  0.18213179736E+02  0.18213179914E+02  0.25500000000E-02 0. -1.
          2   -1    0    0  501    0  0.00000000000E+00 -0.00000000000E+00 -0.20395021820E+04  0.20395021820E+04  0.25500000000E-02 0.  1.
    5000001    1    1    2    0    0  0.87014170149E+02  0.44196830134E+02 -0.90441507145E+03  0.92450875986E+03  0.16500000000E+03 0.  0.
   -5000001    1    1    2    0    0 -0.87014170149E+02 -0.44196830134E+02 -0.11168739308E+04  0.11332066021E+04  0.16500000000E+03 0.  0.
<mgrwt>
<rscale>  0 0.38546502E+03</rscale>
<asrwt>0</asrwt>
<pdfrwt beam="1">  1        2 0.29135731E+00 0.38546502E+03</pdfrwt>
<pdfrwt beam="2">  1       -2 0.26018841E-02 0.38546502E+03</pdfrwt>
<totfact> 0.44208717E+03</totfact>
</mgrwt>
</event>
<event>
 4    1  0.3584860E-005  0.6510759E+03  0.7818608E-02  0.9804762E-01
         -2   -1    0    0    0  501 -0.00000000000E+00  0.00000000000E+00  0.83057624621E+02  0.83057624660E+02  0.25500000000E-02 0. -1.
          2   -1    0    0  501    0  0.00000000000E+00 -0.00000000000E+00 -0.12759209409E+04  0.12759209409E+04  0.25500000000E-02 0.  1.
    5000001    1    1    2    0    0  0.59634024772E+02  0.27138399560E+03 -0.67846134998E+03  0.75149204480E+03  0.16500000000E+03 0.  0.
   -5000001    1    1    2    0    0 -0.59634024772E+02 -0.27138399560E+03 -0.51440196629E+03  0.60748652075E+03  0.16500000000E+03 0.  0.
<mgrwt>
<rscale>  0 0.65107592E+03</rscale>
<asrwt>0</asrwt>
<pdfrwt beam="1">  1        2 0.18227441E+00 0.65107592E+03</pdfrwt>
<pdfrwt beam="2">  1       -2 0.11865376E-01 0.65107592E+03</pdfrwt>
<totfact> 0.10128521E+03</totfact>
</mgrwt>
</event>
<event>
 4    1  0.3584860E-005  0.5922268E+03  0.7818608E-02  0.9921666E-01
         -2   -1    0    0    0  501 -0.00000000000E+00  0.00000000000E+00  0.61559904820E+02  0.61559904873E+02  0.25500000000E-02 0. -1.
          2   -1    0    0  501    0  0.00000000000E+00 -0.00000000000E+00 -0.14243547225E+04  0.14243547225E+04  0.25500000000E-02 0.  1.
    5000001    1    1    2    0    0  0.24349386982E+03  0.76644045801E+01 -0.76499493134E+03  0.81962811855E+03  0.16500000000E+03 0.  0.
   -5000001    1    1    2    0    0 -0.24349386982E+03 -0.76644045801E+01 -0.59779988635E+03  0.66628650884E+03  0.16500000000E+03 0.  0.
<mgrwt>
<rscale>  0 0.59222678E+03</rscale>
<asrwt>0</asrwt>
<pdfrwt beam="1">  1        2 0.20347923E+00 0.59222678E+03</pdfrwt>
<pdfrwt beam="2">  1       -2 0.87942730E-02 0.59222678E+03</pdfrwt>
<totfact> 0.13738998E+03</totfact>
</mgrwt>
</event>
<event>
 4    1  0.3584860E-005  0.4825720E+03  0.7818608E-02  0.1018431E+00
          2   -1    0    0  501    0  0.00000000000E+00  0.00000000000E+00  0.10279174350E+03  0.10279174353E+03  0.25500000000E-02 0.  1.
         -2   -1    0    0    0  501 -0.00000000000E+00 -0.00000000000E+00 -0.56637741882E+03  0.56637741883E+03  0.25500000000E-02 0. -1.
    5000001    1    1    2    0    0  0.17324894615E+03 -0.26587966071E+02 -0.25465422763E+03  0.35042244924E+03  0.16500000000E+03 0.  0.
   -5000001    1    1    2    0    0 -0.17324894615E+03  0.26587966071E+02 -0.20893144769E+03  0.31874671311E+03  0.16500000000E+03 0.  0.
<mgrwt>
<rscale>  0 0.48257195E+03</rscale>
<asrwt>0</asrwt>
<pdfrwt beam="1">  1        2 0.14684535E-01 0.48257195E+03</pdfrwt>
<pdfrwt beam="2">  1       -2 0.80911058E-01 0.48257195E+03</pdfrwt>
<totfact> 0.55884638E+02</totfact>
</mgrwt>
</event>
<event>
 4    1  0.3584860E-005  0.3885311E+03  0.7818608E-02  0.1047825E+00
          2   -1    0    0  501    0  0.00000000000E+00  0.00000000000E+00  0.17237812619E+02  0.17237812808E+02  0.25500000000E-02 0.  1.
         -2   -1    0    0    0  501 -0.00000000000E+00 -0.00000000000E+00 -0.21893212545E+04  0.21893212545E+04  0.25500000000E-02 0. -1.
    5000001    1    1    2    0    0 -0.56432247670E+02 -0.69677945361E+02 -0.13685512078E+04  0.13813750479E+04  0.16500000000E+03 0.  0.
   -5000001    1    1    2    0    0  0.56432247670E+02  0.69677945361E+02 -0.80353223405E+03  0.82518401936E+03  0.16500000000E+03 0.  0.
<mgrwt>
<rscale>  0 0.38853113E+03</rscale>
<asrwt>0</asrwt>
<pdfrwt beam="1">  1        2 0.24625461E-02 0.38853113E+03</pdfrwt>
<pdfrwt beam="2">  1       -2 0.31276000E+00 0.38853113E+03</pdfrwt>
<totfact> 0.12537488E+02</totfact>
</mgrwt>
</event>
<event>
 4    1  0.3584860E-005  0.3824606E+03  0.7818608E-02  0.1050028E+00
          2   -1    0    0  501    0  0.00000000000E+00  0.00000000000E+00  0.13813472487E+04  0.13813472487E+04  0.25500000000E-02 0.  1.
         -2   -1    0    0    0  501 -0.00000000000E+00 -0.00000000000E+00 -0.26473450515E+02  0.26473450638E+02  0.25500000000E-02 0. -1.
    5000001    1    1    2    0    0 -0.45265858044E+02 -0.49979236186E+02  0.93238413430E+03  0.94926924307E+03  0.16500000000E+03 0.  0.
   -5000001    1    1    2    0    0  0.45265858044E+02  0.49979236186E+02  0.42248966391E+03  0.45855145629E+03  0.16500000000E+03 0.  0.
<mgrwt>
<rscale>  0 0.38246060E+03</rscale>
<asrwt>0</asrwt>
<pdfrwt beam="1">  1        2 0.19733537E+00 0.38246060E+03</pdfrwt>
<pdfrwt beam="2">  1       -2 0.37819205E-02 0.38246060E+03</pdfrwt>
<totfact> 0.53924785E+03</totfact>
</mgrwt>
</event>
<event>
 4    1  0.3584860E-005  0.4782246E+03  0.7818608E-02  0.1019624E+00
          2   -1    0    0  501    0  0.00000000000E+00  0.00000000000E+00  0.12090625103E+03  0.12090625105E+03  0.25500000000E-02 0.  1.
         -2   -1    0    0    0  501 -0.00000000000E+00 -0.00000000000E+00 -0.47288447190E+03  0.47288447190E+03  0.25500000000E-02 0. -1.
    5000001    1    1    2    0    0 -0.10222848685E+03  0.13791840876E+03 -0.20312257996E+03  0.31297912628E+03  0.16500000000E+03 0.  0.
   -5000001    1    1    2    0    0  0.10222848685E+03 -0.13791840876E+03 -0.14885564091E+03  0.28081159668E+03  0.16500000000E+03 0.  0.
<mgrwt>
<rscale>  0 0.47822459E+03</rscale>
<asrwt>0</asrwt>
<pdfrwt beam="1">  1        2 0.17272322E-01 0.47822459E+03</pdfrwt>
<pdfrwt beam="2">  1       -2 0.67554924E-01 0.47822459E+03</pdfrwt>
<totfact> 0.68335038E+02</totfact>
</mgrwt>
</event>
<event>
 4    1  0.3584860E-005  0.5170690E+03  0.7818608E-02  0.1009417E+00
          2   -1    0    0  501    0  0.00000000000E+00  0.00000000000E+00  0.26710360104E+03  0.26710360106E+03  0.25500000000E-02 0.  1.
         -2   -1    0    0    0  501 -0.00000000000E+00 -0.00000000000E+00 -0.25024034021E+03  0.25024034023E+03  0.25500000000E-02 0. -1.
    5000001    1    1    2    0    0  0.17834787783E+03  0.87560655445E+02  0.20281157063E+02  0.25905821593E+03  0.16500000000E+03 0.  0.
   -5000001    1    1    2    0    0 -0.17834787783E+03 -0.87560655445E+02 -0.34178962305E+01  0.25828572535E+03  0.16500000000E+03 0.  0.
<mgrwt>
<rscale>  0 0.51706903E+03</rscale>
<asrwt>0</asrwt>
<pdfrwt beam="1">  1        2 0.38157657E-01 0.51706903E+03</pdfrwt>
<pdfrwt beam="2">  1       -2 0.35748620E-01 0.51706903E+03</pdfrwt>
<totfact> 0.10002227E+03</totfact>
</mgrwt>
</event>
<event>
 4    1  0.3584860E-005  0.6400887E+03  0.7818608E-02  0.9825557E-01
          2   -1    0    0  501    0  0.00000000000E+00  0.00000000000E+00  0.19436065592E+04  0.19436065592E+04  0.25500000000E-02 0.  1.
         -2   -1    0    0    0  501 -0.00000000000E+00 -0.00000000000E+00 -0.52700169348E+02  0.52700169410E+02  0.25500000000E-02 0. -1.
    5000001    1    1    2    0    0 -0.25036764542E+03 -0.83000458586E+02  0.11794743978E+04  0.12198187935E+04  0.16500000000E+03 0.  0.
   -5000001    1    1    2    0    0  0.25036764542E+03  0.83000458586E+02  0.71143199205E+03  0.77648793507E+03  0.16500000000E+03 0.  0.
<mgrwt>
<rscale>  0 0.64008873E+03</rscale>
<asrwt>0</asrwt>
<pdfrwt beam="1">  1        2 0.27765810E+00 0.64008873E+03</pdfrwt>
<pdfrwt beam="2">  1       -2 0.75285950E-02 0.64008873E+03</pdfrwt>
<totfact> 0.95283330E+02</totfact>
</mgrwt>
</event>
<event>
 4    1  0.3584860E-005  0.3911696E+03  0.7818608E-02  0.1046881E+00
         -2   -1    0    0    0  501 -0.00000000000E+00  0.00000000000E+00  0.34075961346E+02  0.34075961441E+02  0.25500000000E-02 0. -1.
          2   -1    0    0  501    0  0.00000000000E+00 -0.00000000000E+00 -0.11225924453E+04  0.11225924453E+04  0.25500000000E-02 0.  1.
    5000001    1    1    2    0    0  0.82418136532E+02  0.64246134410E+02 -0.57500223331E+03  0.60726673162E+03  0.16500000000E+03 0.  0.
   -5000001    1    1    2    0    0 -0.82418136532E+02 -0.64246134410E+02 -0.51351425060E+03  0.54940167509E+03  0.16500000000E+03 0.  0.
<mgrwt>
<rscale>  0 0.39116961E+03</rscale>
<asrwt>0</asrwt>
<pdfrwt beam="1">  1        2 0.16037033E+00 0.39116961E+03</pdfrwt>
<pdfrwt beam="2">  1       -2 0.48679952E-02 0.39116961E+03</pdfrwt>
<totfact> 0.50737325E+03</totfact>
</mgrwt>
</event>
<event>
 4    1  0.3584860E-005  0.3935537E+03  0.7818608E-02  0.1046035E+00
          2   -1    0    0  501    0  0.00000000000E+00  0.00000000000E+00  0.46203467399E+02  0.46203467470E+02  0.25500000000E-02 0.  1.
         -2   -1    0    0    0  501 -0.00000000000E+00 -0.00000000000E+00 -0.83805673015E+03  0.83805673015E+03  0.25500000000E-02 0. -1.
    5000001    1    1    2    0    0 -0.36456446641E+02  0.89778757045E+02 -0.29279527151E+03  0.34977616948E+03  0.16500000000E+03 0.  0.
   -5000001    1    1    2    0    0  0.36456446641E+02 -0.89778757045E+02 -0.49905799124E+03  0.53448402814E+03  0.16500000000E+03 0.  0.
<mgrwt>
<rscale>  0 0.39355369E+03</rscale>
<asrwt>0</asrwt>
<pdfrwt beam="1">  1        2 0.66004958E-02 0.39355369E+03</pdfrwt>
<pdfrwt beam="2">  1       -2 0.11972238E+00 0.39355369E+03</pdfrwt>
<totfact> 0.61304293E+02</totfact>
</mgrwt>
</event>
<event>
 4    1  0.3584860E-005  0.5043658E+03  0.7818608E-02  0.1012646E+00
          2   -1    0    0  501    0  0.00000000000E+00  0.00000000000E+00  0.59327022334E+03  0.59327022334E+03  0.25500000000E-02 0.  1.
         -2   -1    0    0    0  501 -0.00000000000E+00 -0.00000000000E+00 -0.10719605496E+03  0.10719605499E+03  0.25500000000E-02 0. -1.
    5000001    1    1    2    0    0  0.99303665545E+01  0.92380276129E+02  0.11733136534E+02  0.18972452158E+03  0.16500000000E+03 0.  0.
   -5000001    1    1    2    0    0 -0.99303665545E+01 -0.92380276129E+02  0.47434103184E+03  0.51074175675E+03  0.16500000000E+03 0.  0.
<mgrwt>
<rscale>  0 0.50436585E+03</rscale>
<asrwt>0</asrwt>
<pdfrwt beam="1">  1        2 0.84752891E-01 0.50436585E+03</pdfrwt>
<pdfrwt beam="2">  1       -2 0.15313722E-01 0.50436585E+03</pdfrwt>
<totfact> 0.18541532E+03</totfact>
</mgrwt>
</event>
<event>
 4    1  0.3584860E-005  0.4060891E+03  0.7818608E-02  0.1041691E+00
          2   -1    0    0  501    0  0.00000000000E+00  0.00000000000E+00  0.28093053561E+04  0.28093053561E+04  0.25500000000E-02 0.  1.
         -2   -1    0    0    0  501 -0.00000000000E+00 -0.00000000000E+00 -0.14675187183E+02  0.14675187404E+02  0.25500000000E-02 0. -1.
    5000001    1    1    2    0    0  0.41506429943E+01  0.56366461176E+02  0.67436789669E+03  0.69655686478E+03  0.16500000000E+03 0.  0.
   -5000001    1    1    2    0    0 -0.41506429943E+01 -0.56366461176E+02  0.21202622722E+04  0.21274236787E+04  0.16500000000E+03 0.  0.
<mgrwt>
<rscale>  0 0.40608907E+03</rscale>
<asrwt>0</asrwt>
<pdfrwt beam="1">  1        2 0.40133017E+00 0.40608907E+03</pdfrwt>
<pdfrwt beam="2">  1       -2 0.20964510E-02 0.40608907E+03</pdfrwt>
<totfact> 0.24925013E+03</totfact>
</mgrwt>
</event>
<event>
 4    1  0.3584860E-005  0.5335610E+03  0.7818608E-02  0.1005372E+00
         -2   -1    0    0    0  501 -0.00000000000E+00  0.00000000000E+00  0.43424675808E+03  0.43424675809E+03  0.25500000000E-02 0. -1.
          2   -1    0    0  501    0  0.00000000000E+00 -0.00000000000E+00 -0.16389722633E+03  0.16389722635E+03  0.25500000000E-02 0.  1.
    5000001    1    1    2    0    0  0.10060851479E+03  0.17439959435E+03  0.20063386413E+03  0.32865824072E+03  0.16500000000E+03 0.  0.
   -5000001    1    1    2    0    0 -0.10060851479E+03 -0.17439959435E+03  0.69715667624E+02  0.26948574372E+03  0.16500000000E+03 0.  0.
<mgrwt>
<rscale>  0 0.53356102E+03</rscale>
<asrwt>0</asrwt>
<pdfrwt beam="1">  1        2 0.23413890E-01 0.53356102E+03</pdfrwt>
<pdfrwt beam="2">  1       -2 0.62035250E-01 0.53356102E+03</pdfrwt>
<totfact> 0.57460070E+02</totfact>
</mgrwt>
</event>
<event>
 4    1  0.3584860E-005  0.1207168E+04  0.7818608E-02  0.9106605E-01
         -2   -1    0    0    0  501 -0.00000000000E+00  0.00000000000E+00  0.15962090589E+04  0.15962090589E+04  0.25500000000E-02 0. -1.
          2   -1    0    0  501    0  0.00000000000E+00 -0.00000000000E+00 -0.22823678703E+03  0.22823678704E+03  0.25500000000E-02 0.  1.
    5000001    1    1    2    0    0 -0.41087869521E+03 -0.32962585972E+03  0.31497639323E+03  0.63553885630E+03  0.16500000000E+03 0.  0.
   -5000001    1    1    2    0    0  0.41087869521E+03  0.32962585972E+03  0.10529958786E+04  0.11889069896E+04  0.16500000000E+03 0.  0.
<mgrwt>
<rscale>  0 0.12071680E+04</rscale>
<asrwt>0</asrwt>
<pdfrwt beam="1">  1        2 0.32605257E-01 0.12071680E+04</pdfrwt>
<pdfrwt beam="2">  1       -2 0.22802986E+00 0.12071680E+04</pdfrwt>
<totfact> 0.14090266E+01</totfact>
</mgrwt>
</event>
<event>
 4    1  0.3584860E-005  0.4234102E+03  0.7818608E-02  0.1035962E+00
          2   -1    0    0  501    0  0.00000000000E+00  0.00000000000E+00  0.31590545778E+03  0.31590545779E+03  0.25500000000E-02 0.  1.
         -2   -1    0    0    0  501 -0.00000000000E+00 -0.00000000000E+00 -0.14187485219E+03  0.14187485221E+03  0.25500000000E-02 0. -1.
    5000001    1    1    2    0    0 -0.32461705302E+02  0.11986946120E+03  0.13739838865E+03  0.24804388169E+03  0.16500000000E+03 0.  0.
   -5000001    1    1    2    0    0  0.32461705302E+02 -0.11986946120E+03  0.36632216938E+02  0.20973642831E+03  0.16500000000E+03 0.  0.
<mgrwt>
<rscale>  0 0.42341016E+03</rscale>
<asrwt>0</asrwt>
<pdfrwt beam="1">  1        2 0.45129351E-01 0.42341016E+03</pdfrwt>
<pdfrwt beam="2">  1       -2 0.20267836E-01 0.42341016E+03</pdfrwt>
<totfact> 0.23196353E+03</totfact>
</mgrwt>
</event>
<event>
 4    1  0.3584860E-005  0.4534052E+03  0.7818608E-02  0.1026711E+00
          2   -1    0    0  501    0  0.00000000000E+00  0.00000000000E+00  0.95090387008E+02  0.95090387042E+02  0.25500000000E-02 0.  1.
         -2   -1    0    0    0  501 -0.00000000000E+00 -0.00000000000E+00 -0.54047588753E+03  0.54047588754E+03  0.25500000000E-02 0. -1.
    5000001    1    1    2    0    0 -0.14137956046E+03  0.49397438297E+02 -0.16420759968E+03  0.27679852387E+03  0.16500000000E+03 0.  0.
   -5000001    1    1    2    0    0  0.14137956046E+03 -0.49397438297E+02 -0.28117790085E+03  0.35876775071E+03  0.16500000000E+03 0.  0.
<mgrwt>
<rscale>  0 0.45340517E+03</rscale>
<asrwt>0</asrwt>
<pdfrwt beam="1">  1        2 0.13584341E-01 0.45340517E+03</pdfrwt>
<pdfrwt beam="2">  1       -2 0.77210839E-01 0.45340517E+03</pdfrwt>
<totfact> 0.68154718E+02</totfact>
</mgrwt>
</event>
<event>
 4    1  0.3584860E-005  0.3465117E+03  0.7818608E-02  0.1064056E+00
          2   -1    0    0  501    0  0.00000000000E+00  0.00000000000E+00  0.19833702088E+04  0.19833702088E+04  0.25500000000E-02 0.  1.
         -2   -1    0    0    0  501 -0.00000000000E+00 -0.00000000000E+00 -0.15134638600E+02  0.15134638815E+02  0.25500000000E-02 0. -1.
    5000001    1    1    2    0    0  0.49073373964E+02  0.17300668540E+02  0.93091834223E+03  0.94685873765E+03  0.16500000000E+03 0.  0.
   -5000001    1    1    2    0    0 -0.49073373964E+02 -0.17300668540E+02  0.10373172280E+04  0.10516461100E+04  0.16500000000E+03 0.  0.
<mgrwt>
<rscale>  0 0.34651171E+03</rscale>
<asrwt>0</asrwt>
<pdfrwt beam="1">  1        2 0.28333872E+00 0.34651171E+03</pdfrwt>
<pdfrwt beam="2">  1       -2 0.21620903E-02 0.34651171E+03</pdfrwt>
<totfact> 0.62100810E+03</totfact>
</mgrwt>
</event>
<event>
 4    1  0.3584860E-005  0.4455129E+03  0.7818608E-02  0.1029069E+00
          2   -1    0    0  501    0  0.00000000000E+00  0.00000000000E+00  0.16468976744E+04  0.16468976744E+04  0.25500000000E-02 0.  1.
         -2   -1    0    0    0  501 -0.00000000000E+00 -0.00000000000E+00 -0.30129640010E+02  0.30129640118E+02  0.25500000000E-02 0. -1.
    5000001    1    1    2    0    0 -0.13031148252E+03 -0.73083467196E+02  0.84058078372E+03  0.86955352314E+03  0.16500000000E+03 0.  0.
   -5000001    1    1    2    0    0  0.13031148252E+03  0.73083467196E+02  0.77618725067E+03  0.80747379138E+03  0.16500000000E+03 0.  0.
<mgrwt>
<rscale>  0 0.44551289E+03</rscale>
<asrwt>0</asrwt>
<pdfrwt beam="1">  1        2 0.23527115E+00 0.44551289E+03</pdfrwt>
<pdfrwt beam="2">  1       -2 0.43042334E-02 0.44551289E+03</pdfrwt>
<totfact> 0.32362712E+03</totfact>
</mgrwt>
</event>
<event>
 4    1  0.3584860E-005  0.4791831E+03  0.7818608E-02  0.1019360E+00
         -2   -1    0    0    0  501 -0.00000000000E+00  0.00000000000E+00  0.74996335427E+02  0.74996335471E+02  0.25500000000E-02 0. -1.
          2   -1    0    0  501    0  0.00000000000E+00 -0.00000000000E+00 -0.76542563003E+03  0.76542563004E+03  0.25500000000E-02 0.  1.
    5000001    1    1    2    0    0  0.14289007682E+03 -0.84679548679E+02 -0.25594112865E+03  0.34687038120E+03  0.16500000000E+03 0.  0.
   -5000001    1    1    2    0    0 -0.14289007682E+03  0.84679548679E+02 -0.43448816595E+03  0.49355158431E+03  0.16500000000E+03 0.  0.
<mgrwt>
<rscale>  0 0.47918313E+03</rscale>
<asrwt>0</asrwt>
<pdfrwt beam="1">  1        2 0.10934651E+00 0.47918313E+03</pdfrwt>
<pdfrwt beam="2">  1       -2 0.10713763E-01 0.47918313E+03</pdfrwt>
<totfact> 0.24591664E+03</totfact>
</mgrwt>
</event>
<event>
 4    1  0.3584860E-005  0.9461578E+03  0.7818608E-02  0.9369653E-01
         -2   -1    0    0    0  501 -0.00000000000E+00  0.00000000000E+00  0.57316157489E+03  0.57316157490E+03  0.25500000000E-02 0. -1.
          2   -1    0    0  501    0  0.00000000000E+00 -0.00000000000E+00 -0.39047215775E+03  0.39047215776E+03  0.25500000000E-02 0.  1.
    5000001    1    1    2    0    0 -0.16421729523E+03 -0.40363708735E+03  0.80513929067E+01  0.46602579678E+03  0.16500000000E+03 0.  0.
   -5000001    1    1    2    0    0  0.16421729523E+03  0.40363708735E+03  0.17463802423E+03  0.49760793588E+03  0.16500000000E+03 0.  0.
<mgrwt>
<rscale>  0 0.94615778E+03</rscale>
<asrwt>0</asrwt>
<pdfrwt beam="1">  1        2 0.55781737E-01 0.94615778E+03</pdfrwt>
<pdfrwt beam="2">  1       -2 0.81880224E-01 0.94615778E+03</pdfrwt>
<totfact> 0.11676878E+02</totfact>
</mgrwt>
</event>
<event>
 4    1  0.3584860E-005  0.4611746E+03  0.7818608E-02  0.1024441E+00
          2   -1    0    0  501    0  0.00000000000E+00  0.00000000000E+00  0.53246577835E+03  0.53246577836E+03  0.25500000000E-02 0.  1.
         -2   -1    0    0    0  501 -0.00000000000E+00 -0.00000000000E+00 -0.99857115268E+02  0.99857115301E+02  0.25500000000E-02 0. -1.
    5000001    1    1    2    0    0  0.82002009598E+02  0.12413375259E+03  0.13165008013E+03  0.25824457731E+03  0.16500000000E+03 0.  0.
   -5000001    1    1    2    0    0 -0.82002009598E+02 -0.12413375259E+03  0.30095858295E+03  0.37407831635E+03  0.16500000000E+03 0.  0.
<mgrwt>
<rscale>  0 0.46117457E+03</rscale>
<asrwt>0</asrwt>
<pdfrwt beam="1">  1        2 0.76066539E-01 0.46117457E+03</pdfrwt>
<pdfrwt beam="2">  1       -2 0.14265302E-01 0.46117457E+03</pdfrwt>
<totfact> 0.23634443E+03</totfact>
</mgrwt>
</event>
<event>
 4    1  0.3584860E-005  0.4104136E+03  0.7818608E-02  0.1040232E+00
         -2   -1    0    0    0  501 -0.00000000000E+00  0.00000000000E+00  0.97507396426E+02  0.97507396459E+02  0.25500000000E-02 0. -1.
          2   -1    0    0  501    0  0.00000000000E+00 -0.00000000000E+00 -0.43186304285E+03  0.43186304286E+03  0.25500000000E-02 0.  1.
    5000001    1    1    2    0    0  0.62375003770E+02  0.10139996940E+03 -0.20160115576E+03  0.28642733964E+03  0.16500000000E+03 0.  0.
   -5000001    1    1    2    0    0 -0.62375003770E+02 -0.10139996940E+03 -0.13275449066E+03  0.24294309968E+03  0.16500000000E+03 0.  0.
<mgrwt>
<rscale>  0 0.41041365E+03</rscale>
<asrwt>0</asrwt>
<pdfrwt beam="1">  1        2 0.61694720E-01 0.41041365E+03</pdfrwt>
<pdfrwt beam="2">  1       -2 0.13929628E-01 0.41041365E+03</pdfrwt>
<totfact> 0.31042270E+03</totfact>
</mgrwt>
</event>
<event>
 4    1  0.3584860E-005  0.4999787E+03  0.7818608E-02  0.1013784E+00
          2   -1    0    0  501    0  0.00000000000E+00  0.00000000000E+00  0.38923896791E+04  0.38923896791E+04  0.25500000000E-02 0.  1.
         -2   -1    0    0    0  501 -0.00000000000E+00 -0.00000000000E+00 -0.16055605613E+02  0.16055605815E+02  0.25500000000E-02 0. -1.
    5000001    1    1    2    0    0 -0.15405212280E+03  0.97451638081E+02  0.22913114174E+04  0.23044656409E+04  0.16500000000E+03 0.  0.
   -5000001    1    1    2    0    0  0.15405212280E+03 -0.97451638081E+02  0.15850226561E+04  0.16039796441E+04  0.16500000000E+03 0.  0.
<mgrwt>
<rscale>  0 0.49997870E+03</rscale>
<asrwt>0</asrwt>
<pdfrwt beam="1">  1        2 0.55605511E+00 0.49997870E+03</pdfrwt>
<pdfrwt beam="2">  1       -2 0.22936603E-02 0.49997870E+03</pdfrwt>
<totfact> 0.51264933E+02</totfact>
</mgrwt>
</event>
<event>
 4    1  0.3584860E-005  0.3569815E+03  0.7818608E-02  0.1059785E+00
          2   -1    0    0  501    0  0.00000000000E+00  0.00000000000E+00  0.24921900998E+03  0.24921900999E+03  0.25500000000E-02 0.  1.
         -2   -1    0    0    0  501 -0.00000000000E+00 -0.00000000000E+00 -0.12783516068E+03  0.12783516071E+03  0.25500000000E-02 0. -1.
    5000001    1    1    2    0    0  0.40149598968E+01  0.41066256058E+02  0.11787864275E+03  0.20693702353E+03  0.16500000000E+03 0.  0.
   -5000001    1    1    2    0    0 -0.40149598968E+01 -0.41066256058E+02  0.35052065495E+01  0.17011714717E+03  0.16500000000E+03 0.  0.
<mgrwt>
<rscale>  0 0.35698152E+03</rscale>
<asrwt>0</asrwt>
<pdfrwt beam="1">  1        2 0.35602715E-01 0.35698152E+03</pdfrwt>
<pdfrwt beam="2">  1       -2 0.18262166E-01 0.35698152E+03</pdfrwt>
<totfact> 0.35822600E+03</totfact>
</mgrwt>
</event>
<event>
 4    1  0.3584860E-005  0.4425245E+03  0.7818608E-02  0.1029975E+00
          2   -1    0    0  501    0  0.00000000000E+00  0.00000000000E+00  0.10398769789E+04  0.10398769790E+04  0.25500000000E-02 0.  1.
         -2   -1    0    0    0  501 -0.00000000000E+00 -0.00000000000E+00 -0.47079599265E+02  0.47079599334E+02  0.25500000000E-02 0. -1.
    5000001    1    1    2    0    0  0.88206024290E+02 -0.88698367599E+02  0.68799173191E+03  0.71847430456E+03  0.16500000000E+03 0.  0.
   -5000001    1    1    2    0    0 -0.88206024290E+02  0.88698367599E+02  0.30480564778E+03  0.36848227373E+03  0.16500000000E+03 0.  0.
<mgrwt>
<rscale>  0 0.44252454E+03</rscale>
<asrwt>0</asrwt>
<pdfrwt beam="1">  1        2 0.14855384E+00 0.44252454E+03</pdfrwt>
<pdfrwt beam="2">  1       -2 0.67256577E-02 0.44252454E+03</pdfrwt>
<totfact> 0.34379405E+03</totfact>
</mgrwt>
</event>
<event>
 4    1  0.3584860E-005  0.5664458E+03  0.7818608E-02  0.9977575E-01
          2   -1    0    0  501    0  0.00000000000E+00  0.00000000000E+00  0.20125077381E+04  0.20125077381E+04  0.25500000000E-02 0.  1.
         -2   -1    0    0    0  501 -0.00000000000E+00 -0.00000000000E+00 -0.39858334723E+02  0.39858334805E+02  0.25500000000E-02 0. -1.
    5000001    1    1    2    0    0  0.54252773812E+02 -0.21236388572E+03  0.73144813020E+03  0.78120621516E+03  0.16500000000E+03 0.  0.
   -5000001    1    1    2    0    0 -0.54252773812E+02  0.21236388572E+03  0.12412012731E+04  0.12711598577E+04  0.16500000000E+03 0.  0.
<mgrwt>
<rscale>  0 0.56644579E+03</rscale>
<asrwt>0</asrwt>
<pdfrwt beam="1">  1        2 0.28750110E+00 0.56644579E+03</pdfrwt>
<pdfrwt beam="2">  1       -2 0.56940479E-02 0.56644579E+03</pdfrwt>
<totfact> 0.13710815E+03</totfact>
</mgrwt>
</event>
<event>
 4    1  0.3584860E-005  0.1988773E+04  0.7818608E-02  0.8611888E-01
          2   -1    0    0  501    0  0.00000000000E+00  0.00000000000E+00  0.29419956393E+04  0.29419956394E+04  0.25500000000E-02 0.  1.
         -2   -1    0    0    0  501 -0.00000000000E+00 -0.00000000000E+00 -0.33609977879E+03  0.33609977880E+03  0.25500000000E-02 0. -1.
    5000001    1    1    2    0    0  0.78342556325E+03 -0.56977959586E+03  0.10520232574E+04  0.14395771376E+04  0.16500000000E+03 0.  0.
   -5000001    1    1    2    0    0 -0.78342556325E+03  0.56977959586E+03  0.15538726032E+04  0.18385182805E+04  0.16500000000E+03 0.  0.
<mgrwt>
<rscale>  0 0.19887726E+04</rscale>
<asrwt>0</asrwt>
<pdfrwt beam="1">  1        2 0.42028508E+00 0.19887726E+04</pdfrwt>
<pdfrwt beam="2">  1       -2 0.48014255E-01 0.19887726E+04</pdfrwt>
<totfact> 0.97556329E+00</totfact>
</mgrwt>
</event>
<event>
 4    1  0.3584860E-005  0.4872276E+03  0.7818608E-02  0.1017168E+00
          2   -1    0    0  501    0  0.00000000000E+00  0.00000000000E+00  0.16385255981E+04  0.16385255981E+04  0.25500000000E-02 0.  1.
         -2   -1    0    0    0  501 -0.00000000000E+00 -0.00000000000E+00 -0.36220173257E+02  0.36220173347E+02  0.25500000000E-02 0. -1.
    5000001    1    1    2    0    0  0.14664526033E+03  0.81398135189E+02  0.10183341709E+04  0.10451602616E+04  0.16500000000E+03 0.  0.
   -5000001    1    1    2    0    0 -0.14664526033E+03 -0.81398135189E+02  0.58397125393E+03  0.62958550984E+03  0.16500000000E+03 0.  0.
<mgrwt>
<rscale>  0 0.48722759E+03</rscale>
<asrwt>0</asrwt>
<pdfrwt beam="1">  1        2 0.23407517E+00 0.48722759E+03</pdfrwt>
<pdfrwt beam="2">  1       -2 0.51743087E-02 0.48722759E+03</pdfrwt>
<totfact> 0.24602320E+03</totfact>
</mgrwt>
</event>
<event>
 4    1  0.3584860E-005  0.4542924E+03  0.7818608E-02  0.1026450E+00
         -2   -1    0    0    0  501 -0.00000000000E+00  0.00000000000E+00  0.58689398514E+02  0.58689398569E+02  0.25500000000E-02 0. -1.
          2   -1    0    0  501    0  0.00000000000E+00 -0.00000000000E+00 -0.87912638364E+03  0.87912638365E+03  0.25500000000E-02 0.  1.
    5000001    1    1    2    0    0 -0.11208680104E+03  0.10646254279E+03 -0.36533741859E+03  0.42964421724E+03  0.16500000000E+03 0.  0.
   -5000001    1    1    2    0    0  0.11208680104E+03 -0.10646254279E+03 -0.45509956654E+03  0.50817156497E+03  0.16500000000E+03 0.  0.
<mgrwt>
<rscale>  0 0.45429241E+03</rscale>
<asrwt>0</asrwt>
<pdfrwt beam="1">  1        2 0.12558948E+00 0.45429241E+03</pdfrwt>
<pdfrwt beam="2">  1       -2 0.83842003E-02 0.45429241E+03</pdfrwt>
<totfact> 0.30524342E+03</totfact>
</mgrwt>
</event>
<event>
 4    1  0.3584860E-005  0.5037529E+03  0.7818608E-02  0.1012804E+00
          2   -1    0    0  501    0  0.00000000000E+00  0.00000000000E+00  0.16143445191E+04  0.16143445191E+04  0.25500000000E-02 0.  1.
         -2   -1    0    0    0  501 -0.00000000000E+00 -0.00000000000E+00 -0.39298767000E+02  0.39298767083E+02  0.25500000000E-02 0. -1.
    5000001    1    1    2    0    0  0.17481812908E+03  0.29066026618E+02  0.55984488912E+03  0.60996517280E+03  0.16500000000E+03 0.  0.
   -5000001    1    1    2    0    0 -0.17481812908E+03 -0.29066026618E+02  0.10152008630E+04  0.10436781134E+04  0.16500000000E+03 0.  0.
<mgrwt>
<rscale>  0 0.50375291E+03</rscale>
<asrwt>0</asrwt>
<pdfrwt beam="1">  1        2 0.23062066E+00 0.50375291E+03</pdfrwt>
<pdfrwt beam="2">  1       -2 0.56141093E-02 0.50375291E+03</pdfrwt>
<totfact> 0.22293713E+03</totfact>
</mgrwt>
</event>
<event>
 4    1  0.3584860E-005  0.5844845E+03  0.7818608E-02  0.9938129E-01
          2   -1    0    0  501    0  0.00000000000E+00  0.00000000000E+00  0.55655099541E+03  0.55655099542E+03  0.25500000000E-02 0.  1.
         -2   -1    0    0    0  501 -0.00000000000E+00 -0.00000000000E+00 -0.15345502566E+03  0.15345502568E+03  0.25500000000E-02 0. -1.
    5000001    1    1    2    0    0 -0.97725110298E+02  0.18701934484E+03  0.59602765477E+02  0.27441560120E+03  0.16500000000E+03 0.  0.
   -5000001    1    1    2    0    0  0.97725110298E+02 -0.18701934484E+03  0.34349320427E+03  0.43559041990E+03  0.16500000000E+03 0.  0.
<mgrwt>
<rscale>  0 0.58448455E+03</rscale>
<asrwt>0</asrwt>
<pdfrwt beam="1">  1        2 0.79507285E-01 0.58448455E+03</pdfrwt>
<pdfrwt beam="2">  1       -2 0.21922147E-01 0.58448455E+03</pdfrwt>
<totfact> 0.10774475E+03</totfact>
</mgrwt>
</event>
<event>
 4    1  0.3584860E-005  0.4967600E+03  0.7818608E-02  0.1014628E+00
         -2   -1    0    0    0  501 -0.00000000000E+00  0.00000000000E+00  0.46593836600E+02  0.46593836670E+02  0.25500000000E-02 0. -1.
          2   -1    0    0  501    0  0.00000000000E+00 -0.00000000000E+00 -0.13240512638E+04  0.13240512638E+04  0.25500000000E-02 0.  1.
    5000001    1    1    2    0    0 -0.12443547547E+01  0.18466168443E+03 -0.58593244095E+03  0.63611580036E+03  0.16500000000E+03 0.  0.
   -5000001    1    1    2    0    0  0.12443547547E+01 -0.18466168443E+03 -0.69152498629E+03  0.73452930015E+03  0.16500000000E+03 0.  0.
<mgrwt>
<rscale>  0 0.49676002E+03</rscale>
<asrwt>0</asrwt>
<pdfrwt beam="1">  1        2 0.18915016E+00 0.49676002E+03</pdfrwt>
<pdfrwt beam="2">  1       -2 0.66562632E-02 0.49676002E+03</pdfrwt>
<totfact> 0.24218318E+03</totfact>
</mgrwt>
</event>
<event>
 4    1  0.3584860E-005  0.3805405E+03  0.7818608E-02  0.1050734E+00
          2   -1    0    0  501    0  0.00000000000E+00  0.00000000000E+00  0.15267071263E+03  0.15267071265E+03  0.25500000000E-02 0.  1.
         -2   -1    0    0    0  501 -0.00000000000E+00 -0.00000000000E+00 -0.23712974688E+03  0.23712974689E+03  0.25500000000E-02 0. -1.
    5000001    1    1    2    0    0 -0.11871840539E+01  0.94436131508E+02 -0.50042377577E+02  0.19659306166E+03  0.16500000000E+03 0.  0.
   -5000001    1    1    2    0    0  0.11871840539E+01 -0.94436131508E+02 -0.34416656667E+02  0.19320739788E+03  0.16500000000E+03 0.  0.
<mgrwt>
<rscale>  0 0.38054050E+03</rscale>
<asrwt>0</asrwt>
<pdfrwt beam="1">  1        2 0.21810102E-01 0.38054050E+03</pdfrwt>
<pdfrwt beam="2">  1       -2 0.33875678E-01 0.38054050E+03</pdfrwt>
<totfact> 0.20663735E+03</totfact>
</mgrwt>
</event>
<event>
 4    1  0.3584860E-005  0.3697198E+03  0.7818608E-02  0.1054800E+00
          2   -1    0    0  501    0  0.00000000000E+00  0.00000000000E+00  0.26486828260E+04  0.26486828260E+04  0.25500000000E-02 0.  1.
         -2   -1    0    0    0  501 -0.00000000000E+00 -0.00000000000E+00 -0.12901949891E+02  0.12901950143E+02  0.25500000000E-02 0. -1.
    5000001    1    1    2    0    0  0.82964628309E+02 -0.33717454139E+01  0.13706321911E+04  0.13830228131E+04  0.16500000000E+03 0.  0.
   -5000001    1    1    2    0    0 -0.82964628309E+02  0.33717454139E+01  0.12651486850E+04  0.12785619631E+04  0.16500000000E+03 0.  0.
<mgrwt>
<rscale>  0 0.36971975E+03</rscale>
<asrwt>0</asrwt>
<pdfrwt beam="1">  1        2 0.37838338E+00 0.36971975E+03</pdfrwt>
<pdfrwt beam="2">  1       -2 0.18431351E-02 0.36971975E+03</pdfrwt>
<totfact> 0.36628186E+03</totfact>
</mgrwt>
</event>
<event>
 4    1  0.3584860E-005  0.4634679E+03  0.7818608E-02  0.1023780E+00
         -2   -1    0    0    0  501 -0.00000000000E+00  0.00000000000E+00  0.11961303392E+03  0.11961303395E+03  0.25500000000E-02 0. -1.
          2   -1    0    0  501    0  0.00000000000E+00 -0.00000000000E+00 -0.44895294131E+03  0.44895294132E+03  0.25500000000E-02 0.  1.
    5000001    1    1    2    0    0 -0.10204004304E+03  0.11049252300E+03 -0.24083667343E+03  0.32840230099E+03  0.16500000000E+03 0.  0.
   -5000001    1    1    2    0    0  0.10204004304E+03 -0.11049252300E+03 -0.88503233962E+02  0.24016367428E+03  0.16500000000E+03 0.  0.
<mgrwt>
<rscale>  0 0.46346790E+03</rscale>
<asrwt>0</asrwt>
<pdfrwt beam="1">  1        2 0.64136134E-01 0.46346790E+03</pdfrwt>
<pdfrwt beam="2">  1       -2 0.17087577E-01 0.46346790E+03</pdfrwt>
<totfact> 0.21141387E+03</totfact>
</mgrwt>
</event>
<event>
 4    1  0.3584860E-005  0.5040946E+03  0.7818608E-02  0.1012716E+00
          2   -1    0    0  501    0  0.00000000000E+00  0.00000000000E+00  0.42817919989E+03  0.42817919989E+03  0.25500000000E-02 0.  1.
         -2   -1    0    0    0  501 -0.00000000000E+00 -0.00000000000E+00 -0.14836741257E+03  0.14836741259E+03  0.25500000000E-02 0. -1.
    5000001    1    1    2    0    0  0.11656606727E+03 -0.11463768602E+03  0.27999390181E+02  0.23396241780E+03  0.16500000000E+03 0.  0.
   -5000001    1    1    2    0    0 -0.11656606727E+03  0.11463768602E+03  0.25181239714E+03  0.34258419468E+03  0.16500000000E+03 0.  0.
<mgrwt>
<rscale>  0 0.50409459E+03</rscale>
<asrwt>0</asrwt>
<pdfrwt beam="1">  1        2 0.61168457E-01 0.50409459E+03</pdfrwt>
<pdfrwt beam="2">  1       -2 0.21195345E-01 0.50409459E+03</pdfrwt>
<totfact> 0.15383876E+03</totfact>
</mgrwt>
</event>
<event>
 4    1  0.3584860E-005  0.4404256E+03  0.7818608E-02  0.1030616E+00
         -2   -1    0    0    0  501 -0.00000000000E+00  0.00000000000E+00  0.36166230940E+02  0.36166231030E+02  0.25500000000E-02 0. -1.
          2   -1    0    0  501    0  0.00000000000E+00 -0.00000000000E+00 -0.13408553937E+04  0.13408553937E+04  0.25500000000E-02 0.  1.
    5000001    1    1    2    0    0  0.71904266225E+01  0.14535220357E+03 -0.68195974877E+03  0.71657034843E+03  0.16500000000E+03 0.  0.
   -5000001    1    1    2    0    0 -0.71904266225E+01 -0.14535220357E+03 -0.62272941404E+03  0.66045127634E+03  0.16500000000E+03 0.  0.
<mgrwt>
<rscale>  0 0.44042564E+03</rscale>
<asrwt>0</asrwt>
<pdfrwt beam="1">  1        2 0.19155074E+00 0.44042564E+03</pdfrwt>
<pdfrwt beam="2">  1       -2 0.51666053E-02 0.44042564E+03</pdfrwt>
<totfact> 0.35187137E+03</totfact>
</mgrwt>
</event>
<event>
 4    1  0.3584860E-005  0.6070652E+03  0.7818608E-02  0.9890856E-01
         -2   -1    0    0    0  501 -0.00000000000E+00  0.00000000000E+00  0.58489895955E+02  0.58489896011E+02  0.25500000000E-02 0.  1.
          2   -1    0    0  501    0  0.00000000000E+00 -0.00000000000E+00 -0.15751784575E+04  0.15751784575E+04  0.25500000000E-02 0. -1.
    5000001    1    1    2    0    0 -0.74376130964E+02 -0.23766763683E+03 -0.90299667991E+03  0.95112865501E+03  0.16500000000E+03 0.  0.
   -5000001    1    1    2    0    0  0.74376130964E+02  0.23766763683E+03 -0.61369188165E+03  0.68253969852E+03  0.16500000000E+03 0.  0.
<mgrwt>
<rscale>  0 0.60706515E+03</rscale>
<asrwt>0</asrwt>
<pdfrwt beam="1">  1        2 0.22502547E+00 0.60706515E+03</pdfrwt>
<pdfrwt beam="2">  1       -2 0.83557004E-02 0.60706515E+03</pdfrwt>
<totfact> 0.12435033E+03</totfact>
</mgrwt>
</event>
<event>
 4    1  0.3584860E-005  0.4768987E+03  0.7818608E-02  0.1019991E+00
         -2   -1    0    0    0  501 -0.00000000000E+00  0.00000000000E+00  0.10068297180E+03  0.10068297183E+03  0.25500000000E-02 0. -1.
          2   -1    0    0  501    0  0.00000000000E+00 -0.00000000000E+00 -0.56472403602E+03  0.56472403602E+03  0.25500000000E-02 0.  1.
    5000001    1    1    2    0    0  0.11575839647E+03 -0.11788265409E+03 -0.29946851986E+03  0.37974033349E+03  0.16500000000E+03 0.  0.
   -5000001    1    1    2    0    0 -0.11575839647E+03  0.11788265409E+03 -0.16457254436E+03  0.28566667437E+03  0.16500000000E+03 0.  0.
<mgrwt>
<rscale>  0 0.47689871E+03</rscale>
<asrwt>0</asrwt>
<pdfrwt beam="1">  1        2 0.80674860E-01 0.47689871E+03</pdfrwt>
<pdfrwt beam="2">  1       -2 0.14383282E-01 0.47689871E+03</pdfrwt>
<totfact> 0.21798696E+03</totfact>
</mgrwt>
</event>
<event>
 4    1  0.3584860E-005  0.7939740E+03  0.7818608E-02  0.9568781E-01
         -2   -1    0    0    0  501 -0.00000000000E+00  0.00000000000E+00  0.33224700712E+03  0.33224700713E+03  0.25500000000E-02 0. -1.
          2   -1    0    0  501    0  0.00000000000E+00 -0.00000000000E+00 -0.47434188252E+03  0.47434188253E+03  0.25500000000E-02 0.  1.
    5000001    1    1    2    0    0 -0.29233213291E+03  0.13504597348E+03 -0.23697711304E+03  0.43252588708E+03  0.16500000000E+03 0.  0.
   -5000001    1    1    2    0    0  0.29233213291E+03 -0.13504597348E+03  0.94882237635E+02  0.37406300259E+03  0.16500000000E+03 0.  0.
<mgrwt>
<rscale>  0 0.79397398E+03</rscale>
<asrwt>0</asrwt>
<pdfrwt beam="1">  1        2 0.67763125E-01 0.79397398E+03</pdfrwt>
<pdfrwt beam="2">  1       -2 0.47463859E-01 0.79397398E+03</pdfrwt>
<totfact> 0.30185634E+02</totfact>
</mgrwt>
</event>
<event>
 4    1  0.3584860E-005  0.6446047E+03  0.7818608E-02  0.9816956E-01
         -2   -1    0    0    0  501 -0.00000000000E+00  0.00000000000E+00  0.19676793480E+03  0.19676793481E+03  0.25500000000E-02 0. -1.
          2   -1    0    0  501    0  0.00000000000E+00 -0.00000000000E+00 -0.52792551364E+03  0.52792551365E+03  0.25500000000E-02 0.  1.
    5000001    1    1    2    0    0 -0.24757992411E+03 -0.41996211324E+02 -0.29665970740E+03  0.42224576088E+03  0.16500000000E+03 0.  0.
   -5000001    1    1    2    0    0  0.24757992411E+03  0.41996211324E+02 -0.34497871443E+02  0.30244768758E+03  0.16500000000E+03 0.  0.
<mgrwt>
<rscale>  0 0.64460473E+03</rscale>
<asrwt>0</asrwt>
<pdfrwt beam="1">  1        2 0.75417930E-01 0.64460473E+03</pdfrwt>
<pdfrwt beam="2">  1       -2 0.28109705E-01 0.64460473E+03</pdfrwt>
<totfact> 0.73224382E+02</totfact>
</mgrwt>
</event>
<event>
 4    1  0.3584860E-005  0.1487949E+04  0.7818608E-02  0.8892507E-01
         -2   -1    0    0    0  501 -0.00000000000E+00  0.00000000000E+00  0.56064638147E+03  0.56064638148E+03  0.25500000000E-02 0. -1.
          2   -1    0    0  501    0  0.00000000000E+00 -0.00000000000E+00 -0.98724938810E+03  0.98724938811E+03  0.25500000000E-02 0.  1.
    5000001    1    1    2    0    0 -0.30706282898E+03 -0.32404723599E+03 -0.80815968273E+03  0.93789192602E+03  0.16500000000E+03 0.  0.
   -5000001    1    1    2    0    0  0.30706282898E+03  0.32404723599E+03  0.38155667610E+03  0.61000384357E+03  0.16500000000E+03 0.  0.
<mgrwt>
<rscale>  0 0.14879487E+04</rscale>
<asrwt>0</asrwt>
<pdfrwt beam="1">  1        2 0.14103563E+00 0.14879487E+04</pdfrwt>
<pdfrwt beam="2">  1       -2 0.80092340E-01 0.14879487E+04</pdfrwt>
<totfact> 0.38213367E+01</totfact>
</mgrwt>
</event>
<event>
 4    1  0.3584860E-005  0.1047319E+04  0.7818608E-02  0.9258116E-01
         -2   -1    0    0    0  501 -0.00000000000E+00  0.00000000000E+00  0.96195021162E+02  0.96195021196E+02  0.25500000000E-02 0. -1.
          2   -1    0    0  501    0  0.00000000000E+00 -0.00000000000E+00 -0.28506612771E+04  0.28506612771E+04  0.25500000000E-02 0.  1.
    5000001    1    1    2    0    0  0.35365022549E+03 -0.51633428723E+01 -0.39485105866E+03  0.55518240302E+03  0.16500000000E+03 0.  0.
   -5000001    1    1    2    0    0 -0.35365022549E+03  0.51633428723E+01 -0.23596151972E+04  0.23916738952E+04  0.16500000000E+03 0.  0.
<mgrwt>
<rscale>  0 0.10473193E+04</rscale>
<asrwt>0</asrwt>
<pdfrwt beam="1">  1        2 0.40723727E+00 0.10473193E+04</pdfrwt>
<pdfrwt beam="2">  1       -2 0.13742148E-01 0.10473193E+04</pdfrwt>
<totfact> 0.11740440E+02</totfact>
</mgrwt>
</event>
<event>
 4    1  0.3584860E-005  0.1914497E+04  0.7818608E-02  0.8647674E-01
          2   -1    0    0  501    0  0.00000000000E+00  0.00000000000E+00  0.18140989216E+04  0.18140989216E+04  0.25500000000E-02 0.  1.
         -2   -1    0    0    0  501 -0.00000000000E+00 -0.00000000000E+00 -0.50511281243E+03  0.50511281244E+03  0.25500000000E-02 0. -1.
    5000001    1    1    2    0    0 -0.75804320657E+03 -0.27212058051E+03  0.12484725766E+04  0.14948538015E+04  0.16500000000E+03 0.  0.
   -5000001    1    1    2    0    0  0.75804320657E+03  0.27212058051E+03  0.60513532621E+02  0.82435793258E+03  0.16500000000E+03 0.  0.
<mgrwt>
<rscale>  0 0.19144969E+04</rscale>
<asrwt>0</asrwt>
<pdfrwt beam="1">  1        2 0.25915699E+00 0.19144969E+04</pdfrwt>
<pdfrwt beam="2">  1       -2 0.72158973E-01 0.19144969E+04</pdfrwt>
<totfact> 0.16336536E+01</totfact>
</mgrwt>
</event>
<event>
 4    1  0.3584860E-005  0.3650535E+03  0.7818608E-02  0.1056601E+00
          2   -1    0    0  501    0  0.00000000000E+00  0.00000000000E+00  0.27674721683E+03  0.27674721685E+03  0.25500000000E-02 0.  1.
         -2   -1    0    0    0  501 -0.00000000000E+00 -0.00000000000E+00 -0.12038427429E+03  0.12038427432E+03  0.25500000000E-02 0. -1.
    5000001    1    1    2    0    0  0.48806522394E+02  0.55233250247E+02  0.10609178887E+03  0.20955490027E+03  0.16500000000E+03 0.  0.
   -5000001    1    1    2    0    0 -0.48806522394E+02 -0.55233250247E+02  0.50271153670E+02  0.18757659090E+03  0.16500000000E+03 0.  0.
<mgrwt>
<rscale>  0 0.36505349E+03</rscale>
<asrwt>0</asrwt>
<pdfrwt beam="1">  1        2 0.39535317E-01 0.36505349E+03</pdfrwt>
<pdfrwt beam="2">  1       -2 0.17197753E-01 0.36505349E+03</pdfrwt>
<totfact> 0.35390537E+03</totfact>
</mgrwt>
</event>
<event>
 4    1  0.3584860E-005  0.8986071E+03  0.7818608E-02  0.9427324E-01
         -2   -1    0    0    0  501 -0.00000000000E+00  0.00000000000E+00  0.31753604791E+03  0.31753604792E+03  0.25500000000E-02 0. -1.
          2   -1    0    0  501    0  0.00000000000E+00 -0.00000000000E+00 -0.63575042280E+03  0.63575042281E+03  0.25500000000E-02 0.  1.
    5000001    1    1    2    0    0 -0.36373603142E+02 -0.34935690869E+03  0.81112205585E+02  0.39645614959E+03  0.16500000000E+03 0.  0.
   -5000001    1    1    2    0    0  0.36373603142E+02  0.34935690869E+03 -0.39932658048E+03  0.55683032113E+03  0.16500000000E+03 0.  0.
<mgrwt>
<rscale>  0 0.89860709E+03</rscale>
<asrwt>0</asrwt>
<pdfrwt beam="1">  1        2 0.90821488E-01 0.89860709E+03</pdfrwt>
<pdfrwt beam="2">  1       -2 0.45362293E-01 0.89860709E+03</pdfrwt>
<totfact> 0.23384276E+02</totfact>
</mgrwt>
</event>
<event>
 4    1  0.3584860E-005  0.5544407E+03  0.7818608E-02  0.1000471E+00
          2   -1    0    0  501    0  0.00000000000E+00  0.00000000000E+00  0.12368629237E+04  0.12368629237E+04  0.25500000000E-02 0.  1.
         -2   -1    0    0    0  501 -0.00000000000E+00 -0.00000000000E+00 -0.62133911084E+02  0.62133911136E+02  0.25500000000E-02 0. -1.
    5000001    1    1    2    0    0  0.14866304804E+03  0.13443879104E+03  0.81513977343E+03  0.85548368811E+03  0.16500000000E+03 0.  0.
   -5000001    1    1    2    0    0 -0.14866304804E+03 -0.13443879104E+03  0.35958923922E+03  0.44351314677E+03  0.16500000000E+03 0.  0.
<mgrwt>
<rscale>  0 0.55444073E+03</rscale>
<asrwt>0</asrwt>
<pdfrwt beam="1">  1        2 0.17669472E+00 0.55444073E+03</pdfrwt>
<pdfrwt beam="2">  1       -2 0.88762723E-02 0.55444073E+03</pdfrwt>
<totfact> 0.17101008E+03</totfact>
</mgrwt>
</event>
<event>
 4    1  0.3584860E-005  0.4725855E+03  0.7818608E-02  0.1021193E+00
          2   -1    0    0  501    0  0.00000000000E+00  0.00000000000E+00  0.50461729064E+03  0.50461729065E+03  0.25500000000E-02 0.  1.
         -2   -1    0    0    0  501 -0.00000000000E+00 -0.00000000000E+00 -0.11064677188E+03  0.11064677191E+03  0.25500000000E-02 0. -1.
    5000001    1    1    2    0    0 -0.15026830833E+03  0.21349330600E+02  0.99795085720E+02  0.24539848724E+03  0.16500000000E+03 0.  0.
   -5000001    1    1    2    0    0  0.15026830833E+03 -0.21349330600E+02  0.29417543304E+03  0.36986557532E+03  0.16500000000E+03 0.  0.
<mgrwt>
<rscale>  0 0.47258554E+03</rscale>
<asrwt>0</asrwt>
<pdfrwt beam="1">  1        2 0.72088186E-01 0.47258554E+03</pdfrwt>
<pdfrwt beam="2">  1       -2 0.15806681E-01 0.47258554E+03</pdfrwt>
<totfact> 0.21159689E+03</totfact>
</mgrwt>
</event>
<event>
 4    1  0.3584860E-005  0.5244335E+03  0.7818608E-02  0.1007591E+00
         -2   -1    0    0    0  501 -0.00000000000E+00  0.00000000000E+00  0.87747977050E+02  0.87747977087E+02  0.25500000000E-02 0. -1.
          2   -1    0    0  501    0  0.00000000000E+00 -0.00000000000E+00 -0.78358064630E+03  0.78358064631E+03  0.25500000000E-02 0.  1.
    5000001    1    1    2    0    0 -0.77662982225E+02  0.14191478442E+03 -0.14199318875E+03  0.27121653802E+03  0.16500000000E+03 0.  0.
   -5000001    1    1    2    0    0  0.77662982225E+02 -0.14191478442E+03 -0.55383948051E+03  0.60011208537E+03  0.16500000000E+03 0.  0.
<mgrwt>
<rscale>  0 0.52443347E+03</rscale>
<asrwt>0</asrwt>
<pdfrwt beam="1">  1        2 0.11194009E+00 0.52443347E+03</pdfrwt>
<pdfrwt beam="2">  1       -2 0.12535426E-01 0.52443347E+03</pdfrwt>
<totfact> 0.18476203E+03</totfact>
</mgrwt>
</event>
<event>
 4    1  0.3584860E-005  0.4129054E+03  0.7818608E-02  0.1039400E+00
         -2   -1    0    0    0  501 -0.00000000000E+00  0.00000000000E+00  0.70179914997E+02  0.70179915044E+02  0.25500000000E-02 0. -1.
          2   -1    0    0  501    0  0.00000000000E+00 -0.00000000000E+00 -0.60733492052E+03  0.60733492052E+03  0.25500000000E-02 0.  1.
    5000001    1    1    2    0    0 -0.10530069955E+03  0.65522216890E+02 -0.26194984248E+03  0.33350280090E+03  0.16500000000E+03 0.  0.
   -5000001    1    1    2    0    0  0.10530069955E+03 -0.65522216890E+02 -0.27520516304E+03  0.34401203466E+03  0.16500000000E+03 0.  0.
<mgrwt>
<rscale>  0 0.41290538E+03</rscale>
<asrwt>0</asrwt>
<pdfrwt beam="1">  1        2 0.86762128E-01 0.41290538E+03</pdfrwt>
<pdfrwt beam="2">  1       -2 0.10025703E-01 0.41290538E+03</pdfrwt>
<totfact> 0.36102380E+03</totfact>
</mgrwt>
</event>
<event>
 4    1  0.3584860E-005  0.4418446E+03  0.7818608E-02  0.1030182E+00
         -2   -1    0    0    0  501 -0.00000000000E+00  0.00000000000E+00  0.16578806902E+02  0.16578807098E+02  0.25500000000E-02 0. -1.
          2   -1    0    0  501    0  0.00000000000E+00 -0.00000000000E+00 -0.29439191339E+04  0.29439191339E+04  0.25500000000E-02 0.  1.
    5000001    1    1    2    0    0 -0.12950360983E+03 -0.70812264450E+01 -0.10013805820E+04  0.10231370381E+04  0.16500000000E+03 0.  0.
   -5000001    1    1    2    0    0  0.12950360983E+03  0.70812264450E+01 -0.19259597450E+04  0.19373609029E+04  0.16500000000E+03 0.  0.
<mgrwt>
<rscale>  0 0.44184462E+03</rscale>
<asrwt>0</asrwt>
<pdfrwt beam="1">  1        2 0.42055954E+00 0.44184462E+03</pdfrwt>
<pdfrwt beam="2">  1       -2 0.23684029E-02 0.44184462E+03</pdfrwt>
<totfact> 0.17584940E+03</totfact>
</mgrwt>
</event>
<event>
 4    1  0.3584860E-005  0.6111454E+03  0.7818608E-02  0.9882549E-01
          2   -1    0    0  501    0  0.00000000000E+00  0.00000000000E+00  0.45268412468E+03  0.45268412469E+03  0.25500000000E-02 0.  1.
         -2   -1    0    0    0  501 -0.00000000000E+00 -0.00000000000E+00 -0.20626894365E+03  0.20626894367E+03  0.25500000000E-02 0. -1.
    5000001    1    1    2    0    0  0.82483868815E+02  0.24132268751E+03  0.15912156156E+03  0.34290654627E+03  0.16500000000E+03 0.  0.
   -5000001    1    1    2    0    0 -0.82483868815E+02 -0.24132268751E+03  0.87293619466E+02  0.31604652208E+03  0.16500000000E+03 0.  0.
<mgrwt>
<rscale>  0 0.61114540E+03</rscale>
<asrwt>0</asrwt>
<pdfrwt beam="1">  1        2 0.64669160E-01 0.61114540E+03</pdfrwt>
<pdfrwt beam="2">  1       -2 0.29466992E-01 0.61114540E+03</pdfrwt>
<totfact> 0.80015895E+02</totfact>
</mgrwt>
</event>
<event>
 4    1  0.3584860E-005  0.5828461E+03  0.7818608E-02  0.9941648E-01
          2   -1    0    0  501    0  0.00000000000E+00  0.00000000000E+00  0.57344843537E+03  0.57344843538E+03  0.25500000000E-02 0.  1.
         -2   -1    0    0    0  501 -0.00000000000E+00 -0.00000000000E+00 -0.14809943536E+03  0.14809943538E+03  0.25500000000E-02 0. -1.
    5000001    1    1    2    0    0 -0.15611331414E+03  0.15502443437E+03  0.33205035236E+03  0.43114542629E+03  0.16500000000E+03 0.  0.
   -5000001    1    1    2    0    0  0.15611331414E+03 -0.15502443437E+03  0.93298647648E+02  0.29040244447E+03  0.16500000000E+03 0.  0.
<mgrwt>
<rscale>  0 0.58284608E+03</rscale>
<asrwt>0</asrwt>
<pdfrwt beam="1">  1        2 0.81921205E-01 0.58284608E+03</pdfrwt>
<pdfrwt beam="2">  1       -2 0.21157062E-01 0.58284608E+03</pdfrwt>
<totfact> 0.11077342E+03</totfact>
</mgrwt>
</event>
<event>
 4    1  0.3584860E-005  0.7924896E+03  0.7818608E-02  0.9570952E-01
          2   -1    0    0  501    0  0.00000000000E+00  0.00000000000E+00  0.15965774057E+04  0.15965774057E+04  0.25500000000E-02 0.  1.
         -2   -1    0    0    0  501 -0.00000000000E+00 -0.00000000000E+00 -0.98341572471E+02  0.98341572504E+02  0.25500000000E-02 0. -1.
    5000001    1    1    2    0    0  0.19278783865E+03  0.30162906678E+03  0.83566869322E+03  0.92396667119E+03  0.16500000000E+03 0.  0.
   -5000001    1    1    2    0    0 -0.19278783865E+03 -0.30162906678E+03  0.66256714000E+03  0.77095230700E+03  0.16500000000E+03 0.  0.
<mgrwt>
<rscale>  0 0.79248958E+03</rscale>
<asrwt>0</asrwt>
<pdfrwt beam="1">  1        2 0.22808249E+00 0.79248958E+03</pdfrwt>
<pdfrwt beam="2">  1       -2 0.14048796E-01 0.79248958E+03</pdfrwt>
<totfact> 0.51314393E+02</totfact>
</mgrwt>
</event>
<event>
 4    1  0.3584860E-005  0.4344866E+03  0.7818608E-02  0.1032452E+00
          2   -1    0    0  501    0  0.00000000000E+00  0.00000000000E+00  0.29640650264E+04  0.29640650264E+04  0.25500000000E-02 0.  1.
         -2   -1    0    0    0  501 -0.00000000000E+00 -0.00000000000E+00 -0.15922272653E+02  0.15922272858E+02  0.25500000000E-02 0. -1.
    5000001    1    1    2    0    0 -0.30884525407E+02 -0.70740855164E+02  0.66221203157E+03  0.68680994260E+03  0.16500000000E+03 0.  0.
   -5000001    1    1    2    0    0  0.30884525407E+02  0.70740855164E+02  0.22859307222E+04  0.22931773567E+04  0.16500000000E+03 0.  0.
<mgrwt>
<rscale>  0 0.43448660E+03</rscale>
<asrwt>0</asrwt>
<pdfrwt beam="1">  1        2 0.42343832E+00 0.43448660E+03</pdfrwt>
<pdfrwt beam="2">  1       -2 0.22746079E-02 0.43448660E+03</pdfrwt>
<totfact> 0.18234597E+03</totfact>
</mgrwt>
</event>
<event>
 4    1  0.3584860E-005  0.3885136E+03  0.7818608E-02  0.1047831E+00
         -2   -1    0    0    0  501 -0.00000000000E+00  0.00000000000E+00  0.24811515401E+03  0.24811515403E+03  0.25500000000E-02 0. -1.
          2   -1    0    0  501    0  0.00000000000E+00 -0.00000000000E+00 -0.15208949065E+03  0.15208949067E+03  0.25500000000E-02 0.  1.
    5000001    1    1    2    0    0 -0.78694800387E+02 -0.38424912886E+02  0.10292127796E+03  0.21327713191E+03  0.16500000000E+03 0.  0.
   -5000001    1    1    2    0    0  0.78694800387E+02  0.38424912886E+02 -0.68956145941E+01  0.18692751279E+03  0.16500000000E+03 0.  0.
<mgrwt>
<rscale>  0 0.38851362E+03</rscale>
<asrwt>0</asrwt>
<pdfrwt beam="1">  1        2 0.21727070E-01 0.38851362E+03</pdfrwt>
<pdfrwt beam="2">  1       -2 0.35445022E-01 0.38851362E+03</pdfrwt>
<totfact> 0.19071061E+03</totfact>
</mgrwt>
</event>
<event>
 4    1  0.3584860E-005  0.6792610E+03  0.7818608E-02  0.9753371E-01
          2   -1    0    0  501    0  0.00000000000E+00  0.00000000000E+00  0.88760597949E+03  0.88760597949E+03  0.25500000000E-02 0.  1.
         -2   -1    0    0    0  501 -0.00000000000E+00 -0.00000000000E+00 -0.12995506372E+03  0.12995506374E+03  0.25500000000E-02 0. -1.
    5000001    1    1    2    0    0 -0.12586208333E+02  0.28047263724E+03  0.52329581643E+03  0.61634959591E+03  0.16500000000E+03 0.  0.
   -5000001    1    1    2    0    0  0.12586208333E+02 -0.28047263724E+03  0.23435509934E+03  0.40121144733E+03  0.16500000000E+03 0.  0.
<mgrwt>
<rscale>  0 0.67926104E+03</rscale>
<asrwt>0</asrwt>
<pdfrwt beam="1">  1        2 0.12680085E+00 0.67926104E+03</pdfrwt>
<pdfrwt beam="2">  1       -2 0.18565009E-01 0.67926104E+03</pdfrwt>
<totfact> 0.80820641E+02</totfact>
</mgrwt>
</event>
<event>
 4    1  0.3584860E-005  0.8693063E+03  0.7818608E-02  0.9464785E-01
          2   -1    0    0  501    0  0.00000000000E+00  0.00000000000E+00  0.63178205923E+03  0.63178205923E+03  0.25500000000E-02 0.  1.
         -2   -1    0    0    0  501 -0.00000000000E+00 -0.00000000000E+00 -0.29903248216E+03  0.29903248217E+03  0.25500000000E-02 0. -1.
    5000001    1    1    2    0    0 -0.24431356936E+03 -0.11356995768E+03 -0.15326162071E+03  0.35114296212E+03  0.16500000000E+03 0.  0.
   -5000001    1    1    2    0    0  0.24431356936E+03  0.11356995768E+03  0.48601119778E+03  0.57967157928E+03  0.16500000000E+03 0.  0.
<mgrwt>
<rscale>  0 0.86930629E+03</rscale>
<asrwt>0</asrwt>
<pdfrwt beam="1">  1        2 0.90254579E-01 0.86930629E+03</pdfrwt>
<pdfrwt beam="2">  1       -2 0.42718926E-01 0.86930629E+03</pdfrwt>
<totfact> 0.26579427E+02</totfact>
</mgrwt>
</event>
<event>
 4    1  0.3584860E-005  0.6130183E+03  0.7818608E-02  0.9878759E-01
         -2   -1    0    0    0  501 -0.00000000000E+00  0.00000000000E+00  0.93897713342E+02  0.93897713376E+02  0.25500000000E-02 0. -1.
          2   -1    0    0  501    0  0.00000000000E+00 -0.00000000000E+00 -0.10005340115E+04  0.10005340115E+04  0.25500000000E-02 0.  1.
    5000001    1    1    2    0    0  0.12332761122E+03  0.22254305885E+03 -0.53291490485E+03  0.61315447364E+03  0.16500000000E+03 0.  0.
   -5000001    1    1    2    0    0 -0.12332761122E+03 -0.22254305885E+03 -0.37372139326E+03  0.48127725120E+03  0.16500000000E+03 0.  0.
<mgrwt>
<rscale>  0 0.61301829E+03</rscale>
<asrwt>0</asrwt>
<pdfrwt beam="1">  1        2 0.14293342E+00 0.61301829E+03</pdfrwt>
<pdfrwt beam="2">  1       -2 0.13413960E-01 0.61301829E+03</pdfrwt>
<totfact> 0.11922861E+03</totfact>
</mgrwt>
</event>
<event>
 4    1  0.3584860E-005  0.9854272E+03  0.7818608E-02  0.9324674E-01
          2   -1    0    0  501    0  0.00000000000E+00  0.00000000000E+00  0.15100281370E+04  0.15100281370E+04  0.25500000000E-02 0.  1.
         -2   -1    0    0    0  501 -0.00000000000E+00 -0.00000000000E+00 -0.16076966338E+03  0.16076966340E+03  0.25500000000E-02 0. -1.
    5000001    1    1    2    0    0 -0.22734444165E+01 -0.46416804218E+03  0.69022193438E+03  0.84799083641E+03  0.16500000000E+03 0.  0.
   -5000001    1    1    2    0    0  0.22734444165E+01  0.46416804218E+03  0.65903653922E+03  0.82280696397E+03  0.16500000000E+03 0.  0.
<mgrwt>
<rscale>  0 0.98542725E+03</rscale>
<asrwt>0</asrwt>
<pdfrwt beam="1">  1        2 0.21571831E+00 0.98542725E+03</pdfrwt>
<pdfrwt beam="2">  1       -2 0.22967094E-01 0.98542725E+03</pdfrwt>
<totfact> 0.24061423E+02</totfact>
</mgrwt>
</event>
<event>
 4    1  0.3584860E-005  0.1376234E+04  0.7818608E-02  0.8971204E-01
          2   -1    0    0  501    0  0.00000000000E+00  0.00000000000E+00  0.44097807273E+04  0.44097807273E+04  0.25500000000E-02 0.  1.
         -2   -1    0    0    0  501 -0.00000000000E+00 -0.00000000000E+00 -0.10737605291E+03  0.10737605294E+03  0.25500000000E-02 0. -1.
    5000001    1    1    2    0    0 -0.22741331668E+03 -0.60615425104E+03  0.26919296711E+04  0.27735987718E+04  0.16500000000E+03 0.  0.
   -5000001    1    1    2    0    0  0.22741331668E+03  0.60615425104E+03  0.16104750033E+04  0.17435580085E+04  0.16500000000E+03 0.  0.
<mgrwt>
<rscale>  0 0.13762338E+04</rscale>
<asrwt>0</asrwt>
<pdfrwt beam="1">  1        2 0.62996879E+00 0.13762338E+04</pdfrwt>
<pdfrwt beam="2">  1       -2 0.15339433E-01 0.13762338E+04</pdfrwt>
<totfact> 0.97446970E+00</totfact>
</mgrwt>
</event>
<event>
 4    1  0.3584860E-005  0.5563571E+03  0.7818608E-02  0.1000033E+00
          2   -1    0    0  501    0  0.00000000000E+00  0.00000000000E+00  0.52589041135E+03  0.52589041136E+03  0.25500000000E-02 0. -1.
         -2   -1    0    0    0  501 -0.00000000000E+00 -0.00000000000E+00 -0.14714723172E+03  0.14714723174E+03  0.25500000000E-02 0.  1.
    5000001    1    1    2    0    0 -0.20237291582E+03  0.83186162926E+02  0.13156276640E+03  0.30398765808E+03  0.16500000000E+03 0.  0.
   -5000001    1    1    2    0    0  0.20237291582E+03 -0.83186162926E+02  0.24718041323E+03  0.36904998503E+03  0.16500000000E+03 0.  0.
<mgrwt>
<rscale>  0 0.55635715E+03</rscale>
<asrwt>0</asrwt>
<pdfrwt beam="1">  1        2 0.75127202E-01 0.55635715E+03</pdfrwt>
<pdfrwt beam="2">  1       -2 0.21021033E-01 0.55635715E+03</pdfrwt>
<totfact> 0.12382797E+03</totfact>
</mgrwt>
</event>
<event>
 4    1  0.3584860E-005  0.4448759E+03  0.7818608E-02  0.1029261E+00
          2   -1    0    0  501    0  0.00000000000E+00  0.00000000000E+00  0.61879582133E+02  0.61879582186E+02  0.25500000000E-02 0.  1.
         -2   -1    0    0    0  501 -0.00000000000E+00 -0.00000000000E+00 -0.79959552744E+03  0.79959552744E+03  0.25500000000E-02 0. -1.
    5000001    1    1    2    0    0 -0.73384125196E+02 -0.11668178478E+03 -0.47931597713E+03  0.52532720723E+03  0.16500000000E+03 0.  0.
   -5000001    1    1    2    0    0  0.73384125196E+02  0.11668178478E+03 -0.25839996818E+03  0.33614790239E+03  0.16500000000E+03 0.  0.
<mgrwt>
<rscale>  0 0.44487588E+03</rscale>
<asrwt>0</asrwt>
<pdfrwt beam="1">  1        2 0.88399408E-02 0.44487588E+03</pdfrwt>
<pdfrwt beam="2">  1       -2 0.11422793E+00 0.44487588E+03</pdfrwt>
<totfact> 0.47110822E+02</totfact>
</mgrwt>
</event>
<event>
 4    1  0.3584860E-005  0.5795371E+03  0.7818608E-02  0.9948794E-01
         -2   -1    0    0    0  501 -0.00000000000E+00  0.00000000000E+00  0.19766118384E+02  0.19766118548E+02  0.25500000000E-02 0. -1.
          2   -1    0    0  501    0  0.00000000000E+00 -0.00000000000E+00 -0.42479660933E+04  0.42479660933E+04  0.25500000000E-02 0.  1.
    5000001    1    1    2    0    0 -0.55353030107E+02 -0.13494789884E+03 -0.35009244292E+04  0.35078443170E+04  0.16500000000E+03 0.  0.
   -5000001    1    1    2    0    0  0.55353030107E+02  0.13494789884E+03 -0.72727554573E+03  0.75988789486E+03  0.16500000000E+03 0.  0.
<mgrwt>
<rscale>  0 0.57953706E+03</rscale>
<asrwt>0</asrwt>
<pdfrwt beam="1">  1        2 0.60685172E+00 0.57953706E+03</pdfrwt>
<pdfrwt beam="2">  1       -2 0.28237339E-02 0.57953706E+03</pdfrwt>
<totfact> 0.21236430E+02</totfact>
</mgrwt>
</event>
<event>
 4    1  0.3584860E-005  0.5406301E+03  0.7818608E-02  0.1003686E+00
         -2   -1    0    0    0  501 -0.00000000000E+00  0.00000000000E+00  0.67437137786E+03  0.67437137787E+03  0.25500000000E-02 0. -1.
          2   -1    0    0  501    0  0.00000000000E+00 -0.00000000000E+00 -0.10835309194E+03  0.10835309197E+03  0.25500000000E-02 0.  1.
    5000001    1    1    2    0    0  0.16615755701E+03 -0.10842028238E+03  0.39957220555E+03  0.47565348609E+03  0.16500000000E+03 0.  0.
   -5000001    1    1    2    0    0 -0.16615755701E+03  0.10842028238E+03  0.16644608037E+03  0.30707098374E+03  0.16500000000E+03 0.  0.
<mgrwt>
<rscale>  0 0.54063009E+03</rscale>
<asrwt>0</asrwt>
<pdfrwt beam="1">  1        2 0.15479014E-01 0.54063009E+03</pdfrwt>
<pdfrwt beam="2">  1       -2 0.96338766E-01 0.54063009E+03</pdfrwt>
<totfact> 0.35196851E+02</totfact>
</mgrwt>
</event>
<event>
 4    1  0.3584860E-005  0.4018555E+03  0.7818608E-02  0.1043139E+00
          2   -1    0    0  501    0  0.00000000000E+00  0.00000000000E+00  0.88906774292E+03  0.88906774292E+03  0.25500000000E-02 0.  1.
         -2   -1    0    0    0  501 -0.00000000000E+00 -0.00000000000E+00 -0.45409307665E+02  0.45409307736E+02  0.25500000000E-02 0. -1.
    5000001    1    1    2    0    0 -0.24179329710E+02 -0.18327289364E+02  0.16470176116E+03  0.23510040334E+03  0.16500000000E+03 0.  0.
   -5000001    1    1    2    0    0  0.24179329710E+02  0.18327289364E+02  0.67895667409E+03  0.69937664732E+03  0.16500000000E+03 0.  0.
<mgrwt>
<rscale>  0 0.40185545E+03</rscale>
<asrwt>0</asrwt>
<pdfrwt beam="1">  1        2 0.12700968E+00 0.40185545E+03</pdfrwt>
<pdfrwt beam="2">  1       -2 0.64870438E-02 0.40185545E+03</pdfrwt>
<totfact> 0.44969206E+03</totfact>
</mgrwt>
</event>
<event>
 4    1  0.3584860E-005  0.1211051E+04  0.7818608E-02  0.9103239E-01
          2   -1    0    0  501    0  0.00000000000E+00  0.00000000000E+00  0.13651888485E+04  0.13651888485E+04  0.25500000000E-02 0. -1.
         -2   -1    0    0    0  501 -0.00000000000E+00 -0.00000000000E+00 -0.26857892531E+03  0.26857892532E+03  0.25500000000E-02 0.  1.
    5000001    1    1    2    0    0  0.57268308209E+03 -0.12235957229E+02  0.69183982485E+03  0.91322668292E+03  0.16500000000E+03 0.  0.
   -5000001    1    1    2    0    0 -0.57268308209E+03  0.12235957229E+02  0.40477009834E+03  0.72054109090E+03  0.16500000000E+03 0.  0.
<mgrwt>
<rscale>  0 0.12110507E+04</rscale>
<asrwt>0</asrwt>
<pdfrwt beam="1">  1        2 0.19502698E+00 0.12110507E+04</pdfrwt>
<pdfrwt beam="2">  1       -2 0.38368418E-01 0.12110507E+04</pdfrwt>
<totfact> 0.10925277E+02</totfact>
</mgrwt>
</event>
<event>
 4    1  0.3584860E-005  0.4442927E+03  0.7818608E-02  0.1029438E+00
          2   -1    0    0  501    0  0.00000000000E+00  0.00000000000E+00  0.94697616406E+03  0.94697616406E+03  0.25500000000E-02 0.  1.
         -2   -1    0    0    0  501 -0.00000000000E+00 -0.00000000000E+00 -0.52112183161E+02  0.52112183223E+02  0.25500000000E-02 0. -1.
    5000001    1    1    2    0    0 -0.19565565560E+02 -0.11749643667E+03  0.64775429764E+03  0.67896896401E+03  0.16500000000E+03 0.  0.
   -5000001    1    1    2    0    0  0.19565565560E+02  0.11749643667E+03  0.24710968326E+03  0.32011938327E+03  0.16500000000E+03 0.  0.
<mgrwt>
<rscale>  0 0.44429268E+03</rscale>
<asrwt>0</asrwt>
<pdfrwt beam="1">  1        2 0.13528230E+00 0.44429268E+03</pdfrwt>
<pdfrwt beam="2">  1       -2 0.74445981E-02 0.44429268E+03</pdfrwt>
<totfact> 0.33361528E+03</totfact>
</mgrwt>
</event>
<event>
 4    1  0.3584860E-005  0.3809450E+03  0.7818608E-02  0.1050585E+00
         -2   -1    0    0    0  501 -0.00000000000E+00  0.00000000000E+00  0.85529254946E+03  0.85529254946E+03  0.25500000000E-02 0. -1.
          2   -1    0    0  501    0  0.00000000000E+00 -0.00000000000E+00 -0.42417959783E+02  0.42417959859E+02  0.25500000000E-02 0.  1.
    5000001    1    1    2    0    0  0.33013745892E+02  0.78896378127E+02  0.30813219539E+03  0.35984023640E+03  0.16500000000E+03 0.  0.
   -5000001    1    1    2    0    0 -0.33013745892E+02 -0.78896378127E+02  0.50474239429E+03  0.53787027292E+03  0.16500000000E+03 0.  0.
<mgrwt>
<rscale>  0 0.38094496E+03</rscale>
<asrwt>0</asrwt>
<pdfrwt beam="1">  1        2 0.60597087E-02 0.38094496E+03</pdfrwt>
<pdfrwt beam="2">  1       -2 0.12218465E+00 0.38094496E+03</pdfrwt>
<totfact> 0.65221103E+02</totfact>
</mgrwt>
</event>
<event>
 4    1  0.3584860E-005  0.3755875E+03  0.7818608E-02  0.1052577E+00
         -2   -1    0    0    0  501 -0.00000000000E+00  0.00000000000E+00  0.10411782501E+02  0.10411782814E+02  0.25500000000E-02 0. -1.
          2   -1    0    0  501    0  0.00000000000E+00 -0.00000000000E+00 -0.33871707594E+04  0.33871707595E+04  0.25500000000E-02 0.  1.
    5000001    1    1    2    0    0  0.12820529637E+00  0.88039911198E+02 -0.15342131120E+04  0.15455697705E+04  0.16500000000E+03 0.  0.
   -5000001    1    1    2    0    0 -0.12820529637E+00 -0.88039911198E+02 -0.18425458650E+04  0.18520127718E+04  0.16500000000E+03 0.  0.
<mgrwt>
<rscale>  0 0.37558746E+03</rscale>
<asrwt>0</asrwt>
<pdfrwt beam="1">  1        2 0.48388083E+00 0.37558746E+03</pdfrwt>
<pdfrwt beam="2">  1       -2 0.14873997E-02 0.37558746E+03</pdfrwt>
<totfact> 0.20108366E+03</totfact>
</mgrwt>
</event>
<event>
 4    1  0.3584860E-005  0.4856434E+03  0.7818608E-02  0.1017596E+00
          2   -1    0    0  501    0  0.00000000000E+00  0.00000000000E+00  0.34030234392E+03  0.34030234393E+03  0.25500000000E-02 0.  1.
         -2   -1    0    0    0  501 -0.00000000000E+00 -0.00000000000E+00 -0.17326469469E+03  0.17326469471E+03  0.25500000000E-02 0. -1.
    5000001    1    1    2    0    0 -0.10239113346E+03 -0.14479762257E+03  0.10143666466E+03  0.26261129574E+03  0.16500000000E+03 0.  0.
   -5000001    1    1    2    0    0  0.10239113346E+03  0.14479762257E+03  0.65600984572E+02  0.25095574289E+03  0.16500000000E+03 0.  0.
<mgrwt>
<rscale>  0 0.48564342E+03</rscale>
<asrwt>0</asrwt>
<pdfrwt beam="1">  1        2 0.48614620E-01 0.48564342E+03</pdfrwt>
<pdfrwt beam="2">  1       -2 0.24752099E-01 0.48564342E+03</pdfrwt>
<totfact> 0.15067544E+03</totfact>
</mgrwt>
</event>
<event>
 4    1  0.3584860E-005  0.4937957E+03  0.7818608E-02  0.1015411E+00
          2   -1    0    0  501    0  0.00000000000E+00  0.00000000000E+00  0.19789724262E+03  0.19789724263E+03  0.25500000000E-02 0.  1.
         -2   -1    0    0    0  501 -0.00000000000E+00 -0.00000000000E+00 -0.30803127350E+03  0.30803127351E+03  0.25500000000E-02 0. -1.
    5000001    1    1    2    0    0  0.11747310121E+03 -0.12995274405E+03 -0.11161268002E+03  0.26527351080E+03  0.16500000000E+03 0.  0.
   -5000001    1    1    2    0    0 -0.11747310121E+03  0.12995274405E+03  0.14786491411E+01  0.24065500534E+03  0.16500000000E+03 0.  0.
<mgrwt>
<rscale>  0 0.49379566E+03</rscale>
<asrwt>0</asrwt>
<pdfrwt beam="1">  1        2 0.28271035E-01 0.49379566E+03</pdfrwt>
<pdfrwt beam="2">  1       -2 0.44004467E-01 0.49379566E+03</pdfrwt>
<totfact> 0.93456549E+02</totfact>
</mgrwt>
</event>
<event>
 4    1  0.3584860E-005  0.5055933E+03  0.7818608E-02  0.1012329E+00
         -2   -1    0    0    0  501 -0.00000000000E+00  0.00000000000E+00  0.75885245914E+03  0.75885245914E+03  0.25500000000E-02 0. -1.
          2   -1    0    0  501    0  0.00000000000E+00 -0.00000000000E+00 -0.84214186297E+02  0.84214186336E+02  0.25500000000E-02 0.  1.
    5000001    1    1    2    0    0 -0.65600981593E+02  0.17053387138E+03  0.43304834792E+03  0.49813769352E+03  0.16500000000E+03 0.  0.
   -5000001    1    1    2    0    0  0.65600981593E+02 -0.17053387138E+03  0.24158992492E+03  0.34492895196E+03  0.16500000000E+03 0.  0.
<mgrwt>
<rscale>  0 0.50559328E+03</rscale>
<asrwt>0</asrwt>
<pdfrwt beam="1">  1        2 0.12030598E-01 0.50559328E+03</pdfrwt>
<pdfrwt beam="2">  1       -2 0.10840749E+00 0.50559328E+03</pdfrwt>
<totfact> 0.36238027E+02</totfact>
</mgrwt>
</event>
<event>
 4    1  0.3584860E-005  0.3406211E+03  0.7818608E-02  0.1066532E+00
         -2   -1    0    0    0  501 -0.00000000000E+00  0.00000000000E+00  0.81520166495E+02  0.81520166534E+02  0.25500000000E-02 0. -1.
          2   -1    0    0  501    0  0.00000000000E+00 -0.00000000000E+00 -0.35580988323E+03  0.35580988324E+03  0.25500000000E-02 0.  1.
    5000001    1    1    2    0    0  0.30276236305E+02  0.29121970563E+02 -0.13201861342E+03  0.21544988731E+03  0.16500000000E+03 0.  0.
   -5000001    1    1    2    0    0 -0.30276236305E+02 -0.29121970563E+02 -0.14227110331E+03  0.22188016246E+03  0.16500000000E+03 0.  0.
<mgrwt>
<rscale>  0 0.34062109E+03</rscale>
<asrwt>0</asrwt>
<pdfrwt beam="1">  1        2 0.50829982E-01 0.34062109E+03</pdfrwt>
<pdfrwt beam="2">  1       -2 0.11645738E-01 0.34062109E+03</pdfrwt>
<totfact> 0.51230442E+03</totfact>
</mgrwt>
</event>
<event>
 4    1  0.3584860E-005  0.6135853E+03  0.7818608E-02  0.9877615E-01
          2   -1    0    0  501    0  0.00000000000E+00  0.00000000000E+00  0.27596101116E+04  0.27596101116E+04  0.25500000000E-02 0.  1.
         -2   -1    0    0    0  501 -0.00000000000E+00 -0.00000000000E+00 -0.34106894687E+02  0.34106894782E+02  0.25500000000E-02 0. -1.
    5000001    1    1    2    0    0  0.90870236100E+02 -0.24123471367E+03  0.14588150332E+04  0.14905763610E+04  0.16500000000E+03 0.  0.
   -5000001    1    1    2    0    0 -0.90870236100E+02  0.24123471367E+03  0.12666881837E+04  0.13031406454E+04  0.16500000000E+03 0.  0.
<mgrwt>
<rscale>  0 0.61358530E+03</rscale>
<asrwt>0</asrwt>
<pdfrwt beam="1">  1        2 0.39423008E+00 0.61358530E+03</pdfrwt>
<pdfrwt beam="2">  1       -2 0.48724127E-02 0.61358530E+03</pdfrwt>
<totfact> 0.72375494E+02</totfact>
</mgrwt>
</event>
<event>
 4    1  0.3584860E-005  0.5397457E+03  0.7818608E-02  0.1003896E+00
          2   -1    0    0  501    0  0.00000000000E+00  0.00000000000E+00  0.13615418216E+04  0.13615418216E+04  0.25500000000E-02 0.  1.
         -2   -1    0    0    0  501 -0.00000000000E+00 -0.00000000000E+00 -0.53491822737E+02  0.53491822798E+02  0.25500000000E-02 0. -1.
    5000001    1    1    2    0    0 -0.21185366190E+03 -0.24824998986E+02  0.68128267193E+03  0.73271367785E+03  0.16500000000E+03 0.  0.
   -5000001    1    1    2    0    0  0.21185366190E+03  0.24824998986E+02  0.62676732689E+03  0.68231996650E+03  0.16500000000E+03 0.  0.
<mgrwt>
<rscale>  0 0.53974569E+03</rscale>
<asrwt>0</asrwt>
<pdfrwt beam="1">  1        2 0.19450597E+00 0.53974569E+03</pdfrwt>
<pdfrwt beam="2">  1       -2 0.76416892E-02 0.53974569E+03</pdfrwt>
<totfact> 0.18586766E+03</totfact>
</mgrwt>
</event>
<event>
 4    1  0.3584860E-005  0.8115077E+03  0.7818608E-02  0.9543508E-01
          2   -1    0    0  501    0  0.00000000000E+00  0.00000000000E+00  0.11210867563E+04  0.11210867563E+04  0.25500000000E-02 0.  1.
         -2   -1    0    0    0  501 -0.00000000000E+00 -0.00000000000E+00 -0.14685411399E+03  0.14685411401E+03  0.25500000000E-02 0. -1.
    5000001    1    1    2    0    0  0.65563683316E+02 -0.31918725771E+03  0.21099055712E+03  0.42180696680E+03  0.16500000000E+03 0.  0.
   -5000001    1    1    2    0    0 -0.65563683316E+02  0.31918725771E+03  0.76324208515E+03  0.84613390346E+03  0.16500000000E+03 0.  0.
<mgrwt>
<rscale>  0 0.81150774E+03</rscale>
<asrwt>0</asrwt>
<pdfrwt beam="1">  1        2 0.16015525E+00 0.81150774E+03</pdfrwt>
<pdfrwt beam="2">  1       -2 0.20979160E-01 0.81150774E+03</pdfrwt>
<totfact> 0.46700919E+02</totfact>
</mgrwt>
</event>
<event>
 4    1  0.3584860E-005  0.4780050E+03  0.7818608E-02  0.1019685E+00
          2   -1    0    0  501    0  0.00000000000E+00  0.00000000000E+00  0.46904062021E+03  0.46904062022E+03  0.25500000000E-02 0.  1.
         -2   -1    0    0    0  501 -0.00000000000E+00 -0.00000000000E+00 -0.12178517519E+03  0.12178517522E+03  0.25500000000E-02 0. -1.
    5000001    1    1    2    0    0  0.80647962535E+02 -0.53264999380E+02 -0.35853208582E+01  0.19125665621E+03  0.16500000000E+03 0.  0.
   -5000001    1    1    2    0    0 -0.80647962535E+02  0.53264999380E+02  0.35084076588E+03  0.39956913923E+03  0.16500000000E+03 0.  0.
<mgrwt>
<rscale>  0 0.47800500E+03</rscale>
<asrwt>0</asrwt>
<pdfrwt beam="1">  1        2 0.67005802E-01 0.47800500E+03</pdfrwt>
<pdfrwt beam="2">  1       -2 0.17397882E-01 0.47800500E+03</pdfrwt>
<totfact> 0.19531370E+03</totfact>
</mgrwt>
</event>
<event>
 4    1  0.3584860E-005  0.4676013E+03  0.7818608E-02  0.1022599E+00
          2   -1    0    0  501    0  0.00000000000E+00  0.00000000000E+00  0.20308886381E+04  0.20308886381E+04  0.25500000000E-02 0.  1.
         -2   -1    0    0    0  501 -0.00000000000E+00 -0.00000000000E+00 -0.26915681702E+02  0.26915681823E+02  0.25500000000E-02 0. -1.
    5000001    1    1    2    0    0 -0.12195146349E+03  0.10224825201E+03  0.12041770527E+04  0.12258035074E+04  0.16500000000E+03 0.  0.
   -5000001    1    1    2    0    0  0.12195146349E+03 -0.10224825201E+03  0.79979590373E+03  0.83200081256E+03  0.16500000000E+03 0.  0.
<mgrwt>
<rscale>  0 0.46760134E+03</rscale>
<asrwt>0</asrwt>
<pdfrwt beam="1">  1        2 0.29012707E+00 0.46760134E+03</pdfrwt>
<pdfrwt beam="2">  1       -2 0.38450958E-02 0.46760134E+03</pdfrwt>
<totfact> 0.24697926E+03</totfact>
</mgrwt>
</event>
<event>
 4    1  0.3584860E-005  0.4378944E+03  0.7818608E-02  0.1031395E+00
         -2   -1    0    0    0  501 -0.00000000000E+00  0.00000000000E+00  0.60793868693E+02  0.60793868747E+02  0.25500000000E-02 0. -1.
          2   -1    0    0  501    0  0.00000000000E+00 -0.00000000000E+00 -0.78853128672E+03  0.78853128672E+03  0.25500000000E-02 0.  1.
    5000001    1    1    2    0    0  0.80134404181E+02 -0.15087697906E+02 -0.13385457253E+03  0.22757681769E+03  0.16500000000E+03 0.  0.
   -5000001    1    1    2    0    0 -0.80134404181E+02  0.15087697906E+02 -0.59388284549E+03  0.62174833778E+03  0.16500000000E+03 0.  0.
<mgrwt>
<rscale>  0 0.43789436E+03</rscale>
<asrwt>0</asrwt>
<pdfrwt beam="1">  1        2 0.11264732E+00 0.43789436E+03</pdfrwt>
<pdfrwt beam="2">  1       -2 0.86848388E-02 0.43789436E+03</pdfrwt>
<totfact> 0.33172075E+03</totfact>
</mgrwt>
</event>
<event>
 4    1  0.3584860E-005  0.5530714E+03  0.7818608E-02  0.1000786E+00
         -2   -1    0    0    0  501 -0.00000000000E+00  0.00000000000E+00  0.17251549781E+03  0.17251549783E+03  0.25500000000E-02 0. -1.
          2   -1    0    0  501    0  0.00000000000E+00 -0.00000000000E+00 -0.44327615617E+03  0.44327615618E+03  0.25500000000E-02 0.  1.
    5000001    1    1    2    0    0  0.12667927557E+03  0.17973324261E+03 -0.10206500969E+03  0.29324723964E+03  0.16500000000E+03 0.  0.
   -5000001    1    1    2    0    0 -0.12667927557E+03 -0.17973324261E+03 -0.16869564867E+03  0.32254441436E+03  0.16500000000E+03 0.  0.
<mgrwt>
<rscale>  0 0.55307145E+03</rscale>
<asrwt>0</asrwt>
<pdfrwt beam="1">  1        2 0.63325165E-01 0.55307145E+03</pdfrwt>
<pdfrwt beam="2">  1       -2 0.24645071E-01 0.55307145E+03</pdfrwt>
<totfact> 0.11337005E+03</totfact>
</mgrwt>
</event>
<event>
 4    1  0.3584860E-005  0.5212785E+03  0.7818608E-02  0.1008369E+00
         -2   -1    0    0    0  501 -0.00000000000E+00  0.00000000000E+00  0.80389547173E+02  0.80389547213E+02  0.25500000000E-02 0. -1.
          2   -1    0    0  501    0  0.00000000000E+00 -0.00000000000E+00 -0.84504538842E+03  0.84504538843E+03  0.25500000000E-02 0.  1.
    5000001    1    1    2    0    0  0.82084987155E+02 -0.18427462680E+03 -0.37599301170E+03  0.45748314510E+03  0.16500000000E+03 0.  0.
   -5000001    1    1    2    0    0 -0.82084987155E+02  0.18427462680E+03 -0.38866282955E+03  0.46795179054E+03  0.16500000000E+03 0.  0.
<mgrwt>
<rscale>  0 0.52127849E+03</rscale>
<asrwt>0</asrwt>
<pdfrwt beam="1">  1        2 0.12072076E+00 0.52127849E+03</pdfrwt>
<pdfrwt beam="2">  1       -2 0.11484222E-01 0.52127849E+03</pdfrwt>
<totfact> 0.19367997E+03</totfact>
</mgrwt>
</event>
<event>
 4    1  0.3584860E-005  0.5686335E+03  0.7818608E-02  0.9972707E-01
         -2   -1    0    0    0  501 -0.00000000000E+00  0.00000000000E+00  0.29717245492E+02  0.29717245602E+02  0.25500000000E-02 0. -1.
          2   -1    0    0  501    0  0.00000000000E+00 -0.00000000000E+00 -0.27201721789E+04  0.27201721789E+04  0.25500000000E-02 0.  1.
    5000001    1    1    2    0    0  0.20404992436E+03  0.91793500087E+02 -0.16333065128E+04  0.16567973875E+04  0.16500000000E+03 0.  0.
   -5000001    1    1    2    0    0 -0.20404992436E+03 -0.91793500087E+02 -0.10571484206E+04  0.10930920371E+04  0.16500000000E+03 0.  0.
<mgrwt>
<rscale>  0 0.56863354E+03</rscale>
<asrwt>0</asrwt>
<pdfrwt beam="1">  1        2 0.38859587E+00 0.56863354E+03</pdfrwt>
<pdfrwt beam="2">  1       -2 0.42453225E-02 0.56863354E+03</pdfrwt>
<totfact> 0.94265902E+02</totfact>
</mgrwt>
</event>
<event>
 4    1  0.3584860E-005  0.3723029E+03  0.7818608E-02  0.1053816E+00
          2   -1    0    0  501    0  0.00000000000E+00  0.00000000000E+00  0.65257445982E+03  0.65257445982E+03  0.25500000000E-02 0.  1.
         -2   -1    0    0    0  501 -0.00000000000E+00 -0.00000000000E+00 -0.53100996513E+02  0.53100996574E+02  0.25500000000E-02 0. -1.
    5000001    1    1    2    0    0 -0.66707258605E+02 -0.52358176356E+02  0.32886216643E+03  0.37757987432E+03  0.16500000000E+03 0.  0.
   -5000001    1    1    2    0    0  0.66707258605E+02  0.52358176356E+02  0.27061129687E+03  0.32809558207E+03  0.16500000000E+03 0.  0.
<mgrwt>
<rscale>  0 0.37230286E+03</rscale>
<asrwt>0</asrwt>
<pdfrwt beam="1">  1        2 0.93224913E-01 0.37230286E+03</pdfrwt>
<pdfrwt beam="2">  1       -2 0.75858574E-02 0.37230286E+03</pdfrwt>
<totfact> 0.51570483E+03</totfact>
</mgrwt>
</event>
<event>
 4    1  0.3584860E-005  0.3903889E+03  0.7818608E-02  0.1047159E+00
         -2   -1    0    0    0  501 -0.00000000000E+00  0.00000000000E+00  0.74882654830E+02  0.74882654873E+02  0.25500000000E-02 0. -1.
          2   -1    0    0  501    0  0.00000000000E+00 -0.00000000000E+00 -0.50880784022E+03  0.50880784022E+03  0.25500000000E-02 0.  1.
    5000001    1    1    2    0    0  0.99169040518E+02  0.38835189577E+01 -0.16906401600E+03  0.25623665199E+03  0.16500000000E+03 0.  0.
   -5000001    1    1    2    0    0 -0.99169040518E+02 -0.38835189577E+01 -0.26486116939E+03  0.32745384311E+03  0.16500000000E+03 0.  0.
<mgrwt>
<rscale>  0 0.39038894E+03</rscale>
<asrwt>0</asrwt>
<pdfrwt beam="1">  1        2 0.72686832E-01 0.39038894E+03</pdfrwt>
<pdfrwt beam="2">  1       -2 0.10697522E-01 0.39038894E+03</pdfrwt>
<totfact> 0.39773890E+03</totfact>
</mgrwt>
</event>
<event>
 4    1  0.3584860E-005  0.4255520E+03  0.7818608E-02  0.1035274E+00
         -2   -1    0    0    0  501 -0.00000000000E+00  0.00000000000E+00  0.22659076366E+02  0.22659076510E+02  0.25500000000E-02 0. -1.
          2   -1    0    0  501    0  0.00000000000E+00 -0.00000000000E+00 -0.19980353312E+04  0.19980353312E+04  0.25500000000E-02 0.  1.
    5000001    1    1    2    0    0 -0.86710348723E+02 -0.37314290641E+01 -0.14746262863E+04  0.14863647912E+04  0.16500000000E+03 0.  0.
   -5000001    1    1    2    0    0  0.86710348723E+02  0.37314290641E+01 -0.50074996848E+03  0.53432961650E+03  0.16500000000E+03 0.  0.
<mgrwt>
<rscale>  0 0.42555204E+03</rscale>
<asrwt>0</asrwt>
<pdfrwt beam="1">  1        2 0.28543351E+00 0.42555204E+03</pdfrwt>
<pdfrwt beam="2">  1       -2 0.32370122E-02 0.42555204E+03</pdfrwt>
<totfact> 0.33345377E+03</totfact>
</mgrwt>
</event>
<event>
 4    1  0.3584860E-005  0.4395625E+03  0.7818608E-02  0.1030881E+00
          2   -1    0    0  501    0  0.00000000000E+00  0.00000000000E+00  0.25894062805E+03  0.25894062806E+03  0.25500000000E-02 0.  1.
         -2   -1    0    0    0  501 -0.00000000000E+00 -0.00000000000E+00 -0.18654391382E+03  0.18654391384E+03  0.25500000000E-02 0. -1.
    5000001    1    1    2    0    0 -0.86171154790E+02  0.94553539936E+02 -0.33377538354E+02  0.21143533266E+03  0.16500000000E+03 0.  0.
   -5000001    1    1    2    0    0  0.86171154790E+02 -0.94553539936E+02  0.10577425258E+03  0.23404920923E+03  0.16500000000E+03 0.  0.
<mgrwt>
<rscale>  0 0.43956250E+03</rscale>
<asrwt>0</asrwt>
<pdfrwt beam="1">  1        2 0.36991518E-01 0.43956250E+03</pdfrwt>
<pdfrwt beam="2">  1       -2 0.26649131E-01 0.43956250E+03</pdfrwt>
<totfact> 0.17796103E+03</totfact>
</mgrwt>
</event>
<event>
 4    1  0.3584860E-005  0.7111148E+03  0.7818608E-02  0.9698411E-01
         -2   -1    0    0    0  501 -0.00000000000E+00  0.00000000000E+00  0.38847753123E+03  0.38847753124E+03  0.25500000000E-02 0. -1.
          2   -1    0    0  501    0  0.00000000000E+00 -0.00000000000E+00 -0.32542701208E+03  0.32542701209E+03  0.25500000000E-02 0.  1.
    5000001    1    1    2    0    0  0.11368561625E+03  0.84730684278E+02  0.31386219995E+03  0.38188766511E+03  0.16500000000E+03 0.  0.
   -5000001    1    1    2    0    0 -0.11368561625E+03 -0.84730684278E+02 -0.25081168080E+03  0.33201687823E+03  0.16500000000E+03 0.  0.
<mgrwt>
<rscale>  0 0.71111485E+03</rscale>
<asrwt>0</asrwt>
<pdfrwt beam="1">  1        2 0.46489573E-01 0.71111485E+03</pdfrwt>
<pdfrwt beam="2">  1       -2 0.55496790E-01 0.71111485E+03</pdfrwt>
<totfact> 0.33517206E+02</totfact>
</mgrwt>
</event>
<event>
 4    1  0.3584860E-005  0.4105444E+03  0.7818608E-02  0.1040188E+00
          2   -1    0    0  501    0  0.00000000000E+00  0.00000000000E+00  0.70691495525E+03  0.70691495525E+03  0.25500000000E-02 0.  1.
         -2   -1    0    0    0  501 -0.00000000000E+00 -0.00000000000E+00 -0.59606415811E+02  0.59606415865E+02  0.25500000000E-02 0. -1.
    5000001    1    1    2    0    0 -0.80683220574E+02 -0.86568366477E+02  0.37990911075E+03  0.43076652213E+03  0.16500000000E+03 0.  0.
   -5000001    1    1    2    0    0  0.80683220574E+02  0.86568366477E+02  0.26739942868E+03  0.33575484898E+03  0.16500000000E+03 0.  0.
<mgrwt>
<rscale>  0 0.41054435E+03</rscale>
<asrwt>0</asrwt>
<pdfrwt beam="1">  1        2 0.10098785E+00 0.41054435E+03</pdfrwt>
<pdfrwt beam="2">  1       -2 0.85152023E-02 0.41054435E+03</pdfrwt>
<totfact> 0.39131263E+03</totfact>
</mgrwt>
</event>
<event>
 4    1  0.3584860E-005  0.4766772E+03  0.7818608E-02  0.1020052E+00
         -2   -1    0    0    0  501 -0.00000000000E+00  0.00000000000E+00  0.10311702512E+03  0.10311702515E+03  0.25500000000E-02 0. -1.
          2   -1    0    0  501    0  0.00000000000E+00 -0.00000000000E+00 -0.55088176009E+03  0.55088176010E+03  0.25500000000E-02 0.  1.
    5000001    1    1    2    0    0  0.24400665711E+02 -0.15816178306E+03 -0.31032618392E+03  0.38618374194E+03  0.16500000000E+03 0.  0.
   -5000001    1    1    2    0    0 -0.24400665711E+02  0.15816178306E+03 -0.13743855105E+03  0.26781504331E+03  0.16500000000E+03 0.  0.
<mgrwt>
<rscale>  0 0.47667720E+03</rscale>
<asrwt>0</asrwt>
<pdfrwt beam="1">  1        2 0.78697393E-01 0.47667720E+03</pdfrwt>
<pdfrwt beam="2">  1       -2 0.14731004E-01 0.47667720E+03</pdfrwt>
<totfact> 0.21552937E+03</totfact>
</mgrwt>
</event>
<event>
 4    1  0.3584860E-005  0.5338979E+03  0.7818608E-02  0.1005291E+00
          2   -1    0    0  501    0  0.00000000000E+00  0.00000000000E+00  0.18030253933E+04  0.18030253933E+04  0.25500000000E-02 0.  1.
         -2   -1    0    0    0  501 -0.00000000000E+00 -0.00000000000E+00 -0.39523425286E+02  0.39523425368E+02  0.25500000000E-02 0. -1.
    5000001    1    1    2    0    0  0.10213767799E+03 -0.18329308376E+03  0.89168140340E+03  0.93077880562E+03  0.16500000000E+03 0.  0.
   -5000001    1    1    2    0    0 -0.10213767799E+03  0.18329308376E+03  0.87182056463E+03  0.91177001306E+03  0.16500000000E+03 0.  0.
<mgrwt>
<rscale>  0 0.53389789E+03</rscale>
<asrwt>0</asrwt>
<pdfrwt beam="1">  1        2 0.25757509E+00 0.53389789E+03</pdfrwt>
<pdfrwt beam="2">  1       -2 0.56462028E-02 0.53389789E+03</pdfrwt>
<totfact> 0.17720417E+03</totfact>
</mgrwt>
</event>
<event>
 4    1  0.3584860E-005  0.4489825E+03  0.7818608E-02  0.1028026E+00
          2   -1    0    0  501    0  0.00000000000E+00  0.00000000000E+00  0.98780518714E+02  0.98780518747E+02  0.25500000000E-02 0.  1.
         -2   -1    0    0    0  501 -0.00000000000E+00 -0.00000000000E+00 -0.51018489809E+03  0.51018489810E+03  0.25500000000E-02 0. -1.
    5000001    1    1    2    0    0  0.47962120330E+02 -0.14280818977E+03 -0.17608632620E+03  0.28447484656E+03  0.16500000000E+03 0.  0.
   -5000001    1    1    2    0    0 -0.47962120330E+02  0.14280818977E+03 -0.23531805317E+03  0.32449057028E+03  0.16500000000E+03 0.  0.
<mgrwt>
<rscale>  0 0.44898253E+03</rscale>
<asrwt>0</asrwt>
<pdfrwt beam="1">  1        2 0.14111503E-01 0.44898253E+03</pdfrwt>
<pdfrwt beam="2">  1       -2 0.72883556E-01 0.44898253E+03</pdfrwt>
<totfact> 0.73859450E+02</totfact>
</mgrwt>
</event>
<event>
 4    1  0.3584860E-005  0.8650658E+03  0.7818608E-02  0.9470336E-01
          2   -1    0    0  501    0  0.00000000000E+00  0.00000000000E+00  0.23442391377E+04  0.23442391377E+04  0.25500000000E-02 0.  1.
         -2   -1    0    0    0  501 -0.00000000000E+00 -0.00000000000E+00 -0.79806147552E+02  0.79806147592E+02  0.25500000000E-02 0. -1.
    5000001    1    1    2    0    0 -0.43881878521E+02 -0.38531309762E+03  0.85955848938E+03  0.95731791957E+03  0.16500000000E+03 0.  0.
   -5000001    1    1    2    0    0  0.43881878521E+02  0.38531309762E+03  0.14048745008E+04  0.14667273657E+04  0.16500000000E+03 0.  0.
<mgrwt>
<rscale>  0 0.86506577E+03</rscale>
<asrwt>0</asrwt>
<pdfrwt beam="1">  1        2 0.33489129E+00 0.86506577E+03</pdfrwt>
<pdfrwt beam="2">  1       -2 0.11400879E-01 0.86506577E+03</pdfrwt>
<totfact> 0.30031330E+02</totfact>
</mgrwt>
</event>
<event>
 4    1  0.3584860E-005  0.4012058E+03  0.7818608E-02  0.1043363E+00
         -2   -1    0    0    0  501 -0.00000000000E+00  0.00000000000E+00  0.15254515382E+03  0.15254515384E+03  0.25500000000E-02 0. -1.
          2   -1    0    0  501    0  0.00000000000E+00 -0.00000000000E+00 -0.26380075799E+03  0.26380075801E+03  0.25500000000E-02 0.  1.
    5000001    1    1    2    0    0  0.56294616034E+02 -0.73791047452E+02  0.13226030490E+02  0.18977389273E+03  0.16500000000E+03 0.  0.
   -5000001    1    1    2    0    0 -0.56294616034E+02  0.73791047452E+02 -0.12448163466E+03  0.22657201912E+03  0.16500000000E+03 0.  0.
<mgrwt>
<rscale>  0 0.40120582E+03</rscale>
<asrwt>0</asrwt>
<pdfrwt beam="1">  1        2 0.37685823E-01 0.40120582E+03</pdfrwt>
<pdfrwt beam="2">  1       -2 0.21792165E-01 0.40120582E+03</pdfrwt>
<totfact> 0.24880440E+03</totfact>
</mgrwt>
</event>
<event>
 4    1  0.3584860E-005  0.4030771E+03  0.7818608E-02  0.1042719E+00
         -2   -1    0    0    0  501 -0.00000000000E+00  0.00000000000E+00  0.23519734934E+02  0.23519735072E+02  0.25500000000E-02 0. -1.
          2   -1    0    0  501    0  0.00000000000E+00 -0.00000000000E+00 -0.17269663050E+04  0.17269663050E+04  0.25500000000E-02 0.  1.
    5000001    1    1    2    0    0  0.96808705615E+02  0.62922438950E+02 -0.81762988639E+03  0.84206578717E+03  0.16500000000E+03 0.  0.
   -5000001    1    1    2    0    0 -0.96808705615E+02 -0.62922438950E+02 -0.88581668371E+03  0.90842025294E+03  0.16500000000E+03 0.  0.
<mgrwt>
<rscale>  0 0.40307711E+03</rscale>
<asrwt>0</asrwt>
<pdfrwt beam="1">  1        2 0.24670939E+00 0.40307711E+03</pdfrwt>
<pdfrwt beam="2">  1       -2 0.33599632E-02 0.40307711E+03</pdfrwt>
<totfact> 0.42999043E+03</totfact>
</mgrwt>
</event>
<event>
 4    1  0.3584860E-005  0.6596089E+03  0.7818608E-02  0.9788914E-01
          2   -1    0    0  501    0  0.00000000000E+00  0.00000000000E+00  0.12614473515E+04  0.12614473515E+04  0.25500000000E-02 0.  1.
         -2   -1    0    0    0  501 -0.00000000000E+00 -0.00000000000E+00 -0.86227109834E+02  0.86227109871E+02  0.25500000000E-02 0. -1.
    5000001    1    1    2    0    0  0.11983697880E+02  0.28528523671E+03  0.59543939510E+03  0.68066463735E+03  0.16500000000E+03 0.  0.
   -5000001    1    1    2    0    0 -0.11983697880E+02 -0.28528523671E+03  0.57978084657E+03  0.66700982403E+03  0.16500000000E+03 0.  0.
<mgrwt>
<rscale>  0 0.65960885E+03</rscale>
<asrwt>0</asrwt>
<pdfrwt beam="1">  1        2 0.18020677E+00 0.65960885E+03</pdfrwt>
<pdfrwt beam="2">  1       -2 0.12318158E-01 0.65960885E+03</pdfrwt>
<totfact> 0.96948740E+02</totfact>
</mgrwt>
</event>
<event>
 4    1  0.3584860E-005  0.5197929E+03  0.7818608E-02  0.1008738E+00
         -2   -1    0    0    0  501 -0.00000000000E+00  0.00000000000E+00  0.75474976953E+02  0.75474976996E+02  0.25500000000E-02 0. -1.
          2   -1    0    0  501    0  0.00000000000E+00 -0.00000000000E+00 -0.89494768822E+03  0.89494768822E+03  0.25500000000E-02 0.  1.
    5000001    1    1    2    0    0  0.11283045266E+03  0.90936742905E+02 -0.66924085850E+03  0.70434972063E+03  0.16500000000E+03 0.  0.
   -5000001    1    1    2    0    0 -0.11283045266E+03 -0.90936742905E+02 -0.15023185276E+03  0.26607294459E+03  0.16500000000E+03 0.  0.
<mgrwt>
<rscale>  0 0.51979287E+03</rscale>
<asrwt>0</asrwt>
<pdfrwt beam="1">  1        2 0.12784966E+00 0.51979287E+03</pdfrwt>
<pdfrwt beam="2">  1       -2 0.10782140E-01 0.51979287E+03</pdfrwt>
<totfact> 0.19908846E+03</totfact>
</mgrwt>
</event>
<event>
 4    1  0.3584860E-005  0.5478296E+03  0.7818608E-02  0.1001998E+00
         -2   -1    0    0    0  501 -0.00000000000E+00  0.00000000000E+00  0.12733783774E+03  0.12733783777E+03  0.25500000000E-02 0. -1.
          2   -1    0    0  501    0  0.00000000000E+00 -0.00000000000E+00 -0.58921456306E+03  0.58921456307E+03  0.25500000000E-02 0.  1.
    5000001    1    1    2    0    0  0.16089668824E+03 -0.14448347054E+03 -0.27314170158E+03  0.38547970982E+03  0.16500000000E+03 0.  0.
   -5000001    1    1    2    0    0 -0.16089668824E+03  0.14448347054E+03 -0.18873502374E+03  0.33107269101E+03  0.16500000000E+03 0.  0.
<mgrwt>
<rscale>  0 0.54782957E+03</rscale>
<asrwt>0</asrwt>
<pdfrwt beam="1">  1        2 0.84173508E-01 0.54782957E+03</pdfrwt>
<pdfrwt beam="2">  1       -2 0.18191120E-01 0.54782957E+03</pdfrwt>
<totfact> 0.13951452E+03</totfact>
</mgrwt>
</event>
<event>
 4    1  0.3584860E-005  0.6300484E+03  0.7818608E-02  0.9844954E-01
         -2   -1    0    0    0  501 -0.00000000000E+00  0.00000000000E+00  0.43679622956E+02  0.43679623030E+02  0.25500000000E-02 0. -1.
          2   -1    0    0  501    0  0.00000000000E+00 -0.00000000000E+00 -0.22720033216E+04  0.22720033216E+04  0.25500000000E-02 0.  1.
    5000001    1    1    2    0    0 -0.23428889053E+03 -0.78806017090E+02 -0.14981242672E+04  0.15273188902E+04  0.16500000000E+03 0.  0.
   -5000001    1    1    2    0    0  0.23428889053E+03  0.78806017090E+02 -0.73019943147E+03  0.78836405440E+03  0.16500000000E+03 0.  0.
<mgrwt>
<rscale>  0 0.63004841E+03</rscale>
<asrwt>0</asrwt>
<pdfrwt beam="1">  1        2 0.32457183E+00 0.63004841E+03</pdfrwt>
<pdfrwt beam="2">  1       -2 0.62399476E-02 0.63004841E+03</pdfrwt>
<totfact> 0.87626495E+02</totfact>
</mgrwt>
</event>
<event>
 4    1  0.3584860E-005  0.6687544E+03  0.7818608E-02  0.9772211E-01
         -2   -1    0    0    0  501 -0.00000000000E+00  0.00000000000E+00  0.11045288790E+03  0.11045288793E+03  0.25500000000E-02 0.  1.
          2   -1    0    0  501    0  0.00000000000E+00 -0.00000000000E+00 -0.10122697183E+04  0.10122697183E+04  0.25500000000E-02 0. -1.
    5000001    1    1    2    0    0  0.13801059786E+03  0.22146621818E+03 -0.66648505119E+03  0.73452129607E+03  0.16500000000E+03 0.  0.
   -5000001    1    1    2    0    0 -0.13801059786E+03 -0.22146621818E+03 -0.23533177923E+03  0.38820131019E+03  0.16500000000E+03 0.  0.
<mgrwt>
<rscale>  0 0.66875441E+03</rscale>
<asrwt>0</asrwt>
<pdfrwt beam="1">  1        2 0.14460995E+00 0.66875441E+03</pdfrwt>
<pdfrwt beam="2">  1       -2 0.15778985E-01 0.66875441E+03</pdfrwt>
<totfact> 0.89143930E+02</totfact>
</mgrwt>
</event>
<event>
 4    1  0.3584860E-005  0.4700684E+03  0.7818608E-02  0.1021901E+00
          2   -1    0    0  501    0  0.00000000000E+00  0.00000000000E+00  0.18181077094E+04  0.18181077094E+04  0.25500000000E-02 0.  1.
         -2   -1    0    0    0  501 -0.00000000000E+00 -0.00000000000E+00 -0.30383829905E+02  0.30383830012E+02  0.25500000000E-02 0. -1.
    5000001    1    1    2    0    0  0.95913861851E+02  0.13659762134E+03  0.94324378970E+03  0.97200423140E+03  0.16500000000E+03 0.  0.
   -5000001    1    1    2    0    0 -0.95913861851E+02 -0.13659762134E+03  0.84448008976E+03  0.87648730798E+03  0.16500000000E+03 0.  0.
<mgrwt>
<rscale>  0 0.47006840E+03</rscale>
<asrwt>0</asrwt>
<pdfrwt beam="1">  1        2 0.25972971E+00 0.47006840E+03</pdfrwt>
<pdfrwt beam="2">  1       -2 0.43405465E-02 0.47006840E+03</pdfrwt>
<totfact> 0.26195204E+03</totfact>
</mgrwt>
</event>
<event>
 4    1  0.3584860E-005  0.5766830E+03  0.7818608E-02  0.9954998E-01
         -2   -1    0    0    0  501 -0.00000000000E+00  0.00000000000E+00  0.14882330062E+03  0.14882330065E+03  0.25500000000E-02 0. -1.
          2   -1    0    0  501    0  0.00000000000E+00 -0.00000000000E+00 -0.55865457541E+03  0.55865457542E+03  0.25500000000E-02 0.  1.
    5000001    1    1    2    0    0  0.18302290551E+03 -0.11346157768E+03 -0.85059159799E+02  0.28430788631E+03  0.16500000000E+03 0.  0.
   -5000001    1    1    2    0    0 -0.18302290551E+03  0.11346157768E+03 -0.32477211499E+03  0.42316998975E+03  0.16500000000E+03 0.  0.
<mgrwt>
<rscale>  0 0.57668299E+03</rscale>
<asrwt>0</asrwt>
<pdfrwt beam="1">  1        2 0.79807795E-01 0.57668299E+03</pdfrwt>
<pdfrwt beam="2">  1       -2 0.21260472E-01 0.57668299E+03</pdfrwt>
<totfact> 0.11322118E+03</totfact>
</mgrwt>
</event>
<event>
 4    1  0.3584860E-005  0.5147675E+03  0.7818608E-02  0.1009995E+00
          2   -1    0    0  501    0  0.00000000000E+00  0.00000000000E+00  0.25768231289E+04  0.25768231289E+04  0.25500000000E-02 0.  1.
         -2   -1    0    0    0  501 -0.00000000000E+00 -0.00000000000E+00 -0.25708555278E+02  0.25708555405E+02  0.25500000000E-02 0. -1.
    5000001    1    1    2    0    0  0.42580283884E+02 -0.18584360414E+03  0.10142935794E+04  0.10451638106E+04  0.16500000000E+03 0.  0.
   -5000001    1    1    2    0    0 -0.42580283884E+02  0.18584360414E+03  0.15368209943E+04  0.15573678737E+04  0.16500000000E+03 0.  0.
<mgrwt>
<rscale>  0 0.51476752E+03</rscale>
<asrwt>0</asrwt>
<pdfrwt beam="1">  1        2 0.36811733E+00 0.51476752E+03</pdfrwt>
<pdfrwt beam="2">  1       -2 0.36726533E-02 0.51476752E+03</pdfrwt>
<totfact> 0.14025012E+03</totfact>
</mgrwt>
</event>
<event>
 4    1  0.3584860E-005  0.4556429E+03  0.7818608E-02  0.1026053E+00
          2   -1    0    0  501    0  0.00000000000E+00  0.00000000000E+00  0.16395238346E+04  0.16395238346E+04  0.25500000000E-02 0.  1.
         -2   -1    0    0    0  501 -0.00000000000E+00 -0.00000000000E+00 -0.31657132008E+02  0.31657132111E+02  0.25500000000E-02 0. -1.
    5000001    1    1    2    0    0  0.11004851395E+03  0.10816384816E+03  0.91196247517E+03  0.93952682218E+03  0.16500000000E+03 0.  0.
   -5000001    1    1    2    0    0 -0.11004851395E+03 -0.10816384816E+03  0.69590422740E+03  0.73165414451E+03  0.16500000000E+03 0.  0.
<mgrwt>
<rscale>  0 0.45564294E+03</rscale>
<asrwt>0</asrwt>
<pdfrwt beam="1">  1        2 0.23421770E+00 0.45564294E+03</pdfrwt>
<pdfrwt beam="2">  1       -2 0.45224473E-02 0.45564294E+03</pdfrwt>
<totfact> 0.30255694E+03</totfact>
</mgrwt>
</event>
<event>
 4    1  0.3584860E-005  0.6136963E+03  0.7818608E-02  0.9877391E-01
         -2   -1    0    0    0  501 -0.00000000000E+00  0.00000000000E+00  0.50882460345E+03  0.50882460346E+03  0.25500000000E-02 0. -1.
          2   -1    0    0  501    0  0.00000000000E+00 -0.00000000000E+00 -0.18504564433E+03  0.18504564435E+03  0.25500000000E-02 0.  1.
    5000001    1    1    2    0    0 -0.21383062428E+03  0.76366091468E+02  0.21692435961E+02  0.28151532389E+03  0.16500000000E+03 0.  0.
   -5000001    1    1    2    0    0  0.21383062428E+03 -0.76366091468E+02  0.30208652316E+03  0.41235492392E+03  0.16500000000E+03 0.  0.
<mgrwt>
<rscale>  0 0.61369627E+03</rscale>
<asrwt>0</asrwt>
<pdfrwt beam="1">  1        2 0.26435092E-01 0.61369627E+03</pdfrwt>
<pdfrwt beam="2">  1       -2 0.72689229E-01 0.61369627E+03</pdfrwt>
<totfact> 0.35518293E+02</totfact>
</mgrwt>
</event>
<event>
 4    1  0.3584860E-005  0.6619596E+03  0.7818608E-02  0.9784593E-01
         -2   -1    0    0    0  501 -0.00000000000E+00  0.00000000000E+00  0.83985316104E+02  0.83985316143E+02  0.25500000000E-02 0. -1.
          2   -1    0    0  501    0  0.00000000000E+00 -0.00000000000E+00 -0.13043664665E+04  0.13043664665E+04  0.25500000000E-02 0.  1.
    5000001    1    1    2    0    0  0.27915988817E+03 -0.48843890318E+02 -0.70414236670E+03  0.77676086498E+03  0.16500000000E+03 0.  0.
   -5000001    1    1    2    0    0 -0.27915988817E+03  0.48843890318E+02 -0.51623878374E+03  0.61159091771E+03  0.16500000000E+03 0.  0.
<mgrwt>
<rscale>  0 0.66195961E+03</rscale>
<asrwt>0</asrwt>
<pdfrwt beam="1">  1        2 0.18633805E+00 0.66195961E+03</pdfrwt>
<pdfrwt beam="2">  1       -2 0.11997903E-01 0.66195961E+03</pdfrwt>
<totfact> 0.95910086E+02</totfact>
</mgrwt>
</event>
<event>
 4    1  0.3584860E-005  0.7312023E+03  0.7818608E-02  0.9665311E-01
         -2   -1    0    0    0  501 -0.00000000000E+00  0.00000000000E+00  0.88589592302E+02  0.88589592339E+02  0.25500000000E-02 0. -1.
          2   -1    0    0  501    0  0.00000000000E+00 -0.00000000000E+00 -0.15088026475E+04  0.15088026475E+04  0.25500000000E-02 0.  1.
    5000001    1    1    2    0    0  0.11313196873E+03  0.28948892789E+03 -0.49343843581E+03  0.60606036965E+03  0.16500000000E+03 0.  0.
   -5000001    1    1    2    0    0 -0.11313196873E+03 -0.28948892789E+03 -0.92677461935E+03  0.99133187016E+03  0.16500000000E+03 0.  0.
<mgrwt>
<rscale>  0 0.73120233E+03</rscale>
<asrwt>0</asrwt>
<pdfrwt beam="1">  1        2 0.21554322E+00 0.73120233E+03</pdfrwt>
<pdfrwt beam="2">  1       -2 0.12655657E-01 0.73120233E+03</pdfrwt>
<totfact> 0.68098282E+02</totfact>
</mgrwt>
</event>
<event>
 4    1  0.3584860E-005  0.7442925E+03  0.7818608E-02  0.9644347E-01
         -2   -1    0    0    0  501 -0.00000000000E+00  0.00000000000E+00  0.13703050532E+03  0.13703050535E+03  0.25500000000E-02 0. -1.
          2   -1    0    0  501    0  0.00000000000E+00 -0.00000000000E+00 -0.10106714775E+04  0.10106714775E+04  0.25500000000E-02 0.  1.
    5000001    1    1    2    0    0 -0.23528841071E+03  0.19749882928E+03 -0.23635166532E+03  0.42125233943E+03  0.16500000000E+03 0.  0.
   -5000001    1    1    2    0    0  0.23528841071E+03 -0.19749882928E+03 -0.63728930682E+03  0.72644964338E+03  0.16500000000E+03 0.  0.
<mgrwt>
<rscale>  0 0.74429248E+03</rscale>
<asrwt>0</asrwt>
<pdfrwt beam="1">  1        2 0.14438164E+00 0.74429248E+03</pdfrwt>
<pdfrwt beam="2">  1       -2 0.19575787E-01 0.74429248E+03</pdfrwt>
<totfact> 0.61517222E+02</totfact>
</mgrwt>
</event>
<event>
 4    1  0.3584860E-005  0.7946206E+03  0.7818608E-02  0.9567836E-01
          2   -1    0    0  501    0  0.00000000000E+00  0.00000000000E+00  0.13070829207E+04  0.13070829207E+04  0.25500000000E-02 0.  1.
         -2   -1    0    0    0  501 -0.00000000000E+00 -0.00000000000E+00 -0.12076929631E+03  0.12076929634E+03  0.25500000000E-02 0. -1.
    5000001    1    1    2    0    0  0.26037879930E+03 -0.15332016431E+03  0.23681652138E+03  0.41786511784E+03  0.16500000000E+03 0.  0.
   -5000001    1    1    2    0    0 -0.26037879930E+03  0.15332016431E+03  0.94949710298E+03  0.10099870992E+04  0.16500000000E+03 0.  0.
<mgrwt>
<rscale>  0 0.79462063E+03</rscale>
<asrwt>0</asrwt>
<pdfrwt beam="1">  1        2 0.18672614E+00 0.79462063E+03</pdfrwt>
<pdfrwt beam="2">  1       -2 0.17252756E-01 0.79462063E+03</pdfrwt>
<totfact> 0.51582419E+02</totfact>
</mgrwt>
</event>
<event>
 4    1  0.3584860E-005  0.4572043E+03  0.7818608E-02  0.1025595E+00
          2   -1    0    0  501    0  0.00000000000E+00  0.00000000000E+00  0.18975611846E+03  0.18975611847E+03  0.25500000000E-02 0.  1.
         -2   -1    0    0    0  501 -0.00000000000E+00 -0.00000000000E+00 -0.27540057830E+03  0.27540057831E+03  0.25500000000E-02 0. -1.
    5000001    1    1    2    0    0 -0.13151872693E+03  0.37409178110E+02 -0.12381418315E+03  0.24749055353E+03  0.16500000000E+03 0.  0.
   -5000001    1    1    2    0    0  0.13151872693E+03 -0.37409178110E+02  0.38169723306E+02  0.21766614325E+03  0.16500000000E+03 0.  0.
<mgrwt>
<rscale>  0 0.45720431E+03</rscale>
<asrwt>0</asrwt>
<pdfrwt beam="1">  1        2 0.27108017E-01 0.45720431E+03</pdfrwt>
<pdfrwt beam="2">  1       -2 0.39342939E-01 0.45720431E+03</pdfrwt>
<totfact> 0.12180485E+03</totfact>
</mgrwt>
</event>
<event>
 4    1  0.3584860E-005  0.5784353E+03  0.7818608E-02  0.9951184E-01
         -2   -1    0    0    0  501 -0.00000000000E+00  0.00000000000E+00  0.41012811843E+02  0.41012811922E+02  0.25500000000E-02 0. -1.
          2   -1    0    0  501    0  0.00000000000E+00 -0.00000000000E+00 -0.20395300518E+04  0.20395300518E+04  0.25500000000E-02 0.  1.
    5000001    1    1    2    0    0  0.19993296963E+03  0.10299089098E+03 -0.72435164496E+03  0.77620269358E+03  0.16500000000E+03 0.  0.
   -5000001    1    1    2    0    0 -0.19993296963E+03 -0.10299089098E+03 -0.12741655950E+04  0.13043401701E+04  0.16500000000E+03 0.  0.
<mgrwt>
<rscale>  0 0.57843535E+03</rscale>
<asrwt>0</asrwt>
<pdfrwt beam="1">  1        2 0.29136137E+00 0.57843535E+03</pdfrwt>
<pdfrwt beam="2">  1       -2 0.58589744E-02 0.57843535E+03</pdfrwt>
<totfact> 0.12702361E+03</totfact>
</mgrwt>
</event>
<event>
 4    1  0.3584860E-005  0.6367710E+03  0.7818608E-02  0.9831924E-01
         -2   -1    0    0    0  501 -0.00000000000E+00  0.00000000000E+00  0.60419707538E+02  0.60419707592E+02  0.25500000000E-02 0. -1.
          2   -1    0    0  501    0  0.00000000000E+00 -0.00000000000E+00 -0.16777527802E+04  0.16777527802E+04  0.25500000000E-02 0.  1.
    5000001    1    1    2    0    0  0.24812569807E+03  0.15883685991E+02 -0.11117170373E+04  0.11510683840E+04  0.16500000000E+03 0.  0.
   -5000001    1    1    2    0    0 -0.24812569807E+03 -0.15883685991E+02 -0.50561603534E+03  0.58710410381E+03  0.16500000000E+03 0.  0.
<mgrwt>
<rscale>  0 0.63677102E+03</rscale>
<asrwt>0</asrwt>
<pdfrwt beam="1">  1        2 0.23967894E+00 0.63677102E+03</pdfrwt>
<pdfrwt beam="2">  1       -2 0.86313879E-02 0.63677102E+03</pdfrwt>
<totfact> 0.10444498E+03</totfact>
</mgrwt>
</event>
<event>
 4    1  0.3584860E-005  0.8378924E+03  0.7818608E-02  0.9506733E-01
          2   -1    0    0  501    0  0.00000000000E+00  0.00000000000E+00  0.67088260054E+03  0.67088260054E+03  0.25500000000E-02 0. -1.
         -2   -1    0    0    0  501 -0.00000000000E+00 -0.00000000000E+00 -0.26161939367E+03  0.26161939369E+03  0.25500000000E-02 0.  1.
    5000001    1    1    2    0    0  0.10277061081E+03 -0.34954489477E+03  0.65862952052E+02  0.40534720964E+03  0.16500000000E+03 0.  0.
   -5000001    1    1    2    0    0 -0.10277061081E+03  0.34954489477E+03  0.34340025481E+03  0.52715478459E+03  0.16500000000E+03 0.  0.
<mgrwt>
<rscale>  0 0.83789235E+03</rscale>
<asrwt>0</asrwt>
<pdfrwt beam="1">  1        2 0.95840372E-01 0.83789235E+03</pdfrwt>
<pdfrwt beam="2">  1       -2 0.37374199E-01 0.83789235E+03</pdfrwt>
<totfact> 0.32116820E+02</totfact>
</mgrwt>
</event>
<event>
 4    1  0.3584860E-005  0.6585402E+03  0.7818608E-02  0.9790885E-01
          2   -1    0    0  501    0  0.00000000000E+00  0.00000000000E+00  0.31587168087E+03  0.31587168088E+03  0.25500000000E-02 0.  1.
         -2   -1    0    0    0  501 -0.00000000000E+00 -0.00000000000E+00 -0.34323689438E+03  0.34323689439E+03  0.25500000000E-02 0. -1.
    5000001    1    1    2    0    0  0.12661635347E+03  0.24320653540E+03 -0.91291095001E+02  0.33277647732E+03  0.16500000000E+03 0.  0.
   -5000001    1    1    2    0    0 -0.12661635347E+03 -0.24320653540E+03  0.63925881491E+02  0.32633209795E+03  0.16500000000E+03 0.  0.
<mgrwt>
<rscale>  0 0.65854025E+03</rscale>
<asrwt>0</asrwt>
<pdfrwt beam="1">  1        2 0.45124526E-01 0.65854025E+03</pdfrwt>
<pdfrwt beam="2">  1       -2 0.49033842E-01 0.65854025E+03</pdfrwt>
<totfact> 0.44698774E+02</totfact>
</mgrwt>
</event>
<event>
 4    1  0.3584860E-005  0.4253009E+03  0.7818608E-02  0.1035355E+00
          2   -1    0    0  501    0  0.00000000000E+00  0.00000000000E+00  0.12825952393E+03  0.12825952395E+03  0.25500000000E-02 0.  1.
         -2   -1    0    0    0  501 -0.00000000000E+00 -0.00000000000E+00 -0.35256808129E+03  0.35256808129E+03  0.25500000000E-02 0. -1.
    5000001    1    1    2    0    0 -0.46706076951E+02 -0.11812815932E+03 -0.63402490203E+02  0.21767084190E+03  0.16500000000E+03 0.  0.
   -5000001    1    1    2    0    0  0.46706076951E+02  0.11812815932E+03 -0.16090606715E+03  0.26315676335E+03  0.16500000000E+03 0.  0.
<mgrwt>
<rscale>  0 0.42530090E+03</rscale>
<asrwt>0</asrwt>
<pdfrwt beam="1">  1        2 0.18322789E-01 0.42530090E+03</pdfrwt>
<pdfrwt beam="2">  1       -2 0.50366868E-01 0.42530090E+03</pdfrwt>
<totfact> 0.11735250E+03</totfact>
</mgrwt>
</event>
<event>
 4    1  0.3584860E-005  0.5502548E+03  0.7818608E-02  0.1001435E+00
         -2   -1    0    0    0  501 -0.00000000000E+00  0.00000000000E+00  0.31925643939E+03  0.31925643940E+03  0.25500000000E-02 0. -1.
          2   -1    0    0  501    0  0.00000000000E+00 -0.00000000000E+00 -0.23709805186E+03  0.23709805187E+03  0.25500000000E-02 0.  1.
    5000001    1    1    2    0    0  0.70030607517E+01  0.21978255696E+03  0.52000067229E+02  0.27978996085E+03  0.16500000000E+03 0.  0.
   -5000001    1    1    2    0    0 -0.70030607517E+01 -0.21978255696E+03  0.30158320301E+02  0.27656453042E+03  0.16500000000E+03 0.  0.
<mgrwt>
<rscale>  0 0.55025478E+03</rscale>
<asrwt>0</asrwt>
<pdfrwt beam="1">  1        2 0.33871150E-01 0.55025478E+03</pdfrwt>
<pdfrwt beam="2">  1       -2 0.45608063E-01 0.55025478E+03</pdfrwt>
<totfact> 0.71132470E+02</totfact>
</mgrwt>
</event>
<event>
 4    1  0.3584860E-005  0.3750654E+03  0.7818608E-02  0.1052773E+00
          2   -1    0    0  501    0  0.00000000000E+00  0.00000000000E+00  0.15981517666E+04  0.15981517666E+04  0.25500000000E-02 0.  1.
         -2   -1    0    0    0  501 -0.00000000000E+00 -0.00000000000E+00 -0.22005738982E+02  0.22005739130E+02  0.25500000000E-02 0. -1.
    5000001    1    1    2    0    0  0.57924142653E+02 -0.29714377713E+02  0.52512767961E+03  0.55427631235E+03  0.16500000000E+03 0.  0.
   -5000001    1    1    2    0    0 -0.57924142653E+02  0.29714377713E+02  0.10510183480E+04  0.10658811933E+04  0.16500000000E+03 0.  0.
<mgrwt>
<rscale>  0 0.37506538E+03</rscale>
<asrwt>0</asrwt>
<pdfrwt beam="1">  1        2 0.22830737E+00 0.37506538E+03</pdfrwt>
<pdfrwt beam="2">  1       -2 0.31436774E-02 0.37506538E+03</pdfrwt>
<totfact> 0.55160705E+03</totfact>
</mgrwt>
</event>
<event>
 4    1  0.3584860E-005  0.9335808E+03  0.7818608E-02  0.9384551E-01
          2   -1    0    0  501    0  0.00000000000E+00  0.00000000000E+00  0.19322008343E+04  0.19322008343E+04  0.25500000000E-02 0.  1.
         -2   -1    0    0    0  501 -0.00000000000E+00 -0.00000000000E+00 -0.11276947278E+03  0.11276947281E+03  0.25500000000E-02 0. -1.
    5000001    1    1    2    0    0 -0.10592346786E+03  0.31472333062E+03  0.15308091347E+04  0.15750784625E+04  0.16500000000E+03 0.  0.
   -5000001    1    1    2    0    0  0.10592346786E+03 -0.31472333062E+03  0.28862222677E+03  0.46989184465E+03  0.16500000000E+03 0.  0.
<mgrwt>
<rscale>  0 0.93358078E+03</rscale>
<asrwt>0</asrwt>
<pdfrwt beam="1">  1        2 0.27602869E+00 0.93358078E+03</pdfrwt>
<pdfrwt beam="2">  1       -2 0.16109924E-01 0.93358078E+03</pdfrwt>
<totfact> 0.27141510E+02</totfact>
</mgrwt>
</event>
<event>
 4    1  0.3584860E-005  0.5332520E+03  0.7818608E-02  0.1005447E+00
          2   -1    0    0  501    0  0.00000000000E+00  0.00000000000E+00  0.16540885174E+04  0.16540885174E+04  0.25500000000E-02 0.  1.
         -2   -1    0    0    0  501 -0.00000000000E+00 -0.00000000000E+00 -0.42977999633E+02  0.42977999708E+02  0.25500000000E-02 0. -1.
    5000001    1    1    2    0    0 -0.17949706362E+03 -0.12071682381E+02  0.11468312760E+04  0.11725237298E+04  0.16500000000E+03 0.  0.
   -5000001    1    1    2    0    0  0.17949706362E+03  0.12071682381E+02  0.46427924172E+03  0.52454278725E+03  0.16500000000E+03 0.  0.
<mgrwt>
<rscale>  0 0.53325197E+03</rscale>
<asrwt>0</asrwt>
<pdfrwt beam="1">  1        2 0.23629835E+00 0.53325197E+03</pdfrwt>
<pdfrwt beam="2">  1       -2 0.61397144E-02 0.53325197E+03</pdfrwt>
<totfact> 0.18492198E+03</totfact>
</mgrwt>
</event>
<event>
 4    1  0.3584860E-005  0.8179488E+03  0.7818608E-02  0.9534394E-01
         -2   -1    0    0    0  501 -0.00000000000E+00  0.00000000000E+00  0.68258737951E+02  0.68258737998E+02  0.25500000000E-02 0. -1.
          2   -1    0    0  501    0  0.00000000000E+00 -0.00000000000E+00 -0.24503829641E+04  0.24503829641E+04  0.25500000000E-02 0.  1.
    5000001    1    1    2    0    0  0.29104079597E+03  0.17570931888E+03 -0.70951610867E+03  0.80387599673E+03  0.16500000000E+03 0.  0.
   -5000001    1    1    2    0    0 -0.29104079597E+03 -0.17570931888E+03 -0.16726081175E+04  0.17147657054E+04  0.16500000000E+03 0.  0.
<mgrwt>
<rscale>  0 0.81794877E+03</rscale>
<asrwt>0</asrwt>
<pdfrwt beam="1">  1        2 0.35005465E+00 0.81794877E+03</pdfrwt>
<pdfrwt beam="2">  1       -2 0.97512498E-02 0.81794877E+03</pdfrwt>
<totfact> 0.34335354E+02</totfact>
</mgrwt>
</event>
<event>
 4    1  0.3584860E-005  0.3668028E+03  0.7818608E-02  0.1055922E+00
          2   -1    0    0  501    0  0.00000000000E+00  0.00000000000E+00  0.14627425667E+03  0.14627425669E+03  0.25500000000E-02 0.  1.
         -2   -1    0    0    0  501 -0.00000000000E+00 -0.00000000000E+00 -0.22995213053E+03  0.22995213054E+03  0.25500000000E-02 0. -1.
    5000001    1    1    2    0    0 -0.78496955756E+02 -0.25918299329E+01 -0.25863577456E+02  0.18456005604E+03  0.16500000000E+03 0.  0.
   -5000001    1    1    2    0    0  0.78496955756E+02  0.25918299329E+01 -0.57814296403E+02  0.19166633120E+03  0.16500000000E+03 0.  0.
<mgrwt>
<rscale>  0 0.36680282E+03</rscale>
<asrwt>0</asrwt>
<pdfrwt beam="1">  1        2 0.20896322E-01 0.36680282E+03</pdfrwt>
<pdfrwt beam="2">  1       -2 0.32850304E-01 0.36680282E+03</pdfrwt>
<totfact> 0.22967298E+03</totfact>
</mgrwt>
</event>
<event>
 4    1  0.3584860E-005  0.7902281E+03  0.7818608E-02  0.9574270E-01
          2   -1    0    0  501    0  0.00000000000E+00  0.00000000000E+00  0.44612232152E+03  0.44612232153E+03  0.25500000000E-02 0.  1.
         -2   -1    0    0    0  501 -0.00000000000E+00 -0.00000000000E+00 -0.34993793176E+03  0.34993793177E+03  0.25500000000E-02 0. -1.
    5000001    1    1    2    0    0 -0.26946601506E+03  0.20061725014E+03 -0.79455472672E+02  0.38261911408E+03  0.16500000000E+03 0.  0.
   -5000001    1    1    2    0    0  0.26946601506E+03 -0.20061725014E+03  0.17563986243E+03  0.41344113922E+03  0.16500000000E+03 0.  0.
<mgrwt>
<rscale>  0 0.79022813E+03</rscale>
<asrwt>0</asrwt>
<pdfrwt beam="1">  1        2 0.63731760E-01 0.79022813E+03</pdfrwt>
<pdfrwt beam="2">  1       -2 0.49991133E-01 0.79022813E+03</pdfrwt>
<totfact> 0.29137654E+02</totfact>
</mgrwt>
</event>
<event>
 4    1  0.3584860E-005  0.3763659E+03  0.7818608E-02  0.1052285E+00
          2   -1    0    0  501    0  0.00000000000E+00  0.00000000000E+00  0.14699946834E+04  0.14699946834E+04  0.25500000000E-02 0.  1.
         -2   -1    0    0    0  501 -0.00000000000E+00 -0.00000000000E+00 -0.24090442588E+02  0.24090442722E+02  0.25500000000E-02 0. -1.
    5000001    1    1    2    0    0  0.71787233730E+02  0.50139661234E+02  0.81351417482E+03  0.83468419488E+03  0.16500000000E+03 0.  0.
   -5000001    1    1    2    0    0 -0.71787233730E+02 -0.50139661234E+02  0.63239006599E+03  0.65940093124E+03  0.16500000000E+03 0.  0.
<mgrwt>
<rscale>  0 0.37636590E+03</rscale>
<asrwt>0</asrwt>
<pdfrwt beam="1">  1        2 0.20999925E+00 0.37636590E+03</pdfrwt>
<pdfrwt beam="2">  1       -2 0.34414916E-02 0.37636590E+03</pdfrwt>
<totfact> 0.55933764E+03</totfact>
</mgrwt>
</event>
<event>
 4    1  0.3584860E-005  0.4493128E+03  0.7818608E-02  0.1027927E+00
         -2   -1    0    0    0  501 -0.00000000000E+00  0.00000000000E+00  0.14732481710E+03  0.14732481713E+03  0.25500000000E-02 0. -1.
          2   -1    0    0  501    0  0.00000000000E+00 -0.00000000000E+00 -0.34257975787E+03  0.34257975788E+03  0.25500000000E-02 0.  1.
    5000001    1    1    2    0    0  0.11302591068E+03 -0.83644120867E+02 -0.16189574629E+03  0.27056686439E+03  0.16500000000E+03 0.  0.
   -5000001    1    1    2    0    0 -0.11302591068E+03  0.83644120867E+02 -0.33359194478E+02  0.21933771061E+03  0.16500000000E+03 0.  0.
<mgrwt>
<rscale>  0 0.44931281E+03</rscale>
<asrwt>0</asrwt>
<pdfrwt beam="1">  1        2 0.48939965E-01 0.44931281E+03</pdfrwt>
<pdfrwt beam="2">  1       -2 0.21046403E-01 0.44931281E+03</pdfrwt>
<totfact> 0.19897351E+03</totfact>
</mgrwt>
</event>
<event>
 4    1  0.3584860E-005  0.4172133E+03  0.7818608E-02  0.1037977E+00
         -2   -1    0    0    0  501 -0.00000000000E+00  0.00000000000E+00  0.18329071229E+02  0.18329071407E+02  0.25500000000E-02 0. -1.
          2   -1    0    0  501    0  0.00000000000E+00 -0.00000000000E+00 -0.23741914565E+04  0.23741914565E+04  0.25500000000E-02 0.  1.
    5000001    1    1    2    0    0 -0.16282352989E+02 -0.12456091611E+03 -0.10482766399E+04  0.10685922752E+04  0.16500000000E+03 0.  0.
   -5000001    1    1    2    0    0  0.16282352989E+02  0.12456091611E+03 -0.13075857453E+04  0.13239282527E+04  0.16500000000E+03 0.  0.
<mgrwt>
<rscale>  0 0.41721325E+03</rscale>
<asrwt>0</asrwt>
<pdfrwt beam="1">  1        2 0.33917001E+00 0.41721325E+03</pdfrwt>
<pdfrwt beam="2">  1       -2 0.26184403E-02 0.41721325E+03</pdfrwt>
<totfact> 0.29824295E+03</totfact>
</mgrwt>
</event>
<event>
 4    1  0.3584860E-005  0.3548047E+03  0.7818608E-02  0.1060660E+00
          2   -1    0    0  501    0  0.00000000000E+00  0.00000000000E+00  0.18766208422E+04  0.18766208422E+04  0.25500000000E-02 0.  1.
         -2   -1    0    0    0  501 -0.00000000000E+00 -0.00000000000E+00 -0.16770349161E+02  0.16770349355E+02  0.25500000000E-02 0. -1.
    5000001    1    1    2    0    0  0.98319726984E+01  0.20747119194E+02  0.60446950781E+03  0.62700518062E+03  0.16500000000E+03 0.  0.
   -5000001    1    1    2    0    0 -0.98319726984E+01 -0.20747119194E+02  0.12553809852E+04  0.12663860109E+04  0.16500000000E+03 0.  0.
<mgrwt>
<rscale>  0 0.35480466E+03</rscale>
<asrwt>0</asrwt>
<pdfrwt beam="1">  1        2 0.26808851E+00 0.35480466E+03</pdfrwt>
<pdfrwt beam="2">  1       -2 0.23957658E-02 0.35480466E+03</pdfrwt>
<totfact> 0.60177583E+03</totfact>
</mgrwt>
</event>
<event>
 4    1  0.3584860E-005  0.6053486E+03  0.7818608E-02  0.9894371E-01
         -2   -1    0    0    0  501 -0.00000000000E+00  0.00000000000E+00  0.45451747752E+03  0.45451747753E+03  0.25500000000E-02 0. -1.
          2   -1    0    0  501    0  0.00000000000E+00 -0.00000000000E+00 -0.20155821833E+03  0.20155821835E+03  0.25500000000E-02 0.  1.
    5000001    1    1    2    0    0 -0.57969245703E+02 -0.24493753724E+03  0.91664524410E+02  0.31461439197E+03  0.16500000000E+03 0.  0.
   -5000001    1    1    2    0    0  0.57969245703E+02  0.24493753724E+03  0.16129473478E+03  0.34146130391E+03  0.16500000000E+03 0.  0.
<mgrwt>
<rscale>  0 0.60534860E+03</rscale>
<asrwt>0</asrwt>
<pdfrwt beam="1">  1        2 0.28794031E-01 0.60534860E+03</pdfrwt>
<pdfrwt beam="2">  1       -2 0.64931068E-01 0.60534860E+03</pdfrwt>
<totfact> 0.41172385E+02</totfact>
</mgrwt>
</event>
<event>
 4    1  0.3584860E-005  0.5261262E+03  0.7818608E-02  0.1007176E+00
         -2   -1    0    0    0  501 -0.00000000000E+00  0.00000000000E+00  0.14287887275E+03  0.14287887277E+03  0.25500000000E-02 0. -1.
          2   -1    0    0  501    0  0.00000000000E+00 -0.00000000000E+00 -0.48434174093E+03  0.48434174093E+03  0.25500000000E-02 0.  1.
    5000001    1    1    2    0    0 -0.28504667898E+02 -0.18034417385E+03 -0.28154781191E+03  0.37393944366E+03  0.16500000000E+03 0.  0.
   -5000001    1    1    2    0    0  0.28504667898E+02  0.18034417385E+03 -0.59915056277E+02  0.25328117005E+03  0.16500000000E+03 0.  0.
<mgrwt>
<rscale>  0 0.52612623E+03</rscale>
<asrwt>0</asrwt>
<pdfrwt beam="1">  1        2 0.69191677E-01 0.52612623E+03</pdfrwt>
<pdfrwt beam="2">  1       -2 0.20411268E-01 0.52612623E+03</pdfrwt>
<totfact> 0.14314194E+03</totfact>
</mgrwt>
</event>
<event>
 4    1  0.3584860E-005  0.7340539E+03  0.7818608E-02  0.9660705E-01
         -2   -1    0    0    0  501 -0.00000000000E+00  0.00000000000E+00  0.42597183880E+03  0.42597183880E+03  0.25500000000E-02 0. -1.
          2   -1    0    0  501    0  0.00000000000E+00 -0.00000000000E+00 -0.31623868945E+03  0.31623868946E+03  0.25500000000E-02 0.  1.
    5000001    1    1    2    0    0 -0.15887189506E+03  0.26760600302E+03 -0.49383532273E+02  0.35569226186E+03  0.16500000000E+03 0.  0.
   -5000001    1    1    2    0    0  0.15887189506E+03 -0.26760600302E+03  0.15911668162E+03  0.38651826640E+03  0.16500000000E+03 0.  0.
<mgrwt>
<rscale>  0 0.73405388E+03</rscale>
<asrwt>0</asrwt>
<pdfrwt beam="1">  1        2 0.45176956E-01 0.73405388E+03</pdfrwt>
<pdfrwt beam="2">  1       -2 0.60853120E-01 0.73405388E+03</pdfrwt>
<totfact> 0.28506460E+02</totfact>
</mgrwt>
</event>
<event>
 4    1  0.3584860E-005  0.7091149E+03  0.7818608E-02  0.9701770E-01
         -2   -1    0    0    0  501 -0.00000000000E+00  0.00000000000E+00  0.20575197234E+03  0.20575197235E+03  0.25500000000E-02 0. -1.
          2   -1    0    0  501    0  0.00000000000E+00 -0.00000000000E+00 -0.61098308092E+03  0.61098308093E+03  0.25500000000E-02 0.  1.
    5000001    1    1    2    0    0  0.49559083039E+02  0.26890353207E+03 -0.38000546677E+03  0.49638127185E+03  0.16500000000E+03 0.  0.
   -5000001    1    1    2    0    0 -0.49559083039E+02 -0.26890353207E+03 -0.25225641816E+02  0.32035378143E+03  0.16500000000E+03 0.  0.
<mgrwt>
<rscale>  0 0.70911487E+03</rscale>
<asrwt>0</asrwt>
<pdfrwt beam="1">  1        2 0.87283297E-01 0.70911487E+03</pdfrwt>
<pdfrwt beam="2">  1       -2 0.29393139E-01 0.70911487E+03</pdfrwt>
<totfact> 0.56786081E+02</totfact>
</mgrwt>
</event>
<event>
 4    1  0.3584860E-005  0.7297586E+03  0.7818608E-02  0.9667652E-01
          2   -1    0    0  501    0  0.00000000000E+00  0.00000000000E+00  0.28136947867E+04  0.28136947867E+04  0.25500000000E-02 0.  1.
         -2   -1    0    0    0  501 -0.00000000000E+00 -0.00000000000E+00 -0.47317467728E+02  0.47317467797E+02  0.25500000000E-02 0. -1.
    5000001    1    1    2    0    0 -0.25318216512E+03 -0.11948556083E+03  0.20337292235E+04  0.20595284807E+04  0.16500000000E+03 0.  0.
   -5000001    1    1    2    0    0  0.25318216512E+03  0.11948556083E+03  0.73264809542E+03  0.80148377383E+03  0.16500000000E+03 0.  0.
<mgrwt>
<rscale>  0 0.72975862E+03</rscale>
<asrwt>0</asrwt>
<pdfrwt beam="1">  1        2 0.40195653E+00 0.72975862E+03</pdfrwt>
<pdfrwt beam="2">  1       -2 0.67596360E-02 0.72975862E+03</pdfrwt>
<totfact> 0.40161576E+02</totfact>
</mgrwt>
</event>
<event>
 4    1  0.3584860E-005  0.5114934E+03  0.7818608E-02  0.1010822E+00
         -2   -1    0    0    0  501 -0.00000000000E+00  0.00000000000E+00  0.15332666834E+03  0.15332666836E+03  0.25500000000E-02 0. -1.
          2   -1    0    0  501    0  0.00000000000E+00 -0.00000000000E+00 -0.42658177305E+03  0.42658177306E+03  0.25500000000E-02 0.  1.
    5000001    1    1    2    0    0  0.28609719979E+02 -0.19259278122E+03 -0.11796817461E+03  0.28116184961E+03  0.16500000000E+03 0.  0.
   -5000001    1    1    2    0    0 -0.28609719979E+02  0.19259278122E+03 -0.15528693011E+03  0.29874659181E+03  0.16500000000E+03 0.  0.
<mgrwt>
<rscale>  0 0.51149335E+03</rscale>
<asrwt>0</asrwt>
<pdfrwt beam="1">  1        2 0.60940253E-01 0.51149335E+03</pdfrwt>
<pdfrwt beam="2">  1       -2 0.21903810E-01 0.51149335E+03</pdfrwt>
<totfact> 0.14583384E+03</totfact>
</mgrwt>
</event>
<event>
 4    1  0.3584860E-005  0.4959145E+03  0.7818608E-02  0.1014851E+00
         -2   -1    0    0    0  501 -0.00000000000E+00  0.00000000000E+00  0.10337829436E+03  0.10337829439E+03  0.25500000000E-02 0.  1.
          2   -1    0    0  501    0  0.00000000000E+00 -0.00000000000E+00 -0.59473613749E+03  0.59473613750E+03  0.25500000000E-02 0. -1.
    5000001    1    1    2    0    0  0.14616644019E+03 -0.71834987932E+02 -0.12188726948E+03  0.26192823481E+03  0.16500000000E+03 0.  0.
   -5000001    1    1    2    0    0 -0.14616644019E+03  0.71834987932E+02 -0.36947057366E+03  0.43618619708E+03  0.16500000000E+03 0.  0.
<mgrwt>
<rscale>  0 0.49591454E+03</rscale>
<asrwt>0</asrwt>
<pdfrwt beam="1">  1        2 0.84962303E-01 0.49591454E+03</pdfrwt>
<pdfrwt beam="2">  1       -2 0.14768328E-01 0.49591454E+03</pdfrwt>
<totfact> 0.19646627E+03</totfact>
</mgrwt>
</event>
<event>
 4    1  0.3584860E-005  0.9342683E+03  0.7818608E-02  0.9383730E-01
         -2   -1    0    0    0  501 -0.00000000000E+00  0.00000000000E+00  0.12846557148E+03  0.12846557150E+03  0.25500000000E-02 0. -1.
          2   -1    0    0  501    0  0.00000000000E+00 -0.00000000000E+00 -0.16986211232E+04  0.16986211232E+04  0.25500000000E-02 0.  1.
    5000001    1    1    2    0    0  0.82562144947E+02  0.37527919649E+03 -0.37795658330E+03  0.56367292108E+03  0.16500000000E+03 0.  0.
   -5000001    1    1    2    0    0 -0.82562144947E+02 -0.37527919649E+03 -0.11921989685E+04  0.12634137737E+04  0.16500000000E+03 0.  0.
<mgrwt>
<rscale>  0 0.93426834E+03</rscale>
<asrwt>0</asrwt>
<pdfrwt beam="1">  1        2 0.24266015E+00 0.93426834E+03</pdfrwt>
<pdfrwt beam="2">  1       -2 0.18352225E-01 0.93426834E+03</pdfrwt>
<totfact> 0.28563060E+02</totfact>
</mgrwt>
</event>
<event>
 4    1  0.3584860E-005  0.4960658E+03  0.7818608E-02  0.1014811E+00
          2   -1    0    0  501    0  0.00000000000E+00  0.00000000000E+00  0.30292923384E+04  0.30292923384E+04  0.25500000000E-02 0.  1.
         -2   -1    0    0    0  501 -0.00000000000E+00 -0.00000000000E+00 -0.20308481479E+02  0.20308481639E+02  0.25500000000E-02 0. -1.
    5000001    1    1    2    0    0 -0.83882190299E+02 -0.86963209815E+02  0.64171549202E+03  0.67351510333E+03  0.16500000000E+03 0.  0.
   -5000001    1    1    2    0    0  0.83882190299E+02  0.86963209815E+02  0.23672683649E+04  0.23760857167E+04  0.16500000000E+03 0.  0.
<mgrwt>
<rscale>  0 0.49606583E+03</rscale>
<asrwt>0</asrwt>
<pdfrwt beam="1">  1        2 0.43275571E+00 0.49606583E+03</pdfrwt>
<pdfrwt beam="2">  1       -2 0.29012139E-02 0.49606583E+03</pdfrwt>
<totfact> 0.11598802E+03</totfact>
</mgrwt>
</event>
<event>
 4    1  0.3584860E-005  0.4283344E+03  0.7818608E-02  0.1034387E+00
         -2   -1    0    0    0  501 -0.00000000000E+00  0.00000000000E+00  0.18727450743E+03  0.18727450744E+03  0.25500000000E-02 0. -1.
          2   -1    0    0  501    0  0.00000000000E+00 -0.00000000000E+00 -0.24492166923E+03  0.24492166925E+03  0.25500000000E-02 0.  1.
    5000001    1    1    2    0    0  0.74498134410E+02  0.70916503603E+02 -0.11942995938E+03  0.22818334232E+03  0.16500000000E+03 0.  0.
   -5000001    1    1    2    0    0 -0.74498134410E+02 -0.70916503603E+02  0.61782797569E+02  0.20401283437E+03  0.16500000000E+03 0.  0.
<mgrwt>
<rscale>  0 0.42833438E+03</rscale>
<asrwt>0</asrwt>
<pdfrwt beam="1">  1        2 0.34988810E-01 0.42833438E+03</pdfrwt>
<pdfrwt beam="2">  1       -2 0.26753501E-01 0.42833438E+03</pdfrwt>
<totfact> 0.18782895E+03</totfact>
</mgrwt>
</event>
<event>
 4    1  0.3584860E-005  0.4072713E+03  0.7818608E-02  0.1041291E+00
          2   -1    0    0  501    0  0.00000000000E+00  0.00000000000E+00  0.19055455204E+04  0.19055455204E+04  0.25500000000E-02 0.  1.
         -2   -1    0    0    0  501 -0.00000000000E+00 -0.00000000000E+00 -0.21761472170E+02  0.21761472320E+02  0.25500000000E-02 0. -1.
    5000001    1    1    2    0    0  0.84601858366E+02 -0.60961900451E+01  0.13391705188E+04  0.13519605454E+04  0.16500000000E+03 0.  0.
   -5000001    1    1    2    0    0 -0.84601858366E+02  0.60961900451E+01  0.54461352938E+03  0.57534644724E+03  0.16500000000E+03 0.  0.
<mgrwt>
<rscale>  0 0.40727129E+03</rscale>
<asrwt>0</asrwt>
<pdfrwt beam="1">  1        2 0.27222077E+00 0.40727129E+03</pdfrwt>
<pdfrwt beam="2">  1       -2 0.31087820E-02 0.40727129E+03</pdfrwt>
<totfact> 0.39403678E+03</totfact>
</mgrwt>
</event>
<event>
 4    1  0.3584860E-005  0.6004049E+03  0.7818608E-02  0.9904566E-01
          2   -1    0    0  501    0  0.00000000000E+00  0.00000000000E+00  0.13264611759E+04  0.13264611759E+04  0.25500000000E-02 0.  1.
         -2   -1    0    0    0  501 -0.00000000000E+00 -0.00000000000E+00 -0.67941305431E+02  0.67941305479E+02  0.25500000000E-02 0. -1.
    5000001    1    1    2    0    0 -0.13540708829E+03 -0.19367100284E+03  0.43421716224E+03  0.52116511864E+03  0.16500000000E+03 0.  0.
   -5000001    1    1    2    0    0  0.13540708829E+03  0.19367100284E+03  0.82430270822E+03  0.87323736274E+03  0.16500000000E+03 0.  0.
<mgrwt>
<rscale>  0 0.60040488E+03</rscale>
<asrwt>0</asrwt>
<pdfrwt beam="1">  1        2 0.18949444E+00 0.60040488E+03</pdfrwt>
<pdfrwt beam="2">  1       -2 0.97059015E-02 0.60040488E+03</pdfrwt>
<totfact> 0.13216429E+03</totfact>
</mgrwt>
</event>
<event>
 4    1  0.3584860E-005  0.3704316E+03  0.7818608E-02  0.1054528E+00
         -2   -1    0    0    0  501 -0.00000000000E+00  0.00000000000E+00  0.65564235668E+03  0.65564235668E+03  0.25500000000E-02 0. -1.
          2   -1    0    0  501    0  0.00000000000E+00 -0.00000000000E+00 -0.52322580518E+02  0.52322580580E+02  0.25500000000E-02 0.  1.
    5000001    1    1    2    0    0  0.64893855129E+01  0.82825715668E+02  0.32713602686E+03  0.37569294825E+03  0.16500000000E+03 0.  0.
   -5000001    1    1    2    0    0 -0.64893855129E+01 -0.82825715668E+02  0.27618374930E+03  0.33227198901E+03  0.16500000000E+03 0.  0.
<mgrwt>
<rscale>  0 0.37043164E+03</rscale>
<asrwt>0</asrwt>
<pdfrwt beam="1">  1        2 0.74746547E-02 0.37043164E+03</pdfrwt>
<pdfrwt beam="2">  1       -2 0.93663189E-01 0.37043164E+03</pdfrwt>
<totfact> 0.93252600E+02</totfact>
</mgrwt>
</event>
<event>
 4    1  0.3584860E-005  0.5351534E+03  0.7818608E-02  0.1004990E+00
          2   -1    0    0  501    0  0.00000000000E+00  0.00000000000E+00  0.33143931671E+04  0.33143931671E+04  0.25500000000E-02 0.  1.
         -2   -1    0    0    0  501 -0.00000000000E+00 -0.00000000000E+00 -0.21601931997E+02  0.21601932148E+02  0.25500000000E-02 0. -1.
    5000001    1    1    2    0    0 -0.13014930489E+03  0.12401960661E+03  0.96203135997E+03  0.99249636873E+03  0.16500000000E+03 0.  0.
   -5000001    1    1    2    0    0  0.13014930489E+03 -0.12401960661E+03  0.23307598751E+04  0.23434987305E+04  0.16500000000E+03 0.  0.
<mgrwt>
<rscale>  0 0.53515342E+03</rscale>
<asrwt>0</asrwt>
<pdfrwt beam="1">  1        2 0.47348473E+00 0.53515342E+03</pdfrwt>
<pdfrwt beam="2">  1       -2 0.30859903E-02 0.53515342E+03</pdfrwt>
<totfact> 0.73015161E+02</totfact>
</mgrwt>
</event>
<event>
 4    1  0.3584860E-005  0.3997442E+03  0.7818608E-02  0.1043868E+00
         -2   -1    0    0    0  501 -0.00000000000E+00  0.00000000000E+00  0.40016878652E+02  0.40016878733E+02  0.25500000000E-02 0. -1.
          2   -1    0    0  501    0  0.00000000000E+00 -0.00000000000E+00 -0.99830017920E+03  0.99830017920E+03  0.25500000000E-02 0.  1.
    5000001    1    1    2    0    0  0.98711808705E+02  0.54029891441E+02 -0.45892037300E+03  0.50049591317E+03  0.16500000000E+03 0.  0.
   -5000001    1    1    2    0    0 -0.98711808705E+02 -0.54029891441E+02 -0.49936292755E+03  0.53782114477E+03  0.16500000000E+03 0.  0.
<mgrwt>
<rscale>  0 0.39974420E+03</rscale>
<asrwt>0</asrwt>
<pdfrwt beam="1">  1        2 0.14261430E+00 0.39974420E+03</pdfrwt>
<pdfrwt beam="2">  1       -2 0.57166976E-02 0.39974420E+03</pdfrwt>
<totfact> 0.46820271E+03</totfact>
</mgrwt>
</event>
<event>
 4    1  0.3584860E-005  0.3394882E+03  0.7818608E-02  0.1067014E+00
          2   -1    0    0  501    0  0.00000000000E+00  0.00000000000E+00  0.15945532312E+04  0.15945532312E+04  0.25500000000E-02 0.  1.
         -2   -1    0    0    0  501 -0.00000000000E+00 -0.00000000000E+00 -0.18069676798E+02  0.18069676978E+02  0.25500000000E-02 0. -1.
    5000001    1    1    2    0    0 -0.42555430944E+01 -0.80581276027E+01  0.60396141418E+03  0.62616086821E+03  0.16500000000E+03 0.  0.
   -5000001    1    1    2    0    0  0.42555430944E+01  0.80581276027E+01  0.97252214023E+03  0.98646203997E+03  0.16500000000E+03 0.  0.
<mgrwt>
<rscale>  0 0.33948821E+03</rscale>
<asrwt>0</asrwt>
<pdfrwt beam="1">  1        2 0.22779330E+00 0.33948821E+03</pdfrwt>
<pdfrwt beam="2">  1       -2 0.25813826E-02 0.33948821E+03</pdfrwt>
<totfact> 0.74336519E+03</totfact>
</mgrwt>
</event>
<event>
 4    1  0.3584860E-005  0.6745749E+03  0.7818608E-02  0.9761728E-01
          2   -1    0    0  501    0  0.00000000000E+00  0.00000000000E+00  0.14989974688E+04  0.14989974688E+04  0.25500000000E-02 0.  1.
         -2   -1    0    0    0  501 -0.00000000000E+00 -0.00000000000E+00 -0.75892608462E+02  0.75892608505E+02  0.25500000000E-02 0. -1.
    5000001    1    1    2    0    0  0.18024259758E+03 -0.22877266803E+03  0.61491126306E+03  0.70011798224E+03  0.16500000000E+03 0.  0.
   -5000001    1    1    2    0    0 -0.18024259758E+03  0.22877266803E+03  0.80819359727E+03  0.87477209506E+03  0.16500000000E+03 0.  0.
<mgrwt>
<rscale>  0 0.67457491E+03</rscale>
<asrwt>0</asrwt>
<pdfrwt beam="1">  1        2 0.21414248E+00 0.67457491E+03</pdfrwt>
<pdfrwt beam="2">  1       -2 0.10841802E-01 0.67457491E+03</pdfrwt>
<totfact> 0.89146428E+02</totfact>
</mgrwt>
</event>
<event>
 4    1  0.3584860E-005  0.4643043E+03  0.7818608E-02  0.1023540E+00
         -2   -1    0    0    0  501 -0.00000000000E+00  0.00000000000E+00  0.44188026895E+02  0.44188026969E+02  0.25500000000E-02 0. -1.
          2   -1    0    0  501    0  0.00000000000E+00 -0.00000000000E+00 -0.12196658566E+04  0.12196658566E+04  0.25500000000E-02 0.  1.
    5000001    1    1    2    0    0  0.15524034465E+03  0.49831777961E+02 -0.61310752047E+03  0.65552162615E+03  0.16500000000E+03 0.  0.
   -5000001    1    1    2    0    0 -0.15524034465E+03 -0.49831777961E+02 -0.56237030919E+03  0.60833225737E+03  0.16500000000E+03 0.  0.
<mgrwt>
<rscale>  0 0.46430433E+03</rscale>
<asrwt>0</asrwt>
<pdfrwt beam="1">  1        2 0.17423796E+00 0.46430433E+03</pdfrwt>
<pdfrwt beam="2">  1       -2 0.63125760E-02 0.46430433E+03</pdfrwt>
<totfact> 0.29992340E+03</totfact>
</mgrwt>
</event>
<event>
 4    1  0.3584860E-005  0.7648828E+03  0.7818608E-02  0.9612287E-01
          2   -1    0    0  501    0  0.00000000000E+00  0.00000000000E+00  0.44846992007E+03  0.44846992008E+03  0.25500000000E-02 0.  1.
         -2   -1    0    0    0  501 -0.00000000000E+00 -0.00000000000E+00 -0.32613429263E+03  0.32613429264E+03  0.25500000000E-02 0. -1.
    5000001    1    1    2    0    0 -0.16016890001E+03  0.30453670520E+03  0.86782339193E+02  0.39134748721E+03  0.16500000000E+03 0.  0.
   -5000001    1    1    2    0    0  0.16016890001E+03 -0.30453670520E+03  0.35553288253E+02  0.38325672551E+03  0.16500000000E+03 0.  0.
<mgrwt>
<rscale>  0 0.76488279E+03</rscale>
<asrwt>0</asrwt>
<pdfrwt beam="1">  1        2 0.64067132E-01 0.76488279E+03</pdfrwt>
<pdfrwt beam="2">  1       -2 0.46590613E-01 0.76488279E+03</pdfrwt>
<totfact> 0.33422914E+02</totfact>
</mgrwt>
</event>
<event>
 4    1  0.3584860E-005  0.3793655E+03  0.7818608E-02  0.1051169E+00
         -2   -1    0    0    0  501 -0.00000000000E+00  0.00000000000E+00  0.39011427566E+02  0.39011427649E+02  0.25500000000E-02 0. -1.
          2   -1    0    0  501    0  0.00000000000E+00 -0.00000000000E+00 -0.92228214715E+03  0.92228214716E+03  0.25500000000E-02 0.  1.
    5000001    1    1    2    0    0  0.68371411918E+02  0.50904014448E+01 -0.60297425516E+03  0.62889070159E+03  0.16500000000E+03 0.  0.
   -5000001    1    1    2    0    0 -0.68371411918E+02 -0.50904014448E+01 -0.28029646442E+03  0.33240287322E+03  0.16500000000E+03 0.  0.
<mgrwt>
<rscale>  0 0.37936549E+03</rscale>
<asrwt>0</asrwt>
<pdfrwt beam="1">  1        2 0.13175458E+00 0.37936549E+03</pdfrwt>
<pdfrwt beam="2">  1       -2 0.55730616E-02 0.37936549E+03</pdfrwt>
<totfact> 0.54161879E+03</totfact>
</mgrwt>
</event>
<event>
 4    1  0.3584860E-005  0.4137476E+03  0.7818608E-02  0.1039121E+00
          2   -1    0    0  501    0  0.00000000000E+00  0.00000000000E+00  0.58188554544E+03  0.58188554544E+03  0.25500000000E-02 0.  1.
         -2   -1    0    0    0  501 -0.00000000000E+00 -0.00000000000E+00 -0.73548444833E+02  0.73548444877E+02  0.25500000000E-02 0. -1.
    5000001    1    1    2    0    0 -0.22863301246E+02  0.87712115540E+02  0.11830486034E+03  0.22234474524E+03  0.16500000000E+03 0.  0.
   -5000001    1    1    2    0    0  0.22863301246E+02 -0.87712115540E+02  0.39003224026E+03  0.43308924508E+03  0.16500000000E+03 0.  0.
<mgrwt>
<rscale>  0 0.41374764E+03</rscale>
<asrwt>0</asrwt>
<pdfrwt beam="1">  1        2 0.83126507E-01 0.41374764E+03</pdfrwt>
<pdfrwt beam="2">  1       -2 0.10506921E-01 0.41374764E+03</pdfrwt>
<totfact> 0.35180893E+03</totfact>
</mgrwt>
</event>
<event>
 4    1  0.3584860E-005  0.5989605E+03  0.7818608E-02  0.9907565E-01
         -2   -1    0    0    0  501 -0.00000000000E+00  0.00000000000E+00  0.46280247750E+02  0.46280247820E+02  0.25500000000E-02 0. -1.
          2   -1    0    0  501    0  0.00000000000E+00 -0.00000000000E+00 -0.19379415392E+04  0.19379415392E+04  0.25500000000E-02 0.  1.
    5000001    1    1    2    0    0  0.86583154728E+02  0.99702803079E+02 -0.16487804613E+04  0.16622693227E+04  0.16500000000E+03 0.  0.
   -5000001    1    1    2    0    0 -0.86583154728E+02 -0.99702803079E+02 -0.24288083012E+03  0.32195246430E+03  0.16500000000E+03 0.  0.
<mgrwt>
<rscale>  0 0.59896048E+03</rscale>
<asrwt>0</asrwt>
<pdfrwt beam="1">  1        2 0.27684874E+00 0.59896048E+03</pdfrwt>
<pdfrwt beam="2">  1       -2 0.66114652E-02 0.59896048E+03</pdfrwt>
<totfact> 0.11805366E+03</totfact>
</mgrwt>
</event>
<event>
 4    1  0.3584860E-005  0.7064788E+03  0.7818608E-02  0.9706216E-01
          2   -1    0    0  501    0  0.00000000000E+00  0.00000000000E+00  0.24091896771E+03  0.24091896772E+03  0.25500000000E-02 0.  1.
         -2   -1    0    0    0  501 -0.00000000000E+00 -0.00000000000E+00 -0.51792548703E+03  0.51792548704E+03  0.25500000000E-02 0. -1.
    5000001    1    1    2    0    0  0.29713596926E+03  0.87208278000E+02 -0.94766496170E+02  0.36345667799E+03  0.16500000000E+03 0.  0.
   -5000001    1    1    2    0    0 -0.29713596926E+03 -0.87208278000E+02 -0.18224002315E+03  0.39538777677E+03  0.16500000000E+03 0.  0.
<mgrwt>
<rscale>  0 0.70647880E+03</rscale>
<asrwt>0</asrwt>
<pdfrwt beam="1">  1        2 0.34416996E-01 0.70647880E+03</pdfrwt>
<pdfrwt beam="2">  1       -2 0.73989355E-01 0.70647880E+03</pdfrwt>
<totfact> 0.25314381E+02</totfact>
</mgrwt>
</event>
<event>
 4    1  0.3584860E-005  0.3499696E+03  0.7818608E-02  0.1062628E+00
          2   -1    0    0  501    0  0.00000000000E+00  0.00000000000E+00  0.12069737534E+04  0.12069737534E+04  0.25500000000E-02 0.  1.
         -2   -1    0    0    0  501 -0.00000000000E+00 -0.00000000000E+00 -0.25368964306E+02  0.25368964434E+02  0.25500000000E-02 0. -1.
    5000001    1    1    2    0    0  0.44160035976E+02 -0.35823362847E+00  0.45697330196E+03  0.48785226843E+03  0.16500000000E+03 0.  0.
   -5000001    1    1    2    0    0 -0.44160035976E+02  0.35823362847E+00  0.72463148712E+03  0.74449044940E+03  0.16500000000E+03 0.  0.
<mgrwt>
<rscale>  0 0.34996957E+03</rscale>
<asrwt>0</asrwt>
<pdfrwt beam="1">  1        2 0.17242488E+00 0.34996957E+03</pdfrwt>
<pdfrwt beam="2">  1       -2 0.36241365E-02 0.34996957E+03</pdfrwt>
<totfact> 0.71198856E+03</totfact>
</mgrwt>
</event>
<event>
 4    1  0.3584860E-005  0.4549643E+03  0.7818608E-02  0.1026252E+00
         -2   -1    0    0    0  501 -0.00000000000E+00  0.00000000000E+00  0.51042684371E+03  0.51042684372E+03  0.25500000000E-02 0. -1.
          2   -1    0    0  501    0  0.00000000000E+00 -0.00000000000E+00 -0.10138205777E+03  0.10138205781E+03  0.25500000000E-02 0.  1.
    5000001    1    1    2    0    0 -0.12957982663E+03  0.21282851242E+02  0.89791258345E+02  0.22919721050E+03  0.16500000000E+03 0.  0.
   -5000001    1    1    2    0    0  0.12957982663E+03 -0.21282851242E+02  0.31925352760E+03  0.38261169103E+03  0.16500000000E+03 0.  0.
<mgrwt>
<rscale>  0 0.45496428E+03</rscale>
<asrwt>0</asrwt>
<pdfrwt beam="1">  1        2 0.14483151E-01 0.45496428E+03</pdfrwt>
<pdfrwt beam="2">  1       -2 0.72918120E-01 0.45496428E+03</pdfrwt>
<totfact> 0.71500668E+02</totfact>
</mgrwt>
</event>
<event>
 4    1  0.3584860E-005  0.7637432E+03  0.7818608E-02  0.9614033E-01
          2   -1    0    0  501    0  0.00000000000E+00  0.00000000000E+00  0.11968957780E+04  0.11968957780E+04  0.25500000000E-02 0.  1.
         -2   -1    0    0    0  501 -0.00000000000E+00 -0.00000000000E+00 -0.12183676994E+03  0.12183676997E+03  0.25500000000E-02 0. -1.
    5000001    1    1    2    0    0 -0.25583739866E+03  0.22145126704E+03  0.64819110834E+03  0.74957998316E+03  0.16500000000E+03 0.  0.
   -5000001    1    1    2    0    0  0.25583739866E+03 -0.22145126704E+03  0.42686789976E+03  0.56915256485E+03  0.16500000000E+03 0.  0.
<mgrwt>
<rscale>  0 0.76374319E+03</rscale>
<asrwt>0</asrwt>
<pdfrwt beam="1">  1        2 0.17098511E+00 0.76374319E+03</pdfrwt>
<pdfrwt beam="2">  1       -2 0.17405252E-01 0.76374319E+03</pdfrwt>
<totfact> 0.58591884E+02</totfact>
</mgrwt>
</event>
<event>
 4    1  0.3584860E-005  0.5529423E+03  0.7818608E-02  0.1000815E+00
          2   -1    0    0  501    0  0.00000000000E+00  0.00000000000E+00  0.50089277372E+03  0.50089277372E+03  0.25500000000E-02 0.  1.
         -2   -1    0    0    0  501 -0.00000000000E+00 -0.00000000000E+00 -0.15260012818E+03  0.15260012820E+03  0.25500000000E-02 0. -1.
    5000001    1    1    2    0    0  0.47095174687E+02  0.20509528241E+03  0.91170340867E+02  0.28252267413E+03  0.16500000000E+03 0.  0.
   -5000001    1    1    2    0    0 -0.47095174687E+02 -0.20509528241E+03  0.25712230467E+03  0.37097022779E+03  0.16500000000E+03 0.  0.
<mgrwt>
<rscale>  0 0.55294232E+03</rscale>
<asrwt>0</asrwt>
<pdfrwt beam="1">  1        2 0.71556111E-01 0.55294232E+03</pdfrwt>
<pdfrwt beam="2">  1       -2 0.21800018E-01 0.55294232E+03</pdfrwt>
<totfact> 0.12280292E+03</totfact>
</mgrwt>
</event>
<event>
 4    1  0.3584860E-005  0.3562219E+03  0.7818608E-02  0.1060090E+00
          2   -1    0    0  501    0  0.00000000000E+00  0.00000000000E+00  0.57556590284E+03  0.57556590284E+03  0.25500000000E-02 0.  1.
         -2   -1    0    0    0  501 -0.00000000000E+00 -0.00000000000E+00 -0.55117070192E+02  0.55117070251E+02  0.25500000000E-02 0. -1.
    5000001    1    1    2    0    0 -0.61637823834E+02 -0.27894561341E+01  0.30678172150E+03  0.35376125712E+03  0.16500000000E+03 0.  0.
   -5000001    1    1    2    0    0  0.61637823834E+02  0.27894561341E+01  0.21366711115E+03  0.27692171598E+03  0.16500000000E+03 0.  0.
<mgrwt>
<rscale>  0 0.35622188E+03</rscale>
<asrwt>0</asrwt>
<pdfrwt beam="1">  1        2 0.82223700E-01 0.35622188E+03</pdfrwt>
<pdfrwt beam="2">  1       -2 0.78738672E-02 0.35622188E+03</pdfrwt>
<totfact> 0.56214526E+03</totfact>
</mgrwt>
</event>
<event>
 4    1  0.3584860E-005  0.8093072E+03  0.7818608E-02  0.9546642E-01
          2   -1    0    0  501    0  0.00000000000E+00  0.00000000000E+00  0.75367308298E+03  0.75367308298E+03  0.25500000000E-02 0.  1.
         -2   -1    0    0    0  501 -0.00000000000E+00 -0.00000000000E+00 -0.21726203889E+03  0.21726203890E+03  0.25500000000E-02 0. -1.
    5000001    1    1    2    0    0 -0.14468608397E+03 -0.30273136024E+03  0.82582556527E+02  0.38291672464E+03  0.16500000000E+03 0.  0.
   -5000001    1    1    2    0    0  0.14468608397E+03  0.30273136024E+03  0.45382848756E+03  0.58801839724E+03  0.16500000000E+03 0.  0.
<mgrwt>
<rscale>  0 0.80930724E+03</rscale>
<asrwt>0</asrwt>
<pdfrwt beam="1">  1        2 0.10766758E+00 0.80930724E+03</pdfrwt>
<pdfrwt beam="2">  1       -2 0.31037434E-01 0.80930724E+03</pdfrwt>
<totfact> 0.39578431E+02</totfact>
</mgrwt>
</event>
<event>
 4    1  0.3584860E-005  0.3963949E+03  0.7818608E-02  0.1045035E+00
         -2   -1    0    0    0  501 -0.00000000000E+00  0.00000000000E+00  0.19541808790E+02  0.19541808956E+02  0.25500000000E-02 0. -1.
          2   -1    0    0  501    0  0.00000000000E+00 -0.00000000000E+00 -0.20101631136E+04  0.20101631136E+04  0.25500000000E-02 0.  1.
    5000001    1    1    2    0    0 -0.21189555057E+02 -0.10225227761E+03 -0.82146548562E+03  0.84435482446E+03  0.16500000000E+03 0.  0.
   -5000001    1    1    2    0    0  0.21189555057E+02  0.10225227761E+03 -0.11691558192E+04  0.11853500981E+04  0.16500000000E+03 0.  0.
<mgrwt>
<rscale>  0 0.39639487E+03</rscale>
<asrwt>0</asrwt>
<pdfrwt beam="1">  1        2 0.28716603E+00 0.39639487E+03</pdfrwt>
<pdfrwt beam="2">  1       -2 0.27916883E-02 0.39639487E+03</pdfrwt>
<totfact> 0.41124891E+03</totfact>
</mgrwt>
</event>
<event>
 4    1  0.3584860E-005  0.4458060E+03  0.7818608E-02  0.1028980E+00
          2   -1    0    0  501    0  0.00000000000E+00  0.00000000000E+00  0.37614425761E+03  0.37614425762E+03  0.25500000000E-02 0.  1.
         -2   -1    0    0    0  501 -0.00000000000E+00 -0.00000000000E+00 -0.13209225709E+03  0.13209225711E+03  0.25500000000E-02 0. -1.
    5000001    1    1    2    0    0 -0.66902804359E+02 -0.11004659728E+03  0.34647292944E+02  0.21215954778E+03  0.16500000000E+03 0.  0.
   -5000001    1    1    2    0    0  0.66902804359E+02  0.11004659728E+03  0.20940470758E+03  0.29607696696E+03  0.16500000000E+03 0.  0.
<mgrwt>
<rscale>  0 0.44580598E+03</rscale>
<asrwt>0</asrwt>
<pdfrwt beam="1">  1        2 0.53734895E-01 0.44580598E+03</pdfrwt>
<pdfrwt beam="2">  1       -2 0.18870322E-01 0.44580598E+03</pdfrwt>
<totfact> 0.21689460E+03</totfact>
</mgrwt>
</event>
<event>
 4    1  0.3584860E-005  0.3952425E+03  0.7818608E-02  0.1045440E+00
         -2   -1    0    0    0  501 -0.00000000000E+00  0.00000000000E+00  0.50689814673E+02  0.50689814737E+02  0.25500000000E-02 0. -1.
          2   -1    0    0  501    0  0.00000000000E+00 -0.00000000000E+00 -0.77045395329E+03  0.77045395329E+03  0.25500000000E-02 0.  1.
    5000001    1    1    2    0    0  0.11732677743E+02  0.93426143487E+02 -0.24679151631E+03  0.31144365869E+03  0.16500000000E+03 0.  0.
   -5000001    1    1    2    0    0 -0.11732677743E+02 -0.93426143487E+02 -0.47297262230E+03  0.50970010934E+03  0.16500000000E+03 0.  0.
<mgrwt>
<rscale>  0 0.39524255E+03</rscale>
<asrwt>0</asrwt>
<pdfrwt beam="1">  1        2 0.11006484E+00 0.39524255E+03</pdfrwt>
<pdfrwt beam="2">  1       -2 0.72414026E-02 0.39524255E+03</pdfrwt>
<totfact> 0.45435928E+03</totfact>
</mgrwt>
</event>
<event>
 4    1  0.3584860E-005  0.5031232E+03  0.7818608E-02  0.1012967E+00
          2   -1    0    0  501    0  0.00000000000E+00  0.00000000000E+00  0.28382802443E+04  0.28382802443E+04  0.25500000000E-02 0.  1.
         -2   -1    0    0    0  501 -0.00000000000E+00 -0.00000000000E+00 -0.22296331849E+02  0.22296331995E+02  0.25500000000E-02 0. -1.
    5000001    1    1    2    0    0 -0.15519664594E+03  0.10572641419E+03  0.12477653752E+04  0.12725594309E+04  0.16500000000E+03 0.  0.
   -5000001    1    1    2    0    0  0.15519664594E+03 -0.10572641419E+03  0.15682185373E+04  0.15880171454E+04  0.16500000000E+03 0.  0.
<mgrwt>
<rscale>  0 0.50312320E+03</rscale>
<asrwt>0</asrwt>
<pdfrwt beam="1">  1        2 0.40546798E+00 0.50312320E+03</pdfrwt>
<pdfrwt beam="2">  1       -2 0.31851952E-02 0.50312320E+03</pdfrwt>
<totfact> 0.12737965E+03</totfact>
</mgrwt>
</event>
<event>
 4    1  0.3584860E-005  0.8092011E+03  0.7818608E-02  0.9546794E-01
          2   -1    0    0  501    0  0.00000000000E+00  0.00000000000E+00  0.87061913891E+03  0.87061913891E+03  0.25500000000E-02 0.  1.
         -2   -1    0    0    0  501 -0.00000000000E+00 -0.00000000000E+00 -0.18802897314E+03  0.18802897316E+03  0.25500000000E-02 0. -1.
    5000001    1    1    2    0    0  0.50247633108E+02 -0.32389419797E+03  0.56425456389E+03  0.67308282476E+03  0.16500000000E+03 0.  0.
   -5000001    1    1    2    0    0 -0.50247633108E+02  0.32389419797E+03  0.11833560187E+03  0.38556528731E+03  0.16500000000E+03 0.  0.
<mgrwt>
<rscale>  0 0.80920114E+03</rscale>
<asrwt>0</asrwt>
<pdfrwt beam="1">  1        2 0.12437416E+00 0.80920114E+03</pdfrwt>
<pdfrwt beam="2">  1       -2 0.26861282E-01 0.80920114E+03</pdfrwt>
<totfact> 0.42861363E+02</totfact>
</mgrwt>
</event>
<event>
 4    1  0.3584860E-005  0.5365912E+03  0.7818608E-02  0.1004646E+00
         -2   -1    0    0    0  501 -0.00000000000E+00  0.00000000000E+00  0.62764030701E+02  0.62764030753E+02  0.25500000000E-02 0. -1.
          2   -1    0    0  501    0  0.00000000000E+00 -0.00000000000E+00 -0.11468754304E+04  0.11468754304E+04  0.25500000000E-02 0.  1.
    5000001    1    1    2    0    0  0.15720250844E+03  0.10980500353E+03 -0.74353240636E+03  0.78538857056E+03  0.16500000000E+03 0.  0.
   -5000001    1    1    2    0    0 -0.15720250844E+03 -0.10980500353E+03 -0.34057899330E+03  0.42425089056E+03  0.16500000000E+03 0.  0.
<mgrwt>
<rscale>  0 0.53659118E+03</rscale>
<asrwt>0</asrwt>
<pdfrwt beam="1">  1        2 0.16383933E+00 0.53659118E+03</pdfrwt>
<pdfrwt beam="2">  1       -2 0.89662908E-02 0.53659118E+03</pdfrwt>
<totfact> 0.18903357E+03</totfact>
</mgrwt>
</event>
<event>
 4    1  0.3584860E-005  0.1134152E+04  0.7818608E-02  0.9172530E-01
         -2   -1    0    0    0  501 -0.00000000000E+00  0.00000000000E+00  0.15102978989E+04  0.15102978989E+04  0.25500000000E-02 0. -1.
          2   -1    0    0  501    0  0.00000000000E+00 -0.00000000000E+00 -0.21292179222E+03  0.21292179223E+03  0.25500000000E-02 0.  1.
    5000001    1    1    2    0    0 -0.41202718999E+03  0.35019472970E+03  0.58163522524E+03  0.81112717205E+03  0.16500000000E+03 0.  0.
   -5000001    1    1    2    0    0  0.41202718999E+03 -0.35019472970E+03  0.71574088143E+03  0.91209251907E+03  0.16500000000E+03 0.  0.
<mgrwt>
<rscale>  0 0.11341523E+04</rscale>
<asrwt>0</asrwt>
<pdfrwt beam="1">  1        2 0.30417398E-01 0.11341523E+04</pdfrwt>
<pdfrwt beam="2">  1       -2 0.21575685E+00 0.11341523E+04</pdfrwt>
<totfact> 0.18300224E+01</totfact>
</mgrwt>
</event>
<event>
 4    1  0.3584860E-005  0.5694444E+03  0.7818608E-02  0.9970909E-01
         -2   -1    0    0    0  501 -0.00000000000E+00  0.00000000000E+00  0.47444135510E+02  0.47444135578E+02  0.25500000000E-02 0. -1.
          2   -1    0    0  501    0  0.00000000000E+00 -0.00000000000E+00 -0.17086776004E+04  0.17086776004E+04  0.25500000000E-02 0.  1.
    5000001    1    1    2    0    0  0.12774773984E+03  0.19297618458E+03 -0.77878860813E+03  0.82903316520E+03  0.16500000000E+03 0.  0.
   -5000001    1    1    2    0    0 -0.12774773984E+03 -0.19297618458E+03 -0.88244485680E+03  0.92708857082E+03  0.16500000000E+03 0.  0.
<mgrwt>
<rscale>  0 0.56944440E+03</rscale>
<asrwt>0</asrwt>
<pdfrwt beam="1">  1        2 0.24409676E+00 0.56944440E+03</pdfrwt>
<pdfrwt beam="2">  1       -2 0.67777347E-02 0.56944440E+03</pdfrwt>
<totfact> 0.14835198E+03</totfact>
</mgrwt>
</event>
<event>
 4    1  0.3584860E-005  0.4921653E+03  0.7818608E-02  0.1015844E+00
         -2   -1    0    0    0  501 -0.00000000000E+00  0.00000000000E+00  0.38473284635E+03  0.38473284636E+03  0.25500000000E-02 0. -1.
          2   -1    0    0  501    0  0.00000000000E+00 -0.00000000000E+00 -0.15739928469E+03  0.15739928471E+03  0.25500000000E-02 0.  1.
    5000001    1    1    2    0    0  0.18204961213E+03  0.27059471695E+01  0.12853904963E+03  0.27730248954E+03  0.16500000000E+03 0.  0.
   -5000001    1    1    2    0    0 -0.18204961213E+03 -0.27059471695E+01  0.98794512022E+02  0.26482964153E+03  0.16500000000E+03 0.  0.
<mgrwt>
<rscale>  0 0.49216532E+03</rscale>
<asrwt>0</asrwt>
<pdfrwt beam="1">  1        2 0.22485612E-01 0.49216532E+03</pdfrwt>
<pdfrwt beam="2">  1       -2 0.54961836E-01 0.49216532E+03</pdfrwt>
<totfact> 0.77496941E+02</totfact>
</mgrwt>
</event>
<event>
 4    1  0.3584860E-005  0.5799435E+03  0.7818608E-02  0.9947913E-01
          2   -1    0    0  501    0  0.00000000000E+00  0.00000000000E+00  0.43256749785E+03  0.43256749786E+03  0.25500000000E-02 0.  1.
         -2   -1    0    0    0  501 -0.00000000000E+00 -0.00000000000E+00 -0.19438263907E+03  0.19438263909E+03  0.25500000000E-02 0. -1.
    5000001    1    1    2    0    0  0.70159630658E+02  0.19957412545E+03  0.23803982915E+03  0.35866441918E+03  0.16500000000E+03 0.  0.
   -5000001    1    1    2    0    0 -0.70159630658E+02 -0.19957412545E+03  0.14502962874E+00  0.26828571777E+03  0.16500000000E+03 0.  0.
<mgrwt>
<rscale>  0 0.57994349E+03</rscale>
<asrwt>0</asrwt>
<pdfrwt beam="1">  1        2 0.61795356E-01 0.57994349E+03</pdfrwt>
<pdfrwt beam="2">  1       -2 0.27768949E-01 0.57994349E+03</pdfrwt>
<totfact> 0.93908687E+02</totfact>
</mgrwt>
</event>
<event>
 4    1  0.3584860E-005  0.3861830E+03  0.7818608E-02  0.1048672E+00
         -2   -1    0    0    0  501 -0.00000000000E+00  0.00000000000E+00  0.29962286463E+03  0.29962286464E+03  0.25500000000E-02 0. -1.
          2   -1    0    0  501    0  0.00000000000E+00 -0.00000000000E+00 -0.12443752816E+03  0.12443752819E+03  0.25500000000E-02 0.  1.
    5000001    1    1    2    0    0 -0.82854802663E+02 -0.36290299780E+02  0.13517172085E+03  0.23168577492E+03  0.16500000000E+03 0.  0.
   -5000001    1    1    2    0    0  0.82854802663E+02  0.36290299780E+02  0.40013615620E+02  0.19237461791E+03  0.16500000000E+03 0.  0.
<mgrwt>
<rscale>  0 0.38618301E+03</rscale>
<asrwt>0</asrwt>
<pdfrwt beam="1">  1        2 0.17776790E-01 0.38618301E+03</pdfrwt>
<pdfrwt beam="2">  1       -2 0.42803266E-01 0.38618301E+03</pdfrwt>
<totfact> 0.16769216E+03</totfact>
</mgrwt>
</event>
<event>
 4    1  0.3584860E-005  0.5449322E+03  0.7818608E-02  0.1002674E+00
         -2   -1    0    0    0  501 -0.00000000000E+00  0.00000000000E+00  0.11029536353E+03  0.11029536356E+03  0.25500000000E-02 0. -1.
          2   -1    0    0  501    0  0.00000000000E+00 -0.00000000000E+00 -0.67308165589E+03  0.67308165589E+03  0.25500000000E-02 0.  1.
    5000001    1    1    2    0    0 -0.91699110781E+01  0.21617864433E+03 -0.26129327544E+03  0.37724855112E+03  0.16500000000E+03 0.  0.
   -5000001    1    1    2    0    0  0.91699110781E+01 -0.21617864433E+03 -0.30149301692E+03  0.40612846833E+03  0.16500000000E+03 0.  0.
<mgrwt>
<rscale>  0 0.54493224E+03</rscale>
<asrwt>0</asrwt>
<pdfrwt beam="1">  1        2 0.96154521E-01 0.54493224E+03</pdfrwt>
<pdfrwt beam="2">  1       -2 0.15756481E-01 0.54493224E+03</pdfrwt>
<totfact> 0.15216127E+03</totfact>
</mgrwt>
</event>
<event>
 4    1  0.3584860E-005  0.7052659E+03  0.7818608E-02  0.9708269E-01
         -2   -1    0    0    0  501 -0.00000000000E+00  0.00000000000E+00  0.28260142651E+03  0.28260142652E+03  0.25500000000E-02 0. -1.
          2   -1    0    0  501    0  0.00000000000E+00 -0.00000000000E+00 -0.44001897526E+03  0.44001897526E+03  0.25500000000E-02 0.  1.
    5000001    1    1    2    0    0 -0.22810770581E+03  0.15287453208E+03 -0.22971667634E+03  0.39420616357E+03  0.16500000000E+03 0.  0.
   -5000001    1    1    2    0    0  0.22810770581E+03 -0.15287453208E+03  0.72299127596E+02  0.32841423821E+03  0.16500000000E+03 0.  0.
<mgrwt>
<rscale>  0 0.70526588E+03</rscale>
<asrwt>0</asrwt>
<pdfrwt beam="1">  1        2 0.62859853E-01 0.70526588E+03</pdfrwt>
<pdfrwt beam="2">  1       -2 0.40371633E-01 0.70526588E+03</pdfrwt>
<totfact> 0.45410005E+02</totfact>
</mgrwt>
</event>
<event>
 4    1  0.3584860E-005  0.6272602E+03  0.7818608E-02  0.9850410E-01
         -2   -1    0    0    0  501 -0.00000000000E+00  0.00000000000E+00  0.17650521341E+03  0.17650521343E+03  0.25500000000E-02 0. -1.
          2   -1    0    0  501    0  0.00000000000E+00 -0.00000000000E+00 -0.55728573912E+03  0.55728573913E+03  0.25500000000E-02 0.  1.
    5000001    1    1    2    0    0  0.64757827754E+02  0.23517813612E+03 -0.64197069919E+02  0.30141100801E+03  0.16500000000E+03 0.  0.
   -5000001    1    1    2    0    0 -0.64757827754E+02 -0.23517813612E+03 -0.31658345579E+03  0.43237994455E+03  0.16500000000E+03 0.  0.
<mgrwt>
<rscale>  0 0.62726020E+03</rscale>
<asrwt>0</asrwt>
<pdfrwt beam="1">  1        2 0.79612248E-01 0.62726020E+03</pdfrwt>
<pdfrwt beam="2">  1       -2 0.25215031E-01 0.62726020E+03</pdfrwt>
<totfact> 0.83806055E+02</totfact>
</mgrwt>
</event>
<event>
 4    1  0.3584860E-005  0.4711145E+03  0.7818608E-02  0.1021606E+00
         -2   -1    0    0    0  501 -0.00000000000E+00  0.00000000000E+00  0.14027802040E+03  0.14027802043E+03  0.25500000000E-02 0. -1.
          2   -1    0    0  501    0  0.00000000000E+00 -0.00000000000E+00 -0.39555173986E+03  0.39555173987E+03  0.25500000000E-02 0.  1.
    5000001    1    1    2    0    0 -0.15214531320E+03 -0.47738431147E+02 -0.67077459109E+02  0.23906388196E+03  0.16500000000E+03 0.  0.
   -5000001    1    1    2    0    0  0.15214531320E+03  0.47738431147E+02 -0.18819626035E+03  0.29676587834E+03  0.16500000000E+03 0.  0.
<mgrwt>
<rscale>  0 0.47111449E+03</rscale>
<asrwt>0</asrwt>
<pdfrwt beam="1">  1        2 0.56507391E-01 0.47111449E+03</pdfrwt>
<pdfrwt beam="2">  1       -2 0.20039717E-01 0.47111449E+03</pdfrwt>
<totfact> 0.18508342E+03</totfact>
</mgrwt>
</event>
<event>
 4    1  0.3584860E-005  0.4583492E+03  0.7818608E-02  0.1025261E+00
          2   -1    0    0  501    0  0.00000000000E+00  0.00000000000E+00  0.32232677886E+04  0.32232677886E+04  0.25500000000E-02 0.  1.
         -2   -1    0    0    0  501 -0.00000000000E+00 -0.00000000000E+00 -0.16294332425E+02  0.16294332625E+02  0.25500000000E-02 0. -1.
    5000001    1    1    2    0    0 -0.81050177584E+02  0.91368366921E+02  0.88343938703E+03  0.90697710021E+03  0.16500000000E+03 0.  0.
   -5000001    1    1    2    0    0  0.81050177584E+02 -0.91368366921E+02  0.23235340691E+04  0.23325850210E+04  0.16500000000E+03 0.  0.
<mgrwt>
<rscale>  0 0.45834920E+03</rscale>
<asrwt>0</asrwt>
<pdfrwt beam="1">  1        2 0.46046684E+00 0.45834920E+03</pdfrwt>
<pdfrwt beam="2">  1       -2 0.23277617E-02 0.45834920E+03</pdfrwt>
<totfact> 0.12680355E+03</totfact>
</mgrwt>
</event>
<event>
 4    1  0.3584860E-005  0.3914819E+03  0.7818608E-02  0.1046770E+00
         -2   -1    0    0    0  501 -0.00000000000E+00  0.00000000000E+00  0.39990315515E+02  0.39990315596E+02  0.25500000000E-02 0. -1.
          2   -1    0    0  501    0  0.00000000000E+00 -0.00000000000E+00 -0.95809484427E+03  0.95809484428E+03  0.25500000000E-02 0.  1.
    5000001    1    1    2    0    0  0.86309279318E+01 -0.10429303202E+03 -0.48900062097E+03  0.52659105267E+03  0.16500000000E+03 0.  0.
   -5000001    1    1    2    0    0 -0.86309279318E+01  0.10429303202E+03 -0.42910390779E+03  0.47149410720E+03  0.16500000000E+03 0.  0.
<mgrwt>
<rscale>  0 0.39148188E+03</rscale>
<asrwt>0</asrwt>
<pdfrwt beam="1">  1        2 0.13687068E+00 0.39148188E+03</pdfrwt>
<pdfrwt beam="2">  1       -2 0.57129028E-02 0.39148188E+03</pdfrwt>
<totfact> 0.49560590E+03</totfact>
</mgrwt>
</event>
<event>
 4    1  0.3584860E-005  0.4898362E+03  0.7818608E-02  0.1016466E+00
         -2   -1    0    0    0  501 -0.00000000000E+00  0.00000000000E+00  0.23991849819E+02  0.23991849954E+02  0.25500000000E-02 0. -1.
          2   -1    0    0  501    0  0.00000000000E+00 -0.00000000000E+00 -0.25002188844E+04  0.25002188844E+04  0.25500000000E-02 0.  1.
    5000001    1    1    2    0    0  0.16451957748E+03  0.73106832850E+02 -0.11419028264E+04  0.11677235826E+04  0.16500000000E+03 0.  0.
   -5000001    1    1    2    0    0 -0.16451957748E+03 -0.73106832850E+02 -0.13343242082E+04  0.13564871518E+04  0.16500000000E+03 0.  0.
<mgrwt>
<rscale>  0 0.48983620E+03</rscale>
<asrwt>0</asrwt>
<pdfrwt beam="1">  1        2 0.35717396E+00 0.48983620E+03</pdfrwt>
<pdfrwt beam="2">  1       -2 0.34274087E-02 0.48983620E+03</pdfrwt>
<totfact> 0.17082198E+03</totfact>
</mgrwt>
</event>
<event>
 4    1  0.3584860E-005  0.3961407E+03  0.7818608E-02  0.1045124E+00
          2   -1    0    0  501    0  0.00000000000E+00  0.00000000000E+00  0.26517829836E+03  0.26517829838E+03  0.25500000000E-02 0.  1.
         -2   -1    0    0    0  501 -0.00000000000E+00 -0.00000000000E+00 -0.14794523608E+03  0.14794523610E+03  0.25500000000E-02 0. -1.
    5000001    1    1    2    0    0 -0.92913225598E+02 -0.47360022729E+02  0.93689044577E+02  0.21651437901E+03  0.16500000000E+03 0.  0.
   -5000001    1    1    2    0    0  0.92913225598E+02  0.47360022729E+02  0.23544017708E+02  0.19660915547E+03  0.16500000000E+03 0.  0.
<mgrwt>
<rscale>  0 0.39614071E+03</rscale>
<asrwt>0</asrwt>
<pdfrwt beam="1">  1        2 0.37882614E-01 0.39614071E+03</pdfrwt>
<pdfrwt beam="2">  1       -2 0.21135034E-01 0.39614071E+03</pdfrwt>
<totfact> 0.26088543E+03</totfact>
</mgrwt>
</event>
<event>
 4    1  0.3584860E-005  0.3649168E+03  0.7818608E-02  0.1056654E+00
          2   -1    0    0  501    0  0.00000000000E+00  0.00000000000E+00  0.18978087578E+04  0.18978087578E+04  0.25500000000E-02 0.  1.
         -2   -1    0    0    0  501 -0.00000000000E+00 -0.00000000000E+00 -0.17541841659E+02  0.17541841845E+02  0.25500000000E-02 0. -1.
    5000001    1    1    2    0    0 -0.73182547836E+02 -0.19987327269E+02  0.84758855588E+03  0.86682555259E+03  0.16500000000E+03 0.  0.
   -5000001    1    1    2    0    0  0.73182547836E+02  0.19987327269E+02  0.10326783602E+04  0.10485250470E+04  0.16500000000E+03 0.  0.
<mgrwt>
<rscale>  0 0.36491676E+03</rscale>
<asrwt>0</asrwt>
<pdfrwt beam="1">  1        2 0.27111568E+00 0.36491676E+03</pdfrwt>
<pdfrwt beam="2">  1       -2 0.25059761E-02 0.36491676E+03</pdfrwt>
<totfact> 0.54939275E+03</totfact>
</mgrwt>
</event>
<event>
 4    1  0.3584860E-005  0.1039072E+04  0.7818608E-02  0.9266700E-01
          2   -1    0    0  501    0  0.00000000000E+00  0.00000000000E+00  0.12814307053E+04  0.12814307053E+04  0.25500000000E-02 0.  1.
         -2   -1    0    0    0  501 -0.00000000000E+00 -0.00000000000E+00 -0.21063756510E+03  0.21063756511E+03  0.25500000000E-02 0. -1.
    5000001    1    1    2    0    0 -0.44678489595E+03 -0.20743445695E+03  0.54520393882E+03  0.75307246138E+03  0.16500000000E+03 0.  0.
   -5000001    1    1    2    0    0  0.44678489595E+03  0.20743445695E+03  0.52558920141E+03  0.73899580906E+03  0.16500000000E+03 0.  0.
<mgrwt>
<rscale>  0 0.10390716E+04</rscale>
<asrwt>0</asrwt>
<pdfrwt beam="1">  1        2 0.18306153E+00 0.10390716E+04</pdfrwt>
<pdfrwt beam="2">  1       -2 0.30091081E-01 0.10390716E+04</pdfrwt>
<totfact> 0.19483023E+02</totfact>
</mgrwt>
</event>
<event>
 4    1  0.3584860E-005  0.5304715E+03  0.7818608E-02  0.1006118E+00
         -2   -1    0    0    0  501 -0.00000000000E+00  0.00000000000E+00  0.48633302082E+02  0.48633302149E+02  0.25500000000E-02 0. -1.
          2   -1    0    0  501    0  0.00000000000E+00 -0.00000000000E+00 -0.14465397339E+04  0.14465397339E+04  0.25500000000E-02 0.  1.
    5000001    1    1    2    0    0 -0.50106557870E+02 -0.10474861288E+03 -0.21368301379E+03  0.29388495950E+03  0.16500000000E+03 0.  0.
   -5000001    1    1    2    0    0  0.50106557870E+02  0.10474861288E+03 -0.11842234180E+04  0.12012880765E+04  0.16500000000E+03 0.  0.
<mgrwt>
<rscale>  0 0.53047150E+03</rscale>
<asrwt>0</asrwt>
<pdfrwt beam="1">  1        2 0.20664851E+00 0.53047150E+03</pdfrwt>
<pdfrwt beam="2">  1       -2 0.69476155E-02 0.53047150E+03</pdfrwt>
<totfact> 0.19486193E+03</totfact>
</mgrwt>
</event>
<event>
 4    1  0.3584860E-005  0.8786300E+03  0.7818608E-02  0.9452696E-01
          2   -1    0    0  501    0  0.00000000000E+00  0.00000000000E+00  0.53456877377E+03  0.53456877378E+03  0.25500000000E-02 0. -1.
         -2   -1    0    0    0  501 -0.00000000000E+00 -0.00000000000E+00 -0.36103431181E+03  0.36103431182E+03  0.25500000000E-02 0.  1.
    5000001    1    1    2    0    0 -0.28677003846E+03 -0.17524093348E+03  0.32104676994E+03  0.49319617620E+03  0.16500000000E+03 0.  0.
   -5000001    1    1    2    0    0  0.28677003846E+03  0.17524093348E+03 -0.14751230798E+03  0.40240690940E+03  0.16500000000E+03 0.  0.
<mgrwt>
<rscale>  0 0.87863000E+03</rscale>
<asrwt>0</asrwt>
<pdfrwt beam="1">  1        2 0.76366968E-01 0.87863000E+03</pdfrwt>
<pdfrwt beam="2">  1       -2 0.51576330E-01 0.87863000E+03</pdfrwt>
<totfact> 0.22153408E+02</totfact>
</mgrwt>
</event>
<event>
 4    1  0.3584860E-005  0.7413767E+03  0.7818608E-02  0.9648977E-01
         -2   -1    0    0    0  501 -0.00000000000E+00  0.00000000000E+00  0.20108592794E+03  0.20108592795E+03  0.25500000000E-02 0. -1.
          2   -1    0    0  501    0  0.00000000000E+00 -0.00000000000E+00 -0.68333893236E+03  0.68333893236E+03  0.25500000000E-02 0.  1.
    5000001    1    1    2    0    0 -0.26498323619E+03 -0.18683663766E+03 -0.15626092787E+03  0.39593752312E+03  0.16500000000E+03 0.  0.
   -5000001    1    1    2    0    0  0.26498323619E+03  0.18683663766E+03 -0.32599207655E+03  0.48848733720E+03  0.16500000000E+03 0.  0.
<mgrwt>
<rscale>  0 0.74137667E+03</rscale>
<asrwt>0</asrwt>
<pdfrwt beam="1">  1        2 0.97619846E-01 0.74137667E+03</pdfrwt>
<pdfrwt beam="2">  1       -2 0.28726562E-01 0.74137667E+03</pdfrwt>
<totfact> 0.51718132E+02</totfact>
</mgrwt>
</event>
<event>
 4    1  0.3584860E-005  0.4969223E+03  0.7818608E-02  0.1014585E+00
         -2   -1    0    0    0  501 -0.00000000000E+00  0.00000000000E+00  0.12484069980E+04  0.12484069980E+04  0.25500000000E-02 0. -1.
          2   -1    0    0  501    0  0.00000000000E+00 -0.00000000000E+00 -0.49449374380E+02  0.49449374446E+02  0.25500000000E-02 0.  1.
    5000001    1    1    2    0    0  0.23175292349E+02  0.16399674955E+03  0.37977909053E+03  0.44596993805E+03  0.16500000000E+03 0.  0.
   -5000001    1    1    2    0    0 -0.23175292349E+02 -0.16399674955E+03  0.81917853311E+03  0.85188643442E+03  0.16500000000E+03 0.  0.
<mgrwt>
<rscale>  0 0.49692231E+03</rscale>
<asrwt>0</asrwt>
<pdfrwt beam="1">  1        2 0.70641957E-02 0.49692231E+03</pdfrwt>
<pdfrwt beam="2">  1       -2 0.17834387E+00 0.49692231E+03</pdfrwt>
<totfact> 0.19856447E+02</totfact>
</mgrwt>
</event>
<event>
 4    1  0.3584860E-005  0.3635889E+03  0.7818608E-02  0.1057172E+00
          2   -1    0    0  501    0  0.00000000000E+00  0.00000000000E+00  0.65460630052E+03  0.65460630052E+03  0.25500000000E-02 0.  1.
         -2   -1    0    0    0  501 -0.00000000000E+00 -0.00000000000E+00 -0.50487168557E+02  0.50487168621E+02  0.25500000000E-02 0. -1.
    5000001    1    1    2    0    0  0.48535258556E+02  0.43311804638E+02  0.22466789671E+03  0.28623809592E+03  0.16500000000E+03 0.  0.
   -5000001    1    1    2    0    0 -0.48535258556E+02 -0.43311804638E+02  0.37945123525E+03  0.41885537323E+03  0.16500000000E+03 0.  0.
<mgrwt>
<rscale>  0 0.36358888E+03</rscale>
<asrwt>0</asrwt>
<pdfrwt beam="1">  1        2 0.93515191E-01 0.36358888E+03</pdfrwt>
<pdfrwt beam="2">  1       -2 0.72124522E-02 0.36358888E+03</pdfrwt>
<totfact> 0.55580226E+03</totfact>
</mgrwt>
</event>
<event>
 4    1  0.3584860E-005  0.4343435E+03  0.7818608E-02  0.1032497E+00
          2   -1    0    0  501    0  0.00000000000E+00  0.00000000000E+00  0.41624020940E+03  0.41624020940E+03  0.25500000000E-02 0.  1.
         -2   -1    0    0    0  501 -0.00000000000E+00 -0.00000000000E+00 -0.11330855577E+03  0.11330855579E+03  0.25500000000E-02 0. -1.
    5000001    1    1    2    0    0  0.92395304125E+02  0.74621223878E+02  0.24458345398E+03  0.31804289842E+03  0.16500000000E+03 0.  0.
   -5000001    1    1    2    0    0 -0.92395304125E+02 -0.74621223878E+02  0.58348199652E+02  0.21150586677E+03  0.16500000000E+03 0.  0.
<mgrwt>
<rscale>  0 0.43434354E+03</rscale>
<asrwt>0</asrwt>
<pdfrwt beam="1">  1        2 0.59462888E-01 0.43434354E+03</pdfrwt>
<pdfrwt beam="2">  1       -2 0.16186936E-01 0.43434354E+03</pdfrwt>
<totfact> 0.25176883E+03</totfact>
</mgrwt>
</event>
<event>
 4    1  0.3584860E-005  0.1614889E+04  0.7818608E-02  0.8811453E-01
          2   -1    0    0  501    0  0.00000000000E+00  0.00000000000E+00  0.13026269889E+04  0.13026269889E+04  0.25500000000E-02 0.  1.
         -2   -1    0    0    0  501 -0.00000000000E+00 -0.00000000000E+00 -0.50050134873E+03  0.50050134874E+03  0.25500000000E-02 0. -1.
    5000001    1    1    2    0    0 -0.30021863643E+03 -0.71526716876E+03  0.57041010044E+03  0.97689868208E+03  0.16500000000E+03 0.  0.
   -5000001    1    1    2    0    0  0.30021863643E+03  0.71526716876E+03  0.23171553972E+03  0.82622965555E+03  0.16500000000E+03 0.  0.
<mgrwt>
<rscale>  0 0.16148889E+04</rscale>
<asrwt>0</asrwt>
<pdfrwt beam="1">  1        2 0.18608957E+00 0.16148889E+04</pdfrwt>
<pdfrwt beam="2">  1       -2 0.71500192E-01 0.16148889E+04</pdfrwt>
<totfact> 0.31874420E+01</totfact>
</mgrwt>
</event>
<event>
 4    1  0.3584860E-005  0.4834202E+03  0.7818608E-02  0.1018199E+00
         -2   -1    0    0    0  501 -0.00000000000E+00  0.00000000000E+00  0.41491419198E+02  0.41491419277E+02  0.25500000000E-02 0. -1.
          2   -1    0    0  501    0  0.00000000000E+00 -0.00000000000E+00 -0.14080926414E+04  0.14080926414E+04  0.25500000000E-02 0.  1.
    5000001    1    1    2    0    0  0.16507227552E+03 -0.86456020690E+01 -0.49663537553E+03  0.54881262632E+03  0.16500000000E+03 0.  0.
   -5000001    1    1    2    0    0 -0.16507227552E+03  0.86456020690E+01 -0.86996584664E+03  0.90077143433E+03  0.16500000000E+03 0.  0.
<mgrwt>
<rscale>  0 0.48342016E+03</rscale>
<asrwt>0</asrwt>
<pdfrwt beam="1">  1        2 0.20115606E+00 0.48342016E+03</pdfrwt>
<pdfrwt beam="2">  1       -2 0.59273465E-02 0.48342016E+03</pdfrwt>
<totfact> 0.26199988E+03</totfact>
</mgrwt>
</event>
<event>
 4    1  0.3584860E-005  0.3870916E+03  0.7818608E-02  0.1048343E+00
          2   -1    0    0  501    0  0.00000000000E+00  0.00000000000E+00  0.63861318037E+03  0.63861318038E+03  0.25500000000E-02 0.  1.
         -2   -1    0    0    0  501 -0.00000000000E+00 -0.00000000000E+00 -0.58658328868E+02  0.58658328924E+02  0.25500000000E-02 0. -1.
    5000001    1    1    2    0    0 -0.41200139007E+01  0.94758638338E+02  0.35337755296E+03  0.40136874441E+03  0.16500000000E+03 0.  0.
   -5000001    1    1    2    0    0  0.41200139007E+01 -0.94758638338E+02  0.22657729854E+03  0.29590276489E+03  0.16500000000E+03 0.  0.
<mgrwt>
<rscale>  0 0.38709163E+03</rscale>
<asrwt>0</asrwt>
<pdfrwt beam="1">  1        2 0.91230453E-01 0.38709163E+03</pdfrwt>
<pdfrwt beam="2">  1       -2 0.83797614E-02 0.38709163E+03</pdfrwt>
<totfact> 0.45257925E+03</totfact>
</mgrwt>
</event>
<event>
 4    1  0.3584860E-005  0.5671689E+03  0.7818608E-02  0.9975963E-01
         -2   -1    0    0    0  501 -0.00000000000E+00  0.00000000000E+00  0.28876971233E+03  0.28876971234E+03  0.25500000000E-02 0. -1.
          2   -1    0    0  501    0  0.00000000000E+00 -0.00000000000E+00 -0.27849229408E+03  0.27849229410E+03  0.25500000000E-02 0.  1.
    5000001    1    1    2    0    0 -0.45307019574E+02 -0.22136670000E+03 -0.41120345964E+02  0.28279290080E+03  0.16500000000E+03 0.  0.
   -5000001    1    1    2    0    0  0.45307019574E+02  0.22136670000E+03  0.51397764206E+02  0.28446910563E+03  0.16500000000E+03 0.  0.
<mgrwt>
<rscale>  0 0.56716890E+03</rscale>
<asrwt>0</asrwt>
<pdfrwt beam="1">  1        2 0.39784613E-01 0.56716890E+03</pdfrwt>
<pdfrwt beam="2">  1       -2 0.41252816E-01 0.56716890E+03</pdfrwt>
<totfact> 0.72502737E+02</totfact>
</mgrwt>
</event>
<event>
 4    1  0.3584860E-005  0.4450744E+03  0.7818608E-02  0.1029201E+00
          2   -1    0    0  501    0  0.00000000000E+00  0.00000000000E+00  0.12776742290E+04  0.12776742290E+04  0.25500000000E-02 0.  1.
         -2   -1    0    0    0  501 -0.00000000000E+00 -0.00000000000E+00 -0.38760125325E+02  0.38760125409E+02  0.25500000000E-02 0. -1.
    5000001    1    1    2    0    0  0.12196434943E+03  0.51246309322E+02  0.41461414535E+03  0.46543675862E+03  0.16500000000E+03 0.  0.
   -5000001    1    1    2    0    0 -0.12196434943E+03 -0.51246309322E+02  0.82429995834E+03  0.85099759580E+03  0.16500000000E+03 0.  0.
<mgrwt>
<rscale>  0 0.44507444E+03</rscale>
<asrwt>0</asrwt>
<pdfrwt beam="1">  1        2 0.18252492E+00 0.44507444E+03</pdfrwt>
<pdfrwt beam="2">  1       -2 0.55371600E-02 0.44507444E+03</pdfrwt>
<totfact> 0.34181689E+03</totfact>
</mgrwt>
</event>
<event>
 4    1  0.3584860E-005  0.3637075E+03  0.7818608E-02  0.1057125E+00
          2   -1    0    0  501    0  0.00000000000E+00  0.00000000000E+00  0.47621788718E+03  0.47621788719E+03  0.25500000000E-02 0.  1.
         -2   -1    0    0    0  501 -0.00000000000E+00 -0.00000000000E+00 -0.69444639079E+02  0.69444639126E+02  0.25500000000E-02 0. -1.
    5000001    1    1    2    0    0  0.73107264892E+02 -0.17713354656E+02  0.22392149816E+03  0.28813932819E+03  0.16500000000E+03 0.  0.
   -5000001    1    1    2    0    0 -0.73107264892E+02  0.17713354656E+02  0.18285174994E+03  0.25752319812E+03  0.16500000000E+03 0.  0.
<mgrwt>
<rscale>  0 0.36370746E+03</rscale>
<asrwt>0</asrwt>
<pdfrwt beam="1">  1        2 0.68031124E-01 0.36370746E+03</pdfrwt>
<pdfrwt beam="2">  1       -2 0.99206632E-02 0.36370746E+03</pdfrwt>
<totfact> 0.48266861E+03</totfact>
</mgrwt>
</event>
<event>
 4    1  0.3584860E-005  0.3859550E+03  0.7818608E-02  0.1048754E+00
          2   -1    0    0  501    0  0.00000000000E+00  0.00000000000E+00  0.15112408716E+03  0.15112408718E+03  0.25500000000E-02 0. -1.
         -2   -1    0    0    0  501 -0.00000000000E+00 -0.00000000000E+00 -0.24642205094E+03  0.24642205096E+03  0.25500000000E-02 0.  1.
    5000001    1    1    2    0    0  0.53608762302E+02 -0.71076121839E+02 -0.94733894478E+02  0.21006005154E+03  0.16500000000E+03 0.  0.
   -5000001    1    1    2    0    0 -0.53608762302E+02  0.71076121839E+02 -0.56406930802E+00  0.18748608659E+03  0.16500000000E+03 0.  0.
<mgrwt>
<rscale>  0 0.38595496E+03</rscale>
<asrwt>0</asrwt>
<pdfrwt beam="1">  1        2 0.21589155E-01 0.38595496E+03</pdfrwt>
<pdfrwt beam="2">  1       -2 0.35203150E-01 0.38595496E+03</pdfrwt>
<totfact> 0.19457950E+03</totfact>
</mgrwt>
</event>
<event>
 4    1  0.3584860E-005  0.3816105E+03  0.7818608E-02  0.1050340E+00
         -2   -1    0    0    0  501 -0.00000000000E+00  0.00000000000E+00  0.79103725542E+02  0.79103725583E+02  0.25500000000E-02 0. -1.
          2   -1    0    0  501    0  0.00000000000E+00 -0.00000000000E+00 -0.46023919778E+03  0.46023919779E+03  0.25500000000E-02 0.  1.
    5000001    1    1    2    0    0 -0.50477759022E+02  0.26666713978E+02 -0.81800550537E+02  0.19280935625E+03  0.16500000000E+03 0.  0.
   -5000001    1    1    2    0    0  0.50477759022E+02 -0.26666713978E+02 -0.29933492170E+03  0.34653356712E+03  0.16500000000E+03 0.  0.
<mgrwt>
<rscale>  0 0.38161046E+03</rscale>
<asrwt>0</asrwt>
<pdfrwt beam="1">  1        2 0.65748455E-01 0.38161046E+03</pdfrwt>
<pdfrwt beam="2">  1       -2 0.11300532E-01 0.38161046E+03</pdfrwt>
<totfact> 0.40692454E+03</totfact>
</mgrwt>
</event>
<event>
 4    1  0.3584860E-005  0.1097570E+04  0.7818608E-02  0.9207564E-01
          2   -1    0    0  501    0  0.00000000000E+00  0.00000000000E+00  0.25424540485E+04  0.25424540485E+04  0.25500000000E-02 0.  1.
         -2   -1    0    0    0  501 -0.00000000000E+00 -0.00000000000E+00 -0.11845441447E+03  0.11845441450E+03  0.25500000000E-02 0. -1.
    5000001    1    1    2    0    0  0.34406524654E+03 -0.33306025290E+03  0.17241656655E+04  0.17970203861E+04  0.16500000000E+03 0.  0.
   -5000001    1    1    2    0    0 -0.34406524654E+03  0.33306025290E+03  0.69983396854E+03  0.86388807693E+03  0.16500000000E+03 0.  0.
<mgrwt>
<rscale>  0 0.10975699E+04</rscale>
<asrwt>0</asrwt>
<pdfrwt beam="1">  1        2 0.36320774E+00 0.10975699E+04</pdfrwt>
<pdfrwt beam="2">  1       -2 0.16922058E-01 0.10975699E+04</pdfrwt>
<totfact> 0.11967841E+02</totfact>
</mgrwt>
</event>
<event>
 4    1  0.3584860E-005  0.4739891E+03  0.7818608E-02  0.1020800E+00
         -2   -1    0    0    0  501 -0.00000000000E+00  0.00000000000E+00  0.15354094566E+02  0.15354094778E+02  0.25500000000E-02 0. -1.
          2   -1    0    0  501    0  0.00000000000E+00 -0.00000000000E+00 -0.36580740174E+04  0.36580740174E+04  0.25500000000E-02 0.  1.
    5000001    1    1    2    0    0 -0.23933317879E+02 -0.15837565851E+03 -0.13771162990E+04  0.13961840688E+04  0.16500000000E+03 0.  0.
   -5000001    1    1    2    0    0  0.23933317879E+02  0.15837565851E+03 -0.22656036238E+04  0.22772440434E+04  0.16500000000E+03 0.  0.
<mgrwt>
<rscale>  0 0.47398909E+03</rscale>
<asrwt>0</asrwt>
<pdfrwt beam="1">  1        2 0.52258144E+00 0.47398909E+03</pdfrwt>
<pdfrwt beam="2">  1       -2 0.21934444E-02 0.47398909E+03</pdfrwt>
<totfact> 0.77173391E+02</totfact>
</mgrwt>
</event>
<event>
 4    1  0.3584860E-005  0.1074753E+04  0.7818608E-02  0.9230154E-01
         -2   -1    0    0    0  501 -0.00000000000E+00  0.00000000000E+00  0.15666602027E+03  0.15666602030E+03  0.25500000000E-02 0. -1.
          2   -1    0    0  501    0  0.00000000000E+00 -0.00000000000E+00 -0.18432442437E+04  0.18432442437E+04  0.25500000000E-02 0.  1.
    5000001    1    1    2    0    0 -0.39268419735E+03  0.13577166744E+03 -0.13981530917E+04  0.14678868800E+04  0.16500000000E+03 0.  0.
   -5000001    1    1    2    0    0  0.39268419735E+03 -0.13577166744E+03 -0.28842513167E+03  0.53202338398E+03  0.16500000000E+03 0.  0.
<mgrwt>
<rscale>  0 0.10747534E+04</rscale>
<asrwt>0</asrwt>
<pdfrwt beam="1">  1        2 0.26332059E+00 0.10747534E+04</pdfrwt>
<pdfrwt beam="2">  1       -2 0.22380861E-01 0.10747534E+04</pdfrwt>
<totfact> 0.16823724E+02</totfact>
</mgrwt>
</event>
<event>
 4    1  0.3584860E-005  0.6150178E+03  0.7818608E-02  0.9874730E-01
         -2   -1    0    0    0  501 -0.00000000000E+00  0.00000000000E+00  0.67500008038E+03  0.67500008038E+03  0.25500000000E-02 0. -1.
          2   -1    0    0  501    0  0.00000000000E+00 -0.00000000000E+00 -0.14009143509E+03  0.14009143511E+03  0.25500000000E-02 0.  1.
    5000001    1    1    2    0    0  0.14067522682E+03 -0.21445939855E+03  0.21520305422E+03  0.37325555269E+03  0.16500000000E+03 0.  0.
   -5000001    1    1    2    0    0 -0.14067522682E+03  0.21445939855E+03  0.31970559107E+03  0.44183596280E+03  0.16500000000E+03 0.  0.
<mgrwt>
<rscale>  0 0.61501782E+03</rscale>
<asrwt>0</asrwt>
<pdfrwt beam="1">  1        2 0.20013062E-01 0.61501782E+03</pdfrwt>
<pdfrwt beam="2">  1       -2 0.96428583E-01 0.61501782E+03</pdfrwt>
<totfact> 0.25840938E+02</totfact>
</mgrwt>
</event>
<event>
 4    1  0.3584860E-005  0.6628802E+03  0.7818608E-02  0.9782906E-01
          2   -1    0    0  501    0  0.00000000000E+00  0.00000000000E+00  0.51348128262E+03  0.51348128263E+03  0.25500000000E-02 0.  1.
         -2   -1    0    0    0  501 -0.00000000000E+00 -0.00000000000E+00 -0.21393676636E+03  0.21393676638E+03  0.25500000000E-02 0. -1.
    5000001    1    1    2    0    0  0.22355163113E+03 -0.29204970437E+02  0.34545727900E+03  0.44429043845E+03  0.16500000000E+03 0.  0.
   -5000001    1    1    2    0    0 -0.22355163113E+03  0.29204970437E+02 -0.45912762742E+02  0.28312761056E+03  0.16500000000E+03 0.  0.
<mgrwt>
<rscale>  0 0.66288016E+03</rscale>
<asrwt>0</asrwt>
<pdfrwt beam="1">  1        2 0.73354469E-01 0.66288016E+03</pdfrwt>
<pdfrwt beam="2">  1       -2 0.30562395E-01 0.66288016E+03</pdfrwt>
<totfact> 0.64767850E+02</totfact>
</mgrwt>
</event>
<event>
 4    1  0.3584860E-005  0.5103106E+03  0.7818608E-02  0.1011122E+00
         -2   -1    0    0    0  501 -0.00000000000E+00  0.00000000000E+00  0.16129299985E+03  0.16129299987E+03  0.25500000000E-02 0. -1.
          2   -1    0    0  501    0  0.00000000000E+00 -0.00000000000E+00 -0.40363952560E+03  0.40363952561E+03  0.25500000000E-02 0.  1.
    5000001    1    1    2    0    0 -0.80724107481E+02 -0.80277407056E+02  0.53578649916E+02  0.20750063937E+03  0.16500000000E+03 0.  0.
   -5000001    1    1    2    0    0  0.80724107481E+02  0.80277407056E+02 -0.29592517567E+03  0.35743188611E+03  0.16500000000E+03 0.  0.
<mgrwt>
<rscale>  0 0.51031061E+03</rscale>
<asrwt>0</asrwt>
<pdfrwt beam="1">  1        2 0.57662789E-01 0.51031061E+03</pdfrwt>
<pdfrwt beam="2">  1       -2 0.23041857E-01 0.51031061E+03</pdfrwt>
<totfact> 0.14180539E+03</totfact>
</mgrwt>
</event>
<event>
 4    1  0.3584860E-005  0.4572270E+03  0.7818608E-02  0.1025589E+00
         -2   -1    0    0    0  501 -0.00000000000E+00  0.00000000000E+00  0.41402811160E+02  0.41402811238E+02  0.25500000000E-02 0.  1.
          2   -1    0    0  501    0  0.00000000000E+00 -0.00000000000E+00 -0.12623330704E+04  0.12623330704E+04  0.25500000000E-02 0. -1.
    5000001    1    1    2    0    0 -0.12820641109E+03 -0.26681238298E+00 -0.87492638801E+03  0.89953217812E+03  0.16500000000E+03 0.  0.
   -5000001    1    1    2    0    0  0.12820641109E+03  0.26681238298E+00 -0.34600387121E+03  0.40420370350E+03  0.16500000000E+03 0.  0.
<mgrwt>
<rscale>  0 0.45722702E+03</rscale>
<asrwt>0</asrwt>
<pdfrwt beam="1">  1        2 0.18033327E+00 0.45722702E+03</pdfrwt>
<pdfrwt beam="2">  1       -2 0.59146881E-02 0.45722702E+03</pdfrwt>
<totfact> 0.31455113E+03</totfact>
</mgrwt>
</event>
<event>
 4    1  0.3584860E-005  0.8492593E+03  0.7818608E-02  0.9491332E-01
          2   -1    0    0  501    0  0.00000000000E+00  0.00000000000E+00  0.22183903466E+04  0.22183903466E+04  0.25500000000E-02 0.  1.
         -2   -1    0    0    0  501 -0.00000000000E+00 -0.00000000000E+00 -0.81279803499E+02  0.81279803539E+02  0.25500000000E-02 0. -1.
    5000001    1    1    2    0    0 -0.21212483491E+02  0.37678124838E+03  0.13482813476E+04  0.14097878106E+04  0.16500000000E+03 0.  0.
   -5000001    1    1    2    0    0  0.21212483491E+02 -0.37678124838E+03  0.78882919555E+03  0.88988233960E+03  0.16500000000E+03 0.  0.
<mgrwt>
<rscale>  0 0.84925928E+03</rscale>
<asrwt>0</asrwt>
<pdfrwt beam="1">  1        2 0.31691291E+00 0.84925928E+03</pdfrwt>
<pdfrwt beam="2">  1       -2 0.11611400E-01 0.84925928E+03</pdfrwt>
<totfact> 0.33831425E+02</totfact>
</mgrwt>
</event>
<event>
 4    1  0.3584860E-005  0.5515330E+03  0.7818608E-02  0.1001140E+00
         -2   -1    0    0    0  501 -0.00000000000E+00  0.00000000000E+00  0.15130967943E+03  0.15130967945E+03  0.25500000000E-02 0. -1.
          2   -1    0    0  501    0  0.00000000000E+00 -0.00000000000E+00 -0.50259292527E+03  0.50259292528E+03  0.25500000000E-02 0.  1.
    5000001    1    1    2    0    0 -0.71187595332E+02 -0.15135666913E+03 -0.34682017527E+03  0.41891019204E+03  0.16500000000E+03 0.  0.
   -5000001    1    1    2    0    0  0.71187595332E+02  0.15135666913E+03 -0.44630705663E+01  0.23499241269E+03  0.16500000000E+03 0.  0.
<mgrwt>
<rscale>  0 0.55153304E+03</rscale>
<asrwt>0</asrwt>
<pdfrwt beam="1">  1        2 0.71798989E-01 0.55153304E+03</pdfrwt>
<pdfrwt beam="2">  1       -2 0.21615669E-01 0.55153304E+03</pdfrwt>
<totfact> 0.12417144E+03</totfact>
</mgrwt>
</event>
<event>
 4    1  0.3584860E-005  0.5668190E+03  0.7818608E-02  0.9976742E-01
         -2   -1    0    0    0  501 -0.00000000000E+00  0.00000000000E+00  0.11866321482E+03  0.11866321485E+03  0.25500000000E-02 0. -1.
          2   -1    0    0  501    0  0.00000000000E+00 -0.00000000000E+00 -0.67688166994E+03  0.67688166994E+03  0.25500000000E-02 0.  1.
    5000001    1    1    2    0    0  0.81351337057E+02  0.18414247996E+03 -0.43646352412E+03  0.50818490814E+03  0.16500000000E+03 0.  0.
   -5000001    1    1    2    0    0 -0.81351337057E+02 -0.18414247996E+03 -0.12175493099E+03  0.28735997666E+03  0.16500000000E+03 0.  0.
<mgrwt>
<rscale>  0 0.56681904E+03</rscale>
<asrwt>0</asrwt>
<pdfrwt beam="1">  1        2 0.96697379E-01 0.56681904E+03</pdfrwt>
<pdfrwt beam="2">  1       -2 0.16951888E-01 0.56681904E+03</pdfrwt>
<totfact> 0.13347984E+03</totfact>
</mgrwt>
</event>
<event>
 4    1  0.3584860E-005  0.4369655E+03  0.7818608E-02  0.1031682E+00
          2   -1    0    0  501    0  0.00000000000E+00  0.00000000000E+00  0.95278943123E+03  0.95278943123E+03  0.25500000000E-02 0.  1.
         -2   -1    0    0    0  501 -0.00000000000E+00 -0.00000000000E+00 -0.50099967693E+02  0.50099967758E+02  0.25500000000E-02 0. -1.
    5000001    1    1    2    0    0 -0.16284548641E+02 -0.13986119236E+03  0.39134669751E+03  0.44744114395E+03  0.16500000000E+03 0.  0.
   -5000001    1    1    2    0    0  0.16284548641E+02  0.13986119236E+03  0.51134276603E+03  0.55544825504E+03  0.16500000000E+03 0.  0.
<mgrwt>
<rscale>  0 0.43696554E+03</rscale>
<asrwt>0</asrwt>
<pdfrwt beam="1">  1        2 0.13611278E+00 0.43696554E+03</pdfrwt>
<pdfrwt beam="2">  1       -2 0.71571381E-02 0.43696554E+03</pdfrwt>
<totfact> 0.35195739E+03</totfact>
</mgrwt>
</event>
<event>
 4    1  0.3584860E-005  0.4206441E+03  0.7818608E-02  0.1036857E+00
         -2   -1    0    0    0  501 -0.00000000000E+00  0.00000000000E+00  0.24414255152E+03  0.24414255153E+03  0.25500000000E-02 0. -1.
          2   -1    0    0  501    0  0.00000000000E+00 -0.00000000000E+00 -0.18118660308E+03  0.18118660310E+03  0.25500000000E-02 0.  1.
    5000001    1    1    2    0    0  0.11191730612E+03 -0.33989560041E+02  0.89823222655E+02  0.22130066636E+03  0.16500000000E+03 0.  0.
   -5000001    1    1    2    0    0 -0.11191730612E+03  0.33989560041E+02 -0.26867274214E+02  0.20402848827E+03  0.16500000000E+03 0.  0.
<mgrwt>
<rscale>  0 0.42064408E+03</rscale>
<asrwt>0</asrwt>
<pdfrwt beam="1">  1        2 0.25883800E-01 0.42064408E+03</pdfrwt>
<pdfrwt beam="2">  1       -2 0.34877507E-01 0.42064408E+03</pdfrwt>
<totfact> 0.16126773E+03</totfact>
</mgrwt>
</event>
<event>
 4    1  0.3584860E-005  0.3451409E+03  0.7818608E-02  0.1064627E+00
          2   -1    0    0  501    0  0.00000000000E+00  0.00000000000E+00  0.99828765345E+03  0.99828765345E+03  0.25500000000E-02 0.  1.
         -2   -1    0    0    0  501 -0.00000000000E+00 -0.00000000000E+00 -0.29831650674E+02  0.29831650783E+02  0.25500000000E-02 0. -1.
    5000001    1    1    2    0    0  0.13385221975E+02  0.38348998349E+02  0.39457738122E+03  0.42961159157E+03  0.16500000000E+03 0.  0.
   -5000001    1    1    2    0    0 -0.13385221975E+02 -0.38348998349E+02  0.57387862155E+03  0.59850771266E+03  0.16500000000E+03 0.  0.
<mgrwt>
<rscale>  0 0.34514095E+03</rscale>
<asrwt>0</asrwt>
<pdfrwt beam="1">  1        2 0.14261254E+00 0.34514095E+03</pdfrwt>
<pdfrwt beam="2">  1       -2 0.42616638E-02 0.34514095E+03</pdfrwt>
<totfact> 0.73237096E+03</totfact>
</mgrwt>
</event>
<event>
 4    1  0.3584860E-005  0.4398238E+03  0.7818608E-02  0.1030801E+00
         -2   -1    0    0    0  501 -0.00000000000E+00  0.00000000000E+00  0.12590931550E+03  0.12590931552E+03  0.25500000000E-02 0. -1.
          2   -1    0    0  501    0  0.00000000000E+00 -0.00000000000E+00 -0.38409583235E+03  0.38409583236E+03  0.25500000000E-02 0.  1.
    5000001    1    1    2    0    0 -0.11242437864E+03 -0.77409574007E+02 -0.18712677926E+03  0.28438163544E+03  0.16500000000E+03 0.  0.
   -5000001    1    1    2    0    0  0.11242437864E+03  0.77409574007E+02 -0.71059737595E+02  0.22562351244E+03  0.16500000000E+03 0.  0.
<mgrwt>
<rscale>  0 0.43982380E+03</rscale>
<asrwt>0</asrwt>
<pdfrwt beam="1">  1        2 0.54870833E-01 0.43982380E+03</pdfrwt>
<pdfrwt beam="2">  1       -2 0.17987045E-01 0.43982380E+03</pdfrwt>
<totfact> 0.23005841E+03</totfact>
</mgrwt>
</event>
<event>
 4    1  0.3584860E-005  0.4368518E+03  0.7818608E-02  0.1031717E+00
          2   -1    0    0  501    0  0.00000000000E+00  0.00000000000E+00  0.23990324723E+03  0.23990324724E+03  0.25500000000E-02 0.  1.
         -2   -1    0    0    0  501 -0.00000000000E+00 -0.00000000000E+00 -0.19887134817E+03  0.19887134818E+03  0.25500000000E-02 0. -1.
    5000001    1    1    2    0    0  0.37974335682E+02  0.10685098228E+03  0.10822555427E+03  0.22758943996E+03  0.16500000000E+03 0.  0.
   -5000001    1    1    2    0    0 -0.37974335682E+02 -0.10685098228E+03 -0.67193655217E+02  0.21118515546E+03  0.16500000000E+03 0.  0.
<mgrwt>
<rscale>  0 0.43685184E+03</rscale>
<asrwt>0</asrwt>
<pdfrwt beam="1">  1        2 0.34271892E-01 0.43685184E+03</pdfrwt>
<pdfrwt beam="2">  1       -2 0.28410193E-01 0.43685184E+03</pdfrwt>
<totfact> 0.17239796E+03</totfact>
</mgrwt>
</event>
<event>
 4    1  0.3584860E-005  0.4467270E+03  0.7818608E-02  0.1028703E+00
          2   -1    0    0  501    0  0.00000000000E+00  0.00000000000E+00  0.60673242852E+03  0.60673242852E+03  0.25500000000E-02 0. -1.
         -2   -1    0    0    0  501 -0.00000000000E+00 -0.00000000000E+00 -0.82229406452E+02  0.82229406492E+02  0.25500000000E-02 0.  1.
    5000001    1    1    2    0    0 -0.10779381244E+03  0.10509101793E+03  0.26474758215E+03  0.34638116332E+03  0.16500000000E+03 0.  0.
   -5000001    1    1    2    0    0  0.10779381244E+03 -0.10509101793E+03  0.25975543991E+03  0.34258067169E+03  0.16500000000E+03 0.  0.
<mgrwt>
<rscale>  0 0.44672697E+03</rscale>
<asrwt>0</asrwt>
<pdfrwt beam="1">  1        2 0.86676062E-01 0.44672697E+03</pdfrwt>
<pdfrwt beam="2">  1       -2 0.11747058E-01 0.44672697E+03</pdfrwt>
<totfact> 0.27993137E+03</totfact>
</mgrwt>
</event>
<event>
 4    1  0.3584860E-005  0.5861448E+03  0.7818608E-02  0.9934576E-01
          2   -1    0    0  501    0  0.00000000000E+00  0.00000000000E+00  0.13620269405E+03  0.13620269407E+03  0.25500000000E-02 0.  1.
         -2   -1    0    0    0  501 -0.00000000000E+00 -0.00000000000E+00 -0.63061473289E+03  0.63061473290E+03  0.25500000000E-02 0. -1.
    5000001    1    1    2    0    0  0.17766123682E+02  0.12479942058E+03 -0.51778037065E+03  0.55786382098E+03  0.16500000000E+03 0.  0.
   -5000001    1    1    2    0    0 -0.17766123682E+02 -0.12479942058E+03  0.23368331802E+02  0.20895360599E+03  0.16500000000E+03 0.  0.
<mgrwt>
<rscale>  0 0.58614478E+03</rscale>
<asrwt>0</asrwt>
<pdfrwt beam="1">  1        2 0.19457528E-01 0.58614478E+03</pdfrwt>
<pdfrwt beam="2">  1       -2 0.90087818E-01 0.58614478E+03</pdfrwt>
<totfact> 0.31287290E+02</totfact>
</mgrwt>
</event>
<event>
 4    1  0.3584860E-005  0.4190404E+03  0.7818608E-02  0.1037379E+00
          2   -1    0    0  501    0  0.00000000000E+00  0.00000000000E+00  0.87423768471E+03  0.87423768471E+03  0.25500000000E-02 0.  1.
         -2   -1    0    0    0  501 -0.00000000000E+00 -0.00000000000E+00 -0.50213715292E+02  0.50213715357E+02  0.25500000000E-02 0. -1.
    5000001    1    1    2    0    0 -0.67736371310E+02  0.10963609269E+03  0.39416651710E+03  0.44631886810E+03  0.16500000000E+03 0.  0.
   -5000001    1    1    2    0    0  0.67736371310E+02 -0.10963609269E+03  0.42985745232E+03  0.47813253197E+03  0.16500000000E+03 0.  0.
<mgrwt>
<rscale>  0 0.41904044E+03</rscale>
<asrwt>0</asrwt>
<pdfrwt beam="1">  1        2 0.12489110E+00 0.41904044E+03</pdfrwt>
<pdfrwt beam="2">  1       -2 0.71733880E-02 0.41904044E+03</pdfrwt>
<totfact> 0.39302737E+03</totfact>
</mgrwt>
</event>
<event>
 4    1  0.3584860E-005  0.3894687E+03  0.7818608E-02  0.1047489E+00
         -2   -1    0    0    0  501 -0.00000000000E+00  0.00000000000E+00  0.31393109592E+02  0.31393109695E+02  0.25500000000E-02 0. -1.
          2   -1    0    0  501    0  0.00000000000E+00 -0.00000000000E+00 -0.12079549076E+04  0.12079549076E+04  0.25500000000E-02 0.  1.
    5000001    1    1    2    0    0 -0.70019256228E+01 -0.10006990280E+03 -0.50819124987E+03  0.54364175599E+03  0.16500000000E+03 0.  0.
   -5000001    1    1    2    0    0  0.70019256228E+01  0.10006990280E+03 -0.66837054818E+03  0.69570626135E+03  0.16500000000E+03 0.  0.
<mgrwt>
<rscale>  0 0.38946867E+03</rscale>
<asrwt>0</asrwt>
<pdfrwt beam="1">  1        2 0.17256496E+00 0.38946867E+03</pdfrwt>
<pdfrwt beam="2">  1       -2 0.44847307E-02 0.38946867E+03</pdfrwt>
<totfact> 0.51543263E+03</totfact>
</mgrwt>
</event>
<event>
 4    1  0.3584860E-005  0.1024942E+04  0.7818608E-02  0.9281604E-01
          2   -1    0    0  501    0  0.00000000000E+00  0.00000000000E+00  0.88893544184E+03  0.88893544185E+03  0.25500000000E-02 0.  1.
         -2   -1    0    0    0  501 -0.00000000000E+00 -0.00000000000E+00 -0.29543941311E+03  0.29543941312E+03  0.25500000000E-02 0. -1.
    5000001    1    1    2    0    0  0.13708110320E+03 -0.44029379671E+03  0.47104780593E+03  0.67952990497E+03  0.16500000000E+03 0.  0.
   -5000001    1    1    2    0    0 -0.13708110320E+03  0.44029379671E+03  0.12244822280E+03  0.50484495000E+03  0.16500000000E+03 0.  0.
<mgrwt>
<rscale>  0 0.10249421E+04</rscale>
<asrwt>0</asrwt>
<pdfrwt beam="1">  1        2 0.12699078E+00 0.10249421E+04</pdfrwt>
<pdfrwt beam="2">  1       -2 0.42205630E-01 0.10249421E+04</pdfrwt>
<totfact> 0.17522306E+02</totfact>
</mgrwt>
</event>
<event>
 4    1  0.3584860E-005  0.3756452E+03  0.7818608E-02  0.1052555E+00
          2   -1    0    0  501    0  0.00000000000E+00  0.00000000000E+00  0.14271301648E+03  0.14271301650E+03  0.25500000000E-02 0.  1.
         -2   -1    0    0    0  501 -0.00000000000E+00 -0.00000000000E+00 -0.24719073950E+03  0.24719073952E+03  0.25500000000E-02 0. -1.
    5000001    1    1    2    0    0 -0.22092238967E+02  0.85573084445E+02 -0.68369543891E+02  0.19927421894E+03  0.16500000000E+03 0.  0.
   -5000001    1    1    2    0    0  0.22092238967E+02 -0.85573084445E+02 -0.36108179136E+02  0.19062953707E+03  0.16500000000E+03 0.  0.
<mgrwt>
<rscale>  0 0.37564524E+03</rscale>
<asrwt>0</asrwt>
<pdfrwt beam="1">  1        2 0.20387574E-01 0.37564524E+03</pdfrwt>
<pdfrwt beam="2">  1       -2 0.35312963E-01 0.37564524E+03</pdfrwt>
<totfact> 0.20652464E+03</totfact>
</mgrwt>
</event>
<event>
 4    1  0.3584860E-005  0.4208829E+03  0.7818608E-02  0.1036779E+00
         -2   -1    0    0    0  501 -0.00000000000E+00  0.00000000000E+00  0.10394270043E+03  0.10394270046E+03  0.25500000000E-02 0. -1.
          2   -1    0    0  501    0  0.00000000000E+00 -0.00000000000E+00 -0.42605785778E+03  0.42605785779E+03  0.25500000000E-02 0.  1.
    5000001    1    1    2    0    0 -0.69871793312E+02 -0.10697587006E+03 -0.12692492395E+03  0.24425568692E+03  0.16500000000E+03 0.  0.
   -5000001    1    1    2    0    0  0.69871793312E+02  0.10697587006E+03 -0.19519023340E+03  0.28574487133E+03  0.16500000000E+03 0.  0.
<mgrwt>
<rscale>  0 0.42088290E+03</rscale>
<asrwt>0</asrwt>
<pdfrwt beam="1">  1        2 0.60865407E-01 0.42088290E+03</pdfrwt>
<pdfrwt beam="2">  1       -2 0.14848957E-01 0.42088290E+03</pdfrwt>
<totfact> 0.28344550E+03</totfact>
</mgrwt>
</event>
<event>
 4    1  0.3584860E-005  0.5143056E+03  0.7818608E-02  0.1010111E+00
          2   -1    0    0  501    0  0.00000000000E+00  0.00000000000E+00  0.17823022815E+03  0.17823022816E+03  0.25500000000E-02 0.  1.
         -2   -1    0    0    0  501 -0.00000000000E+00 -0.00000000000E+00 -0.37102327592E+03  0.37102327593E+03  0.25500000000E-02 0. -1.
    5000001    1    1    2    0    0 -0.18964928332E+03 -0.43344908350E+02 -0.13111614500E+03  0.28681365941E+03  0.16500000000E+03 0.  0.
   -5000001    1    1    2    0    0  0.18964928332E+03  0.43344908350E+02 -0.61676902775E+02  0.26243984469E+03  0.16500000000E+03 0.  0.
<mgrwt>
<rscale>  0 0.51430560E+03</rscale>
<asrwt>0</asrwt>
<pdfrwt beam="1">  1        2 0.25461461E-01 0.51430560E+03</pdfrwt>
<pdfrwt beam="2">  1       -2 0.53003325E-01 0.51430560E+03</pdfrwt>
<totfact> 0.72420219E+02</totfact>
</mgrwt>
</event>
<event>
 4    1  0.3584860E-005  0.8804475E+03  0.7818608E-02  0.9450359E-01
         -2   -1    0    0    0  501 -0.00000000000E+00  0.00000000000E+00  0.68791978294E+02  0.68791978341E+02  0.25500000000E-02 0. -1.
          2   -1    0    0  501    0  0.00000000000E+00 -0.00000000000E+00 -0.28171447096E+04  0.28171447096E+04  0.25500000000E-02 0.  1.
    5000001    1    1    2    0    0  0.15545720608E+03 -0.88892007044E+02 -0.17205123489E+03  0.29815324795E+03  0.16500000000E+03 0.  0.
   -5000001    1    1    2    0    0 -0.15545720608E+03  0.88892007044E+02 -0.25763014965E+04  0.25877834400E+04  0.16500000000E+03 0.  0.
<mgrwt>
<rscale>  0 0.88044752E+03</rscale>
<asrwt>0</asrwt>
<pdfrwt beam="1">  1        2 0.40244917E+00 0.88044752E+03</pdfrwt>
<pdfrwt beam="2">  1       -2 0.98274272E-02 0.88044752E+03</pdfrwt>
<totfact> 0.21638154E+02</totfact>
</mgrwt>
</event>
<event>
 4    1  0.3584860E-005  0.4108675E+03  0.7818608E-02  0.1040080E+00
          2   -1    0    0  501    0  0.00000000000E+00  0.00000000000E+00  0.42804756268E+03  0.42804756268E+03  0.25500000000E-02 0.  1.
         -2   -1    0    0    0  501 -0.00000000000E+00 -0.00000000000E+00 -0.98594234172E+02  0.98594234205E+02  0.25500000000E-02 0. -1.
    5000001    1    1    2    0    0  0.97500026302E+02  0.44233571352E+02  0.88731499589E+02  0.21578031185E+03  0.16500000000E+03 0.  0.
   -5000001    1    1    2    0    0 -0.97500026302E+02 -0.44233571352E+02  0.24072182891E+03  0.31086148504E+03  0.16500000000E+03 0.  0.
<mgrwt>
<rscale>  0 0.41086748E+03</rscale>
<asrwt>0</asrwt>
<pdfrwt beam="1">  1        2 0.61149651E-01 0.41086748E+03</pdfrwt>
<pdfrwt beam="2">  1       -2 0.14084891E-01 0.41086748E+03</pdfrwt>
<totfact> 0.30777764E+03</totfact>
</mgrwt>
</event>
<event>
 4    1  0.3584860E-005  0.3781561E+03  0.7818608E-02  0.1051617E+00
         -2   -1    0    0    0  501 -0.00000000000E+00  0.00000000000E+00  0.35187742872E+03  0.35187742873E+03  0.25500000000E-02 0. -1.
          2   -1    0    0  501    0  0.00000000000E+00 -0.00000000000E+00 -0.10159931024E+03  0.10159931027E+03  0.25500000000E-02 0.  1.
    5000001    1    1    2    0    0 -0.80494552353E+02 -0.42096979212E+02  0.14498811034E+03  0.23769324929E+03  0.16500000000E+03 0.  0.
   -5000001    1    1    2    0    0  0.80494552353E+02  0.42096979212E+02  0.10529000814E+03  0.21578348971E+03  0.16500000000E+03 0.  0.
<mgrwt>
<rscale>  0 0.37815607E+03</rscale>
<asrwt>0</asrwt>
<pdfrwt beam="1">  1        2 0.14514187E-01 0.37815607E+03</pdfrwt>
<pdfrwt beam="2">  1       -2 0.50268204E-01 0.37815607E+03</pdfrwt>
<totfact> 0.15516132E+03</totfact>
</mgrwt>
</event>
<event>
 4    1  0.3584860E-005  0.7459453E+03  0.7818608E-02  0.9641733E-01
         -2   -1    0    0    0  501 -0.00000000000E+00  0.00000000000E+00  0.87317536842E+02  0.87317536879E+02  0.25500000000E-02 0. -1.
          2   -1    0    0  501    0  0.00000000000E+00 -0.00000000000E+00 -0.15931346773E+04  0.15931346773E+04  0.25500000000E-02 0.  1.
    5000001    1    1    2    0    0 -0.24094875284E+03  0.68681306542E+02 -0.25367369310E+03  0.39287245505E+03  0.16500000000E+03 0.  0.
   -5000001    1    1    2    0    0  0.24094875284E+03 -0.68681306542E+02 -0.12521434473E+04  0.12875797591E+04  0.16500000000E+03 0.  0.
<mgrwt>
<rscale>  0 0.74594530E+03</rscale>
<asrwt>0</asrwt>
<pdfrwt beam="1">  1        2 0.22759065E+00 0.74594530E+03</pdfrwt>
<pdfrwt beam="2">  1       -2 0.12473935E-01 0.74594530E+03</pdfrwt>
<totfact> 0.62994832E+02</totfact>
</mgrwt>
</event>
<event>
 4    1  0.3584860E-005  0.5841028E+03  0.7818608E-02  0.9938948E-01
          2   -1    0    0  501    0  0.00000000000E+00  0.00000000000E+00  0.52990353528E+04  0.52990353528E+04  0.25500000000E-02 0.  1.
         -2   -1    0    0    0  501 -0.00000000000E+00 -0.00000000000E+00 -0.16096138431E+02  0.16096138633E+02  0.25500000000E-02 0. -1.
    5000001    1    1    2    0    0  0.99412993971E+02 -0.16288519553E+03  0.13024140191E+04  0.13266204459E+04  0.16500000000E+03 0.  0.
   -5000001    1    1    2    0    0 -0.99412993971E+02  0.16288519553E+03  0.39805251953E+04  0.39885110455E+04  0.16500000000E+03 0.  0.
<mgrwt>
<rscale>  0 0.58410276E+03</rscale>
<asrwt>0</asrwt>
<pdfrwt beam="1">  1        2 0.75700407E+00 0.58410276E+03</pdfrwt>
<pdfrwt beam="2">  1       -2 0.22994513E-02 0.58410276E+03</pdfrwt>
<totfact> 0.35300417E+01</totfact>
</mgrwt>
</event>
<event>
 4    1  0.3584860E-005  0.4662907E+03  0.7818608E-02  0.1022972E+00
          2   -1    0    0  501    0  0.00000000000E+00  0.00000000000E+00  0.17436441309E+04  0.17436441309E+04  0.25500000000E-02 0.  1.
         -2   -1    0    0    0  501 -0.00000000000E+00 -0.00000000000E+00 -0.31174227318E+02  0.31174227422E+02  0.25500000000E-02 0. -1.
    5000001    1    1    2    0    0  0.16384807578E+03  0.70596934317E+01  0.79779603471E+03  0.83102319114E+03  0.16500000000E+03 0.  0.
   -5000001    1    1    2    0    0 -0.16384807578E+03 -0.70596934317E+01  0.91467386884E+03  0.94379516716E+03  0.16500000000E+03 0.  0.
<mgrwt>
<rscale>  0 0.46629072E+03</rscale>
<asrwt>0</asrwt>
<pdfrwt beam="1">  1        2 0.24909206E+00 0.46629072E+03</pdfrwt>
<pdfrwt beam="2">  1       -2 0.44534604E-02 0.46629072E+03</pdfrwt>
<totfact> 0.27445509E+03</totfact>
</mgrwt>
</event>
<event>
 4    1  0.3584860E-005  0.4214403E+03  0.7818608E-02  0.1036599E+00
         -2   -1    0    0    0  501 -0.00000000000E+00  0.00000000000E+00  0.19998990630E+04  0.19998990630E+04  0.25500000000E-02 0.  1.
          2   -1    0    0  501    0  0.00000000000E+00 -0.00000000000E+00 -0.22202609709E+02  0.22202609856E+02  0.25500000000E-02 0. -1.
    5000001    1    1    2    0    0 -0.10534611860E+03 -0.55322645602E+02  0.12525057187E+04  0.12689184273E+04  0.16500000000E+03 0.  0.
   -5000001    1    1    2    0    0  0.10534611860E+03  0.55322645602E+02  0.72519073459E+03  0.75318324554E+03  0.16500000000E+03 0.  0.
<mgrwt>
<rscale>  0 0.42144029E+03</rscale>
<asrwt>0</asrwt>
<pdfrwt beam="1">  1        2 0.31718026E-02 0.42144029E+03</pdfrwt>
<pdfrwt beam="2">  1       -2 0.28569976E+00 0.42144029E+03</pdfrwt>
<totfact> 0.12745339E+02</totfact>
</mgrwt>
</event>
<event>
 4    1  0.3584860E-005  0.4391522E+03  0.7818608E-02  0.1031007E+00
          2   -1    0    0  501    0  0.00000000000E+00  0.00000000000E+00  0.17885942401E+04  0.17885942402E+04  0.25500000000E-02 0.  1.
         -2   -1    0    0    0  501 -0.00000000000E+00 -0.00000000000E+00 -0.26956181491E+02  0.26956181611E+02  0.25500000000E-02 0. -1.
    5000001    1    1    2    0    0 -0.63182927870E+02  0.12723328366E+03  0.76328213976E+03  0.79372855292E+03  0.16500000000E+03 0.  0.
   -5000001    1    1    2    0    0  0.63182927870E+02 -0.12723328366E+03  0.99835591890E+03  0.10218218688E+04  0.16500000000E+03 0.  0.
<mgrwt>
<rscale>  0 0.43915223E+03</rscale>
<asrwt>0</asrwt>
<pdfrwt beam="1">  1        2 0.25551352E+00 0.43915223E+03</pdfrwt>
<pdfrwt beam="2">  1       -2 0.38508823E-02 0.43915223E+03</pdfrwt>
<totfact> 0.32559321E+03</totfact>
</mgrwt>
</event>
<event>
 4    1  0.3584860E-005  0.5053974E+03  0.7818608E-02  0.1012380E+00
          2   -1    0    0  501    0  0.00000000000E+00  0.00000000000E+00  0.15470282158E+04  0.15470282158E+04  0.25500000000E-02 0.  1.
         -2   -1    0    0    0  501 -0.00000000000E+00 -0.00000000000E+00 -0.41276969433E+02  0.41276969511E+02  0.25500000000E-02 0. -1.
    5000001    1    1    2    0    0 -0.36091025726E+02  0.15100287807E+03  0.40113054209E+03  0.46068985567E+03  0.16500000000E+03 0.  0.
   -5000001    1    1    2    0    0  0.36091025726E+02 -0.15100287807E+03  0.11046207043E+04  0.11276153297E+04  0.16500000000E+03 0.  0.
<mgrwt>
<rscale>  0 0.50539741E+03</rscale>
<asrwt>0</asrwt>
<pdfrwt beam="1">  1        2 0.22100403E+00 0.50539741E+03</pdfrwt>
<pdfrwt beam="2">  1       -2 0.58967099E-02 0.50539741E+03</pdfrwt>
<totfact> 0.22358200E+03</totfact>
</mgrwt>
</event>
<event>
 4    1  0.3584860E-005  0.3798441E+03  0.7818608E-02  0.1050991E+00
          2   -1    0    0  501    0  0.00000000000E+00  0.00000000000E+00  0.15503041619E+04  0.15503041619E+04  0.25500000000E-02 0.  1.
         -2   -1    0    0    0  501 -0.00000000000E+00 -0.00000000000E+00 -0.23266651102E+02  0.23266651242E+02  0.25500000000E-02 0. -1.
    5000001    1    1    2    0    0 -0.32414295279E+02 -0.85601548901E+02  0.85304986126E+03  0.87366891756E+03  0.16500000000E+03 0.  0.
   -5000001    1    1    2    0    0  0.32414295279E+02  0.85601548901E+02  0.67398764952E+03  0.69990189557E+03  0.16500000000E+03 0.  0.
<mgrwt>
<rscale>  0 0.37984411E+03</rscale>
<asrwt>0</asrwt>
<pdfrwt beam="1">  1        2 0.22147208E+00 0.37984411E+03</pdfrwt>
<pdfrwt beam="2">  1       -2 0.33238065E-02 0.37984411E+03</pdfrwt>
<totfact> 0.53635055E+03</totfact>
</mgrwt>
</event>
<event>
 4    1  0.3584860E-005  0.6998810E+03  0.7818608E-02  0.9717436E-01
         -2   -1    0    0    0  501 -0.00000000000E+00  0.00000000000E+00  0.11756600345E+03  0.11756600348E+03  0.25500000000E-02 0. -1.
          2   -1    0    0  501    0  0.00000000000E+00 -0.00000000000E+00 -0.10416136287E+04  0.10416136287E+04  0.25500000000E-02 0.  1.
    5000001    1    1    2    0    0 -0.14966561214E+03  0.25398659006E+03 -0.61313693507E+03  0.70005062998E+03  0.16500000000E+03 0.  0.
   -5000001    1    1    2    0    0  0.14966561214E+03 -0.25398659006E+03 -0.31091069014E+03  0.45912900217E+03  0.16500000000E+03 0.  0.
<mgrwt>
<rscale>  0 0.69988099E+03</rscale>
<asrwt>0</asrwt>
<pdfrwt beam="1">  1        2 0.14880194E+00 0.69988099E+03</pdfrwt>
<pdfrwt beam="2">  1       -2 0.16795144E-01 0.69988099E+03</pdfrwt>
<totfact> 0.76876046E+02</totfact>
</mgrwt>
</event>
<event>
 4    1  0.3584860E-005  0.4876475E+03  0.7818608E-02  0.1017054E+00
          2   -1    0    0  501    0  0.00000000000E+00  0.00000000000E+00  0.79784026380E+03  0.79784026380E+03  0.25500000000E-02 0.  1.
         -2   -1    0    0    0  501 -0.00000000000E+00 -0.00000000000E+00 -0.74513677839E+02  0.74513677883E+02  0.25500000000E-02 0. -1.
    5000001    1    1    2    0    0 -0.12463877638E+03  0.10801029221E+03  0.23486598219E+03  0.33104089988E+03  0.16500000000E+03 0.  0.
   -5000001    1    1    2    0    0  0.12463877638E+03 -0.10801029221E+03  0.48846060376E+03  0.54131304181E+03  0.16500000000E+03 0.  0.
<mgrwt>
<rscale>  0 0.48764746E+03</rscale>
<asrwt>0</asrwt>
<pdfrwt beam="1">  1        2 0.11397719E+00 0.48764746E+03</pdfrwt>
<pdfrwt beam="2">  1       -2 0.10644810E-01 0.48764746E+03</pdfrwt>
<totfact> 0.23589813E+03</totfact>
</mgrwt>
</event>
<event>
 4    1  0.3584860E-005  0.1017481E+04  0.7818608E-02  0.9289577E-01
          2   -1    0    0  501    0  0.00000000000E+00  0.00000000000E+00  0.11844520834E+04  0.11844520835E+04  0.25500000000E-02 0.  1.
         -2   -1    0    0    0  501 -0.00000000000E+00 -0.00000000000E+00 -0.21851206569E+03  0.21851206571E+03  0.25500000000E-02 0. -1.
    5000001    1    1    2    0    0  0.14801736951E+03 -0.40689099554E+03  0.19333510308E+03  0.50206860687E+03  0.16500000000E+03 0.  0.
   -5000001    1    1    2    0    0 -0.14801736951E+03  0.40689099554E+03  0.77260491468E+03  0.90089554229E+03  0.16500000000E+03 0.  0.
<mgrwt>
<rscale>  0 0.10174813E+04</rscale>
<asrwt>0</asrwt>
<pdfrwt beam="1">  1        2 0.16920745E+00 0.10174813E+04</pdfrwt>
<pdfrwt beam="2">  1       -2 0.31216008E-01 0.10174813E+04</pdfrwt>
<totfact> 0.20657781E+02</totfact>
</mgrwt>
</event>
<event>
 4    1  0.3584860E-005  0.4991842E+03  0.7818608E-02  0.1013992E+00
          2   -1    0    0  501    0  0.00000000000E+00  0.00000000000E+00  0.65042237578E+02  0.65042237628E+02  0.25500000000E-02 0.  1.
         -2   -1    0    0    0  501 -0.00000000000E+00 -0.00000000000E+00 -0.95778104577E+03  0.95778104578E+03  0.25500000000E-02 0. -1.
    5000001    1    1    2    0    0  0.16798974614E+03  0.32420452265E+02 -0.29032863074E+03  0.37521641003E+03  0.16500000000E+03 0.  0.
   -5000001    1    1    2    0    0 -0.16798974614E+03 -0.32420452265E+02 -0.60241017746E+03  0.64760687337E+03  0.16500000000E+03 0.  0.
<mgrwt>
<rscale>  0 0.49918422E+03</rscale>
<asrwt>0</asrwt>
<pdfrwt beam="1">  1        2 0.92917488E-02 0.49918422E+03</pdfrwt>
<pdfrwt beam="2">  1       -2 0.13682586E+00 0.49918422E+03</pdfrwt>
<totfact> 0.28238757E+02</totfact>
</mgrwt>
</event>
<event>
 4    1  0.3584860E-005  0.8603929E+03  0.7818608E-02  0.9476493E-01
         -2   -1    0    0    0  501 -0.00000000000E+00  0.00000000000E+00  0.31446273196E+03  0.31446273197E+03  0.25500000000E-02 0. -1.
          2   -1    0    0  501    0  0.00000000000E+00 -0.00000000000E+00 -0.58852431572E+03  0.58852431573E+03  0.25500000000E-02 0.  1.
    5000001    1    1    2    0    0  0.17063241112E+03  0.21522736715E+03 -0.43830601732E+03  0.54293222792E+03  0.16500000000E+03 0.  0.
   -5000001    1    1    2    0    0 -0.17063241112E+03 -0.21522736715E+03  0.16424443356E+03  0.36005481978E+03  0.16500000000E+03 0.  0.
<mgrwt>
<rscale>  0 0.86039285E+03</rscale>
<asrwt>0</asrwt>
<pdfrwt beam="1">  1        2 0.84074902E-01 0.86039285E+03</pdfrwt>
<pdfrwt beam="2">  1       -2 0.44923248E-01 0.86039285E+03</pdfrwt>
<totfact> 0.26185896E+02</totfact>
</mgrwt>
</event>
<event>
 4    1  0.3584860E-005  0.6138624E+03  0.7818608E-02  0.9877056E-01
          2   -1    0    0  501    0  0.00000000000E+00  0.00000000000E+00  0.75040612698E+03  0.75040612698E+03  0.25500000000E-02 0.  1.
         -2   -1    0    0    0  501 -0.00000000000E+00 -0.00000000000E+00 -0.12554102994E+03  0.12554102997E+03  0.25500000000E-02 0. -1.
    5000001    1    1    2    0    0 -0.24764140966E+03  0.38406893785E+02  0.22017204012E+03  0.37215868191E+03  0.16500000000E+03 0.  0.
   -5000001    1    1    2    0    0  0.24764140966E+03 -0.38406893785E+02  0.40469305692E+03  0.50378847504E+03  0.16500000000E+03 0.  0.
<mgrwt>
<rscale>  0 0.61386239E+03</rscale>
<asrwt>0</asrwt>
<pdfrwt beam="1">  1        2 0.10720088E+00 0.61386239E+03</pdfrwt>
<pdfrwt beam="2">  1       -2 0.17934433E-01 0.61386239E+03</pdfrwt>
<totfact> 0.10670918E+03</totfact>
</mgrwt>
</event>
<event>
 4    1  0.3584860E-005  0.6139662E+03  0.7818608E-02  0.9876847E-01
         -2   -1    0    0    0  501 -0.00000000000E+00  0.00000000000E+00  0.18385999947E+03  0.18385999948E+03  0.25500000000E-02 0. -1.
          2   -1    0    0  501    0  0.00000000000E+00 -0.00000000000E+00 -0.51255645369E+03  0.51255645370E+03  0.25500000000E-02 0.  1.
    5000001    1    1    2    0    0  0.15012208857E+03 -0.51268964352E+02  0.67692595810E+02  0.23868899369E+03  0.16500000000E+03 0.  0.
   -5000001    1    1    2    0    0 -0.15012208857E+03  0.51268964352E+02 -0.39638905003E+03  0.45772745949E+03  0.16500000000E+03 0.  0.
<mgrwt>
<rscale>  0 0.61396622E+03</rscale>
<asrwt>0</asrwt>
<pdfrwt beam="1">  1        2 0.73222350E-01 0.61396622E+03</pdfrwt>
<pdfrwt beam="2">  1       -2 0.26265714E-01 0.61396622E+03</pdfrwt>
<totfact> 0.85749377E+02</totfact>
</mgrwt>
</event>
<event>
 4    1  0.3584860E-005  0.5041691E+03  0.7818608E-02  0.1012696E+00
          2   -1    0    0  501    0  0.00000000000E+00  0.00000000000E+00  0.63510957395E+02  0.63510957447E+02  0.25500000000E-02 0.  1.
         -2   -1    0    0    0  501 -0.00000000000E+00 -0.00000000000E+00 -0.10005613702E+04  0.10005613702E+04  0.25500000000E-02 0. -1.
    5000001    1    1    2    0    0  0.16547997615E+03  0.81977677772E+02 -0.36913552328E+03  0.44451096354E+03  0.16500000000E+03 0.  0.
   -5000001    1    1    2    0    0 -0.16547997615E+03 -0.81977677772E+02 -0.56791488955E+03  0.61956136414E+03  0.16500000000E+03 0.  0.
<mgrwt>
<rscale>  0 0.50416906E+03</rscale>
<asrwt>0</asrwt>
<pdfrwt beam="1">  1        2 0.90729945E-02 0.50416906E+03</pdfrwt>
<pdfrwt beam="2">  1       -2 0.14293733E+00 0.50416906E+03</pdfrwt>
<totfact> 0.26015782E+02</totfact>
</mgrwt>
</event>
<event>
 4    1  0.3584860E-005  0.5480971E+03  0.7818608E-02  0.1001935E+00
         -2   -1    0    0    0  501 -0.00000000000E+00  0.00000000000E+00  0.24283908231E+02  0.24283908365E+02  0.25500000000E-02 0. -1.
          2   -1    0    0  501    0  0.00000000000E+00 -0.00000000000E+00 -0.30926907789E+04  0.30926907789E+04  0.25500000000E-02 0.  1.
    5000001    1    1    2    0    0  0.14138686371E+03 -0.16238473031E+03 -0.13125912519E+04  0.13403282584E+04  0.16500000000E+03 0.  0.
   -5000001    1    1    2    0    0 -0.14138686371E+03  0.16238473031E+03 -0.17558156188E+04  0.17766464289E+04  0.16500000000E+03 0.  0.
<mgrwt>
<rscale>  0 0.54809714E+03</rscale>
<asrwt>0</asrwt>
<pdfrwt beam="1">  1        2 0.44181272E+00 0.54809714E+03</pdfrwt>
<pdfrwt beam="2">  1       -2 0.34691317E-02 0.54809714E+03</pdfrwt>
<totfact> 0.81233028E+02</totfact>
</mgrwt>
</event>
<event>
 4    1  0.3584860E-005  0.5243139E+03  0.7818608E-02  0.1007621E+00
         -2   -1    0    0    0  501 -0.00000000000E+00  0.00000000000E+00  0.65581334094E+02  0.65581334144E+02  0.25500000000E-02 0. -1.
          2   -1    0    0  501    0  0.00000000000E+00 -0.00000000000E+00 -0.10479546989E+04  0.10479546989E+04  0.25500000000E-02 0.  1.
    5000001    1    1    2    0    0  0.16045501493E+03  0.11450659157E+03 -0.38198768481E+03  0.46043149618E+03  0.16500000000E+03 0.  0.
   -5000001    1    1    2    0    0 -0.16045501493E+03 -0.11450659157E+03 -0.60038567998E+03  0.65310453685E+03  0.16500000000E+03 0.  0.
<mgrwt>
<rscale>  0 0.52431390E+03</rscale>
<asrwt>0</asrwt>
<pdfrwt beam="1">  1        2 0.14970780E+00 0.52431390E+03</pdfrwt>
<pdfrwt beam="2">  1       -2 0.93687626E-02 0.52431390E+03</pdfrwt>
<totfact> 0.20107501E+03</totfact>
</mgrwt>
</event>
<event>
 4    1  0.3584860E-005  0.5208351E+03  0.7818608E-02  0.1008479E+00
         -2   -1    0    0    0  501 -0.00000000000E+00  0.00000000000E+00  0.24800064337E+02  0.24800064468E+02  0.25500000000E-02 0. -1.
          2   -1    0    0  501    0  0.00000000000E+00 -0.00000000000E+00 -0.27345611699E+04  0.27345611699E+04  0.25500000000E-02 0.  1.
    5000001    1    1    2    0    0  0.16754441692E+03 -0.11153896692E+03 -0.13074289815E+04  0.13330819983E+04  0.16500000000E+03 0.  0.
   -5000001    1    1    2    0    0 -0.16754441692E+03  0.11153896692E+03 -0.14023321241E+04  0.14262792360E+04  0.16500000000E+03 0.  0.
<mgrwt>
<rscale>  0 0.52083507E+03</rscale>
<asrwt>0</asrwt>
<pdfrwt beam="1">  1        2 0.39065140E+00 0.52083507E+03</pdfrwt>
<pdfrwt beam="2">  1       -2 0.35428681E-02 0.52083507E+03</pdfrwt>
<totfact> 0.12267635E+03</totfact>
</mgrwt>
</event>
<event>
 4    1  0.3584860E-005  0.3857186E+03  0.7818608E-02  0.1048840E+00
         -2   -1    0    0    0  501 -0.00000000000E+00  0.00000000000E+00  0.20670466180E+02  0.20670466338E+02  0.25500000000E-02 0. -1.
          2   -1    0    0  501    0  0.00000000000E+00 -0.00000000000E+00 -0.17994127874E+04  0.17994127874E+04  0.25500000000E-02 0.  1.
    5000001    1    1    2    0    0  0.43897180485E+02  0.89177309597E+02 -0.93417288181E+03  0.95382573257E+03  0.16500000000E+03 0.  0.
   -5000001    1    1    2    0    0 -0.43897180485E+02 -0.89177309597E+02 -0.84456943944E+03  0.86625752120E+03  0.16500000000E+03 0.  0.
<mgrwt>
<rscale>  0 0.38571856E+03</rscale>
<asrwt>0</asrwt>
<pdfrwt beam="1">  1        2 0.25705887E+00 0.38571856E+03</pdfrwt>
<pdfrwt beam="2">  1       -2 0.29529249E-02 0.38571856E+03</pdfrwt>
<totfact> 0.48070713E+03</totfact>
</mgrwt>
</event>
<event>
 4    1  0.3584860E-005  0.4120016E+03  0.7818608E-02  0.1039701E+00
         -2   -1    0    0    0  501 -0.00000000000E+00  0.00000000000E+00  0.24548780828E+02  0.24548780960E+02  0.25500000000E-02 0.  1.
          2   -1    0    0  501    0  0.00000000000E+00 -0.00000000000E+00 -0.17286530137E+04  0.17286530137E+04  0.25500000000E-02 0. -1.
    5000001    1    1    2    0    0 -0.10882288286E+03  0.35126158354E+02 -0.10486766902E+04  0.10677190957E+04  0.16500000000E+03 0.  0.
   -5000001    1    1    2    0    0  0.10882288286E+03 -0.35126158354E+02 -0.65542754271E+03  0.68548269896E+03  0.16500000000E+03 0.  0.
<mgrwt>
<rscale>  0 0.41200157E+03</rscale>
<asrwt>0</asrwt>
<pdfrwt beam="1">  1        2 0.24695035E+00 0.41200157E+03</pdfrwt>
<pdfrwt beam="2">  1       -2 0.35069698E-02 0.41200157E+03</pdfrwt>
<totfact> 0.40222170E+03</totfact>
</mgrwt>
</event>
<event>
 4    1  0.3584860E-005  0.4127254E+03  0.7818608E-02  0.1039460E+00
         -2   -1    0    0    0  501 -0.00000000000E+00  0.00000000000E+00  0.18404138118E+03  0.18404138120E+03  0.25500000000E-02 0. -1.
          2   -1    0    0  501    0  0.00000000000E+00 -0.00000000000E+00 -0.23139119563E+03  0.23139119564E+03  0.25500000000E-02 0.  1.
    5000001    1    1    2    0    0 -0.11310634990E+03 -0.73168052066E+01  0.26793514106E+02  0.20196404240E+03  0.16500000000E+03 0.  0.
   -5000001    1    1    2    0    0  0.11310634990E+03  0.73168052066E+01 -0.74143328554E+02  0.21346853444E+03  0.16500000000E+03 0.  0.
<mgrwt>
<rscale>  0 0.41272536E+03</rscale>
<asrwt>0</asrwt>
<pdfrwt beam="1">  1        2 0.33055885E-01 0.41272536E+03</pdfrwt>
<pdfrwt beam="2">  1       -2 0.26291626E-01 0.41272536E+03</pdfrwt>
<totfact> 0.20625117E+03</totfact>
</mgrwt>
</event>
<event>
 4    1  0.3584860E-005  0.4006460E+03  0.7818608E-02  0.1043556E+00
          2   -1    0    0  501    0  0.00000000000E+00  0.00000000000E+00  0.20986414907E+04  0.20986414907E+04  0.25500000000E-02 0.  1.
         -2   -1    0    0    0  501 -0.00000000000E+00 -0.00000000000E+00 -0.19121563417E+02  0.19121563587E+02  0.25500000000E-02 0. -1.
    5000001    1    1    2    0    0  0.42944072049E+02  0.10148571781E+03  0.11855544276E+04  0.12020431960E+04  0.16500000000E+03 0.  0.
   -5000001    1    1    2    0    0 -0.42944072049E+02 -0.10148571781E+03  0.89396549969E+03  0.91571985830E+03  0.16500000000E+03 0.  0.
<mgrwt>
<rscale>  0 0.40064601E+03</rscale>
<asrwt>0</asrwt>
<pdfrwt beam="1">  1        2 0.29980588E+00 0.40064601E+03</pdfrwt>
<pdfrwt beam="2">  1       -2 0.27316523E-02 0.40064601E+03</pdfrwt>
<totfact> 0.38411164E+03</totfact>
</mgrwt>
</event>
<event>
 4    1  0.3584860E-005  0.9977568E+03  0.7818608E-02  0.9311009E-01
          2   -1    0    0  501    0  0.00000000000E+00  0.00000000000E+00  0.13889314593E+04  0.13889314593E+04  0.25500000000E-02 0.  1.
         -2   -1    0    0    0  501 -0.00000000000E+00 -0.00000000000E+00 -0.17918784698E+03  0.17918784699E+03  0.25500000000E-02 0. -1.
    5000001    1    1    2    0    0  0.18327756006E+03  0.37056758612E+03  0.25083760168E+03  0.51093590823E+03  0.16500000000E+03 0.  0.
   -5000001    1    1    2    0    0 -0.18327756006E+03 -0.37056758612E+03  0.95890601067E+03  0.10571833981E+04  0.16500000000E+03 0.  0.
<mgrwt>
<rscale>  0 0.99775676E+03</rscale>
<asrwt>0</asrwt>
<pdfrwt beam="1">  1        2 0.19841878E+00 0.99775676E+03</pdfrwt>
<pdfrwt beam="2">  1       -2 0.25598264E-01 0.99775676E+03</pdfrwt>
<totfact> 0.22955088E+02</totfact>
</mgrwt>
</event>
<event>
 4    1  0.3584860E-005  0.4119018E+03  0.7818608E-02  0.1039735E+00
          2   -1    0    0  501    0  0.00000000000E+00  0.00000000000E+00  0.78789838001E+03  0.78789838001E+03  0.25500000000E-02 0.  1.
         -2   -1    0    0    0  501 -0.00000000000E+00 -0.00000000000E+00 -0.53834060430E+02  0.53834060491E+02  0.25500000000E-02 0. -1.
    5000001    1    1    2    0    0  0.10022373086E+02  0.11811146995E+03  0.29803469193E+03  0.36069439265E+03  0.16500000000E+03 0.  0.
   -5000001    1    1    2    0    0 -0.10022373086E+02 -0.11811146995E+03  0.43602962765E+03  0.48103804785E+03  0.16500000000E+03 0.  0.
<mgrwt>
<rscale>  0 0.41190178E+03</rscale>
<asrwt>0</asrwt>
<pdfrwt beam="1">  1        2 0.11255690E+00 0.41190178E+03</pdfrwt>
<pdfrwt beam="2">  1       -2 0.76905805E-02 0.41190178E+03</pdfrwt>
<totfact> 0.40224538E+03</totfact>
</mgrwt>
</event>
<event>
 4    1  0.3584860E-005  0.5391119E+03  0.7818608E-02  0.1004046E+00
          2   -1    0    0  501    0  0.00000000000E+00  0.00000000000E+00  0.22541667428E+04  0.22541667428E+04  0.25500000000E-02 0.  1.
         -2   -1    0    0    0  501 -0.00000000000E+00 -0.00000000000E+00 -0.32233819512E+02  0.32233819613E+02  0.25500000000E-02 0. -1.
    5000001    1    1    2    0    0 -0.10094058247E+03  0.18772750117E+03  0.11016862420E+04  0.11341817279E+04  0.16500000000E+03 0.  0.
   -5000001    1    1    2    0    0  0.10094058247E+03 -0.18772750117E+03  0.11202466813E+04  0.11522188346E+04  0.16500000000E+03 0.  0.
<mgrwt>
<rscale>  0 0.53911188E+03</rscale>
<asrwt>0</asrwt>
<pdfrwt beam="1">  1        2 0.32202387E+00 0.53911188E+03</pdfrwt>
<pdfrwt beam="2">  1       -2 0.46048307E-02 0.53911188E+03</pdfrwt>
<totfact> 0.14436467E+03</totfact>
</mgrwt>
</event>
<event>
 4    1  0.3584860E-005  0.4567837E+03  0.7818608E-02  0.1025718E+00
         -2   -1    0    0    0  501 -0.00000000000E+00  0.00000000000E+00  0.41532999424E+02  0.41532999502E+02  0.25500000000E-02 0. -1.
          2   -1    0    0  501    0  0.00000000000E+00 -0.00000000000E+00 -0.12559372245E+04  0.12559372245E+04  0.25500000000E-02 0.  1.
    5000001    1    1    2    0    0 -0.66989835377E+02  0.13639269428E+03 -0.48512117346E+03  0.53446997861E+03  0.16500000000E+03 0.  0.
   -5000001    1    1    2    0    0  0.66989835377E+02 -0.13639269428E+03 -0.72928305165E+03  0.76300024543E+03  0.16500000000E+03 0.  0.
<mgrwt>
<rscale>  0 0.45678371E+03</rscale>
<asrwt>0</asrwt>
<pdfrwt beam="1">  1        2 0.17941958E+00 0.45678371E+03</pdfrwt>
<pdfrwt beam="2">  1       -2 0.59332864E-02 0.45678371E+03</pdfrwt>
<totfact> 0.31553926E+03</totfact>
</mgrwt>
</event>
<event>
 4    1  0.3584860E-005  0.3913620E+03  0.7818608E-02  0.1046812E+00
          2   -1    0    0  501    0  0.00000000000E+00  0.00000000000E+00  0.34051643839E+04  0.34051643839E+04  0.25500000000E-02 0.  1.
         -2   -1    0    0    0  501 -0.00000000000E+00 -0.00000000000E+00 -0.11244995903E+02  0.11244996192E+02  0.25500000000E-02 0. -1.
    5000001    1    1    2    0    0 -0.22521602478E+02  0.98360870740E+02  0.19565040517E+04  0.19660404848E+04  0.16500000000E+03 0.  0.
   -5000001    1    1    2    0    0  0.22521602478E+02 -0.98360870740E+02  0.14374153363E+04  0.14503688953E+04  0.16500000000E+03 0.  0.
<mgrwt>
<rscale>  0 0.39136203E+03</rscale>
<asrwt>0</asrwt>
<pdfrwt beam="1">  1        2 0.48645202E+00 0.39136203E+03</pdfrwt>
<pdfrwt beam="2">  1       -2 0.16064281E-02 0.39136203E+03</pdfrwt>
<totfact> 0.17494462E+03</totfact>
</mgrwt>
</event>
<event>
 4    1  0.3584860E-005  0.3759550E+03  0.7818608E-02  0.1052439E+00
          2   -1    0    0  501    0  0.00000000000E+00  0.00000000000E+00  0.18501942819E+03  0.18501942820E+03  0.25500000000E-02 0.  1.
         -2   -1    0    0    0  501 -0.00000000000E+00 -0.00000000000E+00 -0.19098285782E+03  0.19098285784E+03  0.25500000000E-02 0. -1.
    5000001    1    1    2    0    0 -0.88253883491E+02 -0.15533235769E+02 -0.11955568258E+02  0.18814346913E+03  0.16500000000E+03 0.  0.
   -5000001    1    1    2    0    0  0.88253883491E+02  0.15533235769E+02  0.59921386232E+01  0.18785881691E+03  0.16500000000E+03 0.  0.
<mgrwt>
<rscale>  0 0.37595499E+03</rscale>
<asrwt>0</asrwt>
<pdfrwt beam="1">  1        2 0.26431347E-01 0.37595499E+03</pdfrwt>
<pdfrwt beam="2">  1       -2 0.27283265E-01 0.37595499E+03</pdfrwt>
<totfact> 0.24709529E+03</totfact>
</mgrwt>
</event>
<event>
 4    1  0.3584860E-005  0.6724157E+03  0.7818608E-02  0.9765604E-01
         -2   -1    0    0    0  501 -0.00000000000E+00  0.00000000000E+00  0.73636352466E+02  0.73636352511E+02  0.25500000000E-02 0. -1.
          2   -1    0    0  501    0  0.00000000000E+00 -0.00000000000E+00 -0.15350534118E+04  0.15350534118E+04  0.25500000000E-02 0.  1.
    5000001    1    1    2    0    0 -0.27770153105E+03  0.58312448725E+01 -0.50809168649E+03  0.60210821756E+03  0.16500000000E+03 0.  0.
   -5000001    1    1    2    0    0  0.27770153105E+03 -0.58312448725E+01 -0.95332537284E+03  0.10065815468E+04  0.16500000000E+03 0.  0.
<mgrwt>
<rscale>  0 0.67241575E+03</rscale>
<asrwt>0</asrwt>
<pdfrwt beam="1">  1        2 0.21929333E+00 0.67241575E+03</pdfrwt>
<pdfrwt beam="2">  1       -2 0.10519480E-01 0.67241575E+03</pdfrwt>
<totfact> 0.89687968E+02</totfact>
</mgrwt>
</event>
<event>
 4    1  0.3584860E-005  0.4275242E+03  0.7818608E-02  0.1034645E+00
          2   -1    0    0  501    0  0.00000000000E+00  0.00000000000E+00  0.80394479166E+03  0.80394479166E+03  0.25500000000E-02 0.  1.
         -2   -1    0    0    0  501 -0.00000000000E+00 -0.00000000000E+00 -0.56837536013E+02  0.56837536070E+02  0.25500000000E-02 0. -1.
    5000001    1    1    2    0    0 -0.11015869342E+03  0.40312228442E+02  0.51172162156E+03  0.55031266700E+03  0.16500000000E+03 0.  0.
   -5000001    1    1    2    0    0  0.11015869342E+03 -0.40312228442E+02  0.23538563409E+03  0.31046966073E+03  0.16500000000E+03 0.  0.
<mgrwt>
<rscale>  0 0.42752423E+03</rscale>
<asrwt>0</asrwt>
<pdfrwt beam="1">  1        2 0.11484926E+00 0.42752423E+03</pdfrwt>
<pdfrwt beam="2">  1       -2 0.81196479E-02 0.42752423E+03</pdfrwt>
<totfact> 0.36011735E+03</totfact>
</mgrwt>
</event>
<event>
 4    1  0.3584860E-005  0.5817017E+03  0.7818608E-02  0.9944114E-01
         -2   -1    0    0    0  501 -0.00000000000E+00  0.00000000000E+00  0.96453847686E+02  0.96453847720E+02  0.25500000000E-02 0. -1.
          2   -1    0    0  501    0  0.00000000000E+00 -0.00000000000E+00 -0.87704351947E+03  0.87704351947E+03  0.25500000000E-02 0.  1.
    5000001    1    1    2    0    0 -0.23902020982E+03  0.71878976155E+01 -0.36741600429E+03  0.46840350851E+03  0.16500000000E+03 0.  0.
   -5000001    1    1    2    0    0  0.23902020982E+03 -0.71878976155E+01 -0.41317366749E+03  0.50509385868E+03  0.16500000000E+03 0.  0.
<mgrwt>
<rscale>  0 0.58170172E+03</rscale>
<asrwt>0</asrwt>
<pdfrwt beam="1">  1        2 0.12529193E+00 0.58170172E+03</pdfrwt>
<pdfrwt beam="2">  1       -2 0.13779122E-01 0.58170172E+03</pdfrwt>
<totfact> 0.13649232E+03</totfact>
</mgrwt>
</event>
<event>
 4    1  0.3584860E-005  0.4701818E+03  0.7818608E-02  0.1021869E+00
         -2   -1    0    0    0  501 -0.00000000000E+00  0.00000000000E+00  0.23690389757E+03  0.23690389759E+03  0.25500000000E-02 0. -1.
          2   -1    0    0  501    0  0.00000000000E+00 -0.00000000000E+00 -0.23329181527E+03  0.23329181528E+03  0.25500000000E-02 0.  1.
    5000001    1    1    2    0    0  0.13484673492E+03 -0.83175050483E+02 -0.52426633007E+02  0.23468123655E+03  0.16500000000E+03 0.  0.
   -5000001    1    1    2    0    0 -0.13484673492E+03  0.83175050483E+02  0.56038715313E+02  0.23551447632E+03  0.16500000000E+03 0.  0.
<mgrwt>
<rscale>  0 0.47018184E+03</rscale>
<asrwt>0</asrwt>
<pdfrwt beam="1">  1        2 0.33327402E-01 0.47018184E+03</pdfrwt>
<pdfrwt beam="2">  1       -2 0.33843414E-01 0.47018184E+03</pdfrwt>
<totfact> 0.12877784E+03</totfact>
</mgrwt>
</event>
<event>
 4    1  0.3584860E-005  0.4285805E+03  0.7818608E-02  0.1034309E+00
         -2   -1    0    0    0  501 -0.00000000000E+00  0.00000000000E+00  0.37891865669E+02  0.37891865755E+02  0.25500000000E-02 0.  1.
          2   -1    0    0  501    0  0.00000000000E+00 -0.00000000000E+00 -0.12118777222E+04  0.12118777222E+04  0.25500000000E-02 0. -1.
    5000001    1    1    2    0    0 -0.10336668003E+03  0.74752924236E+02 -0.44346322213E+03  0.49005846550E+03  0.16500000000E+03 0.  0.
   -5000001    1    1    2    0    0  0.10336668003E+03 -0.74752924236E+02 -0.73052263442E+03  0.75971112248E+03  0.16500000000E+03 0.  0.
<mgrwt>
<rscale>  0 0.42858048E+03</rscale>
<asrwt>0</asrwt>
<pdfrwt beam="1">  1        2 0.17312537E+00 0.42858048E+03</pdfrwt>
<pdfrwt beam="2">  1       -2 0.54131244E-02 0.42858048E+03</pdfrwt>
<totfact> 0.38447461E+03</totfact>
</mgrwt>
</event>
<event>
 4    1  0.3584860E-005  0.5913033E+03  0.7818608E-02  0.9923615E-01
         -2   -1    0    0    0  501 -0.00000000000E+00  0.00000000000E+00  0.10906650744E+03  0.10906650747E+03  0.25500000000E-02 0. -1.
          2   -1    0    0  501    0  0.00000000000E+00 -0.00000000000E+00 -0.80143672389E+03  0.80143672389E+03  0.25500000000E-02 0.  1.
    5000001    1    1    2    0    0 -0.23468198902E+03 -0.28954162876E+02 -0.24555402658E+03  0.37872913737E+03  0.16500000000E+03 0.  0.
   -5000001    1    1    2    0    0  0.23468198902E+03  0.28954162876E+02 -0.44681618986E+03  0.53177409399E+03  0.16500000000E+03 0.  0.
<mgrwt>
<rscale>  0 0.59130332E+03</rscale>
<asrwt>0</asrwt>
<pdfrwt beam="1">  1        2 0.11449096E+00 0.59130332E+03</pdfrwt>
<pdfrwt beam="2">  1       -2 0.15580930E-01 0.59130332E+03</pdfrwt>
<totfact> 0.12483409E+03</totfact>
</mgrwt>
</event>
<event>
 4    1  0.3584860E-005  0.5018145E+03  0.7818608E-02  0.1013306E+00
          2   -1    0    0  501    0  0.00000000000E+00  0.00000000000E+00  0.17613780669E+04  0.17613780669E+04  0.25500000000E-02 0.  1.
         -2   -1    0    0    0  501 -0.00000000000E+00 -0.00000000000E+00 -0.35741586769E+02  0.35741586860E+02  0.25500000000E-02 0. -1.
    5000001    1    1    2    0    0 -0.17919431502E+03 -0.52642697614E+02  0.96708045471E+03  0.99867485301E+03  0.16500000000E+03 0.  0.
   -5000001    1    1    2    0    0  0.17919431502E+03  0.52642697614E+02  0.75855602542E+03  0.79844480076E+03  0.16500000000E+03 0.  0.
<mgrwt>
<rscale>  0 0.50181450E+03</rscale>
<asrwt>0</asrwt>
<pdfrwt beam="1">  1        2 0.25162544E+00 0.50181450E+03</pdfrwt>
<pdfrwt beam="2">  1       -2 0.51059410E-02 0.50181450E+03</pdfrwt>
<totfact> 0.21760976E+03</totfact>
</mgrwt>
</event>
<event>
 4    1  0.3584860E-005  0.7170587E+03  0.7818608E-02  0.9688496E-01
          2   -1    0    0  501    0  0.00000000000E+00  0.00000000000E+00  0.38765359504E+03  0.38765359505E+03  0.25500000000E-02 0. -1.
         -2   -1    0    0    0  501 -0.00000000000E+00 -0.00000000000E+00 -0.33159318189E+03  0.33159318190E+03  0.25500000000E-02 0.  1.
    5000001    1    1    2    0    0 -0.28538115856E+03 -0.10078751999E+03 -0.70849300244E+02  0.35191640086E+03  0.16500000000E+03 0.  0.
   -5000001    1    1    2    0    0  0.28538115856E+03  0.10078751999E+03  0.12690971339E+03  0.36733037609E+03  0.16500000000E+03 0.  0.
<mgrwt>
<rscale>  0 0.71705868E+03</rscale>
<asrwt>0</asrwt>
<pdfrwt beam="1">  1        2 0.55379085E-01 0.71705868E+03</pdfrwt>
<pdfrwt beam="2">  1       -2 0.47370455E-01 0.71705868E+03</pdfrwt>
<totfact> 0.38122051E+02</totfact>
</mgrwt>
</event>
<event>
 4    1  0.3584860E-005  0.4286928E+03  0.7818608E-02  0.1034274E+00
          2   -1    0    0  501    0  0.00000000000E+00  0.00000000000E+00  0.91856384900E+03  0.91856384900E+03  0.25500000000E-02 0.  1.
         -2   -1    0    0    0  501 -0.00000000000E+00 -0.00000000000E+00 -0.50017625079E+02  0.50017625144E+02  0.25500000000E-02 0. -1.
    5000001    1    1    2    0    0 -0.13144589003E+03  0.35104482897E+02  0.46693941579E+03  0.51358325980E+03  0.16500000000E+03 0.  0.
   -5000001    1    1    2    0    0  0.13144589003E+03 -0.35104482897E+02  0.40160680813E+03  0.45499821435E+03  0.16500000000E+03 0.  0.
<mgrwt>
<rscale>  0 0.42869281E+03</rscale>
<asrwt>0</asrwt>
<pdfrwt beam="1">  1        2 0.13122339E+00 0.42869281E+03</pdfrwt>
<pdfrwt beam="2">  1       -2 0.71453761E-02 0.42869281E+03</pdfrwt>
<totfact> 0.37058265E+03</totfact>
</mgrwt>
</event>
<event>
 4    1  0.3584860E-005  0.7449297E+03  0.7818608E-02  0.9643339E-01
          2   -1    0    0  501    0  0.00000000000E+00  0.00000000000E+00  0.21567636059E+04  0.21567636059E+04  0.25500000000E-02 0.  1.
         -2   -1    0    0    0  501 -0.00000000000E+00 -0.00000000000E+00 -0.64323250924E+02  0.64323250974E+02  0.25500000000E-02 0. -1.
    5000001    1    1    2    0    0 -0.14862917021E+02 -0.89377379930E+02  0.20044984984E+04  0.20133177724E+04  0.16500000000E+03 0.  0.
   -5000001    1    1    2    0    0  0.14862917021E+02  0.89377379930E+02  0.87941856559E+02  0.20776908452E+03  0.16500000000E+03 0.  0.
<mgrwt>
<rscale>  0 0.74492965E+03</rscale>
<asrwt>0</asrwt>
<pdfrwt beam="1">  1        2 0.30810912E+00 0.74492965E+03</pdfrwt>
<pdfrwt beam="2">  1       -2 0.91890349E-02 0.74492965E+03</pdfrwt>
<totfact> 0.53685215E+02</totfact>
</mgrwt>
</event>
<event>
 4    1  0.3584860E-005  0.3939616E+03  0.7818608E-02  0.1045891E+00
         -2   -1    0    0    0  501 -0.00000000000E+00  0.00000000000E+00  0.75142972509E+02  0.75142972552E+02  0.25500000000E-02 0. -1.
          2   -1    0    0  501    0  0.00000000000E+00 -0.00000000000E+00 -0.51636824097E+03  0.51636824097E+03  0.25500000000E-02 0.  1.
    5000001    1    1    2    0    0  0.97613316077E+02  0.38331479806E+02 -0.18449104734E+03  0.26881147365E+03  0.16500000000E+03 0.  0.
   -5000001    1    1    2    0    0 -0.97613316077E+02 -0.38331479806E+02 -0.25673422112E+03  0.32269973987E+03  0.16500000000E+03 0.  0.
<mgrwt>
<rscale>  0 0.39396165E+03</rscale>
<asrwt>0</asrwt>
<pdfrwt beam="1">  1        2 0.73766890E-01 0.39396165E+03</pdfrwt>
<pdfrwt beam="2">  1       -2 0.10734711E-01 0.39396165E+03</pdfrwt>
<totfact> 0.38907584E+03</totfact>
</mgrwt>
</event>
<event>
 4    1  0.3584860E-005  0.5269892E+03  0.7818608E-02  0.1006965E+00
          2   -1    0    0  501    0  0.00000000000E+00  0.00000000000E+00  0.71021072699E+03  0.71021072699E+03  0.25500000000E-02 0.  1.
         -2   -1    0    0    0  501 -0.00000000000E+00 -0.00000000000E+00 -0.97758867695E+02  0.97758867728E+02  0.25500000000E-02 0. -1.
    5000001    1    1    2    0    0  0.16995332645E+03 -0.10926440727E+03  0.36321309383E+03  0.44718183706E+03  0.16500000000E+03 0.  0.
   -5000001    1    1    2    0    0 -0.16995332645E+03  0.10926440727E+03  0.24923876547E+03  0.36078775766E+03  0.16500000000E+03 0.  0.
<mgrwt>
<rscale>  0 0.52698917E+03</rscale>
<asrwt>0</asrwt>
<pdfrwt beam="1">  1        2 0.10145867E+00 0.52698917E+03</pdfrwt>
<pdfrwt beam="2">  1       -2 0.13965553E-01 0.52698917E+03</pdfrwt>
<totfact> 0.17454113E+03</totfact>
</mgrwt>
</event>
<event>
 4    1  0.3584860E-005  0.6296554E+03  0.7818608E-02  0.9845721E-01
         -2   -1    0    0    0  501 -0.00000000000E+00  0.00000000000E+00  0.10072796643E+03  0.10072796647E+03  0.25500000000E-02 0. -1.
          2   -1    0    0  501    0  0.00000000000E+00 -0.00000000000E+00 -0.98400166318E+03  0.98400166318E+03  0.25500000000E-02 0.  1.
    5000001    1    1    2    0    0  0.16538297294E+03 -0.20794787027E+03 -0.37957910063E+03  0.49183242891E+03  0.16500000000E+03 0.  0.
   -5000001    1    1    2    0    0 -0.16538297294E+03  0.20794787027E+03 -0.50369459612E+03  0.59289720074E+03  0.16500000000E+03 0.  0.
<mgrwt>
<rscale>  0 0.62965542E+03</rscale>
<asrwt>0</asrwt>
<pdfrwt beam="1">  1        2 0.14057166E+00 0.62965542E+03</pdfrwt>
<pdfrwt beam="2">  1       -2 0.14389710E-01 0.62965542E+03</pdfrwt>
<totfact> 0.10848428E+03</totfact>
</mgrwt>
</event>
<event>
 4    1  0.3584860E-005  0.5539979E+03  0.7818608E-02  0.1000573E+00
          2   -1    0    0  501    0  0.00000000000E+00  0.00000000000E+00  0.23317155267E+03  0.23317155269E+03  0.25500000000E-02 0.  1.
         -2   -1    0    0    0  501 -0.00000000000E+00 -0.00000000000E+00 -0.32906420426E+03  0.32906420427E+03  0.25500000000E-02 0. -1.
    5000001    1    1    2    0    0 -0.12324763220E+03  0.16444898891E+03  0.38585616686E+02  0.26635934114E+03  0.16500000000E+03 0.  0.
   -5000001    1    1    2    0    0  0.12324763220E+03 -0.16444898891E+03 -0.13447826828E+03  0.29587641582E+03  0.16500000000E+03 0.  0.
<mgrwt>
<rscale>  0 0.55399788E+03</rscale>
<asrwt>0</asrwt>
<pdfrwt beam="1">  1        2 0.33310222E-01 0.55399788E+03</pdfrwt>
<pdfrwt beam="2">  1       -2 0.47009172E-01 0.55399788E+03</pdfrwt>
<totfact> 0.68224266E+02</totfact>
</mgrwt>
</event>
<event>
 4    1  0.3584860E-005  0.5724491E+03  0.7818608E-02  0.9964274E-01
          2   -1    0    0  501    0  0.00000000000E+00  0.00000000000E+00  0.28830198098E+04  0.28830198098E+04  0.25500000000E-02 0.  1.
         -2   -1    0    0    0  501 -0.00000000000E+00 -0.00000000000E+00 -0.28416206425E+02  0.28416206539E+02  0.25500000000E-02 0. -1.
    5000001    1    1    2    0    0  0.85197027062E+02  0.20703754091E+03  0.10832428768E+04  0.11183752532E+04  0.16500000000E+03 0.  0.
   -5000001    1    1    2    0    0 -0.85197027062E+02 -0.20703754091E+03  0.17713607266E+04  0.17930607632E+04  0.16500000000E+03 0.  0.
<mgrwt>
<rscale>  0 0.57244908E+03</rscale>
<asrwt>0</asrwt>
<pdfrwt beam="1">  1        2 0.41185981E+00 0.57244908E+03</pdfrwt>
<pdfrwt beam="2">  1       -2 0.40594597E-02 0.57244908E+03</pdfrwt>
<totfact> 0.82787775E+02</totfact>
</mgrwt>
</event>
<event>
 4    1  0.3584860E-005  0.6168678E+03  0.7818608E-02  0.9871016E-01
          2   -1    0    0  501    0  0.00000000000E+00  0.00000000000E+00  0.79157573410E+02  0.79157573451E+02  0.25500000000E-02 0.  1.
         -2   -1    0    0    0  501 -0.00000000000E+00 -0.00000000000E+00 -0.12017989085E+04  0.12017989085E+04  0.25500000000E-02 0. -1.
    5000001    1    1    2    0    0 -0.83988919220E+02 -0.22950748613E+03 -0.74911536885E+03  0.80506314075E+03  0.16500000000E+03 0.  0.
   -5000001    1    1    2    0    0  0.83988919220E+02  0.22950748613E+03 -0.37352596619E+03  0.47589334116E+03  0.16500000000E+03 0.  0.
<mgrwt>
<rscale>  0 0.61686785E+03</rscale>
<asrwt>0</asrwt>
<pdfrwt beam="1">  1        2 0.11308225E-01 0.61686785E+03</pdfrwt>
<pdfrwt beam="2">  1       -2 0.17168555E+00 0.61686785E+03</pdfrwt>
<totfact> 0.12020884E+02</totfact>
</mgrwt>
</event>
<event>
 4    1  0.3584860E-005  0.8725934E+03  0.7818608E-02  0.9460505E-01
         -2   -1    0    0    0  501 -0.00000000000E+00  0.00000000000E+00  0.18462064627E+03  0.18462064629E+03  0.25500000000E-02 0. -1.
          2   -1    0    0  501    0  0.00000000000E+00 -0.00000000000E+00 -0.10310590715E+04  0.10310590715E+04  0.25500000000E-02 0.  1.
    5000001    1    1    2    0    0  0.38210808201E+03 -0.82050917469E+01 -0.24127243727E+03  0.48115621045E+03  0.16500000000E+03 0.  0.
   -5000001    1    1    2    0    0 -0.38210808201E+03  0.82050917469E+01 -0.60516598798E+03  0.73452350737E+03  0.16500000000E+03 0.  0.
<mgrwt>
<rscale>  0 0.87259336E+03</rscale>
<asrwt>0</asrwt>
<pdfrwt beam="1">  1        2 0.14729415E+00 0.87259336E+03</pdfrwt>
<pdfrwt beam="2">  1       -2 0.26374379E-01 0.87259336E+03</pdfrwt>
<totfact> 0.34971081E+02</totfact>
</mgrwt>
</event>
<event>
 4    1  0.3584860E-005  0.3591182E+03  0.7818608E-02  0.1058934E+00
         -2   -1    0    0    0  501 -0.00000000000E+00  0.00000000000E+00  0.14900011825E+02  0.14900012043E+02  0.25500000000E-02 0. -1.
          2   -1    0    0  501    0  0.00000000000E+00 -0.00000000000E+00 -0.21638548549E+04  0.21638548549E+04  0.25500000000E-02 0.  1.
    5000001    1    1    2    0    0  0.67668937646E+02 -0.10262259870E+02 -0.96392151665E+03  0.98033366226E+03  0.16500000000E+03 0.  0.
   -5000001    1    1    2    0    0 -0.67668937646E+02  0.10262259870E+02 -0.11850333264E+04  0.11984212047E+04  0.16500000000E+03 0.  0.
<mgrwt>
<rscale>  0 0.35911816E+03</rscale>
<asrwt>0</asrwt>
<pdfrwt beam="1">  1        2 0.30912192E+00 0.35911816E+03</pdfrwt>
<pdfrwt beam="2">  1       -2 0.21285745E-02 0.35911816E+03</pdfrwt>
<totfact> 0.51791164E+03</totfact>
</mgrwt>
</event>
<event>
 4    1  0.3584860E-005  0.7584691E+03  0.7818608E-02  0.9622157E-01
         -2   -1    0    0    0  501 -0.00000000000E+00  0.00000000000E+00  0.74264715749E+03  0.74264715750E+03  0.25500000000E-02 0.  1.
          2   -1    0    0  501    0  0.00000000000E+00 -0.00000000000E+00 -0.19365701308E+03  0.19365701310E+03  0.25500000000E-02 0. -1.
    5000001    1    1    2    0    0  0.10734169063E+03 -0.31311538796E+03  0.17098862002E+03  0.40746238219E+03  0.16500000000E+03 0.  0.
   -5000001    1    1    2    0    0 -0.10734169063E+03  0.31311538796E+03  0.37800152438E+03  0.52884178840E+03  0.16500000000E+03 0.  0.
<mgrwt>
<rscale>  0 0.75846906E+03</rscale>
<asrwt>0</asrwt>
<pdfrwt beam="1">  1        2 0.27665288E-01 0.75846906E+03</pdfrwt>
<pdfrwt beam="2">  1       -2 0.10609245E+00 0.75846906E+03</pdfrwt>
<totfact> 0.14112260E+02</totfact>
</mgrwt>
</event>
<event>
 4    1  0.3584860E-005  0.4509403E+03  0.7818608E-02  0.1027442E+00
          2   -1    0    0  501    0  0.00000000000E+00  0.00000000000E+00  0.39861079721E+02  0.39861079803E+02  0.25500000000E-02 0.  1.
         -2   -1    0    0    0  501 -0.00000000000E+00 -0.00000000000E+00 -0.12753489154E+04  0.12753489154E+04  0.25500000000E-02 0. -1.
    5000001    1    1    2    0    0 -0.14725636761E+03 -0.39408062292E+02 -0.56131315080E+03  0.60459481178E+03  0.16500000000E+03 0.  0.
   -5000001    1    1    2    0    0  0.14725636761E+03  0.39408062292E+02 -0.67417468485E+03  0.71061518339E+03  0.16500000000E+03 0.  0.
<mgrwt>
<rscale>  0 0.45094028E+03</rscale>
<asrwt>0</asrwt>
<pdfrwt beam="1">  1        2 0.56944408E-02 0.45094028E+03</pdfrwt>
<pdfrwt beam="2">  1       -2 0.18219268E+00 0.45094028E+03</pdfrwt>
<totfact> 0.24880227E+02</totfact>
</mgrwt>
</event>
<event>
 4    1  0.3584860E-005  0.4704617E+03  0.7818608E-02  0.1021790E+00
          2   -1    0    0  501    0  0.00000000000E+00  0.00000000000E+00  0.13285744656E+04  0.13285744656E+04  0.25500000000E-02 0.  1.
         -2   -1    0    0    0  501 -0.00000000000E+00 -0.00000000000E+00 -0.41648812739E+02  0.41648812817E+02  0.25500000000E-02 0. -1.
    5000001    1    1    2    0    0 -0.13653569849E+03  0.86733305546E+02  0.77187389792E+03  0.80571643743E+03  0.16500000000E+03 0.  0.
   -5000001    1    1    2    0    0  0.13653569849E+03 -0.86733305546E+02  0.51505175492E+03  0.56450684097E+03  0.16500000000E+03 0.  0.
<mgrwt>
<rscale>  0 0.47046168E+03</rscale>
<asrwt>0</asrwt>
<pdfrwt beam="1">  1        2 0.18979637E+00 0.47046168E+03</pdfrwt>
<pdfrwt beam="2">  1       -2 0.59498300E-02 0.47046168E+03</pdfrwt>
<totfact> 0.28704676E+03</totfact>
</mgrwt>
</event>
<event>
 4    1  0.3584860E-005  0.6698268E+03  0.7818608E-02  0.9770271E-01
          2   -1    0    0  501    0  0.00000000000E+00  0.00000000000E+00  0.95610262775E+03  0.95610262776E+03  0.25500000000E-02 0.  1.
         -2   -1    0    0    0  501 -0.00000000000E+00 -0.00000000000E+00 -0.11731688912E+03  0.11731688915E+03  0.25500000000E-02 0. -1.
    5000001    1    1    2    0    0 -0.10197524623E+03 -0.27300344832E+03  0.42497933278E+03  0.54107510286E+03  0.16500000000E+03 0.  0.
   -5000001    1    1    2    0    0  0.10197524623E+03  0.27300344832E+03  0.41380640585E+03  0.53234441404E+03  0.16500000000E+03 0.  0.
<mgrwt>
<rscale>  0 0.66982680E+03</rscale>
<asrwt>0</asrwt>
<pdfrwt beam="1">  1        2 0.13658609E+00 0.66982680E+03</pdfrwt>
<pdfrwt beam="2">  1       -2 0.16759556E-01 0.66982680E+03</pdfrwt>
<totfact> 0.87130183E+02</totfact>
</mgrwt>
</event>
<event>
 4    1  0.3584860E-005  0.3738482E+03  0.7818608E-02  0.1053231E+00
          2   -1    0    0  501    0  0.00000000000E+00  0.00000000000E+00  0.56146749037E+03  0.56146749037E+03  0.25500000000E-02 0.  1.
         -2   -1    0    0    0  501 -0.00000000000E+00 -0.00000000000E+00 -0.62230888272E+02  0.62230888324E+02  0.25500000000E-02 0. -1.
    5000001    1    1    2    0    0 -0.25750748746E+02  0.83806115084E+02  0.25861094618E+03  0.31904731227E+03  0.16500000000E+03 0.  0.
   -5000001    1    1    2    0    0  0.25750748746E+02 -0.83806115084E+02  0.24062565592E+03  0.30465106642E+03  0.16500000000E+03 0.  0.
<mgrwt>
<rscale>  0 0.37384821E+03</rscale>
<asrwt>0</asrwt>
<pdfrwt beam="1">  1        2 0.80209640E-01 0.37384821E+03</pdfrwt>
<pdfrwt beam="2">  1       -2 0.88901270E-02 0.37384821E+03</pdfrwt>
<totfact> 0.47795424E+03</totfact>
</mgrwt>
</event>
<event>
 4    1  0.3584860E-005  0.5097733E+03  0.7818608E-02  0.1011259E+00
         -2   -1    0    0    0  501 -0.00000000000E+00  0.00000000000E+00  0.58216139281E+02  0.58216139337E+02  0.25500000000E-02 0. -1.
          2   -1    0    0  501    0  0.00000000000E+00 -0.00000000000E+00 -0.11159654445E+04  0.11159654445E+04  0.25500000000E-02 0.  1.
    5000001    1    1    2    0    0 -0.65698828993E+01 -0.18443580991E+03 -0.38910022844E+03  0.46117645116E+03  0.16500000000E+03 0.  0.
   -5000001    1    1    2    0    0  0.65698828993E+01  0.18443580991E+03 -0.66864907678E+03  0.71300513267E+03  0.16500000000E+03 0.  0.
<mgrwt>
<rscale>  0 0.50977328E+03</rscale>
<asrwt>0</asrwt>
<pdfrwt beam="1">  1        2 0.15942362E+00 0.50977328E+03</pdfrwt>
<pdfrwt beam="2">  1       -2 0.83165920E-02 0.50977328E+03</pdfrwt>
<totfact> 0.22208872E+03</totfact>
</mgrwt>
</event>
<event>
 4    1  0.3584860E-005  0.1320082E+04  0.7818608E-02  0.9013790E-01
         -2   -1    0    0    0  501 -0.00000000000E+00  0.00000000000E+00  0.39128455990E+03  0.39128455991E+03  0.25500000000E-02 0. -1.
          2   -1    0    0  501    0  0.00000000000E+00 -0.00000000000E+00 -0.11133942127E+04  0.11133942127E+04  0.25500000000E-02 0.  1.
    5000001    1    1    2    0    0 -0.48013232060E+03 -0.33230257662E+03 -0.64966981853E+02  0.61024401385E+03  0.16500000000E+03 0.  0.
   -5000001    1    1    2    0    0  0.48013232060E+03  0.33230257662E+03 -0.65714267099E+03  0.89443475880E+03  0.16500000000E+03 0.  0.
<mgrwt>
<rscale>  0 0.13200818E+04</rscale>
<asrwt>0</asrwt>
<pdfrwt beam="1">  1        2 0.15905631E+00 0.13200818E+04</pdfrwt>
<pdfrwt beam="2">  1       -2 0.55897795E-01 0.13200818E+04</pdfrwt>
<totfact> 0.70638564E+01</totfact>
</mgrwt>
</event>
<event>
 4    1  0.3584860E-005  0.5654128E+03  0.7818608E-02  0.9979881E-01
          2   -1    0    0  501    0  0.00000000000E+00  0.00000000000E+00  0.17076369962E+04  0.17076369962E+04  0.25500000000E-02 0.  1.
         -2   -1    0    0    0  501 -0.00000000000E+00 -0.00000000000E+00 -0.46803223307E+02  0.46803223377E+02  0.25500000000E-02 0. -1.
    5000001    1    1    2    0    0 -0.10565513255E+02 -0.20106515283E+03  0.48826144163E+03  0.55332003500E+03  0.16500000000E+03 0.  0.
   -5000001    1    1    2    0    0  0.10565513255E+02  0.20106515283E+03  0.11725723313E+04  0.12011201846E+04  0.16500000000E+03 0.  0.
<mgrwt>
<rscale>  0 0.56541283E+03</rscale>
<asrwt>0</asrwt>
<pdfrwt beam="1">  1        2 0.24394813E+00 0.56541283E+03</pdfrwt>
<pdfrwt beam="2">  1       -2 0.66861750E-02 0.56541283E+03</pdfrwt>
<totfact> 0.15177201E+03</totfact>
</mgrwt>
</event>
<event>
 4    1  0.3584860E-005  0.5351168E+03  0.7818608E-02  0.1004999E+00
          2   -1    0    0  501    0  0.00000000000E+00  0.00000000000E+00  0.11053982662E+04  0.11053982662E+04  0.25500000000E-02 0. -1.
         -2   -1    0    0    0  501 -0.00000000000E+00 -0.00000000000E+00 -0.64761717888E+02  0.64761717938E+02  0.25500000000E-02 0.  1.
    5000001    1    1    2    0    0  0.19521865749E+03  0.49703577887E+02  0.65479322953E+03  0.70467009538E+03  0.16500000000E+03 0.  0.
   -5000001    1    1    2    0    0 -0.19521865749E+03 -0.49703577887E+02  0.38584331876E+03  0.46548988874E+03  0.16500000000E+03 0.  0.
<mgrwt>
<rscale>  0 0.53511677E+03</rscale>
<asrwt>0</asrwt>
<pdfrwt beam="1">  1        2 0.15791404E+00 0.53511677E+03</pdfrwt>
<pdfrwt beam="2">  1       -2 0.92516741E-02 0.53511677E+03</pdfrwt>
<totfact> 0.18988177E+03</totfact>
</mgrwt>
</event>
<event>
 4    1  0.3584860E-005  0.4242478E+03  0.7818608E-02  0.1035693E+00
          2   -1    0    0  501    0  0.00000000000E+00  0.00000000000E+00  0.97319678700E+03  0.97319678700E+03  0.25500000000E-02 0.  1.
         -2   -1    0    0    0  501 -0.00000000000E+00 -0.00000000000E+00 -0.46235817575E+02  0.46235817645E+02  0.25500000000E-02 0. -1.
    5000001    1    1    2    0    0 -0.39341304259E+02  0.36563388458E+02  0.75666530868E+03  0.77630664621E+03  0.16500000000E+03 0.  0.
   -5000001    1    1    2    0    0  0.39341304259E+02 -0.36563388458E+02  0.17029566075E+03  0.24312595844E+03  0.16500000000E+03 0.  0.
<mgrwt>
<rscale>  0 0.42424780E+03</rscale>
<asrwt>0</asrwt>
<pdfrwt beam="1">  1        2 0.13902811E+00 0.42424780E+03</pdfrwt>
<pdfrwt beam="2">  1       -2 0.66051169E-02 0.42424780E+03</pdfrwt>
<totfact> 0.38765219E+03</totfact>
</mgrwt>
</event>
<event>
 4    1  0.3584860E-005  0.6596049E+03  0.7818608E-02  0.9788921E-01
          2   -1    0    0  501    0  0.00000000000E+00  0.00000000000E+00  0.36529212395E+02  0.36529212484E+02  0.25500000000E-02 0.  1.
         -2   -1    0    0    0  501 -0.00000000000E+00 -0.00000000000E+00 -0.29776073462E+04  0.29776073462E+04  0.25500000000E-02 0. -1.
    5000001    1    1    2    0    0  0.10844038011E+03 -0.12709827508E+03 -0.41228857018E+03  0.47446828416E+03  0.16500000000E+03 0.  0.
   -5000001    1    1    2    0    0 -0.10844038011E+03  0.12709827508E+03 -0.25287895637E+04  0.25396682746E+04  0.16500000000E+03 0.  0.
<mgrwt>
<rscale>  0 0.65960489E+03</rscale>
<asrwt>0</asrwt>
<pdfrwt beam="1">  1        2 0.52184608E-02 0.65960489E+03</pdfrwt>
<pdfrwt beam="2">  1       -2 0.42537232E+00 0.65960489E+03</pdfrwt>
<totfact> 0.85370127E+00</totfact>
</mgrwt>
</event>
<event>
 4    1  0.3584860E-005  0.3687604E+03  0.7818608E-02  0.1055168E+00
          2   -1    0    0  501    0  0.00000000000E+00  0.00000000000E+00  0.92461790806E+02  0.92461790841E+02  0.25500000000E-02 0.  1.
         -2   -1    0    0    0  501 -0.00000000000E+00 -0.00000000000E+00 -0.36767691923E+03  0.36767691924E+03  0.25500000000E-02 0. -1.
    5000001    1    1    2    0    0  0.76470484152E+02 -0.14082401938E+00 -0.17552322174E+03  0.25274721789E+03  0.16500000000E+03 0.  0.
   -5000001    1    1    2    0    0 -0.76470484152E+02  0.14082401938E+00 -0.99691906684E+02  0.20739149220E+03  0.16500000000E+03 0.  0.
<mgrwt>
<rscale>  0 0.36876044E+03</rscale>
<asrwt>0</asrwt>
<pdfrwt beam="1">  1        2 0.13208827E-01 0.36876044E+03</pdfrwt>
<pdfrwt beam="2">  1       -2 0.52525273E-01 0.36876044E+03</pdfrwt>
<totfact> 0.15905583E+03</totfact>
</mgrwt>
</event>
<event>
 4    1  0.3584860E-005  0.5241230E+03  0.7818608E-02  0.1007667E+00
          2   -1    0    0  501    0  0.00000000000E+00  0.00000000000E+00  0.15338411615E+03  0.15338411617E+03  0.25500000000E-02 0.  1.
         -2   -1    0    0    0  501 -0.00000000000E+00 -0.00000000000E+00 -0.44774022685E+03  0.44774022685E+03  0.25500000000E-02 0. -1.
    5000001    1    1    2    0    0  0.14479420215E+03  0.13957346219E+03 -0.11081658297E+03  0.28275683437E+03  0.16500000000E+03 0.  0.
   -5000001    1    1    2    0    0 -0.14479420215E+03 -0.13957346219E+03 -0.18353952773E+03  0.31836750865E+03  0.16500000000E+03 0.  0.
<mgrwt>
<rscale>  0 0.52412304E+03</rscale>
<asrwt>0</asrwt>
<pdfrwt beam="1">  1        2 0.21912017E-01 0.52412304E+03</pdfrwt>
<pdfrwt beam="2">  1       -2 0.63962889E-01 0.52412304E+03</pdfrwt>
<totfact> 0.58128446E+02</totfact>
</mgrwt>
</event>
<event>
 4    1  0.3584860E-005  0.3994763E+03  0.7818608E-02  0.1043961E+00
         -2   -1    0    0    0  501 -0.00000000000E+00  0.00000000000E+00  0.40603140507E+02  0.40603140587E+02  0.25500000000E-02 0. -1.
          2   -1    0    0  501    0  0.00000000000E+00 -0.00000000000E+00 -0.98256753891E+03  0.98256753892E+03  0.25500000000E-02 0.  1.
    5000001    1    1    2    0    0 -0.62311090341E+02  0.93462072846E+02 -0.48953987837E+03  0.52867014626E+03  0.16500000000E+03 0.  0.
   -5000001    1    1    2    0    0  0.62311090341E+02 -0.93462072846E+02 -0.45242452004E+03  0.49450053324E+03  0.16500000000E+03 0.  0.
<mgrwt>
<rscale>  0 0.39947630E+03</rscale>
<asrwt>0</asrwt>
<pdfrwt beam="1">  1        2 0.14036678E+00 0.39947630E+03</pdfrwt>
<pdfrwt beam="2">  1       -2 0.58004493E-02 0.39947630E+03</pdfrwt>
<totfact> 0.46789088E+03</totfact>
</mgrwt>
</event>
<event>
 4    1  0.3584860E-005  0.4665181E+03  0.7818608E-02  0.1022908E+00
         -2   -1    0    0    0  501 -0.00000000000E+00  0.00000000000E+00  0.23516866668E+02  0.23516866806E+02  0.25500000000E-02 0. -1.
          2   -1    0    0  501    0  0.00000000000E+00 -0.00000000000E+00 -0.23136496893E+04  0.23136496893E+04  0.25500000000E-02 0.  1.
    5000001    1    1    2    0    0 -0.12318012776E+03  0.32209343756E+02 -0.16698783767E+04  0.16828337941E+04  0.16500000000E+03 0.  0.
   -5000001    1    1    2    0    0  0.12318012776E+03 -0.32209343756E+02 -0.62025444601E+03  0.65433276205E+03  0.16500000000E+03 0.  0.
<mgrwt>
<rscale>  0 0.46651813E+03</rscale>
<asrwt>0</asrwt>
<pdfrwt beam="1">  1        2 0.33052124E+00 0.46651813E+03</pdfrwt>
<pdfrwt beam="2">  1       -2 0.33595539E-02 0.46651813E+03</pdfrwt>
<totfact> 0.21911498E+03</totfact>
</mgrwt>
</event>
<event>
 4    1  0.3584860E-005  0.8091563E+03  0.7818608E-02  0.9546857E-01
          2   -1    0    0  501    0  0.00000000000E+00  0.00000000000E+00  0.30354269500E+03  0.30354269501E+03  0.25500000000E-02 0.  1.
         -2   -1    0    0    0  501 -0.00000000000E+00 -0.00000000000E+00 -0.53924373892E+03  0.53924373892E+03  0.25500000000E-02 0. -1.
    5000001    1    1    2    0    0  0.83493164642E+02 -0.24057466317E+03 -0.39657533351E+03  0.49934384171E+03  0.16500000000E+03 0.  0.
   -5000001    1    1    2    0    0 -0.83493164642E+02  0.24057466317E+03  0.16087428959E+03  0.34344259223E+03  0.16500000000E+03 0.  0.
<mgrwt>
<rscale>  0 0.80915635E+03</rscale>
<asrwt>0</asrwt>
<pdfrwt beam="1">  1        2 0.43363242E-01 0.80915635E+03</pdfrwt>
<pdfrwt beam="2">  1       -2 0.77034820E-01 0.80915635E+03</pdfrwt>
<totfact> 0.17833715E+02</totfact>
</mgrwt>
</event>
<event>
 4    1  0.3584860E-005  0.5700684E+03  0.7818608E-02  0.9969527E-01
          2   -1    0    0  501    0  0.00000000000E+00  0.00000000000E+00  0.15871939943E+03  0.15871939945E+03  0.25500000000E-02 0.  1.
         -2   -1    0    0    0  501 -0.00000000000E+00 -0.00000000000E+00 -0.51187504075E+03  0.51187504076E+03  0.25500000000E-02 0. -1.
    5000001    1    1    2    0    0  0.21170521646E+03  0.88988538074E+02 -0.21868752462E+03  0.35747348435E+03  0.16500000000E+03 0.  0.
   -5000001    1    1    2    0    0 -0.21170521646E+03 -0.88988538074E+02 -0.13446811670E+03  0.31312095586E+03  0.16500000000E+03 0.  0.
<mgrwt>
<rscale>  0 0.57006841E+03</rscale>
<asrwt>0</asrwt>
<pdfrwt beam="1">  1        2 0.22674200E-01 0.57006841E+03</pdfrwt>
<pdfrwt beam="2">  1       -2 0.73125005E-01 0.57006841E+03</pdfrwt>
<totfact> 0.41829044E+02</totfact>
</mgrwt>
</event>
<event>
 4    1  0.3584860E-005  0.4927618E+03  0.7818608E-02  0.1015686E+00
         -2   -1    0    0    0  501 -0.00000000000E+00  0.00000000000E+00  0.32918528259E+02  0.32918528357E+02  0.25500000000E-02 0. -1.
          2   -1    0    0  501    0  0.00000000000E+00 -0.00000000000E+00 -0.18440538543E+04  0.18440538543E+04  0.25500000000E-02 0.  1.
    5000001    1    1    2    0    0 -0.14520427391E+03  0.11130295743E+03 -0.91482735742E+03  0.94742109084E+03  0.16500000000E+03 0.  0.
   -5000001    1    1    2    0    0  0.14520427391E+03 -0.11130295743E+03 -0.89630796858E+03  0.92955129177E+03  0.16500000000E+03 0.  0.
<mgrwt>
<rscale>  0 0.49276176E+03</rscale>
<asrwt>0</asrwt>
<pdfrwt beam="1">  1        2 0.26343620E+00 0.49276176E+03</pdfrwt>
<pdfrwt beam="2">  1       -2 0.47026481E-02 0.49276176E+03</pdfrwt>
<totfact> 0.22463596E+03</totfact>
</mgrwt>
</event>
<event>
 4    1  0.3584860E-005  0.6421076E+03  0.7818608E-02  0.9821702E-01
         -2   -1    0    0    0  501 -0.00000000000E+00  0.00000000000E+00  0.29748640004E+03  0.29748640005E+03  0.25500000000E-02 0. -1.
          2   -1    0    0  501    0  0.00000000000E+00 -0.00000000000E+00 -0.34648829575E+03  0.34648829575E+03  0.25500000000E-02 0.  1.
    5000001    1    1    2    0    0 -0.22928465953E+03  0.14867786827E+03  0.98622491795E+01  0.31937255293E+03  0.16500000000E+03 0.  0.
   -5000001    1    1    2    0    0  0.22928465953E+03 -0.14867786827E+03 -0.58864144884E+02  0.32460214288E+03  0.16500000000E+03 0.  0.
<mgrwt>
<rscale>  0 0.64210764E+03</rscale>
<asrwt>0</asrwt>
<pdfrwt beam="1">  1        2 0.49498328E-01 0.64210764E+03</pdfrwt>
<pdfrwt beam="2">  1       -2 0.42498057E-01 0.64210764E+03</pdfrwt>
<totfact> 0.53680268E+02</totfact>
</mgrwt>
</event>
<event>
 4    1  0.3584860E-005  0.9122247E+03  0.7818608E-02  0.9410428E-01
         -2   -1    0    0    0  501 -0.00000000000E+00  0.00000000000E+00  0.13478416449E+03  0.13478416452E+03  0.25500000000E-02 0.  1.
          2   -1    0    0  501    0  0.00000000000E+00 -0.00000000000E+00 -0.15434933422E+04  0.15434933422E+04  0.25500000000E-02 0. -1.
    5000001    1    1    2    0    0  0.42188861273E+03 -0.53115944613E+02 -0.70705561445E+03  0.84140593476E+03  0.16500000000E+03 0.  0.
   -5000001    1    1    2    0    0 -0.42188861273E+03  0.53115944613E+02 -0.70165356325E+03  0.83687157196E+03  0.16500000000E+03 0.  0.
<mgrwt>
<rscale>  0 0.91222467E+03</rscale>
<asrwt>0</asrwt>
<pdfrwt beam="1">  1        2 0.22049904E+00 0.91222467E+03</pdfrwt>
<pdfrwt beam="2">  1       -2 0.19254882E-01 0.91222467E+03</pdfrwt>
<totfact> 0.31677983E+02</totfact>
</mgrwt>
</event>
<event>
 4    1  0.3584860E-005  0.6563947E+03  0.7818608E-02  0.9794853E-01
         -2   -1    0    0    0  501 -0.00000000000E+00  0.00000000000E+00  0.11031297996E+03  0.11031297999E+03  0.25500000000E-02 0.  1.
          2   -1    0    0  501    0  0.00000000000E+00 -0.00000000000E+00 -0.97643553297E+03  0.97643553297E+03  0.25500000000E-02 0. -1.
    5000001    1    1    2    0    0  0.15710455098E+03  0.76856198563E+02 -0.63221721705E+02  0.24861758041E+03  0.16500000000E+03 0.  0.
   -5000001    1    1    2    0    0 -0.15710455098E+03 -0.76856198563E+02 -0.80290083130E+03  0.83813093255E+03  0.16500000000E+03 0.  0.
<mgrwt>
<rscale>  0 0.65639474E+03</rscale>
<asrwt>0</asrwt>
<pdfrwt beam="1">  1        2 0.13949079E+00 0.65639474E+03</pdfrwt>
<pdfrwt beam="2">  1       -2 0.15758998E-01 0.65639474E+03</pdfrwt>
<totfact> 0.94006369E+02</totfact>
</mgrwt>
</event>
<event>
 4    1  0.3584860E-005  0.4203678E+03  0.7818608E-02  0.1036947E+00
         -2   -1    0    0    0  501 -0.00000000000E+00  0.00000000000E+00  0.95391014542E+02  0.95391014576E+02  0.25500000000E-02 0. -1.
          2   -1    0    0  501    0  0.00000000000E+00 -0.00000000000E+00 -0.46311766993E+03  0.46311766994E+03  0.25500000000E-02 0.  1.
    5000001    1    1    2    0    0 -0.10484718696E+03 -0.88631537662E+01 -0.28575011178E+03  0.34633742866E+03  0.16500000000E+03 0.  0.
   -5000001    1    1    2    0    0  0.10484718696E+03  0.88631537662E+01 -0.81976543608E+02  0.21217125585E+03  0.16500000000E+03 0.  0.
<mgrwt>
<rscale>  0 0.42036776E+03</rscale>
<asrwt>0</asrwt>
<pdfrwt beam="1">  1        2 0.66159666E-01 0.42036776E+03</pdfrwt>
<pdfrwt beam="2">  1       -2 0.13627288E-01 0.42036776E+03</pdfrwt>
<totfact> 0.29801917E+03</totfact>
</mgrwt>
</event>
<event>
 4    1  0.3584860E-005  0.4426893E+03  0.7818608E-02  0.1029925E+00
         -2   -1    0    0    0  501 -0.00000000000E+00  0.00000000000E+00  0.10136387817E+03  0.10136387821E+03  0.25500000000E-02 0. -1.
          2   -1    0    0  501    0  0.00000000000E+00 -0.00000000000E+00 -0.48334242748E+03  0.48334242749E+03  0.25500000000E-02 0.  1.
    5000001    1    1    2    0    0  0.12018750252E+03 -0.72476422323E+02 -0.13088763300E+03  0.25308978649E+03  0.16500000000E+03 0.  0.
   -5000001    1    1    2    0    0 -0.12018750252E+03  0.72476422323E+02 -0.25109091631E+03  0.33161651920E+03  0.16500000000E+03 0.  0.
<mgrwt>
<rscale>  0 0.44268934E+03</rscale>
<asrwt>0</asrwt>
<pdfrwt beam="1">  1        2 0.69048917E-01 0.44268934E+03</pdfrwt>
<pdfrwt beam="2">  1       -2 0.14480554E-01 0.44268934E+03</pdfrwt>
<totfact> 0.25705543E+03</totfact>
</mgrwt>
</event>
<event>
 4    1  0.3584860E-005  0.3886438E+03  0.7818608E-02  0.1047784E+00
         -2   -1    0    0    0  501 -0.00000000000E+00  0.00000000000E+00  0.25917614281E+02  0.25917614407E+02  0.25500000000E-02 0. -1.
          2   -1    0    0  501    0  0.00000000000E+00 -0.00000000000E+00 -0.14569627237E+04  0.14569627237E+04  0.25500000000E-02 0.  1.
    5000001    1    1    2    0    0  0.66492170754E+02 -0.40833795848E+02 -0.46106989007E+03  0.49588209403E+03  0.16500000000E+03 0.  0.
   -5000001    1    1    2    0    0 -0.66492170754E+02  0.40833795848E+02 -0.96997521934E+03  0.98699824407E+03  0.16500000000E+03 0.  0.
<mgrwt>
<rscale>  0 0.38864379E+03</rscale>
<asrwt>0</asrwt>
<pdfrwt beam="1">  1        2 0.20813748E+00 0.38864379E+03</pdfrwt>
<pdfrwt beam="2">  1       -2 0.37025173E-02 0.38864379E+03</pdfrwt>
<totfact> 0.50873264E+03</totfact>
</mgrwt>
</event>
<event>
 4    1  0.3584860E-005  0.7866624E+03  0.7818608E-02  0.9579526E-01
         -2   -1    0    0    0  501 -0.00000000000E+00  0.00000000000E+00  0.13906868271E+03  0.13906868273E+03  0.25500000000E-02 0. -1.
          2   -1    0    0  501    0  0.00000000000E+00 -0.00000000000E+00 -0.11124678033E+04  0.11124678033E+04  0.25500000000E-02 0.  1.
    5000001    1    1    2    0    0 -0.19789911723E+03  0.28258063515E+03 -0.34029324664E+03  0.51189878851E+03  0.16500000000E+03 0.  0.
   -5000001    1    1    2    0    0  0.19789911723E+03 -0.28258063515E+03 -0.63310587393E+03  0.73963769751E+03  0.16500000000E+03 0.  0.
<mgrwt>
<rscale>  0 0.78666240E+03</rscale>
<asrwt>0</asrwt>
<pdfrwt beam="1">  1        2 0.15892397E+00 0.78666240E+03</pdfrwt>
<pdfrwt beam="2">  1       -2 0.19866955E-01 0.78666240E+03</pdfrwt>
<totfact> 0.52039670E+02</totfact>
</mgrwt>
</event>
<event>
 4    1  0.3584860E-005  0.4977395E+03  0.7818608E-02  0.1014371E+00
         -2   -1    0    0    0  501 -0.00000000000E+00  0.00000000000E+00  0.45220925161E+02  0.45220925233E+02  0.25500000000E-02 0. -1.
          2   -1    0    0  501    0  0.00000000000E+00 -0.00000000000E+00 -0.13696350125E+04  0.13696350125E+04  0.25500000000E-02 0.  1.
    5000001    1    1    2    0    0  0.78292360647E+02 -0.14254714965E+03 -0.92057988557E+03  0.94928484099E+03  0.16500000000E+03 0.  0.
   -5000001    1    1    2    0    0 -0.78292360647E+02  0.14254714965E+03 -0.40383420176E+03  0.46557109674E+03  0.16500000000E+03 0.  0.
<mgrwt>
<rscale>  0 0.49773954E+03</rscale>
<asrwt>0</asrwt>
<pdfrwt beam="1">  1        2 0.19566212E+00 0.49773954E+03</pdfrwt>
<pdfrwt beam="2">  1       -2 0.64601330E-02 0.49773954E+03</pdfrwt>
<totfact> 0.23997617E+03</totfact>
</mgrwt>
</event>
<event>
 4    1  0.3584860E-005  0.5123183E+03  0.7818608E-02  0.1010613E+00
          2   -1    0    0  501    0  0.00000000000E+00  0.00000000000E+00  0.79686847385E+03  0.79686847385E+03  0.25500000000E-02 0.  1.
         -2   -1    0    0    0  501 -0.00000000000E+00 -0.00000000000E+00 -0.82344230393E+02  0.82344230432E+02  0.25500000000E-02 0. -1.
    5000001    1    1    2    0    0  0.78049726172E+01  0.18748352021E+03  0.45406143671E+03  0.51827384292E+03  0.16500000000E+03 0.  0.
   -5000001    1    1    2    0    0 -0.78049726172E+01 -0.18748352021E+03  0.26046280674E+03  0.36093886136E+03  0.16500000000E+03 0.  0.
<mgrwt>
<rscale>  0 0.51231834E+03</rscale>
<asrwt>0</asrwt>
<pdfrwt beam="1">  1        2 0.11383834E+00 0.51231834E+03</pdfrwt>
<pdfrwt beam="2">  1       -2 0.11763462E-01 0.51231834E+03</pdfrwt>
<totfact> 0.20078042E+03</totfact>
</mgrwt>
</event>
<event>
 4    1  0.3584860E-005  0.4058684E+03  0.7818608E-02  0.1041766E+00
         -2   -1    0    0    0  501 -0.00000000000E+00  0.00000000000E+00  0.60828271171E+02  0.60828271225E+02  0.25500000000E-02 0. -1.
          2   -1    0    0  501    0  0.00000000000E+00 -0.00000000000E+00 -0.67702545406E+03  0.67702545407E+03  0.25500000000E-02 0.  1.
    5000001    1    1    2    0    0  0.10016313478E+03 -0.55170168978E+02 -0.36205525646E+03  0.41398720976E+03  0.16500000000E+03 0.  0.
   -5000001    1    1    2    0    0 -0.10016313478E+03  0.55170168978E+02 -0.25414192644E+03  0.32386651554E+03  0.16500000000E+03 0.  0.
<mgrwt>
<rscale>  0 0.40586839E+03</rscale>
<asrwt>0</asrwt>
<pdfrwt beam="1">  1        2 0.96717917E-01 0.40586839E+03</pdfrwt>
<pdfrwt beam="2">  1       -2 0.86897534E-02 0.40586839E+03</pdfrwt>
<totfact> 0.39904150E+03</totfact>
</mgrwt>
</event>
<event>
 4    1  0.3584860E-005  0.6978308E+03  0.7818608E-02  0.9720949E-01
         -2   -1    0    0    0  501 -0.00000000000E+00  0.00000000000E+00  0.30209594300E+03  0.30209594301E+03  0.25500000000E-02 0.  1.
          2   -1    0    0  501    0  0.00000000000E+00 -0.00000000000E+00 -0.40299103878E+03  0.40299103878E+03  0.25500000000E-02 0. -1.
    5000001    1    1    2    0    0  0.15434161859E+03  0.12412778432E+03 -0.28802633945E+03  0.38654005522E+03  0.16500000000E+03 0.  0.
   -5000001    1    1    2    0    0 -0.15434161859E+03 -0.12412778432E+03  0.18713124368E+03  0.31854692657E+03  0.16500000000E+03 0.  0.
<mgrwt>
<rscale>  0 0.69783080E+03</rscale>
<asrwt>0</asrwt>
<pdfrwt beam="1">  1        2 0.57570148E-01 0.69783080E+03</pdfrwt>
<pdfrwt beam="2">  1       -2 0.43156564E-01 0.69783080E+03</pdfrwt>
<totfact> 0.43971747E+02</totfact>
</mgrwt>
</event>
<event>
 4    1  0.3584860E-005  0.4491422E+03  0.7818608E-02  0.1027978E+00
         -2   -1    0    0    0  501 -0.00000000000E+00  0.00000000000E+00  0.19010571812E+03  0.19010571814E+03  0.25500000000E-02 0. -1.
          2   -1    0    0  501    0  0.00000000000E+00 -0.00000000000E+00 -0.26528489731E+03  0.26528489733E+03  0.25500000000E-02 0.  1.
    5000001    1    1    2    0    0  0.15074468835E+03  0.18912805778E+02 -0.26230127089E+02  0.22582000544E+03  0.16500000000E+03 0.  0.
   -5000001    1    1    2    0    0 -0.15074468835E+03 -0.18912805778E+02 -0.48949052100E+02  0.22957061003E+03  0.16500000000E+03 0.  0.
<mgrwt>
<rscale>  0 0.44914219E+03</rscale>
<asrwt>0</asrwt>
<pdfrwt beam="1">  1        2 0.37897843E-01 0.44914219E+03</pdfrwt>
<pdfrwt beam="2">  1       -2 0.27157960E-01 0.44914219E+03</pdfrwt>
<totfact> 0.16750837E+03</totfact>
</mgrwt>
</event>
<event>
 4    1  0.3584860E-005  0.3720694E+03  0.7818608E-02  0.1053905E+00
         -2   -1    0    0    0  501 -0.00000000000E+00  0.00000000000E+00  0.48876910620E+02  0.48876910687E+02  0.25500000000E-02 0. -1.
          2   -1    0    0  501    0  0.00000000000E+00 -0.00000000000E+00 -0.70808287087E+03  0.70808287088E+03  0.25500000000E-02 0.  1.
    5000001    1    1    2    0    0  0.68523286683E+02 -0.36460489473E+02 -0.40460514794E+03  0.44379627517E+03  0.16500000000E+03 0.  0.
   -5000001    1    1    2    0    0 -0.68523286683E+02  0.36460489473E+02 -0.25460081231E+03  0.31316350640E+03  0.16500000000E+03 0.  0.
<mgrwt>
<rscale>  0 0.37206937E+03</rscale>
<asrwt>0</asrwt>
<pdfrwt beam="1">  1        2 0.10115469E+00 0.37206937E+03</pdfrwt>
<pdfrwt beam="2">  1       -2 0.69824162E-02 0.37206937E+03</pdfrwt>
<totfact> 0.53269542E+03</totfact>
</mgrwt>
</event>
<event>
 4    1  0.3584860E-005  0.3447790E+03  0.7818608E-02  0.1064779E+00
         -2   -1    0    0    0  501 -0.00000000000E+00  0.00000000000E+00  0.93915768277E+01  0.93915771739E+01  0.25500000000E-02 0. -1.
          2   -1    0    0  501    0  0.00000000000E+00 -0.00000000000E+00 -0.31643388649E+04  0.31643388649E+04  0.25500000000E-02 0.  1.
    5000001    1    1    2    0    0  0.13796437525E+02 -0.40404020727E+02 -0.13391507913E+04  0.13499528394E+04  0.16500000000E+03 0.  0.
   -5000001    1    1    2    0    0 -0.13796437525E+02  0.40404020727E+02 -0.18157964967E+04  0.18237776027E+04  0.16500000000E+03 0.  0.
<mgrwt>
<rscale>  0 0.34477896E+03</rscale>
<asrwt>0</asrwt>
<pdfrwt beam="1">  1        2 0.45204773E+00 0.34477896E+03</pdfrwt>
<pdfrwt beam="2">  1       -2 0.13416559E-02 0.34477896E+03</pdfrwt>
<totfact> 0.31286415E+03</totfact>
</mgrwt>
</event>
<event>
 4    1  0.3584860E-005  0.9546077E+03  0.7818608E-02  0.9359781E-01
         -2   -1    0    0    0  501 -0.00000000000E+00  0.00000000000E+00  0.90703746601E+02  0.90703746637E+02  0.25500000000E-02 0. -1.
          2   -1    0    0  501    0  0.00000000000E+00 -0.00000000000E+00 -0.25116817410E+04  0.25116817410E+04  0.25500000000E-02 0.  1.
    5000001    1    1    2    0    0  0.44434571702E+03 -0.30626758879E+02 -0.10822498256E+04  0.11818928883E+04  0.16500000000E+03 0.  0.
   -5000001    1    1    2    0    0 -0.44434571702E+03  0.30626758879E+02 -0.13387281688E+04  0.14204925993E+04  0.16500000000E+03 0.  0.
<mgrwt>
<rscale>  0 0.95460766E+03</rscale>
<asrwt>0</asrwt>
<pdfrwt beam="1">  1        2 0.35881163E+00 0.95460766E+03</pdfrwt>
<pdfrwt beam="2">  1       -2 0.12957680E-01 0.95460766E+03</pdfrwt>
<totfact> 0.19757286E+02</totfact>
</mgrwt>
</event>
<event>
 4    1  0.3584860E-005  0.6470973E+03  0.7818608E-02  0.9812241E-01
          2   -1    0    0  501    0  0.00000000000E+00  0.00000000000E+00  0.63129997526E+03  0.63129997527E+03  0.25500000000E-02 0.  1.
         -2   -1    0    0    0  501 -0.00000000000E+00 -0.00000000000E+00 -0.16582250257E+03  0.16582250259E+03  0.25500000000E-02 0. -1.
    5000001    1    1    2    0    0  0.22111391388E+03 -0.92234898243E+02  0.40720923984E+03  0.50044280830E+03  0.16500000000E+03 0.  0.
   -5000001    1    1    2    0    0 -0.22111391388E+03  0.92234898243E+02  0.58268232853E+02  0.29667966955E+03  0.16500000000E+03 0.  0.
<mgrwt>
<rscale>  0 0.64709734E+03</rscale>
<asrwt>0</asrwt>
<pdfrwt beam="1">  1        2 0.90185712E-01 0.64709734E+03</pdfrwt>
<pdfrwt beam="2">  1       -2 0.23688929E-01 0.64709734E+03</pdfrwt>
<totfact> 0.80907236E+02</totfact>
</mgrwt>
</event>
<event>
 4    1  0.3584860E-005  0.4127548E+03  0.7818608E-02  0.1039450E+00
         -2   -1    0    0    0  501 -0.00000000000E+00  0.00000000000E+00  0.95288161140E+02  0.95288161174E+02  0.25500000000E-02 0.  1.
          2   -1    0    0  501    0  0.00000000000E+00 -0.00000000000E+00 -0.44697721282E+03  0.44697721283E+03  0.25500000000E-02 0. -1.
    5000001    1    1    2    0    0 -0.97074521221E+02 -0.72797744675E+02 -0.20917555942E+03  0.29274970360E+03  0.16500000000E+03 0.  0.
   -5000001    1    1    2    0    0  0.97074521221E+02  0.72797744675E+02 -0.14251349227E+03  0.24951567041E+03  0.16500000000E+03 0.  0.
<mgrwt>
<rscale>  0 0.41275483E+03</rscale>
<asrwt>0</asrwt>
<pdfrwt beam="1">  1        2 0.63853886E-01 0.41275483E+03</pdfrwt>
<pdfrwt beam="2">  1       -2 0.13612595E-01 0.41275483E+03</pdfrwt>
<totfact> 0.31046291E+03</totfact>
</mgrwt>
</event>
<event>
 4    1  0.3584860E-005  0.5139520E+03  0.7818608E-02  0.1010200E+00
          2   -1    0    0  501    0  0.00000000000E+00  0.00000000000E+00  0.21663675251E+03  0.21663675252E+03  0.25500000000E-02 0.  1.
         -2   -1    0    0    0  501 -0.00000000000E+00 -0.00000000000E+00 -0.30482669077E+03  0.30482669078E+03  0.25500000000E-02 0. -1.
    5000001    1    1    2    0    0  0.32626480766E+02 -0.19391668940E+03 -0.31940968985E+02  0.25867623620E+03  0.16500000000E+03 0.  0.
   -5000001    1    1    2    0    0 -0.32626480766E+02  0.19391668940E+03 -0.56248969275E+02  0.26278720711E+03  0.16500000000E+03 0.  0.
<mgrwt>
<rscale>  0 0.51395200E+03</rscale>
<asrwt>0</asrwt>
<pdfrwt beam="1">  1        2 0.30948108E-01 0.51395200E+03</pdfrwt>
<pdfrwt beam="2">  1       -2 0.43546670E-01 0.51395200E+03</pdfrwt>
<totfact> 0.86204919E+02</totfact>
</mgrwt>
</event>
<event>
 4    1  0.3584860E-005  0.4401524E+03  0.7818608E-02  0.1030700E+00
          2   -1    0    0  501    0  0.00000000000E+00  0.00000000000E+00  0.22988771078E+04  0.22988771078E+04  0.25500000000E-02 0.  1.
         -2   -1    0    0    0  501 -0.00000000000E+00 -0.00000000000E+00 -0.21068344034E+02  0.21068344188E+02  0.25500000000E-02 0. -1.
    5000001    1    1    2    0    0  0.10945638328E+03  0.28528514628E+02  0.16223803239E+04  0.16346673947E+04  0.16500000000E+03 0.  0.
   -5000001    1    1    2    0    0 -0.10945638328E+03 -0.28528514628E+02  0.65542843986E+03  0.68527805726E+03  0.16500000000E+03 0.  0.
<mgrwt>
<rscale>  0 0.44015240E+03</rscale>
<asrwt>0</asrwt>
<pdfrwt beam="1">  1        2 0.32841066E+00 0.44015240E+03</pdfrwt>
<pdfrwt beam="2">  1       -2 0.30097667E-02 0.44015240E+03</pdfrwt>
<totfact> 0.26355934E+03</totfact>
</mgrwt>
</event>
<event>
 4    1  0.3584860E-005  0.5042815E+03  0.7818608E-02  0.1012667E+00
         -2   -1    0    0    0  501 -0.00000000000E+00  0.00000000000E+00  0.10925828421E+03  0.10925828424E+03  0.25500000000E-02 0. -1.
          2   -1    0    0  501    0  0.00000000000E+00 -0.00000000000E+00 -0.58187774172E+03  0.58187774173E+03  0.25500000000E-02 0.  1.
    5000001    1    1    2    0    0  0.16050975090E+03  0.94320445712E+02 -0.29265588406E+03  0.38409919694E+03  0.16500000000E+03 0.  0.
   -5000001    1    1    2    0    0 -0.16050975090E+03 -0.94320445712E+02 -0.17996357344E+03  0.30703682903E+03  0.16500000000E+03 0.  0.
<mgrwt>
<rscale>  0 0.50428152E+03</rscale>
<asrwt>0</asrwt>
<pdfrwt beam="1">  1        2 0.83125390E-01 0.50428152E+03</pdfrwt>
<pdfrwt beam="2">  1       -2 0.15608327E-01 0.50428152E+03</pdfrwt>
<totfact> 0.18366467E+03</totfact>
</mgrwt>
</event>
<event>
 4    1  0.3584860E-005  0.4683938E+03  0.7818608E-02  0.1022375E+00
          2   -1    0    0  501    0  0.00000000000E+00  0.00000000000E+00  0.20313907753E+04  0.20313907753E+04  0.25500000000E-02 0.  1.
         -2   -1    0    0    0  501 -0.00000000000E+00 -0.00000000000E+00 -0.27000312604E+02  0.27000312725E+02  0.25500000000E-02 0. -1.
    5000001    1    1    2    0    0 -0.12213068816E+02 -0.15155489858E+03  0.12971605096E+04  0.13164225894E+04  0.16500000000E+03 0.  0.
   -5000001    1    1    2    0    0  0.12213068816E+02  0.15155489858E+03  0.70722995310E+03  0.74196849859E+03  0.16500000000E+03 0.  0.
<mgrwt>
<rscale>  0 0.46839379E+03</rscale>
<asrwt>0</asrwt>
<pdfrwt beam="1">  1        2 0.29019877E+00 0.46839379E+03</pdfrwt>
<pdfrwt beam="2">  1       -2 0.38571863E-02 0.46839379E+03</pdfrwt>
<totfact> 0.24565118E+03</totfact>
</mgrwt>
</event>
<event>
 4    1  0.3584860E-005  0.6144783E+03  0.7818608E-02  0.9875815E-01
          2   -1    0    0  501    0  0.00000000000E+00  0.00000000000E+00  0.83079433158E+03  0.83079433158E+03  0.25500000000E-02 0.  1.
         -2   -1    0    0    0  501 -0.00000000000E+00 -0.00000000000E+00 -0.11362126681E+03  0.11362126684E+03  0.25500000000E-02 0. -1.
    5000001    1    1    2    0    0  0.27773602239E+02  0.21432120878E+03  0.57845985737E+03  0.63917584443E+03  0.16500000000E+03 0.  0.
   -5000001    1    1    2    0    0 -0.27773602239E+02 -0.21432120878E+03  0.13871320739E+03  0.30523975399E+03  0.16500000000E+03 0.  0.
<mgrwt>
<rscale>  0 0.61447833E+03</rscale>
<asrwt>0</asrwt>
<pdfrwt beam="1">  1        2 0.11868491E+00 0.61447833E+03</pdfrwt>
<pdfrwt beam="2">  1       -2 0.16231609E-01 0.61447833E+03</pdfrwt>
<totfact> 0.11115972E+03</totfact>
</mgrwt>
</event>
<event>
 4    1  0.3584860E-005  0.9695509E+03  0.7818608E-02  0.9342586E-01
          2   -1    0    0  501    0  0.00000000000E+00  0.00000000000E+00  0.26755440566E+04  0.26755440566E+04  0.25500000000E-02 0.  1.
         -2   -1    0    0    0  501 -0.00000000000E+00 -0.00000000000E+00 -0.87835303337E+02  0.87835303374E+02  0.25500000000E-02 0. -1.
    5000001    1    1    2    0    0  0.22030763670E+03  0.35311989005E+03  0.76405249837E+03  0.88556780192E+03  0.16500000000E+03 0.  0.
   -5000001    1    1    2    0    0 -0.22030763670E+03 -0.35311989005E+03  0.18236562549E+04  0.18778115580E+04  0.16500000000E+03 0.  0.
<mgrwt>
<rscale>  0 0.96955087E+03</rscale>
<asrwt>0</asrwt>
<pdfrwt beam="1">  1        2 0.38222049E+00 0.96955087E+03</pdfrwt>
<pdfrwt beam="2">  1       -2 0.12547903E-01 0.96955087E+03</pdfrwt>
<totfact> 0.17079423E+02</totfact>
</mgrwt>
</event>
<event>
 4    1  0.3584860E-005  0.4906883E+03  0.7818608E-02  0.1016238E+00
         -2   -1    0    0    0  501 -0.00000000000E+00  0.00000000000E+00  0.19193903011E+02  0.19193903181E+02  0.25500000000E-02 0. -1.
          2   -1    0    0  501    0  0.00000000000E+00 -0.00000000000E+00 -0.31360872298E+04  0.31360872298E+04  0.25500000000E-02 0.  1.
    5000001    1    1    2    0    0 -0.12091596697E+03  0.10642729734E+03 -0.20972639713E+04  0.21099025110E+04  0.16500000000E+03 0.  0.
   -5000001    1    1    2    0    0  0.12091596697E+03 -0.10642729734E+03 -0.10196293555E+04  0.10453786220E+04  0.16500000000E+03 0.  0.
<mgrwt>
<rscale>  0 0.49068831E+03</rscale>
<asrwt>0</asrwt>
<pdfrwt beam="1">  1        2 0.44801213E+00 0.49068831E+03</pdfrwt>
<pdfrwt beam="2">  1       -2 0.27419882E-02 0.49068831E+03</pdfrwt>
<totfact> 0.11045186E+03</totfact>
</mgrwt>
</event>
<event>
 4    1  0.3584860E-005  0.7284078E+03  0.7818608E-02  0.9669848E-01
          2   -1    0    0  501    0  0.00000000000E+00  0.00000000000E+00  0.11763357344E+04  0.11763357344E+04  0.25500000000E-02 0.  1.
         -2   -1    0    0    0  501 -0.00000000000E+00 -0.00000000000E+00 -0.11276074794E+03  0.11276074797E+03  0.25500000000E-02 0. -1.
    5000001    1    1    2    0    0  0.18937644479E+03  0.25934539318E+03  0.44698682933E+03  0.57458306310E+03  0.16500000000E+03 0.  0.
   -5000001    1    1    2    0    0 -0.18937644479E+03 -0.25934539318E+03  0.61658815716E+03  0.71451341930E+03  0.16500000000E+03 0.  0.
<mgrwt>
<rscale>  0 0.72840785E+03</rscale>
<asrwt>0</asrwt>
<pdfrwt beam="1">  1        2 0.16804796E+00 0.72840785E+03</pdfrwt>
<pdfrwt beam="2">  1       -2 0.16108678E-01 0.72840785E+03</pdfrwt>
<totfact> 0.68808416E+02</totfact>
</mgrwt>
</event>
<event>
 4    1  0.3584860E-005  0.4414594E+03  0.7818608E-02  0.1030300E+00
          2   -1    0    0  501    0  0.00000000000E+00  0.00000000000E+00  0.40053708188E+03  0.40053708189E+03  0.25500000000E-02 0.  1.
         -2   -1    0    0    0  501 -0.00000000000E+00 -0.00000000000E+00 -0.12164065333E+03  0.12164065336E+03  0.25500000000E-02 0. -1.
    5000001    1    1    2    0    0  0.14949441045E+02 -0.11779258592E+03  0.24118667678E+03  0.31542763376E+03  0.16500000000E+03 0.  0.
   -5000001    1    1    2    0    0 -0.14949441045E+02  0.11779258592E+03  0.37709751767E+02  0.20675010148E+03  0.16500000000E+03 0.  0.
<mgrwt>
<rscale>  0 0.44145936E+03</rscale>
<asrwt>0</asrwt>
<pdfrwt beam="1">  1        2 0.57219583E-01 0.44145936E+03</pdfrwt>
<pdfrwt beam="2">  1       -2 0.17377236E-01 0.44145936E+03</pdfrwt>
<totfact> 0.23298756E+03</totfact>
</mgrwt>
</event>
<event>
 4    1  0.3584860E-005  0.3771129E+03  0.7818608E-02  0.1052006E+00
         -2   -1    0    0    0  501 -0.00000000000E+00  0.00000000000E+00  0.18765801736E+02  0.18765801909E+02  0.25500000000E-02 0. -1.
          2   -1    0    0  501    0  0.00000000000E+00 -0.00000000000E+00 -0.18945919833E+04  0.18945919833E+04  0.25500000000E-02 0.  1.
    5000001    1    1    2    0    0  0.88980823841E+02 -0.16323871505E+02 -0.87692689973E+03  0.89688898046E+03  0.16500000000E+03 0.  0.
   -5000001    1    1    2    0    0 -0.88980823841E+02  0.16323871505E+02 -0.99889928179E+03  0.10164688047E+04  0.16500000000E+03 0.  0.
<mgrwt>
<rscale>  0 0.37711292E+03</rscale>
<asrwt>0</asrwt>
<pdfrwt beam="1">  1        2 0.27065588E+00 0.37711292E+03</pdfrwt>
<pdfrwt beam="2">  1       -2 0.26808300E-02 0.37711292E+03</pdfrwt>
<totfact> 0.49853019E+03</totfact>
</mgrwt>
</event>
<event>
 4    1  0.3584860E-005  0.3954610E+03  0.7818608E-02  0.1045363E+00
         -2   -1    0    0    0  501 -0.00000000000E+00  0.00000000000E+00  0.12147597436E+02  0.12147597704E+02  0.25500000000E-02 0. -1.
          2   -1    0    0  501    0  0.00000000000E+00 -0.00000000000E+00 -0.32185261527E+04  0.32185261527E+04  0.25500000000E-02 0.  1.
    5000001    1    1    2    0    0  0.77523266793E+02 -0.36432146968E+02 -0.10530309164E+04  0.10693157948E+04  0.16500000000E+03 0.  0.
   -5000001    1    1    2    0    0 -0.77523266793E+02  0.36432146968E+02 -0.21533476389E+04  0.21613579556E+04  0.16500000000E+03 0.  0.
<mgrwt>
<rscale>  0 0.39546105E+03</rscale>
<asrwt>0</asrwt>
<pdfrwt beam="1">  1        2 0.45978890E+00 0.39546105E+03</pdfrwt>
<pdfrwt beam="2">  1       -2 0.17353731E-02 0.39546105E+03</pdfrwt>
<totfact> 0.19887763E+03</totfact>
</mgrwt>
</event>
<event>
 4    1  0.3584860E-005  0.3707857E+03  0.7818608E-02  0.1054393E+00
         -2   -1    0    0    0  501 -0.00000000000E+00  0.00000000000E+00  0.12677342322E+02  0.12677342578E+02  0.25500000000E-02 0. -1.
          2   -1    0    0  501    0  0.00000000000E+00 -0.00000000000E+00 -0.27111755196E+04  0.27111755196E+04  0.25500000000E-02 0.  1.
    5000001    1    1    2    0    0 -0.38073801679E+02  0.54055106456E+02 -0.17361578766E+04  0.17452337211E+04  0.16500000000E+03 0.  0.
   -5000001    1    1    2    0    0  0.38073801679E+02 -0.54055106456E+02 -0.96234030069E+03  0.97861914105E+03  0.16500000000E+03 0.  0.
<mgrwt>
<rscale>  0 0.37078566E+03</rscale>
<asrwt>0</asrwt>
<pdfrwt beam="1">  1        2 0.38731042E+00 0.37078566E+03</pdfrwt>
<pdfrwt beam="2">  1       -2 0.18110507E-02 0.37078566E+03</pdfrwt>
<totfact> 0.34912983E+03</totfact>
</mgrwt>
</event>
<event>
 4    1  0.3584860E-005  0.7455038E+03  0.7818608E-02  0.9642431E-01
          2   -1    0    0  501    0  0.00000000000E+00  0.00000000000E+00  0.36374196054E+03  0.36374196055E+03  0.25500000000E-02 0. -1.
         -2   -1    0    0    0  501 -0.00000000000E+00 -0.00000000000E+00 -0.38198503544E+03  0.38198503545E+03  0.25500000000E-02 0.  1.
    5000001    1    1    2    0    0 -0.70344128989E+01 -0.27433799706E+03 -0.19998789918E+03  0.37753275277E+03  0.16500000000E+03 0.  0.
   -5000001    1    1    2    0    0  0.70344128989E+01  0.27433799706E+03  0.18174482429E+03  0.36819424323E+03  0.16500000000E+03 0.  0.
<mgrwt>
<rscale>  0 0.74550382E+03</rscale>
<asrwt>0</asrwt>
<pdfrwt beam="1">  1        2 0.51963138E-01 0.74550382E+03</pdfrwt>
<pdfrwt beam="2">  1       -2 0.54569290E-01 0.74550382E+03</pdfrwt>
<totfact> 0.30641647E+02</totfact>
</mgrwt>
</event>
<event>
 4    1  0.3584860E-005  0.5355819E+03  0.7818608E-02  0.1004887E+00
         -2   -1    0    0    0  501 -0.00000000000E+00  0.00000000000E+00  0.74795463659E+02  0.74795463703E+02  0.25500000000E-02 0. -1.
          2   -1    0    0  501    0  0.00000000000E+00 -0.00000000000E+00 -0.95877477687E+03  0.95877477688E+03  0.25500000000E-02 0.  1.
    5000001    1    1    2    0    0 -0.13227517166E+03  0.85633193972E+01 -0.12537791601E+03  0.24599730344E+03  0.16500000000E+03 0.  0.
   -5000001    1    1    2    0    0  0.13227517166E+03 -0.85633193972E+01 -0.75860139720E+03  0.78757293714E+03  0.16500000000E+03 0.  0.
<mgrwt>
<rscale>  0 0.53558194E+03</rscale>
<asrwt>0</asrwt>
<pdfrwt beam="1">  1        2 0.13696782E+00 0.53558194E+03</pdfrwt>
<pdfrwt beam="2">  1       -2 0.10685067E-01 0.53558194E+03</pdfrwt>
<totfact> 0.18409715E+03</totfact>
</mgrwt>
</event>
<event>
 4    1  0.3584860E-005  0.4288667E+03  0.7818608E-02  0.1034219E+00
          2   -1    0    0  501    0  0.00000000000E+00  0.00000000000E+00  0.28702779738E+04  0.28702779738E+04  0.25500000000E-02 0.  1.
         -2   -1    0    0    0  501 -0.00000000000E+00 -0.00000000000E+00 -0.16019934442E+02  0.16019934645E+02  0.25500000000E-02 0. -1.
    5000001    1    1    2    0    0  0.83849659421E+02  0.10781733729E+03  0.13593851567E+04  0.13761570942E+04  0.16500000000E+03 0.  0.
   -5000001    1    1    2    0    0 -0.83849659421E+02 -0.10781733729E+03  0.14948728827E+04  0.15101408143E+04  0.16500000000E+03 0.  0.
<mgrwt>
<rscale>  0 0.42886672E+03</rscale>
<asrwt>0</asrwt>
<pdfrwt beam="1">  1        2 0.41004012E+00 0.42886672E+03</pdfrwt>
<pdfrwt beam="2">  1       -2 0.22885598E-02 0.42886672E+03</pdfrwt>
<totfact> 0.20277484E+03</totfact>
</mgrwt>
</event>
<event>
 4    1  0.3584860E-005  0.4170800E+03  0.7818608E-02  0.1038021E+00
         -2   -1    0    0    0  501 -0.00000000000E+00  0.00000000000E+00  0.11544416516E+03  0.11544416519E+03  0.25500000000E-02 0. -1.
          2   -1    0    0  501    0  0.00000000000E+00 -0.00000000000E+00 -0.37670972762E+03  0.37670972763E+03  0.25500000000E-02 0.  1.
    5000001    1    1    2    0    0  0.40687935132E+02 -0.10225647109E+03 -0.54597947623E+02  0.20571297925E+03  0.16500000000E+03 0.  0.
   -5000001    1    1    2    0    0 -0.40687935132E+02  0.10225647109E+03 -0.20666761484E+03  0.28644091357E+03  0.16500000000E+03 0.  0.
<mgrwt>
<rscale>  0 0.41708004E+03</rscale>
<asrwt>0</asrwt>
<pdfrwt beam="1">  1        2 0.53815675E-01 0.41708004E+03</pdfrwt>
<pdfrwt beam="2">  1       -2 0.16492024E-01 0.41708004E+03</pdfrwt>
<totfact> 0.27210233E+03</totfact>
</mgrwt>
</event>
<event>
 4    1  0.3584860E-005  0.4754457E+03  0.7818608E-02  0.1020394E+00
         -2   -1    0    0    0  501 -0.00000000000E+00  0.00000000000E+00  0.25474864999E+02  0.25474865127E+02  0.25500000000E-02 0. -1.
          2   -1    0    0  501    0  0.00000000000E+00 -0.00000000000E+00 -0.22183493546E+04  0.22183493546E+04  0.25500000000E-02 0.  1.
    5000001    1    1    2    0    0 -0.15069865516E+03 -0.77356095689E+02 -0.98150233017E+03  0.10095869821E+04  0.16500000000E+03 0.  0.
   -5000001    1    1    2    0    0  0.15069865516E+03  0.77356095689E+02 -0.12113721594E+04  0.12342372376E+04  0.16500000000E+03 0.  0.
<mgrwt>
<rscale>  0 0.47544569E+03</rscale>
<asrwt>0</asrwt>
<pdfrwt beam="1">  1        2 0.31690693E+00 0.47544569E+03</pdfrwt>
<pdfrwt beam="2">  1       -2 0.36392679E-02 0.47544569E+03</pdfrwt>
<totfact> 0.21649435E+03</totfact>
</mgrwt>
</event>
<event>
 4    1  0.3584860E-005  0.5901983E+03  0.7818608E-02  0.9925953E-01
         -2   -1    0    0    0  501 -0.00000000000E+00  0.00000000000E+00  0.32854788750E+02  0.32854788849E+02  0.25500000000E-02 0. -1.
          2   -1    0    0  501    0  0.00000000000E+00 -0.00000000000E+00 -0.26505571485E+04  0.26505571485E+04  0.25500000000E-02 0.  1.
    5000001    1    1    2    0    0  0.76299008848E+02  0.22809309011E+03 -0.11049868068E+04  0.11428336885E+04  0.16500000000E+03 0.  0.
   -5000001    1    1    2    0    0 -0.76299008848E+02 -0.22809309011E+03 -0.15127155530E+04  0.15405782489E+04  0.16500000000E+03 0.  0.
<mgrwt>
<rscale>  0 0.59019826E+03</rscale>
<asrwt>0</asrwt>
<pdfrwt beam="1">  1        2 0.37865089E+00 0.59019826E+03</pdfrwt>
<pdfrwt beam="2">  1       -2 0.46935429E-02 0.59019826E+03</pdfrwt>
<totfact> 0.87636871E+02</totfact>
</mgrwt>
</event>
<event>
 4    1  0.3584860E-005  0.9028628E+03  0.7818608E-02  0.9422010E-01
          2   -1    0    0  501    0  0.00000000000E+00  0.00000000000E+00  0.73435690928E+03  0.73435690929E+03  0.25500000000E-02 0.  1.
         -2   -1    0    0    0  501 -0.00000000000E+00 -0.00000000000E+00 -0.27750853746E+03  0.27750853747E+03  0.25500000000E-02 0. -1.
    5000001    1    1    2    0    0  0.22368166289E+03 -0.71671455500E+02 -0.16205820432E+03  0.32963335000E+03  0.16500000000E+03 0.  0.
   -5000001    1    1    2    0    0 -0.22368166289E+03  0.71671455500E+02  0.61890657614E+03  0.68223209675E+03  0.16500000000E+03 0.  0.
<mgrwt>
<rscale>  0 0.90286281E+03</rscale>
<asrwt>0</asrwt>
<pdfrwt beam="1">  1        2 0.10490813E+00 0.90286281E+03</pdfrwt>
<pdfrwt beam="2">  1       -2 0.39644077E-01 0.90286281E+03</pdfrwt>
<totfact> 0.25547202E+02</totfact>
</mgrwt>
</event>
<event>
 4    1  0.3584860E-005  0.4251377E+03  0.7818608E-02  0.1035407E+00
          2   -1    0    0  501    0  0.00000000000E+00  0.00000000000E+00  0.37729190318E+04  0.37729190318E+04  0.25500000000E-02 0.  1.
         -2   -1    0    0    0  501 -0.00000000000E+00 -0.00000000000E+00 -0.11976274030E+02  0.11976274302E+02  0.25500000000E-02 0. -1.
    5000001    1    1    2    0    0  0.47111388875E+02  0.12536164939E+03  0.19254162892E+04  0.19371081314E+04  0.16500000000E+03 0.  0.
   -5000001    1    1    2    0    0 -0.47111388875E+02 -0.12536164939E+03  0.18355264686E+04  0.18477871747E+04  0.16500000000E+03 0.  0.
<mgrwt>
<rscale>  0 0.42513768E+03</rscale>
<asrwt>0</asrwt>
<pdfrwt beam="1">  1        2 0.53898869E+00 0.42513768E+03</pdfrwt>
<pdfrwt beam="2">  1       -2 0.17108955E-02 0.42513768E+03</pdfrwt>
<totfact> 0.95582909E+02</totfact>
</mgrwt>
</event>
<event>
 4    1  0.3584860E-005  0.4170969E+03  0.7818608E-02  0.1038015E+00
          2   -1    0    0  501    0  0.00000000000E+00  0.00000000000E+00  0.15706225233E+04  0.15706225233E+04  0.25500000000E-02 0.  1.
         -2   -1    0    0    0  501 -0.00000000000E+00 -0.00000000000E+00 -0.27691216584E+02  0.27691216701E+02  0.25500000000E-02 0. -1.
    5000001    1    1    2    0    0  0.73871335923E+02 -0.98163950188E+02  0.90278148068E+03  0.92592253307E+03  0.16500000000E+03 0.  0.
   -5000001    1    1    2    0    0 -0.73871335923E+02  0.98163950188E+02  0.64014982604E+03  0.67239120693E+03  0.16500000000E+03 0.  0.
<mgrwt>
<rscale>  0 0.41709686E+03</rscale>
<asrwt>0</asrwt>
<pdfrwt beam="1">  1        2 0.22437467E+00 0.41709686E+03</pdfrwt>
<pdfrwt beam="2">  1       -2 0.39558877E-02 0.41709686E+03</pdfrwt>
<totfact> 0.40246045E+03</totfact>
</mgrwt>
</event>
<event>
 4    1  0.3584860E-005  0.8247778E+03  0.7818608E-02  0.9524829E-01
         -2   -1    0    0    0  501 -0.00000000000E+00  0.00000000000E+00  0.25308273899E+03  0.25308273901E+03  0.25500000000E-02 0. -1.
          2   -1    0    0  501    0  0.00000000000E+00 -0.00000000000E+00 -0.67197227800E+03  0.67197227800E+03  0.25500000000E-02 0.  1.
    5000001    1    1    2    0    0  0.26113105413E+03  0.25067883220E+03 -0.87556831950E+02  0.40733340542E+03  0.16500000000E+03 0.  0.
   -5000001    1    1    2    0    0 -0.26113105413E+03 -0.25067883220E+03 -0.33133270706E+03  0.51772161159E+03  0.16500000000E+03 0.  0.
<mgrwt>
<rscale>  0 0.82477775E+03</rscale>
<asrwt>0</asrwt>
<pdfrwt beam="1">  1        2 0.95996039E-01 0.82477775E+03</pdfrwt>
<pdfrwt beam="2">  1       -2 0.36154677E-01 0.82477775E+03</pdfrwt>
<totfact> 0.34179644E+02</totfact>
</mgrwt>
</event>
<event>
 4    1  0.3584860E-005  0.9283376E+03  0.7818608E-02  0.9390835E-01
          2   -1    0    0  501    0  0.00000000000E+00  0.00000000000E+00  0.14346110660E+04  0.14346110660E+04  0.25500000000E-02 0.  1.
         -2   -1    0    0    0  501 -0.00000000000E+00 -0.00000000000E+00 -0.15018195507E+03  0.15018195510E+03  0.25500000000E-02 0. -1.
    5000001    1    1    2    0    0 -0.20840138460E+03 -0.38037322891E+03  0.62408644946E+03  0.77770420262E+03  0.16500000000E+03 0.  0.
   -5000001    1    1    2    0    0  0.20840138460E+03  0.38037322891E+03  0.66034266150E+03  0.80708881852E+03  0.16500000000E+03 0.  0.
<mgrwt>
<rscale>  0 0.92833764E+03</rscale>
<asrwt>0</asrwt>
<pdfrwt beam="1">  1        2 0.20494444E+00 0.92833764E+03</pdfrwt>
<pdfrwt beam="2">  1       -2 0.21454565E-01 0.92833764E+03</pdfrwt>
<totfact> 0.29885352E+02</totfact>
</mgrwt>
</event>
<event>
 4    1  0.3584860E-005  0.5001425E+03  0.7818608E-02  0.1013742E+00
          2   -1    0    0  501    0  0.00000000000E+00  0.00000000000E+00  0.99661727241E+03  0.99661727241E+03  0.25500000000E-02 0.  1.
         -2   -1    0    0    0  501 -0.00000000000E+00 -0.00000000000E+00 -0.62747894716E+02  0.62747894768E+02  0.25500000000E-02 0. -1.
    5000001    1    1    2    0    0 -0.84416887369E+02 -0.11793438418E+03  0.21385706601E+03  0.30658534624E+03  0.16500000000E+03 0.  0.
   -5000001    1    1    2    0    0  0.84416887369E+02  0.11793438418E+03  0.72001231168E+03  0.75277982094E+03  0.16500000000E+03 0.  0.
<mgrwt>
<rscale>  0 0.50014252E+03</rscale>
<asrwt>0</asrwt>
<pdfrwt beam="1">  1        2 0.14237388E+00 0.50014252E+03</pdfrwt>
<pdfrwt beam="2">  1       -2 0.89639860E-02 0.50014252E+03</pdfrwt>
<totfact> 0.23171306E+03</totfact>
</mgrwt>
</event>
<event>
 4    1  0.3584860E-005  0.4123095E+03  0.7818608E-02  0.1039599E+00
         -2   -1    0    0    0  501 -0.00000000000E+00  0.00000000000E+00  0.49088931157E+02  0.49088931224E+02  0.25500000000E-02 0. -1.
          2   -1    0    0  501    0  0.00000000000E+00 -0.00000000000E+00 -0.86577124823E+03  0.86577124824E+03  0.25500000000E-02 0.  1.
    5000001    1    1    2    0    0  0.55950250722E+01  0.72793620487E+02 -0.62961208812E+03  0.65495541603E+03  0.16500000000E+03 0.  0.
   -5000001    1    1    2    0    0 -0.55950250722E+01 -0.72793620487E+02 -0.18707022896E+03  0.25990476343E+03  0.16500000000E+03 0.  0.
<mgrwt>
<rscale>  0 0.41230952E+03</rscale>
<asrwt>0</asrwt>
<pdfrwt beam="1">  1        2 0.12368160E+00 0.41230952E+03</pdfrwt>
<pdfrwt beam="2">  1       -2 0.70127050E-02 0.41230952E+03</pdfrwt>
<totfact> 0.41234431E+03</totfact>
</mgrwt>
</event>
<event>
 4    1  0.3584860E-005  0.5837134E+03  0.7818608E-02  0.9939784E-01
         -2   -1    0    0    0  501 -0.00000000000E+00  0.00000000000E+00  0.46999373656E+02  0.46999373725E+02  0.25500000000E-02 0. -1.
          2   -1    0    0  501    0  0.00000000000E+00 -0.00000000000E+00 -0.18123716435E+04  0.18123716435E+04  0.25500000000E-02 0.  1.
    5000001    1    1    2    0    0  0.20453899899E+03 -0.78853492279E+02 -0.11996513173E+04  0.12306268153E+04  0.16500000000E+03 0.  0.
   -5000001    1    1    2    0    0 -0.20453899899E+03  0.78853492279E+02 -0.56572095257E+03  0.62874420199E+03  0.16500000000E+03 0.  0.
<mgrwt>
<rscale>  0 0.58371340E+03</rscale>
<asrwt>0</asrwt>
<pdfrwt beam="1">  1        2 0.25891019E+00 0.58371340E+03</pdfrwt>
<pdfrwt beam="2">  1       -2 0.67141974E-02 0.58371340E+03</pdfrwt>
<totfact> 0.13336476E+03</totfact>
</mgrwt>
</event>
<event>
 4    1  0.3584860E-005  0.5165758E+03  0.7818608E-02  0.1009541E+00
          2   -1    0    0  501    0  0.00000000000E+00  0.00000000000E+00  0.59347511527E+03  0.59347511527E+03  0.25500000000E-02 0.  1.
         -2   -1    0    0    0  501 -0.00000000000E+00 -0.00000000000E+00 -0.11241015486E+03  0.11241015489E+03  0.25500000000E-02 0. -1.
    5000001    1    1    2    0    0  0.10797157884E+03  0.16664659001E+03  0.25100019534E+03  0.36007644447E+03  0.16500000000E+03 0.  0.
   -5000001    1    1    2    0    0 -0.10797157884E+03 -0.16664659001E+03  0.23006476507E+03  0.34580882569E+03  0.16500000000E+03 0.  0.
<mgrwt>
<rscale>  0 0.51657576E+03</rscale>
<asrwt>0</asrwt>
<pdfrwt beam="1">  1        2 0.84782157E-01 0.51657576E+03</pdfrwt>
<pdfrwt beam="2">  1       -2 0.16058594E-01 0.51657576E+03</pdfrwt>
<totfact> 0.17108941E+03</totfact>
</mgrwt>
</event>
<event>
 4    1  0.3584860E-005  0.1125767E+04  0.7818608E-02  0.9180435E-01
         -2   -1    0    0    0  501 -0.00000000000E+00  0.00000000000E+00  0.60036109340E+03  0.60036109341E+03  0.25500000000E-02 0. -1.
          2   -1    0    0  501    0  0.00000000000E+00 -0.00000000000E+00 -0.52774577950E+03  0.52774577950E+03  0.25500000000E-02 0.  1.
    5000001    1    1    2    0    0 -0.39245848936E+03 -0.28399705366E+03 -0.19856167963E+03  0.54893508995E+03  0.16500000000E+03 0.  0.
   -5000001    1    1    2    0    0  0.39245848936E+03  0.28399705366E+03  0.27117699354E+03  0.57917178296E+03  0.16500000000E+03 0.  0.
<mgrwt>
<rscale>  0 0.11257674E+04</rscale>
<asrwt>0</asrwt>
<pdfrwt beam="1">  1        2 0.75392254E-01 0.11257674E+04</pdfrwt>
<pdfrwt beam="2">  1       -2 0.85765871E-01 0.11257674E+04</pdfrwt>
<totfact> 0.73914553E+01</totfact>
</mgrwt>
</event>
<event>
 4    1  0.3584860E-005  0.5090260E+03  0.7818608E-02  0.1011449E+00
          2   -1    0    0  501    0  0.00000000000E+00  0.00000000000E+00  0.66828811081E+02  0.66828811130E+02  0.25500000000E-02 0.  1.
         -2   -1    0    0    0  501 -0.00000000000E+00 -0.00000000000E+00 -0.96929551950E+03  0.96929551950E+03  0.25500000000E-02 0. -1.
    5000001    1    1    2    0    0  0.12481265042E+03  0.14823476276E+03 -0.45195181962E+03  0.51868795036E+03  0.16500000000E+03 0.  0.
   -5000001    1    1    2    0    0 -0.12481265042E+03 -0.14823476276E+03 -0.45051488880E+03  0.51743638027E+03  0.16500000000E+03 0.  0.
<mgrwt>
<rscale>  0 0.50902600E+03</rscale>
<asrwt>0</asrwt>
<pdfrwt beam="1">  1        2 0.95469736E-02 0.50902600E+03</pdfrwt>
<pdfrwt beam="2">  1       -2 0.13847078E+00 0.50902600E+03</pdfrwt>
<totfact> 0.26454466E+02</totfact>
</mgrwt>
</event>
<event>
 4    1  0.3584860E-005  0.5536502E+03  0.7818608E-02  0.1000653E+00
          2   -1    0    0  501    0  0.00000000000E+00  0.00000000000E+00  0.25070207362E+04  0.25070207362E+04  0.25500000000E-02 0.  1.
         -2   -1    0    0    0  501 -0.00000000000E+00 -0.00000000000E+00 -0.30567014016E+02  0.30567014122E+02  0.25500000000E-02 0. -1.
    5000001    1    1    2    0    0  0.31996187812E+02  0.16517328947E+03  0.19040192627E+04  0.19185464092E+04  0.16500000000E+03 0.  0.
   -5000001    1    1    2    0    0 -0.31996187812E+02 -0.16517328947E+03  0.57243445945E+03  0.61904134107E+03  0.16500000000E+03 0.  0.
<mgrwt>
<rscale>  0 0.55365021E+03</rscale>
<asrwt>0</asrwt>
<pdfrwt beam="1">  1        2 0.35814590E+00 0.55365021E+03</pdfrwt>
<pdfrwt beam="2">  1       -2 0.43667153E-02 0.55365021E+03</pdfrwt>
<totfact> 0.11650286E+03</totfact>
</mgrwt>
</event>
<event>
 4    1  0.3584860E-005  0.7178032E+03  0.7818608E-02  0.9687262E-01
          2   -1    0    0  501    0  0.00000000000E+00  0.00000000000E+00  0.20777238311E+04  0.20777238311E+04  0.25500000000E-02 0.  1.
         -2   -1    0    0    0  501 -0.00000000000E+00 -0.00000000000E+00 -0.61995892850E+02  0.61995892902E+02  0.25500000000E-02 0. -1.
    5000001    1    1    2    0    0  0.25941919555E+03 -0.15276392219E+03  0.13197979810E+04  0.13637180227E+04  0.16500000000E+03 0.  0.
   -5000001    1    1    2    0    0 -0.25941919555E+03  0.15276392219E+03  0.69592995732E+03  0.77600170131E+03  0.16500000000E+03 0.  0.
<mgrwt>
<rscale>  0 0.71780316E+03</rscale>
<asrwt>0</asrwt>
<pdfrwt beam="1">  1        2 0.29681767E+00 0.71780316E+03</pdfrwt>
<pdfrwt beam="2">  1       -2 0.88565566E-02 0.71780316E+03</pdfrwt>
<totfact> 0.62582450E+02</totfact>
</mgrwt>
</event>
<event>
 4    1  0.3584860E-005  0.1163727E+04  0.7818608E-02  0.9145212E-01
         -2   -1    0    0    0  501 -0.00000000000E+00  0.00000000000E+00  0.81875378772E+03  0.81875378772E+03  0.25500000000E-02 0. -1.
          2   -1    0    0  501    0  0.00000000000E+00 -0.00000000000E+00 -0.41351281729E+03  0.41351281730E+03  0.25500000000E-02 0.  1.
    5000001    1    1    2    0    0 -0.33061023916E+03  0.35822431387E+03  0.49011118435E+03  0.71067697466E+03  0.16500000000E+03 0.  0.
   -5000001    1    1    2    0    0  0.33061023916E+03 -0.35822431387E+03 -0.84870213926E+02  0.52158963036E+03  0.16500000000E+03 0.  0.
<mgrwt>
<rscale>  0 0.11637271E+04</rscale>
<asrwt>0</asrwt>
<pdfrwt beam="1">  1        2 0.59073260E-01 0.11637271E+04</pdfrwt>
<pdfrwt beam="2">  1       -2 0.11696483E+00 0.11637271E+04</pdfrwt>
<totfact> 0.46643123E+01</totfact>
</mgrwt>
</event>
<event>
 4    1  0.3584860E-005  0.4085115E+03  0.7818608E-02  0.1040872E+00
         -2   -1    0    0    0  501 -0.00000000000E+00  0.00000000000E+00  0.41430702630E+02  0.41430702708E+02  0.25500000000E-02 0. -1.
          2   -1    0    0  501    0  0.00000000000E+00 -0.00000000000E+00 -0.10069927933E+04  0.10069927933E+04  0.25500000000E-02 0.  1.
    5000001    1    1    2    0    0  0.82790466283E+02 -0.77154646341E+02 -0.58823420010E+03  0.62133048769E+03  0.16500000000E+03 0.  0.
   -5000001    1    1    2    0    0 -0.82790466283E+02  0.77154646341E+02 -0.37732789057E+03  0.42709300832E+03  0.16500000000E+03 0.  0.
<mgrwt>
<rscale>  0 0.40851154E+03</rscale>
<asrwt>0</asrwt>
<pdfrwt beam="1">  1        2 0.14385610E+00 0.40851154E+03</pdfrwt>
<pdfrwt beam="2">  1       -2 0.59186724E-02 0.40851154E+03</pdfrwt>
<totfact> 0.43853446E+03</totfact>
</mgrwt>
</event>
<event>
 4    1  0.3584860E-005  0.5174067E+03  0.7818608E-02  0.1009333E+00
         -2   -1    0    0    0  501 -0.00000000000E+00  0.00000000000E+00  0.47104954818E+02  0.47104954887E+02  0.25500000000E-02 0. -1.
          2   -1    0    0  501    0  0.00000000000E+00 -0.00000000000E+00 -0.14208151039E+04  0.14208151039E+04  0.25500000000E-02 0.  1.
    5000001    1    1    2    0    0 -0.12085702574E+03  0.15629741833E+03 -0.61357687140E+03  0.66538476144E+03  0.16500000000E+03 0.  0.
   -5000001    1    1    2    0    0  0.12085702574E+03 -0.15629741833E+03 -0.76013327771E+03  0.80253529738E+03  0.16500000000E+03 0.  0.
<mgrwt>
<rscale>  0 0.51740673E+03</rscale>
<asrwt>0</asrwt>
<pdfrwt beam="1">  1        2 0.20297356E+00 0.51740673E+03</pdfrwt>
<pdfrwt beam="2">  1       -2 0.67292801E-02 0.51740673E+03</pdfrwt>
<totfact> 0.21143186E+03</totfact>
</mgrwt>
</event>
<event>
 4    1  0.3584860E-005  0.3643632E+03  0.7818608E-02  0.1056869E+00
          2   -1    0    0  501    0  0.00000000000E+00  0.00000000000E+00  0.11242104414E+04  0.11242104414E+04  0.25500000000E-02 0. -1.
         -2   -1    0    0    0  501 -0.00000000000E+00 -0.00000000000E+00 -0.29523055182E+02  0.29523055292E+02  0.25500000000E-02 0.  1.
    5000001    1    1    2    0    0 -0.14270574355E+02  0.75596134720E+02  0.52570459332E+03  0.55633510074E+03  0.16500000000E+03 0.  0.
   -5000001    1    1    2    0    0  0.14270574355E+02 -0.75596134720E+02  0.56898279292E+03  0.59739839598E+03  0.16500000000E+03 0.  0.
<mgrwt>
<rscale>  0 0.36436315E+03</rscale>
<asrwt>0</asrwt>
<pdfrwt beam="1">  1        2 0.16060149E+00 0.36436315E+03</pdfrwt>
<pdfrwt beam="2">  1       -2 0.42175793E-02 0.36436315E+03</pdfrwt>
<totfact> 0.62955786E+03</totfact>
</mgrwt>
</event>
<event>
 4    1  0.3584860E-005  0.3395528E+03  0.7818608E-02  0.1066987E+00
         -2   -1    0    0    0  501 -0.00000000000E+00  0.00000000000E+00  0.25578781290E+02  0.25578781417E+02  0.25500000000E-02 0. -1.
          2   -1    0    0  501    0  0.00000000000E+00 -0.00000000000E+00 -0.11268722823E+04  0.11268722823E+04  0.25500000000E-02 0.  1.
    5000001    1    1    2    0    0 -0.29389852385E+02  0.11085054968E+02 -0.63463624436E+03  0.65648671314E+03  0.16500000000E+03 0.  0.
   -5000001    1    1    2    0    0  0.29389852385E+02 -0.11085054968E+02 -0.46665725663E+03  0.49596435057E+03  0.16500000000E+03 0.  0.
<mgrwt>
<rscale>  0 0.33955276E+03</rscale>
<asrwt>0</asrwt>
<pdfrwt beam="1">  1        2 0.16098172E+00 0.33955276E+03</pdfrwt>
<pdfrwt beam="2">  1       -2 0.36541123E-02 0.33955276E+03</pdfrwt>
<totfact> 0.77847876E+03</totfact>
</mgrwt>
</event>
<event>
 4    1  0.3584860E-005  0.5248148E+03  0.7818608E-02  0.1007497E+00
          2   -1    0    0  501    0  0.00000000000E+00  0.00000000000E+00  0.99163354451E+03  0.99163354452E+03  0.25500000000E-02 0.  1.
         -2   -1    0    0    0  501 -0.00000000000E+00 -0.00000000000E+00 -0.69438606854E+02  0.69438606901E+02  0.25500000000E-02 0. -1.
    5000001    1    1    2    0    0 -0.10580934602E+03 -0.15750183161E+03  0.30939208092E+03  0.39868647381E+03  0.16500000000E+03 0.  0.
   -5000001    1    1    2    0    0  0.10580934602E+03  0.15750183161E+03  0.61280285674E+03  0.66238567760E+03  0.16500000000E+03 0.  0.
<mgrwt>
<rscale>  0 0.52481483E+03</rscale>
<asrwt>0</asrwt>
<pdfrwt beam="1">  1        2 0.14166194E+00 0.52481483E+03</pdfrwt>
<pdfrwt beam="2">  1       -2 0.99198009E-02 0.52481483E+03</pdfrwt>
<totfact> 0.19823431E+03</totfact>
</mgrwt>
</event>
<event>
 4    1  0.3584860E-005  0.5613190E+03  0.7818608E-02  0.9989075E-01
         -2   -1    0    0    0  501 -0.00000000000E+00  0.00000000000E+00  0.79468340203E+02  0.79468340244E+02  0.25500000000E-02 0. -1.
          2   -1    0    0  501    0  0.00000000000E+00 -0.00000000000E+00 -0.99120935082E+03  0.99120935082E+03  0.25500000000E-02 0.  1.
    5000001    1    1    2    0    0  0.11768668163E+03 -0.16154885669E+03 -0.66127684311E+03  0.71025365283E+03  0.16500000000E+03 0.  0.
   -5000001    1    1    2    0    0 -0.11768668163E+03  0.16154885669E+03 -0.25046416751E+03  0.36042403823E+03  0.16500000000E+03 0.  0.
<mgrwt>
<rscale>  0 0.56131902E+03</rscale>
<asrwt>0</asrwt>
<pdfrwt beam="1">  1        2 0.14160133E+00 0.56131902E+03</pdfrwt>
<pdfrwt beam="2">  1       -2 0.11352621E-01 0.56131902E+03</pdfrwt>
<totfact> 0.15923501E+03</totfact>
</mgrwt>
</event>
<event>
 4    1  0.3584860E-005  0.5519549E+03  0.7818608E-02  0.1001042E+00
         -2   -1    0    0    0  501 -0.00000000000E+00  0.00000000000E+00  0.71944913086E+03  0.71944913086E+03  0.25500000000E-02 0. -1.
          2   -1    0    0  501    0  0.00000000000E+00 -0.00000000000E+00 -0.10586371788E+03  0.10586371791E+03  0.25500000000E-02 0.  1.
    5000001    1    1    2    0    0  0.20584842619E+03 -0.71320688419E+02  0.24930131185E+03  0.36991398899E+03  0.16500000000E+03 0.  0.
   -5000001    1    1    2    0    0 -0.20584842619E+03  0.71320688419E+02  0.36428410113E+03  0.45539885978E+03  0.16500000000E+03 0.  0.
<mgrwt>
<rscale>  0 0.55195493E+03</rscale>
<asrwt>0</asrwt>
<pdfrwt beam="1">  1        2 0.15123388E-01 0.55195493E+03</pdfrwt>
<pdfrwt beam="2">  1       -2 0.10277845E+00 0.55195493E+03</pdfrwt>
<totfact> 0.31080640E+02</totfact>
</mgrwt>
</event>
<event>
 4    1  0.3584860E-005  0.3912195E+03  0.7818608E-02  0.1046863E+00
          2   -1    0    0  501    0  0.00000000000E+00  0.00000000000E+00  0.25972217298E+04  0.25972217298E+04  0.25500000000E-02 0.  1.
         -2   -1    0    0    0  501 -0.00000000000E+00 -0.00000000000E+00 -0.14732344405E+02  0.14732344626E+02  0.25500000000E-02 0. -1.
    5000001    1    1    2    0    0  0.12543056335E+02  0.98837881269E+02  0.15138727852E+04  0.15260937274E+04  0.16500000000E+03 0.  0.
   -5000001    1    1    2    0    0 -0.12543056335E+02 -0.98837881269E+02  0.10686166002E+04  0.10858603470E+04  0.16500000000E+03 0.  0.
<mgrwt>
<rscale>  0 0.39121945E+03</rscale>
<asrwt>0</asrwt>
<pdfrwt beam="1">  1        2 0.37103247E+00 0.39121945E+03</pdfrwt>
<pdfrwt beam="2">  1       -2 0.21046162E-02 0.39121945E+03</pdfrwt>
<totfact> 0.31921142E+03</totfact>
</mgrwt>
</event>
<event>
 4    1  0.3584860E-005  0.7359090E+03  0.7818608E-02  0.9657720E-01
         -2   -1    0    0    0  501 -0.00000000000E+00  0.00000000000E+00  0.17295862811E+03  0.17295862813E+03  0.25500000000E-02 0. -1.
          2   -1    0    0  501    0  0.00000000000E+00 -0.00000000000E+00 -0.78279134563E+03  0.78279134564E+03  0.25500000000E-02 0.  1.
    5000001    1    1    2    0    0 -0.11510588923E+03  0.30796683491E+03 -0.31598078722E+03  0.48493483586E+03  0.16500000000E+03 0.  0.
   -5000001    1    1    2    0    0  0.11510588923E+03 -0.30796683491E+03 -0.29385193030E+03  0.47081513791E+03  0.16500000000E+03 0.  0.
<mgrwt>
<rscale>  0 0.73590901E+03</rscale>
<asrwt>0</asrwt>
<pdfrwt beam="1">  1        2 0.11182733E+00 0.73590901E+03</pdfrwt>
<pdfrwt beam="2">  1       -2 0.24708376E-01 0.73590901E+03</pdfrwt>
<totfact> 0.57425194E+02</totfact>
</mgrwt>
</event>
<event>
 4    1  0.3584860E-005  0.3705350E+03  0.7818608E-02  0.1054489E+00
         -2   -1    0    0    0  501 -0.00000000000E+00  0.00000000000E+00  0.16052214820E+02  0.16052215023E+02  0.25500000000E-02 0. -1.
          2   -1    0    0  501    0  0.00000000000E+00 -0.00000000000E+00 -0.21382746549E+04  0.21382746549E+04  0.25500000000E-02 0.  1.
    5000001    1    1    2    0    0 -0.49861635534E+02  0.47286693905E+02 -0.13445644790E+04  0.13563925878E+04  0.16500000000E+03 0.  0.
   -5000001    1    1    2    0    0  0.49861635534E+02 -0.47286693905E+02 -0.77765796111E+03  0.79793428213E+03  0.16500000000E+03 0.  0.
<mgrwt>
<rscale>  0 0.37053499E+03</rscale>
<asrwt>0</asrwt>
<pdfrwt beam="1">  1        2 0.30546763E+00 0.37053499E+03</pdfrwt>
<pdfrwt beam="2">  1       -2 0.22931749E-02 0.37053499E+03</pdfrwt>
<totfact> 0.47720838E+03</totfact>
</mgrwt>
</event>
<event>
 4    1  0.3584860E-005  0.5300769E+03  0.7818608E-02  0.1006213E+00
          2   -1    0    0  501    0  0.00000000000E+00  0.00000000000E+00  0.64690827966E+03  0.64690827966E+03  0.25500000000E-02 0.  1.
         -2   -1    0    0    0  501 -0.00000000000E+00 -0.00000000000E+00 -0.10858632393E+03  0.10858632396E+03  0.25500000000E-02 0. -1.
    5000001    1    1    2    0    0  0.10198511030E+03 -0.99297538064E+02  0.54143816341E+02  0.22453845247E+03  0.16500000000E+03 0.  0.
   -5000001    1    1    2    0    0 -0.10198511030E+03  0.99297538064E+02  0.48417813938E+03  0.53095615115E+03  0.16500000000E+03 0.  0.
<mgrwt>
<rscale>  0 0.53007695E+03</rscale>
<asrwt>0</asrwt>
<pdfrwt beam="1">  1        2 0.92415468E-01 0.53007695E+03</pdfrwt>
<pdfrwt beam="2">  1       -2 0.15512332E-01 0.53007695E+03</pdfrwt>
<totfact> 0.16384050E+03</totfact>
</mgrwt>
</event>
<event>
 4    1  0.3584860E-005  0.6756759E+03  0.7818608E-02  0.9759758E-01
         -2   -1    0    0    0  501 -0.00000000000E+00  0.00000000000E+00  0.87218326346E+02  0.87218326383E+02  0.25500000000E-02 0. -1.
          2   -1    0    0  501    0  0.00000000000E+00 -0.00000000000E+00 -0.13086064949E+04  0.13086064949E+04  0.25500000000E-02 0.  1.
    5000001    1    1    2    0    0 -0.50260297640E+02  0.29027381422E+03 -0.58764526913E+03  0.67774401294E+03  0.16500000000E+03 0.  0.
   -5000001    1    1    2    0    0  0.50260297640E+02 -0.29027381422E+03 -0.63374289941E+03  0.71808080833E+03  0.16500000000E+03 0.  0.
<mgrwt>
<rscale>  0 0.67567586E+03</rscale>
<asrwt>0</asrwt>
<pdfrwt beam="1">  1        2 0.18694377E+00 0.67567586E+03</pdfrwt>
<pdfrwt beam="2">  1       -2 0.12459762E-01 0.67567586E+03</pdfrwt>
<totfact> 0.89582251E+02</totfact>
</mgrwt>
</event>
<event>
 4    1  0.3584860E-005  0.3852326E+03  0.7818608E-02  0.1049017E+00
          2   -1    0    0  501    0  0.00000000000E+00  0.00000000000E+00  0.21221310950E+04  0.21221310950E+04  0.25500000000E-02 0.  1.
         -2   -1    0    0    0  501 -0.00000000000E+00 -0.00000000000E+00 -0.17482915852E+02  0.17482916038E+02  0.25500000000E-02 0. -1.
    5000001    1    1    2    0    0  0.77110642842E+02  0.60367215671E+02  0.95843090182E+03  0.97744823164E+03  0.16500000000E+03 0.  0.
   -5000001    1    1    2    0    0 -0.77110642842E+02 -0.60367215671E+02  0.11462172773E+04  0.11621657794E+04  0.16500000000E+03 0.  0.
<mgrwt>
<rscale>  0 0.38523260E+03</rscale>
<asrwt>0</asrwt>
<pdfrwt beam="1">  1        2 0.30316162E+00 0.38523260E+03</pdfrwt>
<pdfrwt beam="2">  1       -2 0.24975591E-02 0.38523260E+03</pdfrwt>
<totfact> 0.42780768E+03</totfact>
</mgrwt>
</event>
<event>
 4    1  0.3584860E-005  0.6869355E+03  0.7818608E-02  0.9739839E-01
         -2   -1    0    0    0  501 -0.00000000000E+00  0.00000000000E+00  0.24228572513E+03  0.24228572514E+03  0.25500000000E-02 0. -1.
          2   -1    0    0  501    0  0.00000000000E+00 -0.00000000000E+00 -0.48690487727E+03  0.48690487727E+03  0.25500000000E-02 0.  1.
    5000001    1    1    2    0    0 -0.46447642249E+02 -0.29724402026E+03 -0.10608161565E+03  0.35915136117E+03  0.16500000000E+03 0.  0.
   -5000001    1    1    2    0    0  0.46447642249E+02  0.29724402026E+03 -0.13853753649E+03  0.37003924125E+03  0.16500000000E+03 0.  0.
<mgrwt>
<rscale>  0 0.68693552E+03</rscale>
<asrwt>0</asrwt>
<pdfrwt beam="1">  1        2 0.69557839E-01 0.68693552E+03</pdfrwt>
<pdfrwt beam="2">  1       -2 0.34612247E-01 0.68693552E+03</pdfrwt>
<totfact> 0.54463817E+02</totfact>
</mgrwt>
</event>
<event>
 4    1  0.3584860E-005  0.8714788E+03  0.7818608E-02  0.9461954E-01
         -2   -1    0    0    0  501 -0.00000000000E+00  0.00000000000E+00  0.64686300731E+02  0.64686300781E+02  0.25500000000E-02 0. -1.
          2   -1    0    0  501    0  0.00000000000E+00 -0.00000000000E+00 -0.29352245224E+04  0.29352245224E+04  0.25500000000E-02 0.  1.
    5000001    1    1    2    0    0  0.21464079927E+03  0.33665507889E+03 -0.12394345099E+04  0.13125662723E+04  0.16500000000E+03 0.  0.
   -5000001    1    1    2    0    0 -0.21464079927E+03 -0.33665507889E+03 -0.16311037118E+04  0.16873445509E+04  0.16500000000E+03 0.  0.
<mgrwt>
<rscale>  0 0.87147878E+03</rscale>
<asrwt>0</asrwt>
<pdfrwt beam="1">  1        2 0.41931771E+00 0.87147878E+03</pdfrwt>
<pdfrwt beam="2">  1       -2 0.92409020E-02 0.87147878E+03</pdfrwt>
<totfact> 0.20662367E+02</totfact>
</mgrwt>
</event>
<event>
 4    1  0.3584860E-005  0.4239275E+03  0.7818608E-02  0.1035796E+00
         -2   -1    0    0    0  501 -0.00000000000E+00  0.00000000000E+00  0.22703100902E+03  0.22703100903E+03  0.25500000000E-02 0. -1.
          2   -1    0    0  501    0  0.00000000000E+00 -0.00000000000E+00 -0.19789643766E+03  0.19789643767E+03  0.25500000000E-02 0.  1.
    5000001    1    1    2    0    0 -0.12604147445E+03  0.11891332678E+02  0.55600026436E+02  0.21527707731E+03  0.16500000000E+03 0.  0.
   -5000001    1    1    2    0    0  0.12604147445E+03 -0.11891332678E+02 -0.26465455077E+02  0.20965036940E+03  0.16500000000E+03 0.  0.
<mgrwt>
<rscale>  0 0.42392748E+03</rscale>
<asrwt>0</asrwt>
<pdfrwt beam="1">  1        2 0.28270920E-01 0.42392748E+03</pdfrwt>
<pdfrwt beam="2">  1       -2 0.32433001E-01 0.42392748E+03</pdfrwt>
<totfact> 0.16731101E+03</totfact>
</mgrwt>
</event>
<event>
 4    1  0.3584860E-005  0.3921098E+03  0.7818608E-02  0.1046547E+00
         -2   -1    0    0    0  501 -0.00000000000E+00  0.00000000000E+00  0.20721699517E+02  0.20721699674E+02  0.25500000000E-02 0. -1.
          2   -1    0    0  501    0  0.00000000000E+00 -0.00000000000E+00 -0.18549409838E+04  0.18549409838E+04  0.25500000000E-02 0.  1.
    5000001    1    1    2    0    0  0.10214884985E+03 -0.17988778044E+02 -0.10190945745E+04  0.10375628826E+04  0.16500000000E+03 0.  0.
   -5000001    1    1    2    0    0 -0.10214884985E+03  0.17988778044E+02 -0.81512470986E+03  0.83809980091E+03  0.16500000000E+03 0.  0.
<mgrwt>
<rscale>  0 0.39210983E+03</rscale>
<asrwt>0</asrwt>
<pdfrwt beam="1">  1        2 0.26499146E+00 0.39210983E+03</pdfrwt>
<pdfrwt beam="2">  1       -2 0.29602440E-02 0.39210983E+03</pdfrwt>
<totfact> 0.44947144E+03</totfact>
</mgrwt>
</event>
<event>
 4    1  0.3584860E-005  0.4654948E+03  0.7818608E-02  0.1023200E+00
         -2   -1    0    0    0  501 -0.00000000000E+00  0.00000000000E+00  0.74444167417E+03  0.74444167417E+03  0.25500000000E-02 0. -1.
          2   -1    0    0  501    0  0.00000000000E+00 -0.00000000000E+00 -0.72767768607E+02  0.72767768652E+02  0.25500000000E-02 0.  1.
    5000001    1    1    2    0    0 -0.79336630569E+02 -0.14222656842E+03  0.29970194415E+03  0.37890493933E+03  0.16500000000E+03 0.  0.
   -5000001    1    1    2    0    0  0.79336630569E+02  0.14222656842E+03  0.37197196141E+03  0.43830450350E+03  0.16500000000E+03 0.  0.
<mgrwt>
<rscale>  0 0.46549483E+03</rscale>
<asrwt>0</asrwt>
<pdfrwt beam="1">  1        2 0.10395396E-01 0.46549483E+03</pdfrwt>
<pdfrwt beam="2">  1       -2 0.10634881E+00 0.46549483E+03</pdfrwt>
<totfact> 0.45539612E+02</totfact>
</mgrwt>
</event>
<event>
 4    1  0.3584860E-005  0.1010462E+04  0.7818608E-02  0.9297144E-01
         -2   -1    0    0    0  501 -0.00000000000E+00  0.00000000000E+00  0.13806487001E+03  0.13806487004E+03  0.25500000000E-02 0. -1.
          2   -1    0    0  501    0  0.00000000000E+00 -0.00000000000E+00 -0.18488279351E+04  0.18488279351E+04  0.25500000000E-02 0.  1.
    5000001    1    1    2    0    0 -0.46529145758E+03 -0.94421635647E+02 -0.95606033588E+03  0.10801333027E+04  0.16500000000E+03 0.  0.
   -5000001    1    1    2    0    0  0.46529145758E+03  0.94421635647E+02 -0.75470272922E+03  0.90675950244E+03  0.16500000000E+03 0.  0.
<mgrwt>
<rscale>  0 0.10104617E+04</rscale>
<asrwt>0</asrwt>
<pdfrwt beam="1">  1        2 0.26411826E+00 0.10104617E+04</pdfrwt>
<pdfrwt beam="2">  1       -2 0.19723554E-01 0.10104617E+04</pdfrwt>
<totfact> 0.20986782E+02</totfact>
</mgrwt>
</event>
<event>
 4    1  0.3584860E-005  0.4617187E+03  0.7818608E-02  0.1024284E+00
          2   -1    0    0  501    0  0.00000000000E+00  0.00000000000E+00  0.93870295296E+03  0.93870295296E+03  0.25500000000E-02 0. -1.
         -2   -1    0    0    0  501 -0.00000000000E+00 -0.00000000000E+00 -0.56776253838E+02  0.56776253895E+02  0.25500000000E-02 0.  1.
    5000001    1    1    2    0    0 -0.15857350133E+03 -0.28724031401E+02  0.46256800023E+03  0.51687985078E+03  0.16500000000E+03 0.  0.
   -5000001    1    1    2    0    0  0.15857350133E+03  0.28724031401E+02  0.41935869889E+03  0.47859935608E+03  0.16500000000E+03 0.  0.
<mgrwt>
<rscale>  0 0.46171869E+03</rscale>
<asrwt>0</asrwt>
<pdfrwt beam="1">  1        2 0.13410042E+00 0.46171869E+03</pdfrwt>
<pdfrwt beam="2">  1       -2 0.81108934E-02 0.46171869E+03</pdfrwt>
<totfact> 0.29489454E+03</totfact>
</mgrwt>
</event>
<event>
 4    1  0.3584860E-005  0.5014852E+03  0.7818608E-02  0.1013392E+00
          2   -1    0    0  501    0  0.00000000000E+00  0.00000000000E+00  0.15485110909E+04  0.15485110909E+04  0.25500000000E-02 0.  1.
         -2   -1    0    0    0  501 -0.00000000000E+00 -0.00000000000E+00 -0.40601481607E+02  0.40601481687E+02  0.25500000000E-02 0. -1.
    5000001    1    1    2    0    0 -0.11013604016E+03 -0.28800111303E+02  0.27665702086E+03  0.34164821227E+03  0.16500000000E+03 0.  0.
   -5000001    1    1    2    0    0  0.11013604016E+03  0.28800111303E+02  0.12312525884E+04  0.12474643603E+04  0.16500000000E+03 0.  0.
<mgrwt>
<rscale>  0 0.50148517E+03</rscale>
<asrwt>0</asrwt>
<pdfrwt beam="1">  1        2 0.22121586E+00 0.50148517E+03</pdfrwt>
<pdfrwt beam="2">  1       -2 0.58002120E-02 0.50148517E+03</pdfrwt>
<totfact> 0.22901977E+03</totfact>
</mgrwt>
</event>
<event>
 4    1  0.3584860E-005  0.7042586E+03  0.7818608E-02  0.9709977E-01
          2   -1    0    0  501    0  0.00000000000E+00  0.00000000000E+00  0.11420198822E+03  0.11420198825E+03  0.25500000000E-02 0.  1.
         -2   -1    0    0    0  501 -0.00000000000E+00 -0.00000000000E+00 -0.10857519959E+04  0.10857519960E+04  0.25500000000E-02 0. -1.
    5000001    1    1    2    0    0  0.30498163655E+03 -0.15388596698E+02 -0.58685577768E+03  0.68181765255E+03  0.16500000000E+03 0.  0.
   -5000001    1    1    2    0    0 -0.30498163655E+03  0.15388596698E+02 -0.38469423005E+03  0.51813633165E+03  0.16500000000E+03 0.  0.
<mgrwt>
<rscale>  0 0.70425858E+03</rscale>
<asrwt>0</asrwt>
<pdfrwt beam="1">  1        2 0.16314570E-01 0.70425858E+03</pdfrwt>
<pdfrwt beam="2">  1       -2 0.15510742E+00 0.70425858E+03</pdfrwt>
<totfact> 0.10059958E+02</totfact>
</mgrwt>
</event>
<event>
 4    1  0.3584860E-005  0.5888807E+03  0.7818608E-02  0.9928747E-01
         -2   -1    0    0    0  501 -0.00000000000E+00  0.00000000000E+00  0.11992110319E+03  0.11992110322E+03  0.25500000000E-02 0. -1.
          2   -1    0    0  501    0  0.00000000000E+00 -0.00000000000E+00 -0.72293467929E+03  0.72293467930E+03  0.25500000000E-02 0.  1.
    5000001    1    1    2    0    0  0.17754249311E+03  0.44323703487E+02 -0.70789262006E+02  0.25636311584E+03  0.16500000000E+03 0.  0.
   -5000001    1    1    2    0    0 -0.17754249311E+03 -0.44323703487E+02 -0.53222431410E+03  0.58649266667E+03  0.16500000000E+03 0.  0.
<mgrwt>
<rscale>  0 0.58888072E+03</rscale>
<asrwt>0</asrwt>
<pdfrwt beam="1">  1        2 0.10327638E+00 0.58888072E+03</pdfrwt>
<pdfrwt beam="2">  1       -2 0.17131587E-01 0.58888072E+03</pdfrwt>
<totfact> 0.12094042E+03</totfact>
</mgrwt>
</event>
<event>
 4    1  0.3584860E-005  0.5241247E+03  0.7818608E-02  0.1007667E+00
         -2   -1    0    0    0  501 -0.00000000000E+00  0.00000000000E+00  0.58508376996E+02  0.58508377052E+02  0.25500000000E-02 0. -1.
          2   -1    0    0  501    0  0.00000000000E+00 -0.00000000000E+00 -0.11737919954E+04  0.11737919954E+04  0.25500000000E-02 0.  1.
    5000001    1    1    2    0    0 -0.19123220663E+03  0.57361976772E+02 -0.65143835857E+03  0.70104000474E+03  0.16500000000E+03 0.  0.
   -5000001    1    1    2    0    0  0.19123220663E+03 -0.57361976772E+02 -0.46384525981E+03  0.53126036769E+03  0.16500000000E+03 0.  0.
<mgrwt>
<rscale>  0 0.52412466E+03</rscale>
<asrwt>0</asrwt>
<pdfrwt beam="1">  1        2 0.16768456E+00 0.52412466E+03</pdfrwt>
<pdfrwt beam="2">  1       -2 0.83583403E-02 0.52412466E+03</pdfrwt>
<totfact> 0.20423262E+03</totfact>
</mgrwt>
</event>
<event>
 4    1  0.3584860E-005  0.3988749E+03  0.7818608E-02  0.1044170E+00
          2   -1    0    0  501    0  0.00000000000E+00  0.00000000000E+00  0.42122992746E+02  0.42122992823E+02  0.25500000000E-02 0.  1.
         -2   -1    0    0    0  501 -0.00000000000E+00 -0.00000000000E+00 -0.94426584867E+03  0.94426584867E+03  0.25500000000E-02 0. -1.
    5000001    1    1    2    0    0 -0.65256974740E+02 -0.41615774027E+02 -0.65136265979E+03  0.67637908008E+03  0.16500000000E+03 0.  0.
   -5000001    1    1    2    0    0  0.65256974740E+02  0.41615774027E+02 -0.25078019613E+03  0.31000976141E+03  0.16500000000E+03 0.  0.
<mgrwt>
<rscale>  0 0.39887494E+03</rscale>
<asrwt>0</asrwt>
<pdfrwt beam="1">  1        2 0.60175710E-02 0.39887494E+03</pdfrwt>
<pdfrwt beam="2">  1       -2 0.13489511E+00 0.39887494E+03</pdfrwt>
<totfact> 0.51469183E+02</totfact>
</mgrwt>
</event>
<event>
 4    1  0.3584860E-005  0.1445934E+04  0.7818608E-02  0.8921224E-01
          2   -1    0    0  501    0  0.00000000000E+00  0.00000000000E+00  0.16022989592E+04  0.16022989592E+04  0.25500000000E-02 0.  1.
         -2   -1    0    0    0  501 -0.00000000000E+00 -0.00000000000E+00 -0.32620724378E+03  0.32620724379E+03  0.25500000000E-02 0. -1.
    5000001    1    1    2    0    0  0.48529158292E+03  0.50167920822E+03  0.75931083039E+03  0.10444940812E+04  0.16500000000E+03 0.  0.
   -5000001    1    1    2    0    0 -0.48529158292E+03 -0.50167920822E+03  0.51678088501E+03  0.88401212182E+03  0.16500000000E+03 0.  0.
<mgrwt>
<rscale>  0 0.14459343E+04</rscale>
<asrwt>0</asrwt>
<pdfrwt beam="1">  1        2 0.22889986E+00 0.14459343E+04</pdfrwt>
<pdfrwt beam="2">  1       -2 0.46601034E-01 0.14459343E+04</pdfrwt>
<totfact> 0.54697363E+01</totfact>
</mgrwt>
</event>
<event>
 4    1  0.3584860E-005  0.3962708E+03  0.7818608E-02  0.1045079E+00
         -2   -1    0    0    0  501 -0.00000000000E+00  0.00000000000E+00  0.70345146055E+03  0.70345146056E+03  0.25500000000E-02 0. -1.
          2   -1    0    0  501    0  0.00000000000E+00 -0.00000000000E+00 -0.55807180919E+02  0.55807180978E+02  0.25500000000E-02 0.  1.
    5000001    1    1    2    0    0  0.73927380421E+02 -0.66146259867E+02  0.23411569892E+03  0.30311012149E+03  0.16500000000E+03 0.  0.
   -5000001    1    1    2    0    0 -0.73927380421E+02  0.66146259867E+02  0.41352858071E+03  0.45614852004E+03  0.16500000000E+03 0.  0.
<mgrwt>
<rscale>  0 0.39627083E+03</rscale>
<asrwt>0</asrwt>
<pdfrwt beam="1">  1        2 0.79724550E-02 0.39627083E+03</pdfrwt>
<pdfrwt beam="2">  1       -2 0.10049306E+00 0.39627083E+03</pdfrwt>
<totfact> 0.72939732E+02</totfact>
</mgrwt>
</event>
<event>
 4    1  0.3584860E-005  0.5854129E+03  0.7818608E-02  0.9936141E-01
         -2   -1    0    0    0  501 -0.00000000000E+00  0.00000000000E+00  0.58630963799E+02  0.58630963855E+02  0.25500000000E-02 0. -1.
          2   -1    0    0  501    0  0.00000000000E+00 -0.00000000000E+00 -0.14612936266E+04  0.14612936266E+04  0.25500000000E-02 0.  1.
    5000001    1    1    2    0    0  0.20532392365E+03 -0.10770187856E+03 -0.52344116778E+03  0.59579632794E+03  0.16500000000E+03 0.  0.
   -5000001    1    1    2    0    0 -0.20532392365E+03  0.10770187856E+03 -0.87922149506E+03  0.92412826255E+03  0.16500000000E+03 0.  0.
<mgrwt>
<rscale>  0 0.58541286E+03</rscale>
<asrwt>0</asrwt>
<pdfrwt beam="1">  1        2 0.20875621E+00 0.58541286E+03</pdfrwt>
<pdfrwt beam="2">  1       -2 0.83758529E-02 0.58541286E+03</pdfrwt>
<totfact> 0.14207212E+03</totfact>
</mgrwt>
</event>
<event>
 4    1  0.3584860E-005  0.6108306E+03  0.7818608E-02  0.9883187E-01
         -2   -1    0    0    0  501 -0.00000000000E+00  0.00000000000E+00  0.45550686887E+02  0.45550686958E+02  0.25500000000E-02 0.  1.
          2   -1    0    0  501    0  0.00000000000E+00 -0.00000000000E+00 -0.20477955248E+04  0.20477955248E+04  0.25500000000E-02 0. -1.
    5000001    1    1    2    0    0 -0.16322724790E+03 -0.19790003477E+03 -0.10548664376E+04  0.10980782119E+04  0.16500000000E+03 0.  0.
   -5000001    1    1    2    0    0  0.16322724790E+03  0.19790003477E+03 -0.94737840036E+03  0.99526799993E+03  0.16500000000E+03 0.  0.
<mgrwt>
<rscale>  0 0.61083056E+03</rscale>
<asrwt>0</asrwt>
<pdfrwt beam="1">  1        2 0.29254216E+00 0.61083056E+03</pdfrwt>
<pdfrwt beam="2">  1       -2 0.65072423E-02 0.61083056E+03</pdfrwt>
<totfact> 0.10653211E+03</totfact>
</mgrwt>
</event>
<event>
 4    1  0.3584860E-005  0.6676179E+03  0.7818608E-02  0.9774271E-01
          2   -1    0    0  501    0  0.00000000000E+00  0.00000000000E+00  0.28903315637E+04  0.28903315637E+04  0.25500000000E-02 0.  1.
         -2   -1    0    0    0  501 -0.00000000000E+00 -0.00000000000E+00 -0.38552117177E+02  0.38552117261E+02  0.25500000000E-02 0. -1.
    5000001    1    1    2    0    0  0.17170027893E+03 -0.23281404046E+03  0.15259338803E+04  0.15618522882E+04  0.16500000000E+03 0.  0.
   -5000001    1    1    2    0    0 -0.17170027893E+03  0.23281404046E+03  0.13258455662E+04  0.13670313927E+04  0.16500000000E+03 0.  0.
<mgrwt>
<rscale>  0 0.66761786E+03</rscale>
<asrwt>0</asrwt>
<pdfrwt beam="1">  1        2 0.41290463E+00 0.66761786E+03</pdfrwt>
<pdfrwt beam="2">  1       -2 0.55074437E-02 0.66761786E+03</pdfrwt>
<totfact> 0.50715794E+02</totfact>
</mgrwt>
</event>
<event>
 4    1  0.3584860E-005  0.5771642E+03  0.7818608E-02  0.9953949E-01
         -2   -1    0    0    0  501 -0.00000000000E+00  0.00000000000E+00  0.74676050776E+03  0.74676050776E+03  0.25500000000E-02 0. -1.
          2   -1    0    0  501    0  0.00000000000E+00 -0.00000000000E+00 -0.11152120492E+03  0.11152120495E+03  0.25500000000E-02 0.  1.
    5000001    1    1    2    0    0 -0.50908727809E+02 -0.23115437083E+03  0.30939496153E+03  0.42305352373E+03  0.16500000000E+03 0.  0.
   -5000001    1    1    2    0    0  0.50908727809E+02  0.23115437083E+03  0.32584434131E+03  0.43522818898E+03  0.16500000000E+03 0.  0.
<mgrwt>
<rscale>  0 0.57716421E+03</rscale>
<asrwt>0</asrwt>
<pdfrwt beam="1">  1        2 0.15931601E-01 0.57716421E+03</pdfrwt>
<pdfrwt beam="2">  1       -2 0.10668007E+00 0.57716421E+03</pdfrwt>
<totfact> 0.26693687E+02</totfact>
</mgrwt>
</event>
<event>
 4    1  0.3584860E-005  0.4739590E+03  0.7818608E-02  0.1020809E+00
          2   -1    0    0  501    0  0.00000000000E+00  0.00000000000E+00  0.36150947231E+04  0.36150947231E+04  0.25500000000E-02 0.  1.
         -2   -1    0    0    0  501 -0.00000000000E+00 -0.00000000000E+00 -0.15534661087E+02  0.15534661296E+02  0.25500000000E-02 0. -1.
    5000001    1    1    2    0    0 -0.15792786070E+03 -0.60464332298E+02  0.19404294624E+04  0.19547605079E+04  0.16500000000E+03 0.  0.
   -5000001    1    1    2    0    0  0.15792786070E+03  0.60464332298E+02  0.16591305996E+04  0.16758688765E+04  0.16500000000E+03 0.  0.
<mgrwt>
<rscale>  0 0.47395895E+03</rscale>
<asrwt>0</asrwt>
<pdfrwt beam="1">  1        2 0.51644196E+00 0.47395895E+03</pdfrwt>
<pdfrwt beam="2">  1       -2 0.22192379E-02 0.47395895E+03</pdfrwt>
<totfact> 0.80528463E+02</totfact>
</mgrwt>
</event>
<event>
 4    1  0.3584860E-005  0.3728189E+03  0.7818608E-02  0.1053620E+00
         -2   -1    0    0    0  501 -0.00000000000E+00  0.00000000000E+00  0.15393140620E+04  0.15393140620E+04  0.25500000000E-02 0. -1.
          2   -1    0    0  501    0  0.00000000000E+00 -0.00000000000E+00 -0.22574010078E+02  0.22574010222E+02  0.25500000000E-02 0.  1.
    5000001    1    1    2    0    0 -0.45586207388E+02 -0.34153676418E+02  0.10324130703E+04  0.10470655776E+04  0.16500000000E+03 0.  0.
   -5000001    1    1    2    0    0  0.45586207388E+02  0.34153676418E+02  0.48432698160E+03  0.51482249468E+03  0.16500000000E+03 0.  0.
<mgrwt>
<rscale>  0 0.37281894E+03</rscale>
<asrwt>0</asrwt>
<pdfrwt beam="1">  1        2 0.32248575E-02 0.37281894E+03</pdfrwt>
<pdfrwt beam="2">  1       -2 0.21990208E+00 0.37281894E+03</pdfrwt>
<totfact> 0.30822601E+02</totfact>
</mgrwt>
</event>
<event>
 4    1  0.3584860E-005  0.5438950E+03  0.7818608E-02  0.1002917E+00
          2   -1    0    0  501    0  0.00000000000E+00  0.00000000000E+00  0.13717541188E+04  0.13717541189E+04  0.25500000000E-02 0.  1.
         -2   -1    0    0    0  501 -0.00000000000E+00 -0.00000000000E+00 -0.53913045468E+02  0.53913045529E+02  0.25500000000E-02 0. -1.
    5000001    1    1    2    0    0 -0.94203277202E+02  0.68371734018E+02  0.11363959676E+04  0.11541965806E+04  0.16500000000E+03 0.  0.
   -5000001    1    1    2    0    0  0.94203277202E+02 -0.68371734018E+02  0.18144510573E+03  0.27147058375E+03  0.16500000000E+03 0.  0.
<mgrwt>
<rscale>  0 0.54389500E+03</rscale>
<asrwt>0</asrwt>
<pdfrwt beam="1">  1        2 0.19596490E+00 0.54389500E+03</pdfrwt>
<pdfrwt beam="2">  1       -2 0.77018626E-02 0.54389500E+03</pdfrwt>
<totfact> 0.18126665E+03</totfact>
</mgrwt>
</event>
<event>
 4    1  0.3584860E-005  0.4395168E+03  0.7818608E-02  0.1030895E+00
          2   -1    0    0  501    0  0.00000000000E+00  0.00000000000E+00  0.18147420260E+04  0.18147420260E+04  0.25500000000E-02 0.  1.
         -2   -1    0    0    0  501 -0.00000000000E+00 -0.00000000000E+00 -0.26611910398E+02  0.26611910520E+02  0.25500000000E-02 0. -1.
    5000001    1    1    2    0    0 -0.11603953656E+02 -0.11547334439E+03  0.52883306869E+03  0.56600190772E+03  0.16500000000E+03 0.  0.
   -5000001    1    1    2    0    0  0.11603953656E+02  0.11547334439E+03  0.12592970469E+04  0.12753520288E+04  0.16500000000E+03 0.  0.
<mgrwt>
<rscale>  0 0.43951679E+03</rscale>
<asrwt>0</asrwt>
<pdfrwt beam="1">  1        2 0.25924892E+00 0.43951679E+03</pdfrwt>
<pdfrwt beam="2">  1       -2 0.38017006E-02 0.43951679E+03</pdfrwt>
<totfact> 0.32219172E+03</totfact>
</mgrwt>
</event>
<event>
 4    1  0.3584860E-005  0.4479083E+03  0.7818608E-02  0.1028348E+00
          2   -1    0    0  501    0  0.00000000000E+00  0.00000000000E+00  0.88812189739E+03  0.88812189739E+03  0.25500000000E-02 0.  1.
         -2   -1    0    0    0  501 -0.00000000000E+00 -0.00000000000E+00 -0.56473630018E+02  0.56473630076E+02  0.25500000000E-02 0. -1.
    5000001    1    1    2    0    0  0.33413125423E+02  0.12924389449E+03  0.26507002276E+03  0.33956963671E+03  0.16500000000E+03 0.  0.
   -5000001    1    1    2    0    0 -0.33413125423E+02 -0.12924389449E+03  0.56657824461E+03  0.60502589075E+03  0.16500000000E+03 0.  0.
<mgrwt>
<rscale>  0 0.44790833E+03</rscale>
<asrwt>0</asrwt>
<pdfrwt beam="1">  1        2 0.12687455E+00 0.44790833E+03</pdfrwt>
<pdfrwt beam="2">  1       -2 0.80676616E-02 0.44790833E+03</pdfrwt>
<totfact> 0.32011515E+03</totfact>
</mgrwt>
</event>
<event>
 4    1  0.3584860E-005  0.5717657E+03  0.7818608E-02  0.9965779E-01
         -2   -1    0    0    0  501 -0.00000000000E+00  0.00000000000E+00  0.25578031361E+03  0.25578031362E+03  0.25500000000E-02 0. -1.
          2   -1    0    0  501    0  0.00000000000E+00 -0.00000000000E+00 -0.31952807429E+03  0.31952807430E+03  0.25500000000E-02 0.  1.
    5000001    1    1    2    0    0  0.11314722759E+03 -0.13680706081E+03  0.12067528877E+03  0.27075079375E+03  0.16500000000E+03 0.  0.
   -5000001    1    1    2    0    0 -0.11314722759E+03  0.13680706081E+03 -0.18442304945E+03  0.30455759417E+03  0.16500000000E+03 0.  0.
<mgrwt>
<rscale>  0 0.57176565E+03</rscale>
<asrwt>0</asrwt>
<pdfrwt beam="1">  1        2 0.45646868E-01 0.57176565E+03</pdfrwt>
<pdfrwt beam="2">  1       -2 0.36540045E-01 0.57176565E+03</pdfrwt>
<totfact> 0.78730866E+02</totfact>
</mgrwt>
</event>
<event>
 4    1  0.3584860E-005  0.3908957E+03  0.7818608E-02  0.1046979E+00
         -2   -1    0    0    0  501 -0.00000000000E+00  0.00000000000E+00  0.13196292700E+03  0.13196292703E+03  0.25500000000E-02 0.  1.
          2   -1    0    0  501    0  0.00000000000E+00 -0.00000000000E+00 -0.28947424311E+03  0.28947424312E+03  0.25500000000E-02 0. -1.
    5000001    1    1    2    0    0 -0.63595943087E+02  0.81969593760E+02 -0.63079673861E+02  0.20485971672E+03  0.16500000000E+03 0.  0.
   -5000001    1    1    2    0    0  0.63595943087E+02 -0.81969593760E+02 -0.94431642249E+02  0.21657745343E+03  0.16500000000E+03 0.  0.
<mgrwt>
<rscale>  0 0.39089573E+03</rscale>
<asrwt>0</asrwt>
<pdfrwt beam="1">  1        2 0.41353463E-01 0.39089573E+03</pdfrwt>
<pdfrwt beam="2">  1       -2 0.18851847E-01 0.39089573E+03</pdfrwt>
<totfact> 0.28867434E+03</totfact>
</mgrwt>
</event>
<event>
 4    1  0.3584860E-005  0.7375323E+03  0.7818608E-02  0.9655116E-01
         -2   -1    0    0    0  501 -0.00000000000E+00  0.00000000000E+00  0.35736243135E+02  0.35736243226E+02  0.25500000000E-02 0. -1.
          2   -1    0    0  501    0  0.00000000000E+00 -0.00000000000E+00 -0.38053379873E+04  0.38053379873E+04  0.25500000000E-02 0.  1.
    5000001    1    1    2    0    0 -0.82421806646E+02  0.26570617058E+03 -0.96237517524E+03  0.10152753820E+04  0.16500000000E+03 0.  0.
   -5000001    1    1    2    0    0  0.82421806646E+02 -0.26570617058E+03 -0.28072265689E+04  0.28257988486E+04  0.16500000000E+03 0.  0.
<mgrwt>
<rscale>  0 0.73753233E+03</rscale>
<asrwt>0</asrwt>
<pdfrwt beam="1">  1        2 0.54361946E+00 0.73753233E+03</pdfrwt>
<pdfrwt beam="2">  1       -2 0.51051800E-02 0.73753233E+03</pdfrwt>
<totfact> 0.16619518E+02</totfact>
</mgrwt>
</event>
<event>
 4    1  0.3584860E-005  0.4646403E+03  0.7818608E-02  0.1023444E+00
          2   -1    0    0  501    0  0.00000000000E+00  0.00000000000E+00  0.38730019170E+03  0.38730019171E+03  0.25500000000E-02 0.  1.
         -2   -1    0    0    0  501 -0.00000000000E+00 -0.00000000000E+00 -0.13935610348E+03  0.13935610350E+03  0.25500000000E-02 0. -1.
    5000001    1    1    2    0    0  0.10313839437E+03  0.11564703528E+03  0.64685110621E+02  0.23541650048E+03  0.16500000000E+03 0.  0.
   -5000001    1    1    2    0    0 -0.10313839437E+03 -0.11564703528E+03  0.18325897760E+03  0.29123979473E+03  0.16500000000E+03 0.  0.
<mgrwt>
<rscale>  0 0.46464027E+03</rscale>
<asrwt>0</asrwt>
<pdfrwt beam="1">  1        2 0.55328597E-01 0.46464027E+03</pdfrwt>
<pdfrwt beam="2">  1       -2 0.19908015E-01 0.46464027E+03</pdfrwt>
<totfact> 0.19158945E+03</totfact>
</mgrwt>
</event>
<event>
 4    1  0.3584860E-005  0.5852612E+03  0.7818608E-02  0.9936465E-01
          2   -1    0    0  501    0  0.00000000000E+00  0.00000000000E+00  0.28965368218E+03  0.28965368219E+03  0.25500000000E-02 0. -1.
         -2   -1    0    0    0  501 -0.00000000000E+00 -0.00000000000E+00 -0.29563813666E+03  0.29563813667E+03  0.25500000000E-02 0.  1.
    5000001    1    1    2    0    0  0.10499137973E+02 -0.17774503488E+03  0.16043034660E+03  0.29097495672E+03  0.16500000000E+03 0.  0.
   -5000001    1    1    2    0    0 -0.10499137973E+02  0.17774503488E+03 -0.16641480108E+03  0.29431686215E+03  0.16500000000E+03 0.  0.
<mgrwt>
<rscale>  0 0.58526122E+03</rscale>
<asrwt>0</asrwt>
<pdfrwt beam="1">  1        2 0.41379098E-01 0.58526122E+03</pdfrwt>
<pdfrwt beam="2">  1       -2 0.42234019E-01 0.58526122E+03</pdfrwt>
<totfact> 0.66294992E+02</totfact>
</mgrwt>
</event>
<event>
 4    1  0.3584860E-005  0.4032909E+03  0.7818608E-02  0.1042646E+00
          2   -1    0    0  501    0  0.00000000000E+00  0.00000000000E+00  0.22313016661E+04  0.22313016661E+04  0.25500000000E-02 0. -1.
         -2   -1    0    0    0  501 -0.00000000000E+00 -0.00000000000E+00 -0.18222943314E+02  0.18222943492E+02  0.25500000000E-02 0.  1.
    5000001    1    1    2    0    0 -0.39533824689E+02 -0.28832930621E+02  0.16926624079E+04  0.17013892231E+04  0.16500000000E+03 0.  0.
   -5000001    1    1    2    0    0  0.39533824689E+02  0.28832930621E+02  0.52041631484E+03  0.54813538650E+03  0.16500000000E+03 0.  0.
<mgrwt>
<rscale>  0 0.40329088E+03</rscale>
<asrwt>0</asrwt>
<pdfrwt beam="1">  1        2 0.31875748E+00 0.40329088E+03</pdfrwt>
<pdfrwt beam="2">  1       -2 0.26032768E-02 0.40329088E+03</pdfrwt>
<totfact> 0.35477733E+03</totfact>
</mgrwt>
</event>
<event>
 4    1  0.3584860E-005  0.5541575E+03  0.7818608E-02  0.1000536E+00
          2   -1    0    0  501    0  0.00000000000E+00  0.00000000000E+00  0.16753020968E+04  0.16753020968E+04  0.25500000000E-02 0.  1.
         -2   -1    0    0    0  501 -0.00000000000E+00 -0.00000000000E+00 -0.45826138226E+02  0.45826138297E+02  0.25500000000E-02 0. -1.
    5000001    1    1    2    0    0  0.43195324134E+02  0.21801992651E+03  0.77681342209E+03  0.82465909145E+03  0.16500000000E+03 0.  0.
   -5000001    1    1    2    0    0 -0.43195324134E+02 -0.21801992651E+03  0.85266253647E+03  0.89646914363E+03  0.16500000000E+03 0.  0.
<mgrwt>
<rscale>  0 0.55415747E+03</rscale>
<asrwt>0</asrwt>
<pdfrwt beam="1">  1        2 0.23932883E+00 0.55415747E+03</pdfrwt>
<pdfrwt beam="2">  1       -2 0.65465924E-02 0.55415747E+03</pdfrwt>
<totfact> 0.16300609E+03</totfact>
</mgrwt>
</event>
<event>
 4    1  0.3584860E-005  0.4364144E+03  0.7818608E-02  0.1031853E+00
         -2   -1    0    0    0  501 -0.00000000000E+00  0.00000000000E+00  0.57212114931E+02  0.57212114987E+02  0.25500000000E-02 0.  1.
          2   -1    0    0  501    0  0.00000000000E+00 -0.00000000000E+00 -0.83224315947E+03  0.83224315947E+03  0.25500000000E-02 0. -1.
    5000001    1    1    2    0    0  0.42619378712E+02  0.11743931784E+03 -0.52843913214E+03  0.56752208873E+03  0.16500000000E+03 0.  0.
   -5000001    1    1    2    0    0 -0.42619378712E+02 -0.11743931784E+03 -0.24659191239E+03  0.32193318573E+03  0.16500000000E+03 0.  0.
<mgrwt>
<rscale>  0 0.43641444E+03</rscale>
<asrwt>0</asrwt>
<pdfrwt beam="1">  1        2 0.11889187E+00 0.43641444E+03</pdfrwt>
<pdfrwt beam="2">  1       -2 0.81731598E-02 0.43641444E+03</pdfrwt>
<totfact> 0.34112029E+03</totfact>
</mgrwt>
</event>
<event>
 4    1  0.3584860E-005  0.3746021E+03  0.7818608E-02  0.1052947E+00
          2   -1    0    0  501    0  0.00000000000E+00  0.00000000000E+00  0.61757106510E+03  0.61757106511E+03  0.25500000000E-02 0.  1.
         -2   -1    0    0    0  501 -0.00000000000E+00 -0.00000000000E+00 -0.56805900528E+02  0.56805900585E+02  0.25500000000E-02 0. -1.
    5000001    1    1    2    0    0 -0.12164634964E+02  0.49386769761E+02  0.41106687386E+03  0.44585648606E+03  0.16500000000E+03 0.  0.
   -5000001    1    1    2    0    0  0.12164634964E+02 -0.49386769761E+02  0.14969829071E+03  0.22852047964E+03  0.16500000000E+03 0.  0.
<mgrwt>
<rscale>  0 0.37460208E+03</rscale>
<asrwt>0</asrwt>
<pdfrwt beam="1">  1        2 0.88224442E-01 0.37460208E+03</pdfrwt>
<pdfrwt beam="2">  1       -2 0.81151283E-02 0.37460208E+03</pdfrwt>
<totfact> 0.49479350E+03</totfact>
</mgrwt>
</event>
<event>
 4    1  0.3584860E-005  0.5888579E+03  0.7818608E-02  0.9928796E-01
          2   -1    0    0  501    0  0.00000000000E+00  0.00000000000E+00  0.37263157125E+04  0.37263157125E+04  0.25500000000E-02 0.  1.
         -2   -1    0    0    0  501 -0.00000000000E+00 -0.00000000000E+00 -0.23263834614E+02  0.23263834754E+02  0.25500000000E-02 0. -1.
    5000001    1    1    2    0    0  0.19832494202E+03 -0.67871261092E+02  0.26448951537E+04  0.26583142524E+04  0.16500000000E+03 0.  0.
   -5000001    1    1    2    0    0 -0.19832494202E+03  0.67871261092E+02  0.10581567242E+04  0.10912652948E+04  0.16500000000E+03 0.  0.
<mgrwt>
<rscale>  0 0.58885785E+03</rscale>
<asrwt>0</asrwt>
<pdfrwt beam="1">  1        2 0.53233113E+00 0.58885785E+03</pdfrwt>
<pdfrwt beam="2">  1       -2 0.33234030E-02 0.58885785E+03</pdfrwt>
<totfact> 0.36827223E+02</totfact>
</mgrwt>
</event>
<event>
 4    1  0.3584860E-005  0.6568067E+03  0.7818608E-02  0.9794090E-01
         -2   -1    0    0    0  501 -0.00000000000E+00  0.00000000000E+00  0.29516127629E+03  0.29516127630E+03  0.25500000000E-02 0. -1.
          2   -1    0    0  501    0  0.00000000000E+00 -0.00000000000E+00 -0.36538926426E+03  0.36538926426E+03  0.25500000000E-02 0.  1.
    5000001    1    1    2    0    0 -0.88930280319E+02  0.17130788941E+03 -0.24455274883E+03  0.35254224525E+03  0.16500000000E+03 0.  0.
   -5000001    1    1    2    0    0  0.88930280319E+02 -0.17130788941E+03  0.17432476086E+03  0.30800829531E+03  0.16500000000E+03 0.  0.
<mgrwt>
<rscale>  0 0.65680670E+03</rscale>
<asrwt>0</asrwt>
<pdfrwt beam="1">  1        2 0.52198466E-01 0.65680670E+03</pdfrwt>
<pdfrwt beam="2">  1       -2 0.42165897E-01 0.65680670E+03</pdfrwt>
<totfact> 0.51381770E+02</totfact>
</mgrwt>
</event>
<event>
 4    1  0.3584860E-005  0.1643025E+04  0.7818608E-02  0.8794543E-01
          2   -1    0    0  501    0  0.00000000000E+00  0.00000000000E+00  0.30152090725E+04  0.30152090725E+04  0.25500000000E-02 0. -1.
         -2   -1    0    0    0  501 -0.00000000000E+00 -0.00000000000E+00 -0.22382630658E+03  0.22382630659E+03  0.25500000000E-02 0.  1.
    5000001    1    1    2    0    0 -0.48476427676E+03 -0.63517071444E+03  0.15849840585E+04  0.17826490698E+04  0.16500000000E+03 0.  0.
   -5000001    1    1    2    0    0  0.48476427676E+03  0.63517071444E+03  0.12063987074E+04  0.14563863093E+04  0.16500000000E+03 0.  0.
<mgrwt>
<rscale>  0 0.16430254E+04</rscale>
<asrwt>0</asrwt>
<pdfrwt beam="1">  1        2 0.43074414E+00 0.16430254E+04</pdfrwt>
<pdfrwt beam="2">  1       -2 0.31975188E-01 0.16430254E+04</pdfrwt>
<totfact> 0.20221243E+01</totfact>
</mgrwt>
</event>
<event>
 4    1  0.3584860E-005  0.9695889E+03  0.7818608E-02  0.9342543E-01
          2   -1    0    0  501    0  0.00000000000E+00  0.00000000000E+00  0.70570351083E+03  0.70570351083E+03  0.25500000000E-02 0.  1.
         -2   -1    0    0    0  501 -0.00000000000E+00 -0.00000000000E+00 -0.33303739878E+03  0.33303739879E+03  0.25500000000E-02 0. -1.
    5000001    1    1    2    0    0 -0.40895691360E+02  0.41019166867E+03  0.39481717514E+03  0.59416770731E+03  0.16500000000E+03 0.  0.
   -5000001    1    1    2    0    0  0.40895691360E+02 -0.41019166867E+03 -0.22151063089E+02  0.44457320231E+03  0.16500000000E+03 0.  0.
<mgrwt>
<rscale>  0 0.96958891E+03</rscale>
<asrwt>0</asrwt>
<pdfrwt beam="1">  1        2 0.10081479E+00 0.96958891E+03</pdfrwt>
<pdfrwt beam="2">  1       -2 0.47576771E-01 0.96958891E+03</pdfrwt>
<totfact> 0.18642307E+02</totfact>
</mgrwt>
</event>
<event>
 4    1  0.3584860E-005  0.4020115E+03  0.7818608E-02  0.1043085E+00
         -2   -1    0    0    0  501 -0.00000000000E+00  0.00000000000E+00  0.16804360578E+03  0.16804360580E+03  0.25500000000E-02 0. -1.
          2   -1    0    0  501    0  0.00000000000E+00 -0.00000000000E+00 -0.24043346228E+03  0.24043346230E+03  0.25500000000E-02 0.  1.
    5000001    1    1    2    0    0  0.70855111023E+02 -0.35285307517E+02  0.48285562216E+02  0.18926699449E+03  0.16500000000E+03 0.  0.
   -5000001    1    1    2    0    0 -0.70855111023E+02  0.35285307517E+02 -0.12067541872E+03  0.21921007360E+03  0.16500000000E+03 0.  0.
<mgrwt>
<rscale>  0 0.40201147E+03</rscale>
<asrwt>0</asrwt>
<pdfrwt beam="1">  1        2 0.34347637E-01 0.40201147E+03</pdfrwt>
<pdfrwt beam="2">  1       -2 0.24006229E-01 0.40201147E+03</pdfrwt>
<totfact> 0.23240564E+03</totfact>
</mgrwt>
</event>
<event>
 4    1  0.3584860E-005  0.6574812E+03  0.7818608E-02  0.9792842E-01
         -2   -1    0    0    0  501 -0.00000000000E+00  0.00000000000E+00  0.17744694145E+03  0.17744694147E+03  0.25500000000E-02 0. -1.
          2   -1    0    0  501    0  0.00000000000E+00 -0.00000000000E+00 -0.60902928513E+03  0.60902928513E+03  0.25500000000E-02 0.  1.
    5000001    1    1    2    0    0 -0.99545878428E+02 -0.10014799938E+03  0.79420586328E+02  0.23123934186E+03  0.16500000000E+03 0.  0.
   -5000001    1    1    2    0    0  0.99545878428E+02  0.10014799938E+03 -0.51100293001E+03  0.55523688473E+03  0.16500000000E+03 0.  0.
<mgrwt>
<rscale>  0 0.65748121E+03</rscale>
<asrwt>0</asrwt>
<pdfrwt beam="1">  1        2 0.87004183E-01 0.65748121E+03</pdfrwt>
<pdfrwt beam="2">  1       -2 0.25349563E-01 0.65748121E+03</pdfrwt>
<totfact> 0.74760141E+02</totfact>
</mgrwt>
</event>
<event>
 4    1  0.3584860E-005  0.4315600E+03  0.7818608E-02  0.1033368E+00
          2   -1    0    0  501    0  0.00000000000E+00  0.00000000000E+00  0.33702948596E+02  0.33702948692E+02  0.25500000000E-02 0.  1.
         -2   -1    0    0    0  501 -0.00000000000E+00 -0.00000000000E+00 -0.13815114769E+04  0.13815114769E+04  0.25500000000E-02 0. -1.
    5000001    1    1    2    0    0  0.97826955087E+02 -0.94513892483E+02 -0.76855175784E+03  0.79774669758E+03  0.16500000000E+03 0.  0.
   -5000001    1    1    2    0    0 -0.97826955087E+02  0.94513892483E+02 -0.57925677043E+03  0.61746772798E+03  0.16500000000E+03 0.  0.
<mgrwt>
<rscale>  0 0.43156001E+03</rscale>
<asrwt>0</asrwt>
<pdfrwt beam="1">  1        2 0.48147078E-02 0.43156001E+03</pdfrwt>
<pdfrwt beam="2">  1       -2 0.19735875E+00 0.43156001E+03</pdfrwt>
<totfact> 0.24754868E+02</totfact>
</mgrwt>
</event>
<event>
 4    1  0.3584860E-005  0.5225892E+03  0.7818608E-02  0.1008045E+00
         -2   -1    0    0    0  501 -0.00000000000E+00  0.00000000000E+00  0.38627012751E+02  0.38627012835E+02  0.25500000000E-02 0. -1.
          2   -1    0    0  501    0  0.00000000000E+00 -0.00000000000E+00 -0.17675420323E+04  0.17675420323E+04  0.25500000000E-02 0.  1.
    5000001    1    1    2    0    0 -0.14130153296E+03 -0.45580146244E+02 -0.13409384810E+04  0.13591853011E+04  0.16500000000E+03 0.  0.
   -5000001    1    1    2    0    0  0.14130153296E+03  0.45580146244E+02 -0.38797653850E+03  0.44698374397E+03  0.16500000000E+03 0.  0.
<mgrwt>
<rscale>  0 0.52258920E+03</rscale>
<asrwt>0</asrwt>
<pdfrwt beam="1">  1        2 0.25250595E+00 0.52258920E+03</pdfrwt>
<pdfrwt beam="2">  1       -2 0.55181458E-02 0.52258920E+03</pdfrwt>
<totfact> 0.19142814E+03</totfact>
</mgrwt>
</event>
<event>
 4    1  0.3584860E-005  0.5259697E+03  0.7818608E-02  0.1007214E+00
         -2   -1    0    0    0  501 -0.00000000000E+00  0.00000000000E+00  0.35879054428E+03  0.35879054429E+03  0.25500000000E-02 0. -1.
          2   -1    0    0  501    0  0.00000000000E+00 -0.00000000000E+00 -0.19276159032E+03  0.19276159034E+03  0.25500000000E-02 0.  1.
    5000001    1    1    2    0    0 -0.88359787789E+02  0.18206588824E+03  0.50176913697E+02  0.26589126053E+03  0.16500000000E+03 0.  0.
   -5000001    1    1    2    0    0  0.88359787789E+02 -0.18206588824E+03  0.11585204027E+03  0.28566087410E+03  0.16500000000E+03 0.  0.
<mgrwt>
<rscale>  0 0.52596972E+03</rscale>
<asrwt>0</asrwt>
<pdfrwt beam="1">  1        2 0.27537370E-01 0.52596972E+03</pdfrwt>
<pdfrwt beam="2">  1       -2 0.51255791E-01 0.52596972E+03</pdfrwt>
<totfact> 0.70948580E+02</totfact>
</mgrwt>
</event>
<event>
 4    1  0.3584860E-005  0.1309493E+04  0.7818608E-02  0.9022071E-01
         -2   -1    0    0    0  501 -0.00000000000E+00  0.00000000000E+00  0.29757140421E+03  0.29757140422E+03  0.25500000000E-02 0. -1.
          2   -1    0    0  501    0  0.00000000000E+00 -0.00000000000E+00 -0.14406384515E+04  0.14406384515E+04  0.25500000000E-02 0.  1.
    5000001    1    1    2    0    0 -0.48774193764E+03  0.31184948879E+03 -0.91338652626E+03  0.10939114442E+04  0.16500000000E+03 0.  0.
   -5000001    1    1    2    0    0  0.48774193764E+03 -0.31184948879E+03 -0.22968052107E+03  0.64429841156E+03  0.16500000000E+03 0.  0.
<mgrwt>
<rscale>  0 0.13094927E+04</rscale>
<asrwt>0</asrwt>
<pdfrwt beam="1">  1        2 0.20580549E+00 0.13094927E+04</pdfrwt>
<pdfrwt beam="2">  1       -2 0.42510201E-01 0.13094927E+04</pdfrwt>
<totfact> 0.80823673E+01</totfact>
</mgrwt>
</event>
<event>
 4    1  0.3584860E-005  0.8050887E+03  0.7818608E-02  0.9552681E-01
         -2   -1    0    0    0  501 -0.00000000000E+00  0.00000000000E+00  0.66560536817E+02  0.66560536865E+02  0.25500000000E-02 0. -1.
          2   -1    0    0  501    0  0.00000000000E+00 -0.00000000000E+00 -0.24345046644E+04  0.24345046644E+04  0.25500000000E-02 0.  1.
    5000001    1    1    2    0    0 -0.23471314745E+03  0.26847076595E+03 -0.91225586403E+03  0.99327869967E+03  0.16500000000E+03 0.  0.
   -5000001    1    1    2    0    0  0.23471314745E+03 -0.26847076595E+03 -0.14556882635E+04  0.15077865016E+04  0.16500000000E+03 0.  0.
<mgrwt>
<rscale>  0 0.80508866E+03</rscale>
<asrwt>0</asrwt>
<pdfrwt beam="1">  1        2 0.34778632E+00 0.80508866E+03</pdfrwt>
<pdfrwt beam="2">  1       -2 0.95086496E-02 0.80508866E+03</pdfrwt>
<totfact> 0.36487827E+02</totfact>
</mgrwt>
</event>
<event>
 4    1  0.3584860E-005  0.3536570E+03  0.7818608E-02  0.1061124E+00
          2   -1    0    0  501    0  0.00000000000E+00  0.00000000000E+00  0.42685788406E+04  0.42685788406E+04  0.25500000000E-02 0.  1.
         -2   -1    0    0    0  501 -0.00000000000E+00 -0.00000000000E+00 -0.73252299162E+01  0.73252303600E+01  0.25500000000E-02 0. -1.
    5000001    1    1    2    0    0 -0.54915748439E+02  0.26325186682E+02  0.19094765025E+04  0.19175594563E+04  0.16500000000E+03 0.  0.
   -5000001    1    1    2    0    0  0.54915748439E+02 -0.26325186682E+02  0.23517771082E+04  0.23583446147E+04  0.16500000000E+03 0.  0.
<mgrwt>
<rscale>  0 0.35365702E+03</rscale>
<asrwt>0</asrwt>
<pdfrwt beam="1">  1        2 0.60979567E+00 0.35365702E+03</pdfrwt>
<pdfrwt beam="2">  1       -2 0.10464637E-02 0.35365702E+03</pdfrwt>
<totfact> 0.93557802E+02</totfact>
</mgrwt>
</event>
<event>
 4    1  0.3584860E-005  0.4492015E+03  0.7818608E-02  0.1027960E+00
         -2   -1    0    0    0  501 -0.00000000000E+00  0.00000000000E+00  0.64664776999E+02  0.64664777049E+02  0.25500000000E-02 0. -1.
          2   -1    0    0  501    0  0.00000000000E+00 -0.00000000000E+00 -0.78010770037E+03  0.78010770037E+03  0.25500000000E-02 0.  1.
    5000001    1    1    2    0    0 -0.13517907107E+03  0.69799768821E+02 -0.37401903531E+03  0.43618875244E+03  0.16500000000E+03 0.  0.
   -5000001    1    1    2    0    0  0.13517907107E+03 -0.69799768821E+02 -0.34142388806E+03  0.40858372498E+03  0.16500000000E+03 0.  0.
<mgrwt>
<rscale>  0 0.44920147E+03</rscale>
<asrwt>0</asrwt>
<pdfrwt beam="1">  1        2 0.11144395E+00 0.44920147E+03</pdfrwt>
<pdfrwt beam="2">  1       -2 0.92378257E-02 0.44920147E+03</pdfrwt>
<totfact> 0.30475702E+03</totfact>
</mgrwt>
</event>
<event>
 4    1  0.3584860E-005  0.6760229E+03  0.7818608E-02  0.9759138E-01
         -2   -1    0    0    0  501 -0.00000000000E+00  0.00000000000E+00  0.35952140799E+03  0.35952140800E+03  0.25500000000E-02 0. -1.
          2   -1    0    0  501    0  0.00000000000E+00 -0.00000000000E+00 -0.31778837431E+03  0.31778837432E+03  0.25500000000E-02 0.  1.
    5000001    1    1    2    0    0  0.28022626166E+03  0.87108505895E+02 -0.93915424819E+01  0.33679051441E+03  0.16500000000E+03 0.  0.
   -5000001    1    1    2    0    0 -0.28022626166E+03 -0.87108505895E+02  0.51124576162E+02  0.34051926790E+03  0.16500000000E+03 0.  0.
<mgrwt>
<rscale>  0 0.67602285E+03</rscale>
<asrwt>0</asrwt>
<pdfrwt beam="1">  1        2 0.45398339E-01 0.67602285E+03</pdfrwt>
<pdfrwt beam="2">  1       -2 0.51360201E-01 0.67602285E+03</pdfrwt>
<totfact> 0.40394465E+02</totfact>
</mgrwt>
</event>
<event>
 4    1  0.3584860E-005  0.5786263E+03  0.7818608E-02  0.9950769E-01
          2   -1    0    0  501    0  0.00000000000E+00  0.00000000000E+00  0.52183688736E+03  0.52183688737E+03  0.25500000000E-02 0.  1.
         -2   -1    0    0    0  501 -0.00000000000E+00 -0.00000000000E+00 -0.16039897667E+03  0.16039897669E+03  0.25500000000E-02 0. -1.
    5000001    1    1    2    0    0  0.17353029430E+03 -0.16200894051E+03  0.16794134258E+03  0.33434855225E+03  0.16500000000E+03 0.  0.
   -5000001    1    1    2    0    0 -0.17353029430E+03  0.16200894051E+03  0.19349656811E+03  0.34788731181E+03  0.16500000000E+03 0.  0.
<mgrwt>
<rscale>  0 0.57862631E+03</rscale>
<asrwt>0</asrwt>
<pdfrwt beam="1">  1        2 0.74548127E-01 0.57862631E+03</pdfrwt>
<pdfrwt beam="2">  1       -2 0.22914139E-01 0.57862631E+03</pdfrwt>
<totfact> 0.10731233E+03</totfact>
</mgrwt>
</event>
<event>
 4    1  0.3584860E-005  0.4912740E+03  0.7818608E-02  0.1016082E+00
          2   -1    0    0  501    0  0.00000000000E+00  0.00000000000E+00  0.44954398301E+03  0.44954398302E+03  0.25500000000E-02 0.  1.
         -2   -1    0    0    0  501 -0.00000000000E+00 -0.00000000000E+00 -0.13421942572E+03  0.13421942574E+03  0.25500000000E-02 0. -1.
    5000001    1    1    2    0    0  0.38997458754E+02 -0.16290333254E+03  0.24213975325E+03  0.33751289997E+03  0.16500000000E+03 0.  0.
   -5000001    1    1    2    0    0 -0.38997458754E+02  0.16290333254E+03  0.73184804044E+02  0.24625050880E+03  0.16500000000E+03 0.  0.
<mgrwt>
<rscale>  0 0.49127400E+03</rscale>
<asrwt>0</asrwt>
<pdfrwt beam="1">  1        2 0.64220569E-01 0.49127400E+03</pdfrwt>
<pdfrwt beam="2">  1       -2 0.19174204E-01 0.49127400E+03</pdfrwt>
<totfact> 0.17340800E+03</totfact>
</mgrwt>
</event>
<event>
 4    1  0.3584860E-005  0.4694966E+03  0.7818608E-02  0.1022062E+00
         -2   -1    0    0    0  501 -0.00000000000E+00  0.00000000000E+00  0.16430119186E+02  0.16430119384E+02  0.25500000000E-02 0. -1.
          2   -1    0    0  501    0  0.00000000000E+00 -0.00000000000E+00 -0.33540087448E+04  0.33540087448E+04  0.25500000000E-02 0.  1.
    5000001    1    1    2    0    0 -0.92943555587E+02  0.86178021449E+01 -0.67486422918E+03  0.70098466379E+03  0.16500000000E+03 0.  0.
   -5000001    1    1    2    0    0  0.92943555587E+02 -0.86178021449E+01 -0.26627143965E+04  0.26694542004E+04  0.16500000000E+03 0.  0.
<mgrwt>
<rscale>  0 0.46949660E+03</rscale>
<asrwt>0</asrwt>
<pdfrwt beam="1">  1        2 0.47914367E+00 0.46949660E+03</pdfrwt>
<pdfrwt beam="2">  1       -2 0.23471620E-02 0.46949660E+03</pdfrwt>
<totfact> 0.10549113E+03</totfact>
</mgrwt>
</event>
<event>
 4    1  0.3584860E-005  0.7140744E+03  0.7818608E-02  0.9693461E-01
         -2   -1    0    0    0  501 -0.00000000000E+00  0.00000000000E+00  0.12354574775E+03  0.12354574778E+03  0.25500000000E-02 0. -1.
          2   -1    0    0  501    0  0.00000000000E+00 -0.00000000000E+00 -0.10318085343E+04  0.10318085343E+04  0.25500000000E-02 0.  1.
    5000001    1    1    2    0    0 -0.30354895710E+03 -0.35396945687E+02 -0.58809778074E+03  0.68299261550E+03  0.16500000000E+03 0.  0.
   -5000001    1    1    2    0    0  0.30354895710E+03  0.35396945687E+02 -0.32016500586E+03  0.47236166662E+03  0.16500000000E+03 0.  0.
<mgrwt>
<rscale>  0 0.71407439E+03</rscale>
<asrwt>0</asrwt>
<pdfrwt beam="1">  1        2 0.14740121E+00 0.71407439E+03</pdfrwt>
<pdfrwt beam="2">  1       -2 0.17649393E-01 0.71407439E+03</pdfrwt>
<totfact> 0.71538770E+02</totfact>
</mgrwt>
</event>
<event>
 4    1  0.3584860E-005  0.5044471E+03  0.7818608E-02  0.1012625E+00
         -2   -1    0    0    0  501 -0.00000000000E+00  0.00000000000E+00  0.85974599968E+02  0.85974600006E+02  0.25500000000E-02 0. -1.
          2   -1    0    0  501    0  0.00000000000E+00 -0.00000000000E+00 -0.73994793948E+03  0.73994793948E+03  0.25500000000E-02 0.  1.
    5000001    1    1    2    0    0  0.77085070206E+01  0.18876963584E+03 -0.37025344320E+03  0.44722031338E+03  0.16500000000E+03 0.  0.
   -5000001    1    1    2    0    0 -0.77085070206E+01 -0.18876963584E+03 -0.28371989631E+03  0.37870222611E+03  0.16500000000E+03 0.  0.
<mgrwt>
<rscale>  0 0.50444714E+03</rscale>
<asrwt>0</asrwt>
<pdfrwt beam="1">  1        2 0.10570685E+00 0.50444714E+03</pdfrwt>
<pdfrwt beam="2">  1       -2 0.12282086E-01 0.50444714E+03</pdfrwt>
<totfact> 0.20525237E+03</totfact>
</mgrwt>
</event>
<event>
 4    1  0.3584860E-005  0.7711585E+03  0.7818608E-02  0.9602729E-01
          2   -1    0    0  501    0  0.00000000000E+00  0.00000000000E+00  0.81990020662E+03  0.81990020662E+03  0.25500000000E-02 0.  1.
         -2   -1    0    0    0  501 -0.00000000000E+00 -0.00000000000E+00 -0.18132859188E+03  0.18132859190E+03  0.25500000000E-02 0. -1.
    5000001    1    1    2    0    0 -0.17620123075E+03 -0.22091664907E+03  0.58408208729E+03  0.66949826307E+03  0.16500000000E+03 0.  0.
   -5000001    1    1    2    0    0  0.17620123075E+03  0.22091664907E+03  0.54489527438E+02  0.33173053546E+03  0.16500000000E+03 0.  0.
<mgrwt>
<rscale>  0 0.77115848E+03</rscale>
<asrwt>0</asrwt>
<pdfrwt beam="1">  1        2 0.11712860E+00 0.77115848E+03</pdfrwt>
<pdfrwt beam="2">  1       -2 0.25904084E-01 0.77115848E+03</pdfrwt>
<totfact> 0.49616251E+02</totfact>
</mgrwt>
</event>
<event>
 4    1  0.3584860E-005  0.4555256E+03  0.7818608E-02  0.1026087E+00
         -2   -1    0    0    0  501 -0.00000000000E+00  0.00000000000E+00  0.30525246220E+02  0.30525246327E+02  0.25500000000E-02 0. -1.
          2   -1    0    0  501    0  0.00000000000E+00 -0.00000000000E+00 -0.16994422267E+04  0.16994422267E+04  0.25500000000E-02 0.  1.
    5000001    1    1    2    0    0 -0.14155298326E+03 -0.65106823392E+02 -0.76094039916E+03  0.79406009634E+03  0.16500000000E+03 0.  0.
   -5000001    1    1    2    0    0  0.14155298326E+03  0.65106823392E+02 -0.90797658131E+03  0.93590737669E+03  0.16500000000E+03 0.  0.
<mgrwt>
<rscale>  0 0.45552560E+03</rscale>
<asrwt>0</asrwt>
<pdfrwt beam="1">  1        2 0.24277740E+00 0.45552560E+03</pdfrwt>
<pdfrwt beam="2">  1       -2 0.43607505E-02 0.45552560E+03</pdfrwt>
<totfact> 0.29839951E+03</totfact>
</mgrwt>
</event>
<event>
 4    1  0.3584860E-005  0.4940196E+03  0.7818608E-02  0.1015352E+00
         -2   -1    0    0    0  501 -0.00000000000E+00  0.00000000000E+00  0.12441644201E+03  0.12441644204E+03  0.25500000000E-02 0. -1.
          2   -1    0    0  501    0  0.00000000000E+00 -0.00000000000E+00 -0.49040008373E+03  0.49040008374E+03  0.25500000000E-02 0.  1.
    5000001    1    1    2    0    0 -0.34816298476E+02 -0.15616920212E+03 -0.29560417419E+03  0.37444334969E+03  0.16500000000E+03 0.  0.
   -5000001    1    1    2    0    0  0.34816298476E+02  0.15616920212E+03 -0.70379467537E+02  0.24037317609E+03  0.16500000000E+03 0.  0.
<mgrwt>
<rscale>  0 0.49401957E+03</rscale>
<asrwt>0</asrwt>
<pdfrwt beam="1">  1        2 0.70057154E-01 0.49401957E+03</pdfrwt>
<pdfrwt beam="2">  1       -2 0.17773778E-01 0.49401957E+03</pdfrwt>
<totfact> 0.17916808E+03</totfact>
</mgrwt>
</event>
<event>
 4    1  0.3584860E-005  0.5458221E+03  0.7818608E-02  0.1002466E+00
         -2   -1    0    0    0  501 -0.00000000000E+00  0.00000000000E+00  0.11469906446E+03  0.11469906449E+03  0.25500000000E-02 0.  1.
          2   -1    0    0  501    0  0.00000000000E+00 -0.00000000000E+00 -0.64935521999E+03  0.64935521999E+03  0.25500000000E-02 0. -1.
    5000001    1    1    2    0    0 -0.14540917947E+03  0.14984789911E+03 -0.18267391962E+03  0.32278937908E+03  0.16500000000E+03 0.  0.
   -5000001    1    1    2    0    0  0.14540917947E+03 -0.14984789911E+03 -0.35198223591E+03  0.44126490540E+03  0.16500000000E+03 0.  0.
<mgrwt>
<rscale>  0 0.54582208E+03</rscale>
<asrwt>0</asrwt>
<pdfrwt beam="1">  1        2 0.92765029E-01 0.54582208E+03</pdfrwt>
<pdfrwt beam="2">  1       -2 0.16385581E-01 0.54582208E+03</pdfrwt>
<totfact> 0.14867479E+03</totfact>
</mgrwt>
</event>
<event>
 4    1  0.3584860E-005  0.6964538E+03  0.7818608E-02  0.9723316E-01
          2   -1    0    0  501    0  0.00000000000E+00  0.00000000000E+00  0.10001919045E+04  0.10001919045E+04  0.25500000000E-02 0.  1.
         -2   -1    0    0    0  501 -0.00000000000E+00 -0.00000000000E+00 -0.12123872148E+03  0.12123872150E+03  0.25500000000E-02 0. -1.
    5000001    1    1    2    0    0 -0.29384731347E+03  0.83430636010E+02  0.39596917992E+03  0.52661514041E+03  0.16500000000E+03 0.  0.
   -5000001    1    1    2    0    0  0.29384731347E+03 -0.83430636010E+02  0.48298400312E+03  0.59481548561E+03  0.16500000000E+03 0.  0.
<mgrwt>
<rscale>  0 0.69645384E+03</rscale>
<asrwt>0</asrwt>
<pdfrwt beam="1">  1        2 0.14288455E+00 0.69645384E+03</pdfrwt>
<pdfrwt beam="2">  1       -2 0.17319818E-01 0.69645384E+03</pdfrwt>
<totfact> 0.77281197E+02</totfact>
</mgrwt>
</event>
<event>
 4    1  0.3584860E-005  0.4738011E+03  0.7818608E-02  0.1020853E+00
         -2   -1    0    0    0  501 -0.00000000000E+00  0.00000000000E+00  0.81449459455E+02  0.81449459495E+02  0.25500000000E-02 0. -1.
          2   -1    0    0  501    0  0.00000000000E+00 -0.00000000000E+00 -0.68903933045E+03  0.68903933046E+03  0.25500000000E-02 0.  1.
    5000001    1    1    2    0    0 -0.15429622978E+03 -0.40091439318E+02 -0.39975687298E+03  0.46091778825E+03  0.16500000000E+03 0.  0.
   -5000001    1    1    2    0    0  0.15429622978E+03  0.40091439318E+02 -0.20783299801E+03  0.30957100170E+03  0.16500000000E+03 0.  0.
<mgrwt>
<rscale>  0 0.47380114E+03</rscale>
<asrwt>0</asrwt>
<pdfrwt beam="1">  1        2 0.98434187E-01 0.47380114E+03</pdfrwt>
<pdfrwt beam="2">  1       -2 0.11635637E-01 0.47380114E+03</pdfrwt>
<totfact> 0.24460661E+03</totfact>
</mgrwt>
</event>
<event>
 4    1  0.3584860E-005  0.6089765E+03  0.7818608E-02  0.9886956E-01
          2   -1    0    0  501    0  0.00000000000E+00  0.00000000000E+00  0.46615206848E+03  0.46615206848E+03  0.25500000000E-02 0.  1.
         -2   -1    0    0    0  501 -0.00000000000E+00 -0.00000000000E+00 -0.19889024652E+03  0.19889024654E+03  0.25500000000E-02 0. -1.
    5000001    1    1    2    0    0 -0.94736915110E+02  0.23001752931E+03  0.19919990687E+03  0.35887149479E+03  0.16500000000E+03 0.  0.
   -5000001    1    1    2    0    0  0.94736915110E+02 -0.23001752931E+03  0.68061915091E+02  0.30617082023E+03  0.16500000000E+03 0.  0.
<mgrwt>
<rscale>  0 0.60897652E+03</rscale>
<asrwt>0</asrwt>
<pdfrwt beam="1">  1        2 0.66593151E-01 0.60897652E+03</pdfrwt>
<pdfrwt beam="2">  1       -2 0.28412893E-01 0.60897652E+03</pdfrwt>
<totfact> 0.82779077E+02</totfact>
</mgrwt>
</event>
<event>
 4    1  0.3584860E-005  0.4572432E+03  0.7818608E-02  0.1025584E+00
         -2   -1    0    0    0  501 -0.00000000000E+00  0.00000000000E+00  0.17314185009E+02  0.17314185197E+02  0.25500000000E-02 0. -1.
          2   -1    0    0  501    0  0.00000000000E+00 -0.00000000000E+00 -0.30187867513E+04  0.30187867513E+04  0.25500000000E-02 0.  1.
    5000001    1    1    2    0    0  0.13652815675E+03  0.33585387544E+02 -0.10184812491E+04  0.10412958132E+04  0.16500000000E+03 0.  0.
   -5000001    1    1    2    0    0 -0.13652815675E+03 -0.33585387544E+02 -0.19829913172E+04  0.19948051233E+04  0.16500000000E+03 0.  0.
<mgrwt>
<rscale>  0 0.45724319E+03</rscale>
<asrwt>0</asrwt>
<pdfrwt beam="1">  1        2 0.43125491E+00 0.45724319E+03</pdfrwt>
<pdfrwt beam="2">  1       -2 0.24734569E-02 0.45724319E+03</pdfrwt>
<totfact> 0.14998238E+03</totfact>
</mgrwt>
</event>
<event>
 4    1  0.3584860E-005  0.4336879E+03  0.7818608E-02  0.1032701E+00
         -2   -1    0    0    0  501 -0.00000000000E+00  0.00000000000E+00  0.14646838126E+03  0.14646838128E+03  0.25500000000E-02 0. -1.
          2   -1    0    0  501    0  0.00000000000E+00 -0.00000000000E+00 -0.32103384799E+03  0.32103384800E+03  0.25500000000E-02 0.  1.
    5000001    1    1    2    0    0  0.95991965459E+02  0.82590854150E+02 -0.21177629665E+02  0.20906744993E+03  0.16500000000E+03 0.  0.
   -5000001    1    1    2    0    0 -0.95991965459E+02 -0.82590854150E+02 -0.15338783707E+03  0.25843477936E+03  0.16500000000E+03 0.  0.
<mgrwt>
<rscale>  0 0.43368794E+03</rscale>
<asrwt>0</asrwt>
<pdfrwt beam="1">  1        2 0.45861978E-01 0.43368794E+03</pdfrwt>
<pdfrwt beam="2">  1       -2 0.20924055E-01 0.43368794E+03</pdfrwt>
<totfact> 0.21572058E+03</totfact>
</mgrwt>
</event>
<event>
 4    1  0.3584860E-005  0.4559125E+03  0.7818608E-02  0.1025973E+00
          2   -1    0    0  501    0  0.00000000000E+00  0.00000000000E+00  0.72960656941E+03  0.72960656942E+03  0.25500000000E-02 0.  1.
         -2   -1    0    0    0  501 -0.00000000000E+00 -0.00000000000E+00 -0.71222017456E+02  0.71222017501E+02  0.25500000000E-02 0. -1.
    5000001    1    1    2    0    0 -0.13389490576E+03  0.82365417402E+02  0.33834384496E+03  0.40793806539E+03  0.16500000000E+03 0.  0.
   -5000001    1    1    2    0    0  0.13389490576E+03 -0.82365417402E+02  0.32004070699E+03  0.39289052152E+03  0.16500000000E+03 0.  0.
<mgrwt>
<rscale>  0 0.45591250E+03</rscale>
<asrwt>0</asrwt>
<pdfrwt beam="1">  1        2 0.10422952E+00 0.45591250E+03</pdfrwt>
<pdfrwt beam="2">  1       -2 0.10174573E-01 0.45591250E+03</pdfrwt>
<totfact> 0.28356746E+03</totfact>
</mgrwt>
</event>
<event>
 4    1  0.3584860E-005  0.7495542E+03  0.7818608E-02  0.9636050E-01
         -2   -1    0    0    0  501 -0.00000000000E+00  0.00000000000E+00  0.17688689762E+03  0.17688689764E+03  0.25500000000E-02 0. -1.
          2   -1    0    0  501    0  0.00000000000E+00 -0.00000000000E+00 -0.79405467070E+03  0.79405467070E+03  0.25500000000E-02 0.  1.
    5000001    1    1    2    0    0 -0.60738337365E+02  0.33005786656E+03 -0.34045935571E+03  0.50573205731E+03  0.16500000000E+03 0.  0.
   -5000001    1    1    2    0    0  0.60738337365E+02 -0.33005786656E+03 -0.27670841737E+03  0.46520951103E+03  0.16500000000E+03 0.  0.
<mgrwt>
<rscale>  0 0.74955418E+03</rscale>
<asrwt>0</asrwt>
<pdfrwt beam="1">  1        2 0.11343638E+00 0.74955418E+03</pdfrwt>
<pdfrwt beam="2">  1       -2 0.25269557E-01 0.74955418E+03</pdfrwt>
<totfact> 0.54124215E+02</totfact>
</mgrwt>
</event>
<event>
 4    1  0.3584860E-005  0.4183578E+03  0.7818608E-02  0.1037602E+00
          2   -1    0    0  501    0  0.00000000000E+00  0.00000000000E+00  0.10084214873E+04  0.10084214873E+04  0.25500000000E-02 0.  1.
         -2   -1    0    0    0  501 -0.00000000000E+00 -0.00000000000E+00 -0.43390405541E+02  0.43390405616E+02  0.25500000000E-02 0. -1.
    5000001    1    1    2    0    0  0.92283775933E+02  0.89442710889E+02  0.49209687130E+03  0.53469675946E+03  0.16500000000E+03 0.  0.
   -5000001    1    1    2    0    0 -0.92283775933E+02 -0.89442710889E+02  0.47293421044E+03  0.51711513345E+03  0.16500000000E+03 0.  0.
<mgrwt>
<rscale>  0 0.41835782E+03</rscale>
<asrwt>0</asrwt>
<pdfrwt beam="1">  1        2 0.14406020E+00 0.41835782E+03</pdfrwt>
<pdfrwt beam="2">  1       -2 0.61986298E-02 0.41835782E+03</pdfrwt>
<totfact> 0.40747024E+03</totfact>
</mgrwt>
</event>
<event>
 4    1  0.3584860E-005  0.5420295E+03  0.7818608E-02  0.1003356E+00
          2   -1    0    0  501    0  0.00000000000E+00  0.00000000000E+00  0.16378987511E+04  0.16378987511E+04  0.25500000000E-02 0.  1.
         -2   -1    0    0    0  501 -0.00000000000E+00 -0.00000000000E+00 -0.44843427416E+02  0.44843427488E+02  0.25500000000E-02 0. -1.
    5000001    1    1    2    0    0 -0.13992746677E+03  0.15869316977E+03  0.67787255564E+03  0.72904006733E+03  0.16500000000E+03 0.  0.
   -5000001    1    1    2    0    0  0.13992746677E+03 -0.15869316977E+03  0.91518276800E+03  0.95370211121E+03  0.16500000000E+03 0.  0.
<mgrwt>
<rscale>  0 0.54202950E+03</rscale>
<asrwt>0</asrwt>
<pdfrwt beam="1">  1        2 0.23398550E+00 0.54202950E+03</pdfrwt>
<pdfrwt beam="2">  1       -2 0.64062050E-02 0.54202950E+03</pdfrwt>
<totfact> 0.17628116E+03</totfact>
</mgrwt>
</event>
<event>
 4    1  0.3584860E-005  0.5748964E+03  0.7818608E-02  0.9958902E-01
         -2   -1    0    0    0  501 -0.00000000000E+00  0.00000000000E+00  0.15573631520E+03  0.15573631522E+03  0.25500000000E-02 0. -1.
          2   -1    0    0  501    0  0.00000000000E+00 -0.00000000000E+00 -0.53055354377E+03  0.53055354378E+03  0.25500000000E-02 0.  1.
    5000001    1    1    2    0    0  0.82562280548E+01  0.23459620577E+03 -0.20801300344E+03  0.35439801730E+03  0.16500000000E+03 0.  0.
   -5000001    1    1    2    0    0 -0.82562280548E+01 -0.23459620577E+03 -0.16680422514E+03  0.33189184170E+03  0.16500000000E+03 0.  0.
<mgrwt>
<rscale>  0 0.57489635E+03</rscale>
<asrwt>0</asrwt>
<pdfrwt beam="1">  1        2 0.75793363E-01 0.57489635E+03</pdfrwt>
<pdfrwt beam="2">  1       -2 0.22248045E-01 0.57489635E+03</pdfrwt>
<totfact> 0.11093677E+03</totfact>
</mgrwt>
</event>
<event>
 4    1  0.3584860E-005  0.3688516E+03  0.7818608E-02  0.1055133E+00
         -2   -1    0    0    0  501 -0.00000000000E+00  0.00000000000E+00  0.15675149245E+02  0.15675149453E+02  0.25500000000E-02 0. -1.
          2   -1    0    0  501    0  0.00000000000E+00 -0.00000000000E+00 -0.21698595807E+04  0.21698595807E+04  0.25500000000E-02 0.  1.
    5000001    1    1    2    0    0 -0.24825131474E+01 -0.66512751164E+02 -0.78938137284E+03  0.80918357665E+03  0.16500000000E+03 0.  0.
   -5000001    1    1    2    0    0  0.24825131474E+01  0.66512751164E+02 -0.13648030586E+04  0.13763511535E+04  0.16500000000E+03 0.  0.
<mgrwt>
<rscale>  0 0.36885159E+03</rscale>
<asrwt>0</asrwt>
<pdfrwt beam="1">  1        2 0.30997975E+00 0.36885159E+03</pdfrwt>
<pdfrwt beam="2">  1       -2 0.22393084E-02 0.36885159E+03</pdfrwt>
<totfact> 0.47695872E+03</totfact>
</mgrwt>
</event>
<event>
 4    1  0.3584860E-005  0.4416215E+03  0.7818608E-02  0.1030250E+00
          2   -1    0    0  501    0  0.00000000000E+00  0.00000000000E+00  0.28420774794E+03  0.28420774795E+03  0.25500000000E-02 0.  1.
         -2   -1    0    0    0  501 -0.00000000000E+00 -0.00000000000E+00 -0.17155546142E+03  0.17155546144E+03  0.25500000000E-02 0. -1.
    5000001    1    1    2    0    0  0.71717362941E+02  0.12699150533E+03  0.73036261277E+02  0.23201189201E+03  0.16500000000E+03 0.  0.
   -5000001    1    1    2    0    0 -0.71717362941E+02 -0.12699150533E+03  0.39616025243E+02  0.22375131738E+03  0.16500000000E+03 0.  0.
<mgrwt>
<rscale>  0 0.44162152E+03</rscale>
<asrwt>0</asrwt>
<pdfrwt beam="1">  1        2 0.40601107E-01 0.44162152E+03</pdfrwt>
<pdfrwt beam="2">  1       -2 0.24507923E-01 0.44162152E+03</pdfrwt>
<totfact> 0.18666808E+03</totfact>
</mgrwt>
</event>
<event>
 4    1  0.3584860E-005  0.4494186E+03  0.7818608E-02  0.1027896E+00
         -2   -1    0    0    0  501 -0.00000000000E+00  0.00000000000E+00  0.59331309552E+02  0.59331309607E+02  0.25500000000E-02 0. -1.
          2   -1    0    0  501    0  0.00000000000E+00 -0.00000000000E+00 -0.85105602584E+03  0.85105602584E+03  0.25500000000E-02 0.  1.
    5000001    1    1    2    0    0  0.14549165823E+02  0.14597540135E+03 -0.31115096410E+03  0.38152381117E+03  0.16500000000E+03 0.  0.
   -5000001    1    1    2    0    0 -0.14549165823E+02 -0.14597540135E+03 -0.48057375218E+03  0.52886352428E+03  0.16500000000E+03 0.  0.
<mgrwt>
<rscale>  0 0.44941860E+03</rscale>
<asrwt>0</asrwt>
<pdfrwt beam="1">  1        2 0.12157942E+00 0.44941860E+03</pdfrwt>
<pdfrwt beam="2">  1       -2 0.84759019E-02 0.44941860E+03</pdfrwt>
<totfact> 0.31293771E+03</totfact>
</mgrwt>
</event>
<event>
 4    1  0.3584860E-005  0.4577137E+03  0.7818608E-02  0.1025446E+00
         -2   -1    0    0    0  501 -0.00000000000E+00  0.00000000000E+00  0.55178854058E+02  0.55178854117E+02  0.25500000000E-02 0. -1.
          2   -1    0    0  501    0  0.00000000000E+00 -0.00000000000E+00 -0.94919437466E+03  0.94919437466E+03  0.25500000000E-02 0.  1.
    5000001    1    1    2    0    0 -0.13166540455E+03 -0.78323541349E+02 -0.35706441366E+03  0.42212598995E+03  0.16500000000E+03 0.  0.
   -5000001    1    1    2    0    0  0.13166540455E+03  0.78323541349E+02 -0.53695110693E+03  0.58224723883E+03  0.16500000000E+03 0.  0.
<mgrwt>
<rscale>  0 0.45771370E+03</rscale>
<asrwt>0</asrwt>
<pdfrwt beam="1">  1        2 0.13559919E+00 0.45771370E+03</pdfrwt>
<pdfrwt beam="2">  1       -2 0.78826940E-02 0.45771370E+03</pdfrwt>
<totfact> 0.30391373E+03</totfact>
</mgrwt>
</event>
<event>
 4    1  0.3584860E-005  0.5700182E+03  0.7818608E-02  0.9969638E-01
          2   -1    0    0  501    0  0.00000000000E+00  0.00000000000E+00  0.32531756312E+04  0.32531756313E+04  0.25500000000E-02 0.  1.
         -2   -1    0    0    0  501 -0.00000000000E+00 -0.00000000000E+00 -0.24969509850E+02  0.24969509980E+02  0.25500000000E-02 0. -1.
    5000001    1    1    2    0    0  0.27013870402E+01  0.22555457950E+03  0.19354897374E+04  0.19555632666E+04  0.16500000000E+03 0.  0.
   -5000001    1    1    2    0    0 -0.27013870402E+01 -0.22555457950E+03  0.12927163840E+04  0.13225818747E+04  0.16500000000E+03 0.  0.
<mgrwt>
<rscale>  0 0.57001825E+03</rscale>
<asrwt>0</asrwt>
<pdfrwt beam="1">  1        2 0.46473896E+00 0.57001825E+03</pdfrwt>
<pdfrwt beam="2">  1       -2 0.35670760E-02 0.57001825E+03</pdfrwt>
<totfact> 0.63205959E+02</totfact>
</mgrwt>
</event>
<event>
 4    1  0.3584860E-005  0.7397037E+03  0.7818608E-02  0.9651644E-01
          2   -1    0    0  501    0  0.00000000000E+00  0.00000000000E+00  0.54302094995E+02  0.54302095055E+02  0.25500000000E-02 0.  1.
         -2   -1    0    0    0  501 -0.00000000000E+00 -0.00000000000E+00 -0.25190628346E+04  0.25190628346E+04  0.25500000000E-02 0. -1.
    5000001    1    1    2    0    0  0.51051496467E+02 -0.20447143453E+03 -0.34440138474E+03  0.43617901903E+03  0.16500000000E+03 0.  0.
   -5000001    1    1    2    0    0 -0.51051496467E+02  0.20447143453E+03 -0.21203593549E+04  0.21371859106E+04  0.16500000000E+03 0.  0.
<mgrwt>
<rscale>  0 0.73970370E+03</rscale>
<asrwt>0</asrwt>
<pdfrwt beam="1">  1        2 0.77574437E-02 0.73970370E+03</pdfrwt>
<pdfrwt beam="2">  1       -2 0.35986605E+00 0.73970370E+03</pdfrwt>
<totfact> 0.13157022E+01</totfact>
</mgrwt>
</event>
<event>
 4    1  0.3584860E-005  0.5331323E+03  0.7818608E-02  0.1005475E+00
         -2   -1    0    0    0  501 -0.00000000000E+00  0.00000000000E+00  0.61472992274E+02  0.61472992327E+02  0.25500000000E-02 0. -1.
          2   -1    0    0  501    0  0.00000000000E+00 -0.00000000000E+00 -0.11559143943E+04  0.11559143943E+04  0.25500000000E-02 0.  1.
    5000001    1    1    2    0    0  0.82558864326E+02  0.18930701959E+03 -0.46880105302E+03  0.53819377649E+03  0.16500000000E+03 0.  0.
   -5000001    1    1    2    0    0 -0.82558864326E+02 -0.18930701959E+03 -0.62564034902E+03  0.67919361015E+03  0.16500000000E+03 0.  0.
<mgrwt>
<rscale>  0 0.53313232E+03</rscale>
<asrwt>0</asrwt>
<pdfrwt beam="1">  1        2 0.16513061E+00 0.53313232E+03</pdfrwt>
<pdfrwt beam="2">  1       -2 0.87818568E-02 0.53313232E+03</pdfrwt>
<totfact> 0.19314619E+03</totfact>
</mgrwt>
</event>
<event>
 4    1  0.3584860E-005  0.5805208E+03  0.7818608E-02  0.9946664E-01
         -2   -1    0    0    0  501 -0.00000000000E+00  0.00000000000E+00  0.13362888033E+03  0.13362888036E+03  0.25500000000E-02 0. -1.
          2   -1    0    0  501    0  0.00000000000E+00 -0.00000000000E+00 -0.63048566135E+03  0.63048566136E+03  0.25500000000E-02 0.  1.
    5000001    1    1    2    0    0  0.34086493637E+02 -0.22692403098E+03 -0.33543773918E+03  0.43863410919E+03  0.16500000000E+03 0.  0.
   -5000001    1    1    2    0    0 -0.34086493637E+02  0.22692403098E+03 -0.16141904184E+03  0.32548043252E+03  0.16500000000E+03 0.  0.
<mgrwt>
<rscale>  0 0.58052078E+03</rscale>
<asrwt>0</asrwt>
<pdfrwt beam="1">  1        2 0.90069378E-01 0.58052078E+03</pdfrwt>
<pdfrwt beam="2">  1       -2 0.19089841E-01 0.58052078E+03</pdfrwt>
<totfact> 0.11851832E+03</totfact>
</mgrwt>
</event>
<event>
 4    1  0.3584860E-005  0.5053803E+03  0.7818608E-02  0.1012384E+00
          2   -1    0    0  501    0  0.00000000000E+00  0.00000000000E+00  0.19847911070E+03  0.19847911071E+03  0.25500000000E-02 0.  1.
         -2   -1    0    0    0  501 -0.00000000000E+00 -0.00000000000E+00 -0.32170797449E+03  0.32170797450E+03  0.25500000000E-02 0. -1.
    5000001    1    1    2    0    0 -0.16818835159E+03  0.44263237174E+02 -0.14383440947E+03  0.27957090893E+03  0.16500000000E+03 0.  0.
   -5000001    1    1    2    0    0  0.16818835159E+03 -0.44263237174E+02  0.20605545668E+02  0.24061617628E+03  0.16500000000E+03 0.  0.
<mgrwt>
<rscale>  0 0.50538030E+03</rscale>
<asrwt>0</asrwt>
<pdfrwt beam="1">  1        2 0.28354159E-01 0.50538030E+03</pdfrwt>
<pdfrwt beam="2">  1       -2 0.45958282E-01 0.50538030E+03</pdfrwt>
<totfact> 0.85479160E+02</totfact>
</mgrwt>
</event>
<event>
 4    1  0.3584860E-005  0.3835499E+03  0.7818608E-02  0.1049629E+00
         -2   -1    0    0    0  501 -0.00000000000E+00  0.00000000000E+00  0.72991019141E+02  0.72991019186E+02  0.25500000000E-02 0. -1.
          2   -1    0    0  501    0  0.00000000000E+00 -0.00000000000E+00 -0.50386514736E+03  0.50386514737E+03  0.25500000000E-02 0.  1.
    5000001    1    1    2    0    0 -0.49019715229E+02  0.71400732667E+02 -0.28356034628E+03  0.33931175501E+03  0.16500000000E+03 0.  0.
   -5000001    1    1    2    0    0  0.49019715229E+02 -0.71400732667E+02 -0.14731378195E+03  0.23754441155E+03  0.16500000000E+03 0.  0.
<mgrwt>
<rscale>  0 0.38354990E+03</rscale>
<asrwt>0</asrwt>
<pdfrwt beam="1">  1        2 0.71980733E-01 0.38354990E+03</pdfrwt>
<pdfrwt beam="2">  1       -2 0.10427289E-01 0.38354990E+03</pdfrwt>
<totfact> 0.41889250E+03</totfact>
</mgrwt>
</event>
<event>
 4    1  0.3584860E-005  0.4782172E+03  0.7818608E-02  0.1019626E+00
          2   -1    0    0  501    0  0.00000000000E+00  0.00000000000E+00  0.13631081776E+04  0.13631081776E+04  0.25500000000E-02 0.  1.
         -2   -1    0    0    0  501 -0.00000000000E+00 -0.00000000000E+00 -0.41943050020E+02  0.41943050097E+02  0.25500000000E-02 0. -1.
    5000001    1    1    2    0    0  0.80253851162E+02  0.59914398024E+02  0.24592995978E+03  0.31262911067E+03  0.16500000000E+03 0.  0.
   -5000001    1    1    2    0    0 -0.80253851162E+02 -0.59914398024E+02  0.10752351678E+04  0.10924221170E+04  0.16500000000E+03 0.  0.
<mgrwt>
<rscale>  0 0.47821717E+03</rscale>
<asrwt>0</asrwt>
<pdfrwt beam="1">  1        2 0.19472974E+00 0.47821717E+03</pdfrwt>
<pdfrwt beam="2">  1       -2 0.59918642E-02 0.47821717E+03</pdfrwt>
<totfact> 0.27212484E+03</totfact>
</mgrwt>
</event>
<event>
 4    1  0.3584860E-005  0.5734176E+03  0.7818608E-02  0.9962144E-01
          2   -1    0    0  501    0  0.00000000000E+00  0.00000000000E+00  0.26584429407E+04  0.26584429407E+04  0.25500000000E-02 0.  1.
         -2   -1    0    0    0  501 -0.00000000000E+00 -0.00000000000E+00 -0.30921082505E+02  0.30921082611E+02  0.25500000000E-02 0. -1.
    5000001    1    1    2    0    0  0.22590215150E+03  0.13328481369E+02  0.10258849739E+04  0.10634257896E+04  0.16500000000E+03 0.  0.
   -5000001    1    1    2    0    0 -0.22590215150E+03 -0.13328481369E+02  0.16016368844E+04  0.16259382337E+04  0.16500000000E+03 0.  0.
<mgrwt>
<rscale>  0 0.57341759E+03</rscale>
<asrwt>0</asrwt>
<pdfrwt beam="1">  1        2 0.37977756E+00 0.57341759E+03</pdfrwt>
<pdfrwt beam="2">  1       -2 0.44172975E-02 0.57341759E+03</pdfrwt>
<totfact> 0.95465086E+02</totfact>
</mgrwt>
</event>
<event>
 4    1  0.3584860E-005  0.7326223E+03  0.7818608E-02  0.9663015E-01
         -2   -1    0    0    0  501 -0.00000000000E+00  0.00000000000E+00  0.51481909789E+02  0.51481909852E+02  0.25500000000E-02 0. -1.
          2   -1    0    0  501    0  0.00000000000E+00 -0.00000000000E+00 -0.26064277014E+04  0.26064277014E+04  0.25500000000E-02 0.  1.
    5000001    1    1    2    0    0  0.19268225398E+02  0.32594643851E+03 -0.13450081964E+04  0.13938738802E+04  0.16500000000E+03 0.  0.
   -5000001    1    1    2    0    0 -0.19268225398E+02 -0.32594643851E+03 -0.12099375952E+04  0.12640357311E+04  0.16500000000E+03 0.  0.
<mgrwt>
<rscale>  0 0.73262235E+03</rscale>
<asrwt>0</asrwt>
<pdfrwt beam="1">  1        2 0.37234673E+00 0.73262235E+03</pdfrwt>
<pdfrwt beam="2">  1       -2 0.73545602E-02 0.73262235E+03</pdfrwt>
<totfact> 0.45168264E+02</totfact>
</mgrwt>
</event>
<event>
 4    1  0.3584860E-005  0.5129927E+03  0.7818608E-02  0.1010442E+00
          2   -1    0    0  501    0  0.00000000000E+00  0.00000000000E+00  0.20468944935E+04  0.20468944935E+04  0.25500000000E-02 0.  1.
         -2   -1    0    0    0  501 -0.00000000000E+00 -0.00000000000E+00 -0.32141561178E+02  0.32141561279E+02  0.25500000000E-02 0. -1.
    5000001    1    1    2    0    0  0.14156406168E+03  0.13253809556E+03  0.88189434892E+03  0.91791577663E+03  0.16500000000E+03 0.  0.
   -5000001    1    1    2    0    0 -0.14156406168E+03 -0.13253809556E+03  0.11328585834E+04  0.11611202781E+04  0.16500000000E+03 0.  0.
<mgrwt>
<rscale>  0 0.51299273E+03</rscale>
<asrwt>0</asrwt>
<pdfrwt beam="1">  1        2 0.29241354E+00 0.51299273E+03</pdfrwt>
<pdfrwt beam="2">  1       -2 0.45916510E-02 0.51299273E+03</pdfrwt>
<totfact> 0.18441319E+03</totfact>
</mgrwt>
</event>
<event>
 4    1  0.3584860E-005  0.4147448E+03  0.7818608E-02  0.1038790E+00
          2   -1    0    0  501    0  0.00000000000E+00  0.00000000000E+00  0.15551553349E+03  0.15551553351E+03  0.25500000000E-02 0.  1.
         -2   -1    0    0    0  501 -0.00000000000E+00 -0.00000000000E+00 -0.27652100596E+03  0.27652100597E+03  0.25500000000E-02 0. -1.
    5000001    1    1    2    0    0 -0.91233328192E+02 -0.84238822704E+02 -0.40776140224E+02  0.21049321375E+03  0.16500000000E+03 0.  0.
   -5000001    1    1    2    0    0  0.91233328192E+02  0.84238822704E+02 -0.80229332246E+02  0.22154332573E+03  0.16500000000E+03 0.  0.
<mgrwt>
<rscale>  0 0.41474480E+03</rscale>
<asrwt>0</asrwt>
<pdfrwt beam="1">  1        2 0.22216505E-01 0.41474480E+03</pdfrwt>
<pdfrwt beam="2">  1       -2 0.39503001E-01 0.41474480E+03</pdfrwt>
<totfact> 0.15139253E+03</totfact>
</mgrwt>
</event>
<event>
 4    1  0.3584860E-005  0.5443823E+03  0.7818608E-02  0.1002803E+00
         -2   -1    0    0    0  501 -0.00000000000E+00  0.00000000000E+00  0.56489904289E+02  0.56489904346E+02  0.25500000000E-02 0. -1.
          2   -1    0    0  501    0  0.00000000000E+00 -0.00000000000E+00 -0.13115266775E+04  0.13115266775E+04  0.25500000000E-02 0.  1.
    5000001    1    1    2    0    0  0.17495006374E+03 -0.12213859782E+03 -0.53560910265E+03  0.59968948025E+03  0.16500000000E+03 0.  0.
   -5000001    1    1    2    0    0 -0.17495006374E+03  0.12213859782E+03 -0.71942767055E+03  0.76832710159E+03  0.16500000000E+03 0.  0.
<mgrwt>
<rscale>  0 0.54438228E+03</rscale>
<asrwt>0</asrwt>
<pdfrwt beam="1">  1        2 0.18736094E+00 0.54438228E+03</pdfrwt>
<pdfrwt beam="2">  1       -2 0.80699871E-02 0.54438228E+03</pdfrwt>
<totfact> 0.18129738E+03</totfact>
</mgrwt>
</event>
<event>
 4    1  0.3584860E-005  0.5911091E+03  0.7818608E-02  0.9924026E-01
         -2   -1    0    0    0  501 -0.00000000000E+00  0.00000000000E+00  0.55588202013E+02  0.55588202071E+02  0.25500000000E-02 0. -1.
          2   -1    0    0  501    0  0.00000000000E+00 -0.00000000000E+00 -0.15714212055E+04  0.15714212055E+04  0.25500000000E-02 0.  1.
    5000001    1    1    2    0    0  0.24225964947E+03 -0.37049123012E+02 -0.73570760868E+03  0.79281338331E+03  0.16500000000E+03 0.  0.
   -5000001    1    1    2    0    0 -0.24225964947E+03  0.37049123012E+02 -0.78012539476E+03  0.83419602422E+03  0.16500000000E+03 0.  0.
<mgrwt>
<rscale>  0 0.59110906E+03</rscale>
<asrwt>0</asrwt>
<pdfrwt beam="1">  1        2 0.22448872E+00 0.59110906E+03</pdfrwt>
<pdfrwt beam="2">  1       -2 0.79411727E-02 0.59110906E+03</pdfrwt>
<totfact> 0.13555495E+03</totfact>
</mgrwt>
</event>
<event>
 4    1  0.3584860E-005  0.3910934E+03  0.7818608E-02  0.1046908E+00
         -2   -1    0    0    0  501 -0.00000000000E+00  0.00000000000E+00  0.55131211545E+03  0.55131211545E+03  0.25500000000E-02 0. -1.
          2   -1    0    0  501    0  0.00000000000E+00 -0.00000000000E+00 -0.69359096357E+02  0.69359096404E+02  0.25500000000E-02 0.  1.
    5000001    1    1    2    0    0 -0.57934287449E+02  0.65002554237E+02  0.14800671216E+03  0.23814428518E+03  0.16500000000E+03 0.  0.
   -5000001    1    1    2    0    0  0.57934287449E+02 -0.65002554237E+02  0.33394630693E+03  0.38252692668E+03  0.16500000000E+03 0.  0.
<mgrwt>
<rscale>  0 0.39109339E+03</rscale>
<asrwt>0</asrwt>
<pdfrwt beam="1">  1        2 0.99084431E-02 0.39109339E+03</pdfrwt>
<pdfrwt beam="2">  1       -2 0.78758868E-01 0.39109339E+03</pdfrwt>
<totfact> 0.96303718E+02</totfact>
</mgrwt>
</event>
<event>
 4    1  0.3584860E-005  0.5955210E+03  0.7818608E-02  0.9914742E-01
         -2   -1    0    0    0  501 -0.00000000000E+00  0.00000000000E+00  0.40484188196E+03  0.40484188197E+03  0.25500000000E-02 0. -1.
          2   -1    0    0  501    0  0.00000000000E+00 -0.00000000000E+00 -0.21900236354E+03  0.21900236355E+03  0.25500000000E-02 0.  1.
    5000001    1    1    2    0    0 -0.20454157024E+03  0.11006649946E+03  0.22925228065E+01  0.28492480397E+03  0.16500000000E+03 0.  0.
   -5000001    1    1    2    0    0  0.20454157024E+03 -0.11006649946E+03  0.18354699562E+03  0.33891944155E+03  0.16500000000E+03 0.  0.
<mgrwt>
<rscale>  0 0.59552105E+03</rscale>
<asrwt>0</asrwt>
<pdfrwt beam="1">  1        2 0.31286052E-01 0.59552105E+03</pdfrwt>
<pdfrwt beam="2">  1       -2 0.57834554E-01 0.59552105E+03</pdfrwt>
<totfact> 0.47898495E+02</totfact>
</mgrwt>
</event>
<event>
 4    1  0.3584860E-005  0.3902855E+03  0.7818608E-02  0.1047196E+00
          2   -1    0    0  501    0  0.00000000000E+00  0.00000000000E+00  0.14726566458E+03  0.14726566460E+03  0.25500000000E-02 0.  1.
         -2   -1    0    0    0  501 -0.00000000000E+00 -0.00000000000E+00 -0.25858502979E+03  0.25858502980E+03  0.25500000000E-02 0. -1.
    5000001    1    1    2    0    0 -0.65830332090E+02 -0.15542521299E+02 -0.13806984100E+03  0.22552934085E+03  0.16500000000E+03 0.  0.
   -5000001    1    1    2    0    0  0.65830332090E+02  0.15542521299E+02  0.26750475792E+02  0.18032135355E+03  0.16500000000E+03 0.  0.
<mgrwt>
<rscale>  0 0.39028552E+03</rscale>
<asrwt>0</asrwt>
<pdfrwt beam="1">  1        2 0.21037952E-01 0.39028552E+03</pdfrwt>
<pdfrwt beam="2">  1       -2 0.36940718E-01 0.39028552E+03</pdfrwt>
<totfact> 0.18304669E+03</totfact>
</mgrwt>
</event>
<event>
 4    1  0.3584860E-005  0.4386514E+03  0.7818608E-02  0.1031161E+00
          2   -1    0    0  501    0  0.00000000000E+00  0.00000000000E+00  0.61324635823E+03  0.61324635824E+03  0.25500000000E-02 0.  1.
         -2   -1    0    0    0  501 -0.00000000000E+00 -0.00000000000E+00 -0.78441156853E+02  0.78441156895E+02  0.25500000000E-02 0. -1.
    5000001    1    1    2    0    0  0.10287042380E+02  0.10812258576E+03  0.41767930227E+03  0.46203605524E+03  0.16500000000E+03 0.  0.
   -5000001    1    1    2    0    0 -0.10287042380E+02 -0.10812258576E+03  0.11712589911E+03  0.22965145990E+03  0.16500000000E+03 0.  0.
<mgrwt>
<rscale>  0 0.43865136E+03</rscale>
<asrwt>0</asrwt>
<pdfrwt beam="1">  1        2 0.87606624E-01 0.43865136E+03</pdfrwt>
<pdfrwt beam="2">  1       -2 0.11205879E-01 0.43865136E+03</pdfrwt>
<totfact> 0.29846572E+03</totfact>
</mgrwt>
</event>
<event>
 4    1  0.3584860E-005  0.5034697E+03  0.7818608E-02  0.1012877E+00
          2   -1    0    0  501    0  0.00000000000E+00  0.00000000000E+00  0.14703972396E+03  0.14703972398E+03  0.25500000000E-02 0.  1.
         -2   -1    0    0    0  501 -0.00000000000E+00 -0.00000000000E+00 -0.43097489253E+03  0.43097489253E+03  0.25500000000E-02 0. -1.
    5000001    1    1    2    0    0  0.93492818282E+01  0.18694275627E+03 -0.10371063630E+03  0.27021454305E+03  0.16500000000E+03 0.  0.
   -5000001    1    1    2    0    0 -0.93492818282E+01 -0.18694275627E+03 -0.18022453227E+03  0.30780007347E+03  0.16500000000E+03 0.  0.
<mgrwt>
<rscale>  0 0.50346968E+03</rscale>
<asrwt>0</asrwt>
<pdfrwt beam="1">  1        2 0.21005675E-01 0.50346968E+03</pdfrwt>
<pdfrwt beam="2">  1       -2 0.61567841E-01 0.50346968E+03</pdfrwt>
<totfact> 0.66186122E+02</totfact>
</mgrwt>
</event>
<event>
 4    1  0.3584860E-005  0.4545519E+03  0.7818608E-02  0.1026373E+00
         -2   -1    0    0    0  501 -0.00000000000E+00  0.00000000000E+00  0.21694223730E+03  0.21694223732E+03  0.25500000000E-02 0. -1.
          2   -1    0    0  501    0  0.00000000000E+00 -0.00000000000E+00 -0.23810186826E+03  0.23810186828E+03  0.25500000000E-02 0.  1.
    5000001    1    1    2    0    0 -0.13977039845E+03 -0.69562473237E+02 -0.17980387922E+02  0.22786618072E+03  0.16500000000E+03 0.  0.
   -5000001    1    1    2    0    0  0.13977039845E+03  0.69562473237E+02 -0.31792430398E+01  0.22717792488E+03  0.16500000000E+03 0.  0.
<mgrwt>
<rscale>  0 0.45455188E+03</rscale>
<asrwt>0</asrwt>
<pdfrwt beam="1">  1        2 0.34014552E-01 0.45455188E+03</pdfrwt>
<pdfrwt beam="2">  1       -2 0.30991748E-01 0.45455188E+03</pdfrwt>
<totfact> 0.14827496E+03</totfact>
</mgrwt>
</event>
<event>
 4    1  0.3584860E-005  0.4477268E+03  0.7818608E-02  0.1028402E+00
         -2   -1    0    0    0  501 -0.00000000000E+00  0.00000000000E+00  0.11577171156E+03  0.11577171159E+03  0.25500000000E-02 0. -1.
          2   -1    0    0  501    0  0.00000000000E+00 -0.00000000000E+00 -0.43287614203E+03  0.43287614204E+03  0.25500000000E-02 0.  1.
    5000001    1    1    2    0    0  0.14812934666E+03 -0.22005710106E+02 -0.13217725895E+03  0.25907987649E+03  0.16500000000E+03 0.  0.
   -5000001    1    1    2    0    0 -0.14812934666E+03  0.22005710106E+02 -0.18492717152E+03  0.28956797714E+03  0.16500000000E+03 0.  0.
<mgrwt>
<rscale>  0 0.44772676E+03</rscale>
<asrwt>0</asrwt>
<pdfrwt beam="1">  1        2 0.61839448E-01 0.44772676E+03</pdfrwt>
<pdfrwt beam="2">  1       -2 0.16538816E-01 0.44772676E+03</pdfrwt>
<totfact> 0.23258638E+03</totfact>
</mgrwt>
</event>
<event>
 4    1  0.3584860E-005  0.7616902E+03  0.7818608E-02  0.9617187E-01
         -2   -1    0    0    0  501 -0.00000000000E+00  0.00000000000E+00  0.37136787062E+03  0.37136787063E+03  0.25500000000E-02 0. -1.
          2   -1    0    0  501    0  0.00000000000E+00 -0.00000000000E+00 -0.39056422743E+03  0.39056422744E+03  0.25500000000E-02 0.  1.
    5000001    1    1    2    0    0  0.87278848493E+01  0.20198780433E+03  0.26787547281E+03  0.37397529063E+03  0.16500000000E+03 0.  0.
   -5000001    1    1    2    0    0 -0.87278848493E+01 -0.20198780433E+03 -0.28707182962E+03  0.38795680743E+03  0.16500000000E+03 0.  0.
<mgrwt>
<rscale>  0 0.76169024E+03</rscale>
<asrwt>0</asrwt>
<pdfrwt beam="1">  1        2 0.55794890E-01 0.76169024E+03</pdfrwt>
<pdfrwt beam="2">  1       -2 0.53052553E-01 0.76169024E+03</pdfrwt>
<totfact> 0.29984152E+02</totfact>
</mgrwt>
</event>
<event>
 4    1  0.3584860E-005  0.3912959E+03  0.7818608E-02  0.1046836E+00
          2   -1    0    0  501    0  0.00000000000E+00  0.00000000000E+00  0.25882617187E+04  0.25882617187E+04  0.25500000000E-02 0. -1.
         -2   -1    0    0    0  501 -0.00000000000E+00 -0.00000000000E+00 -0.14789120739E+02  0.14789120959E+02  0.25500000000E-02 0.  1.
    5000001    1    1    2    0    0  0.29446378740E+02  0.10090354354E+03  0.12726228426E+04  0.12875723335E+04  0.16500000000E+03 0.  0.
   -5000001    1    1    2    0    0 -0.29446378740E+02 -0.10090354354E+03  0.13008497553E+04  0.13154785062E+04  0.16500000000E+03 0.  0.
<mgrwt>
<rscale>  0 0.39129587E+03</rscale>
<asrwt>0</asrwt>
<pdfrwt beam="1">  1        2 0.36975161E+00 0.39129587E+03</pdfrwt>
<pdfrwt beam="2">  1       -2 0.21127319E-02 0.39129587E+03</pdfrwt>
<totfact> 0.32074593E+03</totfact>
</mgrwt>
</event>
<event>
 4    1  0.3584860E-005  0.5451600E+03  0.7818608E-02  0.1002620E+00
         -2   -1    0    0    0  501 -0.00000000000E+00  0.00000000000E+00  0.19941007383E+03  0.19941007384E+03  0.25500000000E-02 0. -1.
          2   -1    0    0  501    0  0.00000000000E+00 -0.00000000000E+00 -0.37259827316E+03  0.37259827316E+03  0.25500000000E-02 0.  1.
    5000001    1    1    2    0    0 -0.11809524037E+03 -0.93177698463E+02  0.77459133655E+02  0.23633342268E+03  0.16500000000E+03 0.  0.
   -5000001    1    1    2    0    0  0.11809524037E+03  0.93177698463E+02 -0.25064733298E+03  0.33567492433E+03  0.16500000000E+03 0.  0.
<mgrwt>
<rscale>  0 0.54515997E+03</rscale>
<asrwt>0</asrwt>
<pdfrwt beam="1">  1        2 0.53228324E-01 0.54515997E+03</pdfrwt>
<pdfrwt beam="2">  1       -2 0.28487154E-01 0.54515997E+03</pdfrwt>
<totfact> 0.10580427E+03</totfact>
</mgrwt>
</event>
<event>
 4    1  0.3584860E-005  0.5189122E+03  0.7818608E-02  0.1008957E+00
          2   -1    0    0  501    0  0.00000000000E+00  0.00000000000E+00  0.41628797773E+03  0.41628797774E+03  0.25500000000E-02 0.  1.
         -2   -1    0    0    0  501 -0.00000000000E+00 -0.00000000000E+00 -0.16170887420E+03  0.16170887422E+03  0.25500000000E-02 0. -1.
    5000001    1    1    2    0    0  0.91701558099E+02 -0.17740944446E+03  0.11117994513E+03  0.28190293887E+03  0.16500000000E+03 0.  0.
   -5000001    1    1    2    0    0 -0.91701558099E+02  0.17740944446E+03  0.14339915839E+03  0.29609391309E+03  0.16500000000E+03 0.  0.
<mgrwt>
<rscale>  0 0.51891217E+03</rscale>
<asrwt>0</asrwt>
<pdfrwt beam="1">  1        2 0.59469712E-01 0.51891217E+03</pdfrwt>
<pdfrwt beam="2">  1       -2 0.23101268E-01 0.51891217E+03</pdfrwt>
<totfact> 0.13642126E+03</totfact>
</mgrwt>
</event>
<event>
 4    1  0.3584860E-005  0.4602034E+03  0.7818608E-02  0.1024722E+00
         -2   -1    0    0    0  501 -0.00000000000E+00  0.00000000000E+00  0.61826236175E+02  0.61826236227E+02  0.25500000000E-02 0. -1.
          2   -1    0    0  501    0  0.00000000000E+00 -0.00000000000E+00 -0.85638062652E+03  0.85638062653E+03  0.25500000000E-02 0.  1.
    5000001    1    1    2    0    0 -0.10230450676E+03  0.11110332959E+03 -0.28961611533E+03  0.36594078238E+03  0.16500000000E+03 0.  0.
   -5000001    1    1    2    0    0  0.10230450676E+03 -0.11110332959E+03 -0.50493827502E+03  0.55226608037E+03  0.16500000000E+03 0.  0.
<mgrwt>
<rscale>  0 0.46020339E+03</rscale>
<asrwt>0</asrwt>
<pdfrwt beam="1">  1        2 0.12234008E+00 0.46020339E+03</pdfrwt>
<pdfrwt beam="2">  1       -2 0.88323200E-02 0.46020339E+03</pdfrwt>
<totfact> 0.29076307E+03</totfact>
</mgrwt>
</event>
<event>
 4    1  0.3584860E-005  0.1256132E+04  0.7818608E-02  0.9065095E-01
         -2   -1    0    0    0  501 -0.00000000000E+00  0.00000000000E+00  0.49043531847E+03  0.49043531848E+03  0.25500000000E-02 0. -1.
          2   -1    0    0  501    0  0.00000000000E+00 -0.00000000000E+00 -0.80431980840E+03  0.80431980840E+03  0.25500000000E-02 0.  1.
    5000001    1    1    2    0    0  0.38082449568E+03 -0.40084083507E+03  0.98760426945E+02  0.58538815627E+03  0.16500000000E+03 0.  0.
   -5000001    1    1    2    0    0 -0.38082449568E+03  0.40084083507E+03 -0.41264491687E+03  0.70936697061E+03  0.16500000000E+03 0.  0.
<mgrwt>
<rscale>  0 0.12561319E+04</rscale>
<asrwt>0</asrwt>
<pdfrwt beam="1">  1        2 0.11490283E+00 0.12561319E+04</pdfrwt>
<pdfrwt beam="2">  1       -2 0.70062188E-01 0.12561319E+04</pdfrwt>
<totfact> 0.68935844E+01</totfact>
</mgrwt>
</event>
<event>
 4    1  0.3584860E-005  0.4284464E+03  0.7818608E-02  0.1034352E+00
          2   -1    0    0  501    0  0.00000000000E+00  0.00000000000E+00  0.18920324400E+04  0.18920324400E+04  0.25500000000E-02 0.  1.
         -2   -1    0    0    0  501 -0.00000000000E+00 -0.00000000000E+00 -0.24255172969E+02  0.24255173103E+02  0.25500000000E-02 0. -1.
    5000001    1    1    2    0    0  0.11347976266E+03 -0.71695100405E+02  0.81996959777E+03  0.84710860297E+03  0.16500000000E+03 0.  0.
   -5000001    1    1    2    0    0 -0.11347976266E+03  0.71695100405E+02  0.10478076692E+04  0.10691790101E+04  0.16500000000E+03 0.  0.
<mgrwt>
<rscale>  0 0.42844638E+03</rscale>
<asrwt>0</asrwt>
<pdfrwt beam="1">  1        2 0.27029037E+00 0.42844638E+03</pdfrwt>
<pdfrwt beam="2">  1       -2 0.34650244E-02 0.42844638E+03</pdfrwt>
<totfact> 0.33953034E+03</totfact>
</mgrwt>
</event>
<event>
 4    1  0.3584860E-005  0.4928394E+03  0.7818608E-02  0.1015665E+00
          2   -1    0    0  501    0  0.00000000000E+00  0.00000000000E+00  0.22893033770E+04  0.22893033770E+04  0.25500000000E-02 0.  1.
         -2   -1    0    0    0  501 -0.00000000000E+00 -0.00000000000E+00 -0.26524521543E+02  0.26524521665E+02  0.25500000000E-02 0. -1.
    5000001    1    1    2    0    0  0.99747182881E+02  0.10107136192E+03  0.58881315189E+03  0.62776655576E+03  0.16500000000E+03 0.  0.
   -5000001    1    1    2    0    0 -0.99747182881E+02 -0.10107136192E+03  0.16739657036E+04  0.16880613429E+04  0.16500000000E+03 0.  0.
<mgrwt>
<rscale>  0 0.49283943E+03</rscale>
<asrwt>0</asrwt>
<pdfrwt beam="1">  1        2 0.32704332E+00 0.49283943E+03</pdfrwt>
<pdfrwt beam="2">  1       -2 0.37892176E-02 0.49283943E+03</pdfrwt>
<totfact> 0.18739847E+03</totfact>
</mgrwt>
</event>
<event>
 4    1  0.3584860E-005  0.9366602E+03  0.7818608E-02  0.9380880E-01
          2   -1    0    0  501    0  0.00000000000E+00  0.00000000000E+00  0.21976605107E+04  0.21976605107E+04  0.25500000000E-02 0.  1.
         -2   -1    0    0    0  501 -0.00000000000E+00 -0.00000000000E+00 -0.99802993698E+02  0.99802993731E+02  0.25500000000E-02 0. -1.
    5000001    1    1    2    0    0 -0.16998306664E+03 -0.39822349037E+03  0.12158633930E+04  0.13011629343E+04  0.16500000000E+03 0.  0.
   -5000001    1    1    2    0    0  0.16998306664E+03  0.39822349037E+03  0.88199412399E+03  0.99630057010E+03  0.16500000000E+03 0.  0.
<mgrwt>
<rscale>  0 0.93666023E+03</rscale>
<asrwt>0</asrwt>
<pdfrwt beam="1">  1        2 0.31395153E+00 0.93666023E+03</pdfrwt>
<pdfrwt beam="2">  1       -2 0.14257569E-01 0.93666023E+03</pdfrwt>
<totfact> 0.24453752E+02</totfact>
</mgrwt>
</event>
<event>
 4    1  0.3584860E-005  0.7689432E+03  0.7818608E-02  0.9606091E-01
          2   -1    0    0  501    0  0.00000000000E+00  0.00000000000E+00  0.30965730205E+04  0.30965730205E+04  0.25500000000E-02 0.  1.
         -2   -1    0    0    0  501 -0.00000000000E+00 -0.00000000000E+00 -0.47736135670E+02  0.47736135738E+02  0.25500000000E-02 0. -1.
    5000001    1    1    2    0    0  0.78386966488E+02  0.29996662845E+03  0.88477421061E+03  0.95193219215E+03  0.16500000000E+03 0.  0.
   -5000001    1    1    2    0    0 -0.78386966488E+02 -0.29996662845E+03  0.21640626742E+04  0.21923769641E+04  0.16500000000E+03 0.  0.
<mgrwt>
<rscale>  0 0.76894325E+03</rscale>
<asrwt>0</asrwt>
<pdfrwt beam="1">  1        2 0.44236771E+00 0.76894325E+03</pdfrwt>
<pdfrwt beam="2">  1       -2 0.68194458E-02 0.76894325E+03</pdfrwt>
<totfact> 0.27681406E+02</totfact>
</mgrwt>
</event>
<event>
 4    1  0.3584860E-005  0.3674693E+03  0.7818608E-02  0.1055665E+00
          2   -1    0    0  501    0  0.00000000000E+00  0.00000000000E+00  0.54183853561E+03  0.54183853561E+03  0.25500000000E-02 0.  1.
         -2   -1    0    0    0  501 -0.00000000000E+00 -0.00000000000E+00 -0.62303467995E+02  0.62303468047E+02  0.25500000000E-02 0. -1.
    5000001    1    1    2    0    0 -0.80584373031E+02  0.15865646223E+01  0.22975879016E+03  0.29412660543E+03  0.16500000000E+03 0.  0.
   -5000001    1    1    2    0    0  0.80584373031E+02 -0.15865646223E+01  0.24977627745E+03  0.31001539823E+03  0.16500000000E+03 0.  0.
<mgrwt>
<rscale>  0 0.36746929E+03</rscale>
<asrwt>0</asrwt>
<pdfrwt beam="1">  1        2 0.77405503E-01 0.36746929E+03</pdfrwt>
<pdfrwt beam="2">  1       -2 0.89004957E-02 0.36746929E+03</pdfrwt>
<totfact> 0.49657863E+03</totfact>
</mgrwt>
</event>
<event>
 4    1  0.3584860E-005  0.7955158E+03  0.7818608E-02  0.9566531E-01
          2   -1    0    0  501    0  0.00000000000E+00  0.00000000000E+00  0.68171132877E+03  0.68171132878E+03  0.25500000000E-02 0.  1.
         -2   -1    0    0    0  501 -0.00000000000E+00 -0.00000000000E+00 -0.23207970271E+03  0.23207970272E+03  0.25500000000E-02 0. -1.
    5000001    1    1    2    0    0  0.13105580080E+03  0.33021566268E+03  0.14549587183E+03  0.41786607366E+03  0.16500000000E+03 0.  0.
   -5000001    1    1    2    0    0 -0.13105580080E+03 -0.33021566268E+03  0.30413575424E+03  0.49592495784E+03  0.16500000000E+03 0.  0.
<mgrwt>
<rscale>  0 0.79551584E+03</rscale>
<asrwt>0</asrwt>
<pdfrwt beam="1">  1        2 0.97387335E-01 0.79551584E+03</pdfrwt>
<pdfrwt beam="2">  1       -2 0.33154243E-01 0.79551584E+03</pdfrwt>
<totfact> 0.39637662E+02</totfact>
</mgrwt>
</event>
<event>
 4    1  0.3584860E-005  0.4913044E+03  0.7818608E-02  0.1016074E+00
         -2   -1    0    0    0  501 -0.00000000000E+00  0.00000000000E+00  0.23415022431E+02  0.23415022570E+02  0.25500000000E-02 0.  1.
          2   -1    0    0  501    0  0.00000000000E+00 -0.00000000000E+00 -0.25771915393E+04  0.25771915393E+04  0.25500000000E-02 0. -1.
    5000001    1    1    2    0    0 -0.24584699321E+02  0.16851616972E+03 -0.16165615837E+04  0.16338599881E+04  0.16500000000E+03 0.  0.
   -5000001    1    1    2    0    0  0.24584699321E+02 -0.16851616972E+03 -0.93721493319E+03  0.96674657377E+03  0.16500000000E+03 0.  0.
<mgrwt>
<rscale>  0 0.49130438E+03</rscale>
<asrwt>0</asrwt>
<pdfrwt beam="1">  1        2 0.36817004E+00 0.49130438E+03</pdfrwt>
<pdfrwt beam="2">  1       -2 0.33450049E-02 0.49130438E+03</pdfrwt>
<totfact> 0.16187827E+03</totfact>
</mgrwt>
</event>
<event>
 4    1  0.3584860E-005  0.1043846E+04  0.7818608E-02  0.9261720E-01
          2   -1    0    0  501    0  0.00000000000E+00  0.00000000000E+00  0.59716823214E+03  0.59716823214E+03  0.25500000000E-02 0.  1.
         -2   -1    0    0    0  501 -0.00000000000E+00 -0.00000000000E+00 -0.45615920258E+03  0.45615920259E+03  0.25500000000E-02 0. -1.
    5000001    1    1    2    0    0  0.15036143906E+03  0.44826055806E+03 -0.77911969071E+02  0.50679519057E+03  0.16500000000E+03 0.  0.
   -5000001    1    1    2    0    0 -0.15036143906E+03 -0.44826055806E+03  0.21892099863E+03  0.54653224416E+03  0.16500000000E+03 0.  0.
<mgrwt>
<rscale>  0 0.10438463E+04</rscale>
<asrwt>0</asrwt>
<pdfrwt beam="1">  1        2 0.85309748E-01 0.10438463E+04</pdfrwt>
<pdfrwt beam="2">  1       -2 0.65165600E-01 0.10438463E+04</pdfrwt>
<totfact> 0.11810830E+02</totfact>
</mgrwt>
</event>
<event>
 4    1  0.3584860E-005  0.4284971E+03  0.7818608E-02  0.1034336E+00
         -2   -1    0    0    0  501 -0.00000000000E+00  0.00000000000E+00  0.34235775289E+02  0.34235775384E+02  0.25500000000E-02 0. -1.
          2   -1    0    0  501    0  0.00000000000E+00 -0.00000000000E+00 -0.13407742714E+04  0.13407742714E+04  0.25500000000E-02 0.  1.
    5000001    1    1    2    0    0  0.11565442863E+03 -0.35423576220E+02 -0.85739925931E+03  0.88146994644E+03  0.16500000000E+03 0.  0.
   -5000001    1    1    2    0    0 -0.11565442863E+03  0.35423576220E+02 -0.44913923681E+03  0.49354010035E+03  0.16500000000E+03 0.  0.
<mgrwt>
<rscale>  0 0.42849713E+03</rscale>
<asrwt>0</asrwt>
<pdfrwt beam="1">  1        2 0.19153915E+00 0.42849713E+03</pdfrwt>
<pdfrwt beam="2">  1       -2 0.48908259E-02 0.42849713E+03</pdfrwt>
<totfact> 0.38289988E+03</totfact>
</mgrwt>
</event>
<event>
 4    1  0.3584860E-005  0.3917085E+03  0.7818608E-02  0.1046689E+00
          2   -1    0    0  501    0  0.00000000000E+00  0.00000000000E+00  0.63111546954E+03  0.63111546954E+03  0.25500000000E-02 0.  1.
         -2   -1    0    0    0  501 -0.00000000000E+00 -0.00000000000E+00 -0.60779511516E+02  0.60779511569E+02  0.25500000000E-02 0. -1.
    5000001    1    1    2    0    0  0.10361834391E+03 -0.58478454812E+01  0.25151763662E+03  0.31820917652E+03  0.16500000000E+03 0.  0.
   -5000001    1    1    2    0    0 -0.10361834391E+03  0.58478454812E+01  0.31881832140E+03  0.37368580459E+03  0.16500000000E+03 0.  0.
<mgrwt>
<rscale>  0 0.39170851E+03</rscale>
<asrwt>0</asrwt>
<pdfrwt beam="1">  1        2 0.90159354E-01 0.39170851E+03</pdfrwt>
<pdfrwt beam="2">  1       -2 0.86827873E-02 0.39170851E+03</pdfrwt>
<totfact> 0.43388354E+03</totfact>
</mgrwt>
</event>
<event>
 4    1  0.3584860E-005  0.4693002E+03  0.7818608E-02  0.1022118E+00
          2   -1    0    0  501    0  0.00000000000E+00  0.00000000000E+00  0.18603644223E+03  0.18603644225E+03  0.25500000000E-02 0.  1.
         -2   -1    0    0    0  501 -0.00000000000E+00 -0.00000000000E+00 -0.29596710884E+03  0.29596710885E+03  0.25500000000E-02 0. -1.
    5000001    1    1    2    0    0  0.14228785177E+03  0.13293464123E+02  0.33464741081E+02  0.22083350707E+03  0.16500000000E+03 0.  0.
   -5000001    1    1    2    0    0 -0.14228785177E+03 -0.13293464123E+02 -0.14339540768E+03  0.26117004402E+03  0.16500000000E+03 0.  0.
<mgrwt>
<rscale>  0 0.46930019E+03</rscale>
<asrwt>0</asrwt>
<pdfrwt beam="1">  1        2 0.26576635E-01 0.46930019E+03</pdfrwt>
<pdfrwt beam="2">  1       -2 0.42281015E-01 0.46930019E+03</pdfrwt>
<totfact> 0.10833927E+03</totfact>
</mgrwt>
</event>
<event>
 4    1  0.3584860E-005  0.9708598E+03  0.7818608E-02  0.9341096E-01
          2   -1    0    0  501    0  0.00000000000E+00  0.00000000000E+00  0.47564943838E+03  0.47564943838E+03  0.25500000000E-02 0.  1.
         -2   -1    0    0    0  501 -0.00000000000E+00 -0.00000000000E+00 -0.49541150029E+03  0.49541150029E+03  0.25500000000E-02 0. -1.
    5000001    1    1    2    0    0 -0.36846327691E+03  0.14539406844E+03 -0.23689187601E+03  0.49015036722E+03  0.16500000000E+03 0.  0.
   -5000001    1    1    2    0    0  0.36846327691E+03 -0.14539406844E+03  0.21712981410E+03  0.48091057146E+03  0.16500000000E+03 0.  0.
<mgrwt>
<rscale>  0 0.97085983E+03</rscale>
<asrwt>0</asrwt>
<pdfrwt beam="1">  1        2 0.67949920E-01 0.97085983E+03</pdfrwt>
<pdfrwt beam="2">  1       -2 0.70773071E-01 0.97085983E+03</pdfrwt>
<totfact> 0.12911620E+02</totfact>
</mgrwt>
</event>
<event>
 4    1  0.3584860E-005  0.4954315E+03  0.7818608E-02  0.1014978E+00
         -2   -1    0    0    0  501 -0.00000000000E+00  0.00000000000E+00  0.28434161434E+03  0.28434161435E+03  0.25500000000E-02 0. -1.
          2   -1    0    0  501    0  0.00000000000E+00 -0.00000000000E+00 -0.21580760867E+03  0.21580760869E+03  0.25500000000E-02 0.  1.
    5000001    1    1    2    0    0  0.16572254940E+03 -0.46675081661E+02 -0.33420388829E+02  0.24079960344E+03  0.16500000000E+03 0.  0.
   -5000001    1    1    2    0    0 -0.16572254940E+03  0.46675081661E+02  0.10195439450E+03  0.25934961960E+03  0.16500000000E+03 0.  0.
<mgrwt>
<rscale>  0 0.49543146E+03</rscale>
<asrwt>0</asrwt>
<pdfrwt beam="1">  1        2 0.30829658E-01 0.49543146E+03</pdfrwt>
<pdfrwt beam="2">  1       -2 0.40620231E-01 0.49543146E+03</pdfrwt>
<totfact> 0.99175129E+02</totfact>
</mgrwt>
</event>
<event>
 4    1  0.3584860E-005  0.4264176E+03  0.7818608E-02  0.1034998E+00
          2   -1    0    0  501    0  0.00000000000E+00  0.00000000000E+00  0.59159913267E+03  0.59159913268E+03  0.25500000000E-02 0.  1.
         -2   -1    0    0    0  501 -0.00000000000E+00 -0.00000000000E+00 -0.76839195123E+02  0.76839195165E+02  0.25500000000E-02 0. -1.
    5000001    1    1    2    0    0 -0.94953614761E+02 -0.72692174097E+02  0.15907637725E+03  0.25851621792E+03  0.16500000000E+03 0.  0.
   -5000001    1    1    2    0    0  0.94953614761E+02  0.72692174097E+02  0.35568356030E+03  0.40992210992E+03  0.16500000000E+03 0.  0.
<mgrwt>
<rscale>  0 0.42641764E+03</rscale>
<asrwt>0</asrwt>
<pdfrwt beam="1">  1        2 0.84514164E-01 0.42641764E+03</pdfrwt>
<pdfrwt beam="2">  1       -2 0.10977028E-01 0.42641764E+03</pdfrwt>
<totfact> 0.32169605E+03</totfact>
</mgrwt>
</event>
<event>
 4    1  0.3584860E-005  0.5002044E+03  0.7818608E-02  0.1013726E+00
          2   -1    0    0  501    0  0.00000000000E+00  0.00000000000E+00  0.13710486948E+04  0.13710486948E+04  0.25500000000E-02 0.  1.
         -2   -1    0    0    0  501 -0.00000000000E+00 -0.00000000000E+00 -0.45622825453E+02  0.45622825524E+02  0.25500000000E-02 0. -1.
    5000001    1    1    2    0    0  0.67119653477E+02 -0.15240113204E+03  0.41589060166E+03  0.47741087700E+03  0.16500000000E+03 0.  0.
   -5000001    1    1    2    0    0 -0.67119653477E+02  0.15240113204E+03  0.90953526770E+03  0.93926064334E+03  0.16500000000E+03 0.  0.
<mgrwt>
<rscale>  0 0.50020442E+03</rscale>
<asrwt>0</asrwt>
<pdfrwt beam="1">  1        2 0.19586410E+00 0.50020442E+03</pdfrwt>
<pdfrwt beam="2">  1       -2 0.65175464E-02 0.50020442E+03</pdfrwt>
<totfact> 0.23625548E+03</totfact>
</mgrwt>
</event>
<event>
 4    1  0.3584860E-005  0.7825683E+03  0.7818608E-02  0.9585597E-01
         -2   -1    0    0    0  501 -0.00000000000E+00  0.00000000000E+00  0.34708377999E+03  0.34708378000E+03  0.25500000000E-02 0. -1.
          2   -1    0    0  501    0  0.00000000000E+00 -0.00000000000E+00 -0.44111334321E+03  0.44111334322E+03  0.25500000000E-02 0.  1.
    5000001    1    1    2    0    0  0.21458821356E+03  0.27786845080E+03  0.45325251673E+01  0.38794912183E+03  0.16500000000E+03 0.  0.
   -5000001    1    1    2    0    0 -0.21458821356E+03 -0.27786845080E+03 -0.98562088391E+02  0.40024800139E+03  0.16500000000E+03 0.  0.
<mgrwt>
<rscale>  0 0.78256830E+03</rscale>
<asrwt>0</asrwt>
<pdfrwt beam="1">  1        2 0.63016191E-01 0.78256830E+03</pdfrwt>
<pdfrwt beam="2">  1       -2 0.49583398E-01 0.78256830E+03</pdfrwt>
<totfact> 0.30014611E+02</totfact>
</mgrwt>
</event>
<event>
 4    1  0.3584860E-005  0.7029553E+03  0.7818608E-02  0.9712192E-01
          2   -1    0    0  501    0  0.00000000000E+00  0.00000000000E+00  0.70953785021E+02  0.70953785067E+02  0.25500000000E-02 0.  1.
         -2   -1    0    0    0  501 -0.00000000000E+00 -0.00000000000E+00 -0.17410843578E+04  0.17410843578E+04  0.25500000000E-02 0. -1.
    5000001    1    1    2    0    0 -0.20044329307E+03  0.23032193715E+03 -0.69187132018E+03  0.77403916707E+03  0.16500000000E+03 0.  0.
   -5000001    1    1    2    0    0  0.20044329307E+03 -0.23032193715E+03 -0.97825925262E+03  0.10379989758E+04  0.16500000000E+03 0.  0.
<mgrwt>
<rscale>  0 0.70295526E+03</rscale>
<asrwt>0</asrwt>
<pdfrwt beam="1">  1        2 0.10136256E-01 0.70295526E+03</pdfrwt>
<pdfrwt beam="2">  1       -2 0.24872631E+00 0.70295526E+03</pdfrwt>
<totfact> 0.44099946E+01</totfact>
</mgrwt>
</event>
<event>
 4    1  0.3584860E-005  0.3498201E+03  0.7818608E-02  0.1062689E+00
          2   -1    0    0  501    0  0.00000000000E+00  0.00000000000E+00  0.16304187846E+04  0.16304187846E+04  0.25500000000E-02 0.  1.
         -2   -1    0    0    0  501 -0.00000000000E+00 -0.00000000000E+00 -0.18764216041E+02  0.18764216214E+02  0.25500000000E-02 0. -1.
    5000001    1    1    2    0    0 -0.16248857593E+02  0.53531637592E+02  0.73296482538E+03  0.75338708301E+03  0.16500000000E+03 0.  0.
   -5000001    1    1    2    0    0  0.16248857593E+02 -0.53531637592E+02  0.87868974313E+03  0.89579591776E+03  0.16500000000E+03 0.  0.
<mgrwt>
<rscale>  0 0.34982013E+03</rscale>
<asrwt>0</asrwt>
<pdfrwt beam="1">  1        2 0.23291692E+00 0.34982013E+03</pdfrwt>
<pdfrwt beam="2">  1       -2 0.26806029E-02 0.34982013E+03</pdfrwt>
<totfact> 0.67436610E+03</totfact>
</mgrwt>
</event>
<event>
 4    1  0.3584860E-005  0.5105123E+03  0.7818608E-02  0.1011071E+00
          2   -1    0    0  501    0  0.00000000000E+00  0.00000000000E+00  0.21579837521E+04  0.21579837521E+04  0.25500000000E-02 0.  1.
         -2   -1    0    0    0  501 -0.00000000000E+00 -0.00000000000E+00 -0.30192860812E+02  0.30192860920E+02  0.25500000000E-02 0. -1.
    5000001    1    1    2    0    0 -0.29326509071E+02  0.18696343483E+03  0.12610312636E+04  0.12857838924E+04  0.16500000000E+03 0.  0.
   -5000001    1    1    2    0    0  0.29326509071E+02 -0.18696343483E+03  0.86675962765E+03  0.90239272062E+03  0.16500000000E+03 0.  0.
<mgrwt>
<rscale>  0 0.51051230E+03</rscale>
<asrwt>0</asrwt>
<pdfrwt beam="1">  1        2 0.30828344E+00 0.51051230E+03</pdfrwt>
<pdfrwt beam="2">  1       -2 0.43132651E-02 0.51051230E+03</pdfrwt>
<totfact> 0.17868712E+03</totfact>
</mgrwt>
</event>
<event>
 4    1  0.3584860E-005  0.6156025E+03  0.7818608E-02  0.9873554E-01
          2   -1    0    0  501    0  0.00000000000E+00  0.00000000000E+00  0.39926263258E+02  0.39926263339E+02  0.25500000000E-02 0.  1.
         -2   -1    0    0    0  501 -0.00000000000E+00 -0.00000000000E+00 -0.23729143517E+04  0.23729143517E+04  0.25500000000E-02 0. -1.
    5000001    1    1    2    0    0 -0.24169573373E+03  0.45237109280E+02 -0.14956690849E+04  0.15247013594E+04  0.16500000000E+03 0.  0.
   -5000001    1    1    2    0    0  0.24169573373E+03 -0.45237109280E+02 -0.83731900355E+03  0.88813925567E+03  0.16500000000E+03 0.  0.
<mgrwt>
<rscale>  0 0.61560248E+03</rscale>
<asrwt>0</asrwt>
<pdfrwt beam="1">  1        2 0.57037534E-02 0.61560248E+03</pdfrwt>
<pdfrwt beam="2">  1       -2 0.33898768E+00 0.61560248E+03</pdfrwt>
<totfact> 0.26995599E+01</totfact>
</mgrwt>
</event>
<event>
 4    1  0.3584860E-005  0.4571838E+03  0.7818608E-02  0.1025601E+00
         -2   -1    0    0    0  501 -0.00000000000E+00  0.00000000000E+00  0.94956737215E+02  0.94956737249E+02  0.25500000000E-02 0. -1.
          2   -1    0    0  501    0  0.00000000000E+00 -0.00000000000E+00 -0.55029539452E+03  0.55029539452E+03  0.25500000000E-02 0.  1.
    5000001    1    1    2    0    0 -0.12829438055E+03 -0.56890882484E+02 -0.33073972951E+03  0.39536032839E+03  0.16500000000E+03 0.  0.
   -5000001    1    1    2    0    0  0.12829438055E+03  0.56890882484E+02 -0.12459892779E+03  0.24989180338E+03  0.16500000000E+03 0.  0.
<mgrwt>
<rscale>  0 0.45718379E+03</rscale>
<asrwt>0</asrwt>
<pdfrwt beam="1">  1        2 0.78613626E-01 0.45718379E+03</pdfrwt>
<pdfrwt beam="2">  1       -2 0.13565248E-01 0.45718379E+03</pdfrwt>
<totfact> 0.24742900E+03</totfact>
</mgrwt>
</event>
<event>
 4    1  0.3584860E-005  0.8781413E+03  0.7818608E-02  0.9453326E-01
          2   -1    0    0  501    0  0.00000000000E+00  0.00000000000E+00  0.41744952029E+03  0.41744952030E+03  0.25500000000E-02 0.  1.
         -2   -1    0    0    0  501 -0.00000000000E+00 -0.00000000000E+00 -0.46181165678E+03  0.46181165679E+03  0.25500000000E-02 0. -1.
    5000001    1    1    2    0    0  0.25258457371E+03 -0.31467362458E+03 -0.74588981886E+02  0.44227477104E+03  0.16500000000E+03 0.  0.
   -5000001    1    1    2    0    0 -0.25258457371E+03  0.31467362458E+03  0.30226845394E+02  0.43698640604E+03  0.16500000000E+03 0.  0.
<mgrwt>
<rscale>  0 0.87814134E+03</rscale>
<asrwt>0</asrwt>
<pdfrwt beam="1">  1        2 0.59635646E-01 0.87814134E+03</pdfrwt>
<pdfrwt beam="2">  1       -2 0.65973093E-01 0.87814134E+03</pdfrwt>
<totfact> 0.17509078E+02</totfact>
</mgrwt>
</event>
<event>
 4    1  0.3584860E-005  0.4869984E+03  0.7818608E-02  0.1017229E+00
          2   -1    0    0  501    0  0.00000000000E+00  0.00000000000E+00  0.24094517764E+04  0.24094517764E+04  0.25500000000E-02 0. -1.
         -2   -1    0    0    0  501 -0.00000000000E+00 -0.00000000000E+00 -0.24608031418E+02  0.24608031550E+02  0.25500000000E-02 0.  1.
    5000001    1    1    2    0    0 -0.79311799791E+02 -0.15849609652E+03  0.10644580947E+04  0.10916535209E+04  0.16500000000E+03 0.  0.
   -5000001    1    1    2    0    0  0.79311799791E+02  0.15849609652E+03  0.13203856503E+04  0.13424062871E+04  0.16500000000E+03 0.  0.
<mgrwt>
<rscale>  0 0.48699842E+03</rscale>
<asrwt>0</asrwt>
<pdfrwt beam="1">  1        2 0.34420731E+00 0.48699842E+03</pdfrwt>
<pdfrwt beam="2">  1       -2 0.35154340E-02 0.48699842E+03</pdfrwt>
<totfact> 0.18279640E+03</totfact>
</mgrwt>
</event>
<event>
 4    1  0.3584860E-005  0.5890343E+03  0.7818608E-02  0.9928421E-01
         -2   -1    0    0    0  501 -0.00000000000E+00  0.00000000000E+00  0.10419385877E+03  0.10419385880E+03  0.25500000000E-02 0. -1.
          2   -1    0    0  501    0  0.00000000000E+00 -0.00000000000E+00 -0.83248998728E+03  0.83248998728E+03  0.25500000000E-02 0.  1.
    5000001    1    1    2    0    0  0.11362870091E+03  0.81305735765E+02 -0.68216171180E+03  0.71560583102E+03  0.16500000000E+03 0.  0.
   -5000001    1    1    2    0    0 -0.11362870091E+03 -0.81305735765E+02 -0.46134416709E+02  0.22107801506E+03  0.16500000000E+03 0.  0.
<mgrwt>
<rscale>  0 0.58903427E+03</rscale>
<asrwt>0</asrwt>
<pdfrwt beam="1">  1        2 0.11892714E+00 0.58903427E+03</pdfrwt>
<pdfrwt beam="2">  1       -2 0.14884837E-01 0.58903427E+03</pdfrwt>
<totfact> 0.12839958E+03</totfact>
</mgrwt>
</event>
<event>
 4    1  0.3584860E-005  0.4592192E+03  0.7818608E-02  0.1025008E+00
          2   -1    0    0  501    0  0.00000000000E+00  0.00000000000E+00  0.66739958312E+03  0.66739958313E+03  0.25500000000E-02 0.  1.
         -2   -1    0    0    0  501 -0.00000000000E+00 -0.00000000000E+00 -0.78993992097E+02  0.78993992138E+02  0.25500000000E-02 0. -1.
    5000001    1    1    2    0    0  0.15725714441E+02  0.15865771460E+03  0.28003432346E+03  0.36202733435E+03  0.16500000000E+03 0.  0.
   -5000001    1    1    2    0    0 -0.15725714441E+02 -0.15865771460E+03  0.30837126756E+03  0.38436624092E+03  0.16500000000E+03 0.  0.
<mgrwt>
<rscale>  0 0.45921915E+03</rscale>
<asrwt>0</asrwt>
<pdfrwt beam="1">  1        2 0.95342798E-01 0.45921915E+03</pdfrwt>
<pdfrwt beam="2">  1       -2 0.11284856E-01 0.45921915E+03</pdfrwt>
<totfact> 0.26710921E+03</totfact>
</mgrwt>
</event>
<event>
 4    1  0.3584860E-005  0.6471670E+03  0.7818608E-02  0.9812110E-01
         -2   -1    0    0    0  501 -0.00000000000E+00  0.00000000000E+00  0.58345092025E+02  0.58345092080E+02  0.25500000000E-02 0. -1.
          2   -1    0    0  501    0  0.00000000000E+00 -0.00000000000E+00 -0.17946031159E+04  0.17946031159E+04  0.25500000000E-02 0.  1.
    5000001    1    1    2    0    0  0.18705358686E+03 -0.20274556251E+03 -0.76151772867E+03  0.82657671063E+03  0.16500000000E+03 0.  0.
   -5000001    1    1    2    0    0 -0.18705358686E+03  0.20274556251E+03 -0.97474029517E+03  0.10263714973E+04  0.16500000000E+03 0.  0.
<mgrwt>
<rscale>  0 0.64716701E+03</rscale>
<asrwt>0</asrwt>
<pdfrwt beam="1">  1        2 0.25637184E+00 0.64716701E+03</pdfrwt>
<pdfrwt beam="2">  1       -2 0.83350143E-02 0.64716701E+03</pdfrwt>
<totfact> 0.96288747E+02</totfact>
</mgrwt>
</event>
<event>
 4    1  0.3584860E-005  0.4304593E+03  0.7818608E-02  0.1033715E+00
         -2   -1    0    0    0  501 -0.00000000000E+00  0.00000000000E+00  0.68856695706E+02  0.68856695754E+02  0.25500000000E-02 0. -1.
          2   -1    0    0  501    0  0.00000000000E+00 -0.00000000000E+00 -0.67275661828E+03  0.67275661829E+03  0.25500000000E-02 0.  1.
    5000001    1    1    2    0    0 -0.12817105036E+03 -0.49452666593E+02 -0.32781631994E+03  0.39186977939E+03  0.16500000000E+03 0.  0.
   -5000001    1    1    2    0    0  0.12817105036E+03  0.49452666593E+02 -0.27608360264E+03  0.34974353465E+03  0.16500000000E+03 0.  0.
<mgrwt>
<rscale>  0 0.43045928E+03</rscale>
<asrwt>0</asrwt>
<pdfrwt beam="1">  1        2 0.96108085E-01 0.43045928E+03</pdfrwt>
<pdfrwt beam="2">  1       -2 0.98366712E-02 0.43045928E+03</pdfrwt>
<totfact> 0.33011496E+03</totfact>
</mgrwt>
</event>
<event>
 4    1  0.3584860E-005  0.4783338E+03  0.7818608E-02  0.1019594E+00
         -2   -1    0    0    0  501 -0.00000000000E+00  0.00000000000E+00  0.40746002752E+02  0.40746002832E+02  0.25500000000E-02 0. -1.
          2   -1    0    0  501    0  0.00000000000E+00 -0.00000000000E+00 -0.14038387045E+04  0.14038387045E+04  0.25500000000E-02 0.  1.
    5000001    1    1    2    0    0  0.86894718150E+00 -0.54273999191E+02 -0.18503399759E+03  0.25378928725E+03  0.16500000000E+03 0.  0.
   -5000001    1    1    2    0    0 -0.86894718150E+00  0.54273999191E+02 -0.11780587041E+04  0.11907954201E+04  0.16500000000E+03 0.  0.
<mgrwt>
<rscale>  0 0.47833384E+03</rscale>
<asrwt>0</asrwt>
<pdfrwt beam="1">  1        2 0.20054836E+00 0.47833384E+03</pdfrwt>
<pdfrwt beam="2">  1       -2 0.58208584E-02 0.47833384E+03</pdfrwt>
<totfact> 0.27090316E+03</totfact>
</mgrwt>
</event>
<event>
 4    1  0.3584860E-005  0.7242177E+03  0.7818608E-02  0.9676690E-01
         -2   -1    0    0    0  501 -0.00000000000E+00  0.00000000000E+00  0.83207074989E+02  0.83207075029E+02  0.25500000000E-02 0. -1.
          2   -1    0    0  501    0  0.00000000000E+00 -0.00000000000E+00 -0.15758613896E+04  0.15758613897E+04  0.25500000000E-02 0.  1.
    5000001    1    1    2    0    0 -0.25916394947E+03  0.17401319040E+03 -0.93032719494E+03  0.99507800337E+03  0.16500000000E+03 0.  0.
   -5000001    1    1    2    0    0  0.25916394947E+03 -0.17401319040E+03 -0.56232711972E+03  0.66399046131E+03  0.16500000000E+03 0.  0.
<mgrwt>
<rscale>  0 0.72421769E+03</rscale>
<asrwt>0</asrwt>
<pdfrwt beam="1">  1        2 0.22512304E+00 0.72421769E+03</pdfrwt>
<pdfrwt beam="2">  1       -2 0.11886726E-01 0.72421769E+03</pdfrwt>
<totfact> 0.69725140E+02</totfact>
</mgrwt>
</event>
<event>
 4    1  0.3584860E-005  0.5748284E+03  0.7818608E-02  0.9959051E-01
         -2   -1    0    0    0  501 -0.00000000000E+00  0.00000000000E+00  0.49654756679E+02  0.49654756744E+02  0.25500000000E-02 0. -1.
          2   -1    0    0  501    0  0.00000000000E+00 -0.00000000000E+00 -0.16636254723E+04  0.16636254723E+04  0.25500000000E-02 0.  1.
    5000001    1    1    2    0    0 -0.18790048843E+03  0.14895050464E+02 -0.38702497564E+03  0.46102254593E+03  0.16500000000E+03 0.  0.
   -5000001    1    1    2    0    0  0.18790048843E+03 -0.14895050464E+02 -0.12269457399E+04  0.12522576831E+04  0.16500000000E+03 0.  0.
<mgrwt>
<rscale>  0 0.57482839E+03</rscale>
<asrwt>0</asrwt>
<pdfrwt beam="1">  1        2 0.23766075E+00 0.57482839E+03</pdfrwt>
<pdfrwt beam="2">  1       -2 0.70935377E-02 0.57482839E+03</pdfrwt>
<totfact> 0.14551274E+03</totfact>
</mgrwt>
</event>
<event>
 4    1  0.3584860E-005  0.5734450E+03  0.7818608E-02  0.9962084E-01
          2   -1    0    0  501    0  0.00000000000E+00  0.00000000000E+00  0.10213421608E+04  0.10213421608E+04  0.25500000000E-02 0.  1.
         -2   -1    0    0    0  501 -0.00000000000E+00 -0.00000000000E+00 -0.80491915237E+02  0.80491915277E+02  0.25500000000E-02 0. -1.
    5000001    1    1    2    0    0  0.18246642323E+03  0.93752644568E+02  0.25218226119E+03  0.36456062161E+03  0.16500000000E+03 0.  0.
   -5000001    1    1    2    0    0 -0.18246642323E+03 -0.93752644568E+02  0.68866798440E+03  0.73727345450E+03  0.16500000000E+03 0.  0.
<mgrwt>
<rscale>  0 0.57344498E+03</rscale>
<asrwt>0</asrwt>
<pdfrwt beam="1">  1        2 0.14590603E+00 0.57344498E+03</pdfrwt>
<pdfrwt beam="2">  1       -2 0.11498845E-01 0.57344498E+03</pdfrwt>
<totfact> 0.14948264E+03</totfact>
</mgrwt>
</event>
<event>
 4    1  0.3584860E-005  0.4345987E+03  0.7818608E-02  0.1032417E+00
         -2   -1    0    0    0  501 -0.00000000000E+00  0.00000000000E+00  0.19432300029E+03  0.19432300031E+03  0.25500000000E-02 0. -1.
          2   -1    0    0  501    0  0.00000000000E+00 -0.00000000000E+00 -0.24299235055E+03  0.24299235056E+03  0.25500000000E-02 0.  1.
    5000001    1    1    2    0    0  0.25874563053E+02 -0.97874273114E+02  0.74999863755E+02  0.20760261538E+03  0.16500000000E+03 0.  0.
   -5000001    1    1    2    0    0 -0.25874563053E+02  0.97874273114E+02 -0.12366921402E+03  0.22971273549E+03  0.16500000000E+03 0.  0.
<mgrwt>
<rscale>  0 0.43459868E+03</rscale>
<asrwt>0</asrwt>
<pdfrwt beam="1">  1        2 0.34713193E-01 0.43459868E+03</pdfrwt>
<pdfrwt beam="2">  1       -2 0.27760429E-01 0.43459868E+03</pdfrwt>
<totfact> 0.17726602E+03</totfact>
</mgrwt>
</event>
<event>
 4    1  0.3584860E-005  0.4629706E+03  0.7818608E-02  0.1023923E+00
         -2   -1    0    0    0  501 -0.00000000000E+00  0.00000000000E+00  0.61350717583E+03  0.61350717584E+03  0.25500000000E-02 0. -1.
          2   -1    0    0  501    0  0.00000000000E+00 -0.00000000000E+00 -0.87342802684E+02  0.87342802721E+02  0.25500000000E-02 0.  1.
    5000001    1    1    2    0    0 -0.15095556916E+03  0.30367899008E+02  0.18514453623E+03  0.29191315909E+03  0.16500000000E+03 0.  0.
   -5000001    1    1    2    0    0  0.15095556916E+03 -0.30367899008E+02  0.34101983691E+03  0.40893681947E+03  0.16500000000E+03 0.  0.
<mgrwt>
<rscale>  0 0.46297057E+03</rscale>
<asrwt>0</asrwt>
<pdfrwt beam="1">  1        2 0.12477543E-01 0.46297057E+03</pdfrwt>
<pdfrwt beam="2">  1       -2 0.87643882E-01 0.46297057E+03</pdfrwt>
<totfact> 0.56927526E+02</totfact>
</mgrwt>
</event>
<event>
 4    1  0.3584860E-005  0.6652888E+03  0.7818608E-02  0.9778506E-01
          2   -1    0    0  501    0  0.00000000000E+00  0.00000000000E+00  0.39436987277E+04  0.39436987277E+04  0.25500000000E-02 0.  1.
         -2   -1    0    0    0  501 -0.00000000000E+00 -0.00000000000E+00 -0.28057996123E+02  0.28057996238E+02  0.25500000000E-02 0. -1.
    5000001    1    1    2    0    0  0.87202485366E+02 -0.18660171659E+03  0.31666894244E+04  0.31776676014E+04  0.16500000000E+03 0.  0.
   -5000001    1    1    2    0    0 -0.87202485366E+02  0.18660171659E+03  0.74895130722E+03  0.79408912263E+03  0.16500000000E+03 0.  0.
<mgrwt>
<rscale>  0 0.66528876E+03</rscale>
<asrwt>0</asrwt>
<pdfrwt beam="1">  1        2 0.56338476E+00 0.66528876E+03</pdfrwt>
<pdfrwt beam="2">  1       -2 0.40082907E-02 0.66528876E+03</pdfrwt>
<totfact> 0.19851595E+02</totfact>
</mgrwt>
</event>
<event>
 4    1  0.3584860E-005  0.3763523E+03  0.7818608E-02  0.1052290E+00
          2   -1    0    0  501    0  0.00000000000E+00  0.00000000000E+00  0.12077546644E+04  0.12077546644E+04  0.25500000000E-02 0.  1.
         -2   -1    0    0    0  501 -0.00000000000E+00 -0.00000000000E+00 -0.29319089814E+02  0.29319089925E+02  0.25500000000E-02 0. -1.
    5000001    1    1    2    0    0 -0.85732791076E+02 -0.15647523229E+02  0.66908002376E+03  0.69461358657E+03  0.16500000000E+03 0.  0.
   -5000001    1    1    2    0    0  0.85732791076E+02  0.15647523229E+02  0.50935555081E+03  0.54246016775E+03  0.16500000000E+03 0.  0.
<mgrwt>
<rscale>  0 0.37635232E+03</rscale>
<asrwt>0</asrwt>
<pdfrwt beam="1">  1        2 0.17253636E+00 0.37635232E+03</pdfrwt>
<pdfrwt beam="2">  1       -2 0.41884418E-02 0.37635232E+03</pdfrwt>
<totfact> 0.57192030E+03</totfact>
</mgrwt>
</event>
<event>
 4    1  0.3584860E-005  0.5070057E+03  0.7818608E-02  0.1011966E+00
         -2   -1    0    0    0  501 -0.00000000000E+00  0.00000000000E+00  0.13845433167E+03  0.13845433169E+03  0.25500000000E-02 0. -1.
          2   -1    0    0  501    0  0.00000000000E+00 -0.00000000000E+00 -0.46415083944E+03  0.46415083945E+03  0.25500000000E-02 0.  1.
    5000001    1    1    2    0    0  0.85708764403E+02  0.16467721187E+03 -0.22315060286E+03  0.33389484567E+03  0.16500000000E+03 0.  0.
   -5000001    1    1    2    0    0 -0.85708764403E+02 -0.16467721187E+03 -0.10254590491E+03  0.26871032548E+03  0.16500000000E+03 0.  0.
<mgrwt>
<rscale>  0 0.50700570E+03</rscale>
<asrwt>0</asrwt>
<pdfrwt beam="1">  1        2 0.66307262E-01 0.50700570E+03</pdfrwt>
<pdfrwt beam="2">  1       -2 0.19779190E-01 0.50700570E+03</pdfrwt>
<totfact> 0.15858694E+03</totfact>
</mgrwt>
</event>
<event>
 4    1  0.3584860E-005  0.4087707E+03  0.7818608E-02  0.1040784E+00
         -2   -1    0    0    0  501 -0.00000000000E+00  0.00000000000E+00  0.16347483340E+03  0.16347483342E+03  0.25500000000E-02 0. -1.
          2   -1    0    0  501    0  0.00000000000E+00 -0.00000000000E+00 -0.25553395786E+03  0.25553395788E+03  0.25500000000E-02 0.  1.
    5000001    1    1    2    0    0 -0.38262192454E+02 -0.11067573574E+03 -0.16404891764E+02  0.20299565100E+03  0.16500000000E+03 0.  0.
   -5000001    1    1    2    0    0  0.38262192454E+02  0.11067573574E+03 -0.75654232701E+02  0.21601314029E+03  0.16500000000E+03 0.  0.
<mgrwt>
<rscale>  0 0.40877070E+03</rscale>
<asrwt>0</asrwt>
<pdfrwt beam="1">  1        2 0.36504851E-01 0.40877070E+03</pdfrwt>
<pdfrwt beam="2">  1       -2 0.23353548E-01 0.40877070E+03</pdfrwt>
<totfact> 0.22825869E+03</totfact>
</mgrwt>
</event>
<event>
 4    1  0.3584860E-005  0.6905621E+03  0.7818608E-02  0.9733510E-01
         -2   -1    0    0    0  501 -0.00000000000E+00  0.00000000000E+00  0.26158474249E+03  0.26158474250E+03  0.25500000000E-02 0. -1.
          2   -1    0    0  501    0  0.00000000000E+00 -0.00000000000E+00 -0.45575668623E+03  0.45575668624E+03  0.25500000000E-02 0.  1.
    5000001    1    1    2    0    0  0.14000322107E+02 -0.26790563756E+03 -0.24408167293E+03  0.39845991356E+03  0.16500000000E+03 0.  0.
   -5000001    1    1    2    0    0 -0.14000322107E+02  0.26790563756E+03  0.49909729189E+02  0.31888151518E+03  0.16500000000E+03 0.  0.
<mgrwt>
<rscale>  0 0.69056208E+03</rscale>
<asrwt>0</asrwt>
<pdfrwt beam="1">  1        2 0.65108098E-01 0.69056208E+03</pdfrwt>
<pdfrwt beam="2">  1       -2 0.37369249E-01 0.69056208E+03</pdfrwt>
<totfact> 0.50707768E+02</totfact>
</mgrwt>
</event>
<event>
 4    1  0.3584860E-005  0.3672660E+03  0.7818608E-02  0.1055743E+00
         -2   -1    0    0    0  501 -0.00000000000E+00  0.00000000000E+00  0.11757654873E+03  0.11757654876E+03  0.25500000000E-02 0.  1.
          2   -1    0    0  501    0  0.00000000000E+00 -0.00000000000E+00 -0.28680108405E+03  0.28680108406E+03  0.25500000000E-02 0. -1.
    5000001    1    1    2    0    0 -0.57019715066E+02 -0.41777707846E+02 -0.41976570398E+02  0.18434656829E+03  0.16500000000E+03 0.  0.
   -5000001    1    1    2    0    0  0.57019715066E+02  0.41777707846E+02 -0.12724796492E+03  0.22003106452E+03  0.16500000000E+03 0.  0.
<mgrwt>
<rscale>  0 0.36726602E+03</rscale>
<asrwt>0</asrwt>
<pdfrwt beam="1">  1        2 0.40971583E-01 0.36726602E+03</pdfrwt>
<pdfrwt beam="2">  1       -2 0.16796650E-01 0.36726602E+03</pdfrwt>
<totfact> 0.35430291E+03</totfact>
</mgrwt>
</event>
<event>
 4    1  0.3584860E-005  0.4164024E+03  0.7818608E-02  0.1038244E+00
         -2   -1    0    0    0  501 -0.00000000000E+00  0.00000000000E+00  0.28897315281E+02  0.28897315393E+02  0.25500000000E-02 0. -1.
          2   -1    0    0  501    0  0.00000000000E+00 -0.00000000000E+00 -0.15000612477E+04  0.15000612477E+04  0.25500000000E-02 0.  1.
    5000001    1    1    2    0    0 -0.11965198568E+03  0.36307280342E+02 -0.81668922648E+03  0.84252068754E+03  0.16500000000E+03 0.  0.
   -5000001    1    1    2    0    0  0.11965198568E+03 -0.36307280342E+02 -0.65447470595E+03  0.68643787557E+03  0.16500000000E+03 0.  0.
<mgrwt>
<rscale>  0 0.41640242E+03</rscale>
<asrwt>0</asrwt>
<pdfrwt beam="1">  1        2 0.21429441E+00 0.41640242E+03</pdfrwt>
<pdfrwt beam="2">  1       -2 0.41281889E-02 0.41640242E+03</pdfrwt>
<totfact> 0.40982743E+03</totfact>
</mgrwt>
</event>
<event>
 4    1  0.3584860E-005  0.4864800E+03  0.7818608E-02  0.1017369E+00
          2   -1    0    0  501    0  0.00000000000E+00  0.00000000000E+00  0.12507263596E+04  0.12507263596E+04  0.25500000000E-02 0.  1.
         -2   -1    0    0    0  501 -0.00000000000E+00 -0.00000000000E+00 -0.47305063967E+02  0.47305064036E+02  0.25500000000E-02 0. -1.
    5000001    1    1    2    0    0  0.39213309822E+02  0.14792366149E+03  0.35540138584E+03  0.42065929011E+03  0.16500000000E+03 0.  0.
   -5000001    1    1    2    0    0 -0.39213309822E+02 -0.14792366149E+03  0.84801990981E+03  0.87737213355E+03  0.16500000000E+03 0.  0.
<mgrwt>
<rscale>  0 0.48647997E+03</rscale>
<asrwt>0</asrwt>
<pdfrwt beam="1">  1        2 0.17867520E+00 0.48647997E+03</pdfrwt>
<pdfrwt beam="2">  1       -2 0.67578661E-02 0.48647997E+03</pdfrwt>
<totfact> 0.25917100E+03</totfact>
</mgrwt>
</event>
<event>
 4    1  0.3584860E-005  0.6983196E+03  0.7818608E-02  0.9720110E-01
         -2   -1    0    0    0  501 -0.00000000000E+00  0.00000000000E+00  0.34182199529E+03  0.34182199530E+03  0.25500000000E-02 0. -1.
          2   -1    0    0  501    0  0.00000000000E+00 -0.00000000000E+00 -0.35665507334E+03  0.35665507335E+03  0.25500000000E-02 0.  1.
    5000001    1    1    2    0    0  0.19490679832E+03 -0.16117975142E+03  0.16789414771E+03  0.34551558161E+03  0.16500000000E+03 0.  0.
   -5000001    1    1    2    0    0 -0.19490679832E+03  0.16117975142E+03 -0.18272722577E+03  0.35296148704E+03  0.16500000000E+03 0.  0.
<mgrwt>
<rscale>  0 0.69831955E+03</rscale>
<asrwt>0</asrwt>
<pdfrwt beam="1">  1        2 0.50950725E-01 0.69831955E+03</pdfrwt>
<pdfrwt beam="2">  1       -2 0.48831713E-01 0.69831955E+03</pdfrwt>
<totfact> 0.39361766E+02</totfact>
</mgrwt>
</event>
<event>
 4    1  0.3584860E-005  0.4733174E+03  0.7818608E-02  0.1020988E+00
         -2   -1    0    0    0  501 -0.00000000000E+00  0.00000000000E+00  0.32484047207E+02  0.32484047307E+02  0.25500000000E-02 0. -1.
          2   -1    0    0  501    0  0.00000000000E+00 -0.00000000000E+00 -0.17241494340E+04  0.17241494340E+04  0.25500000000E-02 0.  1.
    5000001    1    1    2    0    0  0.15901887069E+03 -0.48061734664E+02 -0.71805213294E+03  0.75526207186E+03  0.16500000000E+03 0.  0.
   -5000001    1    1    2    0    0 -0.15901887069E+03  0.48061734664E+02 -0.97361325386E+03  0.10013714095E+04  0.16500000000E+03 0.  0.
<mgrwt>
<rscale>  0 0.47331745E+03</rscale>
<asrwt>0</asrwt>
<pdfrwt beam="1">  1        2 0.24630700E+00 0.47331745E+03</pdfrwt>
<pdfrwt beam="2">  1       -2 0.46405793E-02 0.47331745E+03</pdfrwt>
<totfact> 0.26348019E+03</totfact>
</mgrwt>
</event>
<event>
 4    1  0.3584860E-005  0.4851867E+03  0.7818608E-02  0.1017719E+00
          2   -1    0    0  501    0  0.00000000000E+00  0.00000000000E+00  0.13321214135E+03  0.13321214137E+03  0.25500000000E-02 0.  1.
         -2   -1    0    0    0  501 -0.00000000000E+00 -0.00000000000E+00 -0.44178798557E+03  0.44178798557E+03  0.25500000000E-02 0. -1.
    5000001    1    1    2    0    0  0.16416774917E+03 -0.53611219200E+02 -0.10398960811E+03  0.26050729604E+03  0.16500000000E+03 0.  0.
   -5000001    1    1    2    0    0 -0.16416774917E+03  0.53611219200E+02 -0.20458623611E+03  0.31449283091E+03  0.16500000000E+03 0.  0.
<mgrwt>
<rscale>  0 0.48518666E+03</rscale>
<asrwt>0</asrwt>
<pdfrwt beam="1">  1        2 0.19030306E-01 0.48518666E+03</pdfrwt>
<pdfrwt beam="2">  1       -2 0.63112569E-01 0.48518666E+03</pdfrwt>
<totfact> 0.70475129E+02</totfact>
</mgrwt>
</event>
<event>
 4    1  0.3584860E-005  0.5890706E+03  0.7818608E-02  0.9928344E-01
         -2   -1    0    0    0  501 -0.00000000000E+00  0.00000000000E+00  0.12085363863E+03  0.12085363866E+03  0.25500000000E-02 0. -1.
          2   -1    0    0  501    0  0.00000000000E+00 -0.00000000000E+00 -0.71781898894E+03  0.71781898894E+03  0.25500000000E-02 0.  1.
    5000001    1    1    2    0    0 -0.17281854582E+03 -0.17219950528E+03 -0.30228092063E+03  0.42203989666E+03  0.16500000000E+03 0.  0.
   -5000001    1    1    2    0    0  0.17281854582E+03  0.17219950528E+03 -0.29468442967E+03  0.41663273094E+03  0.16500000000E+03 0.  0.
<mgrwt>
<rscale>  0 0.58907058E+03</rscale>
<asrwt>0</asrwt>
<pdfrwt beam="1">  1        2 0.10254557E+00 0.58907058E+03</pdfrwt>
<pdfrwt beam="2">  1       -2 0.17264806E-01 0.58907058E+03</pdfrwt>
<totfact> 0.12040033E+03</totfact>
</mgrwt>
</event>
<event>
 4    1  0.3584860E-005  0.5541812E+03  0.7818608E-02  0.1000531E+00
          2   -1    0    0  501    0  0.00000000000E+00  0.00000000000E+00  0.14284273710E+04  0.14284273710E+04  0.25500000000E-02 0.  1.
         -2   -1    0    0    0  501 -0.00000000000E+00 -0.00000000000E+00 -0.53750855353E+02  0.53750855414E+02  0.25500000000E-02 0. -1.
    5000001    1    1    2    0    0  0.20221886783E+03 -0.57380931037E+02  0.88331362312E+03  0.92285047464E+03  0.16500000000E+03 0.  0.
   -5000001    1    1    2    0    0 -0.20221886783E+03  0.57380931037E+02  0.49136289252E+03  0.55932775177E+03  0.16500000000E+03 0.  0.
<mgrwt>
<rscale>  0 0.55418117E+03</rscale>
<asrwt>0</asrwt>
<pdfrwt beam="1">  1        2 0.20406107E+00 0.55418117E+03</pdfrwt>
<pdfrwt beam="2">  1       -2 0.76786929E-02 0.55418117E+03</pdfrwt>
<totfact> 0.16993431E+03</totfact>
</mgrwt>
</event>
<event>
 4    1  0.3584860E-005  0.4771298E+03  0.7818608E-02  0.1019927E+00
         -2   -1    0    0    0  501 -0.00000000000E+00  0.00000000000E+00  0.35071090459E+02  0.35071090551E+02  0.25500000000E-02 0. -1.
          2   -1    0    0  501    0  0.00000000000E+00 -0.00000000000E+00 -0.16227956481E+04  0.16227956481E+04  0.25500000000E-02 0.  1.
    5000001    1    1    2    0    0 -0.13102558798E+03  0.10986120708E+03 -0.86765485392E+03  0.89960387674E+03  0.16500000000E+03 0.  0.
   -5000001    1    1    2    0    0  0.13102558798E+03 -0.10986120708E+03 -0.72006970371E+03  0.75826286190E+03  0.16500000000E+03 0.  0.
<mgrwt>
<rscale>  0 0.47712981E+03</rscale>
<asrwt>0</asrwt>
<pdfrwt beam="1">  1        2 0.23182790E+00 0.47712981E+03</pdfrwt>
<pdfrwt beam="2">  1       -2 0.50101568E-02 0.47712981E+03</pdfrwt>
<totfact> 0.26344512E+03</totfact>
</mgrwt>
</event>
<event>
 4    1  0.3584860E-005  0.6685365E+03  0.7818608E-02  0.9772605E-01
          2   -1    0    0  501    0  0.00000000000E+00  0.00000000000E+00  0.99822745618E+03  0.99822745619E+03  0.25500000000E-02 0.  1.
         -2   -1    0    0    0  501 -0.00000000000E+00 -0.00000000000E+00 -0.11193367846E+03  0.11193367849E+03  0.25500000000E-02 0. -1.
    5000001    1    1    2    0    0 -0.11682102967E+03  0.57765776955E+02  0.87466312591E+03  0.89958024755E+03  0.16500000000E+03 0.  0.
   -5000001    1    1    2    0    0  0.11682102967E+03 -0.57765776955E+02  0.11630651816E+02  0.21058088713E+03  0.16500000000E+03 0.  0.
<mgrwt>
<rscale>  0 0.66853652E+03</rscale>
<asrwt>0</asrwt>
<pdfrwt beam="1">  1        2 0.14260393E+00 0.66853652E+03</pdfrwt>
<pdfrwt beam="2">  1       -2 0.15990525E-01 0.66853652E+03</pdfrwt>
<totfact> 0.88888145E+02</totfact>
</mgrwt>
</event>
<event>
 4    1  0.3584860E-005  0.4167745E+03  0.7818608E-02  0.1038121E+00
         -2   -1    0    0    0  501 -0.00000000000E+00  0.00000000000E+00  0.18305220402E+03  0.18305220404E+03  0.25500000000E-02 0. -1.
          2   -1    0    0  501    0  0.00000000000E+00 -0.00000000000E+00 -0.23722873647E+03  0.23722873648E+03  0.25500000000E-02 0.  1.
    5000001    1    1    2    0    0  0.78718347929E+01  0.60930309287E+02 -0.13949706535E+03  0.22463058477E+03  0.16500000000E+03 0.  0.
   -5000001    1    1    2    0    0 -0.78718347929E+01 -0.60930309287E+02  0.85320532903E+02  0.19565035576E+03  0.16500000000E+03 0.  0.
<mgrwt>
<rscale>  0 0.41677449E+03</rscale>
<asrwt>0</asrwt>
<pdfrwt beam="1">  1        2 0.33889819E-01 0.41677449E+03</pdfrwt>
<pdfrwt beam="2">  1       -2 0.26150315E-01 0.41677449E+03</pdfrwt>
<totfact> 0.20263045E+03</totfact>
</mgrwt>
</event>
<event>
 4    1  0.3584860E-005  0.4189071E+03  0.7818608E-02  0.1037423E+00
         -2   -1    0    0    0  501 -0.00000000000E+00  0.00000000000E+00  0.47513749648E+03  0.47513749648E+03  0.25500000000E-02 0. -1.
          2   -1    0    0  501    0  0.00000000000E+00 -0.00000000000E+00 -0.92332819185E+02  0.92332819220E+02  0.25500000000E-02 0.  1.
    5000001    1    1    2    0    0  0.85925089272E+02 -0.68718586332E+02  0.10012279884E+03  0.22215971715E+03  0.16500000000E+03 0.  0.
   -5000001    1    1    2    0    0 -0.85925089272E+02  0.68718586332E+02  0.28268187845E+03  0.34531059856E+03  0.16500000000E+03 0.  0.
<mgrwt>
<rscale>  0 0.41890708E+03</rscale>
<asrwt>0</asrwt>
<pdfrwt beam="1">  1        2 0.13190403E-01 0.41890708E+03</pdfrwt>
<pdfrwt beam="2">  1       -2 0.67876786E-01 0.41890708E+03</pdfrwt>
<totfact> 0.93488541E+02</totfact>
</mgrwt>
</event>
<event>
 4    1  0.3584860E-005  0.4679911E+03  0.7818608E-02  0.1022489E+00
         -2   -1    0    0    0  501 -0.00000000000E+00  0.00000000000E+00  0.27784338073E+02  0.27784338190E+02  0.25500000000E-02 0.  1.
          2   -1    0    0  501    0  0.00000000000E+00 -0.00000000000E+00 -0.19706752563E+04  0.19706752563E+04  0.25500000000E-02 0. -1.
    5000001    1    1    2    0    0  0.43083633488E+02 -0.13851766703E+03 -0.62754583965E+03  0.66489256607E+03  0.16500000000E+03 0.  0.
   -5000001    1    1    2    0    0 -0.43083633488E+02  0.13851766703E+03 -0.13153450786E+04  0.13335670285E+04  0.16500000000E+03 0.  0.
<mgrwt>
<rscale>  0 0.46799106E+03</rscale>
<asrwt>0</asrwt>
<pdfrwt beam="1">  1        2 0.28152495E+00 0.46799106E+03</pdfrwt>
<pdfrwt beam="2">  1       -2 0.39691924E-02 0.46799106E+03</pdfrwt>
<totfact> 0.25210235E+03</totfact>
</mgrwt>
</event>
<event>
 4    1  0.3584860E-005  0.4018526E+03  0.7818608E-02  0.1043140E+00
          2   -1    0    0  501    0  0.00000000000E+00  0.00000000000E+00  0.11105833697E+04  0.11105833697E+04  0.25500000000E-02 0. -1.
         -2   -1    0    0    0  501 -0.00000000000E+00 -0.00000000000E+00 -0.36351509991E+02  0.36351510080E+02  0.25500000000E-02 0.  1.
    5000001    1    1    2    0    0 -0.48050244317E+02 -0.10303571052E+03  0.57956453530E+03  0.61322527199E+03  0.16500000000E+03 0.  0.
   -5000001    1    1    2    0    0  0.48050244317E+02  0.10303571052E+03  0.49466732443E+03  0.53370960782E+03  0.16500000000E+03 0.  0.
<mgrwt>
<rscale>  0 0.40185262E+03</rscale>
<asrwt>0</asrwt>
<pdfrwt beam="1">  1        2 0.15865479E+00 0.40185262E+03</pdfrwt>
<pdfrwt beam="2">  1       -2 0.51930721E-02 0.40185262E+03</pdfrwt>
<totfact> 0.46685074E+03</totfact>
</mgrwt>
</event>
<event>
 4    1  0.3584860E-005  0.5649789E+03  0.7818608E-02  0.9980852E-01
          2   -1    0    0  501    0  0.00000000000E+00  0.00000000000E+00  0.24476286481E+04  0.24476286481E+04  0.25500000000E-02 0.  1.
         -2   -1    0    0    0  501 -0.00000000000E+00 -0.00000000000E+00 -0.32603103384E+02  0.32603103483E+02  0.25500000000E-02 0. -1.
    5000001    1    1    2    0    0  0.15707055306E+03 -0.16456908577E+03  0.13333098586E+04  0.13626057103E+04  0.16500000000E+03 0.  0.
   -5000001    1    1    2    0    0 -0.15707055306E+03  0.16456908577E+03  0.10817156861E+04  0.11176260413E+04  0.16500000000E+03 0.  0.
<mgrwt>
<rscale>  0 0.56497890E+03</rscale>
<asrwt>0</asrwt>
<pdfrwt beam="1">  1        2 0.34966134E+00 0.56497890E+03</pdfrwt>
<pdfrwt beam="2">  1       -2 0.46575848E-02 0.56497890E+03</pdfrwt>
<totfact> 0.11302119E+03</totfact>
</mgrwt>
</event>
<event>
 4    1  0.3584860E-005  0.6588510E+03  0.7818608E-02  0.9790311E-01
          2   -1    0    0  501    0  0.00000000000E+00  0.00000000000E+00  0.56284267053E+03  0.56284267053E+03  0.25500000000E-02 0.  1.
         -2   -1    0    0    0  501 -0.00000000000E+00 -0.00000000000E+00 -0.19280905814E+03  0.19280905816E+03  0.25500000000E-02 0. -1.
    5000001    1    1    2    0    0 -0.24631171961E+03  0.13793962369E+03  0.13914901010E+03  0.35536495327E+03  0.16500000000E+03 0.  0.
   -5000001    1    1    2    0    0  0.24631171961E+03 -0.13793962369E+03  0.23088460229E+03  0.40028677542E+03  0.16500000000E+03 0.  0.
<mgrwt>
<rscale>  0 0.65885102E+03</rscale>
<asrwt>0</asrwt>
<pdfrwt beam="1">  1        2 0.80406094E-01 0.65885102E+03</pdfrwt>
<pdfrwt beam="2">  1       -2 0.27544152E-01 0.65885102E+03</pdfrwt>
<totfact> 0.70546491E+02</totfact>
</mgrwt>
</event>
<event>
 4    1  0.3584860E-005  0.4001789E+03  0.7818608E-02  0.1043718E+00
         -2   -1    0    0    0  501 -0.00000000000E+00  0.00000000000E+00  0.24859693367E+03  0.24859693369E+03  0.25500000000E-02 0. -1.
          2   -1    0    0  501    0  0.00000000000E+00 -0.00000000000E+00 -0.16104696683E+03  0.16104696685E+03  0.25500000000E-02 0.  1.
    5000001    1    1    2    0    0 -0.68529148181E+02 -0.61963184181E+02  0.11070571445E+03  0.21912652865E+03  0.16500000000E+03 0.  0.
   -5000001    1    1    2    0    0  0.68529148181E+02  0.61963184181E+02 -0.23155747612E+02  0.19051737189E+03  0.16500000000E+03 0.  0.
<mgrwt>
<rscale>  0 0.40017887E+03</rscale>
<asrwt>0</asrwt>
<pdfrwt beam="1">  1        2 0.23006710E-01 0.40017887E+03</pdfrwt>
<pdfrwt beam="2">  1       -2 0.35513848E-01 0.40017887E+03</pdfrwt>
<totfact> 0.17805649E+03</totfact>
</mgrwt>
</event>
<event>
 4    1  0.3584860E-005  0.4345329E+03  0.7818608E-02  0.1032438E+00
         -2   -1    0    0    0  501 -0.00000000000E+00  0.00000000000E+00  0.13223461401E+03  0.13223461403E+03  0.25500000000E-02 0. -1.
          2   -1    0    0  501    0  0.00000000000E+00 -0.00000000000E+00 -0.35697702582E+03  0.35697702583E+03  0.25500000000E-02 0.  1.
    5000001    1    1    2    0    0 -0.11317659339E+03  0.66754705191E+02 -0.17102903432E+03  0.27155305658E+03  0.16500000000E+03 0.  0.
   -5000001    1    1    2    0    0  0.11317659339E+03 -0.66754705191E+02 -0.53713377502E+02  0.21765858329E+03  0.16500000000E+03 0.  0.
<mgrwt>
<rscale>  0 0.43453294E+03</rscale>
<asrwt>0</asrwt>
<pdfrwt beam="1">  1        2 0.50996717E-01 0.43453294E+03</pdfrwt>
<pdfrwt beam="2">  1       -2 0.18890659E-01 0.43453294E+03</pdfrwt>
<totfact> 0.22920696E+03</totfact>
</mgrwt>
</event>
<event>
 4    1  0.3584860E-005  0.4323999E+03  0.7818608E-02  0.1033105E+00
          2   -1    0    0  501    0  0.00000000000E+00  0.00000000000E+00  0.14854968936E+03  0.14854968938E+03  0.25500000000E-02 0.  1.
         -2   -1    0    0    0  501 -0.00000000000E+00 -0.00000000000E+00 -0.31465852396E+03  0.31465852397E+03  0.25500000000E-02 0. -1.
    5000001    1    1    2    0    0 -0.12528053190E+03  0.61751399321E+02 -0.86264414969E+02  0.23275522826E+03  0.16500000000E+03 0.  0.
   -5000001    1    1    2    0    0  0.12528053190E+03 -0.61751399321E+02 -0.79844419633E+02  0.23045298509E+03  0.16500000000E+03 0.  0.
<mgrwt>
<rscale>  0 0.43239994E+03</rscale>
<asrwt>0</asrwt>
<pdfrwt beam="1">  1        2 0.21221384E-01 0.43239994E+03</pdfrwt>
<pdfrwt beam="2">  1       -2 0.44951217E-01 0.43239994E+03</pdfrwt>
<totfact> 0.12413303E+03</totfact>
</mgrwt>
</event>
<event>
 4    1  0.3584860E-005  0.5215730E+03  0.7818608E-02  0.1008297E+00
         -2   -1    0    0    0  501 -0.00000000000E+00  0.00000000000E+00  0.26228297454E+02  0.26228297578E+02  0.25500000000E-02 0. -1.
          2   -1    0    0  501    0  0.00000000000E+00 -0.00000000000E+00 -0.25929852792E+04  0.25929852792E+04  0.25500000000E-02 0.  1.
    5000001    1    1    2    0    0 -0.12734787864E+03  0.55284250035E+02 -0.20198970709E+04  0.20313746596E+04  0.16500000000E+03 0.  0.
   -5000001    1    1    2    0    0  0.12734787864E+03 -0.55284250035E+02 -0.54685991078E+03  0.58783891715E+03  0.16500000000E+03 0.  0.
<mgrwt>
<rscale>  0 0.52157296E+03</rscale>
<asrwt>0</asrwt>
<pdfrwt beam="1">  1        2 0.37042631E+00 0.52157296E+03</pdfrwt>
<pdfrwt beam="2">  1       -2 0.37469013E-02 0.52157296E+03</pdfrwt>
<totfact> 0.13338520E+03</totfact>
</mgrwt>
</event>
<event>
 4    1  0.3584860E-005  0.5310277E+03  0.7818608E-02  0.1005983E+00
          2   -1    0    0  501    0  0.00000000000E+00  0.00000000000E+00  0.30462860777E+02  0.30462860884E+02  0.25500000000E-02 0.  1.
         -2   -1    0    0    0  501 -0.00000000000E+00 -0.00000000000E+00 -0.23142149889E+04  0.23142149889E+04  0.25500000000E-02 0. -1.
    5000001    1    1    2    0    0 -0.13435117649E+03  0.15873211894E+03 -0.11191530753E+04  0.11502063859E+04  0.16500000000E+03 0.  0.
   -5000001    1    1    2    0    0  0.13435117649E+03 -0.15873211894E+03 -0.11645990527E+04  0.11944714638E+04  0.16500000000E+03 0.  0.
<mgrwt>
<rscale>  0 0.53102772E+03</rscale>
<asrwt>0</asrwt>
<pdfrwt beam="1">  1        2 0.43518388E-02 0.53102772E+03</pdfrwt>
<pdfrwt beam="2">  1       -2 0.33060203E+00 0.53102772E+03</pdfrwt>
<totfact> 0.44153716E+01</totfact>
</mgrwt>
</event>
<event>
 4    1  0.3584860E-005  0.5129690E+03  0.7818608E-02  0.1010448E+00
         -2   -1    0    0    0  501 -0.00000000000E+00  0.00000000000E+00  0.40745949018E+02  0.40745949098E+02  0.25500000000E-02 0. -1.
          2   -1    0    0  501    0  0.00000000000E+00 -0.00000000000E+00 -0.16144990419E+04  0.16144990419E+04  0.25500000000E-02 0.  1.
    5000001    1    1    2    0    0 -0.11115618137E+03 -0.94133392088E+02 -0.36193708025E+03  0.42360387418E+03  0.16500000000E+03 0.  0.
   -5000001    1    1    2    0    0  0.11115618137E+03  0.94133392088E+02 -0.12118160127E+04  0.12316411169E+04  0.16500000000E+03 0.  0.
<mgrwt>
<rscale>  0 0.51296899E+03</rscale>
<asrwt>0</asrwt>
<pdfrwt beam="1">  1        2 0.23064268E+00 0.51296899E+03</pdfrwt>
<pdfrwt beam="2">  1       -2 0.58208509E-02 0.51296899E+03</pdfrwt>
<totfact> 0.21065063E+03</totfact>
</mgrwt>
</event>
<event>
 4    1  0.3584860E-005  0.5257786E+03  0.7818608E-02  0.1007261E+00
          2   -1    0    0  501    0  0.00000000000E+00  0.00000000000E+00  0.11432682171E+04  0.11432682171E+04  0.25500000000E-02 0.  1.
         -2   -1    0    0    0  501 -0.00000000000E+00 -0.00000000000E+00 -0.60450202394E+02  0.60450202447E+02  0.25500000000E-02 0. -1.
    5000001    1    1    2    0    0 -0.15641374568E+03 -0.12753775986E+03  0.46361464813E+03  0.53187844663E+03  0.16500000000E+03 0.  0.
   -5000001    1    1    2    0    0  0.15641374568E+03  0.12753775986E+03  0.61920336653E+03  0.67183997287E+03  0.16500000000E+03 0.  0.
<mgrwt>
<rscale>  0 0.52577864E+03</rscale>
<asrwt>0</asrwt>
<pdfrwt beam="1">  1        2 0.16332402E+00 0.52577864E+03</pdfrwt>
<pdfrwt beam="2">  1       -2 0.86357439E-02 0.52577864E+03</pdfrwt>
<totfact> 0.20172522E+03</totfact>
</mgrwt>
</event>
<event>
 4    1  0.3584860E-005  0.6559008E+03  0.7818608E-02  0.9795769E-01
          2   -1    0    0  501    0  0.00000000000E+00  0.00000000000E+00  0.80651175259E+03  0.80651175260E+03  0.25500000000E-02 0.  1.
         -2   -1    0    0    0  501 -0.00000000000E+00 -0.00000000000E+00 -0.13335389184E+03  0.13335389186E+03  0.25500000000E-02 0. -1.
    5000001    1    1    2    0    0 -0.11164047755E+02 -0.26862335016E+03  0.20806629864E+03  0.37788850848E+03  0.16500000000E+03 0.  0.
   -5000001    1    1    2    0    0  0.11164047755E+02  0.26862335016E+03  0.46509156212E+03  0.56197713598E+03  0.16500000000E+03 0.  0.
<mgrwt>
<rscale>  0 0.65590085E+03</rscale>
<asrwt>0</asrwt>
<pdfrwt beam="1">  1        2 0.11521597E+00 0.65590085E+03</pdfrwt>
<pdfrwt beam="2">  1       -2 0.19050555E-01 0.65590085E+03</pdfrwt>
<totfact> 0.87673430E+02</totfact>
</mgrwt>
</event>
<event>
 4    1  0.3584860E-005  0.4727707E+03  0.7818608E-02  0.1021141E+00
         -2   -1    0    0    0  501 -0.00000000000E+00  0.00000000000E+00  0.37589559551E+02  0.37589559637E+02  0.25500000000E-02 0. -1.
          2   -1    0    0  501    0  0.00000000000E+00 -0.00000000000E+00 -0.14865309086E+04  0.14865309086E+04  0.25500000000E-02 0.  1.
    5000001    1    1    2    0    0 -0.10139881167E+03  0.13503670736E+03 -0.76212311657E+03  0.79785542309E+03  0.16500000000E+03 0.  0.
   -5000001    1    1    2    0    0  0.10139881167E+03 -0.13503670736E+03 -0.68681823250E+03  0.72626504517E+03  0.16500000000E+03 0.  0.
<mgrwt>
<rscale>  0 0.47277074E+03</rscale>
<asrwt>0</asrwt>
<pdfrwt beam="1">  1        2 0.21236152E+00 0.47277074E+03</pdfrwt>
<pdfrwt beam="2">  1       -2 0.53699380E-02 0.47277074E+03</pdfrwt>
<totfact> 0.27798709E+03</totfact>
</mgrwt>
</event>
<event>
 4    1  0.3584860E-005  0.4490453E+03  0.7818608E-02  0.1028007E+00
         -2   -1    0    0    0  501 -0.00000000000E+00  0.00000000000E+00  0.14472378673E+02  0.14472378897E+02  0.25500000000E-02 0. -1.
          2   -1    0    0  501    0  0.00000000000E+00 -0.00000000000E+00 -0.34832164291E+04  0.34832164291E+04  0.25500000000E-02 0.  1.
    5000001    1    1    2    0    0 -0.14650609542E+03 -0.41228768917E+02 -0.17705561822E+04  0.17847291228E+04  0.16500000000E+03 0.  0.
   -5000001    1    1    2    0    0  0.14650609542E+03  0.41228768917E+02 -0.16981878683E+04  0.17129596853E+04  0.16500000000E+03 0.  0.
<mgrwt>
<rscale>  0 0.44904533E+03</rscale>
<asrwt>0</asrwt>
<pdfrwt beam="1">  1        2 0.49760181E+00 0.44904533E+03</pdfrwt>
<pdfrwt beam="2">  1       -2 0.20674849E-02 0.44904533E+03</pdfrwt>
<totfact> 0.10760364E+03</totfact>
</mgrwt>
</event>
<event>
 4    1  0.3584860E-005  0.4759038E+03  0.7818608E-02  0.1020267E+00
         -2   -1    0    0    0  501 -0.00000000000E+00  0.00000000000E+00  0.23286158287E+02  0.23286158427E+02  0.25500000000E-02 0. -1.
          2   -1    0    0  501    0  0.00000000000E+00 -0.00000000000E+00 -0.24315352649E+04  0.24315352649E+04  0.25500000000E-02 0.  1.
    5000001    1    1    2    0    0  0.16000590270E+03  0.60587321361E+02 -0.11468234152E+04  0.11711966778E+04  0.16500000000E+03 0.  0.
   -5000001    1    1    2    0    0 -0.16000590270E+03 -0.60587321361E+02 -0.12614256914E+04  0.12836247455E+04  0.16500000000E+03 0.  0.
<mgrwt>
<rscale>  0 0.47590384E+03</rscale>
<asrwt>0</asrwt>
<pdfrwt beam="1">  1        2 0.34736202E+00 0.47590384E+03</pdfrwt>
<pdfrwt beam="2">  1       -2 0.33265956E-02 0.47590384E+03</pdfrwt>
<totfact> 0.19386943E+03</totfact>
</mgrwt>
</event>
<event>
 4    1  0.3584860E-005  0.4976906E+03  0.7818608E-02  0.1014383E+00
         -2   -1    0    0    0  501 -0.00000000000E+00  0.00000000000E+00  0.52030043387E+03  0.52030043388E+03  0.25500000000E-02 0.  1.
          2   -1    0    0  501    0  0.00000000000E+00 -0.00000000000E+00 -0.11901582207E+03  0.11901582209E+03  0.25500000000E-02 0. -1.
    5000001    1    1    2    0    0  0.92966794652E+02 -0.15978585251E+03  0.17121929380E+03  0.30118995690E+03  0.16500000000E+03 0.  0.
   -5000001    1    1    2    0    0 -0.92966794652E+02  0.15978585251E+03  0.23006531801E+03  0.33812629907E+03  0.16500000000E+03 0.  0.
<mgrwt>
<rscale>  0 0.49769060E+03</rscale>
<asrwt>0</asrwt>
<pdfrwt beam="1">  1        2 0.17002260E-01 0.49769060E+03</pdfrwt>
<pdfrwt beam="2">  1       -2 0.74328636E-01 0.49769060E+03</pdfrwt>
<totfact> 0.56576736E+02</totfact>
</mgrwt>
</event>
<event>
 4    1  0.3584860E-005  0.7927135E+03  0.7818608E-02  0.9570624E-01
         -2   -1    0    0    0  501 -0.00000000000E+00  0.00000000000E+00  0.47713334785E+02  0.47713334853E+02  0.25500000000E-02 0. -1.
          2   -1    0    0  501    0  0.00000000000E+00 -0.00000000000E+00 -0.32925526019E+04  0.32925526019E+04  0.25500000000E-02 0.  1.
    5000001    1    1    2    0    0 -0.14147466811E+03  0.27343155160E+03 -0.24117881710E+04  0.24369503641E+04  0.16500000000E+03 0.  0.
   -5000001    1    1    2    0    0  0.14147466811E+03 -0.27343155160E+03 -0.83305109612E+03  0.90331557269E+03  0.16500000000E+03 0.  0.
<mgrwt>
<rscale>  0 0.79271348E+03</rscale>
<asrwt>0</asrwt>
<pdfrwt beam="1">  1        2 0.47036452E+00 0.79271348E+03</pdfrwt>
<pdfrwt beam="2">  1       -2 0.68161927E-02 0.79271348E+03</pdfrwt>
<totfact> 0.21412372E+02</totfact>
</mgrwt>
</event>
<event>
 4    1  0.3584860E-005  0.7909044E+03  0.7818608E-02  0.9573277E-01
          2   -1    0    0  501    0  0.00000000000E+00  0.00000000000E+00  0.14921260677E+04  0.14921260677E+04  0.25500000000E-02 0.  1.
         -2   -1    0    0    0  501 -0.00000000000E+00 -0.00000000000E+00 -0.10480512036E+03  0.10480512039E+03  0.25500000000E-02 0. -1.
    5000001    1    1    2    0    0  0.29789808940E+03  0.19624964120E+03  0.78167788144E+03  0.87492999930E+03  0.16500000000E+03 0.  0.
   -5000001    1    1    2    0    0 -0.29789808940E+03 -0.19624964120E+03  0.60564306586E+03  0.72200118876E+03  0.16500000000E+03 0.  0.
<mgrwt>
<rscale>  0 0.79090442E+03</rscale>
<asrwt>0</asrwt>
<pdfrwt beam="1">  1        2 0.21316083E+00 0.79090442E+03</pdfrwt>
<pdfrwt beam="2">  1       -2 0.14972162E-01 0.79090442E+03</pdfrwt>
<totfact> 0.52270928E+02</totfact>
</mgrwt>
</event>
<event>
 4    1  0.3584860E-005  0.4567660E+03  0.7818608E-02  0.1025723E+00
          2   -1    0    0  501    0  0.00000000000E+00  0.00000000000E+00  0.91932479445E+03  0.91932479446E+03  0.25500000000E-02 0.  1.
         -2   -1    0    0    0  501 -0.00000000000E+00 -0.00000000000E+00 -0.56735982665E+02  0.56735982722E+02  0.25500000000E-02 0. -1.
    5000001    1    1    2    0    0 -0.71458465021E+02 -0.10671236392E+03  0.62760925397E+03  0.66152265003E+03  0.16500000000E+03 0.  0.
   -5000001    1    1    2    0    0  0.71458465021E+02  0.10671236392E+03  0.23497955782E+03  0.31453812715E+03  0.16500000000E+03 0.  0.
<mgrwt>
<rscale>  0 0.45676600E+03</rscale>
<asrwt>0</asrwt>
<pdfrwt beam="1">  1        2 0.13133212E+00 0.45676600E+03</pdfrwt>
<pdfrwt beam="2">  1       -2 0.81051402E-02 0.45676600E+03</pdfrwt>
<totfact> 0.30359286E+03</totfact>
</mgrwt>
</event>
<event>
 4    1  0.3584860E-005  0.4191802E+03  0.7818608E-02  0.1037333E+00
          2   -1    0    0  501    0  0.00000000000E+00  0.00000000000E+00  0.94546589189E+03  0.94546589189E+03  0.25500000000E-02 0.  1.
         -2   -1    0    0    0  501 -0.00000000000E+00 -0.00000000000E+00 -0.46461770225E+02  0.46461770295E+02  0.25500000000E-02 0. -1.
    5000001    1    1    2    0    0  0.61651407587E+02 -0.10908618054E+03  0.52441971584E+03  0.56386321852E+03  0.16500000000E+03 0.  0.
   -5000001    1    1    2    0    0 -0.61651407587E+02  0.10908618054E+03  0.37458440583E+03  0.42806444367E+03  0.16500000000E+03 0.  0.
<mgrwt>
<rscale>  0 0.41918024E+03</rscale>
<asrwt>0</asrwt>
<pdfrwt beam="1">  1        2 0.13506656E+00 0.41918024E+03</pdfrwt>
<pdfrwt beam="2">  1       -2 0.66373957E-02 0.41918024E+03</pdfrwt>
<totfact> 0.40006126E+03</totfact>
</mgrwt>
</event>
<event>
 4    1  0.3584860E-005  0.8594783E+03  0.7818608E-02  0.9477703E-01
         -2   -1    0    0    0  501 -0.00000000000E+00  0.00000000000E+00  0.31208097007E+03  0.31208097008E+03  0.25500000000E-02 0. -1.
          2   -1    0    0  501    0  0.00000000000E+00 -0.00000000000E+00 -0.59175589143E+03  0.59175589144E+03  0.25500000000E-02 0.  1.
    5000001    1    1    2    0    0 -0.24656052651E+03 -0.95575475549E+02  0.17127590097E+03  0.35565038875E+03  0.16500000000E+03 0.  0.
   -5000001    1    1    2    0    0  0.24656052651E+03  0.95575475549E+02 -0.45095082234E+03  0.54818647277E+03  0.16500000000E+03 0.  0.
<mgrwt>
<rscale>  0 0.85947834E+03</rscale>
<asrwt>0</asrwt>
<pdfrwt beam="1">  1        2 0.84536556E-01 0.85947834E+03</pdfrwt>
<pdfrwt beam="2">  1       -2 0.44582996E-01 0.85947834E+03</pdfrwt>
<totfact> 0.26414847E+02</totfact>
</mgrwt>
</event>
<event>
 4    1  0.3584860E-005  0.6500071E+03  0.7818608E-02  0.9806766E-01
          2   -1    0    0  501    0  0.00000000000E+00  0.00000000000E+00  0.15436287416E+04  0.15436287416E+04  0.25500000000E-02 0. -1.
         -2   -1    0    0    0  501 -0.00000000000E+00 -0.00000000000E+00 -0.68427925888E+02  0.68427925936E+02  0.25500000000E-02 0.  1.
    5000001    1    1    2    0    0 -0.76631162024E+02  0.23838162055E+03  0.42680840129E+03  0.52162107264E+03  0.16500000000E+03 0.  0.
   -5000001    1    1    2    0    0  0.76631162024E+02 -0.23838162055E+03  0.10483924144E+04  0.10904355949E+04  0.16500000000E+03 0.  0.
<mgrwt>
<rscale>  0 0.65000712E+03</rscale>
<asrwt>0</asrwt>
<pdfrwt beam="1">  1        2 0.22051838E+00 0.65000712E+03</pdfrwt>
<pdfrwt beam="2">  1       -2 0.97754186E-02 0.65000712E+03</pdfrwt>
<totfact> 0.10011536E+03</totfact>
</mgrwt>
</event>
<event>
 4    1  0.3584860E-005  0.4889610E+03  0.7818608E-02  0.1016701E+00
          2   -1    0    0  501    0  0.00000000000E+00  0.00000000000E+00  0.62859750365E+03  0.62859750366E+03  0.25500000000E-02 0.  1.
         -2   -1    0    0    0  501 -0.00000000000E+00 -0.00000000000E+00 -0.95085831853E+02  0.95085831887E+02  0.25500000000E-02 0. -1.
    5000001    1    1    2    0    0 -0.14223264585E+03  0.79605812768E+02  0.38119394274E+03  0.44620738783E+03  0.16500000000E+03 0.  0.
   -5000001    1    1    2    0    0  0.14223264585E+03 -0.79605812768E+02  0.15231772905E+03  0.27747594771E+03  0.16500000000E+03 0.  0.
<mgrwt>
<rscale>  0 0.48896101E+03</rscale>
<asrwt>0</asrwt>
<pdfrwt beam="1">  1        2 0.89799647E-01 0.48896101E+03</pdfrwt>
<pdfrwt beam="2">  1       -2 0.13583690E-01 0.48896101E+03</pdfrwt>
<totfact> 0.21161218E+03</totfact>
</mgrwt>
</event>
<event>
 4    1  0.3584860E-005  0.4996504E+03  0.7818608E-02  0.1013870E+00
         -2   -1    0    0    0  501 -0.00000000000E+00  0.00000000000E+00  0.58589524177E+02  0.58589524233E+02  0.25500000000E-02 0. -1.
          2   -1    0    0  501    0  0.00000000000E+00 -0.00000000000E+00 -0.10652521985E+04  0.10652521985E+04  0.25500000000E-02 0.  1.
    5000001    1    1    2    0    0  0.11241146417E+03 -0.12965235226E+03 -0.67376426966E+03  0.71458334769E+03  0.16500000000E+03 0.  0.
   -5000001    1    1    2    0    0 -0.11241146417E+03  0.12965235226E+03 -0.33289840469E+03  0.40925837507E+03  0.16500000000E+03 0.  0.
<mgrwt>
<rscale>  0 0.49965036E+03</rscale>
<asrwt>0</asrwt>
<pdfrwt beam="1">  1        2 0.15217887E+00 0.49965036E+03</pdfrwt>
<pdfrwt beam="2">  1       -2 0.83699327E-02 0.49965036E+03</pdfrwt>
<totfact> 0.23527012E+03</totfact>
</mgrwt>
</event>
<event>
 4    1  0.3584860E-005  0.5334851E+03  0.7818608E-02  0.1005390E+00
         -2   -1    0    0    0  501 -0.00000000000E+00  0.00000000000E+00  0.53871622388E+02  0.53871622448E+02  0.25500000000E-02 0. -1.
          2   -1    0    0  501    0  0.00000000000E+00 -0.00000000000E+00 -0.13207620009E+04  0.13207620009E+04  0.25500000000E-02 0.  1.
    5000001    1    1    2    0    0 -0.39857977046E+02 -0.19748934560E+03 -0.48462198931E+03  0.55015831584E+03  0.16500000000E+03 0.  0.
   -5000001    1    1    2    0    0  0.39857977046E+02  0.19748934560E+03 -0.78226838919E+03  0.82447530750E+03  0.16500000000E+03 0.  0.
<mgrwt>
<rscale>  0 0.53348511E+03</rscale>
<asrwt>0</asrwt>
<pdfrwt beam="1">  1        2 0.18868027E+00 0.53348511E+03</pdfrwt>
<pdfrwt beam="2">  1       -2 0.76959469E-02 0.53348511E+03</pdfrwt>
<totfact> 0.19330684E+03</totfact>
</mgrwt>
</event>
<event>
 4    1  0.3584860E-005  0.5315530E+03  0.7818608E-02  0.1005856E+00
          2   -1    0    0  501    0  0.00000000000E+00  0.00000000000E+00  0.56679604902E+03  0.56679604903E+03  0.25500000000E-02 0. -1.
         -2   -1    0    0    0  501 -0.00000000000E+00 -0.00000000000E+00 -0.12462531997E+03  0.12462532000E+03  0.25500000000E-02 0.  1.
    5000001    1    1    2    0    0 -0.20740409215E+03  0.75174716605E+01  0.24504081974E+03  0.36103043246E+03  0.16500000000E+03 0.  0.
   -5000001    1    1    2    0    0  0.20740409215E+03 -0.75174716605E+01  0.19712990931E+03  0.33039093657E+03  0.16500000000E+03 0.  0.
<mgrwt>
<rscale>  0 0.53155297E+03</rscale>
<asrwt>0</asrwt>
<pdfrwt beam="1">  1        2 0.80970865E-01 0.53155297E+03</pdfrwt>
<pdfrwt beam="2">  1       -2 0.17803617E-01 0.53155297E+03</pdfrwt>
<totfact> 0.15144718E+03</totfact>
</mgrwt>
</event>
<event>
 4    1  0.3584860E-005  0.3846826E+03  0.7818608E-02  0.1049217E+00
         -2   -1    0    0    0  501 -0.00000000000E+00  0.00000000000E+00  0.44024993732E+02  0.44024993806E+02  0.25500000000E-02 0. -1.
          2   -1    0    0  501    0  0.00000000000E+00 -0.00000000000E+00 -0.84032198544E+03  0.84032198544E+03  0.25500000000E-02 0.  1.
    5000001    1    1    2    0    0 -0.28564283686E+02 -0.90023809186E+02 -0.33112595709E+03  0.38182404846E+03  0.16500000000E+03 0.  0.
   -5000001    1    1    2    0    0  0.28564283686E+02  0.90023809186E+02 -0.46517103461E+03  0.50252293079E+03  0.16500000000E+03 0.  0.
<mgrwt>
<rscale>  0 0.38468257E+03</rscale>
<asrwt>0</asrwt>
<pdfrwt beam="1">  1        2 0.12004599E+00 0.38468257E+03</pdfrwt>
<pdfrwt beam="2">  1       -2 0.62892854E-02 0.38468257E+03</pdfrwt>
<totfact> 0.50724758E+03</totfact>
</mgrwt>
</event>
<event>
 4    1  0.3584860E-005  0.4241366E+03  0.7818608E-02  0.1035728E+00
          2   -1    0    0  501    0  0.00000000000E+00  0.00000000000E+00  0.67578968405E+02  0.67578968453E+02  0.25500000000E-02 0.  1.
         -2   -1    0    0    0  501 -0.00000000000E+00 -0.00000000000E+00 -0.66548771655E+03  0.66548771655E+03  0.25500000000E-02 0. -1.
    5000001    1    1    2    0    0 -0.10310211696E+03  0.81798745413E+02 -0.26324380644E+03  0.33740685070E+03  0.16500000000E+03 0.  0.
   -5000001    1    1    2    0    0  0.10310211696E+03 -0.81798745413E+02 -0.33466494171E+03  0.39565983430E+03  0.16500000000E+03 0.  0.
<mgrwt>
<rscale>  0 0.42413664E+03</rscale>
<asrwt>0</asrwt>
<pdfrwt beam="1">  1        2 0.96541387E-02 0.42413664E+03</pdfrwt>
<pdfrwt beam="2">  1       -2 0.95069670E-01 0.42413664E+03</pdfrwt>
<totfact> 0.65049748E+02</totfact>
</mgrwt>
</event>
<event>
 4    1  0.3584860E-005  0.4124368E+03  0.7818608E-02  0.1039556E+00
         -2   -1    0    0    0  501 -0.00000000000E+00  0.00000000000E+00  0.46963494003E+02  0.46963494073E+02  0.25500000000E-02 0. -1.
          2   -1    0    0  501    0  0.00000000000E+00 -0.00000000000E+00 -0.90551248581E+03  0.90551248582E+03  0.25500000000E-02 0.  1.
    5000001    1    1    2    0    0  0.24250748839E+02 -0.85764669243E+02 -0.23118684159E+03  0.29768445212E+03  0.16500000000E+03 0.  0.
   -5000001    1    1    2    0    0 -0.24250748839E+02  0.85764669243E+02 -0.62736215022E+03  0.65479152777E+03  0.16500000000E+03 0.  0.
<mgrwt>
<rscale>  0 0.41243681E+03</rscale>
<asrwt>0</asrwt>
<pdfrwt beam="1">  1        2 0.12935892E+00 0.41243681E+03</pdfrwt>
<pdfrwt beam="2">  1       -2 0.67090711E-02 0.41243681E+03</pdfrwt>
<totfact> 0.41667320E+03</totfact>
</mgrwt>
</event>
<event>
 4    1  0.3584860E-005  0.5696205E+03  0.7818608E-02  0.9970519E-01
         -2   -1    0    0    0  501 -0.00000000000E+00  0.00000000000E+00  0.52257719358E+02  0.52257719420E+02  0.25500000000E-02 0.  1.
          2   -1    0    0  501    0  0.00000000000E+00 -0.00000000000E+00 -0.15522468782E+04  0.15522468782E+04  0.25500000000E-02 0. -1.
    5000001    1    1    2    0    0 -0.16605178002E+03  0.74807382145E+02 -0.34450763220E+03  0.42317826825E+03  0.16500000000E+03 0.  0.
   -5000001    1    1    2    0    0  0.16605178002E+03 -0.74807382145E+02 -0.11554815266E+04  0.11813263293E+04  0.16500000000E+03 0.  0.
<mgrwt>
<rscale>  0 0.56962051E+03</rscale>
<asrwt>0</asrwt>
<pdfrwt beam="1">  1        2 0.22174953E+00 0.56962051E+03</pdfrwt>
<pdfrwt beam="2">  1       -2 0.74653894E-02 0.56962051E+03</pdfrwt>
<totfact> 0.15309765E+03</totfact>
</mgrwt>
</event>
<event>
 4    1  0.3584860E-005  0.5393448E+03  0.7818608E-02  0.1003991E+00
          2   -1    0    0  501    0  0.00000000000E+00  0.00000000000E+00  0.19731580271E+04  0.19731580271E+04  0.25500000000E-02 0.  1.
         -2   -1    0    0    0  501 -0.00000000000E+00 -0.00000000000E+00 -0.36856247752E+02  0.36856247840E+02  0.25500000000E-02 0. -1.
    5000001    1    1    2    0    0 -0.10898275968E+03  0.16118085592E+02  0.16488469965E+04  0.16607403327E+04  0.16500000000E+03 0.  0.
   -5000001    1    1    2    0    0  0.10898275968E+03 -0.16118085592E+02  0.28745478286E+03  0.34927394231E+03  0.16500000000E+03 0.  0.
<mgrwt>
<rscale>  0 0.53934479E+03</rscale>
<asrwt>0</asrwt>
<pdfrwt beam="1">  1        2 0.28187971E+00 0.53934479E+03</pdfrwt>
<pdfrwt beam="2">  1       -2 0.52651783E-02 0.53934479E+03</pdfrwt>
<totfact> 0.16227178E+03</totfact>
</mgrwt>
</event>
<event>
 4    1  0.3584860E-005  0.8015372E+03  0.7818608E-02  0.9557795E-01
          2   -1    0    0  501    0  0.00000000000E+00  0.00000000000E+00  0.85248060241E+03  0.85248060241E+03  0.25500000000E-02 0.  1.
         -2   -1    0    0    0  501 -0.00000000000E+00 -0.00000000000E+00 -0.18840953597E+03  0.18840953599E+03  0.25500000000E-02 0. -1.
    5000001    1    1    2    0    0  0.27999762067E+03  0.22317477556E+03  0.23852762795E+03  0.46078853862E+03  0.16500000000E+03 0.  0.
   -5000001    1    1    2    0    0 -0.27999762067E+03 -0.22317477556E+03  0.42554343849E+03  0.58010159978E+03  0.16500000000E+03 0.  0.
<mgrwt>
<rscale>  0 0.80153721E+03</rscale>
<asrwt>0</asrwt>
<pdfrwt beam="1">  1        2 0.12178294E+00 0.80153721E+03</pdfrwt>
<pdfrwt beam="2">  1       -2 0.26915649E-01 0.80153721E+03</pdfrwt>
<totfact> 0.43925833E+02</totfact>
</mgrwt>
</event>
<event>
 4    1  0.3584860E-005  0.3583763E+03  0.7818608E-02  0.1059229E+00
         -2   -1    0    0    0  501 -0.00000000000E+00  0.00000000000E+00  0.40955827677E+02  0.40955827756E+02  0.25500000000E-02 0. -1.
          2   -1    0    0  501    0  0.00000000000E+00 -0.00000000000E+00 -0.78397639196E+03  0.78397639196E+03  0.25500000000E-02 0.  1.
    5000001    1    1    2    0    0 -0.44693660599E+02  0.39586389532E+02 -0.28791768482E+03  0.33717384057E+03  0.16500000000E+03 0.  0.
   -5000001    1    1    2    0    0  0.44693660599E+02 -0.39586389532E+02 -0.45510287946E+03  0.48775837915E+03  0.16500000000E+03 0.  0.
<mgrwt>
<rscale>  0 0.35837635E+03</rscale>
<asrwt>0</asrwt>
<pdfrwt beam="1">  1        2 0.11199662E+00 0.35837635E+03</pdfrwt>
<pdfrwt beam="2">  1       -2 0.58508330E-02 0.35837635E+03</pdfrwt>
<totfact> 0.61828431E+03</totfact>
</mgrwt>
</event>
<event>
 4    1  0.3584860E-005  0.6704013E+03  0.7818608E-02  0.9769233E-01
         -2   -1    0    0    0  501 -0.00000000000E+00  0.00000000000E+00  0.59466067372E+02  0.59466067427E+02  0.25500000000E-02 0. -1.
          2   -1    0    0  501    0  0.00000000000E+00 -0.00000000000E+00 -0.18894719600E+04  0.18894719600E+04  0.25500000000E-02 0.  1.
    5000001    1    1    2    0    0  0.24182109243E+03  0.16099609814E+03 -0.99393986716E+03  0.10485888822E+04  0.16500000000E+03 0.  0.
   -5000001    1    1    2    0    0 -0.24182109243E+03 -0.16099609814E+03 -0.83606602549E+03  0.90034914524E+03  0.16500000000E+03 0.  0.
<mgrwt>
<rscale>  0 0.67040127E+03</rscale>
<asrwt>0</asrwt>
<pdfrwt beam="1">  1        2 0.26992453E+00 0.67040127E+03</pdfrwt>
<pdfrwt beam="2">  1       -2 0.84951537E-02 0.67040127E+03</pdfrwt>
<totfact> 0.83525667E+02</totfact>
</mgrwt>
</event>
<event>
 4    1  0.3584860E-005  0.6907757E+03  0.7818608E-02  0.9733138E-01
          2   -1    0    0  501    0  0.00000000000E+00  0.00000000000E+00  0.13276670212E+04  0.13276670212E+04  0.25500000000E-02 0.  1.
         -2   -1    0    0    0  501 -0.00000000000E+00 -0.00000000000E+00 -0.89851429030E+02  0.89851429066E+02  0.25500000000E-02 0. -1.
    5000001    1    1    2    0    0  0.20255197647E+03 -0.21674351928E+03  0.74970553729E+03  0.82297536352E+03  0.16500000000E+03 0.  0.
   -5000001    1    1    2    0    0 -0.20255197647E+03  0.21674351928E+03  0.48811005485E+03  0.59454308671E+03  0.16500000000E+03 0.  0.
<mgrwt>
<rscale>  0 0.69077574E+03</rscale>
<asrwt>0</asrwt>
<pdfrwt beam="1">  1        2 0.18966672E+00 0.69077574E+03</pdfrwt>
<pdfrwt beam="2">  1       -2 0.12835918E-01 0.69077574E+03</pdfrwt>
<totfact> 0.83210818E+02</totfact>
</mgrwt>
</event>
<event>
 4    1  0.3584860E-005  0.4239059E+03  0.7818608E-02  0.1035803E+00
          2   -1    0    0  501    0  0.00000000000E+00  0.00000000000E+00  0.11142173808E+03  0.11142173811E+03  0.25500000000E-02 0.  1.
         -2   -1    0    0    0  501 -0.00000000000E+00 -0.00000000000E+00 -0.40318938698E+03  0.40318938698E+03  0.25500000000E-02 0. -1.
    5000001    1    1    2    0    0 -0.55342491558E+02  0.11484933705E+03 -0.19204521649E+03  0.28347755955E+03  0.16500000000E+03 0.  0.
   -5000001    1    1    2    0    0  0.55342491558E+02 -0.11484933705E+03 -0.99722432406E+02  0.23113356554E+03  0.16500000000E+03 0.  0.
<mgrwt>
<rscale>  0 0.42390594E+03</rscale>
<asrwt>0</asrwt>
<pdfrwt beam="1">  1        2 0.15917391E-01 0.42390594E+03</pdfrwt>
<pdfrwt beam="2">  1       -2 0.57598483E-01 0.42390594E+03</pdfrwt>
<totfact> 0.10536010E+03</totfact>
</mgrwt>
</event>
<event>
 4    1  0.3584860E-005  0.5456418E+03  0.7818608E-02  0.1002508E+00
          2   -1    0    0  501    0  0.00000000000E+00  0.00000000000E+00  0.19989011913E+03  0.19989011915E+03  0.25500000000E-02 0.  1.
         -2   -1    0    0    0  501 -0.00000000000E+00 -0.00000000000E+00 -0.37236076992E+03  0.37236076992E+03  0.25500000000E-02 0. -1.
    5000001    1    1    2    0    0  0.20299753988E+03  0.37132466303E+02 -0.14954542522E+02  0.26464213495E+03  0.16500000000E+03 0.  0.
   -5000001    1    1    2    0    0 -0.20299753988E+03 -0.37132466303E+02 -0.15751610826E+03  0.30760875412E+03  0.16500000000E+03 0.  0.
<mgrwt>
<rscale>  0 0.54564178E+03</rscale>
<asrwt>0</asrwt>
<pdfrwt beam="1">  1        2 0.28555731E-01 0.54564178E+03</pdfrwt>
<pdfrwt beam="2">  1       -2 0.53194396E-01 0.54564178E+03</pdfrwt>
<totfact> 0.63127332E+02</totfact>
</mgrwt>
</event>
<event>
 4    1  0.3584860E-005  0.3994153E+03  0.7818608E-02  0.1043982E+00
         -2   -1    0    0    0  501 -0.00000000000E+00  0.00000000000E+00  0.44483735158E+02  0.44483735232E+02  0.25500000000E-02 0. -1.
          2   -1    0    0  501    0  0.00000000000E+00 -0.00000000000E+00 -0.89657796464E+03  0.89657796464E+03  0.25500000000E-02 0.  1.
    5000001    1    1    2    0    0  0.10461621736E+03  0.26437417366E+02 -0.50109714860E+03  0.53848569369E+03  0.16500000000E+03 0.  0.
   -5000001    1    1    2    0    0 -0.10461621736E+03 -0.26437417366E+02 -0.35099708088E+03  0.40257600619E+03  0.16500000000E+03 0.  0.
<mgrwt>
<rscale>  0 0.39941526E+03</rscale>
<asrwt>0</asrwt>
<pdfrwt beam="1">  1        2 0.12808255E+00 0.39941526E+03</pdfrwt>
<pdfrwt beam="2">  1       -2 0.63548199E-02 0.39941526E+03</pdfrwt>
<totfact> 0.45919986E+03</totfact>
</mgrwt>
</event>
<event>
 4    1  0.3584860E-005  0.5421558E+03  0.7818608E-02  0.1003326E+00
         -2   -1    0    0    0  501 -0.00000000000E+00  0.00000000000E+00  0.17446877309E+03  0.17446877311E+03  0.25500000000E-02 0. -1.
          2   -1    0    0  501    0  0.00000000000E+00 -0.00000000000E+00 -0.42118262003E+03  0.42118262004E+03  0.25500000000E-02 0.  1.
    5000001    1    1    2    0    0  0.16781563012E+03 -0.11302594551E+03 -0.43212089902E+02  0.26463037389E+03  0.16500000000E+03 0.  0.
   -5000001    1    1    2    0    0 -0.16781563012E+03  0.11302594551E+03 -0.20350175704E+03  0.33102101925E+03  0.16500000000E+03 0.  0.
<mgrwt>
<rscale>  0 0.54215575E+03</rscale>
<asrwt>0</asrwt>
<pdfrwt beam="1">  1        2 0.60168945E-01 0.54215575E+03</pdfrwt>
<pdfrwt beam="2">  1       -2 0.24924111E-01 0.54215575E+03</pdfrwt>
<totfact> 0.11762952E+03</totfact>
</mgrwt>
</event>
<event>
 4    1  0.3584860E-005  0.3928854E+03  0.7818608E-02  0.1046271E+00
          2   -1    0    0  501    0  0.00000000000E+00  0.00000000000E+00  0.10395329280E+04  0.10395329280E+04  0.25500000000E-02 0.  1.
         -2   -1    0    0    0  501 -0.00000000000E+00 -0.00000000000E+00 -0.37122181440E+02  0.37122181528E+02  0.25500000000E-02 0. -1.
    5000001    1    1    2    0    0  0.96212090147E+02 -0.32320840900E+02  0.59056557782E+03  0.62152562679E+03  0.16500000000E+03 0.  0.
   -5000001    1    1    2    0    0 -0.96212090147E+02  0.32320840900E+02  0.41184516873E+03  0.45512948273E+03  0.16500000000E+03 0.  0.
<mgrwt>
<rscale>  0 0.39288538E+03</rscale>
<asrwt>0</asrwt>
<pdfrwt beam="1">  1        2 0.14850470E+00 0.39288538E+03</pdfrwt>
<pdfrwt beam="2">  1       -2 0.53031690E-02 0.39288538E+03</pdfrwt>
<totfact> 0.49676294E+03</totfact>
</mgrwt>
</event>
<event>
 4    1  0.3584860E-005  0.6128904E+03  0.7818608E-02  0.9879018E-01
          2   -1    0    0  501    0  0.00000000000E+00  0.00000000000E+00  0.98644731036E+03  0.98644731036E+03  0.25500000000E-02 0.  1.
         -2   -1    0    0    0  501 -0.00000000000E+00 -0.00000000000E+00 -0.95198860396E+02  0.95198860430E+02  0.25500000000E-02 0. -1.
    5000001    1    1    2    0    0 -0.81112232400E+02 -0.23645975239E+03  0.33136948182E+03  0.44668013413E+03  0.16500000000E+03 0.  0.
   -5000001    1    1    2    0    0  0.81112232400E+02  0.23645975239E+03  0.55987896814E+03  0.63496603666E+03  0.16500000000E+03 0.  0.
<mgrwt>
<rscale>  0 0.61289040E+03</rscale>
<asrwt>0</asrwt>
<pdfrwt beam="1">  1        2 0.14092104E+00 0.61289040E+03</pdfrwt>
<pdfrwt beam="2">  1       -2 0.13599837E-01 0.61289040E+03</pdfrwt>
<totfact> 0.11886217E+03</totfact>
</mgrwt>
</event>
<event>
 4    1  0.3584860E-005  0.3995304E+03  0.7818608E-02  0.1043942E+00
          2   -1    0    0  501    0  0.00000000000E+00  0.00000000000E+00  0.53074542135E+03  0.53074542135E+03  0.25500000000E-02 0.  1.
         -2   -1    0    0    0  501 -0.00000000000E+00 -0.00000000000E+00 -0.75188839177E+02  0.75188839220E+02  0.25500000000E-02 0. -1.
    5000001    1    1    2    0    0 -0.10173440858E+03 -0.30314169926E+02  0.17078310795E+03  0.26011672139E+03  0.16500000000E+03 0.  0.
   -5000001    1    1    2    0    0  0.10173440858E+03  0.30314169926E+02  0.28477347422E+03  0.34581753918E+03  0.16500000000E+03 0.  0.
<mgrwt>
<rscale>  0 0.39953039E+03</rscale>
<asrwt>0</asrwt>
<pdfrwt beam="1">  1        2 0.75820773E-01 0.39953039E+03</pdfrwt>
<pdfrwt beam="2">  1       -2 0.10741263E-01 0.39953039E+03</pdfrwt>
<totfact> 0.37691844E+03</totfact>
</mgrwt>
</event>
<event>
 4    1  0.3584860E-005  0.5189909E+03  0.7818608E-02  0.1008938E+00
          2   -1    0    0  501    0  0.00000000000E+00  0.00000000000E+00  0.30769762421E+04  0.30769762421E+04  0.25500000000E-02 0. -1.
         -2   -1    0    0    0  501 -0.00000000000E+00 -0.00000000000E+00 -0.21884437824E+02  0.21884437972E+02  0.25500000000E-02 0.  1.
    5000001    1    1    2    0    0  0.16303724491E+03  0.15227626630E+02  0.22161443049E+04  0.22283028529E+04  0.16500000000E+03 0.  0.
   -5000001    1    1    2    0    0 -0.16303724491E+03 -0.15227626630E+02  0.83894749933E+03  0.87055782718E+03  0.16500000000E+03 0.  0.
<mgrwt>
<rscale>  0 0.51899093E+03</rscale>
<asrwt>0</asrwt>
<pdfrwt beam="1">  1        2 0.43956852E+00 0.51899093E+03</pdfrwt>
<pdfrwt beam="2">  1       -2 0.31263448E-02 0.51899093E+03</pdfrwt>
<totfact> 0.97344638E+02</totfact>
</mgrwt>
</event>
<event>
 4    1  0.3584860E-005  0.5247279E+03  0.7818608E-02  0.1007519E+00
          2   -1    0    0  501    0  0.00000000000E+00  0.00000000000E+00  0.53101824871E+03  0.53101824872E+03  0.25500000000E-02 0.  1.
         -2   -1    0    0    0  501 -0.00000000000E+00 -0.00000000000E+00 -0.12962799767E+03  0.12962799770E+03  0.25500000000E-02 0. -1.
    5000001    1    1    2    0    0 -0.40607171316E+02  0.19846520859E+03  0.23081852497E+03  0.34862526135E+03  0.16500000000E+03 0.  0.
   -5000001    1    1    2    0    0  0.40607171316E+02 -0.19846520859E+03  0.17057172607E+03  0.31202098506E+03  0.16500000000E+03 0.  0.
<mgrwt>
<rscale>  0 0.52472786E+03</rscale>
<asrwt>0</asrwt>
<pdfrwt beam="1">  1        2 0.75859749E-01 0.52472786E+03</pdfrwt>
<pdfrwt beam="2">  1       -2 0.18518286E-01 0.52472786E+03</pdfrwt>
<totfact> 0.15259249E+03</totfact>
</mgrwt>
</event>
<event>
 4    1  0.3584860E-005  0.5031871E+03  0.7818608E-02  0.1012950E+00
         -2   -1    0    0    0  501 -0.00000000000E+00  0.00000000000E+00  0.65570232224E+02  0.65570232274E+02  0.25500000000E-02 0. -1.
          2   -1    0    0  501    0  0.00000000000E+00 -0.00000000000E+00 -0.96536682177E+03  0.96536682178E+03  0.25500000000E-02 0.  1.
    5000001    1    1    2    0    0  0.89171944361E+02 -0.16732781441E+03 -0.42707505695E+03  0.49554852175E+03  0.16500000000E+03 0.  0.
   -5000001    1    1    2    0    0 -0.89171944361E+02  0.16732781441E+03 -0.47272153259E+03  0.53538853230E+03  0.16500000000E+03 0.  0.
<mgrwt>
<rscale>  0 0.50318715E+03</rscale>
<asrwt>0</asrwt>
<pdfrwt beam="1">  1        2 0.13790954E+00 0.50318715E+03</pdfrwt>
<pdfrwt beam="2">  1       -2 0.93671766E-02 0.50318715E+03</pdfrwt>
<totfact> 0.22564151E+03</totfact>
</mgrwt>
</event>
<event>
 4    1  0.3584860E-005  0.4650903E+03  0.7818608E-02  0.1023315E+00
         -2   -1    0    0    0  501 -0.00000000000E+00  0.00000000000E+00  0.46270435809E+02  0.46270435879E+02  0.25500000000E-02 0. -1.
          2   -1    0    0  501    0  0.00000000000E+00 -0.00000000000E+00 -0.11687212018E+04  0.11687212018E+04  0.25500000000E-02 0.  1.
    5000001    1    1    2    0    0  0.15902914015E+03 -0.37358660653E+02 -0.59491416867E+03  0.63861866949E+03  0.16500000000E+03 0.  0.
   -5000001    1    1    2    0    0 -0.15902914015E+03  0.37358660653E+02 -0.52753659731E+03  0.57637296818E+03  0.16500000000E+03 0.  0.
<mgrwt>
<rscale>  0 0.46509027E+03</rscale>
<asrwt>0</asrwt>
<pdfrwt beam="1">  1        2 0.16696015E+00 0.46509027E+03</pdfrwt>
<pdfrwt beam="2">  1       -2 0.66100630E-02 0.46509027E+03</pdfrwt>
<totfact> 0.29790514E+03</totfact>
</mgrwt>
</event>
<event>
 4    1  0.3584860E-005  0.4865086E+03  0.7818608E-02  0.1017362E+00
          2   -1    0    0  501    0  0.00000000000E+00  0.00000000000E+00  0.10784384524E+04  0.10784384524E+04  0.25500000000E-02 0.  1.
         -2   -1    0    0    0  501 -0.00000000000E+00 -0.00000000000E+00 -0.54868820171E+02  0.54868820231E+02  0.25500000000E-02 0. -1.
    5000001    1    1    2    0    0 -0.15192186341E+03 -0.63036181880E+02  0.67474509069E+03  0.71383453981E+03  0.16500000000E+03 0.  0.
   -5000001    1    1    2    0    0  0.15192186341E+03  0.63036181880E+02  0.34882454155E+03  0.41947273284E+03  0.16500000000E+03 0.  0.
<mgrwt>
<rscale>  0 0.48650856E+03</rscale>
<asrwt>0</asrwt>
<pdfrwt beam="1">  1        2 0.15406263E+00 0.48650856E+03</pdfrwt>
<pdfrwt beam="2">  1       -2 0.78384031E-02 0.48650856E+03</pdfrwt>
<totfact> 0.25652059E+03</totfact>
</mgrwt>
</event>
<event>
 4    1  0.3584860E-005  0.6950278E+03  0.7818608E-02  0.9725773E-01
         -2   -1    0    0    0  501 -0.00000000000E+00  0.00000000000E+00  0.16199785486E+03  0.16199785488E+03  0.25500000000E-02 0. -1.
          2   -1    0    0  501    0  0.00000000000E+00 -0.00000000000E+00 -0.74547840459E+03  0.74547840459E+03  0.25500000000E-02 0.  1.
    5000001    1    1    2    0    0  0.18036549661E+03  0.23120526092E+03 -0.17826480827E+03  0.38077674156E+03  0.16500000000E+03 0.  0.
   -5000001    1    1    2    0    0 -0.18036549661E+03 -0.23120526092E+03 -0.40521574145E+03  0.52669951791E+03  0.16500000000E+03 0.  0.
<mgrwt>
<rscale>  0 0.69502778E+03</rscale>
<asrwt>0</asrwt>
<pdfrwt beam="1">  1        2 0.10649691E+00 0.69502778E+03</pdfrwt>
<pdfrwt beam="2">  1       -2 0.23142551E-01 0.69502778E+03</pdfrwt>
<totfact> 0.68760430E+02</totfact>
</mgrwt>
</event>
<event>
 4    1  0.3584860E-005  0.3894883E+03  0.7818608E-02  0.1047482E+00
         -2   -1    0    0    0  501 -0.00000000000E+00  0.00000000000E+00  0.17411300359E+02  0.17411300545E+02  0.25500000000E-02 0. -1.
          2   -1    0    0  501    0  0.00000000000E+00 -0.00000000000E+00 -0.21781988839E+04  0.21781988839E+04  0.25500000000E-02 0.  1.
    5000001    1    1    2    0    0  0.10315520354E+03  0.24291774272E+01 -0.10392083983E+04  0.10572729032E+04  0.16500000000E+03 0.  0.
   -5000001    1    1    2    0    0 -0.10315520354E+03 -0.24291774272E+01 -0.11215791853E+04  0.11383372813E+04  0.16500000000E+03 0.  0.
<mgrwt>
<rscale>  0 0.38948826E+03</rscale>
<asrwt>0</asrwt>
<pdfrwt beam="1">  1        2 0.31117110E+00 0.38948826E+03</pdfrwt>
<pdfrwt beam="2">  1       -2 0.24873300E-02 0.38948826E+03</pdfrwt>
<totfact> 0.40375079E+03</totfact>
</mgrwt>
</event>
<event>
 4    1  0.3584860E-005  0.3813664E+03  0.7818608E-02  0.1050430E+00
         -2   -1    0    0    0  501 -0.00000000000E+00  0.00000000000E+00  0.51596308154E+02  0.51596308217E+02  0.25500000000E-02 0. -1.
          2   -1    0    0  501    0  0.00000000000E+00 -0.00000000000E+00 -0.70470325927E+03  0.70470325927E+03  0.25500000000E-02 0.  1.
    5000001    1    1    2    0    0 -0.78809336142E+02 -0.46839695557E+00 -0.21931841642E+03  0.28554631610E+03  0.16500000000E+03 0.  0.
   -5000001    1    1    2    0    0  0.78809336142E+02  0.46839695557E+00 -0.43378853470E+03  0.47075325139E+03  0.16500000000E+03 0.  0.
<mgrwt>
<rscale>  0 0.38136642E+03</rscale>
<asrwt>0</asrwt>
<pdfrwt beam="1">  1        2 0.10067189E+00 0.38136642E+03</pdfrwt>
<pdfrwt beam="2">  1       -2 0.73709016E-02 0.38136642E+03</pdfrwt>
<totfact> 0.49251188E+03</totfact>
</mgrwt>
</event>
<event>
 4    1  0.3584860E-005  0.4820720E+03  0.7818608E-02  0.1018567E+00
          2   -1    0    0  501    0  0.00000000000E+00  0.00000000000E+00  0.94290634207E+03  0.94290634207E+03  0.25500000000E-02 0.  1.
         -2   -1    0    0    0  501 -0.00000000000E+00 -0.00000000000E+00 -0.61616256916E+02  0.61616256969E+02  0.25500000000E-02 0. -1.
    5000001    1    1    2    0    0 -0.16390342865E+02  0.17320933068E+03  0.49182433079E+03  0.54716203078E+03  0.16500000000E+03 0.  0.
   -5000001    1    1    2    0    0  0.16390342865E+02 -0.17320933068E+03  0.38946575436E+03  0.45736056826E+03  0.16500000000E+03 0.  0.
<mgrwt>
<rscale>  0 0.48207203E+03</rscale>
<asrwt>0</asrwt>
<pdfrwt beam="1">  1        2 0.13470090E+00 0.48207203E+03</pdfrwt>
<pdfrwt beam="2">  1       -2 0.88023226E-02 0.48207203E+03</pdfrwt>
<totfact> 0.25739047E+03</totfact>
</mgrwt>
</event>
<event>
 4    1  0.3584860E-005  0.4364702E+03  0.7818608E-02  0.1031835E+00
          2   -1    0    0  501    0  0.00000000000E+00  0.00000000000E+00  0.20484138338E+03  0.20484138340E+03  0.25500000000E-02 0.  1.
         -2   -1    0    0    0  501 -0.00000000000E+00 -0.00000000000E+00 -0.23250461104E+03  0.23250461105E+03  0.25500000000E-02 0. -1.
    5000001    1    1    2    0    0 -0.14117612221E+03  0.18933419982E+02 -0.32087243420E+01  0.21800107290E+03  0.16500000000E+03 0.  0.
   -5000001    1    1    2    0    0  0.14117612221E+03 -0.18933419982E+02 -0.24454503313E+02  0.21934492154E+03  0.16500000000E+03 0.  0.
<mgrwt>
<rscale>  0 0.43647023E+03</rscale>
<asrwt>0</asrwt>
<pdfrwt beam="1">  1        2 0.29263055E-01 0.43647023E+03</pdfrwt>
<pdfrwt beam="2">  1       -2 0.33214944E-01 0.43647023E+03</pdfrwt>
<totfact> 0.15404274E+03</totfact>
</mgrwt>
</event>
<event>
 4    1  0.3584860E-005  0.3771661E+03  0.7818608E-02  0.1051986E+00
         -2   -1    0    0    0  501 -0.00000000000E+00  0.00000000000E+00  0.20603372705E+02  0.20603372863E+02  0.25500000000E-02 0. -1.
          2   -1    0    0  501    0  0.00000000000E+00 -0.00000000000E+00 -0.17261039500E+04  0.17261039500E+04  0.25500000000E-02 0.  1.
    5000001    1    1    2    0    0 -0.64198280991E+02 -0.57398532307E+02 -0.99341430812E+03  0.10106992621E+04  0.16500000000E+03 0.  0.
   -5000001    1    1    2    0    0  0.64198280991E+02  0.57398532307E+02 -0.71208626919E+03  0.73600806080E+03  0.16500000000E+03 0.  0.
<mgrwt>
<rscale>  0 0.37716608E+03</rscale>
<asrwt>0</asrwt>
<pdfrwt beam="1">  1        2 0.24658619E+00 0.37716608E+03</pdfrwt>
<pdfrwt beam="2">  1       -2 0.29433401E-02 0.37716608E+03</pdfrwt>
<totfact> 0.52536820E+03</totfact>
</mgrwt>
</event>
<event>
 4    1  0.3584860E-005  0.3773971E+03  0.7818608E-02  0.1051900E+00
          2   -1    0    0  501    0  0.00000000000E+00  0.00000000000E+00  0.82030793577E+03  0.82030793578E+03  0.25500000000E-02 0.  1.
         -2   -1    0    0    0  501 -0.00000000000E+00 -0.00000000000E+00 -0.43407040500E+02  0.43407040575E+02  0.25500000000E-02 0. -1.
    5000001    1    1    2    0    0 -0.86846527049E+01  0.54117861668E+02  0.55628495019E+03  0.58282253899E+03  0.16500000000E+03 0.  0.
   -5000001    1    1    2    0    0  0.86846527049E+01 -0.54117861668E+02  0.22061594508E+03  0.28089243737E+03  0.16500000000E+03 0.  0.
<mgrwt>
<rscale>  0 0.37739708E+03</rscale>
<asrwt>0</asrwt>
<pdfrwt beam="1">  1        2 0.11718684E+00 0.37739708E+03</pdfrwt>
<pdfrwt beam="2">  1       -2 0.62010064E-02 0.37739708E+03</pdfrwt>
<totfact> 0.53446296E+03</totfact>
</mgrwt>
</event>
<event>
 4    1  0.3584860E-005  0.8425895E+03  0.7818608E-02  0.9500337E-01
         -2   -1    0    0    0  501 -0.00000000000E+00  0.00000000000E+00  0.69948474884E+02  0.69948474930E+02  0.25500000000E-02 0. -1.
          2   -1    0    0  501    0  0.00000000000E+00 -0.00000000000E+00 -0.25374288949E+04  0.25374288949E+04  0.25500000000E-02 0.  1.
    5000001    1    1    2    0    0 -0.18761058691E+03  0.60105217818E+02 -0.22668238611E+04  0.22813429787E+04  0.16500000000E+03 0.  0.
   -5000001    1    1    2    0    0  0.18761058691E+03 -0.60105217818E+02 -0.20065655896E+03  0.32603439111E+03  0.16500000000E+03 0.  0.
<mgrwt>
<rscale>  0 0.84258954E+03</rscale>
<asrwt>0</asrwt>
<pdfrwt beam="1">  1        2 0.36248978E+00 0.84258954E+03</pdfrwt>
<pdfrwt beam="2">  1       -2 0.99926409E-02 0.84258954E+03</pdfrwt>
<totfact> 0.29681673E+02</totfact>
</mgrwt>
</event>
<event>
 4    1  0.3584860E-005  0.3642227E+03  0.7818608E-02  0.1056924E+00
         -2   -1    0    0    0  501 -0.00000000000E+00  0.00000000000E+00  0.70689168314E+02  0.70689168360E+02  0.25500000000E-02 0. -1.
          2   -1    0    0  501    0  0.00000000000E+00 -0.00000000000E+00 -0.46916019274E+03  0.46916019274E+03  0.25500000000E-02 0.  1.
    5000001    1    1    2    0    0  0.61722527837E+01 -0.74167348228E+02 -0.22890356351E+03  0.29182312046E+03  0.16500000000E+03 0.  0.
   -5000001    1    1    2    0    0 -0.61722527837E+01  0.74167348228E+02 -0.16956746092E+03  0.24802624065E+03  0.16500000000E+03 0.  0.
<mgrwt>
<rscale>  0 0.36422270E+03</rscale>
<asrwt>0</asrwt>
<pdfrwt beam="1">  1        2 0.67022883E-01 0.36422270E+03</pdfrwt>
<pdfrwt beam="2">  1       -2 0.10098453E-01 0.36422270E+03</pdfrwt>
<totfact> 0.47698755E+03</totfact>
</mgrwt>
</event>
<event>
 4    1  0.3584860E-005  0.5239217E+03  0.7818608E-02  0.1007717E+00
         -2   -1    0    0    0  501 -0.00000000000E+00  0.00000000000E+00  0.15749726044E+03  0.15749726046E+03  0.25500000000E-02 0. -1.
          2   -1    0    0  501    0  0.00000000000E+00 -0.00000000000E+00 -0.43571225413E+03  0.43571225413E+03  0.25500000000E-02 0.  1.
    5000001    1    1    2    0    0 -0.40761610765E+02 -0.18433008246E+03 -0.53180373081E+02  0.25630497517E+03  0.16500000000E+03 0.  0.
   -5000001    1    1    2    0    0  0.40761610765E+02  0.18433008246E+03 -0.22503462061E+03  0.33690453943E+03  0.16500000000E+03 0.  0.
<mgrwt>
<rscale>  0 0.52392170E+03</rscale>
<asrwt>0</asrwt>
<pdfrwt beam="1">  1        2 0.62244607E-01 0.52392170E+03</pdfrwt>
<pdfrwt beam="2">  1       -2 0.22499609E-01 0.52392170E+03</pdfrwt>
<totfact> 0.13586918E+03</totfact>
</mgrwt>
</event>
<event>
 4    1  0.3584860E-005  0.7841946E+03  0.7818608E-02  0.9583181E-01
          2   -1    0    0  501    0  0.00000000000E+00  0.00000000000E+00  0.13386469162E+04  0.13386469162E+04  0.25500000000E-02 0.  1.
         -2   -1    0    0    0  501 -0.00000000000E+00 -0.00000000000E+00 -0.11484752639E+03  0.11484752642E+03  0.25500000000E-02 0. -1.
    5000001    1    1    2    0    0  0.13455483985E+03 -0.32256650569E+03  0.73430186819E+03  0.82980623591E+03  0.16500000000E+03 0.  0.
   -5000001    1    1    2    0    0 -0.13455483985E+03  0.32256650569E+03  0.48949752158E+03  0.62368820668E+03  0.16500000000E+03 0.  0.
<mgrwt>
<rscale>  0 0.78419459E+03</rscale>
<asrwt>0</asrwt>
<pdfrwt beam="1">  1        2 0.19123526E+00 0.78419459E+03</pdfrwt>
<pdfrwt beam="2">  1       -2 0.16406791E-01 0.78419459E+03</pdfrwt>
<totfact> 0.54062556E+02</totfact>
</mgrwt>
</event>
<event>
 4    1  0.3584860E-005  0.6058549E+03  0.7818608E-02  0.9893333E-01
         -2   -1    0    0    0  501 -0.00000000000E+00  0.00000000000E+00  0.15831035200E+03  0.15831035202E+03  0.25500000000E-02 0. -1.
          2   -1    0    0  501    0  0.00000000000E+00 -0.00000000000E+00 -0.57965273539E+03  0.57965273540E+03  0.25500000000E-02 0.  1.
    5000001    1    1    2    0    0  0.22295050331E+03  0.26661385063E+02 -0.35542111107E+03  0.45162697282E+03  0.16500000000E+03 0.  0.
   -5000001    1    1    2    0    0 -0.22295050331E+03 -0.26661385063E+02 -0.65921272319E+02  0.28633611460E+03  0.16500000000E+03 0.  0.
<mgrwt>
<rscale>  0 0.60585486E+03</rscale>
<asrwt>0</asrwt>
<pdfrwt beam="1">  1        2 0.82807533E-01 0.60585486E+03</pdfrwt>
<pdfrwt beam="2">  1       -2 0.22615765E-01 0.60585486E+03</pdfrwt>
<totfact> 0.97240278E+02</totfact>
</mgrwt>
</event>
<event>
 4    1  0.3584860E-005  0.7659489E+03  0.7818608E-02  0.9610656E-01
          2   -1    0    0  501    0  0.00000000000E+00  0.00000000000E+00  0.11328438755E+04  0.11328438755E+04  0.25500000000E-02 0.  1.
         -2   -1    0    0    0  501 -0.00000000000E+00 -0.00000000000E+00 -0.12947011567E+03  0.12947011570E+03  0.25500000000E-02 0. -1.
    5000001    1    1    2    0    0  0.10238885447E+03 -0.32409196088E+03  0.60494087154E+03  0.71323035177E+03  0.16500000000E+03 0.  0.
   -5000001    1    1    2    0    0 -0.10238885447E+03  0.32409196088E+03  0.39843288833E+03  0.54908363947E+03  0.16500000000E+03 0.  0.
<mgrwt>
<rscale>  0 0.76594890E+03</rscale>
<asrwt>0</asrwt>
<pdfrwt beam="1">  1        2 0.16183484E+00 0.76594890E+03</pdfrwt>
<pdfrwt beam="2">  1       -2 0.18495731E-01 0.76594890E+03</pdfrwt>
<totfact> 0.57399995E+02</totfact>
</mgrwt>
</event>
<event>
 4    1  0.3584860E-005  0.4500322E+03  0.7818608E-02  0.1027712E+00
         -2   -1    0    0    0  501 -0.00000000000E+00  0.00000000000E+00  0.14002028920E+04  0.14002028920E+04  0.25500000000E-02 0. -1.
          2   -1    0    0  501    0  0.00000000000E+00 -0.00000000000E+00 -0.36160649439E+02  0.36160649529E+02  0.25500000000E-02 0.  1.
    5000001    1    1    2    0    0 -0.10891354826E+03 -0.71223008103E+02  0.42524632941E+03  0.47433566021E+03  0.16500000000E+03 0.  0.
   -5000001    1    1    2    0    0  0.10891354826E+03  0.71223008103E+02  0.93879591316E+03  0.96202788132E+03  0.16500000000E+03 0.  0.
<mgrwt>
<rscale>  0 0.45003220E+03</rscale>
<asrwt>0</asrwt>
<pdfrwt beam="1">  1        2 0.51658094E-02 0.45003220E+03</pdfrwt>
<pdfrwt beam="2">  1       -2 0.20002890E+00 0.45003220E+03</pdfrwt>
<totfact> 0.21639272E+02</totfact>
</mgrwt>
</event>
<event>
 4    1  0.3584860E-005  0.7230059E+03  0.7818608E-02  0.9678678E-01
         -2   -1    0    0    0  501 -0.00000000000E+00  0.00000000000E+00  0.14014188950E+03  0.14014188952E+03  0.25500000000E-02 0.  1.
          2   -1    0    0  501    0  0.00000000000E+00 -0.00000000000E+00 -0.93251480122E+03  0.93251480122E+03  0.25500000000E-02 0. -1.
    5000001    1    1    2    0    0 -0.31717584833E+02 -0.20490371674E+03 -0.31364342202E+02  0.26683376900E+03  0.16500000000E+03 0.  0.
   -5000001    1    1    2    0    0  0.31717584833E+02  0.20490371674E+03 -0.76100856952E+03  0.80582292174E+03  0.16500000000E+03 0.  0.
<mgrwt>
<rscale>  0 0.72300591E+03</rscale>
<asrwt>0</asrwt>
<pdfrwt beam="1">  1        2 0.13321640E+00 0.72300591E+03</pdfrwt>
<pdfrwt beam="2">  1       -2 0.20020270E-01 0.72300591E+03</pdfrwt>
<totfact> 0.66221605E+02</totfact>
</mgrwt>
</event>
<event>
 4    1  0.3584860E-005  0.6412643E+03  0.7818608E-02  0.9823311E-01
         -2   -1    0    0    0  501 -0.00000000000E+00  0.00000000000E+00  0.49798710273E+02  0.49798710339E+02  0.25500000000E-02 0. -1.
          2   -1    0    0  501    0  0.00000000000E+00 -0.00000000000E+00 -0.20644104982E+04  0.20644104982E+04  0.25500000000E-02 0.  1.
    5000001    1    1    2    0    0  0.91192524965E+02 -0.24481135408E+03 -0.12895998117E+04  0.13261000528E+04  0.16500000000E+03 0.  0.
   -5000001    1    1    2    0    0 -0.91192524965E+02  0.24481135408E+03 -0.72501197625E+03  0.78810915577E+03  0.16500000000E+03 0.  0.
<mgrwt>
<rscale>  0 0.64126431E+03</rscale>
<asrwt>0</asrwt>
<pdfrwt beam="1">  1        2 0.29491573E+00 0.64126431E+03</pdfrwt>
<pdfrwt beam="2">  1       -2 0.71141028E-02 0.64126431E+03</pdfrwt>
<totfact> 0.90617556E+02</totfact>
</mgrwt>
</event>
<event>
 4    1  0.3584860E-005  0.6383087E+03  0.7818608E-02  0.9828968E-01
          2   -1    0    0  501    0  0.00000000000E+00  0.00000000000E+00  0.54836811295E+03  0.54836811295E+03  0.25500000000E-02 0.  1.
         -2   -1    0    0    0  501 -0.00000000000E+00 -0.00000000000E+00 -0.18575024057E+03  0.18575024059E+03  0.25500000000E-02 0. -1.
    5000001    1    1    2    0    0 -0.23995215209E+01  0.22032894104E+03  0.36705586211E+03  0.45880889908E+03  0.16500000000E+03 0.  0.
   -5000001    1    1    2    0    0  0.23995215209E+01 -0.22032894104E+03 -0.44379897300E+01  0.27530945447E+03  0.16500000000E+03 0.  0.
<mgrwt>
<rscale>  0 0.63830873E+03</rscale>
<asrwt>0</asrwt>
<pdfrwt beam="1">  1        2 0.78338302E-01 0.63830873E+03</pdfrwt>
<pdfrwt beam="2">  1       -2 0.26535748E-01 0.63830873E+03</pdfrwt>
<totfact> 0.77850742E+02</totfact>
</mgrwt>
</event>
<event>
 4    1  0.3584860E-005  0.4533915E+03  0.7818608E-02  0.1026715E+00
          2   -1    0    0  501    0  0.00000000000E+00  0.00000000000E+00  0.15708178063E+04  0.15708178063E+04  0.25500000000E-02 0.  1.
         -2   -1    0    0    0  501 -0.00000000000E+00 -0.00000000000E+00 -0.32716057291E+02  0.32716057390E+02  0.25500000000E-02 0. -1.
    5000001    1    1    2    0    0 -0.97670084513E+02  0.11267926522E+03  0.61367896046E+03  0.65273496055E+03  0.16500000000E+03 0.  0.
   -5000001    1    1    2    0    0  0.97670084513E+02 -0.11267926522E+03  0.92442278857E+03  0.95079890316E+03  0.16500000000E+03 0.  0.
<mgrwt>
<rscale>  0 0.45339151E+03</rscale>
<asrwt>0</asrwt>
<pdfrwt beam="1">  1        2 0.22440258E+00 0.45339151E+03</pdfrwt>
<pdfrwt beam="2">  1       -2 0.46737218E-02 0.45339151E+03</pdfrwt>
<totfact> 0.31174987E+03</totfact>
</mgrwt>
</event>
<event>
 4    1  0.3584860E-005  0.6818773E+03  0.7818608E-02  0.9748736E-01
          2   -1    0    0  501    0  0.00000000000E+00  0.00000000000E+00  0.12651371745E+04  0.12651371745E+04  0.25500000000E-02 0.  1.
         -2   -1    0    0    0  501 -0.00000000000E+00 -0.00000000000E+00 -0.91878691925E+02  0.91878691960E+02  0.25500000000E-02 0. -1.
    5000001    1    1    2    0    0 -0.28584403536E+03 -0.75910150649E+02  0.66485339658E+03  0.74613953284E+03  0.16500000000E+03 0.  0.
   -5000001    1    1    2    0    0  0.28584403536E+03  0.75910150649E+02  0.50840508603E+03  0.61087633366E+03  0.16500000000E+03 0.  0.
<mgrwt>
<rscale>  0 0.68187726E+03</rscale>
<asrwt>0</asrwt>
<pdfrwt beam="1">  1        2 0.18073387E+00 0.68187726E+03</pdfrwt>
<pdfrwt beam="2">  1       -2 0.13125529E-01 0.68187726E+03</pdfrwt>
<totfact> 0.86779857E+02</totfact>
</mgrwt>
</event>
<event>
 4    1  0.3584860E-005  0.5321157E+03  0.7818608E-02  0.1005720E+00
         -2   -1    0    0    0  501 -0.00000000000E+00  0.00000000000E+00  0.40370006148E+02  0.40370006229E+02  0.25500000000E-02 0. -1.
          2   -1    0    0  501    0  0.00000000000E+00 -0.00000000000E+00 -0.17534496199E+04  0.17534496199E+04  0.25500000000E-02 0.  1.
    5000001    1    1    2    0    0  0.75297075219E+02 -0.18371868706E+03 -0.63964450087E+03  0.68977698788E+03  0.16500000000E+03 0.  0.
   -5000001    1    1    2    0    0 -0.75297075219E+02  0.18371868706E+03 -0.10734351129E+04  0.11040426383E+04  0.16500000000E+03 0.  0.
<mgrwt>
<rscale>  0 0.53211567E+03</rscale>
<asrwt>0</asrwt>
<pdfrwt beam="1">  1        2 0.25049276E+00 0.53211567E+03</pdfrwt>
<pdfrwt beam="2">  1       -2 0.57671448E-02 0.53211567E+03</pdfrwt>
<totfact> 0.18160669E+03</totfact>
</mgrwt>
</event>
<event>
 4    1  0.3584860E-005  0.5226045E+03  0.7818608E-02  0.1008042E+00
          2   -1    0    0  501    0  0.00000000000E+00  0.00000000000E+00  0.14518058012E+04  0.14518058012E+04  0.25500000000E-02 0.  1.
         -2   -1    0    0    0  501 -0.00000000000E+00 -0.00000000000E+00 -0.47030301112E+02  0.47030301181E+02  0.25500000000E-02 0. -1.
    5000001    1    1    2    0    0  0.85154415813E+02  0.15595547243E+03  0.98163967291E+03  0.10111453067E+04  0.16500000000E+03 0.  0.
   -5000001    1    1    2    0    0 -0.85154415813E+02 -0.15595547243E+03  0.42313582719E+03  0.48769079565E+03  0.16500000000E+03 0.  0.
<mgrwt>
<rscale>  0 0.52260449E+03</rscale>
<asrwt>0</asrwt>
<pdfrwt beam="1">  1        2 0.20740082E+00 0.52260449E+03</pdfrwt>
<pdfrwt beam="2">  1       -2 0.67186148E-02 0.52260449E+03</pdfrwt>
<totfact> 0.20415123E+03</totfact>
</mgrwt>
</event>
<event>
 4    1  0.3584860E-005  0.5345175E+03  0.7818608E-02  0.1005142E+00
         -2   -1    0    0    0  501 -0.00000000000E+00  0.00000000000E+00  0.41288305626E+03  0.41288305627E+03  0.25500000000E-02 0. -1.
          2   -1    0    0  501    0  0.00000000000E+00 -0.00000000000E+00 -0.17299630367E+03  0.17299630369E+03  0.25500000000E-02 0.  1.
    5000001    1    1    2    0    0 -0.77695522498E+02 -0.18910149628E+03  0.66176022558E+02  0.27092477936E+03  0.16500000000E+03 0.  0.
   -5000001    1    1    2    0    0  0.77695522498E+02  0.18910149628E+03  0.17371073003E+03  0.31495458060E+03  0.16500000000E+03 0.  0.
<mgrwt>
<rscale>  0 0.53451751E+03</rscale>
<asrwt>0</asrwt>
<pdfrwt beam="1">  1        2 0.24713758E-01 0.53451751E+03</pdfrwt>
<pdfrwt beam="2">  1       -2 0.58983292E-01 0.53451751E+03</pdfrwt>
<totfact> 0.60055359E+02</totfact>
</mgrwt>
</event>
<event>
 4    1  0.3584860E-005  0.4890599E+03  0.7818608E-02  0.1016675E+00
          2   -1    0    0  501    0  0.00000000000E+00  0.00000000000E+00  0.29288198681E+04  0.29288198681E+04  0.25500000000E-02 0.  1.
         -2   -1    0    0    0  501 -0.00000000000E+00 -0.00000000000E+00 -0.20416036556E+02  0.20416036715E+02  0.25500000000E-02 0. -1.
    5000001    1    1    2    0    0  0.15105721453E+03  0.98708622648E+02  0.14369129205E+04  0.14575683227E+04  0.16500000000E+03 0.  0.
   -5000001    1    1    2    0    0 -0.15105721453E+03 -0.98708622648E+02  0.14714909111E+04  0.14916675821E+04  0.16500000000E+03 0.  0.
<mgrwt>
<rscale>  0 0.48905989E+03</rscale>
<asrwt>0</asrwt>
<pdfrwt beam="1">  1        2 0.41840227E+00 0.48905989E+03</pdfrwt>
<pdfrwt beam="2">  1       -2 0.29165806E-02 0.48905989E+03</pdfrwt>
<totfact> 0.13043335E+03</totfact>
</mgrwt>
</event>
<event>
 4    1  0.3584860E-005  0.3807062E+03  0.7818608E-02  0.1050673E+00
          2   -1    0    0  501    0  0.00000000000E+00  0.00000000000E+00  0.82566782262E+03  0.82566782263E+03  0.25500000000E-02 0.  1.
         -2   -1    0    0    0  501 -0.00000000000E+00 -0.00000000000E+00 -0.43884836321E+02  0.43884836395E+02  0.25500000000E-02 0. -1.
    5000001    1    1    2    0    0  0.39132861953E+02 -0.83157259586E+02  0.44507633825E+03  0.48349194158E+03  0.16500000000E+03 0.  0.
   -5000001    1    1    2    0    0 -0.39132861953E+02  0.83157259586E+02  0.33670664806E+03  0.38606071744E+03  0.16500000000E+03 0.  0.
<mgrwt>
<rscale>  0 0.38070617E+03</rscale>
<asrwt>0</asrwt>
<pdfrwt beam="1">  1        2 0.11795255E+00 0.38070617E+03</pdfrwt>
<pdfrwt beam="2">  1       -2 0.62692624E-02 0.38070617E+03</pdfrwt>
<totfact> 0.52122573E+03</totfact>
</mgrwt>
</event>
<event>
 4    1  0.3584860E-005  0.3872465E+03  0.7818608E-02  0.1048287E+00
          2   -1    0    0  501    0  0.00000000000E+00  0.00000000000E+00  0.63888181703E+03  0.63888181703E+03  0.25500000000E-02 0.  1.
         -2   -1    0    0    0  501 -0.00000000000E+00 -0.00000000000E+00 -0.58680605399E+02  0.58680605455E+02  0.25500000000E-02 0. -1.
    5000001    1    1    2    0    0  0.28033905275E+02  0.84141429685E+02  0.20186638428E+03  0.27539193368E+03  0.16500000000E+03 0.  0.
   -5000001    1    1    2    0    0 -0.28033905275E+02 -0.84141429685E+02  0.37833482735E+03  0.42217048880E+03  0.16500000000E+03 0.  0.
<mgrwt>
<rscale>  0 0.38724655E+03</rscale>
<asrwt>0</asrwt>
<pdfrwt beam="1">  1        2 0.91268838E-01 0.38724655E+03</pdfrwt>
<pdfrwt beam="2">  1       -2 0.83829430E-02 0.38724655E+03</pdfrwt>
<totfact> 0.45208767E+03</totfact>
</mgrwt>
</event>
<event>
 4    1  0.3584860E-005  0.5476296E+03  0.7818608E-02  0.1002044E+00
          2   -1    0    0  501    0  0.00000000000E+00  0.00000000000E+00  0.58200153218E+03  0.58200153218E+03  0.25500000000E-02 0.  1.
         -2   -1    0    0    0  501 -0.00000000000E+00 -0.00000000000E+00 -0.12882190031E+03  0.12882190034E+03  0.25500000000E-02 0. -1.
    5000001    1    1    2    0    0  0.20540544467E+03  0.69383218996E+02  0.19118233512E+03  0.33283796814E+03  0.16500000000E+03 0.  0.
   -5000001    1    1    2    0    0 -0.20540544467E+03 -0.69383218996E+02  0.26199729675E+03  0.37798546438E+03  0.16500000000E+03 0.  0.
<mgrwt>
<rscale>  0 0.54762960E+03</rscale>
<asrwt>0</asrwt>
<pdfrwt beam="1">  1        2 0.83143077E-01 0.54762960E+03</pdfrwt>
<pdfrwt beam="2">  1       -2 0.18403128E-01 0.54762960E+03</pdfrwt>
<totfact> 0.13874401E+03</totfact>
</mgrwt>
</event>
<event>
 4    1  0.3584860E-005  0.3589062E+03  0.7818608E-02  0.1059018E+00
         -2   -1    0    0    0  501 -0.00000000000E+00  0.00000000000E+00  0.50914168587E+03  0.50914168588E+03  0.25500000000E-02 0. -1.
          2   -1    0    0  501    0  0.00000000000E+00 -0.00000000000E+00 -0.63250396149E+02  0.63250396201E+02  0.25500000000E-02 0.  1.
    5000001    1    1    2    0    0  0.84610871346E+01  0.70002748749E+02  0.22699238733E+03  0.28934843827E+03  0.16500000000E+03 0.  0.
   -5000001    1    1    2    0    0 -0.84610871346E+01 -0.70002748749E+02  0.21889890240E+03  0.28304364381E+03  0.16500000000E+03 0.  0.
<mgrwt>
<rscale>  0 0.35890619E+03</rscale>
<asrwt>0</asrwt>
<pdfrwt beam="1">  1        2 0.90357706E-02 0.35890619E+03</pdfrwt>
<pdfrwt beam="2">  1       -2 0.72734529E-01 0.35890619E+03</pdfrwt>
<totfact> 0.12866288E+03</totfact>
</mgrwt>
</event>
<event>
 4    1  0.3584860E-005  0.4802772E+03  0.7818608E-02  0.1019059E+00
         -2   -1    0    0    0  501 -0.00000000000E+00  0.00000000000E+00  0.21165218555E+03  0.21165218557E+03  0.25500000000E-02 0. -1.
          2   -1    0    0  501    0  0.00000000000E+00 -0.00000000000E+00 -0.27245906249E+03  0.27245906250E+03  0.25500000000E-02 0.  1.
    5000001    1    1    2    0    0 -0.14800808040E+03  0.61035240002E+02  0.39503382591E+02  0.23327496570E+03  0.16500000000E+03 0.  0.
   -5000001    1    1    2    0    0  0.14800808040E+03 -0.61035240002E+02 -0.10031025953E+03  0.25083628237E+03  0.16500000000E+03 0.  0.
<mgrwt>
<rscale>  0 0.48027724E+03</rscale>
<asrwt>0</asrwt>
<pdfrwt beam="1">  1        2 0.38922723E-01 0.48027724E+03</pdfrwt>
<pdfrwt beam="2">  1       -2 0.30236026E-01 0.48027724E+03</pdfrwt>
<totfact> 0.13379292E+03</totfact>
</mgrwt>
</event>
<event>
 4    1  0.3584860E-005  0.4355581E+03  0.7818608E-02  0.1032118E+00
         -2   -1    0    0    0  501 -0.00000000000E+00  0.00000000000E+00  0.16875200494E+03  0.16875200496E+03  0.25500000000E-02 0. -1.
          2   -1    0    0  501    0  0.00000000000E+00 -0.00000000000E+00 -0.28104979212E+03  0.28104979213E+03  0.25500000000E-02 0.  1.
    5000001    1    1    2    0    0  0.24777745611E+02 -0.12199867357E+03 -0.12698581003E+03  0.24258608571E+03  0.16500000000E+03 0.  0.
   -5000001    1    1    2    0    0 -0.24777745611E+02  0.12199867357E+03  0.14688022849E+02  0.20721571139E+03  0.16500000000E+03 0.  0.
<mgrwt>
<rscale>  0 0.43555811E+03</rscale>
<asrwt>0</asrwt>
<pdfrwt beam="1">  1        2 0.40149970E-01 0.43555811E+03</pdfrwt>
<pdfrwt beam="2">  1       -2 0.24107429E-01 0.43555811E+03</pdfrwt>
<totfact> 0.19454947E+03</totfact>
</mgrwt>
</event>
<event>
 4    1  0.3584860E-005  0.7565812E+03  0.7818608E-02  0.9625082E-01
         -2   -1    0    0    0  501 -0.00000000000E+00  0.00000000000E+00  0.70380670380E+02  0.70380670426E+02  0.25500000000E-02 0. -1.
          2   -1    0    0  501    0  0.00000000000E+00 -0.00000000000E+00 -0.20332824520E+04  0.20332824520E+04  0.25500000000E-02 0.  1.
    5000001    1    1    2    0    0  0.22295007199E+03 -0.19057704863E+03 -0.50104255957E+03  0.60356854836E+03  0.16500000000E+03 0.  0.
   -5000001    1    1    2    0    0 -0.22295007199E+03  0.19057704863E+03 -0.14618592221E+04  0.15000945741E+04  0.16500000000E+03 0.  0.
<mgrwt>
<rscale>  0 0.75658121E+03</rscale>
<asrwt>0</asrwt>
<pdfrwt beam="1">  1        2 0.29046889E+00 0.75658121E+03</pdfrwt>
<pdfrwt beam="2">  1       -2 0.10054383E-01 0.75658121E+03</pdfrwt>
<totfact> 0.53529559E+02</totfact>
</mgrwt>
</event>
<event>
 4    1  0.3584860E-005  0.5329161E+03  0.7818608E-02  0.1005527E+00
         -2   -1    0    0    0  501 -0.00000000000E+00  0.00000000000E+00  0.29091230762E+02  0.29091230873E+02  0.25500000000E-02 0. -1.
          2   -1    0    0  501    0  0.00000000000E+00 -0.00000000000E+00 -0.24405944627E+04  0.24405944627E+04  0.25500000000E-02 0.  1.
    5000001    1    1    2    0    0  0.49447720313E+02 -0.17609007714E+03 -0.16765846850E+04  0.16945837242E+04  0.16500000000E+03 0.  0.
   -5000001    1    1    2    0    0 -0.49447720313E+02  0.17609007714E+03 -0.73491854697E+03  0.77510196942E+03  0.16500000000E+03 0.  0.
<mgrwt>
<rscale>  0 0.53291612E+03</rscale>
<asrwt>0</asrwt>
<pdfrwt beam="1">  1        2 0.34865622E+00 0.53291612E+03</pdfrwt>
<pdfrwt beam="2">  1       -2 0.41558916E-02 0.53291612E+03</pdfrwt>
<totfact> 0.13610920E+03</totfact>
</mgrwt>
</event>
<event>
 4    1  0.3584860E-005  0.4376300E+03  0.7818608E-02  0.1031476E+00
         -2   -1    0    0    0  501 -0.00000000000E+00  0.00000000000E+00  0.21682079441E+02  0.21682079591E+02  0.25500000000E-02 0.  1.
          2   -1    0    0  501    0  0.00000000000E+00 -0.00000000000E+00 -0.22082757469E+04  0.22082757469E+04  0.25500000000E-02 0. -1.
    5000001    1    1    2    0    0  0.13458353736E+03 -0.23317335109E+02 -0.86549841425E+03  0.89161030260E+03  0.16500000000E+03 0.  0.
   -5000001    1    1    2    0    0 -0.13458353736E+03  0.23317335109E+02 -0.13210952532E+04  0.13383475239E+04  0.16500000000E+03 0.  0.
<mgrwt>
<rscale>  0 0.43763003E+03</rscale>
<asrwt>0</asrwt>
<pdfrwt beam="1">  1        2 0.31546782E+00 0.43763003E+03</pdfrwt>
<pdfrwt beam="2">  1       -2 0.30974413E-02 0.43763003E+03</pdfrwt>
<totfact> 0.28012139E+03</totfact>
</mgrwt>
</event>
<event>
 4    1  0.3584860E-005  0.4746363E+03  0.7818608E-02  0.1020620E+00
          2   -1    0    0  501    0  0.00000000000E+00  0.00000000000E+00  0.14081354844E+03  0.14081354846E+03  0.25500000000E-02 0.  1.
         -2   -1    0    0    0  501 -0.00000000000E+00 -0.00000000000E+00 -0.39996079519E+03  0.39996079520E+03  0.25500000000E-02 0. -1.
    5000001    1    1    2    0    0 -0.42231386380E+02  0.15216238373E+03 -0.20304164111E+03  0.30559415741E+03  0.16500000000E+03 0.  0.
   -5000001    1    1    2    0    0  0.42231386380E+02 -0.15216238373E+03 -0.56105605638E+02  0.23518018625E+03  0.16500000000E+03 0.  0.
<mgrwt>
<rscale>  0 0.47463628E+03</rscale>
<asrwt>0</asrwt>
<pdfrwt beam="1">  1        2 0.20116221E-01 0.47463628E+03</pdfrwt>
<pdfrwt beam="2">  1       -2 0.57137256E-01 0.47463628E+03</pdfrwt>
<totfact> 0.81351681E+02</totfact>
</mgrwt>
</event>
<event>
 4    1  0.3584860E-005  0.5240641E+03  0.7818608E-02  0.1007682E+00
         -2   -1    0    0    0  501 -0.00000000000E+00  0.00000000000E+00  0.27576433760E+02  0.27576433878E+02  0.25500000000E-02 0. -1.
          2   -1    0    0  501    0  0.00000000000E+00 -0.00000000000E+00 -0.24898359941E+04  0.24898359941E+04  0.25500000000E-02 0.  1.
    5000001    1    1    2    0    0  0.84180792266E+01 -0.19190382602E+03 -0.90753965315E+03  0.94220547894E+03  0.16500000000E+03 0.  0.
   -5000001    1    1    2    0    0 -0.84180792266E+01  0.19190382602E+03 -0.15547199072E+04  0.15752069490E+04  0.16500000000E+03 0.  0.
<mgrwt>
<rscale>  0 0.52406411E+03</rscale>
<asrwt>0</asrwt>
<pdfrwt beam="1">  1        2 0.35569071E+00 0.52406411E+03</pdfrwt>
<pdfrwt beam="2">  1       -2 0.39394921E-02 0.52406411E+03</pdfrwt>
<totfact> 0.13952083E+03</totfact>
</mgrwt>
</event>
<event>
 4    1  0.3584860E-005  0.4768128E+03  0.7818608E-02  0.1020015E+00
         -2   -1    0    0    0  501 -0.00000000000E+00  0.00000000000E+00  0.53222085806E+02  0.53222085867E+02  0.25500000000E-02 0. -1.
          2   -1    0    0  501    0  0.00000000000E+00 -0.00000000000E+00 -0.10679327433E+04  0.10679327433E+04  0.25500000000E-02 0.  1.
    5000001    1    1    2    0    0 -0.97805066042E+01  0.15922401565E+03 -0.65909796127E+03  0.69791336713E+03  0.16500000000E+03 0.  0.
   -5000001    1    1    2    0    0  0.97805066042E+01 -0.15922401565E+03 -0.35561269621E+03  0.42324146202E+03  0.16500000000E+03 0.  0.
<mgrwt>
<rscale>  0 0.47681279E+03</rscale>
<asrwt>0</asrwt>
<pdfrwt beam="1">  1        2 0.15256181E+00 0.47681279E+03</pdfrwt>
<pdfrwt beam="2">  1       -2 0.76031558E-02 0.47681279E+03</pdfrwt>
<totfact> 0.27301334E+03</totfact>
</mgrwt>
</event>
<event>
 4    1  0.3584860E-005  0.7030129E+03  0.7818608E-02  0.9712094E-01
          2   -1    0    0  501    0  0.00000000000E+00  0.00000000000E+00  0.61109427665E+03  0.61109427666E+03  0.25500000000E-02 0.  1.
         -2   -1    0    0    0  501 -0.00000000000E+00 -0.00000000000E+00 -0.20218939021E+03  0.20218939023E+03  0.25500000000E-02 0. -1.
    5000001    1    1    2    0    0  0.27374152982E+03  0.61108533425E+02  0.35820142334E+03  0.48394414728E+03  0.16500000000E+03 0.  0.
   -5000001    1    1    2    0    0 -0.27374152982E+03 -0.61108533425E+02  0.50703463101E+02  0.32933951961E+03  0.16500000000E+03 0.  0.
<mgrwt>
<rscale>  0 0.70301289E+03</rscale>
<asrwt>0</asrwt>
<pdfrwt beam="1">  1        2 0.87299182E-01 0.70301289E+03</pdfrwt>
<pdfrwt beam="2">  1       -2 0.28884199E-01 0.70301289E+03</pdfrwt>
<totfact> 0.58641511E+02</totfact>
</mgrwt>
</event>
<event>
 4    1  0.3584860E-005  0.7422202E+03  0.7818608E-02  0.9647635E-01
         -2   -1    0    0    0  501 -0.00000000000E+00  0.00000000000E+00  0.10964373012E+03  0.10964373015E+03  0.25500000000E-02 0. -1.
          2   -1    0    0  501    0  0.00000000000E+00 -0.00000000000E+00 -0.12560929085E+04  0.12560929085E+04  0.25500000000E-02 0.  1.
    5000001    1    1    2    0    0 -0.30750687062E+03 -0.74081603638E+02 -0.38513068810E+03  0.52497543408E+03  0.16500000000E+03 0.  0.
   -5000001    1    1    2    0    0  0.30750687062E+03  0.74081603638E+02 -0.76131849026E+03  0.84076120455E+03  0.16500000000E+03 0.  0.
<mgrwt>
<rscale>  0 0.74222022E+03</rscale>
<asrwt>0</asrwt>
<pdfrwt beam="1">  1        2 0.17944184E+00 0.74222022E+03</pdfrwt>
<pdfrwt beam="2">  1       -2 0.15663391E-01 0.74222022E+03</pdfrwt>
<totfact> 0.65060059E+02</totfact>
</mgrwt>
</event>
<event>
 4    1  0.3584860E-005  0.1020546E+04  0.7818608E-02  0.9286293E-01
          2   -1    0    0  501    0  0.00000000000E+00  0.00000000000E+00  0.13475623870E+04  0.13475623870E+04  0.25500000000E-02 0.  1.
         -2   -1    0    0    0  501 -0.00000000000E+00 -0.00000000000E+00 -0.19322181765E+03  0.19322181767E+03  0.25500000000E-02 0. -1.
    5000001    1    1    2    0    0 -0.37519660154E+03 -0.15919463169E+03  0.96807412084E+03  0.10632534618E+04  0.16500000000E+03 0.  0.
   -5000001    1    1    2    0    0  0.37519660154E+03  0.15919463169E+03  0.18626644853E+03  0.47753074290E+03  0.16500000000E+03 0.  0.
<mgrwt>
<rscale>  0 0.10205458E+04</rscale>
<asrwt>0</asrwt>
<pdfrwt beam="1">  1        2 0.19250891E+00 0.10205458E+04</pdfrwt>
<pdfrwt beam="2">  1       -2 0.27603117E-01 0.10205458E+04</pdfrwt>
<totfact> 0.21038021E+02</totfact>
</mgrwt>
</event>
<event>
 4    1  0.3584860E-005  0.1046096E+04  0.7818608E-02  0.9259384E-01
         -2   -1    0    0    0  501 -0.00000000000E+00  0.00000000000E+00  0.31845161675E+03  0.31845161676E+03  0.25500000000E-02 0. -1.
          2   -1    0    0  501    0  0.00000000000E+00 -0.00000000000E+00 -0.85909164795E+03  0.85909164795E+03  0.25500000000E-02 0.  1.
    5000001    1    1    2    0    0 -0.48236766435E+03 -0.11693631829E+03 -0.27167925591E+03  0.58939569411E+03  0.16500000000E+03 0.  0.
   -5000001    1    1    2    0    0  0.48236766435E+03  0.11693631829E+03 -0.26896077529E+03  0.58814757059E+03  0.16500000000E+03 0.  0.
<mgrwt>
<rscale>  0 0.10460958E+04</rscale>
<asrwt>0</asrwt>
<pdfrwt beam="1">  1        2 0.12272738E+00 0.10460958E+04</pdfrwt>
<pdfrwt beam="2">  1       -2 0.45493088E-01 0.10460958E+04</pdfrwt>
<totfact> 0.15785172E+02</totfact>
</mgrwt>
</event>
<event>
 4    1  0.3584860E-005  0.6494961E+03  0.7818608E-02  0.9807725E-01
          2   -1    0    0  501    0  0.00000000000E+00  0.00000000000E+00  0.13978594689E+04  0.13978594689E+04  0.25500000000E-02 0.  1.
         -2   -1    0    0    0  501 -0.00000000000E+00 -0.00000000000E+00 -0.75444851669E+02  0.75444851712E+02  0.25500000000E-02 0. -1.
    5000001    1    1    2    0    0 -0.27589116491E+03 -0.11759530096E+02  0.76219684391E+03  0.82729876725E+03  0.16500000000E+03 0.  0.
   -5000001    1    1    2    0    0  0.27589116491E+03  0.11759530096E+02  0.56021777327E+03  0.64600555332E+03  0.16500000000E+03 0.  0.
<mgrwt>
<rscale>  0 0.64949611E+03</rscale>
<asrwt>0</asrwt>
<pdfrwt beam="1">  1        2 0.19969422E+00 0.64949611E+03</pdfrwt>
<pdfrwt beam="2">  1       -2 0.10777835E-01 0.64949611E+03</pdfrwt>
<totfact> 0.10189262E+03</totfact>
</mgrwt>
</event>
<event>
 4    1  0.3584860E-005  0.4700219E+03  0.7818608E-02  0.1021914E+00
         -2   -1    0    0    0  501 -0.00000000000E+00  0.00000000000E+00  0.14516302246E+03  0.14516302248E+03  0.25500000000E-02 0. -1.
          2   -1    0    0  501    0  0.00000000000E+00 -0.00000000000E+00 -0.38046985050E+03  0.38046985051E+03  0.25500000000E-02 0.  1.
    5000001    1    1    2    0    0 -0.14640631445E+03  0.79401487850E+02 -0.13588395798E+03  0.27097759173E+03  0.16500000000E+03 0.  0.
   -5000001    1    1    2    0    0  0.14640631445E+03 -0.79401487850E+02 -0.99422870060E+02  0.25465528126E+03  0.16500000000E+03 0.  0.
<mgrwt>
<rscale>  0 0.47002193E+03</rscale>
<asrwt>0</asrwt>
<pdfrwt beam="1">  1        2 0.54352835E-01 0.47002193E+03</pdfrwt>
<pdfrwt beam="2">  1       -2 0.20737575E-01 0.47002193E+03</pdfrwt>
<totfact> 0.18203105E+03</totfact>
</mgrwt>
</event>
<event>
 4    1  0.3584860E-005  0.1262725E+04  0.7818608E-02  0.9059659E-01
         -2   -1    0    0    0  501 -0.00000000000E+00  0.00000000000E+00  0.18779983752E+03  0.18779983754E+03  0.25500000000E-02 0. -1.
          2   -1    0    0  501    0  0.00000000000E+00 -0.00000000000E+00 -0.21225704962E+04  0.21225704962E+04  0.25500000000E-02 0.  1.
    5000001    1    1    2    0    0  0.56888533567E+03  0.53291472734E+02 -0.13551844061E+04  0.14799392828E+04  0.16500000000E+03 0.  0.
   -5000001    1    1    2    0    0 -0.56888533567E+03 -0.53291472734E+02 -0.57958625261E+03  0.83043105097E+03  0.16500000000E+03 0.  0.
<mgrwt>
<rscale>  0 0.12627247E+04</rscale>
<asrwt>0</asrwt>
<pdfrwt beam="1">  1        2 0.30322434E+00 0.12627247E+04</pdfrwt>
<pdfrwt beam="2">  1       -2 0.26828550E-01 0.12627247E+04</pdfrwt>
<totfact> 0.86053538E+01</totfact>
</mgrwt>
</event>
<event>
 4    1  0.3584860E-005  0.5897905E+03  0.7818608E-02  0.9926817E-01
          2   -1    0    0  501    0  0.00000000000E+00  0.00000000000E+00  0.78465289789E+03  0.78465289790E+03  0.25500000000E-02 0.  1.
         -2   -1    0    0    0  501 -0.00000000000E+00 -0.00000000000E+00 -0.11083015640E+03  0.11083015643E+03  0.25500000000E-02 0. -1.
    5000001    1    1    2    0    0  0.20028256533E+02  0.24101953401E+03  0.28330294821E+03  0.40740288082E+03  0.16500000000E+03 0.  0.
   -5000001    1    1    2    0    0 -0.20028256533E+02 -0.24101953401E+03  0.39051979328E+03  0.48808017351E+03  0.16500000000E+03 0.  0.
<mgrwt>
<rscale>  0 0.58979048E+03</rscale>
<asrwt>0</asrwt>
<pdfrwt beam="1">  1        2 0.11209327E+00 0.58979048E+03</pdfrwt>
<pdfrwt beam="2">  1       -2 0.15832879E-01 0.58979048E+03</pdfrwt>
<totfact> 0.12481318E+03</totfact>
</mgrwt>
</event>
<event>
 4    1  0.3584860E-005  0.4568590E+03  0.7818608E-02  0.1025696E+00
          2   -1    0    0  501    0  0.00000000000E+00  0.00000000000E+00  0.15409286434E+04  0.15409286434E+04  0.25500000000E-02 0.  1.
         -2   -1    0    0    0  501 -0.00000000000E+00 -0.00000000000E+00 -0.33862725440E+02  0.33862725536E+02  0.25500000000E-02 0. -1.
    5000001    1    1    2    0    0 -0.13214871785E+03  0.31931875139E+02  0.47622397705E+03  0.52201264792E+03  0.16500000000E+03 0.  0.
   -5000001    1    1    2    0    0  0.13214871785E+03 -0.31931875139E+02  0.10308419410E+04  0.10527787211E+04  0.16500000000E+03 0.  0.
<mgrwt>
<rscale>  0 0.45685903E+03</rscale>
<asrwt>0</asrwt>
<pdfrwt beam="1">  1        2 0.22013271E+00 0.45685903E+03</pdfrwt>
<pdfrwt beam="2">  1       -2 0.48375313E-02 0.45685903E+03</pdfrwt>
<totfact> 0.30624875E+03</totfact>
</mgrwt>
</event>
<event>
 4    1  0.3584860E-005  0.1528820E+04  0.7818608E-02  0.8865511E-01
         -2   -1    0    0    0  501 -0.00000000000E+00  0.00000000000E+00  0.27198511631E+03  0.27198511632E+03  0.25500000000E-02 0. -1.
          2   -1    0    0  501    0  0.00000000000E+00 -0.00000000000E+00 -0.21483617220E+04  0.21483617220E+04  0.25500000000E-02 0.  1.
    5000001    1    1    2    0    0 -0.67974723614E+03 -0.28731841578E+03 -0.11151133292E+04  0.13473347446E+04  0.16500000000E+03 0.  0.
   -5000001    1    1    2    0    0  0.67974723614E+03  0.28731841578E+03 -0.76126327644E+03  0.10730120937E+04  0.16500000000E+03 0.  0.
<mgrwt>
<rscale>  0 0.15288197E+04</rscale>
<asrwt>0</asrwt>
<pdfrwt beam="1">  1        2 0.30690881E+00 0.15288197E+04</pdfrwt>
<pdfrwt beam="2">  1       -2 0.38855018E-01 0.15288197E+04</pdfrwt>
<totfact> 0.40664271E+01</totfact>
</mgrwt>
</event>
<event>
 4    1  0.3584860E-005  0.6571728E+03  0.7818608E-02  0.9793412E-01
          2   -1    0    0  501    0  0.00000000000E+00  0.00000000000E+00  0.56909877992E+03  0.56909877992E+03  0.25500000000E-02 0.  1.
         -2   -1    0    0    0  501 -0.00000000000E+00 -0.00000000000E+00 -0.18971931561E+03  0.18971931562E+03  0.25500000000E-02 0. -1.
    5000001    1    1    2    0    0 -0.12315275801E+03  0.25416698038E+03  0.22577342320E+03  0.39744948653E+03  0.16500000000E+03 0.  0.
   -5000001    1    1    2    0    0  0.12315275801E+03 -0.25416698038E+03  0.15360604111E+03  0.36136860902E+03  0.16500000000E+03 0.  0.
<mgrwt>
<rscale>  0 0.65717283E+03</rscale>
<asrwt>0</asrwt>
<pdfrwt beam="1">  1        2 0.81299826E-01 0.65717283E+03</pdfrwt>
<pdfrwt beam="2">  1       -2 0.27102759E-01 0.65717283E+03</pdfrwt>
<totfact> 0.71727371E+02</totfact>
</mgrwt>
</event>
<event>
 4    1  0.3584860E-005  0.3642041E+03  0.7818608E-02  0.1056932E+00
          2   -1    0    0  501    0  0.00000000000E+00  0.00000000000E+00  0.13492248433E+04  0.13492248433E+04  0.25500000000E-02 0.  1.
         -2   -1    0    0    0  501 -0.00000000000E+00 -0.00000000000E+00 -0.24577933641E+02  0.24577933774E+02  0.25500000000E-02 0. -1.
    5000001    1    1    2    0    0 -0.32438053981E+02 -0.61392469976E+02  0.53637387230E+03  0.56545839246E+03  0.16500000000E+03 0.  0.
   -5000001    1    1    2    0    0  0.32438053981E+02  0.61392469976E+02  0.78827303734E+03  0.80834438460E+03  0.16500000000E+03 0.  0.
<mgrwt>
<rscale>  0 0.36420411E+03</rscale>
<asrwt>0</asrwt>
<pdfrwt beam="1">  1        2 0.19274638E+00 0.36420411E+03</pdfrwt>
<pdfrwt beam="2">  1       -2 0.35111338E-02 0.36420411E+03</pdfrwt>
<totfact> 0.62692142E+03</totfact>
</mgrwt>
</event>
<event>
 4    1  0.3584860E-005  0.3440375E+03  0.7818608E-02  0.1065089E+00
          2   -1    0    0  501    0  0.00000000000E+00  0.00000000000E+00  0.16050053632E+04  0.16050053632E+04  0.25500000000E-02 0.  1.
         -2   -1    0    0    0  501 -0.00000000000E+00 -0.00000000000E+00 -0.18436354846E+02  0.18436355022E+02  0.25500000000E-02 0. -1.
    5000001    1    1    2    0    0  0.36906322340E+02 -0.25836790551E+02  0.87975980551E+03  0.89623207473E+03  0.16500000000E+03 0.  0.
   -5000001    1    1    2    0    0 -0.36906322340E+02  0.25836790551E+02  0.70680920286E+03  0.72720964352E+03  0.16500000000E+03 0.  0.
<mgrwt>
<rscale>  0 0.34403749E+03</rscale>
<asrwt>0</asrwt>
<pdfrwt beam="1">  1        2 0.22928649E+00 0.34403749E+03</pdfrwt>
<pdfrwt beam="2">  1       -2 0.26337649E-02 0.34403749E+03</pdfrwt>
<totfact> 0.71286027E+03</totfact>
</mgrwt>
</event>
<event>
 4    1  0.3584860E-005  0.7481873E+03  0.7818608E-02  0.9638198E-01
          2   -1    0    0  501    0  0.00000000000E+00  0.00000000000E+00  0.91560807606E+03  0.91560807606E+03  0.25500000000E-02 0.  1.
         -2   -1    0    0    0  501 -0.00000000000E+00 -0.00000000000E+00 -0.15284495694E+03  0.15284495696E+03  0.25500000000E-02 0. -1.
    5000001    1    1    2    0    0  0.19849533980E+03 -0.25775496906E+03  0.49985899152E+03  0.61880694518E+03  0.16500000000E+03 0.  0.
   -5000001    1    1    2    0    0 -0.19849533980E+03  0.25775496906E+03  0.26290412761E+03  0.44964608784E+03  0.16500000000E+03 0.  0.
<mgrwt>
<rscale>  0 0.74818735E+03</rscale>
<asrwt>0</asrwt>
<pdfrwt beam="1">  1        2 0.13080116E+00 0.74818735E+03</pdfrwt>
<pdfrwt beam="2">  1       -2 0.21834994E-01 0.74818735E+03</pdfrwt>
<totfact> 0.58235520E+02</totfact>
</mgrwt>
</event>
<event>
 4    1  0.3584860E-005  0.6816712E+03  0.7818608E-02  0.9749101E-01
         -2   -1    0    0    0  501 -0.00000000000E+00  0.00000000000E+00  0.20390063515E+03  0.20390063516E+03  0.25500000000E-02 0. -1.
          2   -1    0    0  501    0  0.00000000000E+00 -0.00000000000E+00 -0.56973296181E+03  0.56973296181E+03  0.25500000000E-02 0.  1.
    5000001    1    1    2    0    0  0.13478700773E+02  0.27190160289E+03 -0.44700696075E+02  0.32145809876E+03  0.16500000000E+03 0.  0.
   -5000001    1    1    2    0    0 -0.13478700773E+02 -0.27190160289E+03 -0.32113163059E+03  0.45217549822E+03  0.16500000000E+03 0.  0.
<mgrwt>
<rscale>  0 0.68167122E+03</rscale>
<asrwt>0</asrwt>
<pdfrwt beam="1">  1        2 0.81390422E-01 0.68167122E+03</pdfrwt>
<pdfrwt beam="2">  1       -2 0.29128662E-01 0.68167122E+03</pdfrwt>
<totfact> 0.62738578E+02</totfact>
</mgrwt>
</event>
<event>
 4    1  0.3584860E-005  0.5652558E+03  0.7818608E-02  0.9980232E-01
         -2   -1    0    0    0  501 -0.00000000000E+00  0.00000000000E+00  0.29329795825E+02  0.29329795935E+02  0.25500000000E-02 0. -1.
          2   -1    0    0  501    0  0.00000000000E+00 -0.00000000000E+00 -0.27234604135E+04  0.27234604135E+04  0.25500000000E-02 0.  1.
    5000001    1    1    2    0    0  0.14371908858E+03  0.10522226381E+03 -0.20515600959E+04  0.20658777138E+04  0.16500000000E+03 0.  0.
   -5000001    1    1    2    0    0 -0.14371908858E+03 -0.10522226381E+03 -0.64257052171E+03  0.68691249559E+03  0.16500000000E+03 0.  0.
<mgrwt>
<rscale>  0 0.56525583E+03</rscale>
<asrwt>0</asrwt>
<pdfrwt beam="1">  1        2 0.38906561E+00 0.56525583E+03</pdfrwt>
<pdfrwt beam="2">  1       -2 0.41899726E-02 0.56525583E+03</pdfrwt>
<totfact> 0.95833510E+02</totfact>
</mgrwt>
</event>
<event>
 4    1  0.3584860E-005  0.3832100E+03  0.7818608E-02  0.1049754E+00
          2   -1    0    0  501    0  0.00000000000E+00  0.00000000000E+00  0.12796312529E+04  0.12796312529E+04  0.25500000000E-02 0.  1.
         -2   -1    0    0    0  501 -0.00000000000E+00 -0.00000000000E+00 -0.28689891675E+02  0.28689891788E+02  0.25500000000E-02 0. -1.
    5000001    1    1    2    0    0  0.37130292868E+02 -0.86278477815E+02  0.53743908302E+03  0.56998982652E+03  0.16500000000E+03 0.  0.
   -5000001    1    1    2    0    0 -0.37130292868E+02  0.86278477815E+02  0.71350227820E+03  0.73833131816E+03  0.16500000000E+03 0.  0.
<mgrwt>
<rscale>  0 0.38321003E+03</rscale>
<asrwt>0</asrwt>
<pdfrwt beam="1">  1        2 0.18280450E+00 0.38321003E+03</pdfrwt>
<pdfrwt beam="2">  1       -2 0.40985553E-02 0.38321003E+03</pdfrwt>
<totfact> 0.54042995E+03</totfact>
</mgrwt>
</event>
<event>
 4    1  0.3584860E-005  0.6022561E+03  0.7818608E-02  0.9900736E-01
         -2   -1    0    0    0  501 -0.00000000000E+00  0.00000000000E+00  0.63953432338E+02  0.63953432389E+02  0.25500000000E-02 0. -1.
          2   -1    0    0  501    0  0.00000000000E+00 -0.00000000000E+00 -0.14178769643E+04  0.14178769643E+04  0.25500000000E-02 0.  1.
    5000001    1    1    2    0    0 -0.20740056396E+03  0.51082290337E+02 -0.10054933981E+04  0.10410890298E+04  0.16500000000E+03 0.  0.
   -5000001    1    1    2    0    0  0.20740056396E+03 -0.51082290337E+02 -0.34843013384E+03  0.44074136688E+03  0.16500000000E+03 0.  0.
<mgrwt>
<rscale>  0 0.60225609E+03</rscale>
<asrwt>0</asrwt>
<pdfrwt beam="1">  1        2 0.20255383E+00 0.60225609E+03</pdfrwt>
<pdfrwt beam="2">  1       -2 0.91362055E-02 0.60225609E+03</pdfrwt>
<totfact> 0.13020107E+03</totfact>
</mgrwt>
</event>
<event>
 4    1  0.3584860E-005  0.6405882E+03  0.7818608E-02  0.9824602E-01
         -2   -1    0    0    0  501 -0.00000000000E+00  0.00000000000E+00  0.81610243565E+03  0.81610243566E+03  0.25500000000E-02 0. -1.
          2   -1    0    0  501    0  0.00000000000E+00 -0.00000000000E+00 -0.12570519181E+03  0.12570519183E+03  0.25500000000E-02 0.  1.
    5000001    1    1    2    0    0  0.24085332874E+02 -0.27338710949E+03  0.33559160153E+03  0.46386133479E+03  0.16500000000E+03 0.  0.
   -5000001    1    1    2    0    0 -0.24085332874E+02  0.27338710949E+03  0.35480564231E+03  0.47794629270E+03  0.16500000000E+03 0.  0.
<mgrwt>
<rscale>  0 0.64058821E+03</rscale>
<asrwt>0</asrwt>
<pdfrwt beam="1">  1        2 0.17957885E-01 0.64058821E+03</pdfrwt>
<pdfrwt beam="2">  1       -2 0.11658606E+00 0.64058821E+03</pdfrwt>
<totfact> 0.18632650E+02</totfact>
</mgrwt>
</event>
<event>
 4    1  0.3584860E-005  0.4648984E+03  0.7818608E-02  0.1023370E+00
         -2   -1    0    0    0  501 -0.00000000000E+00  0.00000000000E+00  0.15263379468E+02  0.15263379681E+02  0.25500000000E-02 0. -1.
          2   -1    0    0  501    0  0.00000000000E+00 -0.00000000000E+00 -0.35400179044E+04  0.35400179044E+04  0.25500000000E-02 0.  1.
    5000001    1    1    2    0    0  0.94588568141E+02  0.61577584973E+02 -0.85529839997E+03  0.87835024289E+03  0.16500000000E+03 0.  0.
   -5000001    1    1    2    0    0 -0.94588568141E+02 -0.61577584973E+02 -0.26694561249E+04  0.26769310412E+04  0.16500000000E+03 0.  0.
<mgrwt>
<rscale>  0 0.46489843E+03</rscale>
<asrwt>0</asrwt>
<pdfrwt beam="1">  1        2 0.50571632E+00 0.46489843E+03</pdfrwt>
<pdfrwt beam="2">  1       -2 0.21804851E-02 0.46489843E+03</pdfrwt>
<totfact> 0.91810627E+02</totfact>
</mgrwt>
</event>
<event>
 4    1  0.3584860E-005  0.4145315E+03  0.7818608E-02  0.1038861E+00
         -2   -1    0    0    0  501 -0.00000000000E+00  0.00000000000E+00  0.10332017231E+03  0.10332017234E+03  0.25500000000E-02 0. -1.
          2   -1    0    0  501    0  0.00000000000E+00 -0.00000000000E+00 -0.41578608528E+03  0.41578608528E+03  0.25500000000E-02 0.  1.
    5000001    1    1    2    0    0  0.62823824449E+02  0.43352941394E+02 -0.31584501683E+02  0.18452341638E+03  0.16500000000E+03 0.  0.
   -5000001    1    1    2    0    0 -0.62823824449E+02 -0.43352941394E+02 -0.28088141129E+03  0.33458284124E+03  0.16500000000E+03 0.  0.
<mgrwt>
<rscale>  0 0.41453149E+03</rscale>
<asrwt>0</asrwt>
<pdfrwt beam="1">  1        2 0.59398011E-01 0.41453149E+03</pdfrwt>
<pdfrwt beam="2">  1       -2 0.14760025E-01 0.41453149E+03</pdfrwt>
<totfact> 0.29403933E+03</totfact>
</mgrwt>
</event>
<event>
 4    1  0.3584860E-005  0.4167728E+03  0.7818608E-02  0.1038122E+00
          2   -1    0    0  501    0  0.00000000000E+00  0.00000000000E+00  0.51948124002E+03  0.51948124003E+03  0.25500000000E-02 0.  1.
         -2   -1    0    0    0  501 -0.00000000000E+00 -0.00000000000E+00 -0.83592812587E+02  0.83592812625E+02  0.25500000000E-02 0. -1.
    5000001    1    1    2    0    0 -0.10100310601E+03 -0.18482734780E+02  0.32677486936E+03  0.38019738841E+03  0.16500000000E+03 0.  0.
   -5000001    1    1    2    0    0  0.10100310601E+03  0.18482734780E+02  0.10911355808E+03  0.22287666425E+03  0.16500000000E+03 0.  0.
<mgrwt>
<rscale>  0 0.41677283E+03</rscale>
<asrwt>0</asrwt>
<pdfrwt beam="1">  1        2 0.74211604E-01 0.41677283E+03</pdfrwt>
<pdfrwt beam="2">  1       -2 0.11941831E-01 0.41677283E+03</pdfrwt>
<totfact> 0.32540068E+03</totfact>
</mgrwt>
</event>
<event>
 4    1  0.3584860E-005  0.3580566E+03  0.7818608E-02  0.1059356E+00
         -2   -1    0    0    0  501 -0.00000000000E+00  0.00000000000E+00  0.55704304794E+02  0.55704304853E+02  0.25500000000E-02 0. -1.
          2   -1    0    0  501    0  0.00000000000E+00 -0.00000000000E+00 -0.57537969037E+03  0.57537969037E+03  0.25500000000E-02 0.  1.
    5000001    1    1    2    0    0 -0.53352170639E+02  0.43898392768E+02 -0.27262088745E+03  0.32606850703E+03  0.16500000000E+03 0.  0.
   -5000001    1    1    2    0    0  0.53352170639E+02 -0.43898392768E+02 -0.24705449812E+03  0.30501548820E+03  0.16500000000E+03 0.  0.
<mgrwt>
<rscale>  0 0.35805656E+03</rscale>
<asrwt>0</asrwt>
<pdfrwt beam="1">  1        2 0.82197096E-01 0.35805656E+03</pdfrwt>
<pdfrwt beam="2">  1       -2 0.79577581E-02 0.35805656E+03</pdfrwt>
<totfact> 0.55313003E+03</totfact>
</mgrwt>
</event>
<event>
 4    1  0.3584860E-005  0.3758991E+03  0.7818608E-02  0.1052460E+00
         -2   -1    0    0    0  501 -0.00000000000E+00  0.00000000000E+00  0.39772523962E+02  0.39772524044E+02  0.25500000000E-02 0. -1.
          2   -1    0    0  501    0  0.00000000000E+00 -0.00000000000E+00 -0.88817698209E+03  0.88817698210E+03  0.25500000000E-02 0.  1.
    5000001    1    1    2    0    0  0.65782810670E+01  0.57660677267E+02 -0.59401719959E+03  0.61923296173E+03  0.16500000000E+03 0.  0.
   -5000001    1    1    2    0    0 -0.65782810670E+01 -0.57660677267E+02 -0.25438725854E+03  0.30871654441E+03  0.16500000000E+03 0.  0.
<mgrwt>
<rscale>  0 0.37589914E+03</rscale>
<asrwt>0</asrwt>
<pdfrwt beam="1">  1        2 0.12688241E+00 0.37589914E+03</pdfrwt>
<pdfrwt beam="2">  1       -2 0.56817897E-02 0.37589914E+03</pdfrwt>
<totfact> 0.55237045E+03</totfact>
</mgrwt>
</event>
<event>
 4    1  0.3584860E-005  0.3932161E+03  0.7818608E-02  0.1046154E+00
          2   -1    0    0  501    0  0.00000000000E+00  0.00000000000E+00  0.23947165786E+03  0.23947165787E+03  0.25500000000E-02 0.  1.
         -2   -1    0    0    0  501 -0.00000000000E+00 -0.00000000000E+00 -0.16141672900E+03  0.16141672902E+03  0.25500000000E-02 0. -1.
    5000001    1    1    2    0    0 -0.10384983867E+03  0.14450326186E+02  0.17736245707E+02  0.19629868907E+03  0.16500000000E+03 0.  0.
   -5000001    1    1    2    0    0  0.10384983867E+03 -0.14450326186E+02  0.60318683158E+02  0.20458969782E+03  0.16500000000E+03 0.  0.
<mgrwt>
<rscale>  0 0.39321613E+03</rscale>
<asrwt>0</asrwt>
<pdfrwt beam="1">  1        2 0.34210237E-01 0.39321613E+03</pdfrwt>
<pdfrwt beam="2">  1       -2 0.23059533E-01 0.39321613E+03</pdfrwt>
<totfact> 0.25051086E+03</totfact>
</mgrwt>
</event>
<event>
 4    1  0.3584860E-005  0.4982450E+03  0.7818608E-02  0.1014238E+00
         -2   -1    0    0    0  501 -0.00000000000E+00  0.00000000000E+00  0.22644437967E+03  0.22644437968E+03  0.25500000000E-02 0. -1.
          2   -1    0    0  501    0  0.00000000000E+00 -0.00000000000E+00 -0.27407181189E+03  0.27407181190E+03  0.25500000000E-02 0.  1.
    5000001    1    1    2    0    0  0.39846929732E+02  0.15598134802E+03  0.71057569454E+02  0.24123046432E+03  0.16500000000E+03 0.  0.
   -5000001    1    1    2    0    0 -0.39846929732E+02 -0.15598134802E+03 -0.11868500167E+03  0.25928572726E+03  0.16500000000E+03 0.  0.
<mgrwt>
<rscale>  0 0.49824501E+03</rscale>
<asrwt>0</asrwt>
<pdfrwt beam="1">  1        2 0.39153116E-01 0.49824501E+03</pdfrwt>
<pdfrwt beam="2">  1       -2 0.32349197E-01 0.49824501E+03</pdfrwt>
<totfact> 0.11730954E+03</totfact>
</mgrwt>
</event>
<event>
 4    1  0.3584860E-005  0.4835414E+03  0.7818608E-02  0.1018166E+00
          2   -1    0    0  501    0  0.00000000000E+00  0.00000000000E+00  0.19568854670E+04  0.19568854670E+04  0.25500000000E-02 0.  1.
         -2   -1    0    0    0  501 -0.00000000000E+00 -0.00000000000E+00 -0.29870460686E+02  0.29870460795E+02  0.25500000000E-02 0. -1.
    5000001    1    1    2    0    0  0.14179260610E+02  0.17101422033E+03  0.11369125683E+04  0.11615688111E+04  0.16500000000E+03 0.  0.
   -5000001    1    1    2    0    0 -0.14179260610E+02 -0.17101422033E+03  0.79010243799E+03  0.82518711666E+03  0.16500000000E+03 0.  0.
<mgrwt>
<rscale>  0 0.48354140E+03</rscale>
<asrwt>0</asrwt>
<pdfrwt beam="1">  1        2 0.27955510E+00 0.48354140E+03</pdfrwt>
<pdfrwt beam="2">  1       -2 0.42672082E-02 0.48354140E+03</pdfrwt>
<totfact> 0.22914716E+03</totfact>
</mgrwt>
</event>
<event>
 4    1  0.3584860E-005  0.4133745E+03  0.7818608E-02  0.1039244E+00
          2   -1    0    0  501    0  0.00000000000E+00  0.00000000000E+00  0.60620236786E+03  0.60620236786E+03  0.25500000000E-02 0.  1.
         -2   -1    0    0    0  501 -0.00000000000E+00 -0.00000000000E+00 -0.70470893272E+02  0.70470893318E+02  0.25500000000E-02 0. -1.
    5000001    1    1    2    0    0  0.77352675864E+01 -0.11205665855E+03  0.18004688616E+03  0.26880924520E+03  0.16500000000E+03 0.  0.
   -5000001    1    1    2    0    0 -0.77352675864E+01  0.11205665855E+03  0.35568458842E+03  0.40786401598E+03  0.16500000000E+03 0.  0.
<mgrwt>
<rscale>  0 0.41337451E+03</rscale>
<asrwt>0</asrwt>
<pdfrwt beam="1">  1        2 0.86600342E-01 0.41337451E+03</pdfrwt>
<pdfrwt beam="2">  1       -2 0.10067270E-01 0.41337451E+03</pdfrwt>
<totfact> 0.35941687E+03</totfact>
</mgrwt>
</event>
<event>
 4    1  0.3584860E-005  0.4928120E+03  0.7818608E-02  0.1015672E+00
          2   -1    0    0  501    0  0.00000000000E+00  0.00000000000E+00  0.21213425244E+04  0.21213425244E+04  0.25500000000E-02 0.  1.
         -2   -1    0    0    0  501 -0.00000000000E+00 -0.00000000000E+00 -0.28621462780E+02  0.28621462893E+02  0.25500000000E-02 0. -1.
    5000001    1    1    2    0    0  0.15145502838E+03  0.10209874723E+03  0.10957464471E+04  0.11230530069E+04  0.16500000000E+03 0.  0.
   -5000001    1    1    2    0    0 -0.15145502838E+03 -0.10209874723E+03  0.99697461445E+03  0.10269109804E+04  0.16500000000E+03 0.  0.
<mgrwt>
<rscale>  0 0.49281204E+03</rscale>
<asrwt>0</asrwt>
<pdfrwt beam="1">  1        2 0.30304895E+00 0.49281204E+03</pdfrwt>
<pdfrwt beam="2">  1       -2 0.40887802E-02 0.49281204E+03</pdfrwt>
<totfact> 0.20246628E+03</totfact>
</mgrwt>
</event>
<event>
 4    1  0.3584860E-005  0.6355781E+03  0.7818608E-02  0.9834224E-01
         -2   -1    0    0    0  501 -0.00000000000E+00  0.00000000000E+00  0.46134615014E+03  0.46134615015E+03  0.25500000000E-02 0. -1.
          2   -1    0    0  501    0  0.00000000000E+00 -0.00000000000E+00 -0.21890261046E+03  0.21890261048E+03  0.25500000000E-02 0.  1.
    5000001    1    1    2    0    0 -0.15669539217E+03 -0.13748097301E+03 -0.65113371799E+02  0.27371374656E+03  0.16500000000E+03 0.  0.
   -5000001    1    1    2    0    0  0.15669539217E+03  0.13748097301E+03  0.30755691148E+03  0.40653501407E+03  0.16500000000E+03 0.  0.
<mgrwt>
<rscale>  0 0.63557809E+03</rscale>
<asrwt>0</asrwt>
<pdfrwt beam="1">  1        2 0.31271802E-01 0.63557809E+03</pdfrwt>
<pdfrwt beam="2">  1       -2 0.65906592E-01 0.63557809E+03</pdfrwt>
<totfact> 0.36317459E+02</totfact>
</mgrwt>
</event>
<event>
 4    1  0.3584860E-005  0.4302261E+03  0.7818608E-02  0.1033789E+00
         -2   -1    0    0    0  501 -0.00000000000E+00  0.00000000000E+00  0.11427980727E+03  0.11427980730E+03  0.25500000000E-02 0. -1.
          2   -1    0    0  501    0  0.00000000000E+00 -0.00000000000E+00 -0.40491509094E+03  0.40491509094E+03  0.25500000000E-02 0.  1.
    5000001    1    1    2    0    0  0.89222250516E+02 -0.97298629604E+02 -0.19390499279E+03  0.28679571046E+03  0.16500000000E+03 0.  0.
   -5000001    1    1    2    0    0 -0.89222250516E+02  0.97298629604E+02 -0.96730290876E+02  0.23239918778E+03  0.16500000000E+03 0.  0.
<mgrwt>
<rscale>  0 0.43022607E+03</rscale>
<asrwt>0</asrwt>
<pdfrwt beam="1">  1        2 0.57845012E-01 0.43022607E+03</pdfrwt>
<pdfrwt beam="2">  1       -2 0.16325687E-01 0.43022607E+03</pdfrwt>
<totfact> 0.25579679E+03</totfact>
</mgrwt>
</event>
<event>
 4    1  0.3584860E-005  0.5205203E+03  0.7818608E-02  0.1008557E+00
          2   -1    0    0  501    0  0.00000000000E+00  0.00000000000E+00  0.49686864874E+03  0.49686864874E+03  0.25500000000E-02 0.  1.
         -2   -1    0    0    0  501 -0.00000000000E+00 -0.00000000000E+00 -0.13632444496E+03  0.13632444498E+03  0.25500000000E-02 0. -1.
    5000001    1    1    2    0    0  0.18109998720E+03  0.87212280212E+02  0.19286442629E+03  0.32376669704E+03  0.16500000000E+03 0.  0.
   -5000001    1    1    2    0    0 -0.18109998720E+03 -0.87212280212E+02  0.16767977749E+03  0.30942639668E+03  0.16500000000E+03 0.  0.
<mgrwt>
<rscale>  0 0.52052029E+03</rscale>
<asrwt>0</asrwt>
<pdfrwt beam="1">  1        2 0.70981236E-01 0.52052029E+03</pdfrwt>
<pdfrwt beam="2">  1       -2 0.19474920E-01 0.52052029E+03</pdfrwt>
<totfact> 0.15088199E+03</totfact>
</mgrwt>
</event>
<event>
 4    1  0.3584860E-005  0.4194822E+03  0.7818608E-02  0.1037235E+00
         -2   -1    0    0    0  501 -0.00000000000E+00  0.00000000000E+00  0.23515243161E+02  0.23515243299E+02  0.25500000000E-02 0. -1.
          2   -1    0    0  501    0  0.00000000000E+00 -0.00000000000E+00 -0.18707576224E+04  0.18707576224E+04  0.25500000000E-02 0.  1.
    5000001    1    1    2    0    0  0.86508661583E+01 -0.12821119836E+03 -0.99550118669E+03  0.10172318131E+04  0.16500000000E+03 0.  0.
   -5000001    1    1    2    0    0 -0.86508661583E+01  0.12821119836E+03 -0.85174119256E+03  0.87704105261E+03  0.16500000000E+03 0.  0.
<mgrwt>
<rscale>  0 0.41948216E+03</rscale>
<asrwt>0</asrwt>
<pdfrwt beam="1">  1        2 0.26725099E+00 0.41948216E+03</pdfrwt>
<pdfrwt beam="2">  1       -2 0.33593216E-02 0.41948216E+03</pdfrwt>
<totfact> 0.36466058E+03</totfact>
</mgrwt>
</event>
<event>
 4    1  0.3584860E-005  0.3595421E+03  0.7818608E-02  0.1058765E+00
         -2   -1    0    0    0  501 -0.00000000000E+00  0.00000000000E+00  0.18600933649E+03  0.18600933651E+03  0.25500000000E-02 0. -1.
          2   -1    0    0  501    0  0.00000000000E+00 -0.00000000000E+00 -0.17374199233E+03  0.17374199235E+03  0.25500000000E-02 0.  1.
    5000001    1    1    2    0    0  0.69328506222E+02  0.15690830111E+02  0.12461021271E+02  0.18009142394E+03  0.16500000000E+03 0.  0.
   -5000001    1    1    2    0    0 -0.69328506222E+02 -0.15690830111E+02 -0.19367711344E+00  0.17965990492E+03  0.16500000000E+03 0.  0.
<mgrwt>
<rscale>  0 0.35954211E+03</rscale>
<asrwt>0</asrwt>
<pdfrwt beam="1">  1        2 0.24820284E-01 0.35954211E+03</pdfrwt>
<pdfrwt beam="2">  1       -2 0.26572763E-01 0.35954211E+03</pdfrwt>
<totfact> 0.27784883E+03</totfact>
</mgrwt>
</event>
<event>
 4    1  0.3584860E-005  0.3879898E+03  0.7818608E-02  0.1048020E+00
         -2   -1    0    0    0  501 -0.00000000000E+00  0.00000000000E+00  0.26896052661E+03  0.26896052662E+03  0.25500000000E-02 0. -1.
          2   -1    0    0  501    0  0.00000000000E+00 -0.00000000000E+00 -0.13992395396E+03  0.13992395398E+03  0.25500000000E-02 0.  1.
    5000001    1    1    2    0    0 -0.18661608764E+02  0.47174805823E+02 -0.28765938081E+02  0.17500342037E+03  0.16500000000E+03 0.  0.
   -5000001    1    1    2    0    0  0.18661608764E+02 -0.47174805823E+02  0.15780251073E+03  0.23388106024E+03  0.16500000000E+03 0.  0.
<mgrwt>
<rscale>  0 0.38798980E+03</rscale>
<asrwt>0</asrwt>
<pdfrwt beam="1">  1        2 0.19989136E-01 0.38798980E+03</pdfrwt>
<pdfrwt beam="2">  1       -2 0.38422932E-01 0.38798980E+03</pdfrwt>
<totfact> 0.18014986E+03</totfact>
</mgrwt>
</event>
<event>
 4    1  0.3584860E-005  0.8338856E+03  0.7818608E-02  0.9512224E-01
          2   -1    0    0  501    0  0.00000000000E+00  0.00000000000E+00  0.12725278981E+04  0.12725278981E+04  0.25500000000E-02 0.  1.
         -2   -1    0    0    0  501 -0.00000000000E+00 -0.00000000000E+00 -0.13661098380E+03  0.13661098383E+03  0.25500000000E-02 0. -1.
    5000001    1    1    2    0    0 -0.14411024945E+03 -0.27768343318E+03  0.94102992663E+03  0.10053050163E+04  0.16500000000E+03 0.  0.
   -5000001    1    1    2    0    0  0.14411024945E+03  0.27768343318E+03  0.19488698771E+03  0.40383386564E+03  0.16500000000E+03 0.  0.
<mgrwt>
<rscale>  0 0.83388558E+03</rscale>
<asrwt>0</asrwt>
<pdfrwt beam="1">  1        2 0.18178970E+00 0.83388558E+03</pdfrwt>
<pdfrwt beam="2">  1       -2 0.19515854E-01 0.83388558E+03</pdfrwt>
<totfact> 0.43453851E+02</totfact>
</mgrwt>
</event>
<event>
 4    1  0.3584860E-005  0.4427613E+03  0.7818608E-02  0.1029903E+00
         -2   -1    0    0    0  501 -0.00000000000E+00  0.00000000000E+00  0.10154319372E+03  0.10154319375E+03  0.25500000000E-02 0. -1.
          2   -1    0    0  501    0  0.00000000000E+00 -0.00000000000E+00 -0.48264571837E+03  0.48264571838E+03  0.25500000000E-02 0.  1.
    5000001    1    1    2    0    0  0.98173190426E+02  0.10282549967E+03 -0.24288640933E+03  0.32623590627E+03  0.16500000000E+03 0.  0.
   -5000001    1    1    2    0    0 -0.98173190426E+02 -0.10282549967E+03 -0.13821611532E+03  0.25795300586E+03  0.16500000000E+03 0.  0.
<mgrwt>
<rscale>  0 0.44276128E+03</rscale>
<asrwt>0</asrwt>
<pdfrwt beam="1">  1        2 0.68949387E-01 0.44276128E+03</pdfrwt>
<pdfrwt beam="2">  1       -2 0.14506171E-01 0.44276128E+03</pdfrwt>
<totfact> 0.25671493E+03</totfact>
</mgrwt>
</event>
<event>
 4    1  0.3584860E-005  0.3914672E+03  0.7818608E-02  0.1046775E+00
          2   -1    0    0  501    0  0.00000000000E+00  0.00000000000E+00  0.10256487719E+03  0.10256487723E+03  0.25500000000E-02 0.  1.
         -2   -1    0    0    0  501 -0.00000000000E+00 -0.00000000000E+00 -0.37353574140E+03  0.37353574141E+03  0.25500000000E-02 0. -1.
    5000001    1    1    2    0    0 -0.43074761422E+02  0.94380694696E+02 -0.11361092050E+03  0.22560051387E+03  0.16500000000E+03 0.  0.
   -5000001    1    1    2    0    0  0.43074761422E+02 -0.94380694696E+02 -0.15735994371E+03  0.25050010476E+03  0.16500000000E+03 0.  0.
<mgrwt>
<rscale>  0 0.39146723E+03</rscale>
<asrwt>0</asrwt>
<pdfrwt beam="1">  1        2 0.14652126E-01 0.39146723E+03</pdfrwt>
<pdfrwt beam="2">  1       -2 0.53362248E-01 0.39146723E+03</pdfrwt>
<totfact> 0.13600572E+03</totfact>
</mgrwt>
</event>
<event>
 4    1  0.3584860E-005  0.4297142E+03  0.7818608E-02  0.1033950E+00
         -2   -1    0    0    0  501 -0.00000000000E+00  0.00000000000E+00  0.41624204521E+03  0.41624204522E+03  0.25500000000E-02 0.  1.
          2   -1    0    0  501    0  0.00000000000E+00 -0.00000000000E+00 -0.11090561518E+03  0.11090561521E+03  0.25500000000E-02 0. -1.
    5000001    1    1    2    0    0  0.54620785850E+02  0.12115735853E+03  0.19648953212E+03  0.28895617662E+03  0.16500000000E+03 0.  0.
   -5000001    1    1    2    0    0 -0.54620785850E+02 -0.12115735853E+03  0.10884689791E+03  0.23819148381E+03  0.16500000000E+03 0.  0.
<mgrwt>
<rscale>  0 0.42971423E+03</rscale>
<asrwt>0</asrwt>
<pdfrwt beam="1">  1        2 0.15843659E-01 0.42971423E+03</pdfrwt>
<pdfrwt beam="2">  1       -2 0.59463149E-01 0.42971423E+03</pdfrwt>
<totfact> 0.99165292E+02</totfact>
</mgrwt>
</event>
<event>
 4    1  0.3584860E-005  0.4321631E+03  0.7818608E-02  0.1033179E+00
         -2   -1    0    0    0  501 -0.00000000000E+00  0.00000000000E+00  0.27663539266E+02  0.27663539384E+02  0.25500000000E-02 0. -1.
          2   -1    0    0  501    0  0.00000000000E+00 -0.00000000000E+00 -0.16878254635E+04  0.16878254635E+04  0.25500000000E-02 0.  1.
    5000001    1    1    2    0    0  0.58842207269E+01  0.11885518405E+03 -0.11192054869E+04  0.11375443291E+04  0.16500000000E+03 0.  0.
   -5000001    1    1    2    0    0 -0.58842207269E+01 -0.11885518405E+03 -0.54095643731E+03  0.57794467374E+03  0.16500000000E+03 0.  0.
<mgrwt>
<rscale>  0 0.43216305E+03</rscale>
<asrwt>0</asrwt>
<pdfrwt beam="1">  1        2 0.24111786E+00 0.43216305E+03</pdfrwt>
<pdfrwt beam="2">  1       -2 0.39519353E-02 0.43216305E+03</pdfrwt>
<totfact> 0.35163099E+03</totfact>
</mgrwt>
</event>
<event>
 4    1  0.3584860E-005  0.5161754E+03  0.7818608E-02  0.1009641E+00
          2   -1    0    0  501    0  0.00000000000E+00  0.00000000000E+00  0.23532020680E+04  0.23532020680E+04  0.25500000000E-02 0.  1.
         -2   -1    0    0    0  501 -0.00000000000E+00 -0.00000000000E+00 -0.28305799776E+02  0.28305799891E+02  0.25500000000E-02 0. -1.
    5000001    1    1    2    0    0  0.33077983697E+02  0.17926078055E+03  0.80046116496E+03  0.83737187501E+03  0.16500000000E+03 0.  0.
   -5000001    1    1    2    0    0 -0.33077983697E+02 -0.17926078055E+03  0.15244351032E+04  0.15441359929E+04  0.16500000000E+03 0.  0.
<mgrwt>
<rscale>  0 0.51617542E+03</rscale>
<asrwt>0</asrwt>
<pdfrwt beam="1">  1        2 0.33617174E+00 0.51617542E+03</pdfrwt>
<pdfrwt beam="2">  1       -2 0.40436855E-02 0.51617542E+03</pdfrwt>
<totfact> 0.15734678E+03</totfact>
</mgrwt>
</event>
<event>
 4    1  0.3584860E-005  0.5509782E+03  0.7818608E-02  0.1001268E+00
         -2   -1    0    0    0  501 -0.00000000000E+00  0.00000000000E+00  0.49072526667E+02  0.49072526733E+02  0.25500000000E-02 0. -1.
          2   -1    0    0  501    0  0.00000000000E+00 -0.00000000000E+00 -0.15465727507E+04  0.15465727507E+04  0.25500000000E-02 0.  1.
    5000001    1    1    2    0    0 -0.20605660733E+03 -0.63698956412E+02 -0.88310653388E+03  0.92391505705E+03  0.16500000000E+03 0.  0.
   -5000001    1    1    2    0    0  0.20605660733E+03  0.63698956412E+02 -0.61439369015E+03  0.67173022038E+03  0.16500000000E+03 0.  0.
<mgrwt>
<rscale>  0 0.55097816E+03</rscale>
<asrwt>0</asrwt>
<pdfrwt beam="1">  1        2 0.22093893E+00 0.55097816E+03</pdfrwt>
<pdfrwt beam="2">  1       -2 0.70103619E-02 0.55097816E+03</pdfrwt>
<totfact> 0.17035078E+03</totfact>
</mgrwt>
</event>
<event>
 4    1  0.3584860E-005  0.5215249E+03  0.7818608E-02  0.1008308E+00
          2   -1    0    0  501    0  0.00000000000E+00  0.00000000000E+00  0.15933274656E+04  0.15933274656E+04  0.25500000000E-02 0.  1.
         -2   -1    0    0    0  501 -0.00000000000E+00 -0.00000000000E+00 -0.42676128306E+02  0.42676128382E+02  0.25500000000E-02 0. -1.
    5000001    1    1    2    0    0 -0.12312029894E+03 -0.13555460652E+03  0.50843698391E+03  0.56503701292E+03  0.16500000000E+03 0.  0.
   -5000001    1    1    2    0    0  0.12312029894E+03  0.13555460652E+03  0.10422143534E+04  0.10709665811E+04  0.16500000000E+03 0.  0.
<mgrwt>
<rscale>  0 0.52152487E+03</rscale>
<asrwt>0</asrwt>
<pdfrwt beam="1">  1        2 0.22761816E+00 0.52152487E+03</pdfrwt>
<pdfrwt beam="2">  1       -2 0.60965910E-02 0.52152487E+03</pdfrwt>
<totfact> 0.20087277E+03</totfact>
</mgrwt>
</event>
<event>
 4    1  0.3584860E-005  0.1192773E+04  0.7818608E-02  0.9119206E-01
          2   -1    0    0  501    0  0.00000000000E+00  0.00000000000E+00  0.10215237033E+04  0.10215237033E+04  0.25500000000E-02 0.  1.
         -2   -1    0    0    0  501 -0.00000000000E+00 -0.00000000000E+00 -0.34818250366E+03  0.34818250366E+03  0.25500000000E-02 0. -1.
    5000001    1    1    2    0    0  0.60081375959E+02 -0.56438515322E+03  0.42789886301E+03  0.72970049327E+03  0.16500000000E+03 0.  0.
   -5000001    1    1    2    0    0 -0.60081375959E+02  0.56438515322E+03  0.24544233659E+03  0.64000571365E+03  0.16500000000E+03 0.  0.
<mgrwt>
<rscale>  0 0.11927727E+04</rscale>
<asrwt>0</asrwt>
<pdfrwt beam="1">  1        2 0.14593196E+00 0.11927727E+04</pdfrwt>
<pdfrwt beam="2">  1       -2 0.49740357E-01 0.11927727E+04</pdfrwt>
<totfact> 0.10285464E+02</totfact>
</mgrwt>
</event>
<event>
 4    1  0.3584860E-005  0.6978052E+03  0.7818608E-02  0.9720993E-01
         -2   -1    0    0    0  501 -0.00000000000E+00  0.00000000000E+00  0.99918497076E+02  0.99918497108E+02  0.25500000000E-02 0. -1.
          2   -1    0    0  501    0  0.00000000000E+00 -0.00000000000E+00 -0.12183232120E+04  0.12183232120E+04  0.25500000000E-02 0.  1.
    5000001    1    1    2    0    0  0.17081061722E+03 -0.11972521818E+03 -0.98581708281E+03  0.10210635218E+04  0.16500000000E+03 0.  0.
   -5000001    1    1    2    0    0 -0.17081061722E+03  0.11972521818E+03 -0.13258763214E+03  0.29717818732E+03  0.16500000000E+03 0.  0.
<mgrwt>
<rscale>  0 0.69780520E+03</rscale>
<asrwt>0</asrwt>
<pdfrwt beam="1">  1        2 0.17404616E+00 0.69780520E+03</pdfrwt>
<pdfrwt beam="2">  1       -2 0.14274072E-01 0.69780520E+03</pdfrwt>
<totfact> 0.80030136E+02</totfact>
</mgrwt>
</event>
<event>
 4    1  0.3584860E-005  0.8731487E+03  0.7818608E-02  0.9459784E-01
         -2   -1    0    0    0  501 -0.00000000000E+00  0.00000000000E+00  0.16602486121E+03  0.16602486123E+03  0.25500000000E-02 0. -1.
          2   -1    0    0  501    0  0.00000000000E+00 -0.00000000000E+00 -0.11480037784E+04  0.11480037784E+04  0.25500000000E-02 0.  1.
    5000001    1    1    2    0    0 -0.39543054762E+03 -0.16684709940E+02 -0.36754409350E+03  0.56476309919E+03  0.16500000000E+03 0.  0.
   -5000001    1    1    2    0    0  0.39543054762E+03  0.16684709940E+02 -0.61443482370E+03  0.74926554046E+03  0.16500000000E+03 0.  0.
<mgrwt>
<rscale>  0 0.87314871E+03</rscale>
<asrwt>0</asrwt>
<pdfrwt beam="1">  1        2 0.16400054E+00 0.87314871E+03</pdfrwt>
<pdfrwt beam="2">  1       -2 0.23717838E-01 0.87314871E+03</pdfrwt>
<totfact> 0.36123582E+02</totfact>
</mgrwt>
</event>
<event>
 4    1  0.3584860E-005  0.4497281E+03  0.7818608E-02  0.1027803E+00
         -2   -1    0    0    0  501 -0.00000000000E+00  0.00000000000E+00  0.31490032790E+02  0.31490032893E+02  0.25500000000E-02 0. -1.
          2   -1    0    0  501    0  0.00000000000E+00 -0.00000000000E+00 -0.16057092911E+04  0.16057092912E+04  0.25500000000E-02 0.  1.
    5000001    1    1    2    0    0 -0.10557074345E+03 -0.10555011036E+03 -0.90523163221E+03  0.93217772749E+03  0.16500000000E+03 0.  0.
   -5000001    1    1    2    0    0  0.10557074345E+03  0.10555011036E+03 -0.66898762615E+03  0.70502159656E+03  0.16500000000E+03 0.  0.
<mgrwt>
<rscale>  0 0.44972809E+03</rscale>
<asrwt>0</asrwt>
<pdfrwt beam="1">  1        2 0.22938699E+00 0.44972809E+03</pdfrwt>
<pdfrwt beam="2">  1       -2 0.44985771E-02 0.44972809E+03</pdfrwt>
<totfact> 0.31733436E+03</totfact>
</mgrwt>
</event>
<event>
 4    1  0.3584860E-005  0.5081297E+03  0.7818608E-02  0.1011678E+00
         -2   -1    0    0    0  501 -0.00000000000E+00  0.00000000000E+00  0.30384948094E+03  0.30384948095E+03  0.25500000000E-02 0. -1.
          2   -1    0    0  501    0  0.00000000000E+00 -0.00000000000E+00 -0.21243726775E+03  0.21243726776E+03  0.25500000000E-02 0.  1.
    5000001    1    1    2    0    0  0.11691230816E+03  0.13173820192E+03 -0.34943879674E+02  0.24386372500E+03  0.16500000000E+03 0.  0.
   -5000001    1    1    2    0    0 -0.11691230816E+03 -0.13173820192E+03  0.12635609287E+03  0.27242302371E+03  0.16500000000E+03 0.  0.
<mgrwt>
<rscale>  0 0.50812972E+03</rscale>
<asrwt>0</asrwt>
<pdfrwt beam="1">  1        2 0.30348181E-01 0.50812972E+03</pdfrwt>
<pdfrwt beam="2">  1       -2 0.43407069E-01 0.50812972E+03</pdfrwt>
<totfact> 0.88670105E+02</totfact>
</mgrwt>
</event>
<event>
 4    1  0.3584860E-005  0.7804936E+03  0.7818608E-02  0.9588689E-01
         -2   -1    0    0    0  501 -0.00000000000E+00  0.00000000000E+00  0.61341209423E+02  0.61341209476E+02  0.25500000000E-02 0. -1.
          2   -1    0    0  501    0  0.00000000000E+00 -0.00000000000E+00 -0.24827118885E+04  0.24827118885E+04  0.25500000000E-02 0.  1.
    5000001    1    1    2    0    0 -0.28491162646E+03 -0.40741913957E+02 -0.54082714911E+03  0.63447107393E+03  0.16500000000E+03 0.  0.
   -5000001    1    1    2    0    0  0.28491162646E+03  0.40741913957E+02 -0.18805435300E+04  0.19095820241E+04  0.16500000000E+03 0.  0.
<mgrwt>
<rscale>  0 0.78049356E+03</rscale>
<asrwt>0</asrwt>
<pdfrwt beam="1">  1        2 0.35467306E+00 0.78049356E+03</pdfrwt>
<pdfrwt beam="2">  1       -2 0.87630315E-02 0.78049356E+03</pdfrwt>
<totfact> 0.39399845E+02</totfact>
</mgrwt>
</event>
<event>
 4    1  0.3584860E-005  0.5468783E+03  0.7818608E-02  0.1002219E+00
         -2   -1    0    0    0  501 -0.00000000000E+00  0.00000000000E+00  0.31935369584E+02  0.31935369686E+02  0.25500000000E-02 0. -1.
          2   -1    0    0  501    0  0.00000000000E+00 -0.00000000000E+00 -0.23412587540E+04  0.23412587540E+04  0.25500000000E-02 0.  1.
    5000001    1    1    2    0    0 -0.16919552815E+03  0.92465591395E+02 -0.15965048346E+04  0.16165486999E+04  0.16500000000E+03 0.  0.
   -5000001    1    1    2    0    0  0.16919552815E+03 -0.92465591395E+02 -0.71281854985E+03  0.75664542379E+03  0.16500000000E+03 0.  0.
<mgrwt>
<rscale>  0 0.54687828E+03</rscale>
<asrwt>0</asrwt>
<pdfrwt beam="1">  1        2 0.33446543E+00 0.54687828E+03</pdfrwt>
<pdfrwt beam="2">  1       -2 0.45621971E-02 0.54687828E+03</pdfrwt>
<totfact> 0.13230063E+03</totfact>
</mgrwt>
</event>
<event>
 4    1  0.3584860E-005  0.3850036E+03  0.7818608E-02  0.1049100E+00
         -2   -1    0    0    0  501 -0.00000000000E+00  0.00000000000E+00  0.23493594604E+03  0.23493594605E+03  0.25500000000E-02 0. -1.
          2   -1    0    0  501    0  0.00000000000E+00 -0.00000000000E+00 -0.15773208821E+03  0.15773208824E+03  0.25500000000E-02 0.  1.
    5000001    1    1    2    0    0  0.63376157610E+02 -0.23379915308E+02 -0.35429444429E+02  0.18177844571E+03  0.16500000000E+03 0.  0.
   -5000001    1    1    2    0    0 -0.63376157610E+02  0.23379915308E+02  0.11263330225E+03  0.21088958858E+03  0.16500000000E+03 0.  0.
<mgrwt>
<rscale>  0 0.38500357E+03</rscale>
<asrwt>0</asrwt>
<pdfrwt beam="1">  1        2 0.22533156E-01 0.38500357E+03</pdfrwt>
<pdfrwt beam="2">  1       -2 0.33562278E-01 0.38500357E+03</pdfrwt>
<totfact> 0.20259382E+03</totfact>
</mgrwt>
</event>
<event>
 4    1  0.3584860E-005  0.7565752E+03  0.7818608E-02  0.9625091E-01
         -2   -1    0    0    0  501 -0.00000000000E+00  0.00000000000E+00  0.79273346848E+02  0.79273346889E+02  0.25500000000E-02 0. -1.
          2   -1    0    0  501    0  0.00000000000E+00 -0.00000000000E+00 -0.18051655495E+04  0.18051655495E+04  0.25500000000E-02 0.  1.
    5000001    1    1    2    0    0  0.26344494666E+03  0.20783789606E+03 -0.10055223606E+04  0.10728000973E+04  0.16500000000E+03 0.  0.
   -5000001    1    1    2    0    0 -0.26344494666E+03 -0.20783789606E+03 -0.72036984203E+03  0.81163879914E+03  0.16500000000E+03 0.  0.
<mgrwt>
<rscale>  0 0.75657522E+03</rscale>
<asrwt>0</asrwt>
<pdfrwt beam="1">  1        2 0.25788077E+00 0.75657522E+03</pdfrwt>
<pdfrwt beam="2">  1       -2 0.11324765E-01 0.75657522E+03</pdfrwt>
<totfact> 0.57496400E+02</totfact>
</mgrwt>
</event>
<event>
 4    1  0.3584860E-005  0.1011890E+04  0.7818608E-02  0.9295599E-01
         -2   -1    0    0    0  501 -0.00000000000E+00  0.00000000000E+00  0.23044887490E+03  0.23044887492E+03  0.25500000000E-02 0. -1.
          2   -1    0    0  501    0  0.00000000000E+00 -0.00000000000E+00 -0.11107907894E+04  0.11107907894E+04  0.25500000000E-02 0.  1.
    5000001    1    1    2    0    0 -0.40080172128E+03 -0.25747755097E+03 -0.49669886145E+03  0.70772273385E+03  0.16500000000E+03 0.  0.
   -5000001    1    1    2    0    0  0.40080172128E+03  0.25747755097E+03 -0.38364305303E+03  0.63351693046E+03  0.16500000000E+03 0.  0.
<mgrwt>
<rscale>  0 0.10118903E+04</rscale>
<asrwt>0</asrwt>
<pdfrwt beam="1">  1        2 0.15868440E+00 0.10118903E+04</pdfrwt>
<pdfrwt beam="2">  1       -2 0.32921269E-01 0.10118903E+04</pdfrwt>
<totfact> 0.20629883E+02</totfact>
</mgrwt>
</event>
<event>
 4    1  0.3584860E-005  0.7434013E+03  0.7818608E-02  0.9645760E-01
          2   -1    0    0  501    0  0.00000000000E+00  0.00000000000E+00  0.25330269836E+03  0.25330269837E+03  0.25500000000E-02 0.  1.
         -2   -1    0    0    0  501 -0.00000000000E+00 -0.00000000000E+00 -0.54543979940E+03  0.54543979940E+03  0.25500000000E-02 0. -1.
    5000001    1    1    2    0    0 -0.19831370440E+03 -0.36155216786E+02  0.13881262835E+03  0.29517701611E+03  0.16500000000E+03 0.  0.
   -5000001    1    1    2    0    0  0.19831370440E+03  0.36155216786E+02 -0.43094972939E+03  0.50356548166E+03  0.16500000000E+03 0.  0.
<mgrwt>
<rscale>  0 0.74340130E+03</rscale>
<asrwt>0</asrwt>
<pdfrwt beam="1">  1        2 0.36186100E-01 0.74340130E+03</pdfrwt>
<pdfrwt beam="2">  1       -2 0.77919971E-01 0.74340130E+03</pdfrwt>
<totfact> 0.21313421E+02</totfact>
</mgrwt>
</event>
<event>
 4    1  0.3584860E-005  0.4336370E+03  0.7818608E-02  0.1032717E+00
          2   -1    0    0  501    0  0.00000000000E+00  0.00000000000E+00  0.49216061361E+03  0.49216061362E+03  0.25500000000E-02 0.  1.
         -2   -1    0    0    0  501 -0.00000000000E+00 -0.00000000000E+00 -0.95518146656E+02  0.95518146690E+02  0.25500000000E-02 0. -1.
    5000001    1    1    2    0    0  0.26867020828E+02 -0.11777889596E+03  0.29596909947E+03  0.35974492767E+03  0.16500000000E+03 0.  0.
   -5000001    1    1    2    0    0 -0.26867020828E+02  0.11777889596E+03  0.10067336749E+03  0.22793383264E+03  0.16500000000E+03 0.  0.
<mgrwt>
<rscale>  0 0.43363704E+03</rscale>
<asrwt>0</asrwt>
<pdfrwt beam="1">  1        2 0.70308659E-01 0.43363704E+03</pdfrwt>
<pdfrwt beam="2">  1       -2 0.13645450E-01 0.43363704E+03</pdfrwt>
<totfact> 0.27793158E+03</totfact>
</mgrwt>
</event>
<event>
 4    1  0.3584860E-005  0.4872317E+03  0.7818608E-02  0.1017166E+00
         -2   -1    0    0    0  501 -0.00000000000E+00  0.00000000000E+00  0.12478773871E+03  0.12478773874E+03  0.25500000000E-02 0. -1.
          2   -1    0    0  501    0  0.00000000000E+00 -0.00000000000E+00 -0.47559711764E+03  0.47559711765E+03  0.25500000000E-02 0.  1.
    5000001    1    1    2    0    0  0.98079216389E+01 -0.11635685682E+03 -0.78541255978E+01  0.20229137586E+03  0.16500000000E+03 0.  0.
   -5000001    1    1    2    0    0 -0.98079216389E+01  0.11635685682E+03 -0.34295525333E+03  0.39809348053E+03  0.16500000000E+03 0.  0.
<mgrwt>
<rscale>  0 0.48723173E+03</rscale>
<asrwt>0</asrwt>
<pdfrwt beam="1">  1        2 0.67942445E-01 0.48723173E+03</pdfrwt>
<pdfrwt beam="2">  1       -2 0.17826820E-01 0.48723173E+03</pdfrwt>
<totfact> 0.18449702E+03</totfact>
</mgrwt>
</event>
<event>
 4    1  0.3584860E-005  0.5805428E+03  0.7818608E-02  0.9946617E-01
         -2   -1    0    0    0  501 -0.00000000000E+00  0.00000000000E+00  0.55655689469E+02  0.55655689527E+02  0.25500000000E-02 0. -1.
          2   -1    0    0  501    0  0.00000000000E+00 -0.00000000000E+00 -0.15139060854E+04  0.15139060854E+04  0.25500000000E-02 0.  1.
    5000001    1    1    2    0    0 -0.12487293921E+03 -0.20159092417E+03 -0.65263951106E+03  0.71371947084E+03  0.16500000000E+03 0.  0.
   -5000001    1    1    2    0    0  0.12487293921E+03  0.20159092417E+03 -0.80561088486E+03  0.85584230408E+03  0.16500000000E+03 0.  0.
<mgrwt>
<rscale>  0 0.58054280E+03</rscale>
<asrwt>0</asrwt>
<pdfrwt beam="1">  1        2 0.21627227E+00 0.58054280E+03</pdfrwt>
<pdfrwt beam="2">  1       -2 0.79508137E-02 0.58054280E+03</pdfrwt>
<totfact> 0.14494448E+03</totfact>
</mgrwt>
</event>
<event>
 4    1  0.3584860E-005  0.4019982E+03  0.7818608E-02  0.1043090E+00
         -2   -1    0    0    0  501 -0.00000000000E+00  0.00000000000E+00  0.38683527900E+02  0.38683527984E+02  0.25500000000E-02 0. -1.
          2   -1    0    0  501    0  0.00000000000E+00 -0.00000000000E+00 -0.10443886386E+04  0.10443886386E+04  0.25500000000E-02 0.  1.
    5000001    1    1    2    0    0  0.47862412863E+02  0.66255757770E+02 -0.71998409243E+03  0.74315727094E+03  0.16500000000E+03 0.  0.
   -5000001    1    1    2    0    0 -0.47862412863E+02 -0.66255757770E+02 -0.28572101830E+03  0.33991489568E+03  0.16500000000E+03 0.  0.
<mgrwt>
<rscale>  0 0.40199819E+03</rscale>
<asrwt>0</asrwt>
<pdfrwt beam="1">  1        2 0.14919836E+00 0.40199819E+03</pdfrwt>
<pdfrwt beam="2">  1       -2 0.55262189E-02 0.40199819E+03</pdfrwt>
<totfact> 0.46328324E+03</totfact>
</mgrwt>
</event>
<event>
 4    1  0.3584860E-005  0.6079894E+03  0.7818608E-02  0.9888968E-01
          2   -1    0    0  501    0  0.00000000000E+00  0.00000000000E+00  0.45666137276E+03  0.45666137277E+03  0.25500000000E-02 0.  1.
         -2   -1    0    0    0  501 -0.00000000000E+00 -0.00000000000E+00 -0.20236608859E+03  0.20236608860E+03  0.25500000000E-02 0. -1.
    5000001    1    1    2    0    0 -0.12712778996E+03  0.20945397731E+03  0.49319647958E+02  0.29948267273E+03  0.16500000000E+03 0.  0.
   -5000001    1    1    2    0    0  0.12712778996E+03 -0.20945397731E+03  0.20497563621E+03  0.35954478864E+03  0.16500000000E+03 0.  0.
<mgrwt>
<rscale>  0 0.60798939E+03</rscale>
<asrwt>0</asrwt>
<pdfrwt beam="1">  1        2 0.65237339E-01 0.60798939E+03</pdfrwt>
<pdfrwt beam="2">  1       -2 0.28909441E-01 0.60798939E+03</pdfrwt>
<totfact> 0.82070512E+02</totfact>
</mgrwt>
</event>
<event>
 4    1  0.3584860E-005  0.5849038E+03  0.7818608E-02  0.9937231E-01
          2   -1    0    0  501    0  0.00000000000E+00  0.00000000000E+00  0.11073239510E+03  0.11073239513E+03  0.25500000000E-02 0.  1.
         -2   -1    0    0    0  501 -0.00000000000E+00 -0.00000000000E+00 -0.77238557410E+03  0.77238557411E+03  0.25500000000E-02 0. -1.
    5000001    1    1    2    0    0  0.51743230531E+02  0.23540263553E+03 -0.30887696683E+03  0.42511380048E+03  0.16500000000E+03 0.  0.
   -5000001    1    1    2    0    0 -0.51743230531E+02 -0.23540263553E+03 -0.35277621218E+03  0.45800416876E+03  0.16500000000E+03 0.  0.
<mgrwt>
<rscale>  0 0.58490377E+03</rscale>
<asrwt>0</asrwt>
<pdfrwt beam="1">  1        2 0.15818914E-01 0.58490377E+03</pdfrwt>
<pdfrwt beam="2">  1       -2 0.11034079E+00 0.58490377E+03</pdfrwt>
<totfact> 0.24821642E+02</totfact>
</mgrwt>
</event>
<event>
 4    1  0.3584860E-005  0.5138437E+03  0.7818608E-02  0.1010227E+00
          2   -1    0    0  501    0  0.00000000000E+00  0.00000000000E+00  0.10056241794E+04  0.10056241795E+04  0.25500000000E-02 0.  1.
         -2   -1    0    0    0  501 -0.00000000000E+00 -0.00000000000E+00 -0.65639661188E+02  0.65639661237E+02  0.25500000000E-02 0. -1.
    5000001    1    1    2    0    0 -0.17368051237E+03  0.80411108489E+02  0.56672729246E+03  0.62051244207E+03  0.16500000000E+03 0.  0.
   -5000001    1    1    2    0    0  0.17368051237E+03 -0.80411108489E+02  0.37325722580E+03  0.45075139862E+03  0.16500000000E+03 0.  0.
<mgrwt>
<rscale>  0 0.51384367E+03</rscale>
<asrwt>0</asrwt>
<pdfrwt beam="1">  1        2 0.14366058E+00 0.51384367E+03</pdfrwt>
<pdfrwt beam="2">  1       -2 0.93770953E-02 0.51384367E+03</pdfrwt>
<totfact> 0.21285797E+03</totfact>
</mgrwt>
</event>
<event>
 4    1  0.3584860E-005  0.7713606E+03  0.7818608E-02  0.9602422E-01
          2   -1    0    0  501    0  0.00000000000E+00  0.00000000000E+00  0.18460179277E+04  0.18460179277E+04  0.25500000000E-02 0.  1.
         -2   -1    0    0    0  501 -0.00000000000E+00 -0.00000000000E+00 -0.80578476324E+02  0.80578476364E+02  0.25500000000E-02 0. -1.
    5000001    1    1    2    0    0  0.31089617626E+03  0.31745279297E+01  0.48892977580E+03  0.60244820168E+03  0.16500000000E+03 0.  0.
   -5000001    1    1    2    0    0 -0.31089617626E+03 -0.31745279297E+01  0.12765096756E+04  0.13241482024E+04  0.16500000000E+03 0.  0.
<mgrwt>
<rscale>  0 0.77136065E+03</rscale>
<asrwt>0</asrwt>
<pdfrwt beam="1">  1        2 0.26371683E+00 0.77136065E+03</pdfrwt>
<pdfrwt beam="2">  1       -2 0.11511212E-01 0.77136065E+03</pdfrwt>
<totfact> 0.53310748E+02</totfact>
</mgrwt>
</event>
<event>
 4    1  0.3584860E-005  0.7536600E+03  0.7818608E-02  0.9629626E-01
          2   -1    0    0  501    0  0.00000000000E+00  0.00000000000E+00  0.25918008685E+04  0.25918008685E+04  0.25500000000E-02 0.  1.
         -2   -1    0    0    0  501 -0.00000000000E+00 -0.00000000000E+00 -0.54788483386E+02  0.54788483445E+02  0.25500000000E-02 0. -1.
    5000001    1    1    2    0    0 -0.13963754722E+03  0.14719395429E+03  0.31574762096E+03  0.40998324956E+03  0.16500000000E+03 0.  0.
   -5000001    1    1    2    0    0  0.13963754722E+03 -0.14719395429E+03  0.22212647642E+04  0.22366061024E+04  0.16500000000E+03 0.  0.
<mgrwt>
<rscale>  0 0.75365997E+03</rscale>
<asrwt>0</asrwt>
<pdfrwt beam="1">  1        2 0.37025725E+00 0.75365997E+03</pdfrwt>
<pdfrwt beam="2">  1       -2 0.78269265E-02 0.75365997E+03</pdfrwt>
<totfact> 0.41552292E+02</totfact>
</mgrwt>
</event>
<event>
 4    1  0.3584860E-005  0.5753890E+03  0.7818608E-02  0.9957824E-01
         -2   -1    0    0    0  501 -0.00000000000E+00  0.00000000000E+00  0.39765763167E+02  0.39765763249E+02  0.25500000000E-02 0. -1.
          2   -1    0    0  501    0  0.00000000000E+00 -0.00000000000E+00 -0.20813912694E+04  0.20813912694E+04  0.25500000000E-02 0.  1.
    5000001    1    1    2    0    0  0.17814770380E+03  0.13563719106E+02 -0.45421540544E+03  0.51522540057E+03  0.16500000000E+03 0.  0.
   -5000001    1    1    2    0    0 -0.17814770380E+03 -0.13563719106E+02 -0.15874101008E+04  0.16059316321E+04  0.16500000000E+03 0.  0.
<mgrwt>
<rscale>  0 0.57538895E+03</rscale>
<asrwt>0</asrwt>
<pdfrwt beam="1">  1        2 0.29734154E+00 0.57538895E+03</pdfrwt>
<pdfrwt beam="2">  1       -2 0.56808246E-02 0.57538895E+03</pdfrwt>
<totfact> 0.12702756E+03</totfact>
</mgrwt>
</event>
<event>
 4    1  0.3584860E-005  0.1299512E+04  0.7818608E-02  0.9029952E-01
         -2   -1    0    0    0  501 -0.00000000000E+00  0.00000000000E+00  0.27998624657E+03  0.27998624658E+03  0.25500000000E-02 0. -1.
          2   -1    0    0  501    0  0.00000000000E+00 -0.00000000000E+00 -0.15078698278E+04  0.15078698278E+04  0.25500000000E-02 0.  1.
    5000001    1    1    2    0    0 -0.28823753095E+03 -0.51436980821E+03 -0.91315846403E+03  0.10994273756E+04  0.16500000000E+03 0.  0.
   -5000001    1    1    2    0    0  0.28823753095E+03  0.51436980821E+03 -0.31472511716E+03  0.68842869872E+03  0.16500000000E+03 0.  0.
<mgrwt>
<rscale>  0 0.12995119E+04</rscale>
<asrwt>0</asrwt>
<pdfrwt beam="1">  1        2 0.21540997E+00 0.12995119E+04</pdfrwt>
<pdfrwt beam="2">  1       -2 0.39998036E-01 0.12995119E+04</pdfrwt>
<totfact> 0.83931817E+01</totfact>
</mgrwt>
</event>
<event>
 4    1  0.3584860E-005  0.4268160E+03  0.7818608E-02  0.1034871E+00
          2   -1    0    0  501    0  0.00000000000E+00  0.00000000000E+00  0.60811583233E+03  0.60811583233E+03  0.25500000000E-02 0.  1.
         -2   -1    0    0    0  501 -0.00000000000E+00 -0.00000000000E+00 -0.74891945441E+02  0.74891945485E+02  0.25500000000E-02 0. -1.
    5000001    1    1    2    0    0 -0.90174472138E+02 -0.85797192297E+02  0.35167161321E+03  0.40790993757E+03  0.16500000000E+03 0.  0.
   -5000001    1    1    2    0    0  0.90174472138E+02  0.85797192297E+02  0.18155227368E+03  0.27509784025E+03  0.16500000000E+03 0.  0.
<mgrwt>
<rscale>  0 0.42681602E+03</rscale>
<asrwt>0</asrwt>
<pdfrwt beam="1">  1        2 0.86873688E-01 0.42681602E+03</pdfrwt>
<pdfrwt beam="2">  1       -2 0.10698850E-01 0.42681602E+03</pdfrwt>
<totfact> 0.32478520E+03</totfact>
</mgrwt>
</event>
<event>
 4    1  0.3584860E-005  0.4609080E+03  0.7818608E-02  0.1024518E+00
         -2   -1    0    0    0  501 -0.00000000000E+00  0.00000000000E+00  0.10591255600E+03  0.10591255603E+03  0.25500000000E-02 0. -1.
          2   -1    0    0  501    0  0.00000000000E+00 -0.00000000000E+00 -0.50144247758E+03  0.50144247759E+03  0.25500000000E-02 0.  1.
    5000001    1    1    2    0    0  0.75591075453E+02  0.68168698663E+02 -0.36194380548E+03  0.41059627432E+03  0.16500000000E+03 0.  0.
   -5000001    1    1    2    0    0 -0.75591075453E+02 -0.68168698663E+02 -0.33586116102E+02  0.19675875930E+03  0.16500000000E+03 0.  0.
<mgrwt>
<rscale>  0 0.46090804E+03</rscale>
<asrwt>0</asrwt>
<pdfrwt beam="1">  1        2 0.71634638E-01 0.46090804E+03</pdfrwt>
<pdfrwt beam="2">  1       -2 0.15130365E-01 0.46090804E+03</pdfrwt>
<totfact> 0.22930149E+03</totfact>
</mgrwt>
</event>
<event>
 4    1  0.3584860E-005  0.4214937E+03  0.7818608E-02  0.1036581E+00
          2   -1    0    0  501    0  0.00000000000E+00  0.00000000000E+00  0.14423400498E+04  0.14423400498E+04  0.25500000000E-02 0.  1.
         -2   -1    0    0    0  501 -0.00000000000E+00 -0.00000000000E+00 -0.30793176645E+02  0.30793176751E+02  0.25500000000E-02 0. -1.
    5000001    1    1    2    0    0  0.12821594810E+03 -0.19741565922E+02  0.77210292916E+03  0.80012311052E+03  0.16500000000E+03 0.  0.
   -5000001    1    1    2    0    0 -0.12821594810E+03  0.19741565922E+02  0.63944394403E+03  0.67301011606E+03  0.16500000000E+03 0.  0.
<mgrwt>
<rscale>  0 0.42149369E+03</rscale>
<asrwt>0</asrwt>
<pdfrwt beam="1">  1        2 0.20604855E+00 0.42149369E+03</pdfrwt>
<pdfrwt beam="2">  1       -2 0.43990258E-02 0.42149369E+03</pdfrwt>
<totfact> 0.39838106E+03</totfact>
</mgrwt>
</event>
<event>
 4    1  0.3584860E-005  0.4101374E+03  0.7818608E-02  0.1040325E+00
         -2   -1    0    0    0  501 -0.00000000000E+00  0.00000000000E+00  0.23481566532E+02  0.23481566671E+02  0.25500000000E-02 0. -1.
          2   -1    0    0  501    0  0.00000000000E+00 -0.00000000000E+00 -0.17909015077E+04  0.17909015077E+04  0.25500000000E-02 0.  1.
    5000001    1    1    2    0    0  0.37545728406E+02 -0.96908269918E+02 -0.60296923160E+03  0.63371743605E+03  0.16500000000E+03 0.  0.
   -5000001    1    1    2    0    0 -0.37545728406E+02  0.96908269918E+02 -0.11644507096E+04  0.11806656384E+04  0.16500000000E+03 0.  0.
<mgrwt>
<rscale>  0 0.41013741E+03</rscale>
<asrwt>0</asrwt>
<pdfrwt beam="1">  1        2 0.25584298E+00 0.41013741E+03</pdfrwt>
<pdfrwt beam="2">  1       -2 0.33545107E-02 0.41013741E+03</pdfrwt>
<totfact> 0.40050035E+03</totfact>
</mgrwt>
</event>
<event>
 4    1  0.3584860E-005  0.3941670E+03  0.7818608E-02  0.1045818E+00
          2   -1    0    0  501    0  0.00000000000E+00  0.00000000000E+00  0.28591204823E+03  0.28591204824E+03  0.25500000000E-02 0.  1.
         -2   -1    0    0    0  501 -0.00000000000E+00 -0.00000000000E+00 -0.13585260565E+03  0.13585260568E+03  0.25500000000E-02 0. -1.
    5000001    1    1    2    0    0 -0.22291774026E+02  0.10536615776E+03  0.79562642089E+02  0.21249509266E+03  0.16500000000E+03 0.  0.
   -5000001    1    1    2    0    0  0.22291774026E+02 -0.10536615776E+03  0.70496800488E+02  0.20926956126E+03  0.16500000000E+03 0.  0.
<mgrwt>
<rscale>  0 0.39416695E+03</rscale>
<asrwt>0</asrwt>
<pdfrwt beam="1">  1        2 0.40844578E-01 0.39416695E+03</pdfrwt>
<pdfrwt beam="2">  1       -2 0.19407515E-01 0.39416695E+03</pdfrwt>
<totfact> 0.27841603E+03</totfact>
</mgrwt>
</event>
<event>
 4    1  0.3584860E-005  0.4215644E+03  0.7818608E-02  0.1036558E+00
         -2   -1    0    0    0  501 -0.00000000000E+00  0.00000000000E+00  0.97560814702E+02  0.97560814736E+02  0.25500000000E-02 0. -1.
          2   -1    0    0  501    0  0.00000000000E+00 -0.00000000000E+00 -0.45539931955E+03  0.45539931956E+03  0.25500000000E-02 0.  1.
    5000001    1    1    2    0    0  0.64493433796E+02  0.83080711291E+02 -0.76118525728E+02  0.20995437016E+03  0.16500000000E+03 0.  0.
   -5000001    1    1    2    0    0 -0.64493433796E+02 -0.83080711291E+02 -0.28171997912E+03  0.34300576413E+03  0.16500000000E+03 0.  0.
<mgrwt>
<rscale>  0 0.42156437E+03</rscale>
<asrwt>0</asrwt>
<pdfrwt beam="1">  1        2 0.65057045E-01 0.42156437E+03</pdfrwt>
<pdfrwt beam="2">  1       -2 0.13937259E-01 0.42156437E+03</pdfrwt>
<totfact> 0.29255629E+03</totfact>
</mgrwt>
</event>
<event>
 4    1  0.3584860E-005  0.6634047E+03  0.7818608E-02  0.9781946E-01
         -2   -1    0    0    0  501 -0.00000000000E+00  0.00000000000E+00  0.19575902206E+03  0.19575902207E+03  0.25500000000E-02 0. -1.
          2   -1    0    0  501    0  0.00000000000E+00 -0.00000000000E+00 -0.56205051123E+03  0.56205051124E+03  0.25500000000E-02 0.  1.
    5000001    1    1    2    0    0  0.20453900585E+03  0.20239670868E+03 -0.18210767093E+03  0.37840300793E+03  0.16500000000E+03 0.  0.
   -5000001    1    1    2    0    0 -0.20453900585E+03 -0.20239670868E+03 -0.18418381825E+03  0.37940652538E+03  0.16500000000E+03 0.  0.
<mgrwt>
<rscale>  0 0.66340473E+03</rscale>
<asrwt>0</asrwt>
<pdfrwt beam="1">  1        2 0.80292930E-01 0.66340473E+03</pdfrwt>
<pdfrwt beam="2">  1       -2 0.27965575E-01 0.66340473E+03</pdfrwt>
<totfact> 0.68721335E+02</totfact>
</mgrwt>
</event>
<event>
 4    1  0.3584860E-005  0.6486646E+03  0.7818608E-02  0.9809288E-01
         -2   -1    0    0    0  501 -0.00000000000E+00  0.00000000000E+00  0.18574621445E+03  0.18574621446E+03  0.25500000000E-02 0. -1.
          2   -1    0    0  501    0  0.00000000000E+00 -0.00000000000E+00 -0.56631816161E+03  0.56631816162E+03  0.25500000000E-02 0.  1.
    5000001    1    1    2    0    0 -0.25744436224E+03 -0.10293172036E+03 -0.22863256607E+03  0.39543695954E+03  0.16500000000E+03 0.  0.
   -5000001    1    1    2    0    0  0.25744436224E+03  0.10293172036E+03 -0.15193938110E+03  0.35662741654E+03  0.16500000000E+03 0.  0.
<mgrwt>
<rscale>  0 0.64866464E+03</rscale>
<asrwt>0</asrwt>
<pdfrwt beam="1">  1        2 0.80902594E-01 0.64866464E+03</pdfrwt>
<pdfrwt beam="2">  1       -2 0.26535174E-01 0.64866464E+03</pdfrwt>
<totfact> 0.74979575E+02</totfact>
</mgrwt>
</event>
<event>
 4    1  0.3584860E-005  0.3610907E+03  0.7818608E-02  0.1058153E+00
         -2   -1    0    0    0  501 -0.00000000000E+00  0.00000000000E+00  0.16440864608E+03  0.16440864610E+03  0.25500000000E-02 0. -1.
          2   -1    0    0  501    0  0.00000000000E+00 -0.00000000000E+00 -0.19826589912E+03  0.19826589914E+03  0.25500000000E-02 0.  1.
    5000001    1    1    2    0    0  0.54818479125E+02 -0.37672128288E+02  0.13985805747E+02  0.17845127533E+03  0.16500000000E+03 0.  0.
   -5000001    1    1    2    0    0 -0.54818479125E+02  0.37672128288E+02 -0.47843058790E+02  0.18422326991E+03  0.16500000000E+03 0.  0.
<mgrwt>
<rscale>  0 0.36109073E+03</rscale>
<asrwt>0</asrwt>
<pdfrwt beam="1">  1        2 0.28323700E-01 0.36109073E+03</pdfrwt>
<pdfrwt beam="2">  1       -2 0.23486949E-01 0.36109073E+03</pdfrwt>
<totfact> 0.29839287E+03</totfact>
</mgrwt>
</event>
<event>
 4    1  0.3584860E-005  0.5732223E+03  0.7818608E-02  0.9962573E-01
         -2   -1    0    0    0  501 -0.00000000000E+00  0.00000000000E+00  0.19126685119E+03  0.19126685120E+03  0.25500000000E-02 0. -1.
          2   -1    0    0  501    0  0.00000000000E+00 -0.00000000000E+00 -0.42948347653E+03  0.42948347653E+03  0.25500000000E-02 0.  1.
    5000001    1    1    2    0    0  0.38856613615E+02 -0.22691260960E+03 -0.16658124898E+03  0.32859318515E+03  0.16500000000E+03 0.  0.
   -5000001    1    1    2    0    0 -0.38856613615E+02  0.22691260960E+03 -0.71635376364E+02  0.29215714259E+03  0.16500000000E+03 0.  0.
<mgrwt>
<rscale>  0 0.57322230E+03</rscale>
<asrwt>0</asrwt>
<pdfrwt beam="1">  1        2 0.61354782E-01 0.57322230E+03</pdfrwt>
<pdfrwt beam="2">  1       -2 0.27323836E-01 0.57322230E+03</pdfrwt>
<totfact> 0.97494155E+02</totfact>
</mgrwt>
</event>
<event>
 4    1  0.3584860E-005  0.4031605E+03  0.7818608E-02  0.1042691E+00
          2   -1    0    0  501    0  0.00000000000E+00  0.00000000000E+00  0.39348013111E+03  0.39348013111E+03  0.25500000000E-02 0.  1.
         -2   -1    0    0    0  501 -0.00000000000E+00 -0.00000000000E+00 -0.10326973368E+03  0.10326973371E+03  0.25500000000E-02 0. -1.
    5000001    1    1    2    0    0 -0.45390820187E+02 -0.87803704692E+02  0.21944080268E+03  0.29180315796E+03  0.16500000000E+03 0.  0.
   -5000001    1    1    2    0    0  0.45390820187E+02  0.87803704692E+02  0.70769594748E+02  0.20494670687E+03  0.16500000000E+03 0.  0.
<mgrwt>
<rscale>  0 0.40316046E+03</rscale>
<asrwt>0</asrwt>
<pdfrwt beam="1">  1        2 0.56211448E-01 0.40316046E+03</pdfrwt>
<pdfrwt beam="2">  1       -2 0.14752819E-01 0.40316046E+03</pdfrwt>
<totfact> 0.31251136E+03</totfact>
</mgrwt>
</event>
<event>
 4    1  0.3584860E-005  0.7992974E+03  0.7818608E-02  0.9561035E-01
         -2   -1    0    0    0  501 -0.00000000000E+00  0.00000000000E+00  0.12922982239E+03  0.12922982241E+03  0.25500000000E-02 0.  1.
          2   -1    0    0  501    0  0.00000000000E+00 -0.00000000000E+00 -0.12359305835E+04  0.12359305835E+04  0.25500000000E-02 0. -1.
    5000001    1    1    2    0    0  0.34466653254E+03 -0.10313599758E+03 -0.64786097682E+03  0.75919753551E+03  0.16500000000E+03 0.  0.
   -5000001    1    1    2    0    0 -0.34466653254E+03  0.10313599758E+03 -0.45883978431E+03  0.60596287041E+03  0.16500000000E+03 0.  0.
<mgrwt>
<rscale>  0 0.79929742E+03</rscale>
<asrwt>0</asrwt>
<pdfrwt beam="1">  1        2 0.17656151E+00 0.79929742E+03</pdfrwt>
<pdfrwt beam="2">  1       -2 0.18461404E-01 0.79929742E+03</pdfrwt>
<totfact> 0.50241160E+02</totfact>
</mgrwt>
</event>
<event>
 4    1  0.3584860E-005  0.4699898E+03  0.7818608E-02  0.1021923E+00
          2   -1    0    0  501    0  0.00000000000E+00  0.00000000000E+00  0.27760901011E+03  0.27760901013E+03  0.25500000000E-02 0.  1.
         -2   -1    0    0    0  501 -0.00000000000E+00 -0.00000000000E+00 -0.19892226998E+03  0.19892227000E+03  0.25500000000E-02 0. -1.
    5000001    1    1    2    0    0  0.10227146494E+03 -0.13238447245E+03  0.35756709877E+02  0.23767339647E+03  0.16500000000E+03 0.  0.
   -5000001    1    1    2    0    0 -0.10227146494E+03  0.13238447245E+03  0.42930030256E+02  0.23885788366E+03  0.16500000000E+03 0.  0.
<mgrwt>
<rscale>  0 0.46998985E+03</rscale>
<asrwt>0</asrwt>
<pdfrwt beam="1">  1        2 0.39658430E-01 0.46998985E+03</pdfrwt>
<pdfrwt beam="2">  1       -2 0.28417467E-01 0.46998985E+03</pdfrwt>
<totfact> 0.14681865E+03</totfact>
</mgrwt>
</event>
<event>
 4    1  0.3584860E-005  0.5140895E+03  0.7818608E-02  0.1010165E+00
          2   -1    0    0  501    0  0.00000000000E+00  0.00000000000E+00  0.50944540734E+03  0.50944540735E+03  0.25500000000E-02 0.  1.
         -2   -1    0    0    0  501 -0.00000000000E+00 -0.00000000000E+00 -0.12969398884E+03  0.12969398886E+03  0.25500000000E-02 0. -1.
    5000001    1    1    2    0    0 -0.18976830034E+03 -0.52116246307E+02  0.20343198950E+03  0.32762430511E+03  0.16500000000E+03 0.  0.
   -5000001    1    1    2    0    0  0.18976830034E+03  0.52116246307E+02  0.17631942900E+03  0.31151509111E+03  0.16500000000E+03 0.  0.
<mgrwt>
<rscale>  0 0.51408951E+03</rscale>
<asrwt>0</asrwt>
<pdfrwt beam="1">  1        2 0.72777917E-01 0.51408951E+03</pdfrwt>
<pdfrwt beam="2">  1       -2 0.18527712E-01 0.51408951E+03</pdfrwt>
<totfact> 0.15983476E+03</totfact>
</mgrwt>
</event>
<event>
 4    1  0.3584860E-005  0.3979986E+03  0.7818608E-02  0.1044475E+00
          2   -1    0    0  501    0  0.00000000000E+00  0.00000000000E+00  0.29108731297E+03  0.29108731298E+03  0.25500000000E-02 0.  1.
         -2   -1    0    0    0  501 -0.00000000000E+00 -0.00000000000E+00 -0.13604415909E+03  0.13604415911E+03  0.25500000000E-02 0. -1.
    5000001    1    1    2    0    0 -0.22235100007E+02  0.10823785347E+03  0.63698710590E+02  0.20854821583E+03  0.16500000000E+03 0.  0.
   -5000001    1    1    2    0    0  0.22235100007E+02 -0.10823785347E+03  0.91344443292E+02  0.21858325626E+03  0.16500000000E+03 0.  0.
<mgrwt>
<rscale>  0 0.39799864E+03</rscale>
<asrwt>0</asrwt>
<pdfrwt beam="1">  1        2 0.41583902E-01 0.39799864E+03</pdfrwt>
<pdfrwt beam="2">  1       -2 0.19434880E-01 0.39799864E+03</pdfrwt>
<totfact> 0.27240984E+03</totfact>
</mgrwt>
</event>
<event>
 4    1  0.3584860E-005  0.5261791E+03  0.7818608E-02  0.1007163E+00
          2   -1    0    0  501    0  0.00000000000E+00  0.00000000000E+00  0.12254447787E+03  0.12254447790E+03  0.25500000000E-02 0.  1.
         -2   -1    0    0    0  501 -0.00000000000E+00 -0.00000000000E+00 -0.56482442536E+03  0.56482442537E+03  0.25500000000E-02 0. -1.
    5000001    1    1    2    0    0  0.12815178149E+03  0.14351509988E+03 -0.31324993687E+03  0.40295159256E+03  0.16500000000E+03 0.  0.
   -5000001    1    1    2    0    0 -0.12815178149E+03 -0.14351509988E+03 -0.12903001062E+03  0.28441731071E+03  0.16500000000E+03 0.  0.
<mgrwt>
<rscale>  0 0.52617911E+03</rscale>
<asrwt>0</asrwt>
<pdfrwt beam="1">  1        2 0.17506354E-01 0.52617911E+03</pdfrwt>
<pdfrwt beam="2">  1       -2 0.80689202E-01 0.52617911E+03</pdfrwt>
<totfact> 0.45542052E+02</totfact>
</mgrwt>
</event>
<event>
 4    1  0.3584860E-005  0.4848665E+03  0.7818608E-02  0.1017806E+00
         -2   -1    0    0    0  501 -0.00000000000E+00  0.00000000000E+00  0.62645011761E+02  0.62645011813E+02  0.25500000000E-02 0. -1.
          2   -1    0    0  501    0  0.00000000000E+00 -0.00000000000E+00 -0.93820535976E+03  0.93820535976E+03  0.25500000000E-02 0.  1.
    5000001    1    1    2    0    0 -0.13286468210E+03 -0.87818917930E+02 -0.60009984470E+03  0.64242510046E+03  0.16500000000E+03 0.  0.
   -5000001    1    1    2    0    0  0.13286468210E+03  0.87818917930E+02 -0.27546050330E+03  0.35842527111E+03  0.16500000000E+03 0.  0.
<mgrwt>
<rscale>  0 0.48486652E+03</rscale>
<asrwt>0</asrwt>
<pdfrwt beam="1">  1        2 0.13402933E+00 0.48486652E+03</pdfrwt>
<pdfrwt beam="2">  1       -2 0.89492880E-02 0.48486652E+03</pdfrwt>
<totfact> 0.25237442E+03</totfact>
</mgrwt>
</event>
<event>
 4    1  0.3584860E-005  0.6130552E+03  0.7818608E-02  0.9878685E-01
          2   -1    0    0  501    0  0.00000000000E+00  0.00000000000E+00  0.33546193992E+04  0.33546193992E+04  0.25500000000E-02 0.  1.
         -2   -1    0    0    0  501 -0.00000000000E+00 -0.00000000000E+00 -0.28008890996E+02  0.28008891112E+02  0.25500000000E-02 0. -1.
    5000001    1    1    2    0    0 -0.17647918457E+01 -0.14571771074E+03  0.28402281276E+04  0.28487466688E+04  0.16500000000E+03 0.  0.
   -5000001    1    1    2    0    0  0.17647918457E+01  0.14571771074E+03  0.48638238058E+03  0.53388162157E+03  0.16500000000E+03 0.  0.
<mgrwt>
<rscale>  0 0.61305520E+03</rscale>
<asrwt>0</asrwt>
<pdfrwt beam="1">  1        2 0.47923116E+00 0.61305520E+03</pdfrwt>
<pdfrwt beam="2">  1       -2 0.40012717E-02 0.61305520E+03</pdfrwt>
<totfact> 0.46161381E+02</totfact>
</mgrwt>
</event>
<event>
 4    1  0.3584860E-005  0.4944159E+03  0.7818608E-02  0.1015247E+00
          2   -1    0    0  501    0  0.00000000000E+00  0.00000000000E+00  0.87277166713E+03  0.87277166713E+03  0.25500000000E-02 0.  1.
         -2   -1    0    0    0  501 -0.00000000000E+00 -0.00000000000E+00 -0.70020332274E+02  0.70020332320E+02  0.25500000000E-02 0. -1.
    5000001    1    1    2    0    0  0.10016437385E+03  0.13903654907E+03  0.27313602377E+03  0.36220484708E+03  0.16500000000E+03 0.  0.
   -5000001    1    1    2    0    0 -0.10016437385E+03 -0.13903654907E+03  0.52961531109E+03  0.58058715238E+03  0.16500000000E+03 0.  0.
<mgrwt>
<rscale>  0 0.49441587E+03</rscale>
<asrwt>0</asrwt>
<pdfrwt beam="1">  1        2 0.12468165E+00 0.49441587E+03</pdfrwt>
<pdfrwt beam="2">  1       -2 0.10002906E-01 0.49441587E+03</pdfrwt>
<totfact> 0.23238308E+03</totfact>
</mgrwt>
</event>
<event>
 4    1  0.3584860E-005  0.1001822E+04  0.7818608E-02  0.9306549E-01
         -2   -1    0    0    0  501 -0.00000000000E+00  0.00000000000E+00  0.68831848870E+03  0.68831848870E+03  0.25500000000E-02 0. -1.
          2   -1    0    0  501    0  0.00000000000E+00 -0.00000000000E+00 -0.36452872001E+03  0.36452872002E+03  0.25500000000E-02 0.  1.
    5000001    1    1    2    0    0  0.45183039878E+03 -0.23966520732E+02  0.17179727821E+02  0.48191829849E+03  0.16500000000E+03 0.  0.
   -5000001    1    1    2    0    0 -0.45183039878E+03  0.23966520732E+02  0.30661004087E+03  0.57092891023E+03  0.16500000000E+03 0.  0.
<mgrwt>
<rscale>  0 0.10018221E+04</rscale>
<asrwt>0</asrwt>
<pdfrwt beam="1">  1        2 0.52075532E-01 0.10018221E+04</pdfrwt>
<pdfrwt beam="2">  1       -2 0.98331211E-01 0.10018221E+04</pdfrwt>
<totfact> 0.82401318E+01</totfact>
</mgrwt>
</event>
<event>
 4    1  0.3584860E-005  0.5828806E+03  0.7818608E-02  0.9941574E-01
          2   -1    0    0  501    0  0.00000000000E+00  0.00000000000E+00  0.37172614154E+03  0.37172614155E+03  0.25500000000E-02 0.  1.
         -2   -1    0    0    0  501 -0.00000000000E+00 -0.00000000000E+00 -0.22849472422E+03  0.22849472423E+03  0.25500000000E-02 0. -1.
    5000001    1    1    2    0    0  0.81638554673E+02 -0.14535041485E+03  0.24973810484E+03  0.34261599162E+03  0.16500000000E+03 0.  0.
   -5000001    1    1    2    0    0 -0.81638554673E+02  0.14535041485E+03 -0.10650668752E+03  0.25760487416E+03  0.16500000000E+03 0.  0.
<mgrwt>
<rscale>  0 0.58288065E+03</rscale>
<asrwt>0</asrwt>
<pdfrwt beam="1">  1        2 0.53103734E-01 0.58288065E+03</pdfrwt>
<pdfrwt beam="2">  1       -2 0.32642104E-01 0.58288065E+03</pdfrwt>
<totfact> 0.82438947E+02</totfact>
</mgrwt>
</event>
<event>
 4    1  0.3584860E-005  0.4354070E+03  0.7818608E-02  0.1032165E+00
         -2   -1    0    0    0  501 -0.00000000000E+00  0.00000000000E+00  0.53872651932E+03  0.53872651933E+03  0.25500000000E-02 0. -1.
          2   -1    0    0  501    0  0.00000000000E+00 -0.00000000000E+00 -0.87975642132E+02  0.87975642169E+02  0.25500000000E-02 0.  1.
    5000001    1    1    2    0    0  0.11797797620E+03 -0.69556968089E+02  0.17127362834E+03  0.27443875536E+03  0.16500000000E+03 0.  0.
   -5000001    1    1    2    0    0 -0.11797797620E+03  0.69556968089E+02  0.27947724886E+03  0.35226340614E+03  0.16500000000E+03 0.  0.
<mgrwt>
<rscale>  0 0.43540699E+03</rscale>
<asrwt>0</asrwt>
<pdfrwt beam="1">  1        2 0.12567949E-01 0.43540699E+03</pdfrwt>
<pdfrwt beam="2">  1       -2 0.76960929E-01 0.43540699E+03</pdfrwt>
<totfact> 0.75481994E+02</totfact>
</mgrwt>
</event>
<event>
 4    1  0.3584860E-005  0.5888413E+03  0.7818608E-02  0.9928831E-01
         -2   -1    0    0    0  501 -0.00000000000E+00  0.00000000000E+00  0.55335538222E+02  0.55335538281E+02  0.25500000000E-02 0. -1.
          2   -1    0    0  501    0  0.00000000000E+00 -0.00000000000E+00 -0.15665072443E+04  0.15665072443E+04  0.25500000000E-02 0.  1.
    5000001    1    1    2    0    0 -0.12734710876E+03  0.43355413077E+02 -0.19543003302E+03  0.28898940424E+03  0.16500000000E+03 0.  0.
   -5000001    1    1    2    0    0  0.12734710876E+03 -0.43355413077E+02 -0.13157416730E+04  0.13328533783E+04  0.16500000000E+03 0.  0.
<mgrwt>
<rscale>  0 0.58884131E+03</rscale>
<asrwt>0</asrwt>
<pdfrwt beam="1">  1        2 0.22378672E+00 0.58884131E+03</pdfrwt>
<pdfrwt beam="2">  1       -2 0.79050778E-02 0.58884131E+03</pdfrwt>
<totfact> 0.13735244E+03</totfact>
</mgrwt>
</event>
<event>
 4    1  0.3584860E-005  0.4820195E+03  0.7818608E-02  0.1018582E+00
         -2   -1    0    0    0  501 -0.00000000000E+00  0.00000000000E+00  0.45371239578E+02  0.45371239650E+02  0.25500000000E-02 0. -1.
          2   -1    0    0  501    0  0.00000000000E+00 -0.00000000000E+00 -0.12802316333E+04  0.12802316333E+04  0.25500000000E-02 0.  1.
    5000001    1    1    2    0    0  0.25085137573E+02  0.15078789675E+03 -0.37935261617E+03  0.44102115746E+03  0.16500000000E+03 0.  0.
   -5000001    1    1    2    0    0 -0.25085137573E+02 -0.15078789675E+03 -0.85550777751E+03  0.88458171545E+03  0.16500000000E+03 0.  0.
<mgrwt>
<rscale>  0 0.48201949E+03</rscale>
<asrwt>0</asrwt>
<pdfrwt beam="1">  1        2 0.18289021E+00 0.48201949E+03</pdfrwt>
<pdfrwt beam="2">  1       -2 0.64816064E-02 0.48201949E+03</pdfrwt>
<totfact> 0.26664636E+03</totfact>
</mgrwt>
</event>
<event>
 4    1  0.3584860E-005  0.4325369E+03  0.7818608E-02  0.1033062E+00
         -2   -1    0    0    0  501 -0.00000000000E+00  0.00000000000E+00  0.81789751573E+02  0.81789751613E+02  0.25500000000E-02 0. -1.
          2   -1    0    0  501    0  0.00000000000E+00 -0.00000000000E+00 -0.57185709462E+03  0.57185709462E+03  0.25500000000E-02 0.  1.
    5000001    1    1    2    0    0  0.51035300507E+01  0.13887180547E+03 -0.22183671682E+03  0.30943166177E+03  0.16500000000E+03 0.  0.
   -5000001    1    1    2    0    0 -0.51035300507E+01 -0.13887180547E+03 -0.26823062622E+03  0.34421518447E+03  0.16500000000E+03 0.  0.
<mgrwt>
<rscale>  0 0.43253693E+03</rscale>
<asrwt>0</asrwt>
<pdfrwt beam="1">  1        2 0.81693868E-01 0.43253693E+03</pdfrwt>
<pdfrwt beam="2">  1       -2 0.11684251E-01 0.43253693E+03</pdfrwt>
<totfact> 0.30233467E+03</totfact>
</mgrwt>
</event>
<event>
 4    1  0.3584860E-005  0.4410392E+03  0.7818608E-02  0.1030428E+00
          2   -1    0    0  501    0  0.00000000000E+00  0.00000000000E+00  0.93011894977E+03  0.93011894978E+03  0.25500000000E-02 0.  1.
         -2   -1    0    0    0  501 -0.00000000000E+00 -0.00000000000E+00 -0.52282455226E+02  0.52282455288E+02  0.25500000000E-02 0. -1.
    5000001    1    1    2    0    0 -0.90460163205E+02 -0.63106311129E+02  0.22482083721E+03  0.29989140780E+03  0.16500000000E+03 0.  0.
   -5000001    1    1    2    0    0  0.90460163205E+02  0.63106311129E+02  0.65301565734E+03  0.68250999726E+03  0.16500000000E+03 0.  0.
<mgrwt>
<rscale>  0 0.44103924E+03</rscale>
<asrwt>0</asrwt>
<pdfrwt beam="1">  1        2 0.13287413E+00 0.44103924E+03</pdfrwt>
<pdfrwt beam="2">  1       -2 0.74689226E-02 0.44103924E+03</pdfrwt>
<totfact> 0.34001280E+03</totfact>
</mgrwt>
</event>
<event>
 4    1  0.3584860E-005  0.4786931E+03  0.7818608E-02  0.1019495E+00
         -2   -1    0    0    0  501 -0.00000000000E+00  0.00000000000E+00  0.63334513504E+03  0.63334513505E+03  0.25500000000E-02 0. -1.
          2   -1    0    0  501    0  0.00000000000E+00 -0.00000000000E+00 -0.90451113347E+02  0.90451113383E+02  0.25500000000E-02 0.  1.
    5000001    1    1    2    0    0  0.73821527862E+02 -0.52238203082E+02  0.47772854959E+02  0.19412803380E+03  0.16500000000E+03 0.  0.
   -5000001    1    1    2    0    0 -0.73821527862E+02  0.52238203082E+02  0.49512116673E+03  0.52966821463E+03  0.16500000000E+03 0.  0.
<mgrwt>
<rscale>  0 0.47869311E+03</rscale>
<asrwt>0</asrwt>
<pdfrwt beam="1">  1        2 0.12921587E-01 0.47869311E+03</pdfrwt>
<pdfrwt beam="2">  1       -2 0.90477878E-01 0.47869311E+03</pdfrwt>
<totfact> 0.50712596E+02</totfact>
</mgrwt>
</event>
<event>
 4    1  0.3584860E-005  0.1117487E+04  0.7818608E-02  0.9188313E-01
         -2   -1    0    0    0  501 -0.00000000000E+00  0.00000000000E+00  0.96354197020E+02  0.96354197054E+02  0.25500000000E-02 0. -1.
          2   -1    0    0  501    0  0.00000000000E+00 -0.00000000000E+00 -0.32400722002E+04  0.32400722002E+04  0.25500000000E-02 0.  1.
    5000001    1    1    2    0    0  0.35979234106E+03 -0.38817912889E+03 -0.17794849389E+04  0.18638468855E+04  0.16500000000E+03 0.  0.
   -5000001    1    1    2    0    0 -0.35979234106E+03  0.38817912889E+03 -0.13642330643E+04  0.14725795117E+04  0.16500000000E+03 0.  0.
<mgrwt>
<rscale>  0 0.11174875E+04</rscale>
<asrwt>0</asrwt>
<pdfrwt beam="1">  1        2 0.46286739E+00 0.11174875E+04</pdfrwt>
<pdfrwt beam="2">  1       -2 0.13764887E-01 0.11174875E+04</pdfrwt>
<totfact> 0.70586352E+01</totfact>
</mgrwt>
</event>
<event>
 4    1  0.3584860E-005  0.5556579E+03  0.7818608E-02  0.1000193E+00
          2   -1    0    0  501    0  0.00000000000E+00  0.00000000000E+00  0.18030516461E+04  0.18030516461E+04  0.25500000000E-02 0.  1.
         -2   -1    0    0    0  501 -0.00000000000E+00 -0.00000000000E+00 -0.42810155668E+02  0.42810155744E+02  0.25500000000E-02 0. -1.
    5000001    1    1    2    0    0 -0.21918979304E+03 -0.43773229571E+02  0.88647661234E+03  0.92899195111E+03  0.16500000000E+03 0.  0.
   -5000001    1    1    2    0    0  0.21918979304E+03  0.43773229571E+02  0.87376487804E+03  0.91686985069E+03  0.16500000000E+03 0.  0.
<mgrwt>
<rscale>  0 0.55565789E+03</rscale>
<asrwt>0</asrwt>
<pdfrwt beam="1">  1        2 0.25757882E+00 0.55565789E+03</pdfrwt>
<pdfrwt beam="2">  1       -2 0.61157363E-02 0.55565789E+03</pdfrwt>
<totfact> 0.15629238E+03</totfact>
</mgrwt>
</event>
<event>
 4    1  0.3584860E-005  0.4864759E+03  0.7818608E-02  0.1017370E+00
         -2   -1    0    0    0  501 -0.00000000000E+00  0.00000000000E+00  0.10776591647E+03  0.10776591650E+03  0.25500000000E-02 0. -1.
          2   -1    0    0  501    0  0.00000000000E+00 -0.00000000000E+00 -0.54901114276E+03  0.54901114277E+03  0.25500000000E-02 0.  1.
    5000001    1    1    2    0    0 -0.10267209449E+03  0.69986732108E+02 -0.47202888896E+02  0.21187924480E+03  0.16500000000E+03 0.  0.
   -5000001    1    1    2    0    0  0.10267209449E+03 -0.69986732108E+02 -0.39404233740E+03  0.44489781447E+03  0.16500000000E+03 0.  0.
<mgrwt>
<rscale>  0 0.48647585E+03</rscale>
<asrwt>0</asrwt>
<pdfrwt beam="1">  1        2 0.78430162E-01 0.48647585E+03</pdfrwt>
<pdfrwt beam="2">  1       -2 0.15395131E-01 0.48647585E+03</pdfrwt>
<totfact> 0.20098644E+03</totfact>
</mgrwt>
</event>
<event>
 4    1  0.3584860E-005  0.7625784E+03  0.7818608E-02  0.9615821E-01
          2   -1    0    0  501    0  0.00000000000E+00  0.00000000000E+00  0.15344254095E+04  0.15344254095E+04  0.25500000000E-02 0.  1.
         -2   -1    0    0    0  501 -0.00000000000E+00 -0.00000000000E+00 -0.94746518098E+02  0.94746518132E+02  0.25500000000E-02 0. -1.
    5000001    1    1    2    0    0 -0.90877218822E+02  0.23587172025E+03  0.12174981580E+04  0.12543607544E+04  0.16500000000E+03 0.  0.
   -5000001    1    1    2    0    0  0.90877218822E+02 -0.23587172025E+03  0.22218073336E+03  0.37481117324E+03  0.16500000000E+03 0.  0.
<mgrwt>
<rscale>  0 0.76257843E+03</rscale>
<asrwt>0</asrwt>
<pdfrwt beam="1">  1        2 0.21920362E+00 0.76257843E+03</pdfrwt>
<pdfrwt beam="2">  1       -2 0.13535217E-01 0.76257843E+03</pdfrwt>
<totfact> 0.58939813E+02</totfact>
</mgrwt>
</event>
<event>
 4    1  0.3584860E-005  0.4507880E+03  0.7818608E-02  0.1027487E+00
          2   -1    0    0  501    0  0.00000000000E+00  0.00000000000E+00  0.41991606361E+03  0.41991606362E+03  0.25500000000E-02 0.  1.
         -2   -1    0    0    0  501 -0.00000000000E+00 -0.00000000000E+00 -0.12098241232E+03  0.12098241235E+03  0.25500000000E-02 0. -1.
    5000001    1    1    2    0    0 -0.49162116565E+02 -0.13766008535E+03  0.93055843549E+02  0.23927307166E+03  0.16500000000E+03 0.  0.
   -5000001    1    1    2    0    0  0.49162116565E+02  0.13766008535E+03  0.20587780773E+03  0.30162540430E+03  0.16500000000E+03 0.  0.
<mgrwt>
<rscale>  0 0.45078801E+03</rscale>
<asrwt>0</asrwt>
<pdfrwt beam="1">  1        2 0.59988008E-01 0.45078801E+03</pdfrwt>
<pdfrwt beam="2">  1       -2 0.17283202E-01 0.45078801E+03</pdfrwt>
<totfact> 0.22326195E+03</totfact>
</mgrwt>
</event>
<event>
 4    1  0.3584860E-005  0.7597909E+03  0.7818608E-02  0.9620114E-01
          2   -1    0    0  501    0  0.00000000000E+00  0.00000000000E+00  0.76022235353E+03  0.76022235354E+03  0.25500000000E-02 0.  1.
         -2   -1    0    0    0  501 -0.00000000000E+00 -0.00000000000E+00 -0.18983990909E+03  0.18983990911E+03  0.25500000000E-02 0. -1.
    5000001    1    1    2    0    0  0.18142407949E+03  0.22195720213E+03  0.51884310361E+03  0.61530712848E+03  0.16500000000E+03 0.  0.
   -5000001    1    1    2    0    0 -0.18142407949E+03 -0.22195720213E+03  0.51539340828E+02  0.33475513417E+03  0.16500000000E+03 0.  0.
<mgrwt>
<rscale>  0 0.75979087E+03</rscale>
<asrwt>0</asrwt>
<pdfrwt beam="1">  1        2 0.10860319E+00 0.75979087E+03</pdfrwt>
<pdfrwt beam="2">  1       -2 0.27119987E-01 0.75979087E+03</pdfrwt>
<totfact> 0.50306944E+02</totfact>
</mgrwt>
</event>
<event>
 4    1  0.3584860E-005  0.6914445E+03  0.7818608E-02  0.9731976E-01
         -2   -1    0    0    0  501 -0.00000000000E+00  0.00000000000E+00  0.88612106497E+02  0.88612106533E+02  0.25500000000E-02 0. -1.
          2   -1    0    0  501    0  0.00000000000E+00 -0.00000000000E+00 -0.13488435757E+04  0.13488435757E+04  0.25500000000E-02 0.  1.
    5000001    1    1    2    0    0 -0.12631503316E+03  0.26583786122E+03 -0.78670682832E+03  0.85601278599E+03  0.16500000000E+03 0.  0.
   -5000001    1    1    2    0    0  0.12631503316E+03 -0.26583786122E+03 -0.47352464084E+03  0.58144289620E+03  0.16500000000E+03 0.  0.
<mgrwt>
<rscale>  0 0.69144449E+03</rscale>
<asrwt>0</asrwt>
<pdfrwt beam="1">  1        2 0.19269193E+00 0.69144449E+03</pdfrwt>
<pdfrwt beam="2">  1       -2 0.12658873E-01 0.69144449E+03</pdfrwt>
<totfact> 0.82931401E+02</totfact>
</mgrwt>
</event>
<event>
 4    1  0.3584860E-005  0.4638448E+03  0.7818608E-02  0.1023672E+00
          2   -1    0    0  501    0  0.00000000000E+00  0.00000000000E+00  0.72826578827E+03  0.72826578827E+03  0.25500000000E-02 0.  1.
         -2   -1    0    0    0  501 -0.00000000000E+00 -0.00000000000E+00 -0.73857656576E+02  0.73857656620E+02  0.25500000000E-02 0. -1.
    5000001    1    1    2    0    0  0.38076086813E+02  0.14982650876E+03  0.23792777852E+03  0.32822613988E+03  0.16500000000E+03 0.  0.
   -5000001    1    1    2    0    0 -0.38076086813E+02 -0.14982650876E+03  0.41648035318E+03  0.47389730501E+03  0.16500000000E+03 0.  0.
<mgrwt>
<rscale>  0 0.46384482E+03</rscale>
<asrwt>0</asrwt>
<pdfrwt beam="1">  1        2 0.10403797E+00 0.46384482E+03</pdfrwt>
<pdfrwt beam="2">  1       -2 0.10551094E-01 0.46384482E+03</pdfrwt>
<totfact> 0.26804110E+03</totfact>
</mgrwt>
</event>
<event>
 4    1  0.3584860E-005  0.7556681E+03  0.7818608E-02  0.9626500E-01
         -2   -1    0    0    0  501 -0.00000000000E+00  0.00000000000E+00  0.35135408090E+03  0.35135408091E+03  0.25500000000E-02 0. -1.
          2   -1    0    0  501    0  0.00000000000E+00 -0.00000000000E+00 -0.40630972925E+03  0.40630972926E+03  0.25500000000E-02 0.  1.
    5000001    1    1    2    0    0 -0.18598538106E+03  0.22634472485E+03 -0.20030207872E+03  0.39136737112E+03  0.16500000000E+03 0.  0.
   -5000001    1    1    2    0    0  0.18598538106E+03 -0.22634472485E+03  0.14534643037E+03  0.36629643905E+03  0.16500000000E+03 0.  0.
<mgrwt>
<rscale>  0 0.75566813E+03</rscale>
<asrwt>0</asrwt>
<pdfrwt beam="1">  1        2 0.58044247E-01 0.75566813E+03</pdfrwt>
<pdfrwt beam="2">  1       -2 0.50193440E-01 0.75566813E+03</pdfrwt>
<totfact> 0.32137464E+02</totfact>
</mgrwt>
</event>
<event>
 4    1  0.3584860E-005  0.7393998E+03  0.7818608E-02  0.9652129E-01
          2   -1    0    0  501    0  0.00000000000E+00  0.00000000000E+00  0.18928000842E+04  0.18928000842E+04  0.25500000000E-02 0.  1.
         -2   -1    0    0    0  501 -0.00000000000E+00 -0.00000000000E+00 -0.72209434068E+02  0.72209434113E+02  0.25500000000E-02 0. -1.
    5000001    1    1    2    0    0 -0.98502705480E+02  0.31074492041E+03  0.10603443556E+04  0.11215258985E+04  0.16500000000E+03 0.  0.
   -5000001    1    1    2    0    0  0.98502705480E+02 -0.31074492041E+03  0.76024629454E+03  0.84348361982E+03  0.16500000000E+03 0.  0.
<mgrwt>
<rscale>  0 0.73939982E+03</rscale>
<asrwt>0</asrwt>
<pdfrwt beam="1">  1        2 0.27040001E+00 0.73939982E+03</pdfrwt>
<pdfrwt beam="2">  1       -2 0.10315633E-01 0.73939982E+03</pdfrwt>
<totfact> 0.60532664E+02</totfact>
</mgrwt>
</event>
<event>
 4    1  0.3584860E-005  0.6600171E+03  0.7818608E-02  0.9788162E-01
          2   -1    0    0  501    0  0.00000000000E+00  0.00000000000E+00  0.38295213583E+04  0.38295213583E+04  0.25500000000E-02 0.  1.
         -2   -1    0    0    0  501 -0.00000000000E+00 -0.00000000000E+00 -0.28438443751E+02  0.28438443866E+02  0.25500000000E-02 0. -1.
    5000001    1    1    2    0    0 -0.16560366291E+03  0.13800769437E+03  0.29973608697E+04  0.30096291931E+04  0.16500000000E+03 0.  0.
   -5000001    1    1    2    0    0  0.16560366291E+03 -0.13800769437E+03  0.80372204490E+03  0.84833060910E+03  0.16500000000E+03 0.  0.
<mgrwt>
<rscale>  0 0.66001705E+03</rscale>
<asrwt>0</asrwt>
<pdfrwt beam="1">  1        2 0.54707447E+00 0.66001705E+03</pdfrwt>
<pdfrwt beam="2">  1       -2 0.40626349E-02 0.66001705E+03</pdfrwt>
<totfact> 0.23082118E+02</totfact>
</mgrwt>
</event>
<event>
 4    1  0.3584860E-005  0.3449316E+03  0.7818608E-02  0.1064715E+00
          2   -1    0    0  501    0  0.00000000000E+00  0.00000000000E+00  0.77009532485E+03  0.77009532485E+03  0.25500000000E-02 0.  1.
         -2   -1    0    0    0  501 -0.00000000000E+00 -0.00000000000E+00 -0.38624376675E+02  0.38624376759E+02  0.25500000000E-02 0. -1.
    5000001    1    1    2    0    0  0.48461962264E+02 -0.12358250380E+02  0.35574310668E+03  0.39532195245E+03  0.16500000000E+03 0.  0.
   -5000001    1    1    2    0    0 -0.48461962264E+02  0.12358250380E+02  0.37572784149E+03  0.41339774916E+03  0.16500000000E+03 0.  0.
<mgrwt>
<rscale>  0 0.34493160E+03</rscale>
<asrwt>0</asrwt>
<pdfrwt beam="1">  1        2 0.11001362E+00 0.34493160E+03</pdfrwt>
<pdfrwt beam="2">  1       -2 0.55177682E-02 0.34493160E+03</pdfrwt>
<totfact> 0.69120996E+03</totfact>
</mgrwt>
</event>
<event>
 4    1  0.3584860E-005  0.5859920E+03  0.7818608E-02  0.9934902E-01
          2   -1    0    0  501    0  0.00000000000E+00  0.00000000000E+00  0.40590347362E+03  0.40590347363E+03  0.25500000000E-02 0.  1.
         -2   -1    0    0    0  501 -0.00000000000E+00 -0.00000000000E+00 -0.21149526794E+03  0.21149526796E+03  0.25500000000E-02 0. -1.
    5000001    1    1    2    0    0 -0.65003842904E+02 -0.23257205668E+03  0.78761577739E+02  0.30289213801E+03  0.16500000000E+03 0.  0.
   -5000001    1    1    2    0    0  0.65003842904E+02  0.23257205668E+03  0.11564662794E+03  0.31450660358E+03  0.16500000000E+03 0.  0.
<mgrwt>
<rscale>  0 0.58599203E+03</rscale>
<asrwt>0</asrwt>
<pdfrwt beam="1">  1        2 0.57986211E-01 0.58599203E+03</pdfrwt>
<pdfrwt beam="2">  1       -2 0.30213610E-01 0.58599203E+03</pdfrwt>
<totfact> 0.86335276E+02</totfact>
</mgrwt>
</event>
<event>
 4    1  0.3584860E-005  0.8228449E+03  0.7818608E-02  0.9527526E-01
          2   -1    0    0  501    0  0.00000000000E+00  0.00000000000E+00  0.30640073402E+04  0.30640073402E+04  0.25500000000E-02 0.  1.
         -2   -1    0    0    0  501 -0.00000000000E+00 -0.00000000000E+00 -0.55244139028E+02  0.55244139086E+02  0.25500000000E-02 0. -1.
    5000001    1    1    2    0    0 -0.25322765456E+03  0.27636058056E+03  0.13554247282E+04  0.14159451294E+04  0.16500000000E+03 0.  0.
   -5000001    1    1    2    0    0  0.25322765456E+03 -0.27636058056E+03  0.16533384730E+04  0.17033063499E+04  0.16500000000E+03 0.  0.
<mgrwt>
<rscale>  0 0.82284494E+03</rscale>
<asrwt>0</asrwt>
<pdfrwt beam="1">  1        2 0.43771536E+00 0.82284494E+03</pdfrwt>
<pdfrwt beam="2">  1       -2 0.78920194E-02 0.82284494E+03</pdfrwt>
<totfact> 0.22744473E+02</totfact>
</mgrwt>
</event>
<event>
 4    1  0.3584860E-005  0.3858010E+03  0.7818608E-02  0.1048810E+00
          2   -1    0    0  501    0  0.00000000000E+00  0.00000000000E+00  0.10198101060E+04  0.10198101060E+04  0.25500000000E-02 0.  1.
         -2   -1    0    0    0  501 -0.00000000000E+00 -0.00000000000E+00 -0.36487781719E+02  0.36487781808E+02  0.25500000000E-02 0. -1.
    5000001    1    1    2    0    0  0.14928528759E+02 -0.98540718946E+02  0.51149453085E+03  0.54661210136E+03  0.16500000000E+03 0.  0.
   -5000001    1    1    2    0    0 -0.14928528759E+02  0.98540718946E+02  0.47182779346E+03  0.50968578649E+03  0.16500000000E+03 0.  0.
<mgrwt>
<rscale>  0 0.38580103E+03</rscale>
<asrwt>0</asrwt>
<pdfrwt beam="1">  1        2 0.14568717E+00 0.38580103E+03</pdfrwt>
<pdfrwt beam="2">  1       -2 0.52125399E-02 0.38580103E+03</pdfrwt>
<totfact> 0.52383413E+03</totfact>
</mgrwt>
</event>
<event>
 4    1  0.3584860E-005  0.4480016E+03  0.7818608E-02  0.1028320E+00
         -2   -1    0    0    0  501 -0.00000000000E+00  0.00000000000E+00  0.10376638767E+03  0.10376638770E+03  0.25500000000E-02 0. -1.
          2   -1    0    0  501    0  0.00000000000E+00 -0.00000000000E+00 -0.48355107685E+03  0.48355107685E+03  0.25500000000E-02 0.  1.
    5000001    1    1    2    0    0 -0.39485838963E+02 -0.12386389853E+03 -0.29186162294E+03  0.35959644573E+03  0.16500000000E+03 0.  0.
   -5000001    1    1    2    0    0  0.39485838963E+02  0.12386389853E+03 -0.87923066233E+02  0.22772101882E+03  0.16500000000E+03 0.  0.
<mgrwt>
<rscale>  0 0.44800156E+03</rscale>
<asrwt>0</asrwt>
<pdfrwt beam="1">  1        2 0.69078724E-01 0.44800156E+03</pdfrwt>
<pdfrwt beam="2">  1       -2 0.14823770E-01 0.44800156E+03</pdfrwt>
<totfact> 0.24711846E+03</totfact>
</mgrwt>
</event>
<event>
 4    1  0.3584860E-005  0.1090241E+04  0.7818608E-02  0.9214756E-01
         -2   -1    0    0    0  501 -0.00000000000E+00  0.00000000000E+00  0.33865003569E+03  0.33865003570E+03  0.25500000000E-02 0. -1.
          2   -1    0    0  501    0  0.00000000000E+00 -0.00000000000E+00 -0.87747334473E+03  0.87747334473E+03  0.25500000000E-02 0.  1.
    5000001    1    1    2    0    0 -0.15655295615E+03 -0.22762219432E+03 -0.76022885886E+03  0.82552626201E+03  0.16500000000E+03 0.  0.
   -5000001    1    1    2    0    0  0.15655295615E+03  0.22762219432E+03  0.22140554982E+03  0.39059711842E+03  0.16500000000E+03 0.  0.
<mgrwt>
<rscale>  0 0.10902410E+04</rscale>
<asrwt>0</asrwt>
<pdfrwt beam="1">  1        2 0.12535333E+00 0.10902410E+04</pdfrwt>
<pdfrwt beam="2">  1       -2 0.48378577E-01 0.10902410E+04</pdfrwt>
<totfact> 0.13524561E+02</totfact>
</mgrwt>
</event>
<event>
 4    1  0.3584860E-005  0.4084273E+03  0.7818608E-02  0.1040900E+00
          2   -1    0    0  501    0  0.00000000000E+00  0.00000000000E+00  0.15714477984E+03  0.15714477986E+03  0.25500000000E-02 0.  1.
         -2   -1    0    0    0  501 -0.00000000000E+00 -0.00000000000E+00 -0.26538083552E+03  0.26538083553E+03  0.25500000000E-02 0. -1.
    5000001    1    1    2    0    0  0.39770229051E+02 -0.10905706329E+03 -0.21353029803E+02  0.20286957892E+03  0.16500000000E+03 0.  0.
   -5000001    1    1    2    0    0 -0.39770229051E+02  0.10905706329E+03 -0.86883025880E+02  0.21965603647E+03  0.16500000000E+03 0.  0.
<mgrwt>
<rscale>  0 0.40842729E+03</rscale>
<asrwt>0</asrwt>
<pdfrwt beam="1">  1        2 0.22449254E-01 0.40842729E+03</pdfrwt>
<pdfrwt beam="2">  1       -2 0.37911548E-01 0.40842729E+03</pdfrwt>
<totfact> 0.16182653E+03</totfact>
</mgrwt>
</event>
<event>
 4    1  0.3584860E-005  0.4126479E+03  0.7818608E-02  0.1039486E+00
         -2   -1    0    0    0  501 -0.00000000000E+00  0.00000000000E+00  0.72857790685E+02  0.72857790729E+02  0.25500000000E-02 0. -1.
          2   -1    0    0  501    0  0.00000000000E+00 -0.00000000000E+00 -0.58428317683E+03  0.58428317683E+03  0.25500000000E-02 0.  1.
    5000001    1    1    2    0    0 -0.49426745926E+02 -0.92731556333E+02 -0.15125604150E+03  0.24727623186E+03  0.16500000000E+03 0.  0.
   -5000001    1    1    2    0    0  0.49426745926E+02  0.92731556333E+02 -0.36016934464E+03  0.40986473570E+03  0.16500000000E+03 0.  0.
<mgrwt>
<rscale>  0 0.41264794E+03</rscale>
<asrwt>0</asrwt>
<pdfrwt beam="1">  1        2 0.83469022E-01 0.41264794E+03</pdfrwt>
<pdfrwt beam="2">  1       -2 0.10408256E-01 0.41264794E+03</pdfrwt>
<totfact> 0.35549725E+03</totfact>
</mgrwt>
</event>
<event>
 4    1  0.3584860E-005  0.3924720E+03  0.7818608E-02  0.1046418E+00
         -2   -1    0    0    0  501 -0.00000000000E+00  0.00000000000E+00  0.33804854657E+02  0.33804854753E+02  0.25500000000E-02 0.  1.
          2   -1    0    0  501    0  0.00000000000E+00 -0.00000000000E+00 -0.11391431327E+04  0.11391431327E+04  0.25500000000E-02 0. -1.
    5000001    1    1    2    0    0 -0.68219298775E+02  0.81145782685E+02 -0.53260813118E+03  0.56756931927E+03  0.16500000000E+03 0.  0.
   -5000001    1    1    2    0    0  0.68219298775E+02 -0.81145782685E+02 -0.57273014686E+03  0.60537866818E+03  0.16500000000E+03 0.  0.
<mgrwt>
<rscale>  0 0.39247200E+03</rscale>
<asrwt>0</asrwt>
<pdfrwt beam="1">  1        2 0.16273471E+00 0.39247200E+03</pdfrwt>
<pdfrwt beam="2">  1       -2 0.48292657E-02 0.39247200E+03</pdfrwt>
<totfact> 0.50270231E+03</totfact>
</mgrwt>
</event>
<event>
 4    1  0.3584860E-005  0.4547952E+03  0.7818608E-02  0.1026302E+00
         -2   -1    0    0    0  501 -0.00000000000E+00  0.00000000000E+00  0.29886437017E+03  0.29886437018E+03  0.25500000000E-02 0. -1.
          2   -1    0    0  501    0  0.00000000000E+00 -0.00000000000E+00 -0.17302050931E+03  0.17302050933E+03  0.25500000000E-02 0.  1.
    5000001    1    1    2    0    0  0.12902388995E+03  0.13800648661E+02 -0.27811426889E+02  0.21174536015E+03  0.16500000000E+03 0.  0.
   -5000001    1    1    2    0    0 -0.12902388995E+03 -0.13800648661E+02  0.15365528774E+03  0.26013951936E+03  0.16500000000E+03 0.  0.
<mgrwt>
<rscale>  0 0.45479519E+03</rscale>
<asrwt>0</asrwt>
<pdfrwt beam="1">  1        2 0.24717216E-01 0.45479519E+03</pdfrwt>
<pdfrwt beam="2">  1       -2 0.42694910E-01 0.45479519E+03</pdfrwt>
<totfact> 0.11538169E+03</totfact>
</mgrwt>
</event>
<event>
 4    1  0.3584860E-005  0.4341705E+03  0.7818608E-02  0.1032551E+00
         -2   -1    0    0    0  501 -0.00000000000E+00  0.00000000000E+00  0.21372050951E+02  0.21372051103E+02  0.25500000000E-02 0. -1.
          2   -1    0    0  501    0  0.00000000000E+00 -0.00000000000E+00 -0.22050297696E+04  0.22050297696E+04  0.25500000000E-02 0.  1.
    5000001    1    1    2    0    0  0.81559683494E+02  0.23035394819E+02 -0.51352056934E+03  0.54599540888E+03  0.16500000000E+03 0.  0.
   -5000001    1    1    2    0    0 -0.81559683494E+02 -0.23035394819E+02 -0.16701371493E+04  0.16804064118E+04  0.16500000000E+03 0.  0.
<mgrwt>
<rscale>  0 0.43417051E+03</rscale>
<asrwt>0</asrwt>
<pdfrwt beam="1">  1        2 0.31500411E+00 0.43417051E+03</pdfrwt>
<pdfrwt beam="2">  1       -2 0.30531516E-02 0.43417051E+03</pdfrwt>
<totfact> 0.28738561E+03</totfact>
</mgrwt>
</event>
<event>
 4    1  0.3584860E-005  0.5363429E+03  0.7818608E-02  0.1004705E+00
         -2   -1    0    0    0  501 -0.00000000000E+00  0.00000000000E+00  0.21297965386E+03  0.21297965387E+03  0.25500000000E-02 0. -1.
          2   -1    0    0  501    0  0.00000000000E+00 -0.00000000000E+00 -0.33766573875E+03  0.33766573876E+03  0.25500000000E-02 0.  1.
    5000001    1    1    2    0    0 -0.29832218474E+02  0.89408155714E+02 -0.25661689412E+03  0.31931334127E+03  0.16500000000E+03 0.  0.
   -5000001    1    1    2    0    0  0.29832218474E+02 -0.89408155714E+02  0.13193080922E+03  0.23133205136E+03  0.16500000000E+03 0.  0.
<mgrwt>
<rscale>  0 0.53634292E+03</rscale>
<asrwt>0</asrwt>
<pdfrwt beam="1">  1        2 0.48237962E-01 0.53634292E+03</pdfrwt>
<pdfrwt beam="2">  1       -2 0.30425665E-01 0.53634292E+03</pdfrwt>
<totfact> 0.10449740E+03</totfact>
</mgrwt>
</event>
<event>
 4    1  0.3584860E-005  0.4384252E+03  0.7818608E-02  0.1031231E+00
          2   -1    0    0  501    0  0.00000000000E+00  0.00000000000E+00  0.31021569545E+04  0.31021569545E+04  0.25500000000E-02 0.  1.
         -2   -1    0    0    0  501 -0.00000000000E+00 -0.00000000000E+00 -0.15490561921E+02  0.15490562131E+02  0.25500000000E-02 0. -1.
    5000001    1    1    2    0    0 -0.13252231794E+03 -0.49649077687E+02  0.13419572276E+04  0.13594489311E+04  0.16500000000E+03 0.  0.
   -5000001    1    1    2    0    0  0.13252231794E+03  0.49649077687E+02  0.17447091650E+04  0.17581985855E+04  0.16500000000E+03 0.  0.
<mgrwt>
<rscale>  0 0.43842516E+03</rscale>
<asrwt>0</asrwt>
<pdfrwt beam="1">  1        2 0.44316562E+00 0.43842516E+03</pdfrwt>
<pdfrwt beam="2">  1       -2 0.22129357E-02 0.43842516E+03</pdfrwt>
<totfact> 0.15990072E+03</totfact>
</mgrwt>
</event>
<event>
 4    1  0.3584860E-005  0.5431303E+03  0.7818608E-02  0.1003097E+00
         -2   -1    0    0    0  501 -0.00000000000E+00  0.00000000000E+00  0.11014534205E+03  0.11014534208E+03  0.25500000000E-02 0. -1.
          2   -1    0    0  501    0  0.00000000000E+00 -0.00000000000E+00 -0.66954843957E+03  0.66954843957E+03  0.25500000000E-02 0.  1.
    5000001    1    1    2    0    0  0.17092750661E+03 -0.36205335339E+02 -0.98141489730E+02  0.25958388014E+03  0.16500000000E+03 0.  0.
   -5000001    1    1    2    0    0 -0.17092750661E+03  0.36205335339E+02 -0.46126160779E+03  0.52010990151E+03  0.16500000000E+03 0.  0.
<mgrwt>
<rscale>  0 0.54313034E+03</rscale>
<asrwt>0</asrwt>
<pdfrwt beam="1">  1        2 0.95649775E-01 0.54313034E+03</pdfrwt>
<pdfrwt beam="2">  1       -2 0.15735049E-01 0.54313034E+03</pdfrwt>
<totfact> 0.15348313E+03</totfact>
</mgrwt>
</event>
<event>
 4    1  0.3584860E-005  0.5352078E+03  0.7818608E-02  0.1004977E+00
          2   -1    0    0  501    0  0.00000000000E+00  0.00000000000E+00  0.13463352245E+04  0.13463352245E+04  0.25500000000E-02 0.  1.
         -2   -1    0    0    0  501 -0.00000000000E+00 -0.00000000000E+00 -0.53190206460E+02  0.53190206521E+02  0.25500000000E-02 0. -1.
    5000001    1    1    2    0    0  0.19144293487E+03  0.81187973237E+02  0.55809063196E+03  0.61800650303E+03  0.16500000000E+03 0.  0.
   -5000001    1    1    2    0    0 -0.19144293487E+03 -0.81187973237E+02  0.73505438605E+03  0.78151892796E+03  0.16500000000E+03 0.  0.
<mgrwt>
<rscale>  0 0.53520780E+03</rscale>
<asrwt>0</asrwt>
<pdfrwt beam="1">  1        2 0.19233362E+00 0.53520780E+03</pdfrwt>
<pdfrwt beam="2">  1       -2 0.75986003E-02 0.53520780E+03</pdfrwt>
<totfact> 0.19110152E+03</totfact>
</mgrwt>
</event>
<event>
 4    1  0.3584860E-005  0.4851646E+03  0.7818608E-02  0.1017725E+00
          2   -1    0    0  501    0  0.00000000000E+00  0.00000000000E+00  0.36577884207E+03  0.36577884208E+03  0.25500000000E-02 0.  1.
         -2   -1    0    0    0  501 -0.00000000000E+00 -0.00000000000E+00 -0.16087913376E+03  0.16087913378E+03  0.25500000000E-02 0. -1.
    5000001    1    1    2    0    0 -0.16840244837E+03 -0.48494483194E+02  0.69702199643E+02  0.25058830011E+03  0.16500000000E+03 0.  0.
   -5000001    1    1    2    0    0  0.16840244837E+03  0.48494483194E+02  0.13519750867E+03  0.27606967575E+03  0.16500000000E+03 0.  0.
<mgrwt>
<rscale>  0 0.48516465E+03</rscale>
<asrwt>0</asrwt>
<pdfrwt beam="1">  1        2 0.52254120E-01 0.48516465E+03</pdfrwt>
<pdfrwt beam="2">  1       -2 0.22982733E-01 0.48516465E+03</pdfrwt>
<totfact> 0.15877612E+03</totfact>
</mgrwt>
</event>
<event>
 4    1  0.3584860E-005  0.6021982E+03  0.7818608E-02  0.9900856E-01
          2   -1    0    0  501    0  0.00000000000E+00  0.00000000000E+00  0.13763120545E+04  0.13763120545E+04  0.25500000000E-02 0. -1.
         -2   -1    0    0    0  501 -0.00000000000E+00 -0.00000000000E+00 -0.65872172743E+02  0.65872172792E+02  0.25500000000E-02 0.  1.
    5000001    1    1    2    0    0  0.20755744444E+03 -0.74322319713E+02  0.94688051047E+03  0.98610932510E+03  0.16500000000E+03 0.  0.
   -5000001    1    1    2    0    0 -0.20755744444E+03  0.74322319713E+02  0.36355937126E+03  0.45607490216E+03  0.16500000000E+03 0.  0.
<mgrwt>
<rscale>  0 0.60219819E+03</rscale>
<asrwt>0</asrwt>
<pdfrwt beam="1">  1        2 0.19661599E+00 0.60219819E+03</pdfrwt>
<pdfrwt beam="2">  1       -2 0.94103112E-02 0.60219819E+03</pdfrwt>
<totfact> 0.13062233E+03</totfact>
</mgrwt>
</event>
<event>
 4    1  0.3584860E-005  0.4018230E+03  0.7818608E-02  0.1043150E+00
         -2   -1    0    0    0  501 -0.00000000000E+00  0.00000000000E+00  0.44221051173E+03  0.44221051174E+03  0.25500000000E-02 0. -1.
          2   -1    0    0  501    0  0.00000000000E+00 -0.00000000000E+00 -0.91281033119E+02  0.91281033155E+02  0.25500000000E-02 0.  1.
    5000001    1    1    2    0    0  0.11282865948E+03 -0.88086413406E+01  0.15125385520E+03  0.25081991005E+03  0.16500000000E+03 0.  0.
   -5000001    1    1    2    0    0 -0.11282865948E+03  0.88086413406E+01  0.19967562341E+03  0.28267163484E+03  0.16500000000E+03 0.  0.
<mgrwt>
<rscale>  0 0.40182301E+03</rscale>
<asrwt>0</asrwt>
<pdfrwt beam="1">  1        2 0.13040148E-01 0.40182301E+03</pdfrwt>
<pdfrwt beam="2">  1       -2 0.63172930E-01 0.40182301E+03</pdfrwt>
<totfact> 0.11041501E+03</totfact>
</mgrwt>
</event>
<event>
 4    1  0.3584860E-005  0.8212790E+03  0.7818608E-02  0.9529717E-01
         -2   -1    0    0    0  501 -0.00000000000E+00  0.00000000000E+00  0.63161547385E+02  0.63161547436E+02  0.25500000000E-02 0. -1.
          2   -1    0    0  501    0  0.00000000000E+00 -0.00000000000E+00 -0.26697381501E+04  0.26697381501E+04  0.25500000000E-02 0.  1.
    5000001    1    1    2    0    0 -0.22688155256E+03  0.28383406244E+03 -0.16252730977E+04  0.16735515098E+04  0.16500000000E+03 0.  0.
   -5000001    1    1    2    0    0  0.22688155256E+03 -0.28383406244E+03 -0.98130350506E+03  0.10593481878E+04  0.16500000000E+03 0.  0.
<mgrwt>
<rscale>  0 0.82127898E+03</rscale>
<asrwt>0</asrwt>
<pdfrwt beam="1">  1        2 0.38139109E+00 0.82127898E+03</pdfrwt>
<pdfrwt beam="2">  1       -2 0.90230799E-02 0.82127898E+03</pdfrwt>
<totfact> 0.29924336E+02</totfact>
</mgrwt>
</event>
<event>
 4    1  0.3584860E-005  0.5215849E+03  0.7818608E-02  0.1008294E+00
         -2   -1    0    0    0  501 -0.00000000000E+00  0.00000000000E+00  0.34501663622E+02  0.34501663716E+02  0.25500000000E-02 0. -1.
          2   -1    0    0  501    0  0.00000000000E+00 -0.00000000000E+00 -0.19712872683E+04  0.19712872683E+04  0.25500000000E-02 0.  1.
    5000001    1    1    2    0    0 -0.14571669164E+03 -0.61128549446E+02 -0.48474295628E+03  0.53588318451E+03  0.16500000000E+03 0.  0.
   -5000001    1    1    2    0    0  0.14571669164E+03  0.61128549446E+02 -0.14520426484E+04  0.14699057475E+04  0.16500000000E+03 0.  0.
<mgrwt>
<rscale>  0 0.52158486E+03</rscale>
<asrwt>0</asrwt>
<pdfrwt beam="1">  1        2 0.28161239E+00 0.52158486E+03</pdfrwt>
<pdfrwt beam="2">  1       -2 0.49288104E-02 0.52158486E+03</pdfrwt>
<totfact> 0.18026951E+03</totfact>
</mgrwt>
</event>
<event>
 4    1  0.3584860E-005  0.3886981E+03  0.7818608E-02  0.1047765E+00
         -2   -1    0    0    0  501 -0.00000000000E+00  0.00000000000E+00  0.76251172281E+02  0.76251172323E+02  0.25500000000E-02 0. -1.
          2   -1    0    0  501    0  0.00000000000E+00 -0.00000000000E+00 -0.49535690189E+03  0.49535690189E+03  0.25500000000E-02 0.  1.
    5000001    1    1    2    0    0  0.83785585041E+02  0.37432601299E+02 -0.27734795004E+03  0.33551171260E+03  0.16500000000E+03 0.  0.
   -5000001    1    1    2    0    0 -0.83785585041E+02 -0.37432601299E+02 -0.14175777957E+03  0.23609636162E+03  0.16500000000E+03 0.  0.
<mgrwt>
<rscale>  0 0.38869805E+03</rscale>
<asrwt>0</asrwt>
<pdfrwt beam="1">  1        2 0.70765270E-01 0.38869805E+03</pdfrwt>
<pdfrwt beam="2">  1       -2 0.10893025E-01 0.38869805E+03</pdfrwt>
<totfact> 0.39803035E+03</totfact>
</mgrwt>
</event>
<event>
 4    1  0.3584860E-005  0.7005826E+03  0.7818608E-02  0.9716236E-01
          2   -1    0    0  501    0  0.00000000000E+00  0.00000000000E+00  0.94501826906E+03  0.94501826906E+03  0.25500000000E-02 0.  1.
         -2   -1    0    0    0  501 -0.00000000000E+00 -0.00000000000E+00 -0.12984297200E+03  0.12984297202E+03  0.25500000000E-02 0. -1.
    5000001    1    1    2    0    0 -0.18774909843E+03  0.14052310279E+03  0.71628067594E+03  0.77154356526E+03  0.16500000000E+03 0.  0.
   -5000001    1    1    2    0    0  0.18774909843E+03 -0.14052310279E+03  0.98894621127E+02  0.30331767582E+03  0.16500000000E+03 0.  0.
<mgrwt>
<rscale>  0 0.70058256E+03</rscale>
<asrwt>0</asrwt>
<pdfrwt beam="1">  1        2 0.13500261E+00 0.70058256E+03</pdfrwt>
<pdfrwt beam="2">  1       -2 0.18548996E-01 0.70058256E+03</pdfrwt>
<totfact> 0.74307322E+02</totfact>
</mgrwt>
</event>
<event>
 4    1  0.3584860E-005  0.4861480E+03  0.7818608E-02  0.1017459E+00
         -2   -1    0    0    0  501 -0.00000000000E+00  0.00000000000E+00  0.12930318493E+02  0.12930318745E+02  0.25500000000E-02 0. -1.
          2   -1    0    0  501    0  0.00000000000E+00 -0.00000000000E+00 -0.45694897596E+04  0.45694897596E+04  0.25500000000E-02 0.  1.
    5000001    1    1    2    0    0  0.92786871786E+02  0.14066919534E+03 -0.28329512864E+04  0.28427513463E+04  0.16500000000E+03 0.  0.
   -5000001    1    1    2    0    0 -0.92786871786E+02 -0.14066919534E+03 -0.17236081548E+04  0.17396687321E+04  0.16500000000E+03 0.  0.
<mgrwt>
<rscale>  0 0.48614795E+03</rscale>
<asrwt>0</asrwt>
<pdfrwt beam="1">  1        2 0.65278322E+00 0.48614795E+03</pdfrwt>
<pdfrwt beam="2">  1       -2 0.18471913E-02 0.48614795E+03</pdfrwt>
<totfact> 0.23460476E+02</totfact>
</mgrwt>
</event>
<event>
 4    1  0.3584860E-005  0.4403790E+03  0.7818608E-02  0.1030631E+00
         -2   -1    0    0    0  501 -0.00000000000E+00  0.00000000000E+00  0.27144126199E+03  0.27144126200E+03  0.25500000000E-02 0. -1.
          2   -1    0    0  501    0  0.00000000000E+00 -0.00000000000E+00 -0.17861477187E+03  0.17861477188E+03  0.25500000000E-02 0.  1.
    5000001    1    1    2    0    0  0.61599146469E+02  0.12424335378E+03  0.39541754133E+00  0.21553659123E+03  0.16500000000E+03 0.  0.
   -5000001    1    1    2    0    0 -0.61599146469E+02 -0.12424335378E+03  0.92431072585E+02  0.23451944266E+03  0.16500000000E+03 0.  0.
<mgrwt>
<rscale>  0 0.44037901E+03</rscale>
<asrwt>0</asrwt>
<pdfrwt beam="1">  1        2 0.25516396E-01 0.44037901E+03</pdfrwt>
<pdfrwt beam="2">  1       -2 0.38777323E-01 0.44037901E+03</pdfrwt>
<totfact> 0.13406296E+03</totfact>
</mgrwt>
</event>
<event>
 4    1  0.3584860E-005  0.4418001E+03  0.7818608E-02  0.1030196E+00
          2   -1    0    0  501    0  0.00000000000E+00  0.00000000000E+00  0.14034040564E+04  0.14034040564E+04  0.25500000000E-02 0.  1.
         -2   -1    0    0    0  501 -0.00000000000E+00 -0.00000000000E+00 -0.34770333707E+02  0.34770333800E+02  0.25500000000E-02 0. -1.
    5000001    1    1    2    0    0 -0.45928117976E+02  0.13914570025E+03  0.71701716757E+03  0.75020632929E+03  0.16500000000E+03 0.  0.
   -5000001    1    1    2    0    0  0.45928117976E+02 -0.13914570025E+03  0.65161655510E+03  0.68796806088E+03  0.16500000000E+03 0.  0.
<mgrwt>
<rscale>  0 0.44180008E+03</rscale>
<asrwt>0</asrwt>
<pdfrwt beam="1">  1        2 0.20048626E+00 0.44180008E+03</pdfrwt>
<pdfrwt beam="2">  1       -2 0.49671914E-02 0.44180008E+03</pdfrwt>
<totfact> 0.34649387E+03</totfact>
</mgrwt>
</event>
<event>
 4    1  0.3584860E-005  0.4118627E+03  0.7818608E-02  0.1039748E+00
          2   -1    0    0  501    0  0.00000000000E+00  0.00000000000E+00  0.11727158699E+03  0.11727158701E+03  0.25500000000E-02 0.  1.
         -2   -1    0    0    0  501 -0.00000000000E+00 -0.00000000000E+00 -0.36161966695E+03  0.36161966695E+03  0.25500000000E-02 0. -1.
    5000001    1    1    2    0    0  0.11277086962E+03 -0.49609193181E+02 -0.12460502632E+03  0.24068600638E+03  0.16500000000E+03 0.  0.
   -5000001    1    1    2    0    0 -0.11277086962E+03  0.49609193181E+02 -0.11974305364E+03  0.23820524759E+03  0.16500000000E+03 0.  0.
<mgrwt>
<rscale>  0 0.41186266E+03</rscale>
<asrwt>0</asrwt>
<pdfrwt beam="1">  1        2 0.16753084E-01 0.41186266E+03</pdfrwt>
<pdfrwt beam="2">  1       -2 0.51659952E-01 0.41186266E+03</pdfrwt>
<totfact> 0.12387436E+03</totfact>
</mgrwt>
</event>
<event>
 4    1  0.3584860E-005  0.9507953E+03  0.7818608E-02  0.9364221E-01
          2   -1    0    0  501    0  0.00000000000E+00  0.00000000000E+00  0.13076439299E+04  0.13076439299E+04  0.25500000000E-02 0.  1.
         -2   -1    0    0    0  501 -0.00000000000E+00 -0.00000000000E+00 -0.17283217566E+03  0.17283217568E+03  0.25500000000E-02 0. -1.
    5000001    1    1    2    0    0 -0.35673043226E+03 -0.26742906682E+03  0.56469174163E+03  0.73815761877E+03  0.16500000000E+03 0.  0.
   -5000001    1    1    2    0    0  0.35673043226E+03  0.26742906682E+03  0.57012001257E+03  0.74231848678E+03  0.16500000000E+03 0.  0.
<mgrwt>
<rscale>  0 0.95079534E+03</rscale>
<asrwt>0</asrwt>
<pdfrwt beam="1">  1        2 0.18680627E+00 0.95079534E+03</pdfrwt>
<pdfrwt beam="2">  1       -2 0.24690311E-01 0.95079534E+03</pdfrwt>
<totfact> 0.27211416E+02</totfact>
</mgrwt>
</event>
<event>
 4    1  0.3584860E-005  0.5793843E+03  0.7818608E-02  0.9949125E-01
          2   -1    0    0  501    0  0.00000000000E+00  0.00000000000E+00  0.70669647385E+03  0.70669647385E+03  0.25500000000E-02 0.  1.
         -2   -1    0    0    0  501 -0.00000000000E+00 -0.00000000000E+00 -0.11875188624E+03  0.11875188627E+03  0.25500000000E-02 0. -1.
    5000001    1    1    2    0    0  0.16589452359E+03 -0.17031610558E+03  0.27550770211E+03  0.39957234977E+03  0.16500000000E+03 0.  0.
   -5000001    1    1    2    0    0 -0.16589452359E+03  0.17031610558E+03  0.31243688550E+03  0.42587601035E+03  0.16500000000E+03 0.  0.
<mgrwt>
<rscale>  0 0.57938429E+03</rscale>
<asrwt>0</asrwt>
<pdfrwt beam="1">  1        2 0.10095664E+00 0.57938429E+03</pdfrwt>
<pdfrwt beam="2">  1       -2 0.16964556E-01 0.57938429E+03</pdfrwt>
<totfact> 0.12647857E+03</totfact>
</mgrwt>
</event>
<event>
 4    1  0.3584860E-005  0.3872312E+03  0.7818608E-02  0.1048293E+00
          2   -1    0    0  501    0  0.00000000000E+00  0.00000000000E+00  0.19320289432E+04  0.19320289432E+04  0.25500000000E-02 0.  1.
         -2   -1    0    0    0  501 -0.00000000000E+00 -0.00000000000E+00 -0.19402922022E+02  0.19402922189E+02  0.25500000000E-02 0. -1.
    5000001    1    1    2    0    0 -0.66150116892E+02 -0.76613931318E+02  0.93585840007E+03  0.95566807910E+03  0.16500000000E+03 0.  0.
   -5000001    1    1    2    0    0  0.66150116892E+02  0.76613931318E+02  0.97676762115E+03  0.99576378633E+03  0.16500000000E+03 0.  0.
<mgrwt>
<rscale>  0 0.38723123E+03</rscale>
<asrwt>0</asrwt>
<pdfrwt beam="1">  1        2 0.27600420E+00 0.38723123E+03</pdfrwt>
<pdfrwt beam="2">  1       -2 0.27718453E-02 0.38723123E+03</pdfrwt>
<totfact> 0.45439674E+03</totfact>
</mgrwt>
</event>
<event>
 4    1  0.3584860E-005  0.4124600E+03  0.7818608E-02  0.1039549E+00
          2   -1    0    0  501    0  0.00000000000E+00  0.00000000000E+00  0.29739629204E+04  0.29739629204E+04  0.25500000000E-02 0.  1.
         -2   -1    0    0    0  501 -0.00000000000E+00 -0.00000000000E+00 -0.14301054902E+02  0.14301055129E+02  0.25500000000E-02 0. -1.
    5000001    1    1    2    0    0 -0.87037046111E+02  0.86565664187E+02  0.13683557409E+04  0.13837237785E+04  0.16500000000E+03 0.  0.
   -5000001    1    1    2    0    0  0.87037046111E+02 -0.86565664187E+02  0.15913061246E+04  0.16045401970E+04  0.16500000000E+03 0.  0.
<mgrwt>
<rscale>  0 0.41245997E+03</rscale>
<asrwt>0</asrwt>
<pdfrwt beam="1">  1        2 0.42485216E+00 0.41245997E+03</pdfrwt>
<pdfrwt beam="2">  1       -2 0.20430064E-02 0.41245997E+03</pdfrwt>
<totfact> 0.21182948E+03</totfact>
</mgrwt>
</event>
<event>
 4    1  0.3584860E-005  0.4917944E+03  0.7818608E-02  0.1015943E+00
          2   -1    0    0  501    0  0.00000000000E+00  0.00000000000E+00  0.46806229902E+03  0.46806229903E+03  0.25500000000E-02 0.  1.
         -2   -1    0    0    0  501 -0.00000000000E+00 -0.00000000000E+00 -0.12918244660E+03  0.12918244662E+03  0.25500000000E-02 0. -1.
    5000001    1    1    2    0    0  0.44226125395E+02  0.17685958672E+03  0.16667879082E+03  0.29705568988E+03  0.16500000000E+03 0.  0.
   -5000001    1    1    2    0    0 -0.44226125395E+02 -0.17685958672E+03  0.17220106160E+03  0.30018905576E+03  0.16500000000E+03 0.  0.
<mgrwt>
<rscale>  0 0.49179440E+03</rscale>
<asrwt>0</asrwt>
<pdfrwt beam="1">  1        2 0.66866041E-01 0.49179440E+03</pdfrwt>
<pdfrwt beam="2">  1       -2 0.18454636E-01 0.49179440E+03</pdfrwt>
<totfact> 0.17703339E+03</totfact>
</mgrwt>
</event>
<event>
 4    1  0.3584860E-005  0.5747897E+03  0.7818608E-02  0.9959135E-01
          2   -1    0    0  501    0  0.00000000000E+00  0.00000000000E+00  0.76203124639E+03  0.76203124640E+03  0.25500000000E-02 0.  1.
         -2   -1    0    0    0  501 -0.00000000000E+00 -0.00000000000E+00 -0.10838899022E+03  0.10838899025E+03  0.25500000000E-02 0. -1.
    5000001    1    1    2    0    0 -0.87648343653E+02 -0.19908844826E+03  0.46270923989E+03  0.53725532390E+03  0.16500000000E+03 0.  0.
   -5000001    1    1    2    0    0  0.87648343653E+02  0.19908844826E+03  0.19093301628E+03  0.33316491275E+03  0.16500000000E+03 0.  0.
<mgrwt>
<rscale>  0 0.57478969E+03</rscale>
<asrwt>0</asrwt>
<pdfrwt beam="1">  1        2 0.10886161E+00 0.57478969E+03</pdfrwt>
<pdfrwt beam="2">  1       -2 0.15484141E-01 0.57478969E+03</pdfrwt>
<totfact> 0.13449659E+03</totfact>
</mgrwt>
</event>
<event>
 4    1  0.3584860E-005  0.9163115E+03  0.7818608E-02  0.9405418E-01
         -2   -1    0    0    0  501 -0.00000000000E+00  0.00000000000E+00  0.34453445078E+03  0.34453445079E+03  0.25500000000E-02 0. -1.
          2   -1    0    0  501    0  0.00000000000E+00 -0.00000000000E+00 -0.60924728761E+03  0.60924728762E+03  0.25500000000E-02 0.  1.
    5000001    1    1    2    0    0 -0.55465045967E+02  0.42375822296E+03 -0.13845046680E+03  0.47858221301E+03  0.16500000000E+03 0.  0.
   -5000001    1    1    2    0    0  0.55465045967E+02 -0.42375822296E+03 -0.12626237003E+03  0.47519952540E+03  0.16500000000E+03 0.  0.
<mgrwt>
<rscale>  0 0.91631147E+03</rscale>
<asrwt>0</asrwt>
<pdfrwt beam="1">  1        2 0.87035326E-01 0.91631147E+03</pdfrwt>
<pdfrwt beam="2">  1       -2 0.49219208E-01 0.91631147E+03</pdfrwt>
<totfact> 0.20862450E+02</totfact>
</mgrwt>
</event>
<event>
 4    1  0.3584860E-005  0.4170374E+03  0.7818608E-02  0.1038035E+00
         -2   -1    0    0    0  501 -0.00000000000E+00  0.00000000000E+00  0.16148017033E+02  0.16148017234E+02  0.25500000000E-02 0. -1.
          2   -1    0    0  501    0  0.00000000000E+00 -0.00000000000E+00 -0.26925937750E+04  0.26925937750E+04  0.25500000000E-02 0.  1.
    5000001    1    1    2    0    0  0.10960942945E+03  0.47984577160E+02 -0.16241817085E+04  0.16369202695E+04  0.16500000000E+03 0.  0.
   -5000001    1    1    2    0    0 -0.10960942945E+03 -0.47984577160E+02 -0.10522640495E+04  0.10718215227E+04  0.16500000000E+03 0.  0.
<mgrwt>
<rscale>  0 0.41703741E+03</rscale>
<asrwt>0</asrwt>
<pdfrwt beam="1">  1        2 0.38465597E+00 0.41703741E+03</pdfrwt>
<pdfrwt beam="2">  1       -2 0.23068613E-02 0.41703741E+03</pdfrwt>
<totfact> 0.24832134E+03</totfact>
</mgrwt>
</event>
<event>
 4    1  0.3584860E-005  0.5730743E+03  0.7818608E-02  0.9962899E-01
          2   -1    0    0  501    0  0.00000000000E+00  0.00000000000E+00  0.94232505814E+03  0.94232505814E+03  0.25500000000E-02 0.  1.
         -2   -1    0    0    0  501 -0.00000000000E+00 -0.00000000000E+00 -0.87128671080E+02  0.87128671117E+02  0.25500000000E-02 0. -1.
    5000001    1    1    2    0    0  0.93725866641E+02 -0.30135881547E+02  0.45744489670E+02  0.19751017131E+03  0.16500000000E+03 0.  0.
   -5000001    1    1    2    0    0 -0.93725866641E+02  0.30135881547E+02  0.80945189739E+03  0.83194355795E+03  0.16500000000E+03 0.  0.
<mgrwt>
<rscale>  0 0.57307427E+03</rscale>
<asrwt>0</asrwt>
<pdfrwt beam="1">  1        2 0.13461787E+00 0.57307427E+03</pdfrwt>
<pdfrwt beam="2">  1       -2 0.12446952E-01 0.57307427E+03</pdfrwt>
<totfact> 0.14674904E+03</totfact>
</mgrwt>
</event>
<event>
 4    1  0.3584860E-005  0.3796968E+03  0.7818608E-02  0.1051046E+00
          2   -1    0    0  501    0  0.00000000000E+00  0.00000000000E+00  0.33273681943E+04  0.33273681943E+04  0.25500000000E-02 0.  1.
         -2   -1    0    0    0  501 -0.00000000000E+00 -0.00000000000E+00 -0.10832109588E+02  0.10832109888E+02  0.25500000000E-02 0. -1.
    5000001    1    1    2    0    0  0.57186861640E+02 -0.72290396521E+02  0.18158291079E+04  0.18256386794E+04  0.16500000000E+03 0.  0.
   -5000001    1    1    2    0    0 -0.57186861640E+02  0.72290396521E+02  0.15007069768E+04  0.15125616248E+04  0.16500000000E+03 0.  0.
<mgrwt>
<rscale>  0 0.37969681E+03</rscale>
<asrwt>0</asrwt>
<pdfrwt beam="1">  1        2 0.47533839E+00 0.37969681E+03</pdfrwt>
<pdfrwt beam="2">  1       -2 0.15474440E-02 0.37969681E+03</pdfrwt>
<totfact> 0.20505094E+03</totfact>
</mgrwt>
</event>
<event>
 4    1  0.3584860E-005  0.7148572E+03  0.7818608E-02  0.9692156E-01
          2   -1    0    0  501    0  0.00000000000E+00  0.00000000000E+00  0.41974781678E+03  0.41974781679E+03  0.25500000000E-02 0.  1.
         -2   -1    0    0    0  501 -0.00000000000E+00 -0.00000000000E+00 -0.30436184768E+03  0.30436184769E+03  0.25500000000E-02 0. -1.
    5000001    1    1    2    0    0 -0.30360171139E+03  0.94905266449E+00  0.15028351986E+03  0.37680901820E+03  0.16500000000E+03 0.  0.
   -5000001    1    1    2    0    0  0.30360171139E+03 -0.94905266449E+00 -0.34897550761E+02  0.34730064628E+03  0.16500000000E+03 0.  0.
<mgrwt>
<rscale>  0 0.71485725E+03</rscale>
<asrwt>0</asrwt>
<pdfrwt beam="1">  1        2 0.59963974E-01 0.71485725E+03</pdfrwt>
<pdfrwt beam="2">  1       -2 0.43480264E-01 0.71485725E+03</pdfrwt>
<totfact> 0.41379527E+02</totfact>
</mgrwt>
</event>
<event>
 4    1  0.3584860E-005  0.3671882E+03  0.7818608E-02  0.1055773E+00
         -2   -1    0    0    0  501 -0.00000000000E+00  0.00000000000E+00  0.56921977591E+02  0.56921977648E+02  0.25500000000E-02 0. -1.
          2   -1    0    0  501    0  0.00000000000E+00 -0.00000000000E+00 -0.59215788836E+03  0.59215788837E+03  0.25500000000E-02 0.  1.
    5000001    1    1    2    0    0  0.77406949968E+02 -0.10946310381E+02 -0.23360904864E+03  0.29649594469E+03  0.16500000000E+03 0.  0.
   -5000001    1    1    2    0    0 -0.77406949968E+02  0.10946310381E+02 -0.30162686214E+03  0.35258392132E+03  0.16500000000E+03 0.  0.
<mgrwt>
<rscale>  0 0.36718822E+03</rscale>
<asrwt>0</asrwt>
<pdfrwt beam="1">  1        2 0.84593980E-01 0.36718822E+03</pdfrwt>
<pdfrwt beam="2">  1       -2 0.81317115E-02 0.36718822E+03</pdfrwt>
<totfact> 0.51756315E+03</totfact>
</mgrwt>
</event>
<event>
 4    1  0.3584860E-005  0.6920199E+03  0.7818608E-02  0.9730977E-01
         -2   -1    0    0    0  501 -0.00000000000E+00  0.00000000000E+00  0.77027527899E+02  0.77027527941E+02  0.25500000000E-02 0. -1.
          2   -1    0    0  501    0  0.00000000000E+00 -0.00000000000E+00 -0.15542871348E+04  0.15542871348E+04  0.25500000000E-02 0.  1.
    5000001    1    1    2    0    0  0.27995567141E+02 -0.28976263964E+03 -0.94617811308E+03  0.10036055803E+04  0.16500000000E+03 0.  0.
   -5000001    1    1    2    0    0 -0.27995567141E+02  0.28976263964E+03 -0.53108149378E+03  0.62770908242E+03  0.16500000000E+03 0.  0.
<mgrwt>
<rscale>  0 0.69201993E+03</rscale>
<asrwt>0</asrwt>
<pdfrwt beam="1">  1        2 0.22204100E+00 0.69201993E+03</pdfrwt>
<pdfrwt beam="2">  1       -2 0.11003933E-01 0.69201993E+03</pdfrwt>
<totfact> 0.81353784E+02</totfact>
</mgrwt>
</event>
<event>
 4    1  0.3584860E-005  0.4542021E+03  0.7818608E-02  0.1026476E+00
          2   -1    0    0  501    0  0.00000000000E+00  0.00000000000E+00  0.33573180792E+04  0.33573180792E+04  0.25500000000E-02 0.  1.
         -2   -1    0    0    0  501 -0.00000000000E+00 -0.00000000000E+00 -0.15361927120E+02  0.15361927331E+02  0.25500000000E-02 0. -1.
    5000001    1    1    2    0    0  0.15346687180E+03 -0.15745463227E+02  0.18451019389E+04  0.18588776628E+04  0.16500000000E+03 0.  0.
   -5000001    1    1    2    0    0 -0.15346687180E+03  0.15745463227E+02  0.14968542132E+04  0.15138023437E+04  0.16500000000E+03 0.  0.
<mgrwt>
<rscale>  0 0.45420205E+03</rscale>
<asrwt>0</asrwt>
<pdfrwt beam="1">  1        2 0.47961713E+00 0.45420205E+03</pdfrwt>
<pdfrwt beam="2">  1       -2 0.21945598E-02 0.45420205E+03</pdfrwt>
<totfact> 0.11636064E+03</totfact>
</mgrwt>
</event>
<event>
 4    1  0.3584860E-005  0.5305244E+03  0.7818608E-02  0.1006105E+00
          2   -1    0    0  501    0  0.00000000000E+00  0.00000000000E+00  0.67997012308E+03  0.67997012308E+03  0.25500000000E-02 0.  1.
         -2   -1    0    0    0  501 -0.00000000000E+00 -0.00000000000E+00 -0.10348105826E+03  0.10348105830E+03  0.25500000000E-02 0. -1.
    5000001    1    1    2    0    0 -0.11959622963E+03  0.19875496707E+02  0.53728905901E+03  0.57498071833E+03  0.16500000000E+03 0.  0.
   -5000001    1    1    2    0    0  0.11959622963E+03 -0.19875496707E+02  0.39200005799E+02  0.20847046305E+03  0.16500000000E+03 0.  0.
<mgrwt>
<rscale>  0 0.53052437E+03</rscale>
<asrwt>0</asrwt>
<pdfrwt beam="1">  1        2 0.97138592E-01 0.53052437E+03</pdfrwt>
<pdfrwt beam="2">  1       -2 0.14783008E-01 0.53052437E+03</pdfrwt>
<totfact> 0.16733377E+03</totfact>
</mgrwt>
</event>
<event>
 4    1  0.3584860E-005  0.6550537E+03  0.7818608E-02  0.9797342E-01
         -2   -1    0    0    0  501 -0.00000000000E+00  0.00000000000E+00  0.72199398199E+02  0.72199398244E+02  0.25500000000E-02 0. -1.
          2   -1    0    0  501    0  0.00000000000E+00 -0.00000000000E+00 -0.14857997354E+04  0.14857997354E+04  0.25500000000E-02 0.  1.
    5000001    1    1    2    0    0  0.14842796278E+03 -0.22796583954E+03 -0.52180845380E+03  0.61115329222E+03  0.16500000000E+03 0.  0.
   -5000001    1    1    2    0    0 -0.14842796278E+03  0.22796583954E+03 -0.89179188345E+03  0.94684584148E+03  0.16500000000E+03 0.  0.
<mgrwt>
<rscale>  0 0.65505373E+03</rscale>
<asrwt>0</asrwt>
<pdfrwt beam="1">  1        2 0.21225709E+00 0.65505373E+03</pdfrwt>
<pdfrwt beam="2">  1       -2 0.10314201E-01 0.65505373E+03</pdfrwt>
<totfact> 0.98339467E+02</totfact>
</mgrwt>
</event>
<event>
 4    1  0.3584860E-005  0.4322850E+03  0.7818608E-02  0.1033141E+00
         -2   -1    0    0    0  501 -0.00000000000E+00  0.00000000000E+00  0.95805248083E+02  0.95805248117E+02  0.25500000000E-02 0. -1.
          2   -1    0    0  501    0  0.00000000000E+00 -0.00000000000E+00 -0.48763080054E+03  0.48763080055E+03  0.25500000000E-02 0.  1.
    5000001    1    1    2    0    0  0.11432328168E+03 -0.18476894605E+02 -0.30116327727E+03  0.36240243921E+03  0.16500000000E+03 0.  0.
   -5000001    1    1    2    0    0 -0.11432328168E+03  0.18476894605E+02 -0.90662275191E+02  0.22103360946E+03  0.16500000000E+03 0.  0.
<mgrwt>
<rscale>  0 0.43228504E+03</rscale>
<asrwt>0</asrwt>
<pdfrwt beam="1">  1        2 0.69661542E-01 0.43228504E+03</pdfrwt>
<pdfrwt beam="2">  1       -2 0.13686464E-01 0.43228504E+03</pdfrwt>
<totfact> 0.27942826E+03</totfact>
</mgrwt>
</event>
<event>
 4    1  0.3584860E-005  0.1160914E+04  0.7818608E-02  0.9147773E-01
         -2   -1    0    0    0  501 -0.00000000000E+00  0.00000000000E+00  0.56866073751E+03  0.56866073752E+03  0.25500000000E-02 0. -1.
          2   -1    0    0  501    0  0.00000000000E+00 -0.00000000000E+00 -0.59249808631E+03  0.59249808632E+03  0.25500000000E-02 0.  1.
    5000001    1    1    2    0    0 -0.14503952780E+03  0.19020006537E+03  0.49067392796E+03  0.57026172331E+03  0.16500000000E+03 0.  0.
   -5000001    1    1    2    0    0  0.14503952780E+03 -0.19020006537E+03 -0.51451127677E+03  0.59089710053E+03  0.16500000000E+03 0.  0.
<mgrwt>
<rscale>  0 0.11609141E+04</rscale>
<asrwt>0</asrwt>
<pdfrwt beam="1">  1        2 0.84642584E-01 0.11609141E+04</pdfrwt>
<pdfrwt beam="2">  1       -2 0.81237248E-01 0.11609141E+04</pdfrwt>
<totfact> 0.72844805E+01</totfact>
</mgrwt>
</event>
<event>
 4    1  0.3584860E-005  0.9086778E+03  0.7818608E-02  0.9414798E-01
         -2   -1    0    0    0  501 -0.00000000000E+00  0.00000000000E+00  0.53035706921E+03  0.53035706921E+03  0.25500000000E-02 0. -1.
          2   -1    0    0  501    0  0.00000000000E+00 -0.00000000000E+00 -0.38921674727E+03  0.38921674728E+03  0.25500000000E-02 0.  1.
    5000001    1    1    2    0    0  0.40876832309E+03 -0.10941161548E+03  0.82389670957E+02  0.46160101976E+03  0.16500000000E+03 0.  0.
   -5000001    1    1    2    0    0 -0.40876832309E+03  0.10941161548E+03  0.58750650980E+02  0.45797279674E+03  0.16500000000E+03 0.  0.
<mgrwt>
<rscale>  0 0.90867784E+03</rscale>
<asrwt>0</asrwt>
<pdfrwt beam="1">  1        2 0.55602393E-01 0.90867784E+03</pdfrwt>
<pdfrwt beam="2">  1       -2 0.75765295E-01 0.90867784E+03</pdfrwt>
<totfact> 0.13971312E+02</totfact>
</mgrwt>
</event>
<event>
 4    1  0.3584860E-005  0.5857509E+03  0.7818608E-02  0.9935418E-01
         -2   -1    0    0    0  501 -0.00000000000E+00  0.00000000000E+00  0.23546805151E+02  0.23546805289E+02  0.25500000000E-02 0. -1.
          2   -1    0    0  501    0  0.00000000000E+00 -0.00000000000E+00 -0.36427878665E+04  0.36427878665E+04  0.25500000000E-02 0.  1.
    5000001    1    1    2    0    0  0.23188886690E+03  0.54427715398E+01 -0.13782824621E+04  0.14073697509E+04  0.16500000000E+03 0.  0.
   -5000001    1    1    2    0    0 -0.23188886690E+03 -0.54427715398E+01 -0.22409585993E+04  0.22589649209E+04  0.16500000000E+03 0.  0.
<mgrwt>
<rscale>  0 0.58575086E+03</rscale>
<asrwt>0</asrwt>
<pdfrwt beam="1">  1        2 0.52039791E+00 0.58575086E+03</pdfrwt>
<pdfrwt beam="2">  1       -2 0.33638316E-02 0.58575086E+03</pdfrwt>
<totfact> 0.40729261E+02</totfact>
</mgrwt>
</event>
<event>
 4    1  0.3584860E-005  0.3901091E+03  0.7818608E-02  0.1047259E+00
         -2   -1    0    0    0  501 -0.00000000000E+00  0.00000000000E+00  0.25788050005E+02  0.25788050131E+02  0.25500000000E-02 0. -1.
          2   -1    0    0  501    0  0.00000000000E+00 -0.00000000000E+00 -0.14753450808E+04  0.14753450808E+04  0.25500000000E-02 0.  1.
    5000001    1    1    2    0    0 -0.84364791109E+02  0.52861115691E+02 -0.84082932749E+03  0.86263009076E+03  0.16500000000E+03 0.  0.
   -5000001    1    1    2    0    0  0.84364791109E+02 -0.52861115691E+02 -0.60872770332E+03  0.63850304018E+03  0.16500000000E+03 0.  0.
<mgrwt>
<rscale>  0 0.39010908E+03</rscale>
<asrwt>0</asrwt>
<pdfrwt beam="1">  1        2 0.21076353E+00 0.39010908E+03</pdfrwt>
<pdfrwt beam="2">  1       -2 0.36840081E-02 0.39010908E+03</pdfrwt>
<totfact> 0.50155706E+03</totfact>
</mgrwt>
</event>
<event>
 4    1  0.3584860E-005  0.6290963E+03  0.7818608E-02  0.9846814E-01
          2   -1    0    0  501    0  0.00000000000E+00  0.00000000000E+00  0.80730189278E+03  0.80730189278E+03  0.25500000000E-02 0.  1.
         -2   -1    0    0    0  501 -0.00000000000E+00 -0.00000000000E+00 -0.12255704558E+03  0.12255704561E+03  0.25500000000E-02 0. -1.
    5000001    1    1    2    0    0  0.25867249425E+03 -0.41224190716E+02  0.42473040457E+03  0.52557759631E+03  0.16500000000E+03 0.  0.
   -5000001    1    1    2    0    0 -0.25867249425E+03  0.41224190716E+02  0.26001444263E+03  0.40428134208E+03  0.16500000000E+03 0.  0.
<mgrwt>
<rscale>  0 0.62909629E+03</rscale>
<asrwt>0</asrwt>
<pdfrwt beam="1">  1        2 0.11532884E+00 0.62909629E+03</pdfrwt>
<pdfrwt beam="2">  1       -2 0.17508149E-01 0.62909629E+03</pdfrwt>
<totfact> 0.10134144E+03</totfact>
</mgrwt>
</event>
<event>
 4    1  0.3584860E-005  0.6975531E+03  0.7818608E-02  0.9721426E-01
         -2   -1    0    0    0  501 -0.00000000000E+00  0.00000000000E+00  0.12703251701E+03  0.12703251703E+03  0.25500000000E-02 0. -1.
          2   -1    0    0  501    0  0.00000000000E+00 -0.00000000000E+00 -0.95759011900E+03  0.95759011901E+03  0.25500000000E-02 0.  1.
    5000001    1    1    2    0    0  0.44181660693E+02  0.26105105123E+03 -0.65776490614E+03  0.72799680098E+03  0.16500000000E+03 0.  0.
   -5000001    1    1    2    0    0 -0.44181660693E+02 -0.26105105123E+03 -0.17279269585E+03  0.35662583506E+03  0.16500000000E+03 0.  0.
<mgrwt>
<rscale>  0 0.69755310E+03</rscale>
<asrwt>0</asrwt>
<pdfrwt beam="1">  1        2 0.13679858E+00 0.69755310E+03</pdfrwt>
<pdfrwt beam="2">  1       -2 0.18147503E-01 0.69755310E+03</pdfrwt>
<totfact> 0.75784183E+02</totfact>
</mgrwt>
</event>
<event>
 4    1  0.3584860E-005  0.4528121E+03  0.7818608E-02  0.1026887E+00
         -2   -1    0    0    0  501 -0.00000000000E+00  0.00000000000E+00  0.11273984052E+03  0.11273984054E+03  0.25500000000E-02 0. -1.
          2   -1    0    0  501    0  0.00000000000E+00 -0.00000000000E+00 -0.45467235410E+03  0.45467235411E+03  0.25500000000E-02 0.  1.
    5000001    1    1    2    0    0  0.69177505201E+02 -0.11090149790E+03 -0.66500563519E+02  0.22075324326E+03  0.16500000000E+03 0.  0.
   -5000001    1    1    2    0    0 -0.69177505201E+02  0.11090149790E+03 -0.27543195007E+03  0.34665895139E+03  0.16500000000E+03 0.  0.
<mgrwt>
<rscale>  0 0.45281205E+03</rscale>
<asrwt>0</asrwt>
<pdfrwt beam="1">  1        2 0.64953192E-01 0.45281205E+03</pdfrwt>
<pdfrwt beam="2">  1       -2 0.16105692E-01 0.45281205E+03</pdfrwt>
<totfact> 0.23035562E+03</totfact>
</mgrwt>
</event>
<event>
 4    1  0.3584860E-005  0.9879587E+03  0.7818608E-02  0.9321851E-01
         -2   -1    0    0    0  501 -0.00000000000E+00  0.00000000000E+00  0.54192219346E+03  0.54192219347E+03  0.25500000000E-02 0. -1.
          2   -1    0    0  501    0  0.00000000000E+00 -0.00000000000E+00 -0.45027791363E+03  0.45027791363E+03  0.25500000000E-02 0.  1.
    5000001    1    1    2    0    0  0.33810134895E+03  0.12989779540E+03 -0.24801664758E+03  0.46895971777E+03  0.16500000000E+03 0.  0.
   -5000001    1    1    2    0    0 -0.33810134895E+03 -0.12989779540E+03  0.33966092742E+03  0.52324038933E+03  0.16500000000E+03 0.  0.
<mgrwt>
<rscale>  0 0.98795869E+03</rscale>
<asrwt>0</asrwt>
<pdfrwt beam="1">  1        2 0.64325416E-01 0.98795869E+03</pdfrwt>
<pdfrwt beam="2">  1       -2 0.77417456E-01 0.98795869E+03</pdfrwt>
<totfact> 0.11258470E+02</totfact>
</mgrwt>
</event>
